/*--------------------------------*- C++ -*----------------------------------*\
| =========                 |                                                 |
| \\      /  F ield         | OpenFOAM: The Open Source CFD Toolbox           |
|  \\    /   O peration     | Version:  2306                                  |
|   \\  /    A nd           | Website:  www.openfoam.com                      |
|    \\/     M anipulation  |                                                 |
\*---------------------------------------------------------------------------*/
FoamFile
{
    version     2.0;
    format      ascii;
    arch        "LSB;label=32;scalar=64";
    class       volScalarField;
    location    "1.2/fuel";
    object      H2;
}
// * * * * * * * * * * * * * * * * * * * * * * * * * * * * * * * * * * * * * //

dimensions      [0 0 0 0 0 0 0];

internalField   nonuniform List<scalar> 
16000
(
0.6115144
0.6163249
0.5437312
0.6117895
0.6261012
0.54684
0.6166061
0.4811918
0.5439386
0.6123279
0.6409452
0.5531176
0.6263953
0.4834871
0.5470506
0.6171563
0.4305744
0.4813487
0.5443449
0.6131219
0.6603155
0.562555
0.6412608
0.4881115
0.553335
0.6269708
0.4323735
0.483646
0.5474633
0.6179677
0.389491
0.4306971
0.4816563
0.5449445
0.6141678
0.6813607
0.5747191
0.6606636
0.4950406
0.5627834
0.6418781
0.4359911
0.4882746
0.5537609
0.6278194
0.3909468
0.4324975
0.4839575
0.5480721
0.6190366
0.3555697
0.3895897
0.4309378
0.4821105
0.5457345
0.6152056
0.6975026
0.5877877
0.681751
0.5039318
0.5749636
0.6613446
0.4413962
0.4952105
0.5632307
0.6427883
0.3938697
0.436118
0.4885944
0.5543892
0.6289372
0.3567745
0.3910465
0.4327408
0.4844175
0.5488744
0.6200973
0.3270859
0.3556509
0.3897834
0.4312934
0.4827092
0.5465183
0.6160662
0.7079224
0.597818
0.6979194
0.5134359
0.5880528
0.6825149
0.4483051
0.5041116
0.5754426
0.6623487
0.3982266
0.4415276
0.4955435
0.5638906
0.6439872
0.3591904
0.3939714
0.4363669
0.4890665
0.5552172
0.6300464
0.3281007
0.3568564
0.3912421
0.4331004
0.4850238
0.5496704
0.6209767
0.302818
0.327154
0.3558105
0.3900698
0.4317622
0.4833032
0.5471679
0.616922
0.713904
0.6043548
0.7083539
0.5207022
0.5980944
0.6987348
0.4556589
0.5136285
0.588572
0.6836417
0.4037786
0.4484433
0.5044642
0.5761495
0.6636718
0.3627848
0.3983315
0.4417855
0.4960351
0.5647602
0.6451771
0.3301335
0.3592738
0.3941711
0.4367346
0.4896887
0.5560387
0.6309666
0.3036852
0.3281693
0.3570174
0.3915314
0.4335744
0.4856254
0.5503301
0.6218516
0.2818839
0.3028759
0.3272878
0.3560464
0.3904476
0.4322274
0.4837953
0.5478137
0.6177732
0.716607
0.6081577
0.7143434
0.5254313
0.6046367
0.7091976
0.4612622
0.5209011
0.5986359
0.6999375
0.4096681
0.4558059
0.5140061
0.5893386
0.6851274
0.3673539
0.4038885
0.4487147
0.504985
0.577081
0.6649851
0.3331534
0.3628707
0.3985376
0.4421664
0.496683
0.565623
0.6461661
0.3054208
0.3302033
0.3594378
0.3944662
0.4372194
0.4903061
0.5567199
0.6318825
0.282634
0.3037436
0.3283043
0.3572555
0.3919128
0.4340447
0.4861238
0.5509861
0.6227217
0.263633
0.2819338
0.3029899
0.3274858
0.3563577
0.3908224
0.4326126
0.4842844
0.5484558
0.6186197
0.716607
0.6098954
0.71705
0.5281837
0.6084424
0.7152024
0.4649025
0.5256329
0.6051889
0.7104417
0.4141434
0.4614132
0.5212912
0.5994351
0.701523
0.3721875
0.4097843
0.4560944
0.514564
0.5903493
0.6866031
0.3369845
0.3674435
0.4041044
0.4491155
0.5056713
0.5780055
0.6660826
0.307996
0.3332251
0.3630394
0.3988423
0.4426687
0.4973259
0.5663395
0.6471524
0.2841342
0.3054801
0.3303405
0.3596803
0.3948554
0.4377005
0.4908178
0.5573974
0.632794
0.2642885
0.2826843
0.3038584
0.3285039
0.3575696
0.3922914
0.4344343
0.4866192
0.5516382
0.623587
0.247575
0.2636765
0.2820321
0.3031585
0.3277471
0.3566667
0.3911328
0.4329955
0.4847704
0.5490941
0.6227143
0.713904
0.6098954
0.71705
0.5294426
0.6101813
0.7179158
0.4670202
0.5283866
0.6089999
0.7164689
0.4170466
0.4650551
0.5260283
0.6060039
0.7120817
0.3758523
0.4142624
0.4617096
0.5218675
0.6004888
0.7030982
0.3410283
0.372282
0.4100128
0.4565209
0.5152997
0.5913528
0.6878478
0.3112575
0.3370591
0.3676197
0.4044234
0.4496441
0.5063525
0.5787766
0.6671828
0.2863576
0.3080568
0.333366
0.363289
0.399244
0.4431671
0.4978596
0.5670533
0.6481357
0.2655987
0.2841852
0.3055967
0.3305435
0.3600001
0.3952416
0.4380991
0.4913266
0.5580713
0.633701
0.248153
0.2643323
0.2827832
0.3040283
0.3287673
0.3578813
0.3926048
0.4348214
0.4871115
0.5522865
0.6277733
0.2333331
0.2476132
0.2637621
0.2821775
0.3033811
0.3280065
0.3569225
0.3914412
0.4333758
0.4852534
0.5521802
0.6255295
0.7079224
0.6081577
0.7143434
0.5294426
0.6101813
0.7179158
0.4679887
0.5296459
0.6107412
0.7191922
0.4187343
0.4671733
0.5287843
0.6098227
0.7181381
0.3782266
0.4171665
0.4653544
0.5266123
0.6070782
0.7137108
0.3440888
0.3759488
0.4144963
0.4621478
0.5226275
0.601535
0.704427
0.3146938
0.3411067
0.3724677
0.4103506
0.4570835
0.5160301
0.5921965
0.6891071
0.2891697
0.3113206
0.3372058
0.3678802
0.4048443
0.4501687
0.5069204
0.5795482
0.6682857
0.2675388
0.2864098
0.3081763
0.3335745
0.3636183
0.3996427
0.4435806
0.498391
0.5677643
0.6491161
0.2493075
0.2656431
0.2842855
0.3057693
0.3308113
0.3603175
0.3955615
0.4384953
0.4918325
0.5587415
0.6380908
0.2338467
0.2481914
0.2644185
0.2829297
0.3042526
0.3290288
0.3581394
0.3929163
0.435206
0.4876008
0.5554216
0.6306646
0.2206132
0.233367
0.2476885
0.263889
0.2823696
0.3036021
0.3282212
0.3571766
0.3917475
0.4337537
0.4875881
0.5542954
0.6276626
0.6975026
0.6043548
0.7083539
0.5281837
0.6084424
0.7152024
0.4679887
0.5296459
0.6107412
0.7191922
0.4195061
0.468142
0.5300447
0.6115674
0.7208745
0.3796059
0.4188545
0.4674738
0.5293717
0.6109073
0.7197961
0.3460692
0.3783235
0.4174021
0.4657969
0.5273823
0.6081447
0.7150825
0.3172904
0.3441686
0.3761384
0.4148421
0.4627258
0.5233818
0.6024149
0.7057717
0.2921278
0.31476
0.341261
0.3727426
0.4107964
0.457642
0.5166438
0.5930476
0.6903813
0.2699896
0.2892238
0.3114447
0.3374228
0.3682239
0.405262
0.4506059
0.5074883
0.5803203
0.6693911
0.2510158
0.2675841
0.2865125
0.3083532
0.3338496
0.363945
0.3999735
0.4439924
0.4989202
0.5684726
0.6538702
0.234872
0.2493464
0.2657304
0.2844341
0.3059971
0.3310772
0.3605805
0.3958795
0.4388892
0.4923355
0.5619839
0.6411737
0.2210726
0.2338807
0.2482672
0.2645461
0.2831231
0.3044752
0.3292452
0.3583958
0.3932256
0.4355881
0.489966
0.557578
0.6328661
0.209182
0.2206435
0.2334338
0.2478001
0.2640564
0.2825603
0.3037851
0.3284344
0.3574289
0.3920517
0.4355797
0.4891847
0.5558952
0.6290959
0.6813607
0.597818
0.6979194
0.5254313
0.6046367
0.7091976
0.4670202
0.5283866
0.6089999
0.7164689
0.4195061
0.468142
0.5300447
0.6115674
0.7208745
0.3802365
0.4196264
0.4684429
0.5306335
0.6126563
0.7225455
0.3472192
0.379703
0.4190906
0.4679179
0.5301462
0.6119839
0.7211901
0.3189691
0.3461494
0.3785142
0.4177503
0.4663804
0.5281466
0.6090402
0.7164679
0.2943602
0.3173577
0.3443257
0.3764189
0.4152983
0.4632995
0.5240159
0.6033026
0.7071326
0.2725643
0.2921844
0.3148902
0.3414893
0.3731053
0.411239
0.4581112
0.5172625
0.5939061
0.6916706
0.2531716
0.2700365
0.2893303
0.3116285
0.3377091
0.368565
0.40561
0.451043
0.5080564
0.5810928
0.6747808
0.2363881
0.2510556
0.2676735
0.2866647
0.3085868
0.3341227
0.3642161
0.4003027
0.4444023
0.4994471
0.5719044
0.6573945
0.2219895
0.2349065
0.2494232
0.2658598
0.2846303
0.3062232
0.3312974
0.3608418
0.3961956
0.4392807
0.4947678
0.5642441
0.6435654
0.2095954
0.221103
0.2339479
0.2483794
0.2647147
0.2833151
0.3046596
0.3294602
0.3586504
0.393533
0.437435
0.491589
0.5592152
0.6343521
0.198852
0.2092092
0.2207031
0.2335327
0.2479475
0.2642227
0.2827181
0.3039667
0.3286461
0.3576795
0.3935217
0.4368265
0.4903908
0.5569685
0.6298161
0.6603155
0.5877877
0.681751
0.5207022
0.5980944
0.6987348
0.4649025
0.5256329
0.6051889
0.7104417
0.4187343
0.4671733
0.5287843
0.6098227
0.7181381
0.3802365
0.4196264
0.4684429
0.5306335
0.6126563
0.7225455
0.3477448
0.3803336
0.4198627
0.4688876
0.5314098
0.6137373
0.7239494
0.3199433
0.3472994
0.3798939
0.4194397
0.4685035
0.5309149
0.6128866
0.7225959
0.2958023
0.3190366
0.3463071
0.3787962
0.4182098
0.4669596
0.528788
0.6099421
0.7178672
0.2745051
0.2944177
0.3174901
0.3445582
0.376789
0.4157512
0.4637817
0.5246554
0.6041983
0.7085097
0.2554337
0.2726133
0.292296
0.315083
0.3417906
0.3734654
0.4116107
0.4585842
0.5178863
0.5947722
0.6980168
0.2382996
0.2532127
0.2701289
0.2894879
0.311871
0.3379934
0.3688493
0.405958
0.4514802
0.5086245
0.5848529
0.6793794
0.2233444
0.2364233
0.2511339
0.2678057
0.2868655
0.3088186
0.3343492
0.3644859
0.4006305
0.4448104
0.5019993
0.5744061
0.6603052
0.2104203
0.2220202
0.2349745
0.2495369
0.2660307
0.2848252
0.3064105
0.3315162
0.3611014
0.3965097
0.4411736
0.4964586
0.5659865
0.6452097
0.1992261
0.2096227
0.2211629
0.2340474
0.2485277
0.2648821
0.2834741
0.3048426
0.3296738
0.3589033
0.395018
0.4387003
0.4928197
0.5603176
0.6351013
0.1894709
0.1988765
0.2092627
0.2207914
0.2336634
0.2480938
0.2643604
0.2828748
0.3041471
0.3288564
0.3588903
0.3945242
0.4377676
0.4911994
0.5575073
0.6409452
0.5747191
0.6606636
0.5134359
0.5880528
0.6825149
0.4612622
0.5209011
0.5986359
0.6999375
0.4170466
0.4650551
0.5260283
0.6060039
0.7120817
0.3796059
0.4188545
0.4674738
0.5293717
0.6109073
0.7197961
0.3477448
0.3803336
0.4198627
0.4688876
0.5314098
0.6137373
0.7239494
0.3203885
0.347825
0.3805246
0.420212
0.4694741
0.5321803
0.6146432
0.7253642
0.2966388
0.3200108
0.3474572
0.3801763
0.4199002
0.4690848
0.5315592
0.6137947
0.7240138
0.2757579
0.2958599
0.3191694
0.3465406
0.3791683
0.4186659
0.4674455
0.5294337
0.6108506
0.7192805
0.2571373
0.2745548
0.2945309
0.3176861
0.3448651
0.3771566
0.4161318
0.4642678
0.5253002
0.605102
0.7152882
0.2403035
0.2554766
0.2727099
0.2924612
0.3153377
0.3420899
0.3737679
0.4119854
0.4590609
0.5185153
0.5990228
0.704782
0.2250513
0.238336
0.2532936
0.2702658
0.2896962
0.3121119
0.3382303
0.3691334
0.4063059
0.4519173
0.5113886
0.5879484
0.6838458
0.2116385
0.2233757
0.2364926
0.25125
0.2679804
0.2870649
0.3090109
0.3345746
0.3647544
0.4009566
0.4467864
0.5038527
0.5764394
0.6624443
0.1999722
0.2104479
0.2220809
0.2350752
0.2496871
0.2662004
0.2849865
0.3065965
0.3317336
0.3613594
0.398028
0.4424871
0.4977598
0.5671775
0.6460505
0.189811
0.1992507
0.2096765
0.2212518
0.2341789
0.248675
0.2650206
0.2836319
0.3050244
0.3298858
0.3601253
0.3960341
0.4396589
0.4936476
0.5608725
0.1809135
0.1894932
0.1989249
0.2093421
0.2209082
0.2337933
0.248215
0.264497
0.2830304
0.3043262
0.3298721
0.3597152
0.3952805
0.4383982
0.4916051
0.6261012
0.562555
0.6412608
0.5039318
0.5749636
0.6613446
0.4556589
0.5136285
0.588572
0.6836417
0.4141434
0.4614132
0.5212912
0.5994351
0.701523
0.3782266
0.4171665
0.4653544
0.5266123
0.6070782
0.7137108
0.3472192
0.379703
0.4190906
0.4679179
0.5301462
0.6119839
0.7211901
0.3203885
0.347825
0.3805246
0.420212
0.4694741
0.5321803
0.6146432
0.7253642
0.297021
0.3204559
0.3479828
0.380807
0.4206728
0.4700561
0.5328256
0.6155538
0.7267901
0.2764844
0.2966964
0.3201436
0.3476907
0.3805488
0.4203573
0.4695718
0.5322069
0.6147082
0.7254436
0.2582362
0.2758077
0.2959733
0.319366
0.3468487
0.3795378
0.4190485
0.4679346
0.5300838
0.6117656
0.7262234
0.2418113
0.2571807
0.2746528
0.2946986
0.317945
0.3451699
0.3774654
0.4165154
0.4647579
0.5259505
0.6095375
0.7224144
0.226839
0.2403413
0.2555611
0.2728531
0.2926794
0.3155906
0.3423413
0.3740727
0.412363
0.4595415
0.5216007
0.6033119
0.7132815
0.2131722
0.2250836
0.2384075
0.2534136
0.2704466
0.2899029
0.3123125
0.3384671
0.3694175
0.4066537
0.4540433
0.5136517
0.5908591
0.6878307
0.2010735
0.2116666
0.2234375
0.2365954
0.2514034
0.2681539
0.2872303
0.3092022
0.3347989
0.3650216
0.4025359
0.4482188
0.505355
0.5779114
0.6636068
0.1904891
0.1999971
0.2105023
0.2221707
0.2352083
0.2498362
0.2663408
0.2851468
0.3067814
0.3319496
0.3626065
0.3990804
0.4434971
0.4986482
0.5677841
0.181224
0.1898333
0.1992993
0.2097564
0.2213692
0.2343095
0.2487969
0.2651582
0.2837886
0.3052049
0.3309102
0.3609607
0.3968035
0.4403034
0.494064
0.1730757
0.1809337
0.1895371
0.1989966
0.209447
0.2210242
0.2339007
0.2483352
0.2646327
0.2831849
0.3051913
0.3305637
0.3603372
0.395787
0.4387145
0.6163249
0.5531176
0.6263953
0.4950406
0.5627834
0.6418781
0.4483051
0.5041116
0.5754426
0.6623487
0.4096681
0.4558059
0.5140061
0.5893386
0.6851274
0.3758523
0.4142624
0.4617096
0.5218675
0.6004888
0.7030982
0.3460692
0.3783235
0.4174021
0.4657969
0.5273823
0.6081447
0.7150825
0.3199433
0.3472994
0.3798939
0.4194397
0.4685035
0.5309149
0.6128866
0.7225959
0.297021
0.3204559
0.3479828
0.380807
0.4206728
0.4700561
0.5328256
0.6155538
0.7267901
0.2768162
0.2970785
0.3205887
0.3482163
0.3811797
0.4211302
0.4705435
0.5334741
0.6164693
0.7282271
0.2588733
0.2765341
0.2968097
0.3203401
0.3479989
0.3809187
0.4207402
0.4700614
0.5328582
0.6156271
0.7324576
0.2427834
0.2582797
0.2759058
0.2961413
0.3196256
0.3471546
0.3798477
0.4194336
0.4684269
0.5307383
0.616249
0.733189
0.2281832
0.2418496
0.2572664
0.274798
0.2949201
0.3182021
0.3454259
0.3777766
0.4169021
0.465252
0.5291405
0.6139654
0.731033
0.2147773
0.2268727
0.240416
0.2556865
0.2730423
0.2928961
0.315803
0.3425945
0.3743799
0.4127435
0.4618982
0.5246946
0.6084786
0.7242784
0.2024592
0.2132012
0.2251473
0.2385136
0.2535722
0.2706262
0.2900752
0.312513
0.3387037
0.3697014
0.4083453
0.455781
0.5157709
0.5933811
0.6905842
0.1914897
0.2010989
0.2117221
0.2235291
0.2367312
0.2515557
0.2682977
0.2873949
0.3093926
0.3350221
0.3663152
0.4036794
0.4493788
0.5064402
0.5787021
0.181843
0.1905117
0.2000462
0.210583
0.2222895
0.2353405
0.2499597
0.2664804
0.285306
0.306965
0.3329935
0.36347
0.3998891
0.4441862
0.4991002
0.1733604
0.1812443
0.1898775
0.1993714
0.2098618
0.2214858
0.2344176
0.2489179
0.2652948
0.2839443
0.3060769
0.33161
0.3615929
0.3973206
0.4406275
0.1658708
0.1730943
0.1809737
0.1896022
0.1990915
0.2095513
0.2211202
0.2340074
0.2484546
0.2647674
0.2839311
0.3057799
0.3310849
0.3607537
0.396041
0.6115144
0.54684
0.6166061
0.4881115
0.553335
0.6269708
0.4413962
0.4952105
0.5632307
0.6427883
0.4037786
0.4484433
0.5044642
0.5761495
0.6636718
0.3721875
0.4097843
0.4560944
0.514564
0.5903493
0.6866031
0.3440888
0.3759488
0.4144963
0.4621478
0.5226275
0.601535
0.704427
0.3189691
0.3461494
0.3785142
0.4177503
0.4663804
0.5281466
0.6090402
0.7164679
0.2966388
0.3200108
0.3474572
0.3801763
0.4199002
0.4690848
0.5315592
0.6137947
0.7240138
0.2768162
0.2970785
0.3205887
0.3482163
0.3811797
0.4211302
0.4705435
0.5334741
0.6164693
0.7282271
0.2591642
0.2768659
0.2971918
0.3207852
0.3485244
0.3815496
0.4215132
0.4710331
0.5341257
0.6173897
0.7352711
0.2433467
0.2589167
0.2766321
0.2969776
0.3205996
0.348305
0.3812285
0.421125
0.4705535
0.533513
0.6201233
0.739264
0.2290495
0.2428217
0.2583654
0.2760511
0.2963632
0.3198834
0.3474111
0.3801595
0.419821
0.4689223
0.5339434
0.6205387
0.7412462
0.2159833
0.2282173
0.2419251
0.2573933
0.2749898
0.2951401
0.3184181
0.3456839
0.3780904
0.4172919
0.4676754
0.5323098
0.6191145
0.7413158
0.2039084
0.2148074
0.2269391
0.2405266
0.2558521
0.2732302
0.2930781
0.3160171
0.3428498
0.3746895
0.4146098
0.4642589
0.5284035
0.6149378
0.739262
0.1927479
0.2024853
0.2132583
0.2252418
0.2386538
0.2537296
0.2707758
0.2902473
0.3127134
0.3389402
0.3710821
0.4097265
0.4574067
0.5176002
0.5950812
0.182756
0.1915126
0.2011489
0.2118043
0.2236502
0.2368661
0.2516821
0.2684409
0.2875586
0.309582
0.3361026
0.367251
0.404605
0.4502161
0.5070222
0.1739277
0.1818635
0.1905562
0.200119
0.2106896
0.2224075
0.2354499
0.2500824
0.2666191
0.2854641
0.3078524
0.3337158
0.3641333
0.4004406
0.4445368
0.1661327
0.173379
0.1812845
0.1899429
0.1994667
0.2099667
0.2215824
0.2345249
0.249038
0.2654304
0.2846959
0.3066721
0.3321394
0.3620176
0.3975805
0.1592253
0.1658878
0.1731309
0.1810331
0.1896883
0.1991857
0.2096376
0.2212155
0.2341133
0.2485731
0.2654179
0.2844385
0.3062234
0.3314338
0.3609625
0.5437312
0.6117895
0.4834871
0.5470506
0.6171563
0.4359911
0.4882746
0.5537609
0.6278194
0.3982266
0.4415276
0.4955435
0.5638906
0.6439872
0.3673539
0.4038885
0.4487147
0.504985
0.577081
0.6649851
0.3410283
0.372282
0.4100128
0.4565209
0.5152997
0.5913528
0.6878478
0.3172904
0.3441686
0.3761384
0.4148421
0.4627258
0.5233818
0.6024149
0.7057717
0.2958023
0.3190366
0.3463071
0.3787962
0.4182098
0.4669596
0.528788
0.6099421
0.7178672
0.2764844
0.2966964
0.3201436
0.3476907
0.3805488
0.4203573
0.4695718
0.5322069
0.6147082
0.7254436
0.2591642
0.2768659
0.2971918
0.3207852
0.3485244
0.3815496
0.4215132
0.4710331
0.5341257
0.6173897
0.7352711
0.2436039
0.2592076
0.2769638
0.2973596
0.3210446
0.3488304
0.3818593
0.4218978
0.471525
0.5347804
0.6218903
0.7420014
0.2295513
0.2433849
0.2590023
0.2767773
0.2971993
0.3208574
0.3485612
0.3815398
0.4215118
0.4710481
0.5367157
0.6242965
0.7469214
0.2167602
0.2290835
0.2428972
0.2584924
0.2762431
0.2965836
0.3200995
0.3476693
0.3804732
0.4202109
0.4713483
0.5369986
0.6253157
0.7504058
0.2049967
0.2160138
0.2282844
0.2420371
0.2575611
0.2751803
0.2953249
0.3186357
0.345944
0.3784066
0.4192037
0.4700813
0.535982
0.6250601
0.7534055
0.1940629
0.2039355
0.2148669
0.2270375
0.2406729
0.2560167
0.273388
0.2932615
0.3162327
0.3431069
0.3762075
0.4164786
0.4670862
0.5330176
0.6234963
0.7649353
0.1839035
0.1927715
0.2025368
0.213343
0.2253667
0.238793
0.2538608
0.2709253
0.2904194
0.3129137
0.3400904
0.3722089
0.4110182
0.4588088
0.5188299
0.1747641
0.1827769
0.191558
0.201223
0.2119129
0.2237705
0.2369779
0.2518077
0.2685833
0.2877216
0.310499
0.3368837
0.3680082
0.4052728
0.450665
0.1666544
0.1739465
0.1819041
0.1906223
0.2002153
0.2107956
0.2225052
0.2355586
0.2502043
0.2667568
0.2862284
0.3084661
0.3342704
0.3645855
0.400721
0.159467
0.1661498
0.1734158
0.1813442
0.1900294
0.1995614
0.2100534
0.2216782
0.2346314
0.2491573
0.2660855
0.2852088
0.3071223
0.332495
0.3622311
0.153077
0.159241
0.1659215
0.1731853
0.1811117
0.1897739
0.1992637
0.2097232
0.22131
0.2342184
0.2491454
0.26586
0.2848208
0.3065202
0.3316087
0.4811918
0.5439386
0.6123279
0.4323735
0.483646
0.5474633
0.6179677
0.3938697
0.436118
0.4885944
0.5543892
0.6289372
0.3627848
0.3983315
0.4417855
0.4960351
0.5647602
0.6451771
0.3369845
0.3674435
0.4041044
0.4491155
0.5056713
0.5780055
0.6660826
0.3146938
0.3411067
0.3724677
0.4103506
0.4570835
0.5160301
0.5921965
0.6891071
0.2943602
0.3173577
0.3443257
0.3764189
0.4152983
0.4632995
0.5240159
0.6033026
0.7071326
0.2757579
0.2958599
0.3191694
0.3465406
0.3791683
0.4186659
0.4674455
0.5294337
0.6108506
0.7192805
0.2588733
0.2765341
0.2968097
0.3203401
0.3479989
0.3809187
0.4207402
0.4700614
0.5328582
0.6156271
0.7324576
0.2436039
0.2592076
0.2769638
0.2973596
0.3210446
0.3488304
0.3818593
0.4218978
0.471525
0.5347804
0.6218903
0.7420014
0.2297804
0.2436421
0.2592931
0.2771089
0.2975812
0.3213022
0.3490865
0.3821703
0.4222841
0.4720191
0.5379808
0.626009
0.7494787
0.2172101
0.2295852
0.2434603
0.2591291
0.276969
0.2974196
0.3210732
0.3488187
0.3818527
0.4219005
0.4734669
0.5396791
0.6288201
0.755423
0.2056974
0.2167906
0.2291506
0.2430092
0.2586602
0.2764338
0.2967684
0.320317
0.347929
0.3807889
0.4221198
0.4736594
0.540392
0.6305691
0.7606323
0.1950498
0.205024
0.2160738
0.228384
0.2421851
0.2577277
0.2753403
0.2955111
0.3188551
0.3462061
0.3799571
0.4211014
0.4728675
0.5402071
0.6318522
0.7696153
0.1851022
0.1940874
0.2039891
0.214955
0.2271677
0.2408183
0.2561549
0.273547
0.2934463
0.31645
0.3443679
0.3777274
0.4187161
0.4705981
0.5390997
0.637849
0.7793514
0.1758149
0.183925
0.1928181
0.2026131
0.2134549
0.2254907
0.238909
0.2539919
0.2710746
0.2905913
0.3138876
0.3410285
0.3732624
0.4121319
0.4597508
0.1674235
0.1747832
0.1828182
0.1916252
0.2013211
0.2120208
0.2238702
0.2370892
0.2519328
0.2687249
0.28851
0.3111614
0.3375155
0.3685543
0.4056308
0.1599485
0.1666717
0.1739836
0.1819644
0.1907097
0.2003111
0.2108834
0.2226022
0.2356666
0.2503253
0.2674222
0.2867566
0.3089372
0.3346484
0.3648154
0.1533007
0.1594828
0.1661836
0.1734704
0.1814231
0.1901154
0.1996398
0.2101395
0.2217733
0.2347372
0.2497334
0.2665322
0.2855967
0.3074247
0.3326737
0.1473724
0.1530915
0.1592721
0.1659715
0.1732573
0.1811898
0.1898447
0.1993411
0.2098082
0.2214039
0.234726
0.2495343
0.2661931
0.2850765
0.306669
0.4305744
0.4813487
0.5443449
0.6131219
0.3909468
0.4324975
0.4839575
0.5480721
0.6190366
0.3591904
0.3939714
0.4363669
0.4890665
0.5552172
0.6300464
0.3331534
0.3628707
0.3985376
0.4421664
0.496683
0.565623
0.6461661
0.3112575
0.3370591
0.3676197
0.4044234
0.4496441
0.5063525
0.5787766
0.6671828
0.2921278
0.31476
0.341261
0.3727426
0.4107964
0.457642
0.5166438
0.5930476
0.6903813
0.2745051
0.2944177
0.3174901
0.3445582
0.376789
0.4157512
0.4637817
0.5246554
0.6041983
0.7085097
0.2582362
0.2758077
0.2959733
0.319366
0.3468487
0.3795378
0.4190485
0.4679346
0.5300838
0.6117656
0.7262234
0.2433467
0.2589167
0.2766321
0.2969776
0.3205996
0.348305
0.3812285
0.421125
0.4705535
0.533513
0.6201233
0.739264
0.2297804
0.2436421
0.2592931
0.2771089
0.2975812
0.3213022
0.3490865
0.3821703
0.4222841
0.4720191
0.5379808
0.626009
0.7494787
0.2174155
0.2298143
0.2437174
0.2594198
0.2773004
0.2978012
0.3215177
0.3493436
0.3824826
0.4226721
0.4744337
0.5409015
0.6304197
0.7576995
0.2061031
0.2172405
0.2296522
0.2435721
0.2592966
0.2771595
0.2976039
0.32129
0.3490775
0.382167
0.4238009
0.4757039
0.5428852
0.6336767
0.7647384
0.1956851
0.2057247
0.2168506
0.2292501
0.2431572
0.258827
0.2765937
0.2969543
0.3205358
0.3481903
0.3823342
0.4239381
0.4762258
0.5441142
0.6362583
0.7737678
0.1860013
0.1950746
0.2050781
0.2161629
0.2285156
0.2423322
0.2578677
0.2755016
0.2956988
0.3190761
0.3474912
0.3814963
0.4232988
0.4760697
0.5450163
0.64072
0.7813931
0.176912
0.1851245
0.1941359
0.2040685
0.2150716
0.2272971
0.2409403
0.2562941
0.2737072
0.2936325
0.3175153
0.3456304
0.379547
0.4214932
0.4752169
0.549245
0.6463828
0.7902548
0.1683893
0.1758345
0.1839674
0.1928873
0.2027141
0.2135661
0.2255941
0.2390249
0.2541229
0.2712239
0.2914272
0.3146817
0.3419056
0.3741706
0.4128801
0.160658
0.1674411
0.174821
0.1828794
0.1917141
0.2014185
0.2121104
0.2239694
0.2371998
0.2520571
0.2694105
0.2890794
0.3116972
0.3379711
0.3688472
0.1537463
0.1599644
0.1667058
0.1740388
0.1820441
0.1907966
0.2003903
0.2109705
0.2226986
0.2357739
0.2509101
0.2678819
0.287162
0.3092583
0.3348406
0.1475801
0.1533153
0.1595139
0.1662338
0.1735427
0.1815016
0.1901866
0.1997176
0.210225
0.2218678
0.235248
0.2501262
0.2668699
0.285857
0.3075766
0.1420659
0.1473859
0.1531202
0.1593181
0.1660376
0.1733288
0.1812544
0.189915
0.1994179
0.2098926
0.2218573
0.2350708
0.2498272
0.2664159
0.2852047
0.389491
0.4306971
0.4816563
0.5449445
0.6141678
0.3567745
0.3910465
0.4327408
0.4844175
0.5488744
0.6200973
0.3301335
0.3592738
0.3941711
0.4367346
0.4896887
0.5560387
0.6309666
0.307996
0.3332251
0.3630394
0.3988423
0.4426687
0.4973259
0.5663395
0.6471524
0.2891697
0.3113206
0.3372058
0.3678802
0.4048443
0.4501687
0.5069204
0.5795482
0.6682857
0.2725643
0.2921844
0.3148902
0.3414893
0.3731053
0.411239
0.4581112
0.5172625
0.5939061
0.6916706
0.2571373
0.2745548
0.2945309
0.3176861
0.3448651
0.3771566
0.4161318
0.4642678
0.5253002
0.605102
0.7152882
0.2427834
0.2582797
0.2759058
0.2961413
0.3196256
0.3471546
0.3798477
0.4194336
0.4684269
0.5307383
0.616249
0.733189
0.2295513
0.2433849
0.2590023
0.2767773
0.2971993
0.3208574
0.3485612
0.3815398
0.4215118
0.4710481
0.5367157
0.6242965
0.7469214
0.2174155
0.2298143
0.2437174
0.2594198
0.2773004
0.2978012
0.3215177
0.3493436
0.3824826
0.4226721
0.4744337
0.5409015
0.6304197
0.7576995
0.2062883
0.2174458
0.2298812
0.2438291
0.2595871
0.2774907
0.2979854
0.3217342
0.3496019
0.3827962
0.424568
0.4766362
0.5440242
0.6351084
0.7666452
0.1960528
0.2061304
0.2173003
0.2297515
0.2437198
0.2594631
0.277319
0.2977892
0.3215078
0.3493375
0.3837038
0.4255582
0.4781237
0.5463205
0.6388334
0.7765833
0.1865799
0.1957098
0.2057787
0.2169396
0.2293816
0.2433043
0.2589668
0.2767546
0.2971414
0.3207559
0.3494692
0.3838062
0.4259573
0.4790388
0.5481351
0.643354
0.7837758
0.1777346
0.1860239
0.1951235
0.2051583
0.2162807
0.2286464
0.2424557
0.2580088
0.2756641
0.2958879
0.3201599
0.348767
0.3832786
0.4258229
0.4797088
0.5512739
0.6477641
0.7912884
0.1693971
0.1769324
0.1851685
0.1942078
0.2041735
0.2151875
0.2274057
0.2410633
0.2564344
0.2738686
0.2945452
0.3185819
0.3471418
0.3818042
0.4251404
0.4828984
0.5552452
0.6532928
0.7987701
0.1615486
0.1684073
0.1758733
0.1840304
0.1929788
0.2028144
0.2136588
0.2256973
0.2391408
0.2542537
0.2719497
0.2921086
0.315424
0.3426615
0.3747807
0.1544029
0.1606742
0.1674757
0.174877
0.1829605
0.1918025
0.2014993
0.2121994
0.2240681
0.2373099
0.252659
0.2699055
0.2895399
0.3120835
0.3382155
0.1479938
0.1537611
0.1599958
0.1667565
0.1741117
0.1821233
0.1908686
0.200469
0.211057
0.2227943
0.236292
0.251314
0.2682346
0.2874383
0.3094214
0.1422592
0.1475937
0.1533441
0.1595602
0.1663002
0.1736146
0.1815665
0.1902573
0.1997949
0.2103098
0.2223239
0.2355961
0.2504231
0.2670967
0.2859879
0.1371176
0.1420784
0.1474125
0.1531628
0.1593791
0.1661034
0.173388
0.1813185
0.1899848
0.1994942
0.2103
0.2221652
0.2353304
0.2500231
0.2665275
0.3555697
0.3895897
0.4309378
0.4821105
0.5457345
0.6152056
0.3281007
0.3568564
0.3912421
0.4331004
0.4850238
0.5496704
0.6209767
0.3054208
0.3302033
0.3594378
0.3944662
0.4372194
0.4903061
0.5567199
0.6318825
0.2863576
0.3080568
0.333366
0.363289
0.399244
0.4431671
0.4978596
0.5670533
0.6481357
0.2699896
0.2892238
0.3114447
0.3374228
0.3682239
0.405262
0.4506059
0.5074883
0.5803203
0.6693911
0.2554337
0.2726133
0.292296
0.315083
0.3417906
0.3734654
0.4116107
0.4585842
0.5178863
0.5947722
0.6980168
0.2418113
0.2571807
0.2746528
0.2946986
0.317945
0.3451699
0.3774654
0.4165154
0.4647579
0.5259505
0.6095375
0.7224144
0.2290495
0.2428217
0.2583654
0.2760511
0.2963632
0.3198834
0.3474111
0.3801595
0.419821
0.4689223
0.5339434
0.6205387
0.7412462
0.2172101
0.2295852
0.2434603
0.2591291
0.276969
0.2974196
0.3210732
0.3488187
0.3818527
0.4219005
0.4734669
0.5396791
0.6288201
0.755423
0.2062883
0.2174458
0.2298812
0.2438291
0.2595871
0.2774907
0.2979854
0.3217342
0.3496019
0.3827962
0.424568
0.4766362
0.5440242
0.6351084
0.7666452
0.1962207
0.2063155
0.2175056
0.2299803
0.2439766
0.2597534
0.27765
0.2981703
0.3219515
0.3498612
0.3843286
0.4262969
0.4789909
0.5473382
0.6400509
0.7779833
0.1869148
0.1960775
0.2061842
0.2173891
0.2298827
0.2438666
0.2596024
0.2774792
0.2979753
0.3217267
0.3506083
0.3851248
0.4274594
0.4807156
0.5499616
0.6451924
0.7856275
0.1782638
0.1866024
0.1957586
0.2058588
0.2170573
0.2295123
0.2434275
0.2591074
0.2769164
0.2973295
0.3218332
0.3506875
0.3854409
0.4281699
0.4820747
0.5531389
0.6494073
0.7926774
0.1701525
0.1777552
0.1860683
0.1951961
0.2052644
0.2163978
0.2287562
0.2425802
0.2581509
0.2758278
0.2968151
0.3212359
0.3502443
0.3853251
0.4286885
0.4844351
0.5562328
0.6541199
0.7993818
0.1624776
0.1694158
0.1769726
0.185234
0.1943029
0.204278
0.2152848
0.2275151
0.2411872
0.2565757
0.2746598
0.295459
0.3198588
0.3490158
0.3847654
0.4311932
0.4874179
0.560101
0.6590225
0.8054524
0.1552267
0.1615652
0.1684429
0.1759309
0.1841137
0.1930697
0.2028979
0.2137514
0.2258005
0.2392565
0.25489
0.2725411
0.2927455
0.3160637
0.3431694
0.148603
0.1544178
0.1607061
0.1675272
0.1749512
0.183041
0.1918758
0.2015797
0.212288
0.2241663
0.2378428
0.2530934
0.2703056
0.2898718
0.3122907
0.1426441
0.1480074
0.1537901
0.1600425
0.1668235
0.1741842
0.1821889
0.19094
0.2005472
0.211143
0.2232567
0.2366498
0.2516239
0.268475
0.2875787
0.137298
0.1422717
0.1476204
0.1533869
0.1596215
0.1663662
0.173674
0.1816309
0.1903274
0.1998715
0.2107196
0.2226346
0.2358592
0.2506224
0.2672106
0.1324932
0.1371293
0.1421031
0.1474521
0.1532192
0.1594398
0.1661578
0.1734467
0.1813822
0.190054
0.1998623
0.2105766
0.2223969
0.2355041
0.2501212
0.3270859
0.3556509
0.3897834
0.4312934
0.4827092
0.5465183
0.6160662
0.3036852
0.3281693
0.3570174
0.3915314
0.4335744
0.4856254
0.5503301
0.6218516
0.2841342
0.3054801
0.3303405
0.3596803
0.3948554
0.4377005
0.4908178
0.5573974
0.632794
0.2675388
0.2864098
0.3081763
0.3335745
0.3636183
0.3996427
0.4435806
0.498391
0.5677643
0.6491161
0.2531716
0.2700365
0.2893303
0.3116285
0.3377091
0.368565
0.40561
0.451043
0.5080564
0.5810928
0.6747808
0.2403035
0.2554766
0.2727099
0.2924612
0.3153377
0.3420899
0.3737679
0.4119854
0.4590609
0.5185153
0.5990228
0.704782
0.2281832
0.2418496
0.2572664
0.274798
0.2949201
0.3182021
0.3454259
0.3777766
0.4169021
0.465252
0.5291405
0.6139654
0.731033
0.2167602
0.2290835
0.2428972
0.2584924
0.2762431
0.2965836
0.3200995
0.3476693
0.3804732
0.4202109
0.4713483
0.5369986
0.6253157
0.7504058
0.2061031
0.2172405
0.2296522
0.2435721
0.2592966
0.2771595
0.2976039
0.32129
0.3490775
0.382167
0.4238009
0.4757039
0.5428852
0.6336767
0.7647384
0.1962207
0.2063155
0.2175056
0.2299803
0.2439766
0.2597534
0.27765
0.2981703
0.3219515
0.3498612
0.3843286
0.4262969
0.4789909
0.5473382
0.6400509
0.7779833
0.1870677
0.1962453
0.2063693
0.2175943
0.2301114
0.2441232
0.2598925
0.2778098
0.2983559
0.3221698
0.3511278
0.3857259
0.4281457
0.4814892
0.5508266
0.6461235
0.7866095
0.17857
0.1869372
0.1961262
0.2062641
0.2175065
0.2300131
0.2439895
0.2597424
0.2776401
0.2981623
0.3227965
0.3517833
0.3866622
0.4294954
0.483461
0.5544444
0.6507108
0.7938592
0.1706383
0.1782843
0.1866468
0.1958311
0.2059647
0.2171743
0.2296219
0.2435515
0.2592488
0.2770792
0.2982502
0.3228595
0.3520405
0.3872318
0.4305562
0.485848
0.5574085
0.6552205
0.8002476
0.1631737
0.1701714
0.1777958
0.1861343
0.1952921
0.2053698
0.2164962
0.2288669
0.2427056
0.2582941
0.2766305
0.2977356
0.3224819
0.3519401
0.3876467
0.4324052
0.4881694
0.5607063
0.6596245
0.8058727
0.1560857
0.1624948
0.1694527
0.1770324
0.1853206
0.1943975
0.2043657
0.2153829
0.2276254
0.241312
0.2572684
0.2754519
0.2965529
0.3214415
0.3514724
0.3896719
0.4347412
0.4910658
0.5641264
0.6637328
0.8106208
0.1493672
0.155242
0.1615979
0.1684957
0.1760071
0.1841965
0.1931455
0.2029814
0.2138439
0.2259036
0.2398191
0.2554085
0.2730939
0.2932944
0.3164936
0.1432108
0.1486168
0.1544473
0.1607535
0.1675953
0.1750249
0.1831078
0.1919487