/*--------------------------------*- C++ -*----------------------------------*\
| =========                 |                                                 |
| \\      /  F ield         | OpenFOAM: The Open Source CFD Toolbox           |
|  \\    /   O peration     | Version:  2306                                  |
|   \\  /    A nd           | Website:  www.openfoam.com                      |
|    \\/     M anipulation  |                                                 |
\*---------------------------------------------------------------------------*/
FoamFile
{
    version     2.0;
    format      ascii;
    arch        "LSB;label=32;scalar=64";
    class       volScalarField;
    location    "1.2/fuel";
    object      H2O;
}
// * * * * * * * * * * * * * * * * * * * * * * * * * * * * * * * * * * * * * //

dimensions      [0 0 0 0 0 0 0];

internalField   nonuniform List<scalar> 
16000
(
0.3884951
0.3836845
0.4562786
0.38822
0.3739081
0.4531697
0.3834033
0.5188179
0.4560712
0.3876816
0.3590637
0.4468921
0.3736139
0.5165225
0.4529591
0.3828531
0.5694348
0.518661
0.4556649
0.3868876
0.3396929
0.4374544
0.3587481
0.511898
0.4466747
0.3730384
0.5676358
0.5163637
0.4525465
0.3820417
0.6105178
0.5693122
0.5183534
0.4550653
0.3858417
0.3186473
0.4252902
0.3393448
0.5049688
0.4372261
0.3581308
0.5640181
0.5117349
0.4462488
0.3721898
0.609062
0.5675118
0.5160521
0.4519376
0.3809728
0.6444386
0.6104192
0.5690715
0.5178991
0.4542753
0.3848038
0.3025049
0.4122212
0.3182569
0.4960775
0.4250456
0.3386639
0.558613
0.504799
0.4367788
0.3572206
0.6061391
0.5638912
0.5114152
0.4456204
0.371072
0.6432338
0.6089623
0.5672684
0.5155921
0.4511353
0.3799121
0.672922
0.6443574
0.6102254
0.5687159
0.5173004
0.4534915
0.3839433
0.2920847
0.4021907
0.3020881
0.4865732
0.4119562
0.3174931
0.551704
0.4958977
0.4245666
0.3376597
0.6017822
0.5584816
0.504466
0.4361188
0.3560216
0.6408179
0.6060374
0.5636423
0.5109431
0.4447924
0.3699628
0.6719071
0.6431519
0.6087667
0.5669089
0.5149857
0.4503393
0.3790326
0.6971894
0.6728539
0.6441979
0.609939
0.5682471
0.5167064
0.4528419
0.3830874
0.2861029
0.3956538
0.2916533
0.4793068
0.4019143
0.3012727
0.5443501
0.4863807
0.4114369
0.3163662
0.5962301
0.5515657
0.4955451
0.4238597
0.3363366
0.6372235
0.6016772
0.5582237
0.5039743
0.4352492
0.3548317
0.6698743
0.6407345
0.6058377
0.5632746
0.5103208
0.4439709
0.3690425
0.6963222
0.6718385
0.6429909
0.6084774
0.5664349
0.5143842
0.4496796
0.3781578
0.718123
0.6971315
0.6727201
0.6439619
0.6095612
0.5677819
0.5162143
0.452196
0.3822362
0.2833998
0.3918508
0.2856635
0.4745777
0.3953719
0.2908095
0.5387467
0.4791079
0.4013728
0.30007
0.5903406
0.5442031
0.486003
0.4106703
0.3148805
0.6326544
0.5961202
0.5512944
0.4950243
0.4229281
0.3350233
0.6668545
0.6371376
0.6014711
0.5578427
0.5033264
0.4343864
0.3538427
0.6945865
0.6698045
0.6405705
0.6055426
0.5627898
0.5097034
0.4432897
0.3681266
0.7173729
0.6962638
0.6717036
0.6427528
0.608096
0.5659645
0.5138858
0.4490236
0.3772876
0.7363735
0.7180731
0.6970175
0.672522
0.6436506
0.6091864
0.5673966
0.5157252
0.4515539
0.3813897
0.2833998
0.390113
0.2829568
0.4718252
0.3915661
0.2848045
0.5351063
0.474376
0.3948196
0.2895654
0.5858652
0.5385957
0.4787178
0.4005736
0.2984844
0.6278208
0.5902243
0.5439146
0.4854451
0.4096596
0.3134048
0.6630233
0.6325647
0.5959043
0.5508935
0.4943379
0.4220037
0.3339257
0.6920114
0.6667828
0.6369689
0.6011665
0.5573405
0.5026835
0.4336699
0.3528564
0.7158728
0.6945273
0.6696673
0.6403281
0.6051534
0.5623087
0.5091917
0.4426122
0.3672151
0.735718
0.7173227
0.696149
0.671504
0.6424387
0.6077174
0.565575
0.5133904
0.4483714
0.3764223
0.7524311
0.73633
0.7179749
0.6968489
0.6722608
0.6433416
0.608876
0.5670138
0.5152392
0.4509157
0.377295
0.2861029
0.390113
0.2829568
0.4705663
0.3898271
0.282091
0.5329887
0.4716223
0.3910085
0.283538
0.582962
0.5349538
0.4739806
0.3940046
0.2879253
0.6241559
0.5857462
0.5382993
0.4781415
0.3995198
0.2969092
0.6589795
0.6277263
0.5899959
0.5434881
0.4847094
0.4086561
0.3121601
0.6887499
0.6629487
0.6323886
0.5955853
0.550365
0.4936568
0.4212326
0.3328255
0.7136494
0.6919506
0.6666419
0.6367193
0.6007648
0.5568421
0.5021498
0.4329561
0.3518731
0.7344078
0.7158218
0.6944107
0.6694643
0.6400082
0.6047672
0.5619101
0.5086829
0.4419382
0.3663081
0.7518532
0.7356742
0.7172237
0.6959791
0.6712406
0.642127
0.607404
0.5651879
0.512898
0.4477231
0.3722359
0.7666726
0.7523929
0.7362444
0.7178294
0.6966263
0.6720014
0.6430858
0.6085676
0.5666334
0.5147562
0.4478294
0.3744798
0.2920847
0.3918508
0.2856635
0.4705663
0.3898271
0.282091
0.5320202
0.4703629
0.3892672
0.2808145
0.5812742
0.5328356
0.4712245
0.3901857
0.2818688
0.6217817
0.5828421
0.5346544
0.4733966
0.3929303
0.2862963
0.655919
0.6240595
0.5855123
0.5378611
0.4773816
0.3984736
0.2955804
0.6853136
0.6589011
0.6275405
0.589658
0.5429255
0.4839791
0.4078124
0.3109007
0.7108373
0.6886868
0.6628021
0.6321281
0.5951644
0.5498404
0.4930889
0.420461
0.3317226
0.7324677
0.7135972
0.6918311
0.6664334
0.63639
0.6003661
0.5564285
0.5016184
0.432245
0.3508927
0.7506986
0.7343634
0.7157214
0.6942381
0.6691965
0.6396908
0.6044473
0.5615139
0.508177
0.441268
0.3619182
0.766159
0.7518147
0.735588
0.7170773
0.6957548
0.6709791
0.6418689
0.6070925
0.5648032
0.5124088
0.444588
0.3693445
0.7793921
0.7666387
0.7523176
0.7361176
0.7176374
0.6964053
0.6717867
0.6428317
0.6082613
0.5662556
0.5124215
0.4457142
0.3723466
0.3025049
0.3956538
0.2916533
0.4718252
0.3915661
0.2848045
0.5320202
0.4703629
0.3892672
0.2808145
0.5805025
0.5318668
0.4699642
0.388441
0.2791322
0.6204023
0.581154
0.532535
0.4706371
0.3891011
0.2802107
0.6539386
0.6216847
0.5826065
0.534212
0.4726266
0.3918638
0.2849245
0.682717
0.6558392
0.6238699
0.5851666
0.5372831
0.4766272
0.3975938
0.2942356
0.7078792
0.6852475
0.6587469
0.6272657
0.5892123
0.5423669
0.4833653
0.4069613
0.3096265
0.7300169
0.7107832
0.6885627
0.6625851
0.6317844
0.5947467
0.5494032
0.4925209
0.4196889
0.3306172
0.7489903
0.7324224
0.7134944
0.6916542
0.6661583
0.6360633
0.6000353
0.5560167
0.5010892
0.4315367
0.3461385
0.7651337
0.7506597
0.7342761
0.7155728
0.6940103
0.6689306
0.6394279
0.6041292
0.56112
0.507674
0.4380256
0.3588352
0.7789327
0.766125
0.7517389
0.7354604
0.7168839
0.6955322
0.6707626
0.6416126
0.6067831
0.5644211
0.5100435
0.4424316
0.367143
0.7908229
0.7793619
0.7665719
0.752206
0.7359501
0.7174467
0.6962223
0.6715735
0.6425794
0.6079571
0.5644295
0.5108248
0.4441144
0.3709132
0.3186473
0.4021907
0.3020881
0.4745777
0.3953719
0.2908095
0.5329887
0.4716223
0.3910085
0.283538
0.5805025
0.5318668
0.4699642
0.388441
0.2791322
0.6197717
0.5803822
0.5315659
0.4693753
0.387352
0.2774612
0.6527886
0.6203052
0.5809179
0.532091
0.4698626
0.3880245
0.2788167
0.6810383
0.6538584
0.6214941
0.5822582
0.5336285
0.4718623
0.3909683
0.2835391
0.7056468
0.6826497
0.6556821
0.6235894
0.5847103
0.5367094
0.4759931
0.396706
0.2928748
0.7274423
0.7078225
0.6851172
0.6585186
0.626903
0.5887697
0.5418977
0.4827466
0.4061028
0.3083372
0.7468346
0.72997
0.7106767
0.6883789
0.6622987
0.6314433
0.5943987
0.548966
0.4919529
0.4189163
0.3252274
0.7636176
0.7489506
0.7323331
0.7133423
0.6914206
0.6658852
0.6357922
0.599706
0.5556068
0.5005622
0.4281049
0.3426141
0.7780158
0.7650992
0.7505829
0.7341467
0.7153766
0.6937842
0.6687104
0.6391666
0.6038132
0.5607285
0.5052417
0.4357653
0.3564435
0.7904095
0.7789023
0.7660578
0.7516267
0.7352918
0.7166918
0.6953478
0.6705476
0.6413579
0.6064758
0.5625742
0.5084205
0.4407944
0.3656569
0.8011526
0.7907958
0.7793023
0.766473
0.7520586
0.7357838
0.7172888
0.6960407
0.6713617
0.6423288
0.6064871
0.5631827
0.5096187
0.4430411
0.3701931
0.3396929
0.4122212
0.3182569
0.4793068
0.4019143
0.3012727
0.5351063
0.474376
0.3948196
0.2895654
0.5812742
0.5328356
0.4712245
0.3901857
0.2818688
0.6197717
0.5803822
0.5315659
0.4693753
0.387352
0.2774612
0.652263
0.6196746
0.5801459
0.5311212
0.468599
0.386271
0.2760574
0.6800641
0.6527084
0.6201143
0.5805689
0.5315053
0.4690939
0.3871217
0.2774109
0.7042047
0.6809708
0.6537007
0.621212
0.5817988
0.5330493
0.4712209
0.3900664
0.2821398
0.7255015
0.7055893
0.6825173
0.6554496
0.6232192
0.5842574
0.5362272
0.4753536
0.3958103
0.2914976
0.7445725
0.7273932
0.707711
0.6849244
0.6582172
0.6265428
0.5883979
0.5414248
0.4821228
0.4052367
0.3019909
0.7617061
0.7467935
0.7298776
0.710519
0.6881364
0.6620144
0.631159
0.5940507
0.5485289
0.4913847
0.4151561
0.3206287
0.776661
0.7635824
0.7488722
0.7322008
0.7131415
0.6911888
0.6656587
0.6355224
0.5993783
0.5551988
0.4980101
0.4256031
0.3397034
0.7895847
0.7779851
0.7650313
0.7504692
0.7339758
0.7151818
0.6935969
0.6684916
0.6389069
0.6034991
0.5588356
0.5035508
0.434023
0.3547992
0.8007785
0.7903823
0.7788424
0.7659583
0.7514784
0.7351244
0.7165329
0.6951648
0.6703341
0.641105
0.6049908
0.5613089
0.5071898
0.4396919
0.3649078
0.8105334
0.8011281
0.7907423
0.7792139
0.7663423
0.7519123
0.7356462
0.7171321
0.6958603
0.6711515
0.641118
0.6054846
0.5622416
0.5088101
0.4425022
0.3590637
0.4252902
0.3393448
0.4865732
0.4119562
0.3174931
0.5387467
0.4791079
0.4013728
0.30007
0.582962
0.5349538
0.4739806
0.3940046
0.2879253
0.6204023
0.581154
0.532535
0.4706371
0.3891011
0.2802107
0.652263
0.6196746
0.5801459
0.5311212
0.468599
0.386271
0.2760574
0.6796189
0.6521828
0.6194836
0.5797965
0.5305348
0.4678285
0.3853651
0.2746425
0.7033682
0.6799966
0.6525506
0.619832
0.5801084
0.530924
0.4684497
0.3862136
0.275993
0.7242486
0.7041471
0.680838
0.6534673
0.6208399
0.5813426
0.5325633
0.4705751
0.3891579
0.2807265
0.7428689
0.7254517
0.7054761
0.6823213
0.6551427
0.6228516
0.5838768
0.5357411
0.4747088
0.3949066
0.284719
0.7597023
0.7445296
0.7272966
0.7075458
0.6846697
0.6579179
0.6262403
0.5880233
0.5409481
0.4814938
0.400986
0.2952255
0.7749541
0.7616698
0.7467125
0.7297407
0.7103108
0.6878955
0.6617775
0.6308749
0.5937028
0.5480918
0.4886206
0.4120606
0.3161623
0.7883665
0.7766296
0.7635131
0.7487561
0.7320261
0.712942
0.6909965
0.6654333
0.6352539
0.5990521
0.5532228
0.4961567
0.4235698
0.3375643
0.8000325
0.7895571
0.7779245
0.7649305
0.750319
0.7338062
0.7150205
0.6934109
0.6682742
0.6386489
0.6019808
0.557522
0.5022496
0.4328319
0.3539584
0.8101933
0.8007539
0.7903284
0.7787536
0.7658268
0.7513311
0.7349859
0.716375
0.694983
0.670122
0.639883
0.6039747
0.5603503
0.5063619
0.439137
0.8190905
0.8105111
0.8010797
0.7906629
0.7790972
0.7662124
0.7517911
0.7355095
0.7169765
0.6956812
0.6701357
0.6402931
0.6047283
0.561611
0.5084044
0.3739081
0.4374544
0.3587481
0.4960775
0.4250456
0.3386639
0.5443501
0.4863807
0.4114369
0.3163662
0.5858652
0.5385957
0.4787178
0.4005736
0.2984844
0.6217817
0.5828421
0.5346544
0.4733966
0.3929303
0.2862963
0.6527886
0.6203052
0.5809179
0.532091
0.4698626
0.3880245
0.2788167
0.6796189
0.6521828
0.6194836
0.5797965
0.5305348
0.4678285
0.3853651
0.2746425
0.702986
0.6795515
0.652025
0.6192012
0.5793357
0.5299527
0.4671832
0.3844545
0.2732166
0.7235222
0.7033106
0.6798638
0.6523171
0.6194594
0.5796513
0.530437
0.4678019
0.3853002
0.2745631
0.7417699
0.7241989
0.7040337
0.6806414
0.6531592
0.6204704
0.58096
0.5320742
0.4699251
0.3882428
0.2737835
0.7581945
0.7428255
0.7253538
0.7053084
0.6820624
0.6548379
0.6225429
0.5834932
0.535251
0.4740585
0.3904711
0.2775927
0.7731664
0.7596645
0.744445
0.7271534
0.7073276
0.6844168
0.6576666
0.6259355
0.5876457
0.5404675
0.4784084
0.3966968
0.286726
0.7868328
0.7749218
0.7615982
0.7465925
0.7295599
0.710104
0.6876949
0.6615408
0.6305908
0.593355
0.5459657
0.4863575
0.4091498
0.3121774
0.7989311
0.7883384
0.7765678
0.7634103
0.7486027
0.7318527
0.7127766
0.6908052
0.665209
0.6349867
0.5974728
0.5517903
0.4946543
0.4220978
0.3364017
0.8095152
0.8000076
0.7895027
0.7778346
0.7647975
0.7501699
0.7336657
0.7148602
0.693226
0.6680583
0.6374018
0.6009284
0.556512
0.5013612
0.4322253
0.81878
0.810171
0.8007053
0.7902486
0.7786362
0.7656962
0.7512093
0.7348483
0.7162183
0.6948025
0.6690976
0.6390477
0.6032053
0.5597058
0.5059454
0.8269279
0.8190703
0.8104672
0.801008
0.7905579
0.7789811
0.766105
0.7516709
0.7353738
0.716822
0.6948161
0.6694442
0.6396711
0.6042218
0.5612947
0.3836845
0.4468921
0.3736139
0.5049688
0.4372261
0.3581308
0.551704
0.4958977
0.4245666
0.3376597
0.5903406
0.5442031
0.486003
0.4106703
0.3148805
0.6241559
0.5857462
0.5382993
0.4781415
0.3995198
0.2969092
0.6539386
0.6216847
0.5826065
0.534212
0.4726266
0.3918638
0.2849245
0.6800641
0.6527084
0.6201143
0.5805689
0.5315053
0.4690939
0.3871217
0.2774109
0.702986
0.6795515
0.652025
0.6192012
0.5793357
0.5299527
0.4671832
0.3844545
0.2732166
0.7231904
0.7029285
0.6794187
0.6517915
0.6188285
0.5788783
0.5294653
0.4665347
0.383539
0.2717796
0.7411329
0.7234724
0.7031973
0.6796673
0.6520089
0.6190895
0.5792684
0.5299474
0.4671507
0.3843813
0.2675491
0.7572224
0.7417265
0.7241008
0.7038656
0.6803818
0.6528532
0.6201605
0.580575
0.531582
0.4692706
0.3837594
0.2668178
0.7718222
0.7581562
0.7427398
0.7252086
0.7050869
0.6818053
0.6545819
0.6222316
0.5831065
0.5347569
0.4708684
0.3860431
0.268974
0.7852277
0.7731327
0.7595898
0.7443197
0.7269643
0.7071109
0.6842044
0.6574133
0.6256283
0.5872651
0.5381107
0.4753144
0.3915301
0.2757289
0.7975454
0.7868039
0.7748581
0.7614921
0.746434
0.7293803
0.7099318
0.6874944
0.6613041
0.6303069
0.5916634
0.544228
0.4842383
0.4066278
0.3094238
0.8085147
0.7989058
0.7882829
0.7764762
0.7632746
0.7484504
0.7317088
0.7126121
0.6906148
0.6649857
0.6336931
0.5963293
0.5506303
0.4935691
0.4213071
0.818161
0.8094927
0.7999585
0.789422
0.7777158
0.7646652
0.7500464
0.7335261
0.714701
0.6930424
0.6670144
0.6365383
0.6001197
0.5558229
0.5009092
0.8266433
0.8187597
0.8101268
0.8006332
0.7901431
0.7785195
0.7655882
0.7510882
0.7347117
0.7160627
0.6939305
0.6683979
0.6384154
0.6026882
0.5593817
0.8341326
0.8269094
0.8190302
0.8104021
0.8009132
0.7904537
0.7788852
0.7659983
0.7515515
0.7352391
0.7160759
0.6942275
0.6689229
0.6392546
0.6039678
0.3884951
0.4531697
0.3834033
0.511898
0.4466747
0.3730384
0.558613
0.504799
0.4367788
0.3572206
0.5962301
0.5515657
0.4955451
0.4238597
0.3363366
0.6278208
0.5902243
0.5439146
0.4854451
0.4096596
0.3134048
0.655919
0.6240595
0.5855123
0.5378611
0.4773816
0.3984736
0.2955804
0.6810383
0.6538584
0.6214941
0.5822582
0.5336285
0.4718623
0.3909683
0.2835391
0.7033682
0.6799966
0.6525506
0.619832
0.5801084
0.530924
0.4684497
0.3862136
0.275993
0.7231904
0.7029285
0.6794187
0.6517915
0.6188285
0.5788783
0.5294653
0.4665347
0.383539
0.2717796
0.740842
0.7231407
0.7028152
0.6792222
0.6514834
0.6184586
0.5784954
0.5289757
0.4658831
0.3826186
0.2647355
0.7566591
0.7410895
0.7233745
0.7030294
0.6794078
0.6517029
0.6187797
0.5788835
0.5294553
0.4664958
0.379885
0.2607426
0.770956
0.7571841
0.7416408
0.7239554
0.7036437
0.680124
0.6525967
0.6198487
0.5801876
0.5310865
0.4660655
0.3794696
0.2587605
0.7840217
0.7717881
0.7580807
0.7426129
0.7250168
0.7048669
0.6815893
0.6543239
0.6219179
0.5827167
0.5323335
0.4676991
0.3808939
0.258691
0.7960963
0.7851976
0.7730663
0.7594791
0.7441541
0.7267763
0.7069289
0.6839904
0.6571581
0.6253187
0.5853988
0.53575
0.4716055
0.3850707
0.260745
0.8072565
0.7975194
0.7867468
0.7747636
0.761352
0.7462765
0.7292308
0.7097596
0.687294
0.6610676
0.6289261
0.5902822
0.5426023
0.4824089
0.4049277
0.817248
0.8084917
0.7988558
0.7882008
0.7763552
0.7631397
0.7483241
0.7315657
0.7124483
0.6904254
0.6639053
0.6327573
0.5954037
0.549793
0.4929871
0.826076
0.8181405
0.8094481
0.7998856
0.7893154
0.7775979
0.7645558
0.7499237
0.7333875
0.7145428
0.692155
0.6662921
0.635875
0.5995682
0.5554724
0.8338707
0.8266247
0.8187195
0.8100614
0.8005379
0.7900383
0.778423
0.7654808
0.7509681
0.7345761
0.715311
0.6933353
0.6678685
0.6379907
0.6024282
0.8407778
0.8341155
0.8268728
0.8189708
0.810316
0.8008189
0.7903674
0.7787899
0.7658924
0.751433
0.7345887
0.7155685
0.693784
0.668574
0.6390459
0.4562786
0.38822
0.5165225
0.4529591
0.3828531
0.5640181
0.5117349
0.4462488
0.3721898
0.6017822
0.5584816
0.504466
0.4361188
0.3560216
0.6326544
0.5961202
0.5512944
0.4950243
0.4229281
0.3350233
0.6589795
0.6277263
0.5899959
0.5434881
0.4847094
0.4086561
0.3121601
0.682717
0.6558392
0.6238699
0.5851666
0.5372831
0.4766272
0.3975938
0.2942356
0.7042047
0.6809708
0.6537007
0.621212
0.5817988
0.5330493
0.4712209
0.3900664
0.2821398
0.7235222
0.7033106
0.6798638
0.6523171
0.6194594
0.5796513
0.530437
0.4678019
0.3853002
0.2745631
0.740842
0.7231407
0.7028152
0.6792222
0.6514834
0.6184586
0.5784954
0.5289757
0.4658831
0.3826186
0.2647355
0.7564019
0.7407986
0.7230428
0.7026474
0.6789628
0.6511774
0.6181489
0.5781108
0.5284838
0.4652284
0.3781179
0.2580051
0.7704541
0.7566209
0.7410039
0.7232293
0.7028076
0.67915
0.6514466
0.6184684
0.5784968
0.5289607
0.4632931
0.3757117
0.2530851
0.7832449
0.7709219
0.7571086
0.7415137
0.7237634
0.7034233
0.6799079
0.6523385
0.619535
0.5797976
0.5286606
0.4630102
0.3746925
0.2496007
0.7950081
0.7839913
0.771721
0.7579687
0.7424451
0.7248263
0.7046821
0.6813717
0.6540638
0.6216017
0.5808049
0.5299276
0.4640268
0.3749482
0.2466011
0.8059415
0.7960692
0.7851382
0.7729679
0.7593329
0.7439895
0.7266185
0.7067455
0.6837747
0.6569009
0.6238008
0.5835301
0.5329227
0.4669913
0.3765121
0.235071
0.8161005
0.8072329
0.7974679
0.7866621
0.7746387
0.7612127
0.7461453
0.7290813
0.7095876
0.6870937
0.6599175
0.6277994
0.5889905
0.5412002
0.4811792
0.8252396
0.8172271
0.8084464
0.7987816
0.7880921
0.7762349
0.7630279
0.7481984
0.7314233
0.7122854
0.6895084
0.6631242
0.6320001
0.5947359
0.5493441
0.833349
0.8260572
0.8180999
0.809382
0.7997893
0.7892094
0.7775002
0.7644471
0.7498018
0.7332498
0.7137786
0.6915413
0.6657374
0.6354228
0.5992877
0.8405361
0.8338536
0.8265879
0.8186598
0.8099749
0.8004432
0.7899516
0.7783272
0.7653743
0.7508488
0.7339211
0.7147981
0.6928851
0.6675129
0.6377772
0.8469259
0.8407621
0.8340819
0.8268184
0.8188923
0.8102304
0.8007409
0.7902818
0.7786953
0.7657873
0.7508607
0.7341465
0.7151862
0.6934872
0.6683992
0.5188179
0.4560712
0.3876816
0.5676358
0.5163637
0.4525465
0.3820417
0.6061391
0.5638912
0.5114152
0.4456204
0.371072
0.6372235
0.6016772
0.5582237
0.5039743
0.4352492
0.3548317
0.6630233
0.6325647
0.5959043
0.5508935
0.4943379
0.4220037
0.3339257
0.6853136
0.6589011
0.6275405
0.589658
0.5429255
0.4839791
0.4078124
0.3109007
0.7056468
0.6826497
0.6556821
0.6235894
0.5847103
0.5367094
0.4759931
0.396706
0.2928748
0.7242486
0.7041471
0.680838
0.6534673
0.6208399
0.5813426
0.5325633
0.4705751
0.3891579
0.2807265
0.7411329
0.7234724
0.7031973
0.6796673
0.6520089
0.6190895
0.5792684
0.5299474
0.4671507
0.3843813
0.2675491
0.7564019
0.7407986
0.7230428
0.7026474
0.6789628
0.6511774
0.6181489
0.5781108
0.5284838
0.4652284
0.3781179
0.2580051
0.770225
0.7563637
0.7407131
0.7228977
0.7024258
0.6787052
0.6509213
0.6178379
0.5777245
0.5279897
0.4620279
0.3739992
0.2505277
0.7827949
0.7704202
0.7565455
0.7408771
0.7230376
0.7025874
0.6789342
0.6511891
0.6181555
0.5781081
0.5265419
0.4603296
0.3711881
0.2445833
0.7943074
0.7832145
0.7708549
0.7569966
0.7413459
0.7235727
0.7032385
0.6796904
0.6520788
0.6192193
0.5778888
0.5263494
0.4596167
0.369439
0.239374
0.8049546
0.7949807
0.7839312
0.7716215
0.7578207
0.7422784
0.7246663
0.7044958
0.6811523
0.6538017
0.6200511
0.5789072
0.5271413
0.4598017
0.3681559
0.2303909
0.8149019
0.805917
0.7960157
0.78505
0.7728377
0.7591875
0.7438513
0.7264596
0.7065607
0.6835574
0.6556399
0.6222809
0.5812925
0.5294108
0.4609092
0.362159
0.2206544
0.8241888
0.8160791
0.8071863
0.7973916
0.7865501
0.7745147
0.7610967
0.7460143
0.7289319
0.7094157
0.6861198
0.6589793
0.6267458
0.5878768
0.5402582
0.8325799
0.8252205
0.8171858
0.8083791
0.7986836
0.7879842
0.7761352
0.7629166
0.7480734
0.7312816
0.7114969
0.688846
0.6624924
0.631454
0.5943779
0.8400546
0.8333317
0.8260201
0.8180396
0.8092946
0.7996936
0.7891216
0.7774031
0.7643391
0.7496808
0.7325844
0.7132503
0.6910702
0.6653594
0.6351929
0.8467021
0.8405203
0.8338198
0.8265332
0.8185809
0.8098889
0.8003648
0.7898655
0.778232
0.7652685
0.7502727
0.7334743
0.7144103
0.6925827
0.6673342
0.8526301
0.8469114
0.8407311
0.8340319
0.8267464
0.8188142
0.8101596
0.8006636
0.7901968
0.7786014
0.7652797
0.7504718
0.7338135
0.7149304
0.6933384
0.5694348
0.518661
0.4556649
0.3868876
0.609062
0.5675118
0.5160521
0.4519376
0.3809728
0.6408179
0.6060374
0.5636423
0.5109431
0.4447924
0.3699628
0.6668545
0.6371376
0.6014711
0.5578427
0.5033264
0.4343864
0.3538427
0.6887499
0.6629487
0.6323886
0.5955853
0.550365
0.4936568
0.4212326
0.3328255
0.7078792
0.6852475
0.6587469
0.6272657
0.5892123
0.5423669
0.4833653
0.4069613
0.3096265
0.7255015
0.7055893
0.6825173
0.6554496
0.6232192
0.5842574
0.5362272
0.4753536
0.3958103
0.2914976
0.7417699
0.7241989
0.7040337
0.6806414
0.6531592
0.6204704
0.58096
0.5320742
0.4699251
0.3882428
0.2737835
0.7566591
0.7410895
0.7233745
0.7030294
0.6794078
0.6517029
0.6187797
0.5788835
0.5294553
0.4664958
0.379885
0.2607426
0.770225
0.7563637
0.7407131
0.7228977
0.7024258
0.6787052
0.6509213
0.6178379
0.5777245
0.5279897
0.4620279
0.3739992
0.2505277
0.7825895
0.7701911
0.7562883
0.7405864
0.7227061
0.7022057
0.6784897
0.6506642
0.6175256
0.5773365
0.5255751
0.4591072
0.3695884
0.2423068
0.7939016
0.7827646
0.7703532
0.7564337
0.7407096
0.7228471
0.702403
0.6787174
0.6509303
0.6178412
0.5762076
0.5243049
0.4571235
0.3663314
0.2352678
0.8043193
0.79428
0.7831545
0.7707554
0.7568486
0.7411792
0.7234128
0.7030526
0.6794716
0.6518175
0.617674
0.5760704
0.523783
0.4558945
0.3637497
0.2262382
0.8140027
0.8049298
0.7949266
0.7838421
0.7714899
0.7576736
0.7421385
0.724505
0.7043082
0.6809313
0.6525166
0.6185119
0.5767098
0.5239391
0.4549925
0.359288
0.2186127
0.8230918
0.8148796
0.8058685
0.7959362
0.7849334
0.7727083
0.7590654
0.7437121
0.7262994
0.7063745
0.6824921
0.6543774
0.6204612
0.5785154
0.524792
0.4507636
0.353625
0.2097506
0.8316141
0.8241692
0.8160366
0.8071171
0.7972906
0.7864389
0.7744113
0.7609808
0.7458833
0.7287826
0.7085798
0.6853258
0.6581023
0.6258377
0.5871285
0.8393451
0.8325624
0.8251827
0.8171246
0.8082902
0.7985861
0.7878947
0.7760359
0.7628059
0.747949
0.730596
0.7109275
0.6883102
0.6620367
0.6311611
0.8462565
0.8400387
0.8332976
0.8259649
0.8179599
0.8092077
0.7996143
0.7890345
0.7773068
0.7642319
0.749096
0.7321246
0.7128449
0.6907491
0.6651672
0.8524224
0.8466876
0.8404892
0.8337696
0.826461
0.8185024
0.8098177
0.800287
0.78978
0.7781376
0.7647577
0.7498799
0.7331366
0.7141499
0.6924308
0.8579364
0.8526167
0.8468827
0.840685
0.8339658
0.8266749
0.8187496
0.8100893
0.8005867
0.7901124
0.7781481
0.7649349
0.7501789
0.7335907
0.7148023
0.6105178
0.5693122
0.5183534
0.4550653
0.3858417
0.6432338
0.6089623
0.5672684
0.5155921
0.4511353
0.3799121
0.6698743
0.6407345
0.6058377
0.5632746
0.5103208
0.4439709
0.3690425
0.6920114
0.6667828
0.6369689
0.6011665
0.5573405
0.5026835
0.4336699
0.3528564
0.7108373
0.6886868
0.6628021
0.6321281
0.5951644
0.5498404
0.4930889
0.420461
0.3317226
0.7274423
0.7078225
0.6851172
0.6585186
0.626903
0.5887697
0.5418977
0.4827466
0.4061028
0.3083372
0.7428689
0.7254517
0.7054761
0.6823213
0.6551427
0.6228516
0.5838768
0.5357411
0.4747088
0.3949066
0.284719
0.7572224
0.7417265
0.7241008
0.7038656
0.6803818
0.6528532
0.6201605
0.580575
0.531582
0.4692706
0.3837594
0.2668178
0.7704541
0.7566209
0.7410039
0.7232293
0.7028076
0.67915
0.6514466
0.6184684
0.5784968
0.5289607
0.4632931
0.3757117
0.2530851
0.7825895
0.7701911
0.7562883
0.7405864
0.7227061
0.7022057
0.6784897
0.6506642
0.6175256
0.5773365
0.5255751
0.4591072
0.3695884
0.2423068
0.7937164
0.7825592
0.7701242
0.7561767
0.740419
0.7225158
0.7020216
0.6782732
0.6504059
0.617212
0.5754406
0.5233726
0.4559845
0.3648996
0.2333609
0.8039516
0.7938744
0.7827047
0.770254
0.756286
0.7405431
0.7226876
0.7022178
0.6784996
0.6506703
0.6163044
0.5744503
0.521885
0.4536881
0.3611745
0.2234226
0.8134242
0.8042946
0.794226
0.7830655
0.7706238
0.7567015
0.7410394
0.723252
0.7028656
0.6792515
0.6505386
0.616202
0.5740512
0.5209699
0.4518735
0.3566539
0.2162298
0.8222692
0.8139802
0.8048809
0.7948464
0.7837243
0.7713591
0.7575501
0.7419974
0.7243425
0.7041191
0.6798475
0.6512408
0.6167296
0.5741857
0.5202999
0.4487347
0.3522437
0.2087169
0.8306063
0.8230714
0.8148355
0.8057966
0.7958312
0.7848175
0.7725997
0.7589425
0.7435718
0.726138
0.7054618
0.6814255
0.6528661
0.618204
0.5748682
0.5171103
0.4447633
0.3467148
0.2012349
0.8384546
0.8315961
0.8241304
0.8159736
0.8070256
0.7971903
0.7863462
0.7743081
0.760865
0.7457524
0.7280569
0.7078984
0.6845834
0.6573463
0.6252275
0.8456
0.839329
0.8325277
0.8251267
0.8170435
0.8082018
0.7985054
0.7878056
0.7759372
0.7626958
0.7473471
0.730101
0.7104671
0.6879239
0.6617924
0.8520088
0.8462418
0.8400073
0.8332469
0.825892
0.8178807
0.8091358
0.7995356
0.788948
0.7772111
0.7637137
0.7486921
0.7317719
0.7125687
0.690586
0.8577431
0.8524089
0.8466587
0.8404429
0.8337032
0.8263891
0.8184375
0.8097471
0.8002098
0.7896951
0.7776815
0.7644096
0.749583
0.7329099
0.7140191
0.8628845
0.8579239
0.8525901
0.84684
0.840624
0.8339
0.8266157
0.8186855
0.8100195
0.8005105
0.789705
0.7778402
0.7646753
0.749983
0.733479
0.6444386
0.6104192
0.5690715
0.5178991
0.4542753
0.3848038
0.6719071
0.6431519
0.6087667
0.5669089
0.5149857
0.4503393
0.3790326
0.6945865
0.6698045
0.6405705
0.6055426
0.5627898
0.5097034
0.4432897
0.3681266
0.7136494
0.6919506
0.6666419
0.6367193
0.6007648
0.5568421
0.5021498
0.4329561
0.3518731
0.7300169
0.7107832
0.6885627
0.6625851
0.6317844
0.5947467
0.5494032
0.4925209
0.4196889
0.3306172
0.7445725
0.7273932
0.707711
0.6849244
0.6582172
0.6265428
0.5883979
0.5414248
0.4821228
0.4052367
0.3019909
0.7581945
0.7428255
0.7253538
0.7053084
0.6820624
0.6548379
0.6225429
0.5834932
0.535251
0.4740585
0.3904711
0.2775927
0.770956
0.7571841
0.7416408
0.7239554
0.7036437
0.680124
0.6525967
0.6198487
0.5801876
0.5310865
0.4660655
0.3794696
0.2587605
0.7827949
0.7704202
0.7565455
0.7408771
0.7230376
0.7025874
0.6789342
0.6511891
0.6181555
0.5781081
0.5265419
0.4603296
0.3711881
0.2445833
0.7937164
0.7825592
0.7701242
0.7561767
0.740419
0.7225158
0.7020216
0.6782732
0.6504059
0.617212
0.5754406
0.5233726
0.4559845
0.3648996
0.2333609
0.8037837
0.7936892
0.7824995
0.7700251
0.7560292
0.7402528
0.7223566
0.7018367
0.6780559
0.6501467
0.6156796
0.5737116
0.5210178
0.4526704
0.359957
0.2220225
0.8130893
0.8039269
0.7938205
0.7826159
0.7701227
0.7561392
0.7404037
0.7225274
0.7020317
0.6782807
0.6493995
0.6148834
0.5725491
0.5192931
0.450047
0.3548154
0.214378
0.82174
0.8134017
0.8042458
0.7941459
0.7829478
0.7704931
0.7565783
0.7408988
0.7230902
0.7026775
0.6781742
0.6493203
0.6145673
0.5718386
0.5179341
0.4468696
0.3506003
0.2073279
0.8298509
0.8222486
0.8139358
0.8048083
0.7947403
0.7836072
0.7712492
0.7574256
0.7418553
0.7241788
0.7031919
0.6787715
0.6497635
0.6146832
0.57132
0.5155736
0.4437757
0.3458876
0.2006233
0.8375256
0.8305876
0.8230311
0.8147701
0.8057014
0.7957267
0.7847202
0.7724903
0.7588186
0.7434305
0.7253468
0.704548
0.6801486
0.650992
0.6152428
0.5688153
0.5125908
0.4399073
0.3409848
0.1945524
0.8447762
0.838438
0.8315605
0.8240728
0.8158903
0.8069346
0.7971067
0.7862537
0.7742049
0.7607493
0.7451161
0.7274655
0.7072615
0.6839437
0.6568384
0.8513996
0.8455851
0.8392971
0.8324762
0.8250525
0.816963
0.8081285
0.798425
0.787717
0.7758391
0.762163
0.7469127
0.7297009
0.7101351
0.6877167
0.8573583
0.8519952
0.8462127
0.8399606
0.8331799
0.8258195
0.8178151
0.8090643
0.7994575
0.788862
0.7767487
0.763356
0.7483823
0.7315316
0.7124283
0.8627041
0.8577306
0.8523822
0.8466159
0.8403816
0.8336372
0.8263297
0.8183731
0.8096769
0.8001331
0.7892854
0.7773708
0.7641465
0.7493838
0.732796
0.8675087
0.8628728
0.8578992
0.8525505
0.8467836
0.8405633
0.8338456
0.826557
0.8186218
0.8099503
0.8001423
0.7894284
0.7776084
0.7645017
0.7498849
0.672922
0.6443574
0.6102254
0.5687159
0.5173004
0.4534915
0.3839433
0.6963222
0.6718385
0.6429909
0.6084774
0.5664349
0.5143842
0.4496796
0.3781578
0.7158728
0.6945273
0.6696673
0.6403281
0.6051534
0.5623087
0.5091917
0.4426122
0.3672151
0.7324677
0.7135972
0.6918311
0.6664334
0.63639
0.6003661
0.5564285
0.5016184
0.432245
0.3508927
0.7468346
0.72997
0.7106767
0.6883789
0.6622987
0.6314433
0.5943987
0.548966
0.4919529
0.4189163
0.3252274
0.7597023
0.7445296
0.7272966
0.7075458
0.6846697
0.6579179
0.6262403
0.5880233
0.5409481
0.4814938
0.400986
0.2952255
0.7718222
0.7581562
0.7427398
0.7252086
0.7050869
0.6818053
0.6545819
0.6222316
0.5831065
0.5347569
0.4708684
0.3860431
0.268974
0.7832449
0.7709219
0.7571086
0.7415137
0.7237634
0.7034233
0.6799079
0.6523385
0.619535
0.5797976
0.5286606
0.4630102
0.3746925
0.2496007
0.7939016
0.7827646
0.7703532
0.7564337
0.7407096
0.7228471
0.702403
0.6787174
0.6509303
0.6178412
0.5762076
0.5243049
0.4571235
0.3663314
0.2352678
0.8037837
0.7936892
0.7824995
0.7700251
0.7560292
0.7402528
0.7223566
0.7018367
0.6780559
0.6501467
0.6156796
0.5737116
0.5210178
0.4526704
0.359957
0.2220225
0.8129364
0.8037591
0.7936354
0.7824108
0.769894
0.7558826
0.7401136
0.7221967
0.7016511
0.6778376
0.64888
0.6142823
0.5718629
0.5185195
0.449182
0.3538843
0.213396
0.8214338
0.8130669
0.8038782
0.7937406
0.7824986
0.7699923
0.7560163
0.7402638
0.7223665
0.7018447
0.6772109
0.6482245
0.613346
0.5705131
0.5165477
0.4455641
0.3492968
0.206146
0.8293652
0.8217195
0.8133573
0.8041733
0.79404
0.7828308
0.7703836
0.7564543
0.7407574
0.7229274
0.7017568
0.6771479
0.6479673
0.6127764
0.5694523
0.5141606
0.4425999
0.344787
0.1997574
0.8368295
0.8298321
0.822208
0.8138697
0.8047123
0.7946349
0.7835089
0.7711385
0.7573002
0.741712
0.7233761
0.7022714
0.6775255
0.6480677
0.6123615
0.5676033
0.5118392
0.439302
0.3403829
0.1941321
0.8439172
0.8375084
0.8305507
0.8229713
0.8146835
0.8056068
0.795639
0.7846222
0.77238
0.7586938
0.7427377
0.7245546
0.7034541
0.6785659
0.6485355
0.6103363
0.5652672
0.5089428
0.4358819
0.3362745
0.1893838
0.8506354
0.8447609
0.8384052
0.8315077
0.8239966
0.8158075
0.8068589
0.7970233
0.7861612
0.7741018
0.7601867
0.7445977
0.7269126
0.7067126
0.6835138
0.8567915
0.8513858
0.8455556
0.8392497
0.8324082
0.8249788
0.8168962
0.8080556
0.7983451
0.7876289