/*--------------------------------*- C++ -*----------------------------------*\
| =========                 |                                                 |
| \\      /  F ield         | OpenFOAM: The Open Source CFD Toolbox           |
|  \\    /   O peration     | Version:  2306                                  |
|   \\  /    A nd           | Website:  www.openfoam.com                      |
|    \\/     M anipulation  |                                                 |
\*---------------------------------------------------------------------------*/
FoamFile
{
    version     2.0;
    format      ascii;
    arch        "LSB;label=32;scalar=64";
    class       volScalarField;
    location    "1.2/fuel";
    object      iDmdtfuel.H2;
}
// * * * * * * * * * * * * * * * * * * * * * * * * * * * * * * * * * * * * * //

dimensions      [1 -3 -1 0 0 0 0];

internalField   nonuniform List<scalar> 
16000
(
-9.691757
-9.776693
-8.861745
-9.2597
-9.948145
-8.916455
-9.338495
-8.157885
-8.488282
-8.954923
-10.20636
-9.024033
-9.497445
-8.199463
-8.539288
-9.029634
-7.592748
-7.831728
-8.222663
-8.767861
-10.54183
-9.178687
-9.736598
-8.280235
-8.639534
-9.180317
-7.62667
-7.870653
-8.271147
-8.840314
-7.122883
-7.302955
-7.598359
-8.057367
-8.688199
-10.9032
-9.365674
-10.04696
-8.393864
-8.783547
-9.406995
-7.692081
-7.946238
-8.366413
-8.986486
-7.151632
-7.33482
-7.635449
-8.104383
-8.759985
-6.718904
-6.862169
-7.09473
-7.451744
-7.984286
-0
-11.17517
-9.547657
-10.38083
-8.526375
-8.957524
-9.701207
-7.782877
-8.052505
-8.503241
-9.206527
-7.206787
-7.396238
-7.707454
-8.196773
-8.904918
-6.743847
-6.889251
-7.125158
-7.487736
-8.030758
-0
-6.364241
-6.4823
-6.674246
-6.963085
-7.385424
-0
-0
-11.34608
-9.670147
-10.63117
-8.648111
-9.126679
-10.01784
-7.886337
-8.176335
-8.668518
-9.492537
-7.282645
-7.481441
-7.808659
-8.329504
-9.123408
-6.79152
-6.941187
-7.183792
-7.557606
-8.122111
-0
-6.386255
-6.505855
-6.700157
-6.99264
-7.420966
-0
-0
-6.047704
-6.148087
-6.311329
-6.554905
-6.902727
-0
-0
-0
-11.44242
-9.73811
-10.78795
-8.723262
-9.240201
-10.25461
-7.977765
-8.289983
-8.829196
-9.801011
-7.367685
-7.578452
-7.926556
-8.48993
-9.408156
-6.856645
-7.012577
-7.265107
-7.655817
-8.253442
-0
-6.428212
-6.550858
-6.749833
-7.049584
-7.489977
-0
-0
-6.067377
-6.168922
-6.333904
-6.580096
-6.931907
-0
-0
-0
-5.761934
-5.849205
-5.991573
-6.202388
-6.499713
-0
-0
-0
-0
-11.48544
-9.772359
-10.87612
-8.759537
-9.303026
-10.4026
-8.030672
-8.359942
-8.936743
-10.03134
-7.440741
-7.664081
-8.034707
-8.646024
-9.716423
-6.928759
-7.09254
-7.357652
-7.770253
-8.412383
-0
-6.485225
-6.6123
-6.818093
-7.128553
-7.587016
-0
-0
-6.104787
-6.208618
-6.377024
-6.628386
-6.988136
-0
-0
-0
-5.779689
-5.867863
-6.011574
-6.224357
-6.524587
-0
-0
-0
-0
-5.501503
-5.578871
-5.705228
-5.891582
-6.151706
-0
-0
-0
-0
-0
-11.48544
-9.786471
-10.91543
-8.774631
-9.334624
-10.48573
-8.053098
-8.39361
-8.99615
-10.17522
-7.480953
-7.713482
-8.101082
-8.750261
-9.946552
-6.989371
-7.161142
-7.439272
-7.875243
-8.56729
-0
-6.547748
-6.680274
-6.89451
-7.218427
-7.700166
-0
-0
-6.155406
-6.262527
-6.435872
-6.694734
-7.066127
-0
-0
-0
-5.81339
-5.903329
-6.049668
-6.266313
-6.572273
-0
-0
-0
-0
-5.517653
-5.595741
-5.723165
-5.911063
-6.173404
-0
-0
-0
-0
-0
-5.26243
-5.332074
-5.445893
-5.61305
-5.844865
-0
-0
-0
-0
-0
-0
-11.44242
-9.786471
-10.91543
-8.779718
-9.34763
-10.52277
-8.060288
-8.407574
-9.026006
-10.25606
-7.496063
-7.734335
-8.132937
-8.807781
-10.09043
-7.0214
-7.198775
-7.486196
-7.939478
-8.670537
-0
-6.599388
-6.73732
-6.959999
-7.297661
-7.804041
-0
-0
-6.210476
-6.321589
-6.500938
-6.768998
-7.15492
-0
-0
-0
-5.85883
-5.951289
-6.101382
-6.323564
-6.637797
-0
-0
-0
-0
-5.548262
-5.627751
-5.75725
-5.948162
-6.214844
-0
-0
-0
-0
-0
-5.277216
-5.347446
-5.462133
-5.630536
-5.864112
-0
-0
-0
-0
-0
-0
-5.041608
-5.105139
-5.20884
-5.360608
-5.569849
-0
-0
-0
-0
-0
-0
-0
-11.34608
-9.772359
-10.87612
-8.779718
-9.34763
-10.52277
-8.061782
-8.412264
-9.038293
-10.2921
-7.499386
-7.740969
-8.146117
-8.836705
-10.1714
-7.032127
-7.212832
-7.505915
-7.970232
-8.727501
-0
-6.625758
-6.767351
-6.995781
-7.343039
-7.867393
-0
-0
-6.2553
-6.370288
-6.555471
-6.832594
-7.233201
-0
-0
-0
-5.907933
-6.003414
-6.158002
-6.386845
-6.711152
-0
-0
-0
-0
-5.589405
-5.670883
-5.803324
-5.998517
-6.271394
-0
-0
-0
-0
-0
-5.305205
-5.376568
-5.492938
-5.663759
-5.900765
-0
-0
-0
-0
-0
-0
-5.055219
-5.119236
-5.223657
-5.376453
-5.58713
-0
-0
-0
-0
-0
-0
-0
-4.836613
-4.895198
-4.990604
-5.129689
-5.320542
-0
-0
-0
-0
-0
-0
-0
-0
-11.17517
-9.73811
-10.78795
-8.774631
-9.334624
-10.48573
-8.061782
-8.412264
-9.038293
-10.2921
-7.499218
-7.74232
-8.150535
-8.848623
-10.20754
-7.033325
-7.215862
-7.512142
-7.982942
-8.756196
-0
-6.633653
-6.777326
-7.009058
-7.362022
-7.897661
-0
-0
-6.277517
-6.395054
-6.584052
-6.867186
-7.277845
-0
-0
-0
-5.947405
-6.045764
-6.204618
-6.43983
-6.77394
-0
-0
-0
-0
-5.633609
-5.717446
-5.853363
-6.053629
-6.333904
-0
-0
-0
-0
-0
-5.342728
-5.41569
-5.53443
-5.70866
-5.950517
-0
-0
-0
-0
-0
-0
-5.080959
-5.145909
-5.251719
-5.406504
-5.619965
-0
-0
-0
-0
-0
-0
-0
-4.849203
-4.908194
-5.004207
-5.144156
-5.336207
-0
-0
-0
-0
-0
-0
-0
-0
-4.645482
-4.70001
-4.788478
-4.916948
-5.092438
-0
-0
-0
-0
-0
-0
-0
-0
-0
-10.9032
-9.670147
-10.63117
-8.759537
-9.303026
-10.4026
-8.060288
-8.407574
-9.026006
-10.25606
-7.499218
-7.74232
-8.150535
-8.848623
-10.20754
-7.03231
-7.215659
-7.513386
-7.987202
-8.768047
-0
-6.6336
-6.778366
-7.011858
-7.367977
-7.91017
-0
-0
-6.283456
-6.402386
-6.593457
-6.879933
-7.296437
-0
-0
-0
-5.966453
-6.066659
-6.228209
-6.467461
-6.807925
-0
-0
-0
-0
-5.668757
-5.754803
-5.893952
-6.098949
-6.386202
-0
-0
-0
-0
-0
-5.382836
-5.457678
-5.579189
-5.757406
-6.004968
-0
-0
-0
-0
-0
-0
-5.115384
-5.181645
-5.289401
-5.446972
-5.664341
-0
-0
-0
-0
-0
-0
-0
-4.872989
-4.93276
-5.02994
-5.171553
-5.365917
-0
-0
-0
-0
-0
-0
-0
-0
-4.657174
-4.712047
-4.801033
-4.93024
-5.106745
-0
-0
-0
-0
-0
-0
-0
-0
-0
-4.466627
-4.517762
-4.600349
-4.719774
-4.882236
-0
-0
-0
-0
-0
-0
-0
-0
-0
-0
-10.54183
-9.547657
-10.38083
-8.723262
-9.240201
-10.25461
-8.053098
-8.39361
-8.99615
-10.17522
-7.499386
-7.740969
-8.146117
-8.836705
-10.1714
-7.03231
-7.215659
-7.513386
-7.987202
-8.768047
-0
-6.632133
-6.777367
-7.011621
-7.369149
-7.914369
-0
-0
-6.28262
-6.402252
-6.594363
-6.882562
-7.302234
-0
-0
-0
-5.970982
-6.072163
-6.235106
-6.476463
-6.820356
-0
-0
-0
-0
-5.685309
-5.772741
-5.913873
-6.121759
-6.413326
-0
-0
-0
-0
-0
-5.414422
-5.490996
-5.615035
-5.796893
-6.0497
-0
-0
-0
-0
-0
-0
-5.152016
-5.219803
-5.329811
-5.490608
-5.712515
-0
-0
-0
-0
-0
-0
-0
-4.904736
-4.965596
-5.064401
-5.208333
-5.405926
-0
-0
-0
-0
-0
-0
-0
-0
-4.679249
-4.734782
-4.824759
-4.955381
-5.13384
-0
-0
-0
-0
-0
-0
-0
-0
-0
-4.477524
-4.528955
-4.61199
-4.732051
-4.895386
-0
-0
-0
-0
-0
-0
-0
-0
-0
-0
-4.298712
-4.346985
-4.424505
-4.53613
-4.687362
-0
-0
-0
-0
-0
-0
-0
-0
-0
-0
-10.20636
-9.365674
-10.04696
-8.648111
-9.126679
-10.01784
-8.030672
-8.359942
-8.936743
-10.03134
-7.496063
-7.734335
-8.132937
-8.807781
-10.09043
-7.033325
-7.215862
-7.512142
-7.982942
-8.756196
-0
-6.632133
-6.777367
-7.011621
-7.369149
-7.914369
-0
-0
-6.280902
-6.400825
-6.593365
-6.882293
-7.303359
-0
-0
-0
-5.969638
-6.071291
-6.234893
-6.477258
-6.822863
-0
-0
-0
-0
-5.688784
-5.776925
-5.919035
-6.128341
-6.422071
-0
-0
-0
-0
-0
-5.428964
-5.506602
-5.632152
-5.81616
-6.072082
-0
-0
-0
-0
-0
-0
-5.180616
-5.249789
-5.361818
-5.525504
-5.751495
-0
-0
-0
-0
-0
-0
-0
-4.938381
-5.000498
-5.101168
-5.247759
-5.449062
-0
-0
-0
-0
-0
-0
-0
-0
-4.708658
-4.765106
-4.856459
-4.989043
-5.170215
-0
-0
-0
-0
-0
-0
-0
-0
-0
-4.498088
-4.550083
-4.63397
-4.755248
-4.920258
-0
-0
-0
-0
-0
-0
-0
-0
-0
-0
-4.308901
-4.357431
-4.435341
-4.54752
-4.699512
-0
-0
-0
-0
-0
-0
-0
-0
-0
-0
-4.140644
-4.186443
-4.259562
-4.364365
-4.505811
-0
-0
-0
-0
-0
-0
-0
-0
-0
-0
-9.948145
-9.178687
-9.736598
-8.526375
-8.957524
-9.701207
-7.977765
-8.289983
-8.829196
-9.801011
-7.480953
-7.713482
-8.101082
-8.750261
-9.946552
-7.032127
-7.212832
-7.505915
-7.970232
-8.727501
-0
-6.6336
-6.778366
-7.011858
-7.367977
-7.91017
-0
-0
-6.280902
-6.400825
-6.593365
-6.882293
-7.303359
-0
-0
-0
-5.967783
-6.069625
-6.233485
-6.476249
-6.822561
-0
-0
-0
-0
-5.687102
-5.775575
-5.91812
-6.128053
-6.42277
-0
-0
-0
-0
-0
-5.431632
-5.509799
-5.636061
-5.821068
-6.078451
-0
-0
-0
-0
-0
-0
-5.193509
-5.263516
-5.376721
-5.542065
-5.770396
-0
-0
-0
-0
-0
-0
-0
-4.964447
-5.027688
-5.130006
-5.278939
-5.483518
-0
-0
-0
-0
-0
-0
-0
-0
-4.73971
-4.797207
-4.890126
-5.024941
-5.209202
-0
-0
-0
-0
-0
-0
-0
-0
-0
-4.525437
-4.578211
-4.663276
-4.786234
-4.95356
-0
-0
-0
-0
-0
-0
-0
-0
-0
-0
-4.328121
-4.377137
-4.455788
-4.569025
-4.722468
-0
-0
-0
-0
-0
-0
-0
-0
-0
-0
-4.150199
-4.196222
-4.269684
-4.374975
-4.517087
-0
-0
-0
-0
-0
-0
-0
-0
-0
-0
-3.991464
-4.035127
-4.104353
-4.203145
-4.335956
-0
-0
-0
-0
-0
-0
-0
-0
-0
-0
-9.776693
-9.024033
-9.497445
-8.393864
-8.783547
-9.406995
-7.886337
-8.176335
-8.668518
-9.492537
-7.440741
-7.664081
-8.034707
-8.646024
-9.716423
-7.0214
-7.198775
-7.486196
-7.939478
-8.670537
-0
-6.633653
-6.777326
-7.009058
-7.362022
-7.897661
-0
-0
-6.28262
-6.402252
-6.594363
-6.882562
-7.302234
-0
-0
-0
-5.967783
-6.069625
-6.233485
-6.476249
-6.822561
-0
-0
-0
-0
-5.685177
-5.773778
-5.916483
-6.126646
-6.421737
-0
-0
-0
-0
-0
-5.429726
-5.508128
-5.634689
-5.820101
-6.078088
-0
-0
-0
-0
-0
-0
-5.19555
-5.265956
-5.379693
-5.545766
-5.775126
-0
-0
-0
-0
-0
-0
-0
-4.975969
-5.039872
-5.143124
-5.293364
-5.499763
-0
-0
-0
-0
-0
-0
-0
-0
-4.763601
-4.822021
-4.916302
-5.053052
-5.239996
-0
-0
-0
-0
-0
-0
-0
-0
-0
-4.554221
-4.607879
-4.694274
-4.819128
-4.989069
-0
-0
-0
-0
-0
-0
-0
-0
-0
-0
-4.353646
-4.403329
-4.482999
-4.597691
-4.753133
-0
-0
-0
-0
-0
-0
-0
-0
-0
-0
-4.168217
-4.214664
-4.288774
-4.394992
-4.538374
-0
-0
-0
-0
-0
-0
-0
-0
-0
-0
-4.000447
-4.044308
-4.113838
-4.213062
-4.346462
-0
-0
-0
-0
-0
-0
-0
-0
-0
-0
-3.850379
-3.892147
-3.957927
-4.051347
-4.176486
-0
-0
-0
-0
-0
-0
-0
-0
-0
-0
-9.691757
-8.916455
-9.338495
-8.280235
-8.639534
-9.180317
-7.782877
-8.052505
-8.503241
-9.206527
-7.367685
-7.578452
-7.926556
-8.48993
-9.408156
-6.989371
-7.161142
-7.439272
-7.875243
-8.56729
-0
-6.625758
-6.767351
-6.995781
-7.343039
-7.867393
-0
-0
-6.283456
-6.402386
-6.593457
-6.879933
-7.296437
-0
-0
-0
-5.969638
-6.071291
-6.234893
-6.477258
-6.822863
-0
-0
-0
-0
-5.685177
-5.773778
-5.916483
-6.126646
-6.421737
-0
-0
-0
-0
-0
-5.427773
-5.506263
-5.632926
-5.818473
-6.076664
-0
-0
-0
-0
-0
-0
-5.193496
-5.264073
-5.378017
-5.544359
-5.7741
-0
-0
-0
-0
-0
-0
-0
-4.977514
-5.041724
-5.145379
-5.296163
-5.503313
-0
-0
-0
-0
-0
-0
-0
-0
-4.77397
-4.832921
-4.927955
-5.065754
-5.254146
-0
-0
-0
-0
-0
-0
-0
-0
-0
-4.576227
-4.630651
-4.718186
-4.844661
-5.01684
-0
-0
-0
-0
-0
-0
-0
-0
-0
-0
-4.380429
-4.430864
-4.511675
-4.627996
-4.785681
-0
-0
-0
-0
-0
-0
-0
-0
-0
-0
-4.192112
-4.239138
-4.314136
-4.421625
-4.566751
-0
-0
-0
-0
-0
-0
-0
-0
-0
-0
-4.017385
-4.061615
-4.131718
-4.231762
-4.366284
-0
-0
-0
-0
-0
-0
-0
-0
-0
-0
-3.858846
-3.900788
-3.966839
-4.060644
-4.186309
-0
-0
-0
-0
-0
-0
-0
-0
-0
-0
-3.716695
-3.756769
-3.819443
-3.908052
-4.026294
-0
-0
-0
-0
-0
-0
-0
-0
-0
-0
-8.861745
-9.2597
-8.199463
-8.539288
-9.029634
-7.692081
-7.946238
-8.366413
-8.986486
-7.282645
-7.481441
-7.808659
-8.329504
-9.123408
-6.928759
-7.09254
-7.357652
-7.770253
-8.412383
-0
-6.599388
-6.73732
-6.959999
-7.297661
-7.804041
-0
-0
-6.277517
-6.395054
-6.584052
-6.867186
-7.277845
-0
-0
-0
-5.970982
-6.072163
-6.235106
-6.476463
-6.820356
-0
-0
-0
-0
-5.687102
-5.775575
-5.91812
-6.128053
-6.42277
-0
-0
-0
-0
-0
-5.427773
-5.506263
-5.632926
-5.818473
-6.076664
-0
-0
-0
-0
-0
-0
-5.191542
-5.26218
-5.376188
-5.542608
-5.772459
-0
-0
-0
-0
-0
-0
-0
-4.975367
-5.0397
-5.143499
-5.294463
-5.501858
-0
-0
-0
-0
-0
-0
-0
-0
-4.775121
-4.834308
-4.92965
-5.067863
-5.256816
-0
-0
-0
-0
-0
-0
-0
-0
-0
-4.585615
-4.640469
-4.728617
-4.855949
-5.029301
-0
-0
-0
-0
-0
-0
-0
-0
-0
-0
-4.400789
-4.451865
-4.533641
-4.651336
-4.810913
-0
-0
-0
-0
-0
-0
-0
-0
-0
-0
-0
-4.217118
-4.264789
-4.340775
-4.44968
-4.596748
-0
-0
-0
-0
-0
-0
-0
-0
-0
-0
-4.039821
-4.084554
-4.155438
-4.256601
-4.392657
-0
-0
-0
-0
-0
-0
-0
-0
-0
-0
-3.874809
-3.917076
-3.983634
-4.078169
-4.204831
-0
-0
-0
-0
-0
-0
-0
-0
-0
-0
-3.724691
-3.764922
-3.827837
-3.916792
-4.035505
-0
-0
-0
-0
-0
-0
-0
-0
-0
-0
-3.589801
-3.628351
-3.688209
-3.772451
-3.884478
-0
-0
-0
-0
-0
-0
-0
-0
-0
-0
-8.157885
-8.488282
-8.954923
-7.62667
-7.870653
-8.271147
-8.840314
-7.206787
-7.396238
-7.707454
-8.196773
-8.904918
-6.856645
-7.012577
-7.265107
-7.655817
-8.253442
-0
-6.547748
-6.680274
-6.89451
-7.218427
-7.700166
-0
-0
-6.2553
-6.370288
-6.555471
-6.832594
-7.233201
-0
-0
-0
-5.966453
-6.066659
-6.228209
-6.467461
-6.807925
-0
-0
-0
-0
-5.688784
-5.776925
-5.919035
-6.128341
-6.422071
-0
-0
-0
-0
-0
-5.429726
-5.508128
-5.634689
-5.820101
-6.078088
-0
-0
-0
-0
-0
-0
-5.191542
-5.26218
-5.376188
-5.542608
-5.772459
-0
-0
-0
-0
-0
-0
-0
-4.97343
-5.037805
-5.141643
-5.292648
-5.500099
-0
-0
-0
-0
-0
-0
-0
-0
-4.77292
-4.832196
-4.927637
-5.065968
-5.255076
-0
-0
-0
-0
-0
-0
-0
-0
-0
-4.586451
-4.641487
-4.729872
-4.85752
-5.031298
-0
-0
-0
-0
-0
-0
-0
-0
-0
-0
-4.409337
-4.460762
-4.543044
-4.661445
-4.821987
-0
-0
-0
-0
-0
-0
-0
-0
-0
-0
-0
-4.23603
-4.284243
-4.361051
-4.471132
-4.619819
-0
-0
-0
-0
-0
-0
-0
-0
-0
-0
-0
-0
-4.063241
-4.108531
-4.180278
-4.282678
-4.420434
-0
-0
-0
-0
-0
-0
-0
-0
-0
-0
-3.895929
-3.938637
-4.005885
-4.101414
-4.229434
-0
-0
-0
-0
-0
-0
-0
-0
-0
-0
-3.73977
-3.780288
-3.843657
-3.933264
-4.052869
-0
-0
-0
-0
-0
-0
-0
-0
-0
-0
-3.597369
-3.636059
-3.696135
-3.780688
-3.893139
-0
-0
-0
-0
-0
-0
-0
-0
-0
-0
-3.469164
-3.506325
-3.563617
-3.643877
-3.75024
-0
-0
-0
-0
-0
-0
-0
-0
-0
-0
-7.592748
-7.831728
-8.222663
-8.767861
-7.151632
-7.33482
-7.635449
-8.104383
-8.759985
-6.79152
-6.941187
-7.183792
-7.557606
-8.122111
-0
-6.485225
-6.6123
-6.818093
-7.128553
-7.587016
-0
-0
-6.210476
-6.321589
-6.500938
-6.768998
-7.15492
-0
-0
-0
-5.947405
-6.045764
-6.204618
-6.43983
-6.77394
-0
-0
-0
-0
-5.685309
-5.772741
-5.913873
-6.121759
-6.413326
-0
-0
-0
-0
-0
-5.431632
-5.509799
-5.636061
-5.821068
-6.078451
-0
-0
-0
-0
-0
-0
-5.193496
-5.264073
-5.378017
-5.544359
-5.7741
-0
-0
-0
-0
-0
-0
-0
-4.97343
-5.037805
-5.141643
-5.292648
-5.500099
-0
-0
-0
-0
-0
-0
-0
-0
-4.771014
-4.830316
-4.925778
-5.064128
-5.253257
-0
-0
-0
-0
-0
-0
-0
-0
-0
-4.584226
-4.639324
-4.727775
-4.855497
-5.029371
-0
-0
-0
-0
-0
-0
-0
-0
-0
-0
-4.409921
-4.461485
-4.543948
-4.662592
-4.823461
-0
-0
-0
-0
-0
-0
-0
-0
-0
-0
-0
-4.243853
-4.292352
-4.369578
-4.480248
-4.629739
-0
-0
-0
-0
-0
-0
-0
-0
-0
-0
-0
-0
-4.080872
-4.12662
-4.199076
-4.302492
-4.441646
-0
-0
-0
-0
-0
-0
-0
-0
-0
-0
-0
-0
-0
-3.917927
-3.961119
-4.029123
-4.125744
-4.255261
-0
-0
-0
-0
-0
-0
-0
-0
-0
-0
-3.7597
-3.800606
-3.864588
-3.95508
-4.075899
-0
-0
-0
-0
-0
-0
-0
-0
-0
-0
-3.611642
-3.650588
-3.711071
-3.796211
-3.909463
-0
-0
-0
-0
-0
-0
-0
-0
-0
-0
-3.47634
-3.513628
-3.571116
-3.651659
-3.758406
-0
-0
-0
-0
-0
-0
-0
-0
-0
-0
-3.35433
-3.390199
-3.445134
-3.521746
-3.622928
-0
-0
-0
-0
-0
-0
-0
-0
-0
-0
-7.122883
-7.302955
-7.598359
-8.057367
-8.688199
-6.743847
-6.889251
-7.125158
-7.487736
-8.030758
-0
-6.428212
-6.550858
-6.749833
-7.049584
-7.489977
-0
-0
-6.155406
-6.262527
-6.435872
-6.694734
-7.066127
-0
-0
-0
-5.907933
-6.003414
-6.158002
-6.386845
-6.711152
-0
-0
-0
-0
-5.668757
-5.754803
-5.893952
-6.098949
-6.386202
-0
-0
-0
-0
-0
-5.428964
-5.506602
-5.632152
-5.81616
-6.072082
-0
-0
-0
-0
-0
-0
-5.19555
-5.265956
-5.379693
-5.545766
-5.775126
-0
-0
-0
-0
-0
-0
-0
-4.975367
-5.0397
-5.143499
-5.294463
-5.501858
-0
-0
-0
-0
-0
-0
-0
-0
-4.771014
-4.830316
-4.925778
-5.064128
-5.253257
-0
-0
-0
-0
-0
-0
-0
-0
-0
-4.582358
-4.637472
-4.725931
-4.853655
-5.027527
-0
-0
-0
-0
-0
-0
-0
-0
-0
-0
-4.407694
-4.459299
-4.541803
-4.660491
-4.821412
-0
-0
-0
-0
-0
-0
-0
-0
-0
-0
-0
-4.244233
-4.292837
-4.370203
-4.481059
-4.630801
-0
-0
-0
-0
-0
-0
-0
-0
-0
-0
-0
-0
-4.088067
-4.134049
-4.206853
-4.310763
-4.450592
-0
-0
-0
-0
-0
-0
-0
-0
-0
-0
-0
-0
-0
-3.934418
-3.978001
-4.046619
-4.144124
-4.274859
-0
-0
-0
-0
-0
-0
-0
-0
-0
-0
-0
-0
-0
-0
-3.780416
-3.821745
-3.886395
-3.977855
-4.100002
-0
-0
-0
-0
-0
-0
-0
-0
-0
-0
-3.63049
-3.669781
-3.730811
-3.816745
-3.931084
-0
-0
-0
-0
-0
-0
-0
-0
-0
-0
-3.489877
-3.527394
-3.585249
-3.666322
-3.773793
-0
-0
-0
-0
-0
-0
-0
-0
-0
-0
-3.361147
-3.397129
-3.452243
-3.529112
-3.630643
-0
-0
-0
-0
-0
-0
-0
-0
-0
-0
-3.244877
-3.279549
-3.33229
-3.405542
-3.501964
-0
-0
-0
-0
-0
-0
-0
-0
-0
-0
-6.718904
-6.862169
-7.09473
-7.451744
-7.984286
-0
-6.386255
-6.505855
-6.700157
-6.99264
-7.420966
-0
-0
-6.104787
-6.208618
-6.377024
-6.628386
-6.988136
-0
-0
-0
-5.85883
-5.951289
-6.101382
-6.323564
-6.637797
-0
-0
-0
-0
-5.633609
-5.717446
-5.853363
-6.053629
-6.333904
-0
-0
-0
-0
-0
-5.414422
-5.490996
-5.615035
-5.796893
-6.0497
-0
-0
-0
-0
-0
-0
-5.193509
-5.263516
-5.376721
-5.542065
-5.770396
-0
-0
-0
-0
-0
-0
-0
-4.977514
-5.041724
-5.145379
-5.296163
-5.503313
-0
-0
-0
-0
-0
-0
-0
-0
-4.77292
-4.832196
-4.927637
-5.065968
-5.255076
-0
-0
-0
-0
-0
-0
-0
-0
-0
-4.582358
-4.637472
-4.725931
-4.853655
-5.027527
-0
-0
-0
-0
-0
-0
-0
-0
-0
-0
-4.405871
-4.457483
-4.539986
-4.658664
-4.819567
-0
-0
-0
-0
-0
-0
-0
-0
-0
-0
-0
-4.242021
-4.290651
-4.368037
-4.478913
-4.628677
-0
-0
-0
-0
-0
-0
-0
-0
-0
-0
-0
-0
-4.088283
-4.134343
-4.207254
-4.311306
-4.451328
-0
-0
-0
-0
-0
-0
-0
-0
-0
-0
-0
-0
-0
-3.941064
-3.984839
-4.053748
-4.151671
-4.282977
-0
-0
-0
-0
-0
-0
-0
-0
-0
-0
-0
-0
-0
-0
-3.795889
-3.837553
-3.902737
-3.994971
-4.118187
-0
-0
-0
-0
-0
-0
-0
-0
-0
-0
-0
-0
-0
-0
-0
-3.650046
-3.689708
-3.751332
-3.838128
-3.953652
-0
-0
-0
-0
-0
-0
-0
-0
-0
-0
-3.507738
-3.545562
-3.603911
-3.685698
-3.794149
-0
-0
-0
-0
-0
-0
-0
-0
-0
-0
-3.374009
-3.410197
-3.465643
-3.542994
-3.645182
-0
-0
-0
-0
-0
-0
-0
-0
-0
-0
-3.251363
-3.286138
-3.339042
-3.412529
-3.509269
-0
-0
-0
-0
-0
-0
-0
-0
-0
-0
-3.140433
-3.173985
-3.224691
-3.294814
-3.386843
-0
-0
-0
-0
-0
-0
-0
-0
-0
-0
-6.364241
-6.4823
-6.674246
-6.963085
-7.385424
-0
-0
-6.067377
-6.168922
-6.333904
-6.580096
-6.931907
-0
-0
-0
-5.81339
-5.903329
-6.049668
-6.266313
-6.572273
-0
-0
-0
-0
-5.589405
-5.670883
-5.803324
-5.998517
-6.271394
-0
-0
-0
-0
-0
-5.382836
-5.457678
-5.579189
-5.757406
-6.004968
-0
-0
-0
-0
-0
-0
-5.180616
-5.249789
-5.361818
-5.525504
-5.751495
-0
-0
-0
-0
-0
-0
-0
-4.975969
-5.039872
-5.143124
-5.293364
-5.499763
-0
-0
-0
-0
-0
-0
-0
-0
-4.775121
-4.834308
-4.92965
-5.067863
-5.256816
-0
-0
-0
-0
-0
-0
-0
-0
-0
-4.584226
-4.639324
-4.727775
-4.855497
-5.029371
-0
-0
-0
-0
-0
-0
-0
-0
-0
-0
-4.405871
-4.457483
-4.539986
-4.658664
-4.819567
-0
-0
-0
-0
-0
-0
-0
-0
-0
-0
-0
-4.240245
-4.288876
-4.366254
-4.477112
-4.626848
-0
-0
-0
-0
-0
-0
-0
-0
-0
-0
-0
-0
-4.086097
-4.132171
-4.205088
-4.309141
-4.449162
-0
-0
-0
-0
-0
-0
-0
-0
-0
-0
-0
-0
-0
-3.941148
-3.98498
-4.053967
-4.151999
-4.283453
-0
-0
-0
-0
-0
-0
-0
-0
-0
-0
-0
-0
-0
-0
-3.802053
-3.843874
-3.909303
-4.001891
-4.125596
-0
-0
-0
-0
-0
-0
-0
-0
-0
-0
-0
-0
-0
-0
-0
-3.664604
-3.704554
-3.766645
-3.854124
-3.970591
-0
-0
-0
-0
-0
-0
-0
-0
-0
-0
-0
-0
-0
-0
-0
-0
-3.52624
-3.564392
-3.62327
-3.70583
-3.815343
-0
-0
-0
-0
-0
-0
-0
-0
-0
-0
-3.390969
-3.42743
-3.483322
-3.561319
-3.664394
-0
-0
-0
-0
-0
-0
-0
-0
-0
-0
-3.263605
-3.298566
-3.351772
-3.425697
-3.523036
-0
-0
-0
-0
-0
-0
-0
-0
-0
-0
-3.146614
-3.180259
-3.231114
-3.301452
-3.393773
-0
-0
-0
-0
-0
-0
-0
-0
-0
-0
-3.040666
-3.07316
-3.121963
-3.18918
-3.277121
-0
-0
-0
-0
-0
-0
-0
-0
-0
-0
-6.047704
-6.148087
-6.311329
-6.554905
-6.902727
-0
-0
-0
-5.779689
-5.867863
-6.011574
-6.224357
-6.524587
-0
-0
-0
-0
-5.548262
-5.627751
-5.75725
-5.948162
-6.214844
-0
-0
-0
-0
-0
-5.342728
-5.41569
-5.53443
-5.70866
-5.950517
-0
-0
-0
-0
-0
-0
-5.152016
-5.219803
-5.329811
-5.490608
-5.712515
-0
-0
-0
-0
-0
-0
-0
-4.964447
-5.027688
-5.130006
-5.278939
-5.483518
-0
-0
-0
-0
-0
-0
-0
-0
-4.77397
-4.832921
-4.927955
-5.065754
-5.254146
-0
-0
-0
-0
-0
-0
-0
-0
-0
-4.586451
-4.641487
-4.729872
-4.85752
-5.031298
-0
-0
-0
-0
-0
-0
-0
-0
-0
-0
-4.407694
-4.459299
-4.541803
-4.660491
-4.821412
-0
-0
-0
-0
-0
-0
-0
-0
-0
-0
-0
-4.240245
-4.288876
-4.366254
-4.477112
-4.626848
-0
-0
-0
-0
-0
-0
-0
-0
-0
-0
-0
-0
-4.084372
-4.130441
-4.203345
-4.307374
-4.447361
-0
-0
-0
-0
-0
-0
-0
-0
-0
-0
-0
-0
-0
-3.938999
-3.982833
-4.051816
-4.149835
-4.281271
-0
-0
-0
-0
-0
-0
-0
-0
-0
-0
-0
-0
-0
-0
-3.802033
-3.843893
-3.909378
-4.002047
-4.125864
-0
-0
-0
-0
-0
-0
-0
-0
-0
-0
-0
-0
-0
-0
-0
-3.670345
-3.710423
-3.77272
-3.8605
-3.977387
-0
-0
-0
-0
-0
-0
-0
-0
-0
-0
-0
-0
-0
-0
-0
-0
-3.539973
-3.578375
-3.637663
-3.720827
-3.831178
-0
-0
-0
-0
-0
-0
-0
-0
-0
-0
-0
-0
-0
-0
-0
-0
-0
-3.408511
-3.445261
-3.501628
-3.580321
-3.684354
-0
-0
-0
-0
-0
-0
-0
-0
-0
-0
-3.279737
-3.314945
-3.368552
-3.443065
-3.541211
-0
-0
-0
-0
-0
-0
-0
-0
-0
-0
-3.158286
-3.192099
-3.243228
-3.313967
-3.406836
-0
-0
-0
-0
-0
-0
-0
-0
-0
-0
-3.046565
-3.079144
-3.128083
-3.195498
-3.283707
-0
-0
-0
-0
-0
-0
-0
-0
-0
-0
-2.94531
-2.976767
-3.023779
-3.088283
-3.172423
-0
-0
-0
-0
-0
-0
-0
-0
-0
-0
-5.761934
-5.849205
-5.991573
-6.202388
-6.499713
-0
-0
-0
-0
-5.517653
-5.595741
-5.723165
-5.911063
-6.173404
-0
-0
-0
-0
-0
-5.305205
-5.376568
-5.492938
-5.663759
-5.900765
-0
-0
-0
-0
-0
-0
-5.115384
-5.181645
-5.289401
-5.446972
-5.664341
-0
-0
-0
-0
-0
-0
-0
-4.938381
-5.000498
-5.101168
-5.247759
-5.449062
-0
-0
-0
-0
-0
-0
-0
-0
-4.763601
-4.822021
-4.916302
-5.053052
-5.239996
-0
-0
-0
-0
-0
-0
-0
-0
-0
-4.585615
-4.640469
-4.728617
-4.855949
-5.029301
-0
-0
-0
-0
-0
-0
-0
-0
-0
-0
-4.409921
-4.461485
-4.543948
-4.662592
-4.823461
-0
-0
-0
-0
-0
-0
-0
-0
-0
-0
-0
-4.242021
-4.290651
-4.368037
-4.478913
-4.628677
-0
-0
-0
-0
-0
-0
-0
-0
-0
-0
-0
-0
-4.084372
-4.130441
-4.203345
-4.307374
-4.447361
-0
-0
-0
-0
-0
-0
-0
-0
-0
-0
-0
-0
-0
-3.937325
-3.981151
-4.050116
-4.148108
-4.279504
-0
-0
-0
-0
-0
-0
-0
-0
-0
-0
-0
-0
-0
-0
-3.799927
-3.841782
-3.907253
-3.999899
-4.123686
-0
-0
-0
-0
-0
-0
-0
-0
-0
-0
-0
-0
-0
-0
-0
-3.670241
-3.710345
-3.77268
-3.860519
-3.977488
-0
-0
-0
-0
-0
-0
-0
-0
-0
-0
-0
-0
-0
-0
-0
-0
-3.545338
-3.583845
-3.643306
-3.726729
-3.837441
-0
-0
-0
-0
-0
-0
-0
-0
-0
-0
-0
-0
-0
-0
-0
-0
-0
-3.421498
-3.458464
-3.515194
-3.594425
-3.699204
-0
-0
-0
-0
-0
-0
-0
-0
-0
-0
-0
-0
-0
-0
-0
-0
-0
-0
-3.2964
-3.331866
-3.3859
-3.461042
-3.560055
-0
-0
-0
-0
-0
-0
-0
-0
-0
-0
-3.173658
-3.20769
-3.259186
-3.330461
-3.424065
-0
-0
-0
-0
-0
-0
-0
-0
-0
-0
-3.05771
-3.090442
-3.139631
-3.207413
-3.296124
-0
-0
-0
-0
-0
-0
-0
-0
-0
-0
-2.950948
-2.982481
-3.02962
-3.094305
-3.178693
-0
-0
-0
-0
-0
-0
-0
-0
-0
-0
-2.854079
-2.884557
-2.929849
-2.991805
-3.072398
-0
-0
-0
-0
-0
-0
-0
-0
-0
-0
-5.501503
-5.578871
-5.705228
-5.891582
-6.151706
-0
-0
-0
-0
-0
-5.277216
-5.347446
-5.462133
-5.630536
-5.864112
-0
-0
-0
-0
-0
-0
-5.080959
-5.145909
-5.251719
-5.406504
-5.619965
-0
-0
-0
-0
-0
-0
-0
-4.904736
-4.965596
-5.064401
-5.208333
-5.405926
-0
-0
-0
-0
-0
-0
-0
-0
-4.73971
-4.797207
-4.890126
-5.024941
-5.209202
-0
-0
-0
-0
-0
-0
-0
-0
-0
-4.576227
-4.630651
-4.718186
-4.844661
-5.01684
-0
-0
-0
-0
-0
-0
-0
-0
-0
-0
-4.409337
-4.460762
-4.543044
-4.661445
-4.821987
-0
-0
-0
-0
-0
-0
-0
-0
-0
-0
-0
-4.244233
-4.292837
-4.370203
-4.481059
-4.630801
-0
-0
-0
-0
-0
-0
-0
-0
-0
-0
-0
-0
-4.086097
-4.132171
-4.205088
-4.309141
-4.449162
-0
-0
-0
-0
-0
-0
-0
-0
-0
-0
-0
-0
-0
-3.937325
-3.981151
-4.050116
-4.148108
-4.279504
-0
-0
-0
-0
-0
-0
-0
-0
-0
-0
-0
-0
-0
-0
-3.798305
-3.840149
-3.905599
-3.998215
-4.121959
-0
-0
-0
-0
-0
-0
-0
-0
-0
-0
-0
-0
-0
-0
-0
-3.668184
-3.708275
-3.77059
-3.858398
-3.975328
-0
-0
-0
-0
-0
-0
-0
-0
-0
-0
-0
-0
-0
-0
-0
-0
-3.545169
-3.583689
-3.643176
-3.726638
-3.83741
-0
-0
-0
-0
-0
-0
-0
-0
-0
-0
-0
-0
-0
-0
-0
-0
-0
-3.426531
-3.463581
-3.520457
-3.59991
-3.705002
-0
-0
-0
-0
-0
-0
-0
-0
-0
-0
-0
-0
-0
-0
-0
-0
-0
-0
-3.308708
-3.344363
-3.398718
-3.474342
-3.574024
-0
-0
-0
-0
-0
-0
-0
-0
-0
-0
-0
-0
-0
-0
-0
-0
-0
-0
-0
-3.189518
-3.223778
-3.27566
-3.347504
-3.441897
-0
-0
-0
-0
-0
-0
-0
-0
-0
-0
-3.072381
-3.105312
-3.154832
-3.223106
-3.312489
-0
-0
-0
-0
-0
-0
-0
-0
-0
-0
-2.961607
-2.993277
-3.040646
-3.105667
-3.190518
-0
-0
-0
-0
-0
-0
-0
-0
-0
-0
-2.859473
-2.890023
-2.93543
-2.997555
-3.078375
-0
-0
-0
-0
-0
-0
-0
-0
-0
-0
-2.766794
-2.796265
-2.839939
-2.899467
-2.976734
-0
-0
-0
-0
-0
-0
-0
-0
-0
-0
-5.26243
-5.332074
-5.445893
-5.61305
-5.844865
-0
-0
-0
-0
-0
-0
-5.055219
-5.119236
-5.223657
-5.376453
-5.58713
-0
-0
-0
-0
-0
-0
-0
-4.872989
-4.93276
-5.02994
-5.171553
-5.365917
-0
-0
-0
-0
-0
-0
-0
-0
-4.708658
-4.765106
-4.856459
-4.989043
-5.170215
-0
-0
-0
-0
-0
-0
-0
-0
-0
-4.554221
-4.607879
-4.694274
-4.819128
-4.989069
-0
-0
-0
-0
-0
-0
-0
-0
-0
-0
-4.400789
-4.451865
-4.533641
-4.651336
-4.810913
-0
-0
-0
-0
-0
-0
-0
-0
-0
-0
-0
-4.243853
-4.292352
-4.369578
-4.480248
-4.629739
-0
-0
-0
-0
-0
-0
-0
-0
-0
-0
-0
-0
-4.088283
-4.134343
-4.207254
-4.311306
-4.451328
-0
-0
-0
-0
-0
-0
-0
-0
-0
-0
-0
-0
-0
-3.938999
-3.982833
-4.051816
-4.149835
-4.281271
-0
-0
-0
-0
-0
-0
-0
-0
-0
-0
-0
-0
-0
-0
-3.798305
-3.840149
-3.905599
-3.998214
-4.121959
-0
-0
-0
-0
-0
-0
-0
-0
-0
-0
-0
-0
-0
-0
-0
-3.666615
-3.706692
-3.768984
-3.856759
-3.973644
-0
-0
-0
-0
-0
-0
-0
-0
-0
-0
-0
-0
-0
-0
-0
-0
-3.543164
-3.581667
-3.641127
-3.724553
-3.835278
-0
-0
-0
-0
-0
-0
-0
-0
-0
-0
-0
-0
-0
-0
-0
-0
-0
-3.426312
-3.463365
-3.520255
-3.599733
-3.704865
-0
-0
-0
-0
-0
-0
-0
-0
-0
-0
-0
-0
-0
-0
-0
-0
-0
-0
-3.313443
-3.349166
-3.403645
-3.47946
-3.579414
-0
-0
-0
-0
-0
-0
-0
-0
-0
-0
-0
-0
-0
-0
-0
-0
-0
-0
-0
-3.201211
-3.235632
-3.287802
-3.360077
-3.455072
-0
-0
-0
-0
-0
-0
-0
-0
-0
-0
-0
-0
-0
-0
-0
-0
-0
-0
-0
-0
-3.087501
-3.120636
-3.170505
-3.239298
-3.329399
-0
-0
-0
-0
-0
-0
-0
-0
-0
-0
-2.975632
-3.00748
-3.055153
-3.120622
-3.206091
-0
-0
-0
-0
-0
-0
-0
-0
-0
-0
-2.86968
-2.900356
-2.945973
-3.008408
-3.089653
-0
-0
-0
-0
-0
-0
-0
-0
-0
-0
-2.771963
-2.801499
-2.84528
-2.904963
-2.982441
-0
-0
-0
-0
-0
-0
-0
-0
-0
-0
-2.683204
-2.711727
-2.753795
-2.811044
-2.885155
-0
-0
-0
-0
-0
-0
-0
-0
-0
-0
-5.041608
-5.105139
-5.20884
-5.360608
-5.569849
-0
-0
-0
-0
-0
-0
-0
-4.849203
-4.908194
-5.004207
-5.144156
-5.336207
-0
-0
-0
-0
-0
-0
-0
-0
-4.679249
-4.734782
-4.824759
-4.955381
-5.13384
-0
-0
-0
-0
-0
-0
-0
-0
-0
-4.525437
-4.578211
-4.663276
-4.786234
-4.95356
-0
-0
-0
-0
-0
-0
-0
-0
-0
-0
-4.380429
-4.430864
-4.511675
-4.627996
-4.785681
-0
-0
-0
-0
-0
-0
-0
-0
-0
-0
-4.23603
-4.284243
-4.361051
-4.471132
-4.619819
-0
-0
-0
-0
-0
-0
-0
-0
-0
-0
-0
-0
-4.088067
-4.134049
-4.206853
-4.310763
-4.450592
-0
-0
-0
-0
-0
-0
-0
-0
-0
-0
-0
-0
-0
-3.941148
-3.98498
-4.053967
-4.151999
-4.283453
-0
-0
-0
-0
-0
-0
-0
-0
-0
-0
-0
-0
-0
-0
-3.799927
-3.841782
-3.907253
-3.999899
-4.123686
-0
-0
-0
-0
-0
-0
-0
-0
-0
-0
-0
-0
-0
-0
-0
-3.666615
-3.706692
-3.768984
-3.856759
-3.973644
-0
-0
-0
-0
-0
-0
-0
-0
-0
-0
-0
-0
-0
-0
-0
-0
-3.541646
-3.580133
-3.639569
-3.72296
-3.833639
-0
-0
-0
-0
-0
-0
-0
-0
-0
-0
-0
-0
-0
-0
-0
-0
-0
-3.424361
-3.461393
-3.518252
-3.597689
-3.70277
-0
-0
-0
-0
-0
-0
-0
-0
-0
-0
-0
-0
-0
-0
-0
-0
-0
-0
-3.313185
-3.348906
-3.403387
-3.479215
-3.579195
-0
-0
-0
-0
-0
-0
-0
-0
-0
-0
-0
-0
-0
-0
-0
-0
-0
-0
-0
-3.205682
-3.240156
-3.29243
-3.364869
-3.460103
-0
-0
-0
-0
-0
-0
-0
-0
-0
-0
-0
-0
-0
-0
-0
-0
-0
-0
-0
-0
-3.098632
-3.131908
-3.18203
-3.251213
-3.341858
-0
-0
-0
-0
-0
-0
-0
-0
-0
-0
-0
-0
-0
-0
-0
-0
-0
-0
-0
-0
-2.990073
-3.022102
-3.070092
-3.136033
-3.222159
-0
-0
-0
-0
-0
-0
-0
-0
-0
-0
-2.883104
-2.913944
-2.959838
-3.022685
-3.104498
-0
-0
-0
-0
-0
-0
-0
-0
-0
-0
-2.78175
-2.8114
-2.855377
-2.915345
-2.993216
-0
-0
-0
-0
-0
-0
-0
-0
-0
-0
-2.688162
-2.716745
-2.758913
-2.816306
-2.890612
-0
-0
-0
-0
-0
-0
-0
-0
-0
-0
-2.603232
-2.630706
-2.671267
-2.726291
-2.797442
-0
-0
-0
-0
-0
-0
-0
-0
-0
-0
-4.836613
-4.895198
-4.990604
-5.129689
-5.320542
-0
-0
-0
-0
-0
-0
-0
-0
-4.657174
-4.712047
-4.801033
-4.93024
-5.106745
-0
-0
-0
-0
-0
-0
-0
-0
-0
-4.498088
-4.550083
-4.63397
-4.755248
-4.920258
-0
-0
-0
-0
-0
-0
-0
-0
-0
-0
-4.353646
-4.403329
-4.482999
-4.597691
-4.753133
-0
-0
-0
-0
-0
-0
-0
-0
-0
-0
-4.217118
-4.264789
-4.340775
-4.44968
-4.596748
-0
-0
-0
-0
-0
-0
-0
-0
-0
-0
-4.080872
-4.12662
-4.199076
-4.302492
-4.441646
-0
-0
-0
-0
-0
-0
-0
-0
-0
-0
-0
-0
-0
-3.941064
-3.984839
-4.053748
-4.151671
-4.282977
-0
-0
-0
-0
-0
-0
-0
-0
-0
-0
-0
-0
-0
-0
-3.802033
-3.843893
-3.909378
-4.002047
-4.125864
-0
-0
-0
-0
-0
-0
-0
-0
-0
-0
-0
-0
-0
-0
-0
-3.668184
-3.708275
-3.77059
-3.858398
-3.975328
-0
-0
-0
-0
-0
-0
-0
-0
-0
-0
-0
-0
-0
-0
-0
-0
-3.541646
-3.580133
-3.639569
-3.72296
-3.833639
-0
-0
-0
-0
-0
-0
-0
-0
-0
-0
-0
-0
-0
-0
-0
-0
-0
-3.422894
-3.459909
-3.516743
-3.596144
-3.701179
-0
-0
-0
-0
-0
-0
-0
-0
-0
-0
-0
-0
-0
-0
-0
-0
-0
-0
-3.31129
-3.346987
-3.401434
-3.477218
-3.577142
-0
-0
-0
-0
-0
-0
-0
-0
-0
-0
-0
-0
-0
-0
-0
-0
-0
-0
-0
-3.205397
-3.23986
-3.292131
-3.364573
-3.45982
-0
-0
-0
-0
-0
-0
-0
-0
-0
-0
-0
-0
-0
-0
-0
-0
-0
-0
-0
-0
-3.102866
-3.136183
-3.186391
-3.255717
-3.346569
-0
-0
-0
-0
-0
-0
-0
-0
-0
-0
-0
-0
-0
-0
-0
-0
-0
-0
-0
-0
-3.00069
-3.032841
-3.081057
-3.147348
-3.233969
-0
-0
-0
-0
-0
-0
-0
-0
-0
-0
-0
-0
-0
-0
-0
-0
-0
-0
-0
-0
-2.896915
-2.927921
-2.9741
-3.037381
-3.119794
-0
-0
-0
-0
-0
-0
-0
-0
-0
-0
-2.794619
-2.824416
-2.868649
-2.928995
-3.007391
-0
-0
-0
-0
-0
-0
-0
-0
-0
-0
-2.697557
-2.726247
-2.768593
-2.826251
-2.900921
-0
-0
-0
-0
-0
-0
-0
-0
-0
-0
-2.607995
-2.635523
-2.676177
-2.731334
-2.802667
-0
-0
-0
-0
-0
-0
-0
-0
-0