/*--------------------------------*- C++ -*----------------------------------*\
| =========                 |                                                 |
| \\      /  F ield         | OpenFOAM: The Open Source CFD Toolbox           |
|  \\    /   O peration     | Version:  2306                                  |
|   \\  /    A nd           | Website:  www.openfoam.com                      |
|    \\/     M anipulation  |                                                 |
\*---------------------------------------------------------------------------*/
FoamFile
{
    version     2.0;
    format      ascii;
    arch        "LSB;label=32;scalar=64";
    class       volScalarField;
    location    "1.2/fuel";
    object      iDmdtfuel.H2O;
}
// * * * * * * * * * * * * * * * * * * * * * * * * * * * * * * * * * * * * * //

dimensions      [1 -3 -1 0 0 0 0];

internalField   nonuniform List<scalar> 
16000
(
86.60968
87.3687
79.19234
82.74863
88.90087
79.68124
83.45277
72.90234
75.85491
80.02501
91.20836
80.64261
84.87322
73.2739
76.31072
80.69266
67.85204
69.98767
73.48123
78.35335
94.2063
82.02466
87.01039
73.99572
77.20656
82.03923
68.15518
70.33552
73.91449
79.00082
63.65312
65.26232
67.90218
72.00407
77.64145
97.43562
83.69566
89.78389
75.01115
78.49352
84.06492
68.73972
71.01097
74.76583
80.30707
63.91004
65.54708
68.23363
72.42423
78.28296
60.043
61.32327
63.40153
66.59197
71.35098
0
99.86605
85.32193
92.76756
76.19532
80.04826
86.69413
69.55111
71.96062
75.98859
82.27345
64.40292
66.09593
68.8771
73.24986
79.57814
60.26589
61.56529
63.67345
66.9136
71.76628
0
56.87358
57.9286
59.64391
62.2251
65.9993
0
0
101.3934
86.41656
95.00463
77.28321
81.55989
89.52371
70.47568
73.06722
77.46558
84.82936
65.08082
66.85735
69.78151
74.436
81.53067
60.69192
62.02941
64.19743
67.53799
72.58265
0
57.0703
58.1391
59.87546
62.48921
66.31692
0
0
54.04486
54.94192
56.40073
58.57743
61.68572
0
0
0
102.2544
87.02391
96.40573
77.95479
82.57438
91.63961
71.29271
74.08282
78.90147
87.58601
65.84078
67.72428
70.83509
75.86963
84.07529
61.27391
62.66738
64.9241
68.41565
73.75628
0
57.44524
58.54126
60.31939
62.99809
66.93363
0
0
54.22067
55.12812
56.60247
58.80255
61.94648
0
0
0
51.4911
52.271
53.54325
55.42719
58.08421
0
0
0
0
102.6388
87.32997
97.19364
78.27896
83.13581
92.96211
71.76551
74.70801
79.86255
89.64437
66.49364
68.4895
71.80157
77.26456
86.8301
61.91835
63.38196
65.75112
69.4383
75.17665
0
57.95474
59.09033
60.92939
63.70379
67.80081
0
0
54.55498
55.48286
56.98781
59.23409
62.44896
0
0
0
51.64976
52.43773
53.72199
55.62351
58.3065
0
0
0
0
49.16378
49.85517
50.98435
52.64969
54.97427
0
0
0
0
0
102.6388
87.45608
97.54493
78.41385
83.41818
93.70495
71.96592
75.00888
80.39343
90.93014
66.85299
68.93097
72.39473
78.19607
88.88663
62.46
63.99502
66.48051
70.37653
76.56096
0
58.51347
59.69778
61.61229
64.50694
68.81197
0
0
55.00734
55.96461
57.5137
59.827
63.14592
0
0
0
51.95094
52.75467
54.06241
55.99845
58.73263
0
0
0
0
49.3081
50.00593
51.14464
52.82378
55.16818
0
0
0
0
0
47.02732
47.64968
48.66682
50.16061
52.23221
0
0
0
0
0
0
102.2544
87.45608
97.54493
78.4593
83.53441
94.03596
72.03017
75.13367
80.66024
91.65253
66.98802
69.11731
72.67939
78.71009
90.17237
62.74623
64.33133
66.89985
70.95056
77.48362
0
58.97494
60.20756
62.19752
65.21502
69.74024
0
0
55.49947
56.49242
58.09515
60.49065
63.93942
0
0
0
52.357
53.18326
54.52456
56.51006
59.31819
0
0
0
0
49.58163
50.29199
51.44924
53.15531
55.5385
0
0
0
0
0
47.15945
47.78706
48.81195
50.31687
52.40421
0
0
0
0
0
0
45.05396
45.6217
46.54842
47.90468
49.77455
0
0
0
0
0
0
0
101.3934
87.32997
97.19364
78.4593
83.53441
94.03596
72.04352
75.17558
80.77005
91.97457
67.01772
69.1766
72.79717
78.96857
90.89593
62.84209
64.45695
67.07606
71.22539
77.99267
0
59.2106
60.47594
62.51728
65.62053
70.30638
0
0
55.90003
56.92761
58.58248
61.05897
64.63897
0
0
0
52.79581
53.64907
55.03054
57.07557
59.97372
0
0
0
0
49.94931
50.67743
51.86098
53.6053
56.04385
0
0
0
0
0
47.40958
48.04731
49.08724
50.61377
52.73176
0
0
0
0
0
0
45.1756
45.74767
46.68082
48.04628
49.92898
0
0
0
0
0
0
0
43.22204
43.74557
44.59817
45.84109
47.54664
0
0
0
0
0
0
0
0
99.86605
87.02391
96.40573
78.41385
83.41818
93.70495
72.04352
75.17558
80.77005
91.97457
67.01621
69.18868
72.83666
79.07507
91.21898
62.85279
64.48402
67.1317
71.33897
78.2491
0
59.28116
60.56508
62.63593
65.79017
70.57687
0
0
56.09857
57.14893
58.8379
61.36811
65.03792
0
0
0
53.14855
54.02753
55.44711
57.54907
60.53482
0
0
0
0
50.34434
51.09354
52.30815
54.09781
56.60247
0
0
0
0
0
47.7449
48.39692
49.45803
51.01502
53.17636
0
0
0
0
0
0
45.40562
45.98604
46.9316
48.31483
50.22241
0
0
0
0
0
0
0
43.33454
43.86171
44.71973
45.97037
47.68663
0
0
0
0
0
0
0
0
41.51401
42.0013
42.79188
43.93995
45.50819
0
0
0
0
0
0
0
0
0
97.43562
86.41656
95.00463
78.27896
83.13581
92.96211
72.03017
75.13367
80.66024
91.65253
67.01621
69.18868
72.83666
79.07507
91.21898
62.84372
64.48221
67.14283
71.37704
78.355
0
59.28068
60.57437
62.66095
65.84338
70.68866
0
0
56.15164
57.21445
58.92194
61.48202
65.20407
0
0
0
53.31877
54.21425
55.65793
57.79599
60.83852
0
0
0
0
50.65844
51.42737
52.67087
54.50281
57.06983
0
0
0
0
0
48.10332
48.77214
49.85801
51.45064
53.66295
0
0
0
0
0
0
45.71326
46.30539
47.26834
48.67647
50.61897
0
0
0
0
0
0
0
43.54711
44.08125
44.94969
46.2152
47.95213
0
0
0
0
0
0
0
0
41.61849
42.10886
42.90408
44.05873
45.63605
0
0
0
0
0
0
0
0
0
39.91568
40.37264
41.11068
42.17791
43.62974
0
0
0
0
0
0
0
0
0
0
94.2063
85.32193
92.76756
77.95479
82.57438
91.63961
71.96592
75.00888
80.39343
90.93014
67.01772
69.1766
72.79717
78.96857
90.89593
62.84372
64.48221
67.14283
71.37704
78.355
0
59.26757
60.56544
62.65884
65.85386
70.72618
0
0
56.14417
57.21326
58.93004
61.50551
65.25588
0
0
0
53.35925
54.26344
55.71957
57.87644
60.94961
0
0
0
0
50.80635
51.58768
52.84889
54.70665
57.31222
0
0
0
0
0
48.38558
49.06988
50.17835
51.80351
54.0627
0
0
0
0
0
0
46.04061
46.64638
47.62946
49.06641
51.04947
0
0
0
0
0
0
0
43.83081
44.37469
45.25765
46.54389
48.30966
0
0
0
0
0
0
0
0
41.81577
42.31203
43.11611
44.2834
45.87818
0
0
0
0
0
0
0
0
0
40.01306
40.47268
41.21471
42.28763
43.74726
0
0
0
0
0
0
0
0
0
0
38.41512
38.84651
39.53926
40.53679
41.88827
0
0
0
0
0
0
0
0
0
0
91.20836
83.69566
89.78389
77.28321
81.55989
89.52371
71.76551
74.70801
79.86255
89.64437
66.98802
69.11731
72.67939
78.71009
90.17237
62.85279
64.48402
67.1317
71.33897
78.2491
0
59.26757
60.56544
62.65884
65.85386
70.72618
0
0
56.12882
57.2005
58.92112
61.50311
65.26594
0
0
0
53.34724
54.25565
55.71767
57.88354
60.97201
0
0
0
0
50.8374
51.62507
52.89502
54.76547
57.39037
0
0
0
0
0
48.51554
49.20935
50.33131
51.97569
54.26271
0
0
0
0
0
0
46.2962
46.91435
47.91549
49.37826
51.39781
0
0
0
0
0
0
0
44.13148
44.68658
45.58622
46.89622
48.69514
0
0
0
0
0
0
0
0
42.07857
42.58302
43.39939
44.58422
46.20325
0
0
0
0
0
0
0
0
0
40.19683
40.66148
41.41113
42.49493
43.96952
0
0
0
0
0
0
0
0
0
0
38.50618
38.93986
39.6361
40.63858
41.99684
0
0
0
0
0
0
0
0
0
0
37.00256
37.41184
38.06526
39.00183
40.26585
0
0
0
0
0
0
0
0
0
0
88.90087
82.02466
87.01039
76.19532
80.04826
86.69413
71.29271
74.08282
78.90147
87.58601
66.85299
68.93097
72.39473
78.19607
88.88663
62.84209
64.45695
67.07606
71.22539
77.99267
0
59.28068
60.57437
62.66095
65.84338
70.68866
0
0
56.12882
57.2005
58.92112
61.50311
65.26594
0
0
0
53.33066
54.24076
55.70509
57.87452
60.96931
0
0
0
0
50.82237
51.613
52.88684
54.7629
57.39661
0
0
0
0
0
48.53938
49.23791
50.36625
52.01955
54.31963
0
0
0
0
0
0
46.41142
47.03702
48.04868
49.52626
51.56672
0
0
0
0
0
0
0
44.36441
44.92957
45.84392
47.17485
49.00305
0
0
0
0
0
0
0
0
42.35608
42.86989
43.70025
44.90502
46.55166
0
0
0
0
0
0
0
0
0
40.44124
40.91285
41.67302
42.77183
44.26712
0
0
0
0
0
0
0
0
0
0
38.67794
39.11597
39.81882
40.83076
42.20199
0
0
0
0
0
0
0
0
0
0
37.08795
37.49923
38.15572
39.09664
40.36661
0
0
0
0
0
0
0
0
0
0
35.66942
36.05962
36.67825
37.5611
38.74796
0
0
0
0
0
0
0
0
0
0
87.3687
80.64261
84.87322
75.01115
78.49352
84.06492
70.47568
73.06722
77.46558
84.82936
66.49364
68.4895
71.80157
77.26456
86.8301
62.74623
64.33133
66.89985
70.95056
77.48362
0
59.28116
60.56508
62.63593
65.79017
70.57687
0
0
56.14417
57.21326
58.93004
61.50551
65.25588
0
0
0
53.33066
54.24076
55.70509
57.87452
60.96931
0
0
0
0
50.80517
51.59694
52.87221
54.75032
57.38738
0
0
0
0
0
48.52234
49.22299
50.35398
52.01091
54.31638
0
0
0
0
0
0
46.42965
47.05883
48.07524
49.55933
51.60899
0
0
0
0
0
0
0
44.46738
45.03845
45.96115
47.30376
49.14823
0
0
0
0
0
0
0
0
42.56957
43.09164
43.93417
45.15622
46.82684
0
0
0
0
0
0
0
0
0
40.69846
41.17797
41.95003
43.06579
44.58445
0
0
0
0
0
0
0
0
0
0
38.90604
39.35003
40.06199
41.08692
42.47602
0
0
0
0
0
0
0
0
0
0
37.24896
37.66403
38.32631
39.27552
40.55685
0
0
0
0
0
0
0
0
0
0
35.7497
36.14166
36.76301
37.64972
38.84184
0
0
0
0
0
0
0
0
0
0
34.40863
34.78188
35.36973
36.20456
37.32286
0
0
0
0
0
0
0
0
0
0
86.60968
79.68124
83.45277
73.99572
77.20656
82.03923
69.55111
71.96062
75.98859
82.27345
65.84078
67.72428
70.83509
75.86963
84.07529
62.46
63.99502
66.48051
70.37653
76.56096
0
59.2106
60.47594
62.51728
65.62053
70.30638
0
0
56.15164
57.21445
58.92194
61.48202
65.20407
0
0
0
53.34724
54.25565
55.71767
57.88354
60.97201
0
0
0
0
50.80517
51.59694
52.87221
54.75032
57.38738
0
0
0
0
0
48.50489
49.20632
50.33823
51.99635
54.30366
0
0
0
0
0
0
46.41129
47.042
48.06025
49.54676
51.59982
0
0
0
0
0
0
0
44.48119
45.05499
45.9813
47.32877
49.17996
0
0
0
0
0
0
0
0
42.66223
43.18904
44.03831
45.26974
46.95329
0
0
0
0
0
0
0
0
0
40.89512
41.38148
42.16372
43.29396
44.83262
0
0
0
0
0
0
0
0
0
0
39.14538
39.59609
40.31825
41.35775
42.76689
0
0
0
0
0
0
0
0
0
0
37.4625
37.88274
38.55296
39.51353
40.81044
0
0
0
0
0
0
0
0
0
0
35.90107
36.29633
36.9228
37.81683
39.01898
0
0
0
0
0
0
0
0
0
0
34.48429
34.8591
35.44936
36.28765
37.41064
0
0
0
0
0
0
0
0
0
0
33.21397
33.57209
34.13217
34.92402
35.98068
0
0
0
0
0
0
0
0
0
0
79.19234
82.74863
73.2739
76.31072
80.69266
68.73972
71.01097
74.76583
80.30707
65.08082
66.85735
69.78151
74.436
81.53067
61.91835
63.38196
65.75112
69.4383
75.17665
0
58.97494
60.20756
62.19752
65.21502
69.74024
0
0
56.09857
57.14893
58.8379
61.36811
65.03792
0
0
0
53.35925
54.26344
55.71957
57.87644
60.94961
0
0
0
0
50.82237
51.613
52.88684
54.7629
57.39661
0
0
0
0
0
48.50489
49.20632
50.33823
51.99635
54.30366
0
0
0
0
0
0
46.39383
47.02508
48.04391
49.53111
51.58515
0
0
0
0
0
0
0
44.462
45.03691
45.9645
47.31358
49.16695
0
0
0
0
0
0
0
0
42.67252
43.20144
44.05346
45.28858
46.97715
0
0
0
0
0
0
0
0
0
40.97901
41.46921
42.25694
43.39483
44.94398
0
0
0
0
0
0
0
0
0
0
39.32733
39.78376
40.51455
41.56632
42.99237
0
0
0
0
0
0
0
0
0
0
0
37.68597
38.11198
38.79102
39.76424
41.0785
0
0
0
0
0
0
0
0
0
0
36.10156
36.50132
37.13477
38.0388
39.25466
0
0
0
0
0
0
0
0
0
0
34.62694
35.00466
35.59946
36.44426
37.57616
0
0
0
0
0
0
0
0
0
0
33.28543
33.64495
34.20719
35.00213
36.063
0
0
0
0
0
0
0
0
0
0
32.07999
32.42449
32.95941
33.71223
34.71335
0
0
0
0
0
0
0
0
0
0
72.90234
75.85491
80.02501
68.15518
70.33552
73.91449
79.00082
64.40292
66.09593
68.8771
73.24986
79.57814
61.27391
62.66738
64.9241
68.41565
73.75628
0
58.51347
59.69778
61.61229
64.50694
68.81197
0
0
55.90003
56.92761
58.58248
61.05897
64.63897
0
0
0
53.31877
54.21425
55.65793
57.79599
60.83852
0
0
0
0
50.8374
51.62507
52.89502
54.76547
57.39037
0
0
0
0
0
48.52234
49.22299
50.35398
52.01091
54.31638
0
0
0
0
0
0
46.39383
47.02508
48.04391
49.53111
51.58515
0
0
0
0
0
0
0
44.4447
45.01997
45.94791
47.29736
49.15123
0
0
0
0
0
0
0
0
42.65285
43.18256
44.03547
45.27165
46.96161
0
0
0
0
0
0
0
0
0
40.98648
41.4783
42.26816
43.40887
44.96183
0
0
0
0
0
0
0
0
0
0
39.40372
39.86328
40.59858
41.65666
43.09134
0
0
0
0
0
0
0
0
0
0
0
37.85497
38.28582
38.97221
39.95595
41.28468
0
0
0
0
0
0
0
0
0
0
0
0
36.31086
36.71559
37.35675
38.27184
39.50288
0
0
0
0
0
0
0
0
0
0
34.81568
35.19734
35.7983
36.65198
37.79603
0
0
0
0
0
0
0
0
0
0
33.42018
33.78227
34.34856
35.14932
36.21817
0
0
0
0
0
0
0
0
0
0
32.14763
32.49337
33.03024
33.78584
34.79076
0
0
0
0
0
0
0
0
0
0
31.00193
31.33402
31.846
32.56324
33.51375
0
0
0
0
0
0
0
0
0
0
67.85204
69.98767
73.48123
78.35335
63.91004
65.54708
68.23363
72.42423
78.28296
60.69192
62.02941
64.19743
67.53799
72.58265
0
57.95474
59.09033
60.92939
63.70379
67.80081
0
0
55.49947
56.49242
58.09515
60.49065
63.93942
0
0
0
53.14855
54.02753
55.44711
57.54907
60.53482
0
0
0
0
50.80635
51.58768
52.84889
54.70665
57.31222
0
0
0
0
0
48.53938
49.23791
50.36625
52.01955
54.31963
0
0
0
0
0
0
46.41129
47.042
48.06025
49.54676
51.59982
0
0
0
0
0
0
0
44.4447
45.01997
45.94791
47.29736
49.15123
0
0
0
0
0
0
0
0
42.63582
43.16577
44.01886
45.2552
46.94534
0
0
0
0
0
0
0
0
0
40.9666
41.45898
42.24941
43.3908
44.9446
0
0
0
0
0
0
0
0
0
0
39.40894
39.86973
40.60666
41.66692
43.10451
0
0
0
0
0
0
0
0
0
0
0
37.92488
38.35829
39.04842
40.03741
41.37332
0
0
0
0
0
0
0
0
0
0
0
0
36.46841
36.87724
37.52473
38.44891
39.69244
0
0
0
0
0
0
0
0
0
0
0
0
0
35.01227
35.39825
36.00597
36.86941
38.02683
0
0
0
0
0
0
0
0
0
0
33.59828
33.96384
34.53561
35.34429
36.42397
0
0
0
0
0
0
0
0
0
0
32.27517
32.62321
33.16371
33.92456
34.93663
0
0
0
0
0
0
0
0
0
0
31.06606
31.39927
31.91302
32.63279
33.58672
0
0
0
0
0
0
0
0
0
0
29.97572
30.29626
30.78718
31.47182
32.37603
0
0
0
0
0
0
0
0
0
0
63.65312
65.26232
67.90218
72.00407
77.64145
60.26589
61.56529
63.67345
66.9136
71.76628
0
57.44524
58.54126
60.31939
62.99809
66.93363
0
0
55.00734
55.96461
57.5137
59.827
63.14592
0
0
0
52.79581
53.64907
55.03054
57.07557
59.97372
0
0
0
0
50.65844
51.42737
52.67087
54.50281
57.06983
0
0
0
0
0
48.51554
49.20935
50.33131
51.97569
54.26271
0
0
0
0
0
0
46.42965
47.05883
48.07524
49.55933
51.60899
0
0
0
0
0
0
0
44.462
45.03691
45.9645
47.31358
49.16695
0
0
0
0
0
0
0
0
42.63582
43.16577
44.01886
45.2552
46.94534
0
0
0
0
0
0
0
0
0
40.94991
41.44243
42.23294
43.37434
44.92813
0
0
0
0
0
0
0
0
0
0
39.38904
39.8502
40.58749
41.64813
43.08619
0
0
0
0
0
0
0
0
0
0
0
37.92827
38.36262
39.054
40.04466
41.38282
0
0
0
0
0
0
0
0
0
0
0
0
36.53271
36.94362
37.59424
38.52282
39.77239
0
0
0
0
0
0
0
0
0
0
0
0
0
35.15964
35.54912
36.16231
37.03366
38.20196
0
0
0
0
0
0
0
0
0
0
0
0
0
0
33.78341
34.15274
34.73049
35.54781
36.63937
0
0
0
0
0
0
0
0
0
0
32.44361
32.79473
33.34012
34.10806
35.12985
0
0
0
0
0
0
0
0
0
0
31.18703
31.5223
32.03932
32.76382
33.72422
0
0
0
0
0
0
0
0
0
0
30.03664
30.35819
30.85072
31.53765
32.44498
0
0
0
0
0
0
0
0
0
0
28.99761
29.30745
29.77877
30.43338
31.29504
0
0
0
0
0
0
0
0
0
0
60.043
61.32327
63.40153
66.59197
71.35098
0
57.0703
58.1391
59.87546
62.48921
66.31692
0
0
54.55498
55.48286
56.98781
59.23409
62.44896
0
0
0
52.357
53.18326
54.52456
56.51006
59.31819
0
0
0
0
50.34434
51.09354
52.30815
54.09781
56.60247
0
0
0
0
0
48.38558
49.06988
50.17835
51.80351
54.0627
0
0
0
0
0
0
46.41142
47.03702
48.04868
49.52626
51.56672
0
0
0
0
0
0
0
44.48119
45.05499
45.9813
47.32877
49.17996
0
0
0
0
0
0
0
0
42.65285
43.18256
44.03547
45.27165
46.96161
0
0
0
0
0
0
0
0
0
40.94991
41.44243
42.23294
43.37434
44.92813
0
0
0
0
0
0
0
0
0
0
39.37274
39.83397
40.57125
41.63181
43.06971
0
0
0
0
0
0
0
0
0
0
0
37.90851
38.34308
39.03464
40.02548
41.36383
0
0
0
0
0
0
0
0
0
0
0
0
36.53464
36.94625
37.59781
38.52767
39.77897
0
0
0
0
0
0
0
0
0
0
0
0
0
35.21903
35.61022
36.22602
37.1011
38.27451
0
0
0
0
0
0
0
0
0
0
0
0
0
0
33.92168
34.29401
34.87652
35.70076
36.80188
0
0
0
0
0
0
0
0
0
0
0
0
0
0
0
32.61837
32.9728
33.5235
34.29915
35.33153
0
0
0
0
0
0
0
0
0
0
31.34665
31.68466
32.20608
32.93697
33.90613
0
0
0
0
0
0
0
0
0
0
30.15159
30.47498
30.97047
31.66171
32.5749
0
0
0
0
0
0
0
0
0
0
29.05557
29.36633
29.83911
30.49581
31.36033
0
0
0
0
0
0
0
0
0
0
28.06425
28.36409
28.81721
29.44387
30.26627
0
0
0
0
0
0
0
0
0
0
56.87358
57.9286
59.64391
62.2251
65.9993
0
0
54.22067
55.12812
56.60247
58.80255
61.94648
0
0
0
51.95094
52.75467
54.06241
55.99845
58.73263
0
0
0
0
49.94931
50.67743
51.86098
53.6053
56.04385
0
0
0
0
0
48.10332
48.77214
49.85801
51.45064
53.66295
0
0
0
0
0
0
46.2962
46.91435
47.91549
49.37826
51.39781
0
0
0
0
0
0
0
44.46738
45.03845
45.96115
47.30376
49.14823
0
0
0
0
0
0
0
0
42.67252
43.20144
44.05346
45.28858
46.97715
0
0
0
0
0
0
0
0
0
40.9666
41.45898
42.24941
43.3908
44.9446
0
0
0
0
0
0
0
0
0
0
39.37274
39.83397
40.57125
41.63181
43.06971
0
0
0
0
0
0
0
0
0
0
0
37.89264
38.32722
39.01871
40.00939
41.34749
0
0
0
0
0
0
0
0
0
0
0
0
36.51511
36.92684
37.57846
38.50832
39.75961
0
0
0
0
0
0
0
0
0
0
0
0
0
35.21978
35.61148
36.22798
37.10403
38.27876
0
0
0
0
0
0
0
0
0
0
0
0
0
0
33.97677
34.3505
34.9352
35.7626
36.86809
0
0
0
0
0
0
0
0
0
0
0
0
0
0
0
32.74847
33.10548
33.66035
34.4421
35.4829
0
0
0
0
0
0
0
0
0
0
0
0
0
0
0
0
31.51199
31.85293
32.37909
33.11688
34.09554
0
0
0
0
0
0
0
0
0
0
30.30315
30.62898
31.12845
31.82547
32.74659
0
0
0
0
0
0
0
0
0
0
29.16497
29.4774
29.95287
30.61349
31.48336
0
0
0
0
0
0
0
0
0
0
28.11948
28.42015
28.87461
29.50319
30.3282
0
0
0
0
0
0
0
0
0
0
27.17269
27.46307
27.89919
28.49988
29.28575
0
0
0
0
0
0
0
0
0
0
54.04486
54.94192
56.40073
58.57743
61.68572
0
0
0
51.64976
52.43773
53.72199
55.62351
58.3065
0
0
0
0
49.58163
50.29199
51.44924
53.15531
55.5385
0
0
0
0
0
47.7449
48.39692
49.45803
51.01502
53.17636
0
0
0
0
0
0
46.04061
46.64638
47.62946
49.06641
51.04947
0
0
0
0
0
0
0
44.36441
44.92957
45.84392
47.17485
49.00305
0
0
0
0
0
0
0
0
42.66223
43.18904
44.03831
45.26974
46.95329
0
0
0
0
0
0
0
0
0
40.98648
41.4783
42.26816
43.40887
44.96183
0
0
0
0
0
0
0
0
0
0
39.38904
39.8502
40.58749
41.64813
43.08619
0
0
0
0
0
0
0
0
0
0
0
37.89264
38.32722
39.01871
40.00939
41.34749
0
0
0
0
0
0
0
0
0
0
0
0
36.49969
36.91138
37.56288
38.49253
39.74352
0
0
0
0
0
0
0
0
0
0
0
0
0
35.20058
35.5923
36.20876
37.0847
38.25927
0
0
0
0
0
0
0
0
0
0
0
0
0
0
33.97659
34.35067
34.93587
35.764
36.87048
0
0
0
0
0
0
0
0
0
0
0
0
0
0
0
32.79977
33.15793
33.71463
34.49908
35.54363
0
0
0
0
0
0
0
0
0
0
0
0
0
0
0
0
31.63471
31.97788
32.50771
33.2509
34.23704
0
0
0
0
0
0
0
0
0
0
0
0
0
0
0
0
0
30.45991
30.78833
31.29204
31.99528
32.92496
0
0
0
0
0
0
0
0
0
0
29.30913
29.62376
30.10282
30.7687
31.64577
0
0
0
0
0
0
0
0
0
0
28.22379
28.52596
28.98287
29.61502
30.44494
0
0
0
0
0
0
0
0
0
0
27.2254
27.51655
27.95388
28.55634
29.34461
0
0
0
0
0
0
0
0
0
0
26.32055
26.60166
27.02178
27.59821
28.35013
0
0
0
0
0
0
0
0
0
0
51.4911
52.271
53.54325
55.42719
58.08421
0
0
0
0
49.3081
50.00593
51.14464
52.82378
55.16818
0
0
0
0
0
47.40958
48.04731
49.08724
50.61377
52.73176
0
0
0
0
0
0
45.71326
46.30539
47.26834
48.67647
50.61897
0
0
0
0
0
0
0
44.13148
44.68658
45.58622
46.89622
48.69514
0
0
0
0
0
0
0
0
42.56957
43.09164
43.93417
45.15622
46.82684
0
0
0
0
0
0
0
0
0
40.97901
41.46921
42.25694
43.39483
44.94398
0
0
0
0
0
0
0
0
0
0
39.40894
39.86973
40.60666
41.66692
43.10451
0
0
0
0
0
0
0
0
0
0
0
37.90851
38.34308
39.03464
40.02548
41.36383
0
0
0
0
0
0
0
0
0
0
0
0
36.49969
36.91138
37.56288
38.49253
39.74352
0
0
0
0
0
0
0
0
0
0
0
0
0
35.18562
35.57727
36.19357
37.06926
38.24348
0
0
0
0
0
0
0
0
0
0
0
0
0
0
33.95777
34.3318
34.91688
35.7448
36.85102
0
0
0
0
0
0
0
0
0
0
0
0
0
0
0
32.79884
33.15722
33.71428
34.49924
35.54453
0
0
0
0
0
0
0
0
0
0
0
0
0
0
0
0
31.68265
32.02676
32.55814
33.30364
34.29301
0
0
0
0
0
0
0
0
0
0
0
0
0
0
0
0
0
30.57597
30.90631
31.41327
32.12132
33.05767
0
0
0
0
0
0
0
0
0
0
0
0
0
0
0
0
0
0
29.45803
29.77497
30.25785
30.92935
31.81417
0
0
0
0
0
0
0
0
0
0
28.36117
28.66529
29.12548
29.76242
30.5989
0
0
0
0
0
0
0
0
0
0
27.325
27.61751
28.05708
28.66282
29.45557
0
0
0
0
0
0
0
0
0
0
26.37093
26.65272
27.07398
27.65203
28.40616
0
0
0
0
0
0
0
0
0
0
25.50526
25.77763
26.18238
26.73605
27.45626
0
0
0
0
0
0
0
0
0
0
49.16378
49.85517
50.98435
52.64969
54.97427
0
0
0
0
0
47.15945
47.78706
48.81195
50.31687
52.40421
0
0
0
0
0
0
45.40562
45.98604
46.9316
48.31483
50.22241
0
0
0
0
0
0
0
43.83081
44.37469
45.25765
46.54389
48.30966
0
0
0
0
0
0
0
0
42.35608
42.86989
43.70025
44.90502
46.55166
0
0
0
0
0
0
0
0
0
40.89512
41.38148
42.16372
43.29396
44.83262
0
0
0
0
0
0
0
0
0
0
39.40372
39.86328
40.59858
41.65666
43.09134
0
0
0
0
0
0
0
0
0
0
0
37.92827
38.36262
39.054
40.04466
41.38282
0
0
0
0
0
0
0
0
0
0
0
0
36.51511
36.92684
37.57846
38.50832
39.75961
0
0
0
0
0
0
0
0
0
0
0
0
0
35.18562
35.57727
36.19357
37.06926
38.24348
0
0
0
0
0
0
0
0
0
0
0
0
0
0
33.94328
34.31721
34.9021
35.72975
36.83559
0
0
0
0
0
0
0
0
0
0
0
0
0
0
0
32.78046
33.13873
33.6956
34.48029
35.52522
0
0
0
0
0
0
0
0
0
0
0
0
0
0
0
0
31.68114
32.02537
32.55697
33.30283
34.29273
0
0
0
0
0
0
0
0
0
0
0
0
0
0
0
0
0
30.62094
30.95203
31.46031
32.17033
33.10948
0
0
0
0
0
0
0
0
0
0
0
0
0
0
0
0
0
0
29.56803
29.88665
30.37239
31.0482
31.939
0
0
0
0
0
0
0
0
0
0
0
0
0
0
0
0
0
0
0
28.50289
28.80905
29.2727
29.91473
30.75826
0
0
0
0
0
0
0
0
0
0
27.45611
27.75039
28.19293
28.80305
29.60182
0
0
0
0
0
0
0
0
0
0
26.46618
26.7492
27.17251
27.75357
28.51183
0
0
0
0
0
0
0
0
0
0
25.55347
25.82648
26.23226
26.78743
27.50968
0
0
0
0
0
0
0
0
0
0
24.72525
24.98861
25.37891
25.91087
26.60136
0
0
0
0
0
0
0
0
0
0
47.02732
47.64968
48.66682
50.16061
52.23221
0
0
0
0
0
0
45.1756
45.74767
46.68082
48.04628
49.92898
0
0
0
0
0
0
0
43.54711
44.08125
44.94969
46.2152
47.95213
0
0
0
0
0
0
0
0
42.07857
42.58302
43.39939
44.58422
46.20325
0
0
0
0
0
0
0
0
0
40.69846
41.17797
41.95003
43.06579
44.58445
0
0
0
0
0
0
0
0
0
0
39.32733
39.78377
40.51455
41.56632
42.99237
0
0
0
0
0
0
0
0
0
0
0
37.92488
38.35829
39.04842
40.03741
41.37332
0
0
0
0
0
0
0
0
0
0
0
0
36.53464
36.94625
37.59781
38.52767
39.77897
0
0
0
0
0
0
0
0
0
0
0
0
0
35.20058
35.5923
36.20876
37.0847
38.25927
0
0
0
0
0
0
0
0
0
0
0
0
0
0
33.94328
34.31721
34.9021
35.72975
36.83559
0
0
0
0
0
0
0
0
0
0
0
0
0
0
0
32.76643
33.12458
33.68125
34.46564
35.51018
0
0
0
0
0
0
0
0
0
0
0
0
0
0
0
0
31.66322
32.0073
32.53866
33.28419
34.27368
0
0
0
0
0
0
0
0
0
0
0
0
0
0
0
0
0
30.61898
30.95011
31.4585
32.16875
33.10826
0
0
0
0
0
0
0
0
0
0
0
0
0
0
0
0
0
0
29.61034
29.92958
30.41642
31.09394
31.98717
0
0
0
0
0
0
0
0
0
0
0
0
0
0
0
0
0
0
0
28.60739
28.91499
29.3812
30.02708
30.876
0
0
0
0
0
0
0
0
0
0
0
0
0
0
0
0
0
0
0
0
27.59123
27.88734
28.33298
28.94775
29.75293
0
0
0
0
0
0
0
0
0
0
26.59152
26.87613
27.30215
27.88721
28.651
0
0
0
0
0
0
0
0
0
0
25.64468
25.91882
26.32647
26.88442
27.61046
0
0
0
0
0
0
0
0
0
0
24.77145
25.03539
25.42664
25.95999
26.65237
0
0
0
0
0
0
0
0
0
0
23.97825
24.23315
24.60909
25.12069
25.78297
0
0
0
0
0
0
0
0
0
0
45.05396
45.6217
46.54842
47.90468
49.77455
0
0
0
0
0
0
0
43.33454
43.86171
44.71973
45.97037
47.68663
0
0
0
0
0
0
0
0
41.81577
42.31203
43.11611
44.2834
45.87818
0
0
0
0
0
0
0
0
0
40.44124
40.91285
41.67302
42.77183
44.26712
0
0
0
0
0
0
0
0
0
0
39.14538
39.59609
40.31825
41.35775
42.76689
0
0
0
0
0
0
0
0
0
0
37.85497
38.28582
38.97221
39.95595
41.28468
0
0
0
0
0
0
0
0
0
0
0
0
36.53271
36.94362
37.59424
38.52282
39.77239
0
0
0
0
0
0
0
0
0
0
0
0
0
35.21978
35.61148
36.22798
37.10403
38.27876
0
0
0
0
0
0
0
0
0
0
0
0
0
0
33.95777
34.3318
34.91688
35.7448
36.85102
0
0
0
0
0
0
0
0
0
0
0
0
0
0
0
32.76643
33.12458
33.68125
34.46564
35.51018
0
0
0
0
0
0
0
0
0
0
0
0
0
0
0
0
31.64966
31.9936
32.52474
33.26996
34.25904
0
0
0
0
0
0
0
0
0
0
0
0
0
0
0
0
0
30.60155
30.93249
31.4406
32.15048
33.08953
0
0
0
0
0
0
0
0
0
0
0
0
0
0
0
0
0
0
29.60804
29.92725
30.41412
31.09175
31.98521
0
0
0
0
0
0
0
0
0
0
0
0
0
0
0
0
0
0
0
28.64734
28.95541
29.42256
30.06991
30.92095
0
0
0
0
0
0
0
0
0
0
0
0
0
0
0
0
0
0
0
0
27.69069
27.98807
28.43598
29.05422
29.86426
0
0
0
0
0
0
0
0
0
0
0
0
0
0
0
0
0
0
0
0
26.72057
27.00679
27.43565
28.02493
28.79459
0
0
0
0
0
0
0
0
0
0
25.76465
26.04025
26.45037
27.012
27.74312
0
0
0
0
0
0
0
0
0
0
24.85891
25.12387
25.51686
26.05276
26.74866
0
0
0
0
0
0
0
0
0
0
24.02256
24.278
24.65482
25.16771
25.83174
0
0
0
0
0
0
0
0
0
0
23.26359
23.50911
23.87158
24.3633
24.99913
0
0
0
0
0
0
0
0
0
0
43.22204
43.74557
44.59817
45.84109
47.54664
0
0
0
0
0
0
0
0
41.61849
42.10886
42.90408
44.05873
45.63605
0
0
0
0
0
0
0
0
0
40.19683
40.66148
41.41113
42.49493
43.96952
0
0
0
0
0
0
0
0
0
0
38.90604
39.35003
40.06199
41.08692
42.47602
0
0
0
0
0
0
0
0
0
0
37.68597
38.11198
38.79102
39.76424
41.0785
0
0
0
0
0
0
0
0
0
0
36.46841
36.87724
37.52473
38.44891
39.69244
0
0
0
0
0
0
0
0
0
0
0
0
0
35.21903
35.61022
36.22602
37.1011
38.27451
0
0
0
0
0
0
0
0
0
0
0
0
0
0
33.97659
34.35067
34.93587
35.764
36.87048
0
0
0
0
0
0
0
0
0
0
0
0
0
0
0
32.78046
33.13873
33.6956
34.48029
35.52522
0
0
0
0
0
0
0
0
0
0
0
0
0
0
0
0
31.64966
31.9936
32.52474
33.26996
34.25904
0
0
0
0
0
0
0
0
0
0
0
0
0
0
0
0
0
30.58845
30.91923
31.42711
32.13668
33.07531
0
0
0
0
0
0
0
0
0
0
0
0
0
0
0
0
0
0
29.5911
29.9101
30.39666
31.0739
31.96687
0
0
0
0
0
0
0
0
0
0
0
0
0
0
0
0
0
0
0
28.6448
28.95277
29.41989
30.06726
30.91843
0
0
0
0
0
0
0
0
0
0
0
0
0
0
0
0
0
0
0
0
27.72853
28.02627
28.47495
29.09448
29.90637
0
0
0
0
0
0
0
0
0
0
0
0
0
0
0
0
0
0
0
0
26.81545
27.10276
27.53364
28.12605
28.90012
0
0
0
0
0
0
0
0
0
0
0
0
0
0
0
0
0
0
0
0
25.88807
26.16515
26.57783
27.14333
27.87981
0
0
0
0
0
0
0
0
0
0
24.97391
25.24019
25.63547
26.17475
26.87533
0
0
0
0
0
0
0
0
0
0
24.10652
24.36291
24.74133
25.25659
25.92386
0
0
0
0
0
0
0
0
0
0
23.30615
23.55216
23.91546
24.40837
25.04583
0
0
0
0
0
0
0
0
0
0
22.57925
22.81592
23.16436
23.63741
24.24768
0
0
0
0
0
0
0
0
0
0
41.51401
42.0013
42.79188
43.93995
45.50819
0
0
0
0
0
0
0
0
0
40.01307
40.47268
41.21471
42.28763
43.74726
0
0
0
0
0
0
0
0
0
0
38.67794
39.11597
39.81882
40.83076
42.20199
0
0
0
0
0
0
0
0
0
0
37.4625
37.88274
38.55296
39.51353
40.81044
0
0
0
0
0
0
0
0
0
0
36.31086
36.71558
37.35675
38.27184
39.50288
0
0
0
0
0
0
0
0
0
0
35.15964
35.54912
36.16231
37.03366
38.20196
0
0
0
0
0
0
0
0
0
0
0
0
0
0
33.97677
34.3505
34.9352
35.7626
36.86809
0
0
0
0
0
0
0
0
0
0
0
0
0
0
0
32.79884
33.15722
33.71428
34.49924
35.54453
0
0
0
0
0
0
0
0
0
0
0
0
0
0
0
0
31.66322
32.0073
32.53866
33.28419
34.27368
0
0
0
0
0
0
0
0
0
0
0
0
0
0
0
0
0
30.58845
30.91923
31.42711
32.13668
33.07531
0
0
0
0
0
0
0
0
0
0
0
0
0
0
0
0
0
0
29.57844
29.89728
30.38361
31.06052
31.95307
0
0
0
0
0
0
0
0
0
0
0
0
0
0
0
0
0
0
0
28.62838
28.93611
29.4029
30.04986
30.90051
0
0
0
0
0
0
0
0
0
0
0
0
0
0
0
0
0
0
0
0
27.72582
28.02342
28.47199
29.09149
29.9034
0
0
0
0
0
0
0
0
0
0
0
0
0
0
0
0
0
0
0
0
26.8514
27.13897
27.57051
28.164
28.93971
0
0
0
0
0
0
0
0
0
0
0
0
0
0
0
0
0
0
0
0
25.9787
26.25676
26.67125
27.23958
27.98006
0
0
0
0
0
0
0
0
0
0
0
0
0
0
0
0
0
0
0
0
25.09214
25.35972
25.75737
26.30018
27.0057
0
0
0
0
0
0
0
0
0
0
24.21687
24.47449
24.855
25.3734
26.04499
0
0
0
0
0
0
0
0
0
0
23.38687
23.63372
23.99851
24.49361
25.1341
0
0
0
0
0
0
0
0
0
0
22.62016
22.8573
23.20649
23.68067
24.29244
0
0
0
0
0
0
0
0
0
0
21.92667
22.15168
22.4869
22.94108
23.52735
0
0
0
0
0
0
0
0
0
0
39.91569
40.37264
41.11068
42.17791
43.62974
0
0
0
0
0
0
0
0
0
0
38.50618
38.93986
39.6361
40.63858
41.99684
0
0
0
0
0
0
0
0
0
0
37.24896
37.66403
38.32631
39.27552
40.55685
0
0
0
0
0
0
0
0
0
0
36.10156
36.50132
37.13477
38.0388
39.25466
0
0
0
0
0
0
0
0
0
0
35.01226
35.39825
36.00597
36.86941
38.02683
0
0
0
0
0
0
0
0
0
0
33.92168
34.29401
34.87652
35.70076
36.80188
0
0
0
0
0
0
0
0
0
0
0
0
0
0
0
32.79977
33.15792
33.71463
34.49908
35.54363
0
0
0
0
0
0
0
0
0
0
0
0
0
0
0
0
31.68114
32.02537
32.55697
33.30283
34.29273
0
0
0
0
0
0
0
0
0
0
0
0
0
0
0
0
0
30.60155
30.93249
31.4406
32.15048
33.08953
0
0
0
0
0
0
0
0
0
0
0
0
0
0
0
0
0
0
29.57844
29.89728
30.38361
31.06052
31.95307
0
0
0
0
0
0
0
0
0
0
0
0
0
0
0
0
0
0
0
28.61616
28.92371
29.39027
30.0369
30.88714
0
0
0
0
0
0
0
0
0
0
0
0
0
0
0
0
0
0
0
0
27.70993
28.00726
28.45548
29.07455
29.88593
0
0
0
0
0
0
0
0
0
0
0
0
0
0
0
0
0
0
0
0
26.84859
27.13598
27.56737
28.16075
28.93642
0
0
0
0
0
0
0
0
0
0
0
0
0
0
0
0
0
0
0
0
26.0129
26.2912
26.70621
27.27549
28.01738
0
0
0
0
0
0
0
0
0
0
0
0
0
0
0
0
0
0
0
0
25.17888
25.4473
25.84661
26.39197
27.10115
0
0
0
0
0
0
0
0
0
0
0
0
0
0
0
0
0
0
0
0
24.33024
24.58908
24.97173
25.49342
26.16954
0
0
0
0
0
0
0
0
0
0
23.49295
23.74087
24.10762
24.60561
25.25012
0
0
0
0
0
0
0
0
0
0
22.6978
22.93577
23.28631
23.76254
24.37712
0
0
0
0
0
0
0
0
0
0
21.96607
22.19148
22.52742
22.98263
23.57032
0
0
0
0
0
0
0
0
0
0
21.30403
21.51785
21.83739
22.27381
22.83622
0
0
0
0
0
0
0
0
0
0
38.41512
38.84651
39.53926
40.53679
41.88827
0
0
0
0
0
0
0
0
0
0
37.08794
37.49923
38.15572
39.09664
40.36661
0
0
0
0
0
0
0
0
0
0
35.90107
36.29633
36.9228
37.81683
39.01898
0
0
0
0
0
0
0
0
0
0
34.81568
35.19734
35.7983
36.65198
37.79603
0
0
0
0
0
0
0
0
0
0
33.78341
34.15274
34.73049
35.54781
36.63937
0
0
0
0
0
0
0
0
0
0
32.74847
33.10548
33.66035
34.4421
35.4829
0
0
0
0
0
0
0
0
0
0
0
0
0
0
0
0
31.68265
32.02676
32.55814
33.30364
34.29301
0
0
0
0
0
0
0
0
0
0
0
0
0
0
0
0
0
30.61898
30.95011
31.4585
32.16875
33.10826
0
0
0
0
0
0
0
0
0
0
0
0
0
0
0
0
0
0
29.5911
29.9101
30.39666
31.0739
31.96687
0
0
0
0
0
0
0
0
0
0
0
0
0
0
0
0
0
0
0
28.61616
28.92371
29.39027
30.0369
30.88714
0
0
0
0
0
0
0
0
0
0
0
0
0
0
0
0
0
0
0
0
27.69813
27.99529
28.44327
29.06202
29.87299
0
0
0
0
0
0
0
0
0
0
0
0
0
0
0
0
0
0
0
0
26.8332
27.12033
27.55135
28.14428
28.91943
0
0
0
0
0
0
0
0
0
0
0
0
0
0
0
0
0
0
0
0
26.01002
26.28813
26.70296
27.27208
28.01386
0
0
0
0
0
0
0
0
0
0
0
0
0
0
0
0
0
0
0
0
25.21154
25.4801
25.87988
26.42606
27.13648
0
0
0
0
0
0
0
0
0
0
0
0
0
0
0
0
0
0
0
0
24.41336
24.67297
25.0571
25.58114
26.26059
0
0
0
0
0
0
0
0
0
0
0
0
0
0
0
0
0
0
0
0
23.60187
23.85083
24.21958
24.72058
25.3693
0
0
0
0
0
0
0
0
0
0
22.79981
23.03883
23.39113
23.87008
24.48837
0
0
0
0
0
0
0
0
0
0
22.04092
22.267
22.60424
23.06134
23.65165
0
0
0
0
0
0
0
0
0
0
21.34196
21.5562
21.87637
22.31378
22.8775
0
0
0
0
0
0
0
0
0
0
20.71699
20.91272
21.21731
21.63385
22.17383
0
0
0
0
0
0
0
0
0
0
37.00256
37.41184
38.06526
39.00183
40.26585
0
0
0
0
0
0
0
0
0
0
35.7497
36.14166
36.76301
37.64972
38.84184
0
0
0
0
0
0
0
0
0
0
34.62694
35.00466
35.59946
36.44426
37.57616
0
0
0
0
0
0
0
0
0
0
33.59828
33.96384
34.53561
35.34429
36.42397
0
0
0
0
0
0
0
0
0
0
32.61837
32.9728
33.5235
34.29915
35.33153
0
0
0
0
0
0
0
0
0
0
31.63471
31.97788
32.50771
33.2509
34.23704
0
0
0
0
0
0
0
0
0
0
0
0
0
0
0
0
0
30.62094
30.95203
31.46031
32.17033
33.10948
0
0
0
0
0
0
0
0
0
0
0
0
0
0
0
0
0
0
29.60804
29.92725
30.41412
31.09175
31.98521
0
0
0
0
0
0
0
0
0
0
0
0
0
0
0
0
0
0
0