/*--------------------------------*- C++ -*----------------------------------*\
| =========                 |                                                 |
| \\      /  F ield         | OpenFOAM: The Open Source CFD Toolbox           |
|  \\    /   O peration     | Version:  2306                                  |
|   \\  /    A nd           | Website:  www.openfoam.com                      |
|    \\/     M anipulation  |                                                 |
\*---------------------------------------------------------------------------*/
FoamFile
{
    version     2.0;
    format      ascii;
    arch        "LSB;label=32;scalar=64";
    class       volScalarField;
    location    "1.2/fuel";
    object      nernst;
}
// * * * * * * * * * * * * * * * * * * * * * * * * * * * * * * * * * * * * * //

dimensions      [1 2 -3 0 0 -1 0];

internalField   nonuniform List<scalar> 
16000
(
-1.759988
-1.760934
-1.746856
-1.760052
-1.762852
-1.74748
-1.761
-1.735006
-1.746902
-1.760174
-1.76575
-1.74874
-1.762922
-1.73548
-1.747527
-1.761126
-1.725409
-1.735039
-1.74699
-1.760353
-1.769503
-1.750633
-1.765827
-1.736438
-1.748788
-1.763055
-1.725795
-1.735514
-1.747616
-1.761309
-1.717487
-1.725434
-1.735105
-1.74712
-1.760587
-1.773514
-1.75307
-1.769592
-1.737877
-1.750683
-1.765972
-1.726574
-1.736472
-1.74888
-1.763248
-1.717813
-1.72582
-1.73558
-1.747747
-1.761549
-1.710772
-1.717506
-1.725485
-1.735202
-1.747289
-1.760822
-1.776418
-1.755672
-1.773621
-1.739733
-1.753122
-1.769758
-1.727745
-1.737911
-1.750779
-1.766184
-1.71847
-1.726599
-1.736539
-1.749015
-1.763502
-1.711055
-1.717832
-1.725872
-1.735678
-1.74792
-1.76179
-1.704953
-1.710788
-1.717548
-1.725562
-1.73533
-1.74746
-1.76102
-1.778113
-1.757617
-1.776542
-1.741728
-1.755726
-1.773817
-1.729256
-1.739768
-1.753224
-1.77
-1.719458
-1.72777
-1.73798
-1.750921
-1.766462
-1.711624
-1.71849
-1.726651
-1.736639
-1.749193
-1.763757
-1.705202
-1.71107
-1.717874
-1.725949
-1.735808
-1.748093
-1.761994
-1.69982
-1.704966
-1.710822
-1.717611
-1.725664
-1.735459
-1.747604
-1.761217
-1.778972
-1.758827
-1.778251
-1.743254
-1.757674
-1.776762
-1.730886
-1.741762
-1.755836
-1.774099
-1.720734
-1.729281
-1.739839
-1.753375
-1.770315
-1.712478
-1.719478
-1.727823
-1.738083
-1.751107
-1.766741
-1.705704
-1.711639
-1.718532
-1.72673
-1.736771
-1.749372
-1.763973
-1.700043
-1.705215
-1.711105
-1.717937
-1.726051
-1.735938
-1.748239
-1.762196
-1.695228
-1.69983
-1.704995
-1.710875
-1.717694
-1.725766
-1.735568
-1.747747
-1.761414
-1.77932
-1.759491
-1.779119
-1.74424
-1.758886
-1.77849
-1.732148
-1.743287
-1.757789
-1.777077
-1.722111
-1.730909
-1.741836
-1.755999
-1.774468
-1.713581
-1.720752
-1.729335
-1.739946
-1.753575
-1.770632
-1.706457
-1.712493
-1.71952
-1.727903
-1.73822
-1.751295
-1.766977
-1.700492
-1.705716
-1.711674
-1.718596
-1.726834
-1.736904
-1.749522
-1.764187
-1.69543
-1.700053
-1.705244
-1.711158
-1.718021
-1.726155
-1.736048
-1.748385
-1.762398
-1.69107
-1.695236
-1.699855
-1.70504
-1.710946
-1.717779
-1.725853
-1.735676
-1.74789
-1.761609
-1.77932
-1.75978
-1.779471
-1.744806
-1.759553
-1.779369
-1.732979
-1.744273
-1.759005
-1.778828
-1.723184
-1.732169
-1.743361
-1.757959
-1.777487
-1.714773
-1.722128
-1.730963
-1.741947
-1.756215
-1.774837
-1.707429
-1.713595
-1.720795
-1.729416
-1.740088
-1.753775
-1.770902
-1.701166
-1.706469
-1.712528
-1.719585
-1.728009
-1.738357
-1.751453
-1.767213
-1.695836
-1.700502
-1.705745
-1.711727
-1.718681
-1.726939
-1.737016
-1.749672
-1.764401
-1.691255
-1.695438
-1.700078
-1.705289
-1.711229
-1.718107
-1.726242
-1.736157
-1.748529
-1.7626
-1.68727
-1.691077
-1.695257
-1.699895
-1.705101
-1.711018
-1.717851
-1.725939
-1.735783
-1.748032
-1.762559
-1.778972
-1.75978
-1.779471
-1.745062
-1.759843
-1.779728
-1.733467
-1.744839
-1.759674
-1.779722
-1.723899
-1.733
-1.744347
-1.75918
-1.779265
-1.715705
-1.7232
-1.732223
-1.743475
-1.758186
-1.777897
-1.708479
-1.714786
-1.72217
-1.731047
-1.742097
-1.756432
-1.775155
-1.702034
-1.70744
-1.71363
-1.72086
-1.729526
-1.740231
-1.753944
-1.771173
-1.696445
-1.701175
-1.706498
-1.712582
-1.719672
-1.728117
-1.738472
-1.751611
-1.767448
-1.691626
-1.695844
-1.700527
-1.705791
-1.711799
-1.718767
-1.727027
-1.737127
-1.749822
-1.764615
-1.68744
-1.691261
-1.695459
-1.700118
-1.705351
-1.711301
-1.718179
-1.726329
-1.736265
-1.748673
-1.763576
-1.683768
-1.687276
-1.691096
-1.695292
-1.699948
-1.705163
-1.711078
-1.717921
-1.726024
-1.73589
-1.748719
-1.76331
-1.778113
-1.759491
-1.779119
-1.745062
-1.759843
-1.779728
-1.733691
-1.745095
-1.759966
-1.780088
-1.724323
-1.733487
-1.744914
-1.759853
-1.780177
-1.716329
-1.723913
-1.733052
-1.744461
-1.759413
-1.779704
-1.709302
-1.715716
-1.72324
-1.732306
-1.743627
-1.758413
-1.77825
-1.702973
-1.708488
-1.71482
-1.722237
-1.73116
-1.742247
-1.756616
-1.775476
-1.697231
-1.702043
-1.707469
-1.713685
-1.720949
-1.729636
-1.740352
-1.754114
-1.771446
-1.692183
-1.696453
-1.7012
-1.706544
-1.712655
-1.719759
-1.728207
-1.738587
-1.751768
-1.767684
-1.687783
-1.691633
-1.695865
-1.700567
-1.705853
-1.711872
-1.71884
-1.727115
-1.737238
-1.74997
-1.765652
-1.683926
-1.687446
-1.69128
-1.695494
-1.700172
-1.705413
-1.711362
-1.71825
-1.726414
-1.736373
-1.749371
-1.764354
-1.680519
-1.683773
-1.687292
-1.691127
-1.69534
-1.700003
-1.705215
-1.711138
-1.717992
-1.726109
-1.736408
-1.749259
-1.763924
-1.776418
-1.758827
-1.778251
-1.744806
-1.759553
-1.779369
-1.733691
-1.745095
-1.759966
-1.780088
-1.72452
-1.733711
-1.74517
-1.760147
-1.780551
-1.716702
-1.724337
-1.733539
-1.745029
-1.76009
-1.780633
-1.709855
-1.716339
-1.723953
-1.733135
-1.744615
-1.759646
-1.78008
-1.703709
-1.70931
-1.715749
-1.723306
-1.73242
-1.743781
-1.758605
-1.778607
-1.69808
-1.70298
-1.708517
-1.714875
-1.722328
-1.731275
-1.742374
-1.756802
-1.775802
-1.692901
-1.697238
-1.702067
-1.707515
-1.713759
-1.721039
-1.729729
-1.740472
-1.754284
-1.771719
-1.688296
-1.692189
-1.696475
-1.70124
-1.706607
-1.712729
-1.719833
-1.728296
-1.738702
-1.751925
-1.768832
-1.684244
-1.687788
-1.691652
-1.6959
-1.700621
-1.705916
-1.711933
-1.718912
-1.727202
-1.737348
-1.750691
-1.766497
-1.680666
-1.68393
-1.687462
-1.691311
-1.695542
-1.700226
-1.705465
-1.711422
-1.71832
-1.7265
-1.736896
-1.74992
-1.764996
-1.677484
-1.680522
-1.683788
-1.68732
-1.69117
-1.695389
-1.700049
-1.705267
-1.711198
-1.718062
-1.72652
-1.736814
-1.749696
-1.764395
-1.773514
-1.757617
-1.776542
-1.74424
-1.758886
-1.77849
-1.733467
-1.744839
-1.759674
-1.779722
-1.72452
-1.733711
-1.74517
-1.760147
-1.780551
-1.716875
-1.724533
-1.733763
-1.745285
-1.760386
-1.781015
-1.710186
-1.716711
-1.724376
-1.733622
-1.745183
-1.760327
-1.781025
-1.704205
-1.709862
-1.716371
-1.724018
-1.733249
-1.74477
-1.759844
-1.780461
-1.698747
-1.703716
-1.709337
-1.715803
-1.723397
-1.732535
-1.74391
-1.7588
-1.778969
-1.693677
-1.698086
-1.703004
-1.708563
-1.71495
-1.72242
-1.731371
-1.742502
-1.756989
-1.776132
-1.688957
-1.692906
-1.697259
-1.702108
-1.707579
-1.713834
-1.721114
-1.729822
-1.740593
-1.754454
-1.77306
-1.684719
-1.688301
-1.692208
-1.69651
-1.701295
-1.706671
-1.712791
-1.719906
-1.728386
-1.738816
-1.752686
-1.76982
-1.680962
-1.684248
-1.687804
-1.691683
-1.695949
-1.700676
-1.705969
-1.711994
-1.718983
-1.727289
-1.737882
-1.751263
-1.76721
-1.677622
-1.680669
-1.683945
-1.68749
-1.691354
-1.695591
-1.700272
-1.705517
-1.711482
-1.718391
-1.726914
-1.737305
-1.750366
-1.765493
-1.674637
-1.677487
-1.680536
-1.683813
-1.687359
-1.691214
-1.695429
-1.700094
-1.705319
-1.711257
-1.7184
-1.72684
-1.73714
-1.750027
-1.764718
-1.769503
-1.755672
-1.773621
-1.743254
-1.757674
-1.776762
-1.732979
-1.744273
-1.759005
-1.778828
-1.724323
-1.733487
-1.744914
-1.759853
-1.780177
-1.716875
-1.724533
-1.733763
-1.745285
-1.760386
-1.781015
-1.710341
-1.716884
-1.724572
-1.733846
-1.74544
-1.760625
-1.781415
-1.704503
-1.710193
-1.716742
-1.72444
-1.733735
-1.745339
-1.760529
-1.781421
-1.699197
-1.704211
-1.709888
-1.716424
-1.724108
-1.733364
-1.7449
-1.760043
-1.780846
-1.694286
-1.698752
-1.703739
-1.709383
-1.715878
-1.723489
-1.732632
-1.74404
-1.758996
-1.779336
-1.689671
-1.693681
-1.698107
-1.703045
-1.708628
-1.715027
-1.722497
-1.731468
-1.742631
-1.757178
-1.777763
-1.685332
-1.688961
-1.692925
-1.697294
-1.702163
-1.707643
-1.713896
-1.721189
-1.729915
-1.740713
-1.755284
-1.774357
-1.681406
-1.684723
-1.688317
-1.692239
-1.696558
-1.70135
-1.706724
-1.712852
-1.719979
-1.728475
-1.739369
-1.753309
-1.770702
-1.6779
-1.680965
-1.684263
-1.687832
-1.691726
-1.695998
-1.700722
-1.706021
-1.712054
-1.719054
-1.727709
-1.7383
-1.751733
-1.767775
-1.674767
-1.677625
-1.680683
-1.683971
-1.687529
-1.691398
-1.695631
-1.700318
-1.705569
-1.711541
-1.718731
-1.727235
-1.737634
-1.750704
-1.765837
-1.671952
-1.674639
-1.677499
-1.680559
-1.683848
-1.687399
-1.69125
-1.695469
-1.700139
-1.70537
-1.711543
-1.71866
-1.727095
-1.737385
-1.750249
-1.76575
-1.75307
-1.769592
-1.741728
-1.755726
-1.773817
-1.732148
-1.743287
-1.757789
-1.777077
-1.723899
-1.733
-1.744347
-1.75918
-1.779265
-1.716702
-1.724337
-1.733539
-1.745029
-1.76009
-1.780633
-1.710341
-1.716884
-1.724572
-1.733846
-1.74544
-1.760625
-1.781415
-1.704643
-1.710347
-1.716915
-1.724636
-1.733959
-1.745596
-1.760828
-1.781817
-1.699468
-1.704508
-1.710218
-1.716794
-1.724529
-1.73385
-1.745469
-1.760731
-1.78182
-1.694698
-1.699201
-1.704233
-1.709932
-1.716498
-1.724198
-1.733459
-1.745031
-1.760244
-1.781235
-1.690233
-1.69429
-1.698772
-1.703778
-1.709446
-1.715954
-1.723565
-1.732729
-1.744172
-1.759194
-1.781148
-1.685995
-1.689675
-1.693699
-1.698142
-1.703101
-1.708694
-1.715091
-1.722574
-1.731566
-1.742761
-1.758109
-1.77963
-1.681977
-1.685336
-1.688977
-1.692956
-1.697343
-1.702219
-1.707697
-1.713959
-1.721264
-1.730007
-1.7413
-1.75603
-1.775671
-1.678316
-1.681409
-1.684738
-1.688345
-1.692283
-1.696608
-1.701397
-1.706776
-1.712913
-1.720051
-1.728905
-1.739812
-1.753844
-1.771441
-1.675028
-1.677903
-1.680979
-1.684288
-1.687872
-1.69177
-1.696038
-1.700768
-1.706073
-1.712114
-1.719398
-1.728033
-1.738639
-1.752093
-1.768175
-1.672074
-1.674769
-1.677637
-1.680706
-1.684006
-1.687569
-1.691435
-1.695672
-1.700363
-1.70562
-1.711828
-1.718991
-1.727491
-1.737881
-1.750932
-1.66941
-1.671954
-1.67465
-1.677521
-1.680591
-1.683885
-1.687432
-1.691286
-1.695509
-1.700184
-1.705616
-1.711759
-1.718866
-1.727285
-1.737548
-1.762852
-1.750633
-1.765827
-1.739733
-1.753122
-1.769758
-1.730886
-1.741762
-1.755836
-1.774099
-1.723184
-1.732169
-1.743361
-1.757959
-1.777487
-1.716329
-1.723913
-1.733052
-1.744461
-1.759413
-1.779704
-1.710186
-1.716711
-1.724376
-1.733622
-1.745183
-1.760327
-1.781025
-1.704643
-1.710347
-1.716915
-1.724636
-1.733959
-1.745596
-1.760828
-1.781817
-1.699594
-1.704647
-1.710372
-1.716967
-1.724725
-1.734073
-1.745727
-1.761032
-1.782223
-1.694946
-1.699471
-1.70453
-1.710262
-1.716868
-1.724619
-1.733945
-1.7456
-1.760935
-1.782223
-1.690613
-1.694701
-1.69922
-1.704271
-1.709995
-1.716573
-1.724274
-1.733556
-1.745163
-1.760446
-1.783155
-1.686517
-1.690236
-1.694307
-1.698806
-1.703833
-1.709511
-1.716017
-1.723642
-1.732827
-1.744305
-1.760168
-1.783184
-1.682596
-1.685998
-1.689691
-1.693731
-1.698192
-1.703158
-1.708748
-1.715156
-1.722653
-1.731664
-1.743401
-1.759093
-1.781948
-1.678852
-1.68198
-1.68535
-1.689005
-1.693
-1.697393
-1.702266
-1.70775
-1.714022
-1.721338
-1.730458
-1.741811
-1.75675
-1.776932
-1.67542
-1.678319
-1.681422
-1.684763
-1.688384
-1.692327
-1.696649
-1.701443
-1.706829
-1.712974
-1.720401
-1.729243
-1.740183
-1.75427
-1.771985
-1.672321
-1.67503
-1.677915
-1.681002
-1.684324
-1.687912
-1.691807
-1.696079
-1.700813
-1.706124
-1.712404
-1.71966
-1.728293
-1.738894
-1.752336
-1.669526
-1.672076
-1.67478
-1.677659
-1.680738
-1.684043
-1.687602
-1.691471
-1.695712
-1.700408
-1.705867
-1.712044
-1.719197
-1.727681
-1.738045
-1.666994
-1.669411
-1.671964
-1.67467
-1.677551
-1.680625
-1.683915
-1.687464
-1.691322
-1.695549
-1.7004
-1.705798
-1.711928
-1.719018
-1.72741
-1.760934
-1.74874
-1.762922
-1.737877
-1.750683
-1.765972
-1.729256
-1.739768
-1.753224
-1.77
-1.722111
-1.730909
-1.741836
-1.755999
-1.774468
-1.715705
-1.7232
-1.732223
-1.743475
-1.758186
-1.777897
-1.709855
-1.716339
-1.723953
-1.733135
-1.744615
-1.759646
-1.78008
-1.704503
-1.710193
-1.716742
-1.72444
-1.733735
-1.745339
-1.760529
-1.781421
-1.699594
-1.704647
-1.710372
-1.716967
-1.724725
-1.734073
-1.745727
-1.761032
-1.782223
-1.695063
-1.699598
-1.704668
-1.710416
-1.71704
-1.724814
-1.734168
-1.745858
-1.761237
-1.782633
-1.690842
-1.694949
-1.69949
-1.704567
-1.710324
-1.716942
-1.724694
-1.734041
-1.745732
-1.761139
-1.784207
-1.68687
-1.690615
-1.694718
-1.699254
-1.704326
-1.710059
-1.716635
-1.72435
-1.733653
-1.745295
-1.76144
-1.785227
-1.683083
-1.686519
-1.690251
-1.694338
-1.698855
-1.70389
-1.709565
-1.716081
-1.72372
-1.732926
-1.744956
-1.76118
-1.785609
-1.679432
-1.682598
-1.686012
-1.689719
-1.693775
-1.698243
-1.703206
-1.708803
-1.715221
-1.722731
-1.732147
-1.744057
-1.760269
-1.784932
-1.675924
-1.678854
-1.681993
-1.685376
-1.689045
-1.693045
-1.697435
-1.702313
-1.707804
-1.714084
-1.721702
-1.730841
-1.742295
-1.757406
-1.777987
-1.672692
-1.675422
-1.678331
-1.681445
-1.684799
-1.688425
-1.692364
-1.696689
-1.701488
-1.706881
-1.713268
-1.720671
-1.729523
-1.740471
-1.754562
-1.66976
-1.672323
-1.675041
-1.677936
-1.681035
-1.68436
-1.687945
-1.691843
-1.696119
-1.700858
-1.706373
-1.712619
-1.719867
-1.728486
-1.739061
-1.667105
-1.669528
-1.672086
-1.6748
-1.677689
-1.680772
-1.684073
-1.687635
-1.691507
-1.695751
-1.700624
-1.706049
-1.712212
-1.719347
-1.727804
-1.664691
-1.666995
-1.66942
-1.671982
-1.674698
-1.677582
-1.680652
-1.683945
-1.687497
-1.691357
-1.69574
-1.700555
-1.70594
-1.712051
-1.719115
-1.759988
-1.74748
-1.761
-1.736438
-1.748788
-1.763055
-1.727745
-1.737911
-1.750779
-1.766184
-1.720734
-1.729281
-1.739839
-1.753375
-1.770315
-1.714773
-1.722128
-1.730963
-1.741947
-1.756215
-1.774837
-1.709302
-1.715716
-1.72324
-1.732306
-1.743627
-1.758413
-1.77825
-1.704205
-1.709862
-1.716371
-1.724018
-1.733249
-1.74477
-1.759844
-1.780461
-1.699468
-1.704508
-1.710218
-1.716794
-1.724529
-1.73385
-1.745469
-1.760731
-1.78182
-1.695063
-1.699598
-1.704668
-1.710416
-1.71704
-1.724814
-1.734168
-1.745858
-1.761237
-1.782633
-1.69095
-1.695065
-1.699616
-1.704706
-1.710478
-1.717114
-1.724889
-1.734264
-1.74599
-1.761444
-1.784648
-1.687083
-1.690844
-1.694965
-1.699523
-1.704621
-1.710387
-1.717003
-1.724769
-1.734137
-1.745865
-1.762144
-1.786293
-1.683412
-1.686871
-1.69063
-1.694748
-1.699302
-1.704381
-1.710112
-1.716697
-1.724426
-1.733751
-1.745946
-1.762429
-1.787578
-1.679889
-1.683084
-1.686532
-1.690279
-1.694382
-1.698905
-1.703937
-1.70962
-1.716145
-1.723799
-1.733411
-1.745613
-1.76235
-1.78849
-1.67647
-1.679433
-1.682611
-1.686038
-1.689759
-1.693821
-1.698285
-1.703254
-1.708859
-1.715286
-1.723118
-1.732635
-1.744839
-1.761726
-1.789011
-1.673168
-1.675926
-1.678866
-1.682016
-1.685412
-1.689086
-1.693082
-1.697476
-1.702359
-1.707857
-1.714387
-1.722004
-1.731198
-1.742722
-1.757914
-1.670111
-1.672693
-1.675433
-1.678352
-1.681478
-1.684836
-1.688458
-1.6924
-1.69673
-1.701534
-1.707133
-1.713489
-1.720891
-1.729734
-1.740658
-1.667327
-1.669762
-1.672333
-1.675061
-1.677966
-1.681068
-1.68439
-1.687977
-1.691879
-1.696159
-1.701075
-1.706554
-1.712788
-1.720017
-1.728608
-1.664797
-1.667106
-1.669537
-1.672105
-1.674828
-1.67772
-1.6808
-1.684102
-1.687667
-1.691542
-1.695943
-1.700779
-1.706189
-1.712334
-1.719442
-1.66249
-1.664692
-1.667004
-1.669438
-1.672008
-1.674727
-1.677607
-1.68068
-1.683974
-1.687529
-1.691528
-1.695874
-1.700674
-1.70604
-1.712127
-1.746856
-1.760052
-1.73548
-1.747527
-1.761126
-1.726574
-1.736472
-1.74888
-1.763248
-1.719458
-1.72777
-1.73798
-1.750921
-1.766462
-1.713581
-1.720752
-1.729335
-1.739946
-1.753575
-1.770632
-1.708479
-1.714786
-1.72217
-1.731047
-1.742097
-1.756432
-1.775155
-1.703709
-1.70931
-1.715749
-1.723306
-1.73242
-1.743781
-1.758605
-1.778607
-1.699197
-1.704211
-1.709888
-1.716424
-1.724108
-1.733364
-1.7449
-1.760043
-1.780846
-1.694946
-1.699471
-1.70453
-1.710262
-1.716868
-1.724619
-1.733945
-1.7456
-1.760935
-1.782223
-1.69095
-1.695065
-1.699616
-1.704706
-1.710478
-1.717114
-1.724889
-1.734264
-1.74599
-1.761444
-1.784648
-1.687183
-1.690951
-1.695081
-1.699649
-1.70476
-1.71054
-1.717175
-1.724963
-1.73436
-1.746123
-1.762454
-1.786744
-1.683612
-1.687084
-1.690858
-1.694994
-1.69957
-1.704676
-1.710439
-1.717065
-1.724845
-1.734234
-1.746515
-1.763118
-1.788592
-1.680198
-1.683413
-1.686884
-1.690657
-1.694791
-1.699351
-1.704427
-1.710165
-1.71676
-1.724503
-1.734229
-1.746572
-1.763525
-1.790232
-1.676901
-1.67989
-1.683096
-1.686557
-1.690318
-1.694427
-1.698947
-1.703984
-1.709674
-1.71621
-1.724183
-1.73389
-1.746373
-1.763694
-1.791901
-1.673684
-1.676471
-1.679445
-1.682634
-1.686074
-1.6898
-1.693858
-1.698327
-1.703302
-1.708915
-1.715607
-1.723503
-1.733216
-1.745804
-1.763639
-1.796401
-1.670563
-1.67317
-1.675937
-1.678887
-1.68205
-1.685449
-1.689119
-1.693119
-1.697517
-1.702406
-1.708116
-1.714634
-1.722284
-1.731508
-1.743034
-1.667661
-1.670112
-1.672703
-1.675452
-1.678382
-1.681512
-1.684866
-1.688491
-1.692436
-1.69677
-1.701753
-1.707317
-1.713666
-1.721053
-1.729865
-1.665009
-1.667329
-1.669771
-1.672352
-1.675089
-1.677998
-1.681096
-1.68442
-1.68801
-1.691914
-1.696351
-1.701229
-1.706694
-1.712908
-1.720109
-1.662591
-1.664798
-1.667115
-1.669554
-1.672131
-1.674857
-1.677745
-1.680827
-1.684132
-1.687699
-1.691714
-1.696076
-1.700896
-1.706288
-1.712407
-1.660379
-1.662491
-1.664701
-1.66702
-1.669462
-1.672035
-1.67475
-1.677633
-1.680707
-1.684003
-1.687684
-1.691645
-1.695975
-1.700757
-1.706099
-1.735006
-1.746902
-1.760174
-1.725795
-1.735514
-1.747616
-1.761309
-1.71847
-1.726599
-1.736539
-1.749015
-1.763502
-1.712478
-1.719478
-1.727823
-1.738083
-1.751107
-1.766741
-1.707429
-1.713595
-1.720795
-1.729416
-1.740088
-1.753775
-1.770902
-1.702973
-1.708488
-1.71482
-1.722237
-1.73116
-1.742247
-1.756616
-1.775476
-1.698747
-1.703716
-1.709337
-1.715803
-1.723397
-1.732535
-1.74391
-1.7588
-1.778969
-1.694698
-1.699201
-1.704233
-1.709932
-1.716498
-1.724198
-1.733459
-1.745031
-1.760244
-1.781235
-1.690842
-1.694949
-1.69949
-1.704567
-1.710324
-1.716942
-1.724694
-1.734041
-1.745732
-1.761139
-1.784207
-1.687183
-1.690951
-1.695081
-1.699649
-1.70476
-1.71054
-1.717175
-1.724963
-1.73436
-1.746123
-1.762454
-1.786744
-1.683705
-1.687184
-1.690965
-1.69511
-1.699696
-1.704814
-1.710592
-1.717236
-1.725038
-1.734456
-1.746772
-1.763422
-1.789021
-1.680386
-1.683612
-1.687097
-1.690885
-1.695037
-1.699619
-1.704721
-1.710492
-1.717127
-1.724921
-1.734708
-1.74712
-1.764166
-1.791117
-1.677193
-1.680199
-1.683425
-1.686909
-1.690696
-1.694835
-1.699391
-1.704473
-1.710218
-1.716824
-1.72488
-1.734678
-1.747269
-1.764724
-1.793204
-1.674092
-1.676901
-1.679901
-1.683119
-1.686594
-1.690359
-1.694464
-1.698988
-1.704032
-1.70973
-1.716528
-1.724558
-1.734448
-1.747247
-1.765225
-1.796732
-1.671053
-1.673685
-1.676482
-1.679467
-1.682668
-1.686112
-1.689834
-1.693896
-1.69837
-1.703351
-1.709188
-1.715923
-1.723963
-1.733935
-1.747065
-1.766909
-1.800804
-1.668091
-1.670564
-1.67318
-1.675956
-1.678918
-1.682084
-1.685479
-1.689152
-1.693156
-1.697558
-1.702631
-1.708323
-1.714861
-1.722522
-1.731723
-1.665327
-1.667662
-1.670122
-1.672721
-1.675481
-1.678413
-1.68154
-1.684896
-1.688523
-1.692472
-1.696964
-1.70191
-1.707464
-1.713795
-1.721149
-1.662794
-1.66501
-1.667337
-1.669788
-1.672378
-1.675118
-1.678023
-1.681123
-1.68445
-1.688042
-1.692086
-1.696483
-1.701346
-1.706791
-1.712978
-1.660476
-1.662591
-1.664806
-1.667131
-1.669579
-1.672158
-1.67488
-1.677771
-1.680854
-1.684161
-1.687854
-1.691829
-1.696176
-1.700977
-1.706345
-1.658351
-1.66038
-1.662498
-1.664716
-1.667043
-1.669487
-1.672057
-1.674774
-1.677658
-1.680733
-1.684144
-1.687786
-1.691732
-1.696044
-1.700803
-1.725409
-1.735039
-1.74699
-1.760353
-1.717813
-1.72582
-1.73558
-1.747747
-1.761549
-1.711624
-1.71849
-1.726651
-1.736639
-1.749193
-1.763757
-1.706457
-1.712493
-1.71952
-1.727903
-1.73822
-1.751295
-1.766977
-1.702034
-1.70744
-1.71363
-1.72086
-1.729526
-1.740231
-1.753944
-1.771173
-1.69808
-1.70298
-1.708517
-1.714875
-1.722328
-1.731275
-1.742374
-1.756802
-1.775802
-1.694286
-1.698752
-1.703739
-1.709383
-1.715878
-1.723489
-1.732632
-1.74404
-1.758996
-1.779336
-1.690613
-1.694701
-1.69922
-1.704271
-1.709995
-1.716573
-1.724274
-1.733556
-1.745163
-1.760446
-1.783155
-1.687083
-1.690844
-1.694965
-1.699523
-1.704621
-1.710387
-1.717003
-1.724769
-1.734137
-1.745865
-1.762144
-1.786293
-1.683705
-1.687184
-1.690965
-1.69511
-1.699696
-1.704814
-1.710592
-1.717236
-1.725038
-1.734456
-1.746772
-1.763422
-1.789021
-1.680474
-1.683706
-1.687196
-1.690992
-1.695152
-1.699744
-1.704859
-1.710644
-1.717298
-1.725114
-1.734928
-1.747368
-1.764451
-1.791496
-1.67737
-1.680386
-1.683624
-1.687121
-1.690923
-1.695081
-1.699659
-1.704767
-1.710544
-1.717189
-1.725291
-1.735136
-1.747776
-1.765286
-1.793882
-1.674368
-1.677193
-1.68021
-1.683447
-1.686944
-1.690736
-1.694871
-1.699432
-1.70452
-1.710272
-1.717133
-1.725227
-1.735182
-1.748035
-1.766021
-1.797232
-1.671439
-1.674092
-1.676912
-1.679922
-1.683153
-1.686631
-1.690393
-1.694501
-1.69903
-1.70408
-1.71
-1.716833
-1.724996
-1.735091
-1.74824
-1.767291
-1.800512
-1.668557
-1.671053
-1.673695
-1.676502
-1.679498
-1.682702
-1.686143
-1.689869
-1.693935
-1.698413
-1.703589
-1.709454
-1.716301
-1.724533
-1.734874
-1.749179
-1.768885
-1.804212
-1.665737
-1.668092
-1.670573
-1.673198
-1.675985
-1.67895
-1.682112
-1.68551
-1.689186
-1.693192
-1.697757
-1.702806
-1.70851
-1.71505
-1.722679
-1.663098
-1.665328
-1.667671
-1.670139
-1.672748
-1.67551
-1.678439
-1.681567
-1.684926
-1.688556
-1.692645
-1.697098
-1.702032
-1.707567
-1.713865
-1.66067
-1.662794
-1.665018
-1.667353
-1.669813
-1.672405
-1.675142
-1.678048
-1.68115
-1.684479
-1.688197
-1.692201
-1.696582
-1.701425
-1.706844
-1.658444
-1.660477
-1.662599
-1.664821
-1.667154
-1.669604
-1.67218
-1.674904
-1.677796
-1.680881
-1.684302
-1.687956
-1.691915
-1.696243
-1.701021
-1.656398
-1.658352
-1.660387
-1.662512
-1.664737
-1.667067
-1.669508
-1.672079
-1.674797
-1.677682
-1.680862
-1.684235
-1.687861
-1.691788
-1.696079
-1.717487
-1.725434
-1.735105
-1.74712
-1.760587
-1.711055
-1.717832
-1.725872
-1.735678
-1.74792
-1.76179
-1.705704
-1.711639
-1.718532
-1.72673
-1.736771
-1.749372
-1.763973
-1.701166
-1.706469
-1.712528
-1.719585
-1.728009
-1.738357
-1.751453
-1.767213
-1.697231
-1.702043
-1.707469
-1.713685
-1.720949
-1.729636
-1.740352
-1.754114
-1.771446
-1.693677
-1.698086
-1.703004
-1.708563
-1.71495
-1.72242
-1.731371
-1.742502
-1.756989
-1.776132
-1.690233
-1.69429
-1.698772
-1.703778
-1.709446
-1.715954
-1.723565
-1.732729
-1.744172
-1.759194
-1.781148
-1.68687
-1.690615
-1.694718
-1.699254
-1.704326
-1.710059
-1.716635
-1.72435
-1.733653
-1.745295
-1.76144
-1.785227
-1.683612
-1.687084
-1.690858
-1.694994
-1.69957
-1.704676
-1.710439
-1.717065
-1.724845
-1.734234
-1.746515
-1.763118
-1.788592
-1.680474
-1.683706
-1.687196
-1.690992
-1.695152
-1.699744
-1.704859
-1.710644
-1.717298
-1.725114
-1.734928
-1.747368
-1.764451
-1.791496
-1.677453
-1.680474
-1.683717
-1.68722
-1.69103
-1.695196
-1.699784
-1.704904
-1.710696
-1.71736
-1.725482
-1.735346
-1.748007
-1.765538
-1.794181
-1.674536
-1.67737
-1.680396
-1.683646
-1.687156
-1.690963
-1.695116
-1.699699
-1.704812
-1.710597
-1.717493
-1.725619
-1.735605
-1.74848
-1.766472
-1.797595
-1.671702
-1.674368
-1.677203
-1.68023
-1.68348
-1.686981
-1.690768
-1.694907
-1.699473
-1.704566
-1.710535
-1.717414
-1.725619
-1.735738
-1.748863
-1.767701
-1.800573
-1.668925
-1.671439
-1.674101
-1.676931
-1.679953
-1.683187
-1.686661
-1.690426
-1.694539
-1.699073
-1.704314
-1.710256
-1.717193
-1.725503
-1.735823
-1.749547
-1.768986
-1.803747
-1.666182
-1.668557
-1.671062
-1.673714
-1.676531
-1.67953
-1.682731
-1.686174
-1.689903
-1.693973
-1.698623
-1.703817
-1.709774
-1.716772
-1.72528
-1.736429
-1.750433
-1.770477
-1.806957
-1.663489
-1.665738
-1.6681
-1.67059
-1.673225
-1.676014
-1.678975
-1.682139
-1.68554
-1.689219
-1.69337
-1.697908
-1.702964
-1.708664
-1.715168
-1.660961
-1.663098
-1.665336
-1.667687
-1.670163
-1.672775
-1.675533
-1.678464
-1.681594
-1.684955
-1.688712
-1.692762
-1.697201
-1.702116
-1.707619
-1.65863
-1.660671
-1.662802
-1.665033
-1.667376
-1.669838
-1.672427
-1.675165
-1.678073
-1.681177
-1.68462
-1.688297
-1.692285
-1.696647
-1.701465
-1.656487
-1.658444
-1.660484
-1.662613
-1.664843
-1.667178
-1.669625
-1.672202
-1.674927
-1.67782
-1.68101
-1.684392
-1.688029
-1.69197
-1.696276
-1.654513
-1.656398
-1.658358
-1.660401
-1.662533
-1.66476
-1.667087
-1.669529
-1.672101
-1.67482
-1.677801
-1.680943
-1.684299
-1.687908
-1.691815
-1.710772
-1.717506
-1.725485
-1.735202
-1.747289
-1.760822
-1.705202
-1.71107
-1.717874
-1.725949
-1.735808
-1.748093
-1.761994
-1.700492
-1.705716
-1.711674
-1.718596
-1.726834
-1.736904
-1.749522
-1.764187
-1.696445
-1.701175
-1.706498
-1.712582
-1.719672
-1.728117
-1.738472
-1.751611
-1.767448
-1.692901
-1.697238
-1.702067
-1.707515
-1.713759
-1.721039
-1.729729
-1.740472
-1.754284
-1.771719
-1.689671
-1.693681
-1.698107
-1.703045
-1.708628
-1.715027
-1.722497
-1.731468
-1.742631
-1.757178
-1.777763
-1.686517
-1.690236
-1.694307
-1.698806
-1.703833
-1.709511
-1.716017
-1.723642
-1.732827
-1.744305
-1.760168
-1.783184
-1.683412
-1.686871
-1.69063
-1.694748
-1.699302
-1.704381
-1.710112
-1.716697
-1.724426
-1.733751
-1.745946
-1.762429
-1.787578
-1.680386
-1.683612
-1.687097
-1.690885
-1.695037
-1.699619
-1.704721
-1.710492
-1.717127
-1.724921
-1.734708
-1.74712
-1.764166
-1.791117
-1.677453
-1.680474
-1.683717
-1.68722
-1.69103
-1.695196
-1.699784
-1.704904
-1.710696
-1.71736
-1.725482
-1.735346
-1.748007
-1.765538
-1.794181
-1.674614
-1.677453
-1.680484
-1.683739
-1.687255
-1.691069
-1.695231
-1.699823
-1.704949
-1.710748
-1.717661
-1.725801
-1.7358
-1.748686
-1.766681
-1.797777
-1.671861
-1.674536
-1.677379
-1.680417
-1.683678
-1.687192
-1.690995
-1.695152
-1.699739
-1.704858
-1.710854
-1.717757
-1.725981
-1.736111
-1.749228
-1.767997
-1.800704
-1.669175
-1.671702
-1.674377
-1.677222
-1.68026
-1.683514
-1.687011
-1.690801
-1.694944
-1.699514
-1.704794
-1.71077
-1.717734
-1.726053
-1.736342
-1.749906
-1.769199
-1.803593
-1.666533
-1.668925
-1.671448
-1.67412
-1.67696
-1.679984
-1.683215
-1.686692
-1.69046
-1.694577
-1.69928
-1.704534
-1.71056
-1.71761
-1.726081
-1.736769
-1.750596
-1.7705
-1.806464
-1.663914
-1.666182
-1.668566
-1.67108
-1.673741
-1.676561
-1.679556
-1.68276
-1.686206
-1.689938
-1.694161
-1.698822
-1.704093
-1.710174
-1.717391
-1.726505
-1.737342
-1.751444
-1.771804
-1.809182
-1.661337
-1.66349
-1.665746
-1.668116
-1.670615
-1.673252
-1.676038
-1.679001
-1.682167
-1.68557
-1.689379
-1.693501
-1.698043
-1.703092
-1.708755
-1.65891
-1.660962
-1.663105
-1.665351
-1.66771
-1.670189
-1.672797
-1.675557
-1.678489
-1.681621
-1.685097
-1.688813
-1.69285
-1.697269
-1.702154
-1.656666
-1.658631
-1.660678
-1.662816
-1.665055
-1.6674
-1.669859
-1.672449
-1.675188
-1.678098
-1.681306
-1.684708
-1.68837
-1.692338
-1.696676
-1.654599
-1.656487
-1.658451
-1.660497
-1.662634
-1.664866
-1.667197
-1.669645
-1.672224
-1.67495
-1.677939
-1.681089
-1.684456
-1.688075
-1.691995
-1.652691
-1.654514
-1.656405
-1.658371
-1.66042
-1.662555
-1.664778
-1.667106
-1.669549
-1.672122
-1.67493
-1.677873
-1.681
-1.684339
-1.687928
-1.704953
-1.710788
-1.717548
-1.725562
-1.73533
-1.74746
-1.76102
-1.700043
-1.705215
-1.711105
-1.717937
-1.726051
-1.735938
-1.748239
-1.762196
-1.695836
-1.700502
-1.705745
-1.711727
-1.718681
-1.726939
-1.737016
-1.749672
-1.764401
-1.692183
-1.696453
-1.7012
-1.706544
-1.712655
-1.719759
-1.728207
-1.738587
-1.751768
-1.767684
-1.688957
-1.692906
-1.697259
-1.702108
-1.707579
-1.713834
-1.721114
-1.729822
-1.740593
-1.754454
-1.77306
-1.685995
-1.689675
-1.693699
-1.698142
-1.703101
-1.708694
-1.715091
-1.722574
-1.731566
-1.742761
-1.758109
-1.77963
-1.683083
-1.686519
-1.690251
-1.694338
-1.698855
-1.70389
-1.709565
-1.716081
-1.72372
-1.732926
-1.744956
-1.76118
-1.785609
-1.680198
-1.683413
-1.686884
-1.690657
-1.694791
-1.699351
-1.704427
-1.710165
-1.71676
-1.724503
-1.734229
-1.746572
-1.763525
-1.790232
-1.67737
-1.680386
-1.683624
-1.687121
-1.690923
-1.695081
-1.699659
-1.704767
-1.710544
-1.717189
-1.725291
-1.735136
-1.747776
-1.765286
-1.793882
-1.674614
-1.677453
-1.680484
-1.683739
-1.687255
-1.691069
-1.695231
-1.699823
-1.704949
-1.710748
-1.717661
-1.725801
-1.7358
-1.748686
-1.766681
-1.797777
-1.671936
-1.674614
-1.677462
-1.680504
-1.683771
-1.687291
-1.691101
-1.695266
-1.699863
-1.704994
-1.711003
-1.717917
-1.726149
-1.736285
-1.749402
-1.768147
-1.80079
-1.669327
-1.671861
-1.674544
-1.677398
-1.680447
-1.683711
-1.687221
-1.691027
-1.695188
-1.699779
-1.705081
-1.711074
-1.71805
-1.726374
-1.736652
-1.750161
-1.769388
-1.803573
-1.666771
-1.669174
-1.67171
-1.674395
-1.67725
-1.680292
-1.683541
-1.687041
-1.690834
-1.694981
-1.699715
-1.704995
-1.711039
-1.718089
-1.726526
-1.737084
-1.75081
-1.770619
-1.806223
-1.66425
-1.666532
-1.668933
-1.671465
-1.674146
-1.676989
-1.68001
-1.683243
-1.686723
-1.690495
-1.694762
-1.699472
-1.704796
-1.710913
-1.718087
-1.726817
-1.737513
-1.751536
-1.771812
-1.808714
-1.661743
-1.663914
-1.66619
-1.668582
-1.671105
-1.673769
-1.676585
-1.679583
-1.682788
-1.686237
-1.690107
-1.694336
-1.699064
-1.704439
-1.710701
-1.718398
-1.727219
-1.738079
-1.752284
-1.772905
-1.810962
-1.65927
-1.661337
-1.663497
-1.665761
-1.66814
-1.670641
-1.673274
-1.676062
-1.679026
-1.682195
-1.685715
-1.689494
-1.693617
-1.69815
-1.703162
-1.656935
-1.65891
-1.660969
-1.66312
-1.665373
-1.667734
-1.670209
-1.672819
-1.67558
-1.678514
-1.681751
-1.685187
-1.688889
-1.692905
-1.697296
-1.654771
-1.656666
-1.658637