/*--------------------------------*- C++ -*----------------------------------*\
| =========                 |                                                 |
| \\      /  F ield         | OpenFOAM: The Open Source CFD Toolbox           |
|  \\    /   O peration     | Version:  2306                                  |
|   \\  /    A nd           | Website:  www.openfoam.com                      |
|    \\/     M anipulation  |                                                 |
\*---------------------------------------------------------------------------*/
FoamFile
{
    version     2.0;
    format      ascii;
    arch        "LSB;label=32;scalar=64";
    class       volScalarField;
    location    "1.2/fuel";
    object      p;
}
// * * * * * * * * * * * * * * * * * * * * * * * * * * * * * * * * * * * * * //

dimensions      [1 -1 -2 0 0 0 0];

internalField   nonuniform List<scalar> 
16000
(
100566.9
100560
100474.2
100548.4
100547.6
100467.2
100541.2
100400.5
100458.8
100508
100525.7
100454.2
100528.2
100394.1
100451.6
100500.2
100344.7
100387.6
100425.1
100461.2
100505.2
100432
100505.4
100382.3
100438.3
100486
100339.1
100381.1
100417.6
100452.7
100302.4
100333.7
100359.4
100386.1
100363.8
100463.9
100409.4
100483.8
100362.4
100415.6
100461.3
100328.6
100369.1
100403.5
100437
100297.3
100328
100352.6
100378.1
100353.8
100269
100292.8
100309.5
100326.6
100304.7
100345.1
100456.8
100369.4
100441.2
100341.7
100392.4
100437.1
100311
100348.8
100379.7
100410.1
100288
100317.3
100340.1
100363.2
100335.1
100264.4
100287.7
100303.6
100319.6
100295.8
100334.9
100242
100260.5
100271.7
100281.4
100258.3
100289.1
100339.2
100451
100358.4
100433.1
100306.5
100351.6
100391.6
100292.5
100327.7
100355.2
100383
100272.3
100299.5
100319.1
100338.1
100303.6
100256
100278.2
100292.6
100306.5
100279.2
100315.6
100237.9
100255.9
100266.5
100275.3
100250.7
100280.1
100328.9
100219.7
100234.4
100241.9
100247.2
100223
100245.3
100284.2
100329.2
100450.4
100350.3
100426.7
100295.9
100340.2
100381.5
100261.8
100292.1
100312.9
100334.2
100255.8
100280.7
100297.1
100312
100270.5
100242
100262.4
100274.2
100284.6
100251.5
100283.3
100230.2
100247.4
100256.7
100263.9
100236.4
100263.1
100309.4
100215.9
100230.3
100237.2
100241.8
100216.4
100237.5
100275.1
100318.7
100200.9
100212.9
100217.8
100220.2
100196.2
100211.8
100241.1
100275.8
100320.9
100450.2
100347.8
100425.8
100288.1
100331.8
100373.8
100252.1
100281.1
100300.5
100321.7
100228.8
100249.7
100260.4
100268
100214.8
100227.1
100245.6
100254.8
100261.6
100222.1
100249
100217.6
100233.2
100240.4
100244.9
100212.8
100235
100276.8
100209
100222.6
100228.4
100231.7
100204
100223
100258
100299
100197.5
100209.1
100213.6
100215.4
100190.5
100205.1
100233.4
100266.7
100310.2
100184.8
100194.7
100197.9
100198.5
100175.1
100186.5
100208.2
100234.1
100268.9
100310.5
100450.2
100346.6
100425.3
100285.4
100329.1
100372.1
100245
100273.2
100291.4
100312.5
100220
100239.8
100248.9
100254.4
100197.3
100203
100218.3
100223
100223.8
100174.4
100192
100204.1
100218.2
100223.2
100224.7
100187.5
100204.9
100242.1
100197.4
100209.8
100213.9
100215
100183.7
100199.1
100229.7
100265.8
100191.1
100202
100205.6
100206.4
100179.6
100192.6
100218.7
100249.4
100290.2
100181.7
100191.3
100194
100194.1
100170
100180.6
100201.5
100226.3
100259.6
100299.7
100170.9
100179.2
100181.1
100180.4
100158.1
100166.5
100183.4
100202.2
100228.3
100260.2
100284.1
100450.4
100346.6
100425.3
100284.1
100327.9
100371.4
100242.5
100270.4
100288.5
100310
100213.6
100232.6
100240.6
100244.6
100185
100195
100209.4
100212.7
100211.5
100158.5
100173.5
100182.4
100193.8
100195.4
100192.1
100147.4
100156.6
100184.7
100185.1
100196.1
100198.5
100197.2
100162
100173.4
100199.4
100230.6
100180.5
100190.4
100192.6
100191.5
100161.9
100172
100194.7
100220.8
100256.7
100175.8
100184.8
100186.8
100186
100160.4
100169.7
100188.9
100211.6
100242.2
100279.4
100168
100176
100177.6
100176.5
100153.5
100161.3
100177.5
100195.5
100220.4
100250.8
100272.9
100158.8
100165.8
100166.7
100165.2
100144
100150.4
100163.7
100178.1
100197.2
100221
100238.2
100290.3
100451
100347.8
100425.8
100284.1
100327.9
100371.4
100241.3
100269.1
100287.1
100308.9
100211.2
100230
100237.6
100241.3
100180.7
100189.2
100202.9
100205.3
100202.7
100147.3
100160.6
100175.1
100185.7
100186.1
100181.3
100133.6
100140.1
100165.9
100165.5
100174.3
100173.7
100168.7
100127.7
100132.8
100150.9
100172.3
100169.2
100178
100178.6
100175.6
100142.9
100150
100168.9
100190.2
100220.9
100166
100174.1
100174.9
100172.6
100144.7
100151.8
100168.3
100187.3
100213.4
100245.3
100162.5
100170
100171
100169.1
100144.9
100151.6
100166.5
100182.8
100205.6
100233.2
100251.8
100156
100162.8
100163.5
100161.6
100139.9
100145.7
100158.5
100172.2
100190.4
100213.1
100228.7
100279.2
100148
100154
100154.3
100152.2
100132.1
100137
100147.9
100159.1
100173.8
100191
100202.6
100243.4
100280.2
100456.8
100350.3
100426.7
100285.4
100329.1
100372.1
100241.3
100269.1
100287.1
100308.9
100210.2
100228.8
100236.3
100239.8
100178.8
100187.1
100200.5
100202.6
100199.6
100143.1
100156
100169.9
100179.9
100179.5
100173.6
100124
100128.7
100152.8
100158.8
100166.9
100165.4
100159.1
100115.8
100118.7
100134.3
100153
100151.3
100158.2
100156.4
100150.4
100113.1
100115.4
100128.1
100141.2
100161.9
100155.6
100162.8
100162.2
100158.3
100127.9
100132.5
100146.1
100161.3
100182.4
100208.8
100153.5
100160.2
100160.1
100156.9
100130.9
100135.8
100148.5
100162
100181.2
100204.1
100216.5
100150.9
100157.3
100157.4
100154.9
100132.1
100137.1
100148.8
100161.2
100177.7
100198.1
100210.6
100258.1
100145.5
100151.2
100151.3
100148.9
100128.4
100132.8
100143.3
100153.9
100167.8
100184.2
100194.5
100233.8
100268.8
100138.4
100143.6
100143.4
100141
100121.9
100125.8
100134.8
100143.8
100155.2
100168.3
100175.2
100206.9
100234.9
100278
100463.9
100358.4
100433.1
100288.1
100331.8
100373.8
100242.5
100270.4
100288.5
100310
100210.2
100228.8
100236.3
100239.8
100178.8
100186.1
100199.4
100201.3
100198.1
100141.3
100154
100167.9
100177.7
100177
100170.7
100120.4
100124.4
100148.1
100154
100161.7
100159.5
100152.3
100107.5
100108.9
100122.7
100139.6
100145.2
100151.5
100148.9
100141.8
100102.7
100103.3
100114
100124.3
100142.2
100139.2
100144.7
100142.2
100135.7
100101.6
100102.5
100111.4
100120.2
100133
100148.8
100143.9
100149.7
100148.5
100144
100115.8
100118.7
100129.2
100139.7
100154.9
100172.8
100178.4
100142.6
100148.2
100147.4
100143.8
100119.4
100122.9
100132.9
100143.1
100156.8
100173.5
100180.8
100222.6
100140.7
100146.1
100145.7
100142.7
100121.3
100125
100134.6
100144.1
100156.7
100171.3
100179.2
100215.8
100247.3
100136
100141
100140.6
100137.9
100118.5
100122
100130.6
100139.1
100150
100162.4
100168.3
100198.8
100225.3
100266.6
100129.8
100134.3
100133.8
100131.1
100113.1
100116.1
100123.8
100131.1
100140.3
100150.4
100154.6
100178.9
100199.9
100233.2
100275.7
100505.2
100369.4
100441.2
100295.9
100340.2
100381.5
100245
100273.2
100291.4
100312.5
100211.2
100230
100237.6
100241.3
100180.7
100186.1
100199.4
100201.3
100198.1
100141.3
100154
100167
100176.7
100175.9
100169.4
100118.7
100122.5
100146
100152.2
100159.7
100157.2
100149.7
100104.4
100105.2
100118.4
100134.8
100140.8
100146.7
100143.5
100135.7
100095.5
100094.9
100104.1
100112.7
100128.6
100133.5
100138.5
100135.3
100127.9
100092.4
100092
100099.3
100105.9
100116
100128.7
100128.7
100133.2
100130.2
100123.6
100092.4
100092.3
100099.1
100104.8
100113.6
100122.8
100116.7
100133.6
100138.5
100136.8
100131.9
100105.8
100107.7
100115.8
100123.6
100134.3
100147
100148.6
100184.4
100132.9
100137.7
100136.5
100132.6
100109.7
100112.2
100120.4
100128.1
100138.5
100150.3
100154.1
100185.7
100210.3
100131.6
100136.2
100135.4
100132.2
100112
100114.8
100122.7
100130.4
100140.2
100151.2
100155.2
100183.6
100206.9
100244.9
100127.6
100131.9
100131.2
100128.3
100109.9
100112.7
100120
100126.9
100135.6
100145.2
100148.5
100172
100191.7
100223.4
100264.2
100122
100125.9
100125.1
100122.3
100105.3
100107.8
100114.3
100120.4
100128
100136
100138.3
100157.8
100172.9
100198.4
100231.3
100525.7
100409.4
100483.8
100306.5
100351.6
100391.6
100252.1
100281.1
100300.5
100321.7
100213.6
100232.6
100240.6
100244.6
100185
100187.1
100200.5
100202.6
100199.6
100143.1
100156
100167
100176.7
100175.9
100169.4
100118.7
100122.5
100146
100151.4
100158.7
100156.2
100148.5
100103
100103.6
100116.4
100132.6
100139.1
100144.8
100141.5
100133.4
100092.8
100091.7
100100.4
100108.3
100123.6
100129.5
100134.1
100130.4
100122.5
100086.1
100084.7
100090.9
100096
100104.2
100114.7
100123.5
100127.5
100123.9
100116.5
100084.2
100083
100088.5
100092.6
100099.2
100105.6
100095.2
100119.6
100123.3
100120
100113.4
100084.7
100084.1
100089.3
100093.3
100099.2
100105.2
100097.8
100118.5
100124.6
100128.7
100126.6
100121.7
100097.4
100098.5
100105.1
100110.9
100119
100127.6
100127.1
100153.3
100170.5
100124.3
100128.4
100126.9
100122.8
100101.4
100103.2
100109.9
100116.1
100124.1
100132.9
100133.8
100158.2
100175.7
100206.6
100123.4
100127.4
100126.3
100122.9
100104
100106.1
100112.8
100119
100126.8
100135.3
100137.1
100158.9
100176.2
100204.9
100242.3
100119.9
100123.7
100122.7
100119.7
100102.4
100104.6
100110.8
100116.5
100123.7
100131.3
100132.9
100151.8
100165.9
100190.1
100221.4
100114.9
100118.4
100117.4
100114.5
100098.4
100100.4
100106.1
100111.2
100117.5
100124.1
100125.2
100141.1
100152.5
100171.6
100196.8
100547.6
100432
100505.4
100341.7
100392.4
100437.1
100261.8
100292.1
100312.9
100334.2
100220
100239.8
100248.9
100254.4
100197.3
100189.2
100202.9
100205.3
100202.7
100147.3
100160.6
100167.9
100177.7
100177
100170.7
100120.4
100124.4
100148.1
100151.4
100158.7
100156.2
100148.5
100103
100103.6
100116.4
100132.6
100138.3
100144
100140.6
100132.3
100091.5
100090.3
100098.7
100106.3
100121.4
100127.9
100132.4
100128.6
100120.4
100083.6
100081.9
100087.7
100092.2
100099.8
100109.6
100119.8
100123.4
100119.5
100111.6
100078.5
100076.6
100081.2
100084.1
100089.2
100093.7
100080.4
100114.7
100118
100114.2
100107
100077.3
100075.8
100080
100082.7
100086.9
100090.7
100079.9
100098.5
100111.5
100114.6
100111.2
100104.7
100078.2
100077.3
100081.5
100084.3
100088.5
100092.1
100084.8
100099
100092.5
100116.5
100120
100117.7
100112.8
100090.1
100090.7
100096.1
100100.7
100106.8
100113.2
100110.7
100130.9
100142.2
100165.8
100116.6
100120.1
100118.4
100114.3
100094.2
100095.5
100101.2
100106.1
100112.5
100119.1
100118.6
100137.3
100150
100172.7
100202.4
100116
100119.5
100118.2
100114.7
100096.9
100098.5
100104.3
100109.4
100115.8
100122.5
100122.9
100140.4
100152.6
100174.5
100202.7
100112.9
100116.3
100115.1
100112.1
100095.7
100097.4
100102.9
100107.7
100113.7
100119.8
100120.4
100135.8
100146.4
100164.6
100188.5
100108.4
100111.5
100110.4
100107.5
100092.3
100093.9
100098.8
100103.2
100108.6
100114
100114.3
100127.7
100136.5
100151.4
100170.2
100560
100454.2
100528.2
100362.4
100415.6
100461.3
100292.5
100327.7
100355.2
100383
100228.8
100249.7
100260.4
100268
100214.8
100195
100209.4
100212.7
100211.5
100158.5
100173.5
100169.9
100179.9
100179.5
100173.6
100124
100128.7
100152.8
100152.2
100159.7
100157.2
100149.7
100104.4
100105.2
100118.4
100134.8
100138.3
100144
100140.6
100132.3
100091.5
100090.3
100098.7
100106.3
100121.4
100127.2
100131.7
100127.7
100119.4
100082.5
100080.6
100086.2
100090.5
100097.8
100107.3
100118.3
100121.9
100117.8
100109.6
100076.3
100074.1
100078.4
100080.8
100085.4
100089.2
100074.7
100111.3
100114.2
100110.1
100102.4
100072.2
100070.1
100073.5
100075.4
100078.4
100080.7
100067.5
100084.7
100107
100109.7
100105.8
100098.8
100071.5
100069.8
100073.2
100074.9
100077.9
100079.8
100069.8
100082.3
100075.2
100104.3
100106.9
100103.4
100097.1
100072.6
100071.5
100074.9
100077
100080
100082.4
100074.9
100085.8
100078.4
100074.7
100109.2
100112.2
100109.8
100104.9
100083.8
100084.1
100088.6
100092.2
100097.1
100101.7
100098.6
100114
100121.8
100138.4
100160.3
100109.6
100112.6
100110.8
100106.7
100087.9
100088.8
100093.6
100097.7
100102.9
100108.1
100106.5
100121.6
100130.3
100147.5
100169.4
100109.2
100112.3
100110.9
100107.4
100090.6
100091.9
100096.8
100101.1
100106.5
100111.8
100111.4
100125.7
100134.9
100151.2
100172.7
100106.5
100109.5
100108.3
100105.2
100089.7
100091.1
100095.9
100100
100105.1
100110.2
100110
100123
100131.1
100145.3
100163.1
100102.4
100105.2
100104
100101.1
100086.7
100088
100092.4
100096.2
100100.8
100105.4
100105.1
100116.6
100123.6
100135.5
100150.2
100566.9
100467.2
100541.2
100382.3
100438.3
100486
100311
100348.8
100379.7
100410.1
100255.8
100280.7
100297.1
100312
100270.5
100203
100218.3
100223
100223.8
100174.4
100192
100175.1
100185.7
100186.1
100181.3
100133.6
100140.1
100165.9
100154
100161.7
100159.5
100152.3
100107.5
100108.9
100122.7
100139.6
100139.1
100144.8
100141.5
100133.4
100092.8
100091.7
100100.4
100108.3
100123.6
100127.2
100131.7
100127.7
100119.4
100082.5
100080.6
100086.2
100090.5
100097.8
100107.3
100117.6
100121.2
100117
100108.8
100075.3
100073
100077.1
100079.4
100083.7
100087.2
100072.2
100109.9
100112.8
100108.5
100100.7
100070.2
100067.8
100071
100072.5
100075.1
100076.9
100062.8
100079.7
100103.7
100106.2
100102
100094.6
100066.8
100064.6
100067.4
100068.4
100070.5
100071.2
100059.6
100070.8
100063.4
100100.1
100102.3
100098.5
100091.7
100066.5
100064.7
100067.4
100068.6
100070.6
100071.7
100062.3
100071.8
100064.2
100060.9
100097.9
100100
100096.6
100090.5
100067.8
100066.5
100069.4
100070.9
100073.2
100074.7
100067.6
100075.8
100068.9
100064.2
100029.2
100102.7
100105.3
100102.8
100098
100078.2
100078.3
100082.1
100085.1
100089
100092.5
100088.9
100101.4
100106.3
100118.7
100134
100103.2
100105.9
100103.9
100099.9
100082.3
100082.8
100087
100090.4
100094.7
100098.9
100096.8
100109.2
100115.5
100128.2
100144.7
100103
100105.8
100104.3
100100.9
100084.9
100086
100090.3
100093.9
100098.5
100102.9
100101.9
100114
100120.9
100133.7
100149.7
100100.7
100103.3
100102
100098.9
100084.3
100085.5
100089.7
100093.2
100097.6
100101.8
100101.2
100112.3
100118.7
100130.1
100144.1
100096.9
100099.4
100098.2
100095.3
100081.6
100082.7
100086.7
100090
100094
100097.9
100097.2
100107.2
100112.8
100122.7
100134.4
100474.2
100548.4
100394.1
100451.6
100500.2
100328.6
100369.1
100403.5
100437
100272.3
100299.5
100319.1
100338.1
100303.6
100227.1
100245.6
100254.8
100261.6
100222.1
100249
100182.4
100193.8
100195.4
100192.1
100147.4
100156.6
100184.7
100158.8
100166.9
100165.4
100159.1
100115.8
100118.7
100134.3
100153
100140.8
100146.7
100143.5
100135.7
100095.5
100094.9
100104.1
100112.7
100128.6
100127.9
100132.4
100128.6
100120.4
100083.6
100081.9
100087.7
100092.2
100099.8
100109.6
100117.6
100121.2
100117
100108.8
100075.3
100073
100077.1
100079.4
100083.7
100087.2
100072.2
100109.3
100112.1
100107.8
100099.9
100069.3
100066.8
100069.9
100071.2
100073.7
100075.1
100060.7
100077.5
100102.5
100104.8
100100.6
100093
100065
100062.6
100065.2
100065.9
100067.6
100068
100055.6
100066.5
100059.4
100097.1
100099.1
100095
100087.8
100062.2
100060
100062.2
100062.9
100064.1
100064.3
100053.6
100062.2
100054.5
100051.7
100093.9
100095.7
100092
100085.4
100062.1
100060.3
100062.6
100063.4
100064.9
100065.3
100056.7
100063.9
100057
100052.9
100028.4
100092
100093.8
100090.5
100084.6
100063.4
100062.2
100064.6
100065.7
100067.5
100068.5
100061.7
100068.3
100061.6
100057.2
100028.2
100028.3
100096.7
100099
100096.5
100091.8
100073.3
100073.1
100076.5
100078.9
100082.1
100084.9
100081.1
100091.4
100094.8
100103.7
100115
100097.4
100099.7
100097.8
100093.8
100077.2
100077.6
100081.2
100084.1
100087.7
100091.1
100088.8
100099.2
100103.8
100113.7
100125.8
100097.4
100099.8
100098.2
100094.9
100079.9
100080.6
100084.5
100087.6
100091.5
100095.2
100093.9
100104.2
100109.7
100119.8
100132.3
100095.2
100097.7
100096.3
100093.3
100079.4
100080.3
100084.1
100087.2
100091
100094.6
100093.7
100103.3
100108.5
100117.9
100129
100091.8
100094.1
100092.8
100090
100077
100077.9
100081.5
100084.4
100087.9
100091.3
100090.4
100099.1
100103.8
100112
100121.7
100400.5
100458.8
100508
100339.1
100381.1
100417.6
100452.7
100288
100317.3
100340.1
100363.2
100335.1
100242
100262.4
100274.2
100284.6
100251.5
100283.3
100204.1
100218.2
100223.2
100224.7
100187.5
100204.9
100242.1
100165.5
100174.3
100173.7
100168.7
100127.7
100132.8
100150.9
100172.3
100145.2
100151.5
100148.9
100141.8
100102.7
100103.3
100114
100124.3
100142.2
100129.5
100134.1
100130.4
100122.5
100086.1
100084.7
100090.9
100096
100104.2
100114.7
100118.3
100121.9
100117.8
100109.6
100076.3
100074.1
100078.4
100080.8
100085.4
100089.2
100074.7
100109.3
100112.1
100107.8
100099.9
100069.3
100066.8
100069.9
100071.2
100073.7
100075.1
100060.7
100077.5
100101.9
100104.2
100099.9
100092.3
100064.2
100061.7
100064.2
100064.8
100066.3
100066.5
100053.8
100064.7
100057.6
100095.9
100097.8
100093.6
100086.4
100060.6
100058.2
100060.2
100060.6
100061.6
100061.5
100050.2
100058.6
100051.1
100048.9
100091
100092.7
100088.7
100081.9
100058.2
100056
100057.8
100058.2
100059.1
100058.8
100049.1
100055.7
100049
100045.4
100028.2
100088.3
100089.8
100086.1
100079.9
100058.2
100056.4
100058.3
100058.9
100060
100060.1
100052.1
100058.1
100051.5
100047.9
100027.5
100028.2
100086.7
100088.3
100085
100079.4
100059.6
100058.3
100060.4
100061.2
100062.7
100063.3
100057
100062.4
100056.1
100051.7
100027.6
100027.4
100028.2
100091.2
100093.2
100090.8
100086.2
100068.8
100068.6
100071.5
100073.5
100076.2
100078.4
100074.6
100083.4
100085.6
100092.4
100100.6
100092
100094.1
100092.1
100088.3
100072.6
100072.8
100076.1
100078.5
100081.7
100084.4
100082
100090.9
100094.5
100102.3
100111.7
100092.1
100094.3
100092.7
100089.4
100075.2
100075.8
100079.3
100082
100085.4
100088.5
100086.9
100095.9
100100.3
100108.7
100118.7
100090.2
100092.4
100091
100088
100074.9
100075.7
100079.1
100081.8
100085.2
100088.3
100087.1
100095.6
100099.9
100107.7
100116.9
100087
100089.1
100087.8
100085
100072.8
100073.5
100076.7
100079.3
100082.5
100085.4
100084.3
100092.1
100096
100103.1
100111.2
100344.7
100387.6
100425.1
100461.2
100297.3
100328
100352.6
100378.1
100353.8
100256
100278.2
100292.6
100306.5
100279.2
100315.6
100217.6
100233.2
100240.4
100244.9
100212.8
100235
100276.8
100185.1
100196.1
100198.5
100197.2
100162
100173.4
100199.4
100230.6
100151.3
100158.2
100156.4
100150.4
100113.1
100115.4
100128.1
100141.2
100161.9
100133.5
100138.5
100135.3
100127.9
100092.4
100092
100099.3
100105.9
100116
100128.7
100119.8
100123.4
100119.5
100111.6
100078.5
100076.6
100081.2
100084.1
100089.2
100093.7
100080.4
100109.9
100112.8
100108.5
100100.7
100070.2
100067.8
100071
100072.5
100075.1
100076.9
100062.8
100079.7
100101.9
100104.2
100099.9
100092.3
100064.2
100061.7
100064.2
100064.8
100066.3
100066.5
100053.8
100064.7
100057.6
100095.3
100097.2
100093
100085.7
100059.8
100057.4
100059.3
100059.6
100060.5
100060.2
100048.7
100057
100049.6
100047.7
100089.9
100091.5
100087.4
100080.5
100056.6
100054.3
100056
100056.1
100056.8
100056.3
100046.2
100052.7
100046.1
100043.1
100028.2
100085.6
100087
100083.1
100076.6
100054.6
100052.5
100054
100054.2
100054.8
100054.3
100045.5
100051
100044.7
100041.6
100027.4
100028.1
100083.1
100084.5
100080.9
100075
100054.7
100053
100054.6
100055
100055.8
100055.7
100048.4
100053.3
100047.4
100043.8
100027.1
100027.3
100028.2
100081.8
100083.2
100079.9
100074.6
100056.1
100054.8
100056.6
100057.3
100058.5
100058.8
100052.9
100057.5
100051.6
100047.6
100026.8
100027
100027.4
100028.2
100086.2
100088
100085.5
100081.2
100064.8
100064.4
100067.1
100068.8
100071
100072.8
100069.1
100076.6
100078.2
100083.5
100089.8
100087
100088.9
100086.9
100083.2
100068.4
100068.5
100071.5
100073.6
100076.3
100078.6
100076.1
100083.9
100086.6
100093
100100.5
100087.3
100089.3
100087.6
100084.4
100071
100071.5
100074.6
100077
100079.9
100082.6
100080.9
100088.8
100092.4
100099.4
100107.7
100085.5
100087.5
100086.1
100083.2
100070.8
100071.4
100074.5
100076.9
100079.9
100082.6
100081.3
100088.9
100092.4
100099.1
100106.8
100082.6
100084.5
100083.2
100080.5
100068.8
100069.5
100072.4
100074.7
100077.6
100080.1
100078.9
100085.9
100089.3
100095.4
100102.3
100302.4
100333.7
100359.4
100386.1
100363.8
100264.4
100287.7
100303.6
100319.6
100295.8
100334.9
100230.2
100247.4
100256.7
100263.9
100236.4
100263.1
100309.4
100197.4
100209.8
100213.9
100215
100183.7
100199.1
100229.7
100265.8
100169.2
100178
100178.6
100175.6
100142.9
100150
100168.9
100190.2
100220.9
100139.2
100144.7
100142.2
100135.7
100101.6
100102.5
100111.4
100120.2
100133
100148.8
100123.5
100127.5
100123.9
100116.5
100084.2
100083
100088.5
100092.6
100099.2
100105.6
100095.2
100111.3
100114.2
100110.1
100102.4
100072.2
100070.1
100073.5
100075.4
100078.4
100080.7
100067.5
100084.7
100102.5
100104.8
100100.6
100093
100065
100062.6
100065.2
100065.9
100067.6
100068
100055.6
100066.5
100059.4
100095.3
100097.2
100093
100085.7
100059.8
100057.4
100059.3
100059.6
100060.5
100060.2
100048.7
100057
100049.6
100047.7
100089.4
100091
100086.8
100079.9
100056
100053.6
100055.2
100055.2
100055.8
100055.1
100044.9
100051.3
100044.9
100042.1
100028.2
100084.5
100085.9
100081.9
100075.3
100053.2
100051
100052.4
100052.3
100052.7
100052.1
100042.9
100048.4
100042.3
100039.7
100027.4
100028.1
100080.6
100081.8
100078
100071.9
100051.4
100049.4
100050.7
100050.7
100051.1
100050.5
100042.5
100047.1
100041.5
100038.5
100027
100027.3
100028.2
100078.4
100079.6
100076.1
100070.5
100051.6
100049.9
100051.3
100051.6
100052.2
100052
100045.2
100049.5
100044
100040.8
100026.4
100027
100027.3
100028.2
100077.3
100078.5
100075.4
100070.3
100052.9
100051.6
100053.3
100053.8
100054.8
100055
100049.5
100053.4
100048
100044.2
100026.2
100026.3
100027
100027.4
100028.2
100081.6
100083.1
100080.7
100076.5
100061.1
100060.7
100063
100064.5
100066.5
100067.9
100064.3
100070.9
100072
100076.3
100081.2
100082.4
100084.2
100082.2
100078.6
100064.6
100064.6
100067.3
100069.1
100071.5
100073.5
100070.9
100077.8
100080
100085.4
100091.5
100082.7
100084.6
100082.9
100079.8
100067.1
100067.4
100070.3
100072.4
100075
100077.4
100075.6
100082.7
100085.6
100091.6
100098.5
100081.2
100083
100081.6
100078.8
100067
100067.5
100070.3
100072.5
100075.1
100077.5
100076.1
100082.9
100086
100091.8
100098.3
100078.4
100080.2
100078.9
100076.3
100065.2
100065.7
100068.4
100070.5
100073.1
100075.3
100074.1
100080.5
100083.3
100088.7
100094.7
100269
100292.8
100309.5
100326.6
100304.7
100345.1
100237.9
100255.9
100266.5
100275.3
100250.7
100280.1
100328.9
100209
100222.6
100228.4
100231.7
100204
100223
100258
100299
100180.5
100190.4
100192.6
100191.5
100161.9
100172
100194.7
100220.8
100256.7
100155.6
100162.8
100162.2
100158.3
100127.9
100132.5
100146.1
100161.3
100182.4
100208.8
100128.7
100133.2
100130.2
100123.6
100092.4
100092.3
100099.1
100104.8
100113.6
100122.8
100116.7
100114.7
100118
100114.2
100107
100077.3
100075.8
100080
100082.7
100086.9
100090.7
100079.9
100098.5
100103.7
100106.2
100102
100094.6
100066.8
100064.6
100067.4
100068.4
100070.5
100071.2
100059.6
100070.8
100063.4
100095.9
100097.8
100093.6
100086.4
100060.6
100058.2
100060.2
100060.6
100061.6
100061.5
100050.2
100058.6
100051.1
100048.9
100089.4
100091
100086.8
100079.9
100056
100053.6
100055.2
100055.2
100055.8
100055.1
100044.9
100051.3
100044.9
100042.1
100028.2
100084.1
100085.4
100081.3
100074.7
100052.5
100050.3
100051.6
100051.5
100051.8
100051.1
100041.8
100047.2
100041.2
100038.9
100027.4
100028.1
100079.6
100080.8
100076.9
100070.7
100050
100047.9
100049.1
100049
100049.3
100048.5
100040.3
100044.8
100039.5
100036.9
100027
100027.3
100028.1
100076.1
100077.1
100073.4
100067.6
100048.4
100046.5
100047.7
100047.6
100047.9
100047.3
100040
100044
100038.8
100036.3
100026.3
100026.9
100027.3
100028.1
100074.1
100075.1
100071.8
100066.4
100048.7
100047.1
100048.4
100048.5
100049
100048.7
100042.5
100046.2
100041.2
100038.2
100025.8
100026.3
100027
100027.3
100028.1
100073.1
100074.2
100071.2
100066.3
100050
100048.8
100050.2
100050.7
100051.5
100051.6
100046.4
100049.9
100044.9
100041.4
100025.5
100025.8
100026.3
100027
100027.3
100028.2
100077.2
100078.7
100076.3
100072.3
100057.7
100057.3
100059.4
100060.7
100062.4
100063.6
100060.2
100066
100066.7
100070.3
100074.3
100078.1
100079.7
100077.8
100074.3
100061.1
100061
100063.4
100065.1
100067.2
100068.9
100066.4
100072.6
100074.3
100078.9
100083.9
100078.5
100080.2
100078.6
100075.6
100063.5
100063.7
100066.3
100068.2
100070.6
100072.6
100070.9
100077.2
100079.7
100084.9
100090.8
100077.1
100078.8
100077.4
100074.6
100063.4
100063.8
100066.4
100068.4
100070.8
100072.9
100071.5
100077.7
100080.3
100085.3
100091
100074.5
100076.1
100074.8
100072.3
100061.8
100062.2
100064.7
100066.7
100069
100071
100069.7
100075.5
100078
100082.8
100088
100242
100260.5
100271.7
100281.4
100258.3
100289.1
100339.2
100215.9
100230.3
100237.2
100241.8
100216.4
100237.5
100275.1
100318.7
100191.1
100202
100205.6
100206.4
100179.6
100192.6
100218.7
100249.4
100290.2
100166
100174.1
100174.9
100172.6
100144.7
100151.8
100168.3
100187.3
100213.4
100245.3
100143.9
100149.7
100148.5
100144
100115.8
100118.7
100129.2
100139.7
100154.9
100172.8
100178.4
100119.6
100123.3
100120
100113.4
100084.7
100084.1
100089.3
100093.3
100099.2
100105.2
100097.8
100118.5
100107
100109.7
100105.8
100098.8
100071.5
100069.8
100073.2
100074.9
100077.9
100079.8
100069.8
100082.3
100075.2
100097.1
100099.1
100095
100087.8
100062.2
100060
100062.2
100062.9
100064.1
100064.3
100053.6
100062.2
100054.5
100051.7
100089.9
100091.5
100087.4
100080.5
100056.6
100054.3
100056
100056.1
100056.8
100056.3
100046.2
100052.7
100046.1
100043.1
100028.2
100084.1
100085.4
100081.3
100074.7
100052.5
100050.3
100051.6
100051.5
100051.8
100051.1
100041.8
100047.2
100041.2
100038.9
100027.4
100028.1
100079.2
100080.3
100076.4
100070.1
100049.5
100047.3
100048.5
100048.3
100048.5
100047.6
100039.2
100043.8
100038.5
100036.2
100027
100027.3
100028.1
100075.2
100076.1
100072.4
100066.5
100047.2
100045.2
100046.3
100046.1
100046.2
100045.4
100037.9
100041.9
100037
100034.8
100026.3
100026.9
100027.3
100028.1
100071.9
100072.8
100069.3
100063.7
100045.8
100043.9
100045
100044.9
100045.1
100044.4
100037.7
100041.3
100036.6
100034.2
100025.7
100026.2
100027
100027.3
100028.1
100070.1
100071
100067.8
100062.7
100046
100044.5
100045.7
100045.8
100046.2
100045.8
100040.1
100043.4
100038.8
100036.1
100025.2
100025.7
100026.3
100027
100027.3
100028.1
100069.2
100070.2
100067.3
100062.6
100047.3
100046.1
100047.4
100047.8
100048.5
100048.5
100043.7
100046.8
100042.2
100039
100024.8
100025.1
100025.8
100026.3
100027
100027.3
100028.1
100073.2
100074.5
100072.2
100068.4
100054.6
100054.1
100056.1
100057.2
100058.7
100059.7
100056.5
100061.7
100062.1
100065.2
100068.5
100074.1
100075.6
100073.7
100070.3
100057.8
100057.7
100059.9
100061.4
100063.3
100064.7
100062.3
100067.9
100069.3
100073.2
100077.6
100074.5
100076.1
100074.5
100071.6
100060.1
100060.3
100062.7
100064.4
100066.6
100068.4
100066.6
100072.4
100074.5
100079.1
100084.1
100073.2
100074.8
100073.4
100070.8
100060.1
100060.5
100062.9
100064.7
100066.8
100068.7
100067.3
100072.9
100075.2
100079.7
100084.7
100070.8
100072.3
100071.1
100068.6
100058.6
100059
100061.3
100063.1
100065.2
100067
100065.8
100071.1
100073.2
100077.5
100082.2
100219.7
100234.4
100241.9
100247.2
100223
100245.3
100284.2
100329.2
100197.5
100209.1
100213.6
100215.4
100190.5
100205.1
100233.4
100266.7
100310.2
100175.8
100184.8
100186.8
100186
100160.4
100169.7
100188.9
100211.6
100242.2
100279.4
100153.5
100160.2
100160.1
100156.9
100130.9
100135.8
100148.5
100162
100181.2
100204.1
100216.5
100133.6
100138.5
100136.8
100131.9
100105.8
100107.7
100115.8
100123.6
100134.3
100147
100148.6
100184.4
100111.5
100114.6
100111.2
100104.7
100078.2
100077.3
100081.5
100084.3
100088.5
100092.1
100084.8
100099
100092.5
100100.1
100102.3
100098.5
100091.7
100066.5
100064.7
100067.4
100068.6
100070.6
100071.7
100062.3
100071.8
100064.2
100060.9
100091
100092.7
100088.7
100081.9
100058.2
100056
100057.8
100058.2
100059.1
100058.8
100049.1
100055.7
100049
100045.4
100028.2
100084.5
100085.9
100081.9
100075.3
100053.2
100051
100052.4
100052.3
100052.7
100052.1
100042.9
100048.4
100042.3
100039.7
100027.4
100028.1
100079.2
100080.3
100076.4
100070.1
100049.5
100047.3
100048.5
100048.3
100048.5
100047.6
100039.2
100043.8
100038.5
100036.2
100027
100027.3
100028.1
100074.7
100075.7
100071.9
100066
100046.7
100044.6
100045.6
100045.4
100045.5
100044.6
100037
100041
100036.2
100034.2
100026.3
100026.9
100027.3
100028.1
100071
100071.8
100068.3
100062.6
100044.6
100042.7
100043.7
100043.5
100043.5
100042.7
100035.9
100039.4
100035
100033
100025.8
100026.2
100027
100027.3
100028.1
100068
100068.8
100065.4
100060.1
100043.3
100041.6
100042.5
100042.4
100042.5
100041.9
100035.7
100038.9
100034.7
100032.6
100025.1
100025.7
100026.3
100027
100027.3
100028.1
100066.4
100067.2
100064.1
100059.2
100043.6
100042.1
100043.2
100043.2
100043.6
100043.2
100037.9
100040.9
100036.7
100034.2
100024.5
100025
100025.7
100026.3
100027
100027.3
100028.1
100065.6
100066.5
100063.7
100059.3
100044.8
100043.6
100044.9
100045.2
100045.8
100045.8
100041.3
100044.1
100039.8
100036.9
100024.1
100024.5
100025.1
100025.7
100026.3
100027
100027.3
100028.1
100069.4
100070.6
100068.4
100064.7
100051.7
100051.2
100053
100054
100055.4
100056.3
100053.1
100057.9
100058.1
100060.8
100063.5
100070.4
100071.7
100069.8
100066.6
100054.7
100054.6
100056.6
100058
100059.7
100061
100058.6
100063.7
100064.9
100068.3
100072.1
100070.8
100072.2
100070.7
100067.9
100057
100057.1
100059.3
100060.9
100062.8
100064.5
100062.7
100068
100069.8
100073.9
100078.3
100069.6
100071
100069.7
100067.2
100057
100057.3
100059.5
100061.2
100063.2
100064.9
100063.5
100068.6
100070.6
100074.7
100079.1
100067.3
100068.7
100067.5
100065.1
100055.6
100055.9
100058.1
100059.7
100061.7
100063.3
100062.1
100067
100068.9
100072.8
100076.9
100200.9
100212.9
100217.8
100220.2
100196.2
100211.8
100241.1
100275.8
100320.9
100181.7
100191.3
100194
100194.1
100170