/*--------------------------------*- C++ -*----------------------------------*\
| =========                 |                                                 |
| \\      /  F ield         | OpenFOAM: The Open Source CFD Toolbox           |
|  \\    /   O peration     | Version:  2306                                  |
|   \\  /    A nd           | Website:  www.openfoam.com                      |
|    \\/     M anipulation  |                                                 |
\*---------------------------------------------------------------------------*/
FoamFile
{
    version     2.0;
    format      ascii;
    arch        "LSB;label=32;scalar=64";
    class       volScalarField;
    location    "1.2/fuel";
    object      T;
}
// * * * * * * * * * * * * * * * * * * * * * * * * * * * * * * * * * * * * * //

dimensions      [0 0 0 1 0 0 0];

internalField   nonuniform List<scalar> 
16000
(
1163.788
1163.636
1165.595
1163.802
1163.285
1165.583
1163.65
1167.25
1165.603
1163.819
1162.636
1165.552
1163.3
1167.277
1165.591
1163.668
1168.795
1167.254
1165.616
1163.842
1161.551
1165.49
1162.653
1167.336
1165.559
1163.319
1168.833
1167.281
1165.603
1163.691
1170.276
1168.795
1167.263
1165.633
1163.87
1159.971
1165.373
1161.576
1167.436
1165.496
1162.676
1168.918
1167.338
1165.571
1163.344
1170.317
1168.833
1167.288
1165.62
1163.719
1171.71
1170.273
1168.799
1167.275
1165.655
1163.902
1158.184
1165.17
1160.007
1167.586
1165.377
1161.605
1169.068
1167.436
1165.507
1162.705
1170.409
1168.917
1167.345
1165.588
1163.374
1171.75
1170.314
1168.837
1167.301
1165.642
1163.753
1173.098
1171.704
1170.274
1168.808
1167.292
1165.681
1163.936
1156.552
1164.867
1158.237
1167.767
1165.169
1160.048
1169.3
1167.582
1165.385
1161.641
1170.571
1169.065
1167.441
1165.522
1162.739
1171.841
1170.405
1168.92
1167.356
1165.609
1163.41
1173.137
1171.744
1170.315
1168.845
1167.317
1165.668
1163.787
1174.44
1173.09
1171.702
1170.279
1168.82
1167.313
1165.708
1163.969
1155.337
1164.527
1156.62
1167.904
1164.866
1158.293
1169.604
1167.757
1165.173
1160.094
1170.824
1169.292
1167.582
1165.397
1161.681
1172.001
1170.564
1169.065
1167.45
1165.542
1162.778
1173.224
1171.834
1170.404
1168.927
1167.371
1165.634
1163.446
1174.477
1173.129
1171.742
1170.319
1168.857
1167.337
1165.694
1163.822
1175.736
1174.431
1173.086
1171.704
1170.288
1168.837
1167.334
1165.735
1164.003
1154.696
1164.238
1155.418
1167.974
1164.528
1156.692
1169.885
1167.889
1164.869
1158.355
1171.161
1169.589
1167.751
1165.182
1160.145
1172.254
1170.814
1169.289
1167.587
1165.414
1161.728
1173.378
1171.992
1170.562
1169.07
1167.463
1165.566
1162.819
1174.56
1173.215
1171.831
1170.408
1168.938
1167.391
1165.661
1163.483
1175.771
1174.467
1173.124
1171.744
1170.327
1168.873
1167.359
1165.721
1163.856
1176.983
1175.725
1174.425
1173.086
1171.71
1170.301
1168.854
1167.356
1165.762
1164.037
1154.696
1164.073
1154.783
1167.997
1164.242
1155.502
1170.096
1167.957
1164.533
1156.769
1171.487
1169.865
1167.878
1164.877
1158.421
1172.592
1171.144
1169.579
1167.749
1165.195
1160.202
1173.621
1172.241
1170.807
1169.289
1167.596
1165.437
1161.776
1174.706
1173.367
1171.988
1170.563
1169.078
1167.481
1165.591
1162.86
1175.849
1174.549
1173.21
1171.832
1170.415
1168.953
1167.411
1165.687
1163.52
1177.016
1175.76
1174.461
1173.123
1171.749
1170.34
1168.889
1167.38
1165.748
1163.891
1178.181
1176.971
1175.718
1174.423
1173.089
1171.719
1170.314
1168.87
1167.377
1165.789
1164.202
1155.337
1164.073
1154.783
1168
1164.079
1154.873
1170.23
1167.98
1164.25
1155.59
1171.743
1170.073
1167.945
1164.543
1156.85
1172.922
1171.465
1169.85
1167.872
1164.889
1158.492
1173.948
1172.574
1171.132
1169.572
1167.752
1165.213
1160.26
1174.938
1173.607
1172.233
1170.805
1169.293
1167.61
1165.46
1161.825
1175.988
1174.695
1173.36
1171.986
1170.568
1169.091
1167.499
1165.617
1162.902
1177.091
1175.837
1174.543
1173.208
1171.836
1170.426
1168.968
1167.431
1165.713
1163.557
1178.213
1177.004
1175.752
1174.459
1173.126
1171.758
1170.352
1168.906
1167.401
1165.775
1164.062
1179.331
1178.169
1176.963
1175.714
1174.424
1173.095
1171.729
1170.327
1168.887
1167.399
1165.922
1164.518
1156.552
1164.238
1155.418
1168
1164.079
1154.873
1170.293
1167.983
1164.089
1154.968
1171.913
1170.205
1167.968
1164.262
1155.682
1173.188
1171.718
1170.055
1167.937
1164.557
1156.935
1174.27
1172.9
1171.447
1169.838
1167.87
1164.906
1158.563
1175.25
1173.929
1172.559
1171.123
1169.57
1167.759
1165.232
1160.318
1176.208
1174.923
1173.597
1172.228
1170.806
1169.302
1167.624
1165.483
1161.874
1177.223
1175.975
1174.686
1173.357
1171.989
1170.577
1169.104
1167.517
1165.642
1162.944
1178.284
1177.078
1175.829
1174.539
1173.21
1171.844
1170.438
1168.983
1167.451
1165.74
1163.741
1179.361
1178.2
1176.995
1175.748
1174.459
1173.133
1171.767
1170.365
1168.922
1167.422
1165.907
1164.394
1180.431
1179.318
1178.159
1176.957
1175.713
1174.428
1173.102
1171.739
1170.339
1168.904
1167.506
1166.162
1164.851
1158.184
1164.527
1156.62
1167.997
1164.242
1155.502
1170.293
1167.983
1164.089
1154.968
1171.997
1170.268
1167.971
1164.103
1155.066
1173.367
1171.886
1170.185
1167.959
1164.279
1155.779
1174.53
1173.162
1171.697
1170.04
1167.933
1164.576
1157.021
1175.559
1174.247
1172.881
1171.433
1169.831
1167.873
1164.924
1158.634
1176.505
1175.231
1173.914
1172.549
1171.118
1169.572
1167.766
1165.251
1160.376
1177.432
1176.193
1174.912
1173.591
1172.227
1170.811
1169.311
1167.637
1165.506
1161.924
1178.41
1177.209
1175.966
1174.681
1173.357
1171.995
1170.587
1169.117
1167.535
1165.668
1163.152
1179.429
1178.271
1177.069
1175.824
1174.539
1173.215
1171.852
1170.449
1168.999
1167.471
1165.87
1164.109
1180.46
1179.348
1178.191
1176.99
1175.747
1174.463
1173.139
1171.776
1170.377
1168.938
1167.526
1166.147
1164.748
1181.483
1180.418
1179.308
1178.153
1176.955
1175.715
1174.433
1173.109
1171.748
1170.352
1168.989
1167.694
1166.405
1165.197
1159.971
1164.867
1158.237
1167.974
1164.528
1156.692
1170.23
1167.98
1164.25
1155.59
1171.997
1170.268
1167.971
1164.103
1155.066
1173.456
1171.969
1170.247
1167.962
1164.122
1155.169
1174.707
1173.339
1171.864
1170.169
1167.955
1164.301
1155.876
1175.809
1174.504
1173.14
1171.68
1170.03
1167.934
1164.596
1157.106
1176.799
1175.536
1174.228
1172.866
1171.423
1169.828
1167.876
1164.942
1158.705
1177.715
1176.486
1175.215
1173.903
1172.543
1171.117
1169.575
1167.774
1165.27
1160.434
1178.61
1177.416
1176.181
1174.904
1173.588
1172.229
1170.816
1169.319
1167.651
1165.529
1162.167
1179.549
1178.396
1177.198
1175.959
1174.679
1173.361
1172.001
1170.596
1169.13
1167.552
1165.793
1163.583
1180.525
1179.415
1178.26
1177.062
1175.822
1174.542
1173.221
1171.86
1170.46
1169.014
1167.57
1166.11
1164.512
1181.511
1180.446
1179.337
1178.184
1176.987
1175.749
1174.467
1173.145
1171.785
1170.389
1169.02
1167.711
1166.391
1165.12
1182.488
1181.47
1180.407
1179.3
1178.15
1176.956
1175.718
1174.437
1173.116
1171.758
1170.417
1169.136
1167.88
1166.65
1165.553
1161.551
1165.17
1160.007
1167.904
1164.866
1158.293
1170.096
1167.957
1164.533
1156.769
1171.913
1170.205
1167.968
1164.262
1155.682
1173.456
1171.969
1170.247
1167.962
1164.122
1155.169
1174.795
1173.428
1171.946
1170.231
1167.959
1164.145
1155.271
1175.979
1174.68
1173.316
1171.845
1170.158
1167.956
1164.323
1155.972
1177.039
1175.784
1174.483
1173.123
1171.667
1170.024
1167.935
1164.615
1157.19
1177.996
1176.777
1175.517
1174.212
1172.855
1171.417
1169.825
1167.879
1164.96
1158.775
1178.88
1177.696
1176.47
1175.203
1173.895
1172.54
1171.116
1169.577
1167.782
1165.289
1160.713
1179.74
1178.593
1177.404
1176.172
1174.9
1173.588
1172.232
1170.821
1169.328
1167.665
1165.644
1162.674
1180.641
1179.534
1178.384
1177.191
1175.956
1174.681
1173.364
1172.007
1170.605
1169.143
1167.64
1166.031
1164.072
1181.574
1180.511
1179.404
1178.253
1177.059
1175.824
1174.545
1173.226
1171.868
1170.471
1169.089
1167.745
1166.357
1164.945
1182.514
1181.497
1180.436
1179.33
1178.181
1176.988
1175.751
1174.472
1173.152
1171.795
1170.452
1169.162
1167.892
1166.638
1165.505
1183.444
1182.474
1181.459
1180.399
1179.296
1178.15
1176.957
1175.721
1174.442
1173.123
1171.806
1170.529
1169.279
1168.065
1166.897
1162.636
1165.373
1161.576
1167.767
1165.169
1160.048
1169.885
1167.889
1164.869
1158.355
1171.743
1170.073
1167.945
1164.543
1156.85
1173.367
1171.886
1170.185
1167.959
1164.279
1155.779
1174.795
1173.428
1171.946
1170.231
1167.959
1164.145
1155.271
1176.065
1174.767
1173.404
1171.927
1170.219
1167.959
1164.169
1155.373
1177.202
1175.953
1174.656
1173.297
1171.831
1170.15
1167.956
1164.345
1156.066
1178.224
1177.014
1175.762
1174.465
1173.109
1171.658
1170.018
1167.936
1164.635
1157.273
1179.148
1177.973
1176.758
1175.501
1174.201
1172.848
1171.412
1169.822
1167.882
1164.978
1159.108
1179.999
1178.86
1177.68
1176.458
1175.195
1173.891
1172.537
1171.116
1169.579
1167.789
1165.384
1161.229
1180.824
1179.724
1178.58
1177.394
1176.166
1174.899
1173.588
1172.234
1170.826
1169.336
1167.733
1165.87
1163.261
1181.684
1180.626
1179.523
1178.376
1177.187
1175.956
1174.683
1173.368
1172.013
1170.613
1169.206
1167.796
1166.283
1164.615
1182.574
1181.559
1180.5
1179.396
1178.249
1177.06
1175.825
1174.549
1173.232
1171.876
1170.528
1169.218
1167.916
1166.61
1165.399
1183.47
1182.5
1181.486
1180.428
1179.326
1178.18
1176.989
1175.754
1174.476
1173.158
1171.841
1170.558
1169.298
1168.072
1166.888
1184.355
1183.43
1182.462
1181.45
1180.395
1179.295
1178.15
1176.958
1175.723
1174.446
1173.157
1171.889
1170.637
1169.418
1168.247
1163.285
1165.49
1162.653
1167.586
1165.377
1161.605
1169.604
1167.757
1165.173
1160.094
1171.487
1169.865
1167.878
1164.877
1158.421
1173.188
1171.718
1170.055
1167.937
1164.557
1156.935
1174.707
1173.339
1171.864
1170.169
1167.955
1164.301
1155.876
1176.065
1174.767
1173.404
1171.927
1170.219
1167.959
1164.169
1155.373
1177.284
1176.038
1174.744
1173.384
1171.912
1170.211
1167.96
1164.193
1155.473
1178.38
1177.176
1175.93
1174.637
1173.281
1171.82
1170.142
1167.957
1164.367
1156.16
1179.366
1178.2
1176.993
1175.744
1174.451
1173.099
1171.649
1170.012
1167.938
1164.654
1157.665
1180.255
1179.126
1177.955
1176.742
1175.489
1174.193
1172.841
1171.406
1169.819
1167.886
1165.065
1159.669
1181.072
1179.979
1178.844
1177.667
1176.449
1175.19
1173.887
1172.534
1171.115
1169.581
1167.827
1165.567
1161.757
1181.861
1180.807
1179.71
1178.57
1177.387
1176.164
1174.897
1173.589
1172.236
1170.831
1169.378
1167.855
1166.119
1163.954
1182.681
1181.669
1180.613
1179.514
1178.371
1177.186
1175.956
1174.684
1173.371
1172.018
1170.658
1169.311
1167.949
1166.549
1165.209
1183.528
1182.56
1181.547
1180.491
1179.391
1178.248
1177.06
1175.827
1174.552
1173.237
1171.916
1170.62
1169.34
1168.085
1166.868
1184.38
1183.456
1182.489
1181.478
1180.423
1179.324
1178.18
1176.99
1175.756
1174.48
1173.19
1171.917
1170.659
1169.431
1168.25
1185.22
1184.341
1183.419
1182.454
1181.445
1180.393
1179.294
1178.149
1176.959
1175.726
1174.469
1173.214
1171.966
1170.74
1169.555
1163.636
1165.552
1163.3
1167.436
1165.496
1162.676
1169.3
1167.582
1165.385
1161.641
1171.161
1169.589
1167.751
1165.182
1160.145
1172.922
1171.465
1169.85
1167.872
1164.889
1158.492
1174.53
1173.162
1171.697
1170.04
1167.933
1164.576
1157.021
1175.979
1174.68
1173.316
1171.845
1170.158
1167.956
1164.323
1155.972
1177.284
1176.038
1174.744
1173.384
1171.912
1170.211
1167.96
1164.193
1155.473
1178.459
1177.258
1176.015
1174.724
1173.368
1171.9
1170.202
1167.96
1164.216
1155.572
1179.516
1178.355
1177.154
1175.911
1174.622
1173.27
1171.809
1170.135
1167.957
1164.388
1156.599
1180.465
1179.343
1178.179
1176.975
1175.73
1174.44
1173.088
1171.64
1170.006
1167.939
1164.748
1158.296
1181.318
1180.234
1179.107
1177.939
1176.73
1175.481
1174.185
1172.833
1171.4
1169.816
1167.902
1165.227
1160.191
1182.099
1181.052
1179.963
1178.831
1177.657
1176.443
1175.185
1173.883
1172.531
1171.114
1169.592
1167.899
1165.758
1162.289
1182.851
1181.844
1180.793
1179.699
1178.563
1177.384
1176.161
1174.896
1173.589
1172.238
1170.854
1169.446
1167.98
1166.402
1164.804
1183.631
1182.666
1181.657
1180.604
1179.508
1178.369
1177.184
1175.956
1174.686
1173.375
1172.047
1170.727
1169.409
1168.103
1166.83
1184.436
1183.513
1182.548
1181.539
1180.486
1179.389
1178.247
1177.06
1175.828
1174.555
1173.264
1171.98
1170.706
1169.458
1168.254
1185.244
1184.365
1183.444
1182.48
1181.472
1180.421
1179.323
1178.179
1176.99
1175.758
1174.5
1173.242
1171.988
1170.755
1169.561
1186.04
1185.206
1184.329
1183.41
1182.448
1181.442
1180.391
1179.293
1178.149
1176.96
1175.739
1174.505
1173.267
1172.04
1170.842
1163.788
1165.583
1163.65
1167.336
1165.559
1163.319
1169.068
1167.436
1165.507
1162.705
1170.824
1169.292
1167.582
1165.397
1161.681
1172.592
1171.144
1169.579
1167.749
1165.195
1160.202
1174.27
1172.9
1171.447
1169.838
1167.87
1164.906
1158.563
1175.809
1174.504
1173.14
1171.68
1170.03
1167.934
1164.596
1157.106
1177.202
1175.953
1174.656
1173.297
1171.831
1170.15
1167.956
1164.345
1156.066
1178.459
1177.258
1176.015
1174.724
1173.368
1171.9
1170.202
1167.96
1164.216
1155.572
1179.591
1178.433
1177.235
1175.995
1174.707
1173.355
1171.889
1170.194
1167.961
1164.239
1156.037
1180.608
1179.491
1178.334
1177.135
1175.896
1174.609
1173.258
1171.799
1170.128
1167.958
1164.493
1157.292
1181.519
1180.442
1179.322
1178.162
1176.961
1175.72
1174.429
1173.078
1171.631
1170
1167.945
1164.912
1158.855
1182.336
1181.297
1180.215
1179.092
1177.927
1176.722
1175.472
1174.177
1172.826
1171.395
1169.803
1167.938
1165.389
1160.667
1183.08
1182.08
1181.036
1179.95
1178.821
1177.651
1176.437
1175.179
1173.878
1172.529
1171.11
1169.613
1167.973
1165.953
1162.806
1183.795
1182.834
1181.83
1180.782
1179.692
1178.558
1177.38
1176.159
1174.895
1173.589
1172.248
1170.887
1169.508
1168.11
1166.732
1184.535
1183.616
1182.653
1181.647
1180.598
1179.505
1178.366
1177.183
1175.956
1174.687
1173.391
1172.088
1170.787
1169.502
1168.258
1185.298
1184.421
1183.501
1182.539
1181.533
1180.483
1179.387
1178.246
1177.059
1175.83
1174.571
1173.303
1172.037
1170.786
1169.573
1186.063
1185.23
1184.354
1183.435
1182.474
1181.469
1180.418
1179.321
1178.179
1176.991
1175.769
1174.532
1173.289
1172.055
1170.848
1186.816
1186.026
1185.194
1184.32
1183.404
1182.445
1181.44
1180.389
1179.291
1178.149
1176.965
1175.758
1174.537
1173.316
1172.112
1165.595
1163.802
1167.277
1165.591
1163.668
1168.918
1167.338
1165.571
1163.344
1170.571
1169.065
1167.441
1165.522
1162.739
1172.254
1170.814
1169.289
1167.587
1165.414
1161.728
1173.948
1172.574
1171.132
1169.572
1167.752
1165.213
1160.26
1175.559
1174.247
1172.881
1171.433
1169.831
1167.873
1164.924
1158.634
1177.039
1175.784
1174.483
1173.123
1171.667
1170.024
1167.935
1164.615
1157.19
1178.38
1177.176
1175.93
1174.637
1173.281
1171.82
1170.142
1167.957
1164.367
1156.16
1179.591
1178.433
1177.235
1175.995
1174.707
1173.355
1171.889
1170.194
1167.961
1164.239
1156.037
1180.68
1179.566
1178.411
1177.216
1175.979
1174.695
1173.343
1171.877
1170.186
1167.962
1164.351
1156.766
1181.657
1180.584
1179.47
1178.315
1177.12
1175.884
1174.597
1173.246
1171.788
1170.12
1167.962
1164.67
1157.895
1182.53
1181.497
1180.422
1179.306
1178.149
1176.951
1175.709
1174.419
1173.068
1171.623
1169.972
1167.963
1165.071
1159.342
1183.309
1182.315
1181.279
1180.2
1179.08
1177.918
1176.713
1175.464
1174.169
1172.819
1171.367
1169.786
1167.978
1165.548
1161.087
1184.017
1183.062
1182.064
1181.023
1179.94
1178.815
1177.644
1176.431
1175.174
1173.874
1172.514
1171.102
1169.633
1168.045
1166.142
1163.781
1184.694
1183.778
1182.82
1181.819
1180.774
1179.687
1178.554
1177.377
1176.156
1174.893
1173.588
1172.256
1170.911
1169.565
1168.251
1185.395
1184.52
1183.603
1182.643
1181.64
1180.594
1179.501
1178.364
1177.181
1175.956
1174.693
1173.41
1172.12
1170.839
1169.592
1186.116
1185.283
1184.409
1183.492
1182.532
1181.529
1180.48
1179.385
1178.245
1177.059
1175.836
1174.59
1173.336
1172.087
1170.863
1186.839
1186.049
1185.218
1184.345
1183.429
1182.471
1181.466
1180.416
1179.32
1178.178
1176.994
1175.783
1174.558
1173.331
1172.119
1187.549
1186.802
1186.014
1185.185
1184.314
1183.401
1182.442
1181.437
1180.386
1179.29
1178.147
1176.969
1175.772
1174.566
1173.363
1167.25
1165.603
1163.819
1168.833
1167.281
1165.603
1163.691
1170.409
1168.917
1167.345
1165.588
1163.374
1172.001
1170.564
1169.065
1167.45
1165.542
1162.778
1173.621
1172.241
1170.807
1169.289
1167.596
1165.437
1161.776
1175.25
1173.929
1172.559
1171.123
1169.57
1167.759
1165.232
1160.318
1176.799
1175.536
1174.228
1172.866
1171.423
1169.828
1167.876
1164.942
1158.705
1178.224
1177.014
1175.762
1174.465
1173.109
1171.658
1170.018
1167.936
1164.635
1157.273
1179.516
1178.355
1177.154
1175.911
1174.622
1173.27
1171.809
1170.135
1167.957
1164.388
1156.599
1180.68
1179.566
1178.411
1177.216
1175.979
1174.695
1173.343
1171.877
1170.186
1167.962
1164.351
1156.766
1181.727
1180.656
1179.545
1178.393
1177.2
1175.966
1174.682
1173.33
1171.866
1170.179
1167.965
1164.538
1157.395
1182.663
1181.634
1180.564
1179.453
1178.301
1177.108
1175.871
1174.585
1173.234
1171.778
1170.085
1167.973
1164.835
1158.411
1183.496
1182.508
1181.478
1180.406
1179.292
1178.138
1176.94
1175.698
1174.408
1173.058
1171.58
1169.931
1167.984
1165.222
1159.756
1184.238
1183.289
1182.298
1181.264
1180.189
1179.071
1177.909
1176.704
1175.455
1174.161
1172.784
1171.324
1169.774
1168.018
1165.697
1161.815
1184.909
1183.999
1183.046
1182.051
1181.013
1179.933
1178.808
1177.638
1176.425
1175.169
1173.852
1172.487
1171.092
1169.651
1168.111
1166.511
1164.364
1185.548
1184.677
1183.764
1182.809
1181.81
1180.769
1179.682
1178.549
1177.373
1176.153
1174.884
1173.577
1172.253
1170.925
1169.618
1186.209
1185.379
1184.507
1183.593
1182.636
1181.636
1180.59
1179.498
1178.361
1177.18
1175.953
1174.693
1173.418
1172.143
1170.886
1186.89
1186.101
1185.271
1184.4
1183.485
1182.529
1181.526
1180.477
1179.383
1178.243
1177.058
1175.839
1174.603
1173.363
1172.134
1187.571
1186.825
1186.037
1185.209
1184.338
1183.425
1182.467
1181.463
1180.413
1179.318
1178.174
1176.994
1175.792
1174.579
1173.37
1188.24
1187.536
1186.791
1186.005
1185.179
1184.31
1183.397
1182.438
1181.434
1180.384
1179.283
1178.139
1176.97
1175.784
1174.592
1168.795
1167.254
1165.616
1163.842
1170.317
1168.833
1167.288
1165.62
1163.719
1171.841
1170.405
1168.92
1167.356
1165.609
1163.41
1173.378
1171.992
1170.562
1169.07
1167.463
1165.566
1162.819
1174.938
1173.607
1172.233
1170.805
1169.293
1167.61
1165.46
1161.825
1176.505
1175.231
1173.914
1172.549
1171.118
1169.572
1167.766
1165.251
1160.376
1177.996
1176.777
1175.517
1174.212
1172.855
1171.417
1169.825
1167.879
1164.96
1158.775
1179.366
1178.2
1176.993
1175.744
1174.451
1173.099
1171.649
1170.012
1167.938
1164.654
1157.665
1180.608
1179.491
1178.334
1177.135
1175.896
1174.609
1173.258
1171.799
1170.128
1167.958
1164.493
1157.292
1181.727
1180.656
1179.545
1178.393
1177.2
1175.966
1174.682
1173.33
1171.866
1170.179
1167.965
1164.538
1157.395
1182.73
1181.704
1180.636
1179.527
1178.378
1177.188
1175.954
1174.669
1173.318
1171.855
1170.14
1167.974
1164.71
1157.931
1183.625
1182.641
1181.615
1180.547
1179.438
1178.289
1177.096
1175.859
1174.573
1173.223
1171.726
1170.031
1167.987
1164.99
1158.843
1184.419
1183.475
1182.489
1181.462
1180.393
1179.282
1178.127
1176.929
1175.687
1174.398
1173.008
1171.513
1169.897
1168.008
1165.362
1160.458
1185.123
1184.218
1183.272
1182.283
1181.252
1180.18
1179.062
1177.9
1176.695
1175.447
1174.121
1172.727
1171.286
1169.765
1168.056
1165.994
1162.597
1185.756
1184.891
1183.983
1183.033
1182.041
1181.006
1179.926
1178.801
1177.631
1176.419
1175.142
1173.812
1172.459
1171.08
1169.663
1168.231
1166.741
1164.699
1186.359
1185.532
1184.664
1183.753
1182.8
1181.805
1180.763
1179.676
1178.545
1177.369
1176.137
1174.857
1173.553
1172.238
1170.927
1186.981
1186.194
1185.367
1184.497
1183.586
1182.631
1181.631
1180.586
1179.495
1178.358
1177.17
1175.938
1174.684
1173.418
1172.159
1187.621
1186.876
1186.089
1185.262
1184.393
1183.481
1182.524
1181.522
1180.474
1179.381
1178.236
1177.048
1175.836
1174.61
1173.385
1188.262
1187.557
1186.813
1186.028
1185.202
1184.334
1183.421
1182.464
1181.46
1180.411
1179.309
1178.162
1176.989
1175.797
1174.599
1188.89
1188.227
1187.524
1186.782
1185.999
1185.174
1184.306
1183.393
1182.435
1181.431
1180.372
1179.265
1178.128
1176.967
1175.793
1170.276
1168.795
1167.263
1165.633
1163.87
1171.75
1170.314
1168.837
1167.301
1165.642
1163.753
1173.224
1171.834
1170.404
1168.927
1167.371
1165.634
1163.446
1174.706
1173.367
1171.988
1170.563
1169.078
1167.481
1165.591
1162.86
1176.208
1174.923
1173.597
1172.228
1170.806
1169.302
1167.624
1165.483
1161.874
1177.715
1176.486
1175.215
1173.903
1172.543
1171.117
1169.575
1167.774
1165.27
1160.434
1179.148
1177.973
1176.758
1175.501
1174.201
1172.848
1171.412
1169.822
1167.882
1164.978
1159.108
1180.465
1179.343
1178.179
1176.975
1175.73
1174.44
1173.088
1171.64
1170.006
1167.939
1164.748
1158.296
1181.657
1180.584
1179.47
1178.315
1177.12
1175.884
1174.597
1173.246
1171.788
1170.12
1167.962
1164.67
1157.895
1182.73
1181.704
1180.636
1179.527
1178.378
1177.188
1175.954
1174.669
1173.318
1171.855
1170.14
1167.974
1164.71
1157.931
1183.69
1182.707
1181.683
1180.618
1179.512
1178.366
1177.175
1175.941
1174.656
1173.306
1171.8
1170.081
1167.986
1164.868
1158.378
1184.544
1183.603
1182.621
1181.598
1180.533
1179.427
1178.277
1177.084
1175.847
1174.561
1173.165
1171.645
1169.985
1168.003
1165.132
1159.572
1185.298
1184.399
1183.457
1182.474
1181.449
1180.382
1179.271
1178.116
1176.918
1175.676
1174.345
1172.929
1171.455
1169.87
1168.033
1165.646
1161.326
1185.964
1185.104
1184.202
1183.258
1182.272
1181.243
1180.17
1179.053
1177.891
1176.686
1175.403
1174.055
1172.675
1171.253
1169.757
1168.135
1166.312
1163.159
1186.561
1185.739
1184.875
1183.97
1183.023
1182.033
1180.998
1179.918
1178.793
1177.625
1176.387
1175.092
1173.771
1172.428
1171.064
1169.672
1168.304
1166.878
1164.95
1187.126
1186.343
1185.518
1184.652
1183.745
1182.794
1181.799
1180.758
1179.671
1178.54
1177.347
1176.098
1174.818
1173.517
1172.206
1187.71
1186.966
1186.182
1185.357
1184.49
1183.581
1182.626
1181.627
1180.582
1179.491
1178.343
1177.143
1175.914
1174.665
1173.411
1188.31
1187.607
1186.864
1186.08
1185.255
1184.388
1183.477
1182.52
1181.518
1180.471
1179.368
1178.214
1177.031
1175.827
1174.613
1188.911
1188.248
1187.546
1186.804
1186.021
1185.198
1184.33
1183.417
1182.46
1181.457
1180.398
1179.287
1178.146
1176.98
1175.799
1189.499
1188.876
1188.215
1187.515
1186.775
1185.994
1185.17
1184.302
1183.389
1182.431
1181.416
1180.347
1179.244
1178.113
1176.962
1171.71
1170.273
1168.799
1167.275
1165.655
1163.902
1173.137
1171.744
1170.315
1168.845
1167.317
1165.668
1163.787
1174.56
1173.215
1171.831
1170.408
1168.938
1167.391
1165.661
1163.483
1175.988
1174.695
1173.36
1171.986
1170.568
1169.091
1167.499
1165.617
1162.902
1177.432
1176.193
1174.912
1173.591
1172.227
1170.811
1169.311
1167.637
1165.506
1161.924
1178.88
1177.696
1176.47
1175.203
1173.895
1172.54
1171.116
1169.577
1167.782
1165.289
1160.713
1180.255
1179.126
1177.955
1176.742
1175.489
1174.193
1172.841
1171.406
1169.819
1167.886
1165.065
1159.669
1181.519
1180.442
1179.322
1178.162
1176.961
1175.72
1174.429
1173.078
1171.631
1170
1167.945
1164.912
1158.855
1182.663
1181.634
1180.564
1179.453
1178.301
1177.108
1175.871
1174.585
1173.234
1171.778
1170.085
1167.973
1164.835
1158.411
1183.69
1182.707
1181.683
1180.618
1179.512
1178.366
1177.175
1175.941
1174.656
1173.306
1171.8
1170.081
1167.986
1164.868
1158.378
1184.606
1183.668
1182.688
1181.667
1180.604
1179.5
1178.353
1177.163
1175.928
1174.644
1173.244
1171.713
1170.03
1168
1165.014
1159.129
1185.419
1184.522
1183.585
1182.605
1181.584
1180.522
1179.415
1178.265
1177.072
1175.835
1174.501
1173.072
1171.575
1169.948
1168.021
1165.419
1160.497
1186.135
1185.278
1184.381
1183.442
1182.461
1181.439
1180.372
1179.26
1178.105
1176.907
1175.622
1174.26
1172.86
1171.405
1169.848
1168.088
1165.998
1162.019
1186.763
1185.946
1185.087
1184.188
1183.246
1182.263
1181.234
1180.161
1179.043
1177.882
1176.641
1175.332
1173.995
1172.629
1171.223
1169.739
1168.218
1166.541
1163.602
1187.323
1186.544
1185.724
1184.863
1183.96
1183.016
1182.026
1180.991
1179.911
1178.786
1177.59
1176.33
1175.041
1173.728
1172.396
1171.014
1169.675
1168.347
1166.983
1165.169
1187.851
1187.11
1186.329
1185.507
1184.644
1183.738
1182.788
1181.792
1180.752
1179.666
1178.514
1177.298
1176.046
1174.765
1173.461
1188.397
1187.695
1186.954
1186.172
1185.349
1184.484
1183.575
1182.621
1181.622
1180.577
1179.471
1178.306
1177.106
1175.88
1174.639
1188.958
1188.296
1187.595
1186.854
1186.073
1185.25
1184.384
1183.472
1182.516
1181.515
1180.454
1179.337
1178.186
1177.008
1175.814
1189.519
1188.897
1188.237
1187.537
1186.797
1186.017
1185.193
1184.326
1183.413
1182.456
1181.44
1180.368
1179.261
1178.126
1176.969
1190.068
1189.486
1188.865
1188.206
1187.508
1186.771
1185.99
1185.166
1184.298
1183.385
1182.413
1181.383
1180.318
1179.22
1178.097
1173.098
1171.704
1170.274
1168.808
1167.292
1165.681
1163.936
1174.477
1173.129
1171.742
1170.319
1168.857
1167.337
1165.694
1163.822
1175.849
1174.549
1173.21
1171.832
1170.415
1168.953
1167.411
1165.687
1163.52
1177.223
1175.975
1174.686
1173.357
1171.989
1170.577
1169.104
1167.517
1165.642
1162.944
1178.61
1177.416
1176.181
1174.904
1173.588
1172.229
1170.816
1169.319
1167.651
1165.529
1162.167
1179.999
1178.86
1177.68
1176.458
1175.195
1173.891
1172.537
1171.116
1169.579
1167.789
1165.384
1161.229
1181.318
1180.234
1179.107
1177.939
1176.73
1175.481
1174.185
1172.833
1171.4
1169.816
1167.902
1165.227
1160.191
1182.53
1181.497
1180.422
1179.306
1178.149
1176.951
1175.709
1174.419
1173.068
1171.623
1169.972
1167.963
1165.071
1159.342
1183.625
1182.641
1181.615
1180.547
1179.438
1178.289
1177.096
1175.859
1174.573
1173.223
1171.726
1170.031
1167.987
1164.99
1158.843
1184.606
1183.668
1182.688
1181.667
1180.604
1179.5
1178.353
1177.163
1175.928
1174.644
1173.244
1171.713
1170.03
1168
1165.014
1159.129
1185.48
1184.585
1183.649
1182.671
1181.653
1180.593
1179.488
1178.341
1177.15
1175.916
1174.58
1173.145
1171.637
1169.988
1168.016
1165.305
1160.087
1186.252
1185.399
1184.504
1183.569
1182.592
1181.574
1180.511
1179.404
1178.254
1177.061
1175.774
1174.404
1172.991
1171.514
1169.916
1168.064
1165.79
1161.267
1186.929
1186.115
1185.261
1184.366
1183.43
1182.451
1181.428
1180.361
1179.25
1178.095
1176.853
1175.534
1174.184
1172.799
1171.362
1169.805
1168.164
1166.277
1162.594
1187.519
1186.745
1185.929
1185.074
1184.176
1183.237
1182.254
1181.225
1180.152
1179.034
1177.836
1176.566
1175.267
1173.941
1172.587
1171.157
1169.718
1168.278
1166.718
1163.985
1188.043
1187.306
1186.529
1185.711
1184.853
1183.953
1183.008
1182.018
1180.983
1179.904
1178.749
1177.527
1176.271
1174.989
1173.684
1172.31
1170.979
1169.677
1168.383
1167.074
1165.378
1188.534
1187.835
1187.097
1186.318
1185.498
1184.637
1183.732
1182.781
1181.786
1180.746
1179.636
1178.457
1177.237
1175.98
1174.691
1189.042
1188.382
1187.683
1186.944
1186.164
1185.343
1184.479
1183.57
1182.616
1181.617
1180.554
1179.426
1178.259
1177.061
1175.839
1189.565
1188.944
1188.285
1187.586
1186.847
1186.068
1185.245
1184.379
1183.468
1182.512
1181.494
1180.416
1179.3
1178.153
1176.982
1190.088
1189.506
1188.886
1188.228
1187.53
1186.792
1186.012
1185.189
1184.321
1183.409
1182.436
1181.404
1180.334
1179.232
1178.103
1190.597
1190.055
1189.475
1188.856
1188.2
1187.504
1186.766
1185.985
1185.161
1184.294
1183.364
1182.375
1181.348
1180.286
1179.194
1174.44
1173.09
1171.702
1170.279
1168.82
1167.313
1165.708
1163.969
1175.771
1174.467
1173.124
1171.744
1170.327
1168.873
1167.359
1165.721
1163.856
1177.091
1175.837
1174.543
1173.208
1171.836
1170.426
1168.968
1167.431
1165.713
1163.557
1178.41
1177.209
1175.966
1174.681
1173.357
1171.995
1170.587
1169.117
1167.535
1165.668
1163.152
1179.74
1178.593
1177.404
1176.172
1174.9
1173.588
1172.232
1170.821
1169.328
1167.665
1165.644
1162.674
1181.072
1179.979
1178.844
1177.667
1176.449
1175.19
1173.887
1172.534
1171.115
1169.581
1167.827
1165.567
1161.757
1182.336
1181.297
1180.215
1179.092
1177.927
1176.722
1175.472
1174.177
1172.826
1171.395
1169.803
1167.938
1165.389
1160.667
1183.496
1182.508
1181.478
1180.406
1179.292
1178.138
1176.94
1175.698
1174.408
1173.058
1171.58
1169.931
1167.984
1165.222
1159.756
1184.544
1183.603
1182.621
1181.598
1180.533
1179.427
1178.277
1177.084
1175.847
1174.561
1173.165
1171.645
1169.985
1168.003
1165.132
1159.572
1185.48
1184.585
1183.649
1182.671
1181.653
1180.593
1179.488
1178.341
1177.15
1175.916
1174.58
1173.145
1171.637
1169.988
1168.016
1165.305
1160.087
1186.311
1185.459
1184.567
1183.633
1182.658
1181.642
1180.581
1179.476
1178.329
1177.138
1175.852
1174.478
1173.059
1171.571
1169.952
1168.054
1165.686
1160.894
1187.043
1186.232
1185.381
1184.489
1183.556
1182.581
1181.562
1180.499
1179.392
1178.242
1177
1175.676
1174.318
1172.921
1171.463
1169.856
1168.132
1166.097
1161.926
1187.681
1186.91
1186.098
1185.247
1184.354
1183.42
1182.441
1181.418
1180.351
1179.239
1178.04
1176.763
1175.456
1174.118
1172.747
1171.272
1169.759
1168.228
1166.504
1163.103
1188.234
1187.502
1186.729
1185.916
1185.063
1184.168
1183.228
1182.244
1181.216
1180.143
1178.987
1177.758
1176.497
1175.207
1173.892
1172.492
1171.082
1169.703
1168.328
1166.868
1164.349
1188.721
1188.026
1187.291
1186.517
1185.702
1184.845
1183.945
1183
1182.01
1180.976
1179.865
1178.681
1177.462
1176.212
1174.937
1173.573
1172.252
1170.96
1169.681
1168.415
1167.159
1165.592
1189.177
1188.519
1187.822
1187.086
1186.309
1185.492
1184.631
1183.725
1182.775
1181.78
1180.713
1179.573
1178.388
1177.16
1175.891
1189.648
1189.028
1188.37
1187.673
1186.936
1186.158
1185.338
1184.473
1183.564
1182.611
1181.591
1180.502
1179.371
1178.204
1177.007
1190.133
1189.552
1188.933
1188.275
1187.578
1186.842
1186.063
1185.24
1184.374
1183.463
1182.489
1181.451
1180.372
1179.259
1178.116
1190.617
1190.075
1189.495
1188.877
1188.221
1187.525
1186.788
1186.007
1185.184
1184.317
1183.387
1182.395
1181.364
1180.297
1179.2
1191.089
1190.585