/*--------------------------------*- C++ -*----------------------------------*\
| =========                 |                                                 |
| \\      /  F ield         | OpenFOAM: The Open Source CFD Toolbox           |
|  \\    /   O peration     | Version:  2306                                  |
|   \\  /    A nd           | Website:  www.openfoam.com                      |
|    \\/     M anipulation  |                                                 |
\*---------------------------------------------------------------------------*/
FoamFile
{
    version     2.0;
    format      ascii;
    arch        "LSB;label=32;scalar=64";
    class       volVectorField;
    location    "1.2/fuel";
    object      U;
}
// * * * * * * * * * * * * * * * * * * * * * * * * * * * * * * * * * * * * * //

dimensions      [0 1 -1 0 0 0 0];

internalField   nonuniform List<vector> 
16000
(
(9.215311e-05 7.022043e-05 -0.004652083)
(9.226427e-05 0.0001924349 -0.004723693)
(0.000165079 7.094075e-05 -0.003868894)
(9.025225e-05 7.482837e-05 -0.01477865)
(9.282773e-05 0.0003407919 -0.00486984)
(0.0001644992 0.0001986445 -0.003911381)
(9.025063e-05 0.0002034888 -0.01500428)
(0.0001283356 6.387619e-05 -0.003233552)
(0.0001614553 7.425798e-05 -0.01230642)
(8.358394e-05 8.144704e-05 -0.02195202)
(9.314819e-05 0.0004207281 -0.005095152)
(0.0001638694 0.0003486053 -0.003996376)
(9.058148e-05 0.0003597917 -0.01546456)
(0.0001269359 0.0001799027 -0.003262806)
(0.0001607007 0.0002062031 -0.01244056)
(8.333644e-05 0.0002221089 -0.02228506)
(9.710941e-05 5.653094e-05 -0.002762095)
(0.0001255027 6.645946e-05 -0.01029736)
(0.0001492793 7.833495e-05 -0.01829698)
(7.560573e-05 8.688932e-05 -0.03611732)
(9.531744e-05 0.0006139782 -0.005392915)
(0.0001619036 0.0004439206 -0.00412336)
(9.052132e-05 0.0004467094 -0.01617412)
(0.0001244646 0.0003140363 -0.003320808)
(0.0001597143 0.000361404 -0.0127088)
(8.315189e-05 0.0003915208 -0.0229644)
(9.578873e-05 0.0001596523 -0.002783806)
(0.000124003 0.0001856269 -0.01038987)
(0.000148166 0.0002171995 -0.01849525)
(7.506907e-05 0.0002438274 -0.03666322)
(7.491013e-05 5.035497e-05 -0.002402637)
(9.499338e-05 5.863282e-05 -0.008804625)
(0.0001159811 6.934249e-05 -0.01532278)
(0.0001351204 8.119772e-05 -0.03012215)
(6.269071e-05 0.000108765 -0.02939264)
(9.419467e-05 0.000481716 -0.005732143)
(0.0001621336 0.0006216448 -0.004283082)
(9.217867e-05 0.0006467932 -0.01711162)
(0.0001199043 0.0004021452 -0.00340632)
(0.0001571725 0.0004608867 -0.01310964)
(8.226487e-05 0.0004912798 -0.02401151)
(9.33862e-05 0.0002778236 -0.002826593)
(0.0001213333 0.000323682 -0.01057322)
(0.0001464349 0.0003796967 -0.01889176)
(7.427864e-05 0.0004285333 -0.03777645)
(7.380578e-05 0.0001424505 -0.002419477)
(9.36069e-05 0.0001642156 -0.008873372)
(0.0001143043 0.0001931926 -0.01545968)
(0.0001335901 0.0002300581 -0.03044736)
(6.150669e-05 0.0003036138 -0.02983587)
(5.96607e-05 4.523729e-05 -0.002119501)
(7.327256e-05 5.211726e-05 -0.007665372)
(8.783577e-05 6.08196e-05 -0.01311084)
(0.0001048999 7.112081e-05 -0.02524109)
(0.0001112586 9.624648e-05 -0.02451786)
(0.0005355812 0.0009947411 -0.05862198)
(9.811093e-05 0.0001286143 -0.005981482)
(0.0001561255 0.000506311 -0.004457089)
(9.039968e-05 0.000510852 -0.01818136)
(0.0001157919 0.0005540009 -0.003511465)
(0.0001566484 0.0006426806 -0.0136139)
(8.276552e-05 0.0007009635 -0.02539472)
(8.915254e-05 0.0003565771 -0.002889132)
(0.0001164608 0.000414778 -0.01084363)
(0.0001427151 0.0004856197 -0.01948432)
(7.242009e-05 0.0005432514 -0.03949338)
(7.177597e-05 0.0002473252 -0.002452512)
(9.107511e-05 0.0002854937 -0.009008801)
(0.000111275 0.0003361405 -0.01573103)
(0.0001309928 0.0004010947 -0.03109743)
(5.937505e-05 0.0005311233 -0.03074078)
(5.874076e-05 0.0001281222 -0.002132963)
(7.212164e-05 0.0001462149 -0.007718752)
(8.634286e-05 0.000169827 -0.01321267)
(0.0001030166 0.0002020564 -0.02546579)
(0.0001087437 0.0002698653 -0.02478177)
(0.0005239119 0.002820534 -0.05950855)
(4.866577e-05 4.095046e-05 -0.00189079)
(5.835712e-05 4.674711e-05 -0.006767261)
(6.77321e-05 5.384672e-05 -0.01142143)
(7.950068e-05 6.201379e-05 -0.02160952)
(8.617736e-05 8.25413e-05 -0.02054896)
(0.000951714 0.0008733695 -0.04889654)
(0.0005497093 0.001026305 -0.04134738)
(0.0001005579 6.366463e-05 -0.006140638)
(0.0001596446 0.0001896489 -0.004574791)
(9.3856e-05 0.0001461449 -0.01896431)
(0.000106517 0.0004544031 -0.003624026)
(0.0001496805 0.0005242186 -0.01416481)
(7.960655e-05 0.0005605526 -0.02697317)
(8.499291e-05 0.0004867851 -0.002964861)
(0.0001119648 0.0005696036 -0.01117622)
(0.0001405752 0.0006715158 -0.02022978)
(7.156314e-05 0.0007641143 -0.04176287)
(6.825735e-05 0.0003177847 -0.002500494)
(8.663958e-05 0.0003665516 -0.009206836)
(0.000105854 0.0004313419 -0.01613128)
(0.0001259031 0.0005145446 -0.03206956)
(5.53325e-05 0.0006844136 -0.03213631)
(5.704023e-05 0.0002220424 -0.002159275)
(7.000095e-05 0.0002536429 -0.007823428)
(8.359723e-05 0.0002946721 -0.01341329)
(9.956831e-05 0.000350744 -0.0259109)
(0.0001041294 0.0004682891 -0.02531013)
(0.0005024061 0.004930692 -0.06131528)
(4.78913e-05 0.0001160793 -0.001901805)
(5.740257e-05 0.000131304 -0.006809975)
(6.651023e-05 0.0001505648 -0.01150056)
(7.788359e-05 0.0001764112 -0.02177676)
(8.374904e-05 0.0002317385 -0.02073126)
(0.00092763 0.002483178 -0.04942461)
(0.0005370692 0.002987246 -0.04197648)
(4.055895e-05 3.732077e-05 -0.001702152)
(4.760375e-05 4.226564e-05 -0.006041248)
(5.394068e-05 4.815499e-05 -0.01008879)
(6.127697e-05 5.46813e-05 -0.01883482)
(6.544549e-05 7.113653e-05 -0.01759602)
(0.0007367497 0.0007466053 -0.04098205)
(0.000981185 0.0008997545 -0.03447518)
(0.0005369284 0.001061834 -0.04589625)
(0.0001025145 8.743881e-06 -0.006230447)
(0.0001616703 0.0001056317 -0.004646329)
(9.599783e-05 7.405775e-05 -0.01946334)
(0.0001052777 0.0001827488 -0.003695954)
(0.0001525573 0.000199518 -0.01453563)
(8.197722e-05 0.000180153 -0.02812668)
(7.692141e-05 0.0004002571 -0.003045136)
(0.0001022053 0.0004674435 -0.01153354)
(0.0001317141 0.0005493509 -0.02104456)
(6.678522e-05 0.0006184605 -0.04436024)
(6.470003e-05 0.0004310639 -0.002557922)
(8.223862e-05 0.0004990922 -0.009446729)
(0.0001006449 0.000588586 -0.01662364)
(0.0001218852 0.0007052383 -0.03329313)
(5.15065e-05 0.0009414207 -0.0339827)
(5.41214e-05 0.0002854618 -0.002197305)
(6.634101e-05 0.000325961 -0.00797554)
(7.884025e-05 0.000378617 -0.01370669)
(9.350806e-05 0.0004507545 -0.02656793)
(9.579571e-05 0.0006040031 -0.02609996)
(0.0004622924 0.006370098 -0.06410932)
(4.645432e-05 0.0002008683 -0.001923271)
(5.563479e-05 0.0002273775 -0.006893427)
(6.424795e-05 0.0002607226 -0.01165575)
(7.488836e-05 0.0003054483 -0.02210603)
(7.921264e-05 0.0004005706 -0.02109303)
(0.0008827749 0.004305753 -0.0504789)
(0.0005136646 0.005221648 -0.04325832)
(3.98992e-05 0.000105859 -0.001711334)
(4.680261e-05 0.0001188193 -0.006076233)
(5.293593e-05 0.0001347799 -0.01015216)
(5.997221e-05 0.0001556755 -0.01896486)
(6.34758e-05 0.0001998191 -0.01773168)
(0.0007141911 0.002124315 -0.04134697)
(0.0009553967 0.002622123 -0.03485006)
(0.0005236855 0.003040648 -0.04659672)
(3.435807e-05 3.420695e-05 -0.001543971)
(3.967829e-05 3.848149e-05 -0.00544204)
(4.400025e-05 4.343763e-05 -0.009010931)
(4.8793e-05 4.875148e-05 -0.01664531)
(5.037375e-05 6.221756e-05 -0.01533969)
(0.0005598056 0.0006422162 -0.03509523)
(0.0007594272 0.0007686624 -0.02888644)
(0.0009547292 0.0009260388 -0.03826182)
(0.0005240034 0.001068935 -0.04659828)
(0.0001034043 2.819259e-06 -0.006270469)
(0.0001637711 3.597629e-05 -0.004685262)
(9.778564e-05 1.380972e-05 -0.01974475)
(0.0001041948 0.0001039137 -0.003737817)
(0.0001541603 0.0001113034 -0.01476082)
(8.340535e-05 9.451687e-05 -0.0288612)
(7.508149e-05 0.0001660577 -0.003094247)
(0.0001006818 0.0001895868 -0.0117606)
(0.0001331324 0.0002156696 -0.02159244)
(6.788514e-05 0.000219736 -0.0462502)
(5.815994e-05 0.0003547967 -0.002618444)
(7.386063e-05 0.0004104322 -0.009702061)
(9.008972e-05 0.0004835264 -0.0171529)
(0.0001108233 0.0005787371 -0.03463541)
(4.298145e-05 0.0007767689 -0.03609213)
(5.112456e-05 0.0003853163 -0.002242391)
(6.261746e-05 0.0004411548 -0.008157675)
(7.403095e-05 0.0005127714 -0.01406219)
(8.746804e-05 0.0006108356 -0.02737652)
(8.747679e-05 0.0008152065 -0.02709491)
(0.0004226495 0.00872952 -0.06780573)
(4.400565e-05 0.0002583125 -0.001954175)
(5.261165e-05 0.0002923419 -0.007014111)
(6.037724e-05 0.000335188 -0.01188129)
(6.975601e-05 0.0003927815 -0.02258796)
(7.144984e-05 0.0005162234 -0.02162677)
(0.0008024866 0.005558714 -0.05206064)
(0.0004702231 0.006751415 -0.04526656)
(3.86719e-05 0.0001829498 -0.001729178)
(4.531402e-05 0.0002054601 -0.006144373)
(5.106848e-05 0.0002330126 -0.01027596)
(5.754444e-05 0.0002690466 -0.01921969)
(5.978406e-05 0.0003446231 -0.01799932)
(0.0006716962 0.003669435 -0.0420687)
(0.0009072367 0.004546136 -0.0355986)
(0.0004990226 0.005314068 -0.04802368)
(3.378963e-05 9.707591e-05 -0.001551739)
(3.899743e-05 0.0001082534 -0.005471223)
(4.316216e-05 0.0001216628 -0.009062858)
(4.772955e-05 0.0001388687 -0.0167495)
(4.88221e-05 0.0001748143 -0.01544517)
(0.0005416615 0.001827817 -0.03536693)
(0.0007355014 0.002240517 -0.0291456)
(0.000928003 0.002656129 -0.03867936)
(0.0005101459 0.003096396 -0.04731536)
(2.953438e-05 3.151071e-05 -0.001409458)
(3.361673e-05 3.524226e-05 -0.004939257)
(3.668181e-05 3.947441e-05 -0.008120887)
(3.979858e-05 4.386979e-05 -0.01487377)
(4.009159e-05 5.512767e-05 -0.01355909)
(0.0004307357 0.0005609272 -0.0305979)
(0.0005771483 0.0006608328 -0.0247312)
(0.0007387206 0.0007894514 -0.0320555)
(0.000933292 0.0009290395 -0.03883675)
(0.0005495591 0.001196069 -0.03939387)
(0.0001034043 -2.819259e-06 -0.006270469)
(0.0001647288 1.129147e-05 -0.004702243)
(9.859957e-05 4.372293e-06 -0.01987009)
(0.0001042531 3.880937e-05 -0.003759621)
(0.0001560307 3.861731e-05 -0.01488343)
(8.478355e-05 2.435437e-05 -0.02927517)
(7.364768e-05 9.513463e-05 -0.003121871)
(9.941511e-05 0.000107758 -0.01189265)
(0.0001337859 0.0001206719 -0.02192506)
(6.847896e-05 0.0001183146 -0.04745222)
(5.643755e-05 0.0001498882 -0.002654119)
(7.185454e-05 0.0001712197 -0.009857284)
(8.799143e-05 0.0001994509 -0.01748894)
(0.0001105484 0.0002345454 -0.03553271)
(4.139662e-05 0.0003171352 -0.03763179)
(4.578747e-05 0.0003172706 -0.002289748)
(5.58653e-05 0.0003630778 -0.008350492)
(6.520652e-05 0.0004217924 -0.01444077)
(7.598542e-05 0.0005023782 -0.02824945)
(7.102955e-05 0.0006726638 -0.02818261)
(0.0003396586 0.007224855 -0.07209881)
(4.146651e-05 0.0003472968 -0.001990517)
(4.949352e-05 0.0003938148 -0.007157253)
(5.639019e-05 0.0004515381 -0.01215141)
(6.44701e-05 0.0005288331 -0.02317209)
(6.328953e-05 0.000690905 -0.02228417)
(0.00072041 0.007481053 -0.05405178)
(0.0004267549 0.009246449 -0.0479043)
(3.659243e-05 0.0002352988 -0.001754783)
(4.278544e-05 0.000264218 -0.006242527)
(4.789807e-05 0.0002996354 -0.01045503)
(5.342729e-05 0.0003460362 -0.01959036)
(5.357119e-05 0.0004438473 -0.0183908)
(0.0005992711 0.0047312 -0.04313805)
(0.0008212418 0.005870858 -0.03674297)
(0.0004535257 0.00687995 -0.0502686)
(3.273014e-05 0.0001675883 -0.001566804)
(3.772937e-05 0.000186961 -0.005527911)
(4.16005e-05 0.0002100553 -0.009164007)
(4.574549e-05 0.0002396469 -0.0169529)
(4.590981e-05 0.0003010172 -0.01565233)
(0.0005074173 0.003150341 -0.03590086)
(0.0006903786 0.003869753 -0.02965836)
(0.000877909 0.004604071 -0.03951286)
(0.0004841994 0.005411027 -0.04877273)
(2.903989e-05 8.946068e-05 -0.001416115)
(3.30312e-05 9.91932e-05 -0.004963969)
(3.597288e-05 0.0001106229 -0.008164224)
(3.891724e-05 0.0001250115 -0.0149592)
(3.884612e-05 0.0001549214 -0.01364359)
(0.0004164958 0.001596702 -0.03080926)
(0.0005579565 0.001926504 -0.02492424)
(0.0007142996 0.002265185 -0.03234425)
(0.0009056617 0.002693418 -0.03926495)
(0.0005337781 0.003432577 -0.03999503)
(2.568821e-05 2.915289e-05 -0.001293727)
(2.890273e-05 3.24423e-05 -0.004511453)
(3.108625e-05 3.609569e-05 -0.007373725)
(3.31868e-05 3.978921e-05 -0.01341041)
(3.26923e-05 4.936448e-05 -0.01211826)
(0.0003427729 0.0004964824 -0.02704909)
(0.0004440304 0.0005769478 -0.02155782)
(0.0005616002 0.0006779666 -0.02744213)
(0.0007219315 0.0007908813 -0.03253048)
(0.0009759294 0.001033615 -0.03282405)
(0.004560174 0.0111393 -0.1033519)
(0.0001025145 -8.743881e-06 -0.006230447)
(0.0001647288 -1.129147e-05 -0.004702243)
(9.859957e-05 -4.372293e-06 -0.01987009)
(0.0001042854 1.221077e-05 -0.003768812)
(0.0001568851 1.209517e-05 -0.01493691)
(8.541354e-05 7.599642e-06 -0.02945948)
(7.331285e-05 3.678034e-05 -0.003135719)
(9.937775e-05 4.053396e-05 -0.01196149)
(0.0001351136 4.332989e-05 -0.02210618)
(6.937898e-05 3.660991e-05 -0.04812941)
(5.512821e-05 8.617032e-05 -0.002673611)
(7.031503e-05 9.799601e-05 -0.00994452)
(8.636059e-05 0.0001132734 -0.01768438)
(0.0001101002 0.0001316199 -0.0360769)
(4.022359e-05 0.000176117 -0.03861039)
(4.42751e-05 0.0001356708 -0.002316732)
(5.403357e-05 0.0001539857 -0.008463345)
(6.289252e-05 0.000177934 -0.01467077)
(7.32178e-05 0.0002110119 -0.0287998)
(6.705021e-05 0.000287566 -0.02891368)
(0.0003205525 0.003010881 -0.07515888)
(3.704489e-05 0.000285994 -0.002028622)
(4.400092e-05 0.0003242069 -0.007308336)
(4.935375e-05 0.0003715651 -0.01243753)
(5.512421e-05 0.0004351343 -0.02379717)
(4.918738e-05 0.0005693914 -0.02299058)
(0.0005638264 0.006179107 -0.056282)
(0.0003373492 0.007658891 -0.05125209)
(3.442132e-05 0.0003153272 -0.001784682)
(4.015418e-05 0.0003545997 -0.006358016)
(4.459806e-05 0.0004019777 -0.01066746)
(4.913229e-05 0.0004637486 -0.02003445)
(4.697564e-05 0.0005911792 -0.01886569)
(0.0005225329 0.006316872 -0.04445387)
(0.0007327374 0.007898201 -0.03817152)
(0.0004072319 0.009413968 -0.0532141)
(3.094338e-05 0.0002155489 -0.001588359)
(3.558683e-05 0.0002404467 -0.005609303)
(3.896455e-05 0.000270131 -0.009309734)
(4.24027e-05 0.0003082221 -0.01724735)
(4.104477e-05 0.0003874815 -0.01595343)
(0.0004499576 0.004058538 -0.03668562)
(0.0006135565 0.004990368 -0.03043585)
(0.0007887985 0.005948728 -0.04079467)
(0.000436593 0.00701365 -0.05109507)
(2.811687e-05 0.0001542965 -0.001428997)
(3.193877e-05 0.0001711347 -0.005011862)
(3.464951e-05 0.00019078 -0.008248422)
(3.727e-05 0.0002154719 -0.01512547)
(3.650657e-05 0.0002664309 -0.01380897)
(0.0003895978 0.002747718 -0.03122256)
(0.0005217048 0.003320126 -0.02530379)
(0.0006681807 0.003911583 -0.03291535)
(0.0008536971 0.004668085 -0.04011711)
(0.0005038557 0.005998233 -0.04122775)
(2.525424e-05 8.279422e-05 -0.001299492)
(2.839413e-05 9.13514e-05 -0.004532643)
(3.047886e-05 0.000101198 -0.007410442)
(3.244499e-05 0.0001134164 -0.01348175)
(3.167181e-05 0.0001387423 -0.01218755)
(0.0003313712 0.00141339 -0.02721852)
(0.0004289864 0.001682115 -0.02170805)
(0.0005420971 0.001945577 -0.02765727)
(0.0006970096 0.002293077 -0.03282701)
(0.0009448175 0.002968657 -0.03318142)
(0.004411098 0.0321326 -0.1051102)
(2.258285e-05 2.707554e-05 -0.001193139)
(2.514425e-05 2.999736e-05 -0.00414317)
(2.673783e-05 3.318467e-05 -0.006737714)
(2.813389e-05 3.632465e-05 -0.01218154)
(2.727761e-05 4.459317e-05 -0.01092795)
(0.0002794909 0.0004442033 -0.02417756)
(0.0003533402 0.000510497 -0.01905443)
(0.0004319853 0.0005914643 -0.02391949)
(0.0005490165 0.0006785931 -0.0278444)
(0.000754612 0.0008778434 -0.02748878)
(0.008085903 0.009529669 -0.08607427)
(0.004692907 0.01107586 -0.01057762)
(0.0001005579 -6.366463e-05 -0.006140638)
(0.0001637711 -3.597629e-05 -0.004685262)
(9.778564e-05 -1.380972e-05 -0.01974475)
(0.0001042854 -1.221077e-05 -0.003768812)
(0.0001568851 -1.209517e-05 -0.01493691)
(8.541354e-05 -7.599642e-06 -0.02945948)
(7.315965e-05 1.157827e-05 -0.003141369)
(9.936728e-05 1.273039e-05 -0.01199052)
(0.0001357246 1.352065e-05 -0.02218519)
(6.979438e-05 1.135e-05 -0.04843089)
(5.474e-05 3.392935e-05 -0.002683048)
(6.992773e-05 3.802991e-05 -0.009988304)
(8.611737e-05 4.321759e-05 -0.01778632)
(0.0001107991 4.883387e-05 -0.03637326)
(4.014042e-05 6.512339e-05 -0.03916162)
(4.314091e-05 7.814209e-05 -0.002331091)
(5.265542e-05 8.841932e-05 -0.008524941)
(6.116411e-05 0.000101637 -0.01480005)
(7.116292e-05 0.00011974 -0.0291195)
(6.41814e-05 0.0001621249 -0.02935688)
(0.0003068368 0.001678636 -0.07710151)
(3.573272e-05 0.0001233608 -0.002049656)
(4.241139e-05 0.0001390347 -0.007393756)
(4.733252e-05 0.000158842 -0.0126049)
(5.245086e-05 0.0001858216 -0.02417384)
(4.482203e-05 0.0002469192 -0.02343922)
(0.0005215703 0.002666633 -0.05772464)
(0.0003155903 0.00320702 -0.05332959)
(3.070431e-05 0.0002596562 -0.00181601)
(3.561382e-05 0.0002919293 -0.006479736)
(3.8911e-05 0.0003307899 -0.01089181)
(4.17633e-05 0.0003815498 -0.02050732)
(3.60078e-05 0.0004866707 -0.01937101)
(0.0003918647 0.005208097 -0.04591123)
(0.0005654584 0.006524816 -0.03999955)
(0.0003141658 0.007807769 -0.05706974)
(2.906849e-05 0.0002880727 -0.001613372)
(3.334357e-05 0.0003217012 -0.005704398)
(3.620199e-05 0.0003611904 -0.009481238)
(3.888986e-05 0.0004115904 -0.01759678)
(3.585833e-05 0.0005143402 -0.01631447)
(0.0003886595 0.005394083 -0.03763647)
(0.0005319714 0.006661241 -0.03138374)
(0.0006961162 0.007998623 -0.04239318)
(0.0003874518 0.00959246 -0.05412618)
(2.656633e-05 0.0001984494 -0.001447384)
(3.010108e-05 0.0002200923 -0.005080433)
(3.242607e-05 0.0002453361 -0.008369328)
(3.450825e-05 0.0002771013 -0.01536522)
(3.261676e-05 0.0003428009 -0.01404816)
(0.0003447791 0.003537533 -0.03182653)
(0.0004609222 0.004277757 -0.02587671)
(0.0005897964 0.005045823 -0.03378757)
(0.0007615433 0.006034307 -0.04145162)
(0.0004493253 0.007787549 -0.04318052)
(2.444325e-05 0.0001426815 -0.001310628)
(2.7444e-05 0.0001574632 -0.004573625)
(2.93435e-05 0.0001743585 -0.007481613)
(3.105678e-05 0.0001952869 -0.01362022)
(2.975381e-05 0.0002383643 -0.01232275)
(0.0003098234 0.002429316 -0.02754851)
(0.0004005498 0.002894467 -0.02200203)
(0.0005052258 0.003352394 -0.02808012)
(0.0006498766 0.003959298 -0.03341142)
(0.0008857738 0.005144523 -0.03390135)
(0.004109134 0.05611061 -0.1085198)
(2.219913e-05 7.691574e-05 -0.001198178)
(2.469847e-05 8.449653e-05 -0.004161535)
(2.621187e-05 9.306922e-05 -0.006769212)
(2.750088e-05 0.000103564 -0.01224202)
(2.642632e-05 0.0001253434 -0.01098581)
(0.0002701665 0.001264635 -0.02431657)
(0.0003413043 0.001488458 -0.01917491)
(0.0004167272 0.001697457 -0.02408697)
(0.0005291892 0.001967627 -0.0280656)
(0.0007270144 0.002521493 -0.02773545)
(0.007796368 0.02748297 -0.08715955)
(0.004545461 0.03229135 -0.01103107)
(2.003172e-05 2.52315e-05 -0.001104945)
(2.211024e-05 2.784587e-05 -0.003822905)
(2.327159e-05 3.064973e-05 -0.006189968)
(2.421132e-05 3.334954e-05 -0.01113513)
(2.314531e-05 4.057418e-05 -0.009928261)
(0.0002332351 0.0004009904 -0.0218053)
(0.0002881021 0.0004566235 -0.01702926)
(0.000343734 0.0005230416 -0.02114093)
(0.0004222323 0.0005916315 -0.02426719)
(0.0005741584 0.0007522476 -0.02352554)
(0.006246967 0.008059274 -0.07205529)
(0.008346415 0.00950088 -0.008768151)
(0.004533767 0.01138701 -0.03045503)
(9.811093e-05 -0.0001286143 -0.005981482)
(0.0001616703 -0.0001056317 -0.004646329)
(9.599783e-05 -7.405775e-05 -0.01946334)
(0.0001042531 -3.880937e-05 -0.003759621)
(0.0001560307 -3.861731e-05 -0.01488343)
(8.478355e-05 -2.435437e-05 -0.02927517)
(7.315965e-05 -1.157827e-05 -0.003141369)
(9.936728e-05 -1.273039e-05 -0.01199052)
(0.0001357246 -1.352065e-05 -0.02218519)
(6.979438e-05 -1.135e-05 -0.04843089)
(5.456068e-05 1.067878e-05 -0.002686778)
(6.975141e-05 1.195211e-05 -0.01000618)
(8.601464e-05 1.352578e-05 -0.01782933)
(0.0001111281 1.518578e-05 -0.03650259)
(4.011535e-05 2.008378e-05 -0.03940702)
(4.277204e-05 3.112228e-05 -0.002337811)
(5.223422e-05 3.489114e-05 -0.008554801)
(6.0673e-05 3.974844e-05 -0.01486498)
(7.068013e-05 4.636266e-05 -0.02928629)
(6.354834e-05 6.328154e-05 -0.02959826)
(0.0003042912 0.000633673 -0.07819602)
(3.47579e-05 7.112584e-05 -0.002060572)
(4.122897e-05 7.997481e-05 -0.007439145)
(4.584103e-05 9.098164e-05 -0.01269627)
(5.050189e-05 0.0001059174 -0.02438527)
(4.174043e-05 0.0001398963 -0.02369977)
(0.0004915683 0.001504463 -0.05859677)
(0.0003000781 0.001789935 -0.05464251)
(2.956556e-05 0.0001127377 -0.001832786)
(3.424458e-05 0.0001261919 -0.006546358)
(3.719542e-05 0.0001426897 -0.01101858)
(3.952053e-05 0.0001645589 -0.02078142)
(3.241641e-05 0.0002124577 -0.01967825)
(0.0003499581 0.002272457 -0.04679203)
(0.0005190268 0.002820167 -0.04094685)
(0.0002898427 0.00329384 -0.05934496)
(2.590186e-05 0.000237185 -0.001639581)
(2.953302e-05 0.0002648193 -0.005804586)
(3.152215e-05 0.0002971817 -0.009662079)
(3.297505e-05 0.0003385463 -0.0179679)
(2.738217e-05 0.0004230077 -0.0166964)
(0.0002877773 0.004441219 -0.03868461)
(0.0003935437 0.005492013 -0.03262105)
(0.000523452 0.00660955 -0.04453146)
(0.000290541 0.007964143 -0.05840999)
(2.493311e-05 0.0002646033 -0.001468598)
(2.816827e-05 0.0002937057 -0.005160047)
(3.008468e-05 0.0003271337 -0.008510624)
(3.15919e-05 0.0003689616 -0.01564746)
(2.845983e-05 0.0004538271 -0.01433226)
(0.0002968253 0.004686473 -0.03254976)
(0.0003959872 0.005684447 -0.02656408)
(0.000506241 0.006732933 -0.03484997)
(0.0006648531 0.008112314 -0.04310576)
(0.000392025 0.0106488 -0.04574111)
(2.308546e-05 0.0001835013 -0.00132649)
(2.585154e-05 0.0002025005 -0.004632159)
(2.744327e-05 0.0002242014 -0.007583526)
(2.873846e-05 0.0002511068 -0.01381923)
(2.657625e-05 0.0003065613 -0.01251752)
(0.0002740798 0.003125897 -0.0280286)
(0.0003531974 0.003726748 -0.02244466)
(0.0004434791 0.004320176 -0.0287237)
(0.0005698803 0.005108854 -0.0343238)
(0.0007814785 0.006654905 -0.03501937)
(0.003567007 0.0730676 -0.1147237)
(2.148135e-05 0.0001324551 -0.001207896)
(2.386481e-05 0.0001455326 -0.004196988)
(2.522771e-05 0.0001602199 -0.006830142)
(2.631516e-05 0.0001781672 -0.01235912)
(2.482573e-05 0.0002151621 -0.01109842)
(0.0002525381 0.0021715 -0.02458638)
(0.0003185437 0.00255816 -0.01940977)
(0.0003878673 0.002920393 -0.02441459)
(0.0004916666 0.003390055 -0.02849863)
(0.0006745085 0.004353294 -0.02822878)
(0.00721755 0.04758875 -0.08918963)
(0.004246435 0.056837 -0.01195148)
(1.969008e-05 7.169379e-05 -0.001109385)
(2.17165e-05 7.84592e-05 -0.003838967)
(2.281178e-05 8.598439e-05 -0.006217279)
(2.366499e-05 9.509846e-05 -0.01118704)
(2.242417e-05 0.0001140541 -0.009977303)
(0.0002254684 0.001141654 -0.02192145)
(0.0002782648 0.001331419 -0.01712816)
(0.0003315425 0.001501145 -0.0212753)
(0.0004067472 0.001715525 -0.0244396)
(0.0005523125 0.002160736 -0.02370905)
(0.005997122 0.02323714 -0.07282487)
(0.008058754 0.02769129 -0.009100825)
(0.004378635 0.03297103 -0.03134016)
(1.791467e-05 2.358454e-05 -0.00102702)
(1.961786e-05 2.593803e-05 -0.003541957)
(2.047486e-05 2.842415e-05 -0.005713454)
(2.108557e-05 3.076602e-05 -0.01023363)
(1.994748e-05 3.71452e-05 -0.009076888)
(0.0001979467 0.0003646386 -0.01981289)
(0.0002404349 0.0004121153 -0.01535654)
(0.0002802604 0.0004676306 -0.0188934)
(0.0003359562 0.0005229303 -0.02144618)
(0.0004414578 0.0006552627 -0.0205009)
(0.004758804 0.00688935 -0.06164848)
(0.006450058 0.008043946 -0.007317316)
(0.008042969 0.00972259 -0.02531655)
(0.004492426 0.0114596 -0.0112358)
(9.419467e-05 -0.000481716 -0.005732143)
(0.0001596446 -0.0001896489 -0.004574791)
(9.3856e-05 -0.0001461449 -0.01896431)
(0.0001041948 -0.0001039137 -0.003737817)
(0.0001541603 -0.0001113034 -0.01476082)
(8.340535e-05 -9.451687e-05 -0.0288612)
(7.331285e-05 -3.678034e-05 -0.003135719)
(9.937775e-05 -4.053396e-05 -0.01196149)
(0.0001351136 -4.332989e-05 -0.02210618)
(6.937898e-05 -3.660991e-05 -0.04812941)
(5.456068e-05 -1.067878e-05 -0.002686778)
(6.975141e-05 -1.195211e-05 -0.01000618)
(8.601464e-05 -1.352578e-05 -0.01782933)
(0.0001111281 -1.518578e-05 -0.03650259)
(4.011535e-05 -2.008378e-05 -0.03940702)
(4.260137e-05 9.791406e-06 -0.002340381)
(5.204055e-05 1.096506e-05 -0.008566606)
(6.045105e-05 1.245141e-05 -0.01489151)
(7.047004e-05 1.445837e-05 -0.02935668)
(6.328089e-05 1.957914e-05 -0.02970362)
(0.0003032611 0.0001953052 -0.0786834)
(3.442448e-05 2.854874e-05 -0.00206551)
(4.083761e-05 3.189275e-05 -0.007460418)
(4.535907e-05 3.606605e-05 -0.0127406)
(4.988964e-05 4.176822e-05 -0.02449148)
(4.07124e-05 5.555607e-05 -0.02383574)
(0.0004835095 0.0005919023 -0.05907165)
(0.0002967657 0.0006795701 -0.05538344)
(2.872562e-05 6.504144e-05 -0.001841279)
(3.323425e-05 7.265935e-05 -0.006580868)
(3.593916e-05 8.185379e-05 -0.01108595)
(3.789645e-05 9.400151e-05 -0.02093081)
(2.98887e-05 0.0001206187 -0.0198507)
(0.0003205634 0.001287138 -0.0473012)
(0.000486185 0.001591282 -0.04151125)
(0.0002726437 0.001841496 -0.06077699)
(2.49085e-05 0.0001035095 -0.001653209)
(2.835053e-05 0.0001151659 -0.005857743)
(3.006471e-05 0.0001290257 -0.009761016)
(3.111192e-05 0.000147001 -0.01817552)
(2.454319e-05 0.0001853927 -0.01692013)
(0.0002540138 0.001947673 -0.03928529)
(0.0003487606 0.002397675 -0.03318284)
(0.0004734328 0.002863426 -0.0455547)
(0.0002637243 0.003378586 -0.06063116)
(2.220497e-05 0.0002178273 -0.001490843)
(2.492615e-05 0.0002417353 -0.005243958)
(2.617038e-05 0.0002691024 -0.00865955)
(2.674853e-05 0.0003033794 -0.01594688)
(2.174183e-05 0.0003729316 -0.01463176)
(0.0002191232 0.003854297 -0.03334601)
(0.0002893631 0.004679888 -0.02747958)
(0.0003652651 0.005550986 -0.03631252)
(0.000486778 0.00670453 -0.04556869)
(0.0002817059 0.008852769 -0.04929108)
(2.165095e-05 0.0002441815 -0.001344693)
(2.417089e-05 0.0002696324 -0.004699732)
(2.543513e-05 0.0002982597 -0.00770188)
(2.628202e-05 0.0003335471 -0.01405187)
(2.317496e-05 0.0004049835 -0.012747)
(0.0002357708 0.004130821 -0.028598)
(0.0003024795 0.004936554 -0.02296923)
(0.0003773608 0.005739511 -0.02949522)
(0.0004843327 0.006817008 -0.03542777)
(0.0006707899 0.008948184 -0.03641363)
(0.002977409 0.09937457 -0.1224151)
(2.028306e-05 0.0001703374 -0.001221712)
(2.247196e-05 0.0001871443 -0.004247515)
(2.358586e-05 0.0002060003 -0.006917179)
(2.434151e-05 0.0002290566 -0.01252695)
(2.218165e-05 0.0002766183 -0.0112601)
(0.0002233948 0.002792832 -0.02497757)
(0.0002808096 0.003291854 -0.01976293)
(0.0003398595 0.003760628 -0.02491244)
(0.000428891 0.004369578 -0.02917448)
(0.0005855547 0.005619806 -0.02899121)
(0.006204631 0.06163595 -0.09298998)
(0.003700163 0.07416613 -0.01648053)
(1.905052e-05 0.0001233833 -0.001117936)
(2.097951e-05 0.0001350403 -0.003869926)
(2.195069e-05 0.0001479161 -0.006270012)
(2.264089e-05 0.0001634803 -0.01128733)
(2.106793e-05 0.0001956425 -0.01007255)
(0.0002107816 0.001958725 -0.02214623)
(0.0002596565 0.002286034 -0.01732032)
(0.0003084759 0.002579589 -0.02153712)
(0.0003774333 0.002951233 -0.02477536)
(0.0005107523 0.003722506 -0.02407438)
(0.005500732 0.04008909 -0.07423543)
(0.007482843 0.04831555 -0.009780235)
(0.004064214 0.05880745 -0.03305343)
(1.760866e-05 6.702717e-05 -0.001030961)
(1.926762e-05 7.310169e-05 -0.003556119)
(2.006961e-05 7.975987e-05 -0.005737351)
(2.060929e-05 8.774362e-05 -0.01027866)
(1.932887e-05 0.0001044204 -0.00911898)
(0.0001913757 0.001038184 -0.01991141)
(0.0002322449 0.00120166 -0.01543922)
(0.0002703057 0.001342136 -0.01900373)
(0.0003235973 0.00151633 -0.02158466)
(0.0004244352 0.001882119 -0.02064357)
(0.004562757 0.01986058 -0.06223379)
(0.006199912 0.02343873 -0.007579373)
(0.007743433 0.02814218 -0.02593366)
(0.004334435 0.03329063 -0.01178392)
(1.613551e-05 2.210502e-05 -0.0009577022)
(1.75498e-05 2.423563e-05 -0.003293597)
(1.817781e-05 2.645454e-05 -0.005295283)
(1.856538e-05 2.850314e-05 -0.009449099)
(1.740187e-05 3.418399e-05 -0.008343325)
(0.0001706602 0.0003336571 -0.01811601)
(0.0002040738 0.0003746887 -0.0139519)
(0.0002339136 0.00042189 -0.01703716)
(0.000273912 0.000467346 -0.0191647)
(0.000351229 0.0005787753 -0.01811612)
(0.003657001 0.005990713 -0.05371041)
(0.004912219 0.006880276 -0.006245079)
(0.00621407 0.008215957 -0.02117018)
(0.007974493 0.00977403 -0.009322997)
(0.004400472 0.01144385 -0.005753728)
(9.531743e-05 -0.0006139782 -0.005392915)
(0.0001561255 -0.000506311 -0.004457089)
(9.039968e-05 -0.000510852 -0.01818136)
(0.0001052777 -0.0001827488 -0.003695954)
(0.0001525573 -0.000199518 -0.01453563)
(8.197722e-05 -0.000180153 -0.02812668)
(7.364768e-05 -9.513463e-05 -0.003121871)
(9.941511e-05 -0.000107758 -0.01189265)
(0.0001337859 -0.0001206719 -0.02192506)
(6.847896e-05 -0.0001183146 -0.04745222)
(5.474e-05 -3.392935e-05 -0.002683048)
(6.992773e-05 -3.802991e-05 -0.009988304)
(8.611737e-05 -4.321759e-05 -0.01778632)
(0.0001107991 -4.883387e-05 -0.03637326)
(4.014042e-05 -6.512339e-05 -0.03916162)
(4.260137e-05 -9.791406e-06 -0.002340381)
(5.204055e-05 -1.096506e-05 -0.008566606)
(6.045105e-05 -1.245141e-05 -0.01489151)
(7.047004e-05 -1.445837e-05 -0.02935668)
(6.328089e-05 -1.957914e-05 -0.02970362)
(0.0003032611 -0.0001953052 -0.0786834)
(3.427027e-05 8.977778e-06 -0.002067332)
(4.065725e-05 1.001985e-05 -0.007468554)
(4.513918e-05 1.129965e-05 -0.01275814)
(4.961442e-05 1.303868e-05 -0.02453487)
(4.025815e-05 1.722153e-05 -0.02389315)
(0.0004800447 0.0001829883 -0.05927891)
(0.0002953968 0.0002094188 -0.05571326)
(2.842917e-05 2.625479e-05 -0.001844988)
(3.288464e-05 2.918421e-05 -0.006596498)
(3.550905e-05 3.272964e-05 -0.01111756)
(3.734343e-05 3.745063e-05 -0.02100329)
(2.898203e-05 4.828227e-05 -0.01993737)
(0.0003103903 0.0005133794 -0.04756653)
(0.0004769527 0.0006273848 -0.04181804)
(0.0002683772 0.0007054699 -0.06158676)
(2.417995e-05 5.973951e-05 -0.001659942)
(2.748343e-05 6.635064e-05 -0.005884596)
(2.900362e-05 7.407955e-05 -0.009812271)
(2.976913e-05 8.407378e-05 -0.01828564)
(2.254813e-05 0.0001053573 -0.01704208)
(0.0002303757 0.001104981 -0.03962021)
(0.0003174048 0.001357816 -0.03349882)
(0.0004382552 0.001615938 -0.04615814)
(0.0002448877 0.001891444 -0.06201729)
(2.133343e-05 9.545457e-05 -0.001502081)
(2.389831e-05 0.0001056237 -0.005287158)
(2.492373e-05 0.0001174133 -0.008738535)
(2.518771e-05 0.000132375 -0.01610891)
(1.946274e-05 0.0001638847 -0.01480134)
(0.0001926658 0.001695251 -0.03378171)
(0.0002535065 0.002052488 -0.02785248)