/*--------------------------------*- C++ -*----------------------------------*\
| =========                 |                                                 |
| \\      /  F ield         | OpenFOAM: The Open Source CFD Toolbox           |
|  \\    /   O peration     | Version:  2306                                  |
|   \\  /    A nd           | Website:  www.openfoam.com                      |
|    \\/     M anipulation  |                                                 |
\*---------------------------------------------------------------------------*/
FoamFile
{
    version     2.0;
    format      ascii;
    arch        "LSB;label=32;scalar=64";
    class       volScalarField;
    location    "1.2/fuel";
    object      X.H2O;
}
// * * * * * * * * * * * * * * * * * * * * * * * * * * * * * * * * * * * * * //

dimensions      [0 0 0 0 0 0 0];

internalField   nonuniform List<scalar> 
16000
(
0.06637352
0.06512684
0.08584401
0.06630179
0.06264237
0.08486518
0.06505447
0.1076639
0.08577844
0.06616157
0.0589911
0.08291594
0.06256862
0.1067839
0.08479919
0.06491301
0.1289146
0.1076035
0.08565008
0.06595514
0.0544338
0.08005239
0.05891501
0.1050309
0.08284907
0.06242449
0.1280932
0.1067232
0.08467003
0.06470478
0.1492308
0.1288584
0.1074853
0.08546094
0.06568387
0.04973031
0.07647532
0.05435395
0.1024531
0.07998407
0.05876635
0.1264575
0.1049696
0.08271822
0.06221237
0.1484557
0.1280368
0.1066043
0.08447973
0.06443117
0.1686179
0.1491782
0.1287483
0.1073108
0.08521224
0.06541547
0.04628558
0.07276807
0.04964539
0.09922853
0.07640468
0.05419796
0.1240525
0.1023907
0.07985039
0.05854759
0.1469126
0.1264006
0.1048494
0.08252545
0.06193368
0.1678827
0.1484028
0.1279262
0.106429
0.08422951
0.06416045
0.1871395
0.1685683
0.1490748
0.1285857
0.1070814
0.08496606
0.06519349
0.04413278
0.07001354
0.04619842
0.09588076
0.0726943
0.04947944
0.1210443
0.09916425
0.07626645
0.05396843
0.1446443
0.1239946
0.1022683
0.07965347
0.05826021
0.1664193
0.1468592
0.1262888
0.1046722
0.08227199
0.06165795
0.1864397
0.1678328
0.148299
0.1277629
0.1061984
0.08398184
0.06393655
0.2048608
0.1870925
0.1684707
0.1489221
0.1283717
0.1068541
0.08476247
0.06497322
0.04292107
0.06825913
0.0440448
0.09338765
0.06993873
0.04602817
0.1179209
0.09581398
0.0725499
0.0492352
0.1418079
0.1209848
0.09903831
0.07606282
0.0536669
0.1642689
0.1445902
0.1238811
0.1020879
0.07939457
0.05797591
0.1850472
0.166369
0.1467545
0.126124
0.104439
0.08202113
0.06142981
0.2041931
0.1863925
0.1677349
0.1481457
0.1275479
0.10597
0.083777
0.06371436
0.2218418
0.2048162
0.187
0.1683266
0.148721
0.1281597
0.1066662
0.08456045
0.06475465
0.04237915
0.06725283
0.04283274
0.09179495
0.06818417
0.04387301
0.1155935
0.09332019
0.06979231
0.04577766
0.1388634
0.1178593
0.09568308
0.07233712
0.04891423
0.1615805
0.1417524
0.1208682
0.09885259
0.07579509
0.05336857
0.1830014
0.1642179
0.1444838
0.1237135
0.1018505
0.07913834
0.05774025
0.2028647
0.1849996
0.1662703
0.1465998
0.1259069
0.1042082
0.08181357
0.06120329
0.2212032
0.2041482
0.1862997
0.1675901
0.1479438
0.127335
0.1057811
0.08357374
0.06349387
0.238135
0.2217992
0.2047283
0.1868633
0.1681366
0.1485218
0.1279844
0.1064798
0.08436
0.06453779
0.04237915
0.06679648
0.04229068
0.09087855
0.06717792
0.04266033
0.114105
0.09172756
0.06803752
0.04362033
0.1366688
0.1155313
0.093188
0.06957659
0.04544852
0.1587903
0.1388059
0.1177384
0.09549001
0.07205728
0.04859657
0.1804444
0.1615283
0.1416434
0.1206962
0.09860825
0.0755301
0.05312002
0.2009133
0.1829532
0.1641177
0.1443268
0.123493
0.1016155
0.07892603
0.05750587
0.2199333
0.2028195
0.1849061
0.1661244
0.1463961
0.125692
0.1040172
0.08160753
0.06097842
0.2375234
0.2211605
0.2040601
0.1861625
0.1673995
0.1477437
0.1271589
0.1055937
0.08337204
0.0632751
0.2537871
0.2380943
0.2217155
0.2045983
0.1866832
0.1679483
0.148357
0.1278105
0.1062947
0.08416111
0.06349573
0.04292107
0.06679648
0.04229068
0.09046199
0.0667216
0.04211802
0.1132476
0.09081132
0.06703137
0.04240678
0.1352645
0.1140431
0.09159552
0.06782148
0.0432884
0.1567105
0.136611
0.1154095
0.09299302
0.06929291
0.04512279
0.177791
0.1587363
0.1386931
0.1175599
0.09523591
0.07178022
0.04832954
0.1984748
0.1803951
0.1614257
0.1414824
0.1204696
0.0983663
0.0753096
0.05287156
0.218068
0.2008675
0.1828584
0.1639698
0.1441201
0.1232745
0.1014208
0.07871497
0.05727276
0.2363071
0.2198902
0.2027306
0.1847679
0.1659321
0.1461943
0.1255141
0.1038276
0.081403
0.06075518
0.2532004
0.2374826
0.2210765
0.2039296
0.1859817
0.1672104
0.1475782
0.1269841
0.1054077
0.08317191
0.06222387
0.2688394
0.2537482
0.2380144
0.2215915
0.2044269
0.1865045
0.1677926
0.1481935
0.1276379
0.1061112
0.0832047
0.06278588
0.04413278
0.06725283
0.04283274
0.09046199
0.0667216
0.04211802
0.1128575
0.09039485
0.06657514
0.04186411
0.134455
0.1131859
0.09067961
0.06681551
0.04207376
0.1553793
0.1352069
0.1139215
0.0914008
0.06753743
0.04295996
0.1758132
0.1566562
0.1364974
0.1152297
0.09273645
0.06901208
0.04484896
0.1959447
0.17774
0.1586302
0.1385263
0.1173249
0.09498423
0.07154787
0.0480602
0.2157374
0.198428
0.1802981
0.1612741
0.1412703
0.1202452
0.09816499
0.07508943
0.0526232
0.234521
0.2180244
0.2007775
0.1827183
0.1637748
0.1439152
0.1230935
0.1012272
0.07850514
0.05704095
0.2520339
0.2362661
0.2198056
0.2025992
0.1845857
0.1657416
0.1460273
0.1253376
0.1036394
0.08119999
0.0596822
0.268276
0.2531615
0.2374024
0.2209522
0.2037576
0.1858024
0.1670541
0.147414
0.1268107
0.1052232
0.08220952
0.06150462
0.2833289
0.2688022
0.2536717
0.237896
0.2214281
0.2042569
0.1863568
0.1676381
0.1480313
0.1274667
0.105228
0.08255421
0.06225152
0.04628558
0.06825913
0.0440448
0.09087855
0.06717792
0.04266033
0.1128575
0.09039485
0.06657514
0.04186411
0.1340866
0.1127959
0.09026333
0.06635941
0.04153065
0.1546116
0.1343976
0.1130647
0.09048539
0.06653173
0.04174427
0.1745469
0.1553252
0.1350936
0.1137422
0.09114458
0.06725626
0.0426844
0.1940588
0.1757619
0.1565495
0.1363295
0.1149928
0.09248234
0.06877651
0.04457274
0.2133197
0.1958963
0.1776397
0.1584733
0.1383067
0.117092
0.09477319
0.07131405
0.04778852
0.2322897
0.2156929
0.1983359
0.1801546
0.1610743
0.1410602
0.1200585
0.09796401
0.07486961
0.05237494
0.250321
0.2344794
0.2179387
0.2006444
0.1825336
0.1635815
0.1437455
0.1229136
0.1010348
0.07829656
0.05592508
0.2671557
0.2519947
0.2361853
0.2196804
0.202426
0.184405
0.1655839
0.1458615
0.1251623
0.1034526
0.08022345
0.058936
0.2827871
0.2682387
0.2530847
0.2372836
0.2207882
0.2035871
0.1856542
0.166899
0.1472511
0.1266387
0.1043353
0.08155269
0.06096064
0.2972886
0.2832932
0.2687289
0.2535584
0.2377397
0.2212659
0.2041163
0.1862103
0.1674848
0.1478704
0.1266425
0.1046279
0.08206491
0.06189417
0.04973031
0.07001354
0.04619842
0.09179495
0.06818417
0.04387301
0.1132476
0.09081132
0.06703137
0.04240678
0.1340866
0.1127959
0.09026333
0.06635941
0.04153065
0.1542621
0.1340292
0.112675
0.09006939
0.06607582
0.04120074
0.1738166
0.1545578
0.1342848
0.112886
0.09022986
0.06625085
0.04146826
0.1928513
0.1744959
0.1552189
0.1349264
0.113506
0.09089086
0.06702082
0.042407
0.2115177
0.1940103
0.1756611
0.1563917
0.1361084
0.1147582
0.0922692
0.06853942
0.04429411
0.2299751
0.2132738
0.1958012
0.1774915
0.1582666
0.1380889
0.1168968
0.09456082
0.07107874
0.04751448
0.2481814
0.2322472
0.2156053
0.1981997
0.1799656
0.1608763
0.1408853
0.1198721
0.09776334
0.07465014
0.05117435
0.2655109
0.2502813
0.2343977
0.2178119
0.2004689
0.1823505
0.1634214
0.1435767
0.1227347
0.1008435
0.07729195
0.05510662
0.2817101
0.2671181
0.2519174
0.2360657
0.2195152
0.2022542
0.1842556
0.1654274
0.145697
0.1249884
0.1025535
0.07954815
0.05836122
0.2967672
0.2827513
0.2681651
0.252971
0.2371269
0.2206255
0.203446
0.185507
0.1667451
0.1470895
0.1258105
0.10373
0.08105677
0.06059524
0.3107485
0.2972544
0.2832229
0.2686203
0.2534088
0.2375847
0.2211318
0.2039769
0.1860648
0.1673328
0.1470954
0.1260828
0.1041765
0.08173791
0.06171513
0.0544338
0.07276807
0.04964539
0.09338765
0.06993873
0.04602817
0.114105
0.09172756
0.06803752
0.04362033
0.134455
0.1131859
0.09067961
0.06681551
0.04207376
0.1542621
0.1340292
0.112675
0.09006939
0.06607582
0.04120074
0.173484
0.1542083
0.1339167
0.1124965
0.08981424
0.06579512
0.04092456
0.1921547
0.1737658
0.1544519
0.1341182
0.1126507
0.08997682
0.06601596
0.04119081
0.2103637
0.192803
0.1743956
0.1550618
0.1347061
0.1132721
0.0906784
0.06678425
0.04212774
0.2282501
0.2114715
0.1939147
0.1755121
0.1561838
0.1358893
0.1145614
0.09205468
0.06830078
0.04401308
0.2459623
0.2299314
0.2131833
0.1956605
0.1772959
0.1580616
0.1379063
0.1167002
0.09434713
0.07084191
0.04617811
0.2634565
0.2481408
0.2321637
0.2154757
0.1980201
0.1797781
0.1607115
0.1407107
0.119686
0.09756302
0.07358875
0.05016267
0.2801288
0.2654729
0.2502031
0.2342766
0.2176447
0.2002948
0.1821988
0.1632622
0.1434089
0.1225569
0.09992165
0.0765658
0.0544362
0.2957306
0.281674
0.2670441
0.251803
0.2359079
0.2193514
0.202112
0.1841072
0.1652721
0.1455337
0.1241507
0.1019327
0.07903059
0.05796815
0.3102462
0.2967328
0.2826808
0.2680562
0.252821
0.2369714
0.2204909
0.203306
0.1853611
0.1665924
0.1463111
0.1252463
0.1032731
0.08072415
0.06041157
0.3237358
0.3107156
0.2971868
0.2831186
0.2684768
0.2532603
0.2374565
0.2209987
0.2038385
0.1859206
0.1666003
0.1465694
0.125662
0.103875
0.08157415
0.0589911
0.07647532
0.05435395
0.09588076
0.0726943
0.04947944
0.1155935
0.09332019
0.06979231
0.04577766
0.1352645
0.1140431
0.09159552
0.06782148
0.0432884
0.1546116
0.1343976
0.1130647
0.09048539
0.06653173
0.04174427
0.173484
0.1542083
0.1339167
0.1124965
0.08981424
0.06579512
0.04092456
0.1918374
0.1734332
0.1541027
0.1337504
0.1122617
0.08956159
0.06556054
0.04064715
0.209698
0.1921066
0.1736659
0.1542955
0.1338988
0.1124175
0.08976522
0.06578025
0.04091193
0.2271454
0.2103178
0.1927079
0.1742472
0.1548547
0.1344878
0.1130761
0.09046492
0.06654656
0.04184663
0.2443083
0.2282061
0.2113806
0.1937733
0.1753155
0.1559777
0.1357054
0.1143632
0.09183879
0.0680606
0.04264319
0.2613261
0.2459204
0.2298451
0.2130494
0.1954749
0.177102
0.1578897
0.1377225
0.1165025
0.09413209
0.06968784
0.04477598
0.2781541
0.2634177
0.248061
0.2320399
0.2153046
0.197842
0.1796221
0.160547
0.1405364
0.1195001
0.09659351
0.07272337
0.04919108
0.294209
0.2800924
0.265398
0.2500873
0.2341169
0.2174788
0.2001506
0.1820479
0.1631039
0.1432422
0.1216994
0.09925683
0.07597944
0.05394665
0.3092478
0.295696
0.281603
0.2669345
0.2516519
0.2357513
0.2192158
0.2019709
0.1839599
0.1651179
0.1447469
0.1235727
0.1014572
0.07867828
0.05776779
0.3232515
0.3102132
0.296665
0.2825762
0.2679123
0.2526721
0.2368428
0.2203574
0.2031671
0.1852162
0.1658569
0.145781
0.1248205
0.1029668
0.08055714
0.3362752
0.3237041
0.3106506
0.2970866
0.2829809
0.2683345
0.2531376
0.2373293
0.2208667
0.2037012
0.1852256
0.1661034
0.146174
0.1253808
0.103724
0.06264237
0.08005239
0.05891501
0.09922853
0.07640468
0.05419796
0.1179209
0.09581398
0.0725499
0.0492352
0.1366688
0.1155313
0.093188
0.06957659
0.04544852
0.1553793
0.1352069
0.1139215
0.0914008
0.06753743
0.04295996
0.1738166
0.1545578
0.1342848
0.112886
0.09022986
0.06625085
0.04146826
0.1918374
0.1734332
0.1541027
0.1337504
0.1122617
0.08956159
0.06556054
0.04064715
0.2093947
0.1917894
0.1733336
0.1539466
0.1335315
0.112029
0.08935043
0.06532529
0.04036851
0.226508
0.2096522
0.1920119
0.1735181
0.1540893
0.1336813
0.1122226
0.08955288
0.06554373
0.04063162
0.2432492
0.2271016
0.2102274
0.1925672
0.1740515
0.1546495
0.1343049
0.1128792
0.09025043
0.06630774
0.04047918
0.2597383
0.2442664
0.2281195
0.2112462
0.1935869
0.1751206
0.1558047
0.1355204
0.1141638
0.0916215
0.06689033
0.04122665
0.2761063
0.261286
0.245838
0.2297174
0.2128727
0.1952908
0.1769393
0.1577166
0.1375376
0.1163035
0.09308329
0.06853696
0.04304647
0.2923088
0.2781169
0.2633413
0.2479426
0.2318766
0.2151349
0.1976938
0.1794663
0.1603827
0.1403624
0.1186003
0.09580595
0.07191644
0.04833324
0.3077821
0.294174
0.2800206
0.2652871
0.2499345
0.2339584
0.2173413
0.2000072
0.181898
0.1629466
0.1424376
0.1210814
0.0987208
0.07555704
0.05368171
0.322289
0.3092145
0.2956279
0.2814978
0.2667897
0.2515021
0.2356218
0.2190813
0.2018308
0.1838137
0.1643748
0.1442043
0.12313
0.1011337
0.07849931
0.3358079
0.3232197
0.310148
0.2965646
0.2824381
0.2677695
0.2525489
0.2367151
0.2202249
0.2030294
0.1845185
0.1653563
0.1453811
0.1245351
0.102813
0.3483894
0.3362446
0.3236415
0.3105542
0.2969542
0.2828442
0.2682167
0.2530158
0.2372031
0.2207358
0.2030397
0.1847542
0.1657298
0.1459098
0.12524
0.06512684
0.08291594
0.06256862
0.1024531
0.07998407
0.05876635
0.1210443
0.09916425
0.07626645
0.05396843
0.1388634
0.1178593
0.09568308
0.07233712
0.04891423
0.1567105
0.136611
0.1154095
0.09299302
0.06929291
0.04512279
0.1745469
0.1553252
0.1350936
0.1137422
0.09114458
0.06725626
0.0426844
0.1921547
0.1737658
0.1544519
0.1341182
0.1126507
0.08997682
0.06601596
0.04119081
0.2093947
0.1917894
0.1733336
0.1539466
0.1335315
0.112029
0.08935043
0.06532529
0.04036851
0.2262176
0.2093491
0.191695
0.1731862
0.1537409
0.1333145
0.1118345
0.08913867
0.06508937
0.04008864
0.242638
0.2264644
0.2095622
0.1918719
0.1733234
0.1538849
0.1334995
0.1120269
0.0893398
0.0653064
0.03927013
0.2587214
0.2432074
0.2270155
0.2100936
0.1923816
0.1738575
0.1544775
0.1341212
0.1126814
0.09003493
0.06514611
0.03912946
0.2745802
0.2596981
0.2441836
0.2279912
0.2110687
0.1934019
0.1749571
0.1556306
0.1353341
0.1139631
0.09056182
0.06573606
0.03954492
0.2903386
0.276068
0.2612071
0.2457159
0.2295487
0.2126973
0.1951363
0.1767756
0.1575424
0.1373514
0.1153321
0.09204156
0.06716845
0.04086007
0.3059521
0.2922731
0.2780436
0.2632279
0.2477865
0.2317146
0.2149937
0.1975458
0.1793107
0.1602186
0.1395191
0.1178697
0.09507348
0.07122257
0.04774538
0.3208762
0.3077485
0.294105
0.2799141
0.2651406
0.2497828
0.2338271
0.2172046
0.1998646
0.1817489
0.1621873
0.1418581
0.1205833
0.0983352
0.07533089
0.3348794
0.322257
0.309149
0.2955268
0.2813589
0.266646
0.2513781
0.2354932
0.2189477
0.2016917
0.1831091
0.1638625
0.1437887
0.1228289
0.1009694
0.3479384
0.3357773
0.323157
0.3100514
0.2964319
0.282301
0.2676514
0.2524268
0.2365885
0.2200935
0.2023653
0.1840436
0.1649785
0.1451129
0.1243918
0.3600995
0.34836
0.3361844
0.3235487
0.3104269
0.2968228
0.2827311
0.2680999
0.252895
0.2370779
0.2201046
0.2025912
0.1843998
0.1654802
0.1457775
0.06637352
0.08486518
0.06505447
0.1050309
0.08284907
0.06242449
0.1240525
0.1023907
0.07985039
0.05854759
0.1418079
0.1209848
0.09903831
0.07606282
0.0536669
0.1587903
0.1388059
0.1177384
0.09549001
0.07205728
0.04859657
0.1758132
0.1566562
0.1364974
0.1152297
0.09273645
0.06901208
0.04484896
0.1928513
0.1744959
0.1552189
0.1349264
0.113506
0.09089086
0.06702082
0.042407
0.209698
0.1921066
0.1736659
0.1542955
0.1338988
0.1124175
0.08976522
0.06578025
0.04091193
0.2262176
0.2093491
0.191695
0.1731862
0.1537409
0.1333145
0.1118345
0.08913867
0.06508937
0.04008864
0.2423596
0.2261741
0.2092593
0.1915553
0.1729919
0.153537
0.1331331
0.1116395
0.08892631
0.06485279
0.03873022
0.2581347
0.2425964
0.2263787
0.209429
0.1916872
0.1731302
0.153714
0.1333169
0.1118305
0.08912599
0.06415353
0.03797004
0.2736029
0.2586815
0.2431251
0.2268878
0.209917
0.1921975
0.173695
0.1543048
0.1339365
0.1124826
0.0889857
0.06404773
0.03759527
0.2888703
0.2745418
0.2596189
0.244061
0.2278219
0.2108926
0.1932467
0.1747925
0.1554553
0.1351466
0.1129836
0.08951922
0.06441103
0.03758216
0.3040547
0.2903018
0.2759924
0.2610902
0.2455547
0.2293814
0.2125502
0.1949808
0.1766108
0.1573671
0.1364422
0.1143669
0.09080574
0.06548442
0.03797049
0.3191122
0.3059178
0.2922027
0.2779349
0.2630783
0.2476315
0.2315798
0.2148527
0.197398
0.1791554
0.1594236
0.1388345
0.1171901
0.0944451
0.07075756
0.3335165
0.3208438
0.3076822
0.2940028
0.2797736
0.2649952
0.2496571
0.2336965
0.2170687
0.1997229
0.1810293
0.1616406
0.1413909
0.120225
0.09812892
0.347042
0.3348486
0.3221939
0.3090517
0.2953932
0.2812209
0.2665271
0.2512549
0.2353656
0.2188151
0.2010214
0.1826234
0.1634703
0.1435061
0.1226761
0.3596638
0.3479089
0.3357169
0.3230639
0.3099237
0.2963001
0.2821876
0.2675343
0.2523055
0.2364629
0.21946
0.2019136
0.1836853
0.1647252
0.1449783
0.3714248
0.3600711
0.3483019
0.3360949
0.3234261
0.3103004
0.2967141
0.282619
0.267984
0.2527751
0.2364745
0.2196767
0.202254
0.184163
0.1653552
0.08584401
0.06630179
0.1067839
0.08479919
0.06491301
0.1264575
0.1049696
0.08271822
0.06221237
0.1446443
0.1239946
0.1022683
0.07965347
0.05826021
0.1615805
0.1417524
0.1208682
0.09885259
0.07579509
0.05336857
0.177791
0.1587363
0.1386931
0.1175599
0.09523591
0.07178022
0.04832954
0.1940588
0.1757619
0.1565495
0.1363295
0.1149928
0.09248234
0.06877651
0.04457274
0.2103637
0.192803
0.1743956
0.1550618
0.1347061
0.1132721
0.0906784
0.06678425
0.04212774
0.226508
0.2096522
0.1920119
0.1735181
0.1540893
0.1336813
0.1122226
0.08955288
0.06554373
0.04063162
0.2423596
0.2261741
0.2092593
0.1915553
0.1729919
0.153537
0.1331331
0.1116395
0.08892631
0.06485279
0.03873022
0.2578673
0.2423181
0.2260886
0.2091264
0.191371
0.1727992
0.1533665
0.1329512
0.1114438
0.08871334
0.06370425
0.03745291
0.2730389
0.2580949
0.2425145
0.2262516
0.2092533
0.191504
0.1729687
0.1535424
0.1331338
0.1116335
0.08808633
0.06309585
0.03653163
0.28793
0.2735647
0.2586027
0.2430032
0.2267194
0.2097418
0.1920433
0.1735317
0.1541311
0.1337509
0.1115141
0.08799499
0.06283934
0.03588543
0.3026407
0.2888334
0.2744659
0.2595016
0.2438992
0.2276539
0.2107448
0.1930904
0.1746267
0.1552789
0.1342309
0.112019
0.08832362
0.06290361
0.03533323
0.3172834
0.3040193
0.2902292
0.2758802
0.2609358
0.2453946
0.2292409
0.2124022
0.1948243
0.1764449
0.1565106
0.1355381
0.113221
0.08928775
0.0632978
0.03324531
0.331815
0.3190792
0.3058502
0.2920984
0.2777913
0.2629298
0.2475025
0.2314451
0.2147118
0.1972504
0.1784023
0.1587781
0.1381975
0.1166071
0.0940247
0.3457264
0.3334854
0.3207801
0.3075839
0.2938678
0.2796341
0.2648747
0.2495321
0.2335667
0.2169336
0.1990387
0.1805112
0.1611997
0.1410547
0.1200333
0.3587979
0.3470123
0.3347878
0.3221003
0.3089233
0.2952606
0.2811068
0.2664091
0.2511327
0.2352389
0.2181758
0.2005595
0.1822515
0.1632034
0.1433626
0.3710037
0.3596354
0.3478506
0.3356273
0.322941
0.3097969
0.2961911
0.2820751
0.267418
0.2521852
0.2358573
0.2190292
0.2015727
0.1834452
0.1645981
0.3823832
0.3713974
0.3600151
0.3482157
0.3359767
0.3233042
0.3101958
0.2966063
0.2825077
0.2678691
0.2521972
0.2360655
0.2193551
0.2020287
0.1840445
0.1076639
0.08577844
0.06616157
0.1280932
0.1067232
0.08467003
0.06470478
0.1469126
0.1264006
0.1048494
0.08252545
0.06193368
0.1642689
0.1445902
0.1238811
0.1020879
0.07939457
0.05797591
0.1804444
0.1615283
0.1416434
0.1206962
0.09860825
0.0755301
0.05312002
0.1959447
0.17774
0.1586302
0.1385263
0.1173249
0.09498423
0.07154787
0.0480602
0.2115177
0.1940103
0.1756611
0.1563917
0.1361084
0.1147582
0.0922692
0.06853942
0.04429411
0.2271454
0.2103178
0.1927079
0.1742472
0.1548547
0.1344878
0.1130761
0.09046492
0.06654656
0.04184663
0.242638
0.2264644
0.2095622
0.1918719
0.1733234
0.1538849
0.1334995
0.1120269
0.0893398
0.0653064
0.03927013
0.2578673
0.2423181
0.2260886
0.2091264
0.191371
0.1727992
0.1533665
0.1329512
0.1114438
0.08871334
0.06370425
0.03745291
0.272782
0.2578276
0.2422364
0.2259619
0.2089511
0.1911882
0.1726381
0.1531956
0.1327687
0.1112477
0.08767838
0.06266522
0.03605684
0.2873874
0.2730008
0.2580165
0.2423932
0.226084
0.2090789
0.1913507
0.1728065
0.1533702
0.1329499
0.1106746
0.08713323
0.06196258
0.0349639
0.3017353
0.2878933
0.2734892
0.258486
0.2428422
0.2265523
0.209595
0.1918884
0.1733676
0.1539566
0.1328463
0.1105987
0.08690523
0.06152805
0.03401817
0.3159207
0.3026053
0.2887606
0.2743534
0.2593466
0.2437385
0.2275129
0.2105961
0.1929331
0.1744598
0.1544169
0.1333282
0.1109115
0.08696433
0.06121054
0.03241314
0.3300511
0.3172495
0.3039496
0.2901215
0.2757321
0.2607824
0.2452603
0.2290996
0.2122531
0.1946668
0.1756341
0.1556582
0.1344638
0.1118128
0.08731896
0.05974074
0.03070948
0.344084
0.3317833
0.3190142
0.3057498
0.2919605
0.2776488
0.2628062
0.2473736
0.2313106
0.2145712
0.1965347
0.1777909
0.1581771
0.1376507
0.1162169
0.3575272
0.3456964
0.333424
0.3206854
0.3074541
0.2937337
0.2795184
0.264755
0.2494079
0.2334376
0.2162813
0.1985461
0.1800934
0.1608825
0.1408749
0.3701669
0.3587693
0.3469537
0.3346976
0.3219766
0.3087957
0.2951509
0.2809935
0.2662919
0.2510115
0.2346279
0.2177353
0.2002058
0.1819985
0.1630679
0.381976
0.3709762
0.3595792
0.3477642
0.3355087
0.3228188
0.309692
0.2960829
0.2819635
0.2673027
0.2516053
0.2354455
0.2187041
0.2013442
0.1833246
0.3929913
0.3823568
0.3713433
0.3599319
0.3481017
0.3358593
0.3232035
0.310092
0.2964993
0.2823973
0.2673148
0.2518055
0.2357581
0.2191402
0.2019159
0.1289146
0.1076035
0.08565008
0.06595514
0.1484557
0.1280368
0.1066043
0.08447973
0.06443117
0.1664193
0.1468592
0.1262888
0.1046722
0.08227199
0.06165795
0.1830014
0.1642179
0.1444838
0.1237135
0.1018505
0.07913834
0.05774025
0.1984748
0.1803951
0.1614257
0.1414824
0.1204696
0.0983663
0.0753096
0.05287156
0.2133197
0.1958963
0.1776397
0.1584733
0.1383067
0.117092
0.09477319
0.07131405
0.04778852
0.2282501
0.2114715
0.1939147
0.1755121
0.1561838
0.1358893
0.1145614
0.09205468
0.06830078
0.04401308
0.2432492
0.2271016
0.2102274
0.1925672
0.1740515
0.1546495
0.1343049
0.1128792
0.09025043
0.06630774
0.04047918
0.2581347
0.2425964
0.2263787
0.209429
0.1916872
0.1731302
0.153714
0.1333169
0.1118305
0.08912599
0.06415353
0.03797004
0.272782
0.2578276
0.2422364
0.2259619
0.2089511
0.1911882
0.1726381
0.1531956
0.1327687
0.1112477
0.08767838
0.06266522
0.03605684
0.2871401
0.272744
0.2577495
0.2421153
0.2257947
0.2087772
0.1910354
0.1724766
0.1530241
0.1325858
0.1102935
0.08674256
0.06156507
0.03454923
0.3012127
0.2873508
0.2729257
0.2579004
0.242233
0.2259177
0.2089331
0.1911968
0.1726438
0.1531974
0.1320548
0.1097947
0.08611163
0.06076091
0.03328048
0.315048
0.3017
0.2878209
0.2733773
0.2583319
0.2426824
0.2264122
0.2094475
0.1917326
0.1732026
0.1531055
0.1319904
0.1095904
0.0857226
0.06012835
0.03168201
0.3287368
0.3158866
0.3025353
0.2886526
0.2742047
0.2591927
0.2436037
0.2273709
0.2104463
0.1927746
0.1736443
0.1535664
0.1322907
0.1096515
0.08543797
0.05904521
0.03035687
0.3423815
0.3300184
0.3171824
0.3038461
0.2899793
0.275585
0.2606538
0.2451251
0.2289573
0.212103
0.1938965
0.1748266
0.1546444
0.1331426
0.1099858
0.08411378
0.05768848
0.02884455
0.355941
0.3440535
0.3317206
0.3189176
0.3056172
0.2918236
0.2775302
0.2626827
0.247245
0.2311763
0.2138892
0.1959535
0.1772214
0.1576611
0.1372846
0.3689388
0.3574983
0.3456372
0.3333328
0.3205604
0.3073251
0.2936226
0.2794035
0.2646359
0.2492844
0.2328144
0.2158117
0.1981488
0.1797928
0.1607127
0.3811668
0.3701392
0.3587128
0.3468668
0.3345785
0.3218538
0.3086902
0.295042
0.280881
0.2661756
0.2504265
0.234207
0.217398
0.1999652
0.1818701
0.3925973
0.3819494
0.370922
0.3594957
0.3476499
0.335391
0.3227178
0.3095879
0.2959756
0.2818527
0.2667465
0.251211
0.2351348
0.2184861
0.2012295
0.4032647
0.3929658
0.3823045
0.371263
0.3598219
0.3479884
0.3357622
0.3231036
0.3099891
0.2963932
0.281865
0.2669392
0.2515111
0.2355527
0.2190326
0.1492308
0.1288584
0.1074853
0.08546094
0.06568387
0.1678827
0.1484028
0.1279262
0.106429
0.08422951
0.06416045
0.1850472
0.166369
0.1467545
0.126124
0.104439
0.08202113
0.06142981
0.2009133
0.1829532
0.1641177
0.1443268
0.123493
0.1016155
0.07892603
0.05750587
0.2157374
0.198428
0.1802981
0.1612741
0.1412703
0.1202452
0.09816499
0.07508943
0.0526232
0.2299751
0.2132738
0.1958012
0.1774915
0.1582666
0.1380889
0.1168968
0.09456082
0.07107874
0.04751448
0.2443083
0.2282061
0.2113806
0.1937733
0.1753155
0.1559777
0.1357054
0.1143632
0.09183879
0.0680606
0.04264319
0.2587214
0.2432074
0.2270155
0.2100936
0.1923816
0.1738575
0.1544775
0.1341212
0.1126814
0.09003493
0.06514611
0.03912946
0.2730389
0.2580949
0.2425145
0.2262516
0.2092533
0.191504
0.1729687
0.1535424
0.1331338
0.1116335
0.08808633
0.06309585
0.03653163
0.2871401
0.272744
0.2577495
0.2421153
0.2257947
0.2087772
0.1910354
0.1724766
0.1530241
0.1325858
0.1102935
0.08674256
0.06156507
0.03454923
0.3009746
0.2871037
0.272669
0.2576336
0.2419555
0.2256288
0.2086318
0.1908821
0.1723145
0.1528521
0.1316953
0.1094299
0.08575104
0.06040957
0.03294023
0.3145444
0.3011776
0.2872788
0.2728144
0.257747
0.242074
0.2257785
0.2087867
0.1910424
0.1724805
0.1523555
0.1312326
0.1088502
0.08502777
0.05950165
0.03119011
0.327895
0.3150141
0.3016304
0.2877135
0.2732295
0.2581788
0.2425485
0.2262715
0.2092992
0.191576
0.1723978
0.1522996
0.1310466
0.108495
0.08445973
0.05841164
0.02994733
0.341113
0.3287039
0.3158193
0.3024315
0.2885098
0.2740571
0.2590636
0.2434679
0.2272279
0.2102954
0.1920003
0.1728391
0.152588
0.1311092
0.1082356
0.08348432
0.05736054
0.02867006
0.3542967
0.34235
0.3299538
0.3170828
0.3037094
0.289838
0.2754616
0.2605243
0.244989
0.228814
0.2113692
0.193129
0.1738656
0.1533969
0.1314277
0.1070086
0.08226309
0.05605963
0.02741867
0.3674059
0.3559115
0.3439931
0.3316276
0.31879
0.3054855
0.2917096
0.2774117
0.2625594
0.2471165
0.2305249
0.2133353
0.1954121
0.1767323
0.1573155
0.3799793
0.3689109
0.3574412
0.3455494
0.3332124
0.3204362
0.3072182
0.2935121
0.2792892
0.2645175
0.2486879
0.2323658
0.215433
0.197863
0.1796318
0.3918145
0.3811401
0.3700847
0.358629
0.3467519
0.33446
0.3217521
0.3085854
0.2949339
0.2807693
0.2656147
0.2500235
0.2338846
0.2171686
0.199843
0.4028834
0.3925717
0.381897
0.3708414
0.3593854
0.3475363
0.3352936
0.3226176
0.3094846
0.2958691
0.2813187
0.2663684
0.2509135
0.2349265
0.2183767
0.4132178
0.40324
0.3929153
0.3822269
0.3711567
0.3597125
0.3478947
0.3356659
0.3230044
0.3098869
0.2958814
0.2815044
0.2666569
0.2513145
0.2354498
0.1686179
0.1491782
0.1287483
0.1073108
0.08521224
0.06541547
0.1864397
0.1678328
0.148299
0.1277629
0.1061984
0.08398184
0.06393655
0.2028647
0.1849996
0.1662703
0.1465998
0.1259069
0.1042082
0.08181357
0.06120329
0.218068
0.2008675
0.1828584
0.1639698
0.1441201
0.1232745
0.1014208
0.07871497
0.05727276
0.2322897
0.2156929
0.1983359
0.1801546
0.1610743
0.1410602
0.1200585
0.09796401
0.07486961
0.05237494
0.2459623
0.2299314
0.2131833
0.1956605
0.1772959
0.1580616
0.1379063
0.1167002
0.09434713
0.07084191
0.04617811
0.2597383
0.2442664
0.2281195
0.2112462
0.1935869
0.1751206
0.1558047
0.1355204
0.1141638
0.0916215
0.06689033
0.04122665
0.2736029
0.2586815
0.2431251
0.2268878
0.209917
0.1921975
0.173695
0.1543048
0.1339365
0.1124826
0.0889857
0.06404773
0.03759527
0.2873874
0.2730008
0.2580165
0.2423932
0.226084
0.2090789
0.1913507
0.1728065
0.1533702
0.1329499
0.1106746
0.08713323
0.06196258
0.0349639
0.3009746
0.2871037
0.272669
0.2576336
0.2419555
0.2256288
0.2086318
0.1908821
0.1723145
0.1528521
0.1316953
0.1094299
0.08575104
0.06040957
0.03294023
0.3143149
0.3009396
0.2870318
0.272558
0.2574806
0.2417969
0.2254901
0.2084859
0.1907284
0.172152
0.1520147
0.1308886
0.1085136
0.08470881
0.05920682
0.03094665
0.3274093
0.3145107
0.3011084
0.2871719
0.2726673
0.2575947
0.2419409
0.2256389
0.2086397
0.1908874
0.1716846
0.1515817
0.130349
0.1078469
0.08389102
0.05797202
0.02963056
0.3403006
0.3278624
0.3149472
0.3015272
0.2875715
0.2730827
0.2580506
0.2424139
0.22613
0.2091502
0.1908121
0.1716351
0.1514101
0.1300203
0.1073242
0.08290903
0.05697194
0.02843621
0.3530716
0.3410814
0.3286392
0.3157195
0.3022943
0.2883681
0.2739333
0.2589335
0.2433312
0.227084
0.209558
0.1912352
0.1719121
0.151473
0.129781
0.106422
0.08196161
0.05586659
0.02731726
0.3658169
0.3542664
0.3422878
0.3298579
0.3169512
0.3035735
0.2897194
0.2753373
0.2603939
0.2448519
0.2281133
0.2106377
0.1922151
0.1726826
0.151777
0.1286311
0.1052918
0.08078906
0.05473074
0.02631797
0.3784971
0.3673774
0.3558533
0.3439034
0.3315047
0.3186632
0.3053759
0.2915958
0.2772934
0.2624363
0.2464932
0.2299958
0.2128192
0.194947
0.1764046
0.3906657
0.3799524
0.3688558
0.3573565
0.3454332
0.3330927
0.3203333
0.3071119
0.2934023
0.2791755
0.2639456
0.2482585
0.2320039
0.2151604
0.1977099
0.4021256
0.3917887
0.3810874
0.3700037
0.358518
0.3466376
0.3343621
0.3216512
0.3084814
0.2948266
0.2802308
0.2652284
0.249715
0.2336654
0.2170521
0.4128485
0.4028586
0.3925211
0.3818192
0.3707349
0.3592758
0.3474424
0.335197
0.3225181
0.3093822
0.2953557
0.2809556
0.2660831
0.2507141
0.2348219
0.4228639
0.4131939
0.4031912
0.3928402
0.3821242
0.3710511
0.3596221
0.3478018
0.3355703
0.322906
0.3093945
0.2955347
0.2812333
0.2664683
0.251216
0.1871395
0.1685683
0.1490748
0.1285857
0.1070814
0.08496606
0.06519349
0.2041931
0.1863925
0.1677349
0.1481457
0.1275479
0.10597
0.083777
0.06371436
0.2199333
0.2028195
0.1849061
0.1661244
0.1463961
0.125692
0.1040172
0.08160753
0.06097842
0.234521
0.2180244
0.2007775
0.1827183
0.1637748
0.1439152
0.1230935
0.1012272
0.07850514
0.05704095
0.2481814
0.2322472
0.2156053
0.1981997
0.1799656
0.1608763
0.1408853
0.1198721
0.09776334
0.07465014
0.05117435
0.2613261
0.2459204
0.2298451
0.2130494
0.1954749
0.177102
0.1578897
0.1377225
0.1165025
0.09413209
0.06968784
0.04477598
0.2745802
0.2596981
0.2441836
0.2279912
0.2110687
0.1934019
0.1749571
0.1556306
0.1353341
0.1139631
0.09056182
0.06573606
0.03954492
0.28793
0.2735647
0.2586027
0.2430032
0.2267194
0.2097418
0.1920433
0.1735317
0.1541311
0.1337509
0.1115141
0.08799499
0.06283934
0.03588543
0.3012127
0.2873508
0.2729257
0.2579004
0.242233
0.2259177
0.2089331
0.1911968
0.1726438
0.1531974
0.1320548
0.1097947
0.08611163
0.06076091
0.03328048
0.3143149
0.3009396
0.2870318
0.272558
0.2574806
0.2417969
0.2254901
0.2084859
0.1907284
0.172152
0.1520147
0.1308886
0.1085136
0.08470881
0.05920682
0.03094665
0.3271879
0.3142812
0.3008705
0.2869252
0.2724113
0.2573287
0.2416643
0.2253509
0.2083396
0.1905742
0.1713604
0.1512556
0.1300315
0.1075491
0.08362279
0.05775016
0.02946309
0.3398318
0.3273768
0.3144441
0.3010057
0.2870307
0.2725213
0.2574673
0.2418074
0.2254987
0.2084922
0.1901321
0.1709525
0.1507492
0.1294094
0.1067935
0.08250821
0.05666486
0.02823777
0.3522871
0.3402692
0.327798
0.3148479
0.3013908
0.2874306
0.2729597
0.2579217
0.2422787
0.2259878
0.2084229
0.1900877
0.1707927