/*--------------------------------*- C++ -*----------------------------------*\
| =========                 |                                                 |
| \\      /  F ield         | OpenFOAM: The Open Source CFD Toolbox           |
|  \\    /   O peration     | Version:  2306                                  |
|   \\  /    A nd           | Website:  www.openfoam.com                      |
|    \\/     M anipulation  |                                                 |
\*---------------------------------------------------------------------------*/
FoamFile
{
    version     2.0;
    format      ascii;
    arch        "LSB;label=32;scalar=64";
    class       volScalarField;
    location    "1.2/fuel";
    object      X.H2;
}
// * * * * * * * * * * * * * * * * * * * * * * * * * * * * * * * * * * * * * //

dimensions      [0 0 0 0 0 0 0];

internalField   nonuniform List<scalar> 
16000
(
0.9336265
0.9348732
0.914156
0.9336982
0.9373576
0.9151348
0.9349455
0.8923361
0.9142216
0.9338384
0.9410089
0.9170841
0.9374314
0.8932161
0.9152008
0.935087
0.8710854
0.8923965
0.9143499
0.9340449
0.9455662
0.9199476
0.941085
0.8949691
0.9171509
0.9375755
0.8719068
0.8932768
0.91533
0.9352952
0.8507692
0.8711416
0.8925147
0.9145391
0.9343161
0.9502697
0.9235247
0.945646
0.8975469
0.9200159
0.9412337
0.8735425
0.8950304
0.9172818
0.9377876
0.8515443
0.8719632
0.8933957
0.9155203
0.9355688
0.8313821
0.8508218
0.8712517
0.8926892
0.9147878
0.9345845
0.9537144
0.9272319
0.9503546
0.9007715
0.9235953
0.945802
0.8759475
0.8976093
0.9201496
0.9414524
0.8530874
0.8735994
0.8951506
0.9174746
0.9380663
0.8321173
0.8515972
0.8720738
0.893571
0.9157705
0.9358395
0.8128605
0.8314317
0.8509252
0.8714143
0.8929186
0.9150339
0.9348065
0.9558672
0.9299865
0.9538016
0.9041192
0.9273057
0.9505206
0.8789557
0.9008358
0.9237336
0.9460316
0.8553557
0.8760054
0.8977317
0.9203465
0.9417398
0.8335807
0.8531408
0.8737112
0.8953278
0.917728
0.938342
0.8135603
0.8321672
0.851701
0.8722371
0.8938016
0.9160182
0.9360634
0.7951392
0.8129075
0.8315293
0.8510779
0.8716283
0.8931459
0.9152375
0.9350268
0.9570789
0.9317409
0.9559552
0.9066124
0.9300613
0.9539718
0.8820791
0.904186
0.9274501
0.9507648
0.8581921
0.8790152
0.9009617
0.9239372
0.9463331
0.8357311
0.8554098
0.8761189
0.8979121
0.9206054
0.9420241
0.8149528
0.833631
0.8532455
0.873876
0.895561
0.9179789
0.9385702
0.7958069
0.8136075
0.8322651
0.8518543
0.8724521
0.89403
0.916223
0.9362856
0.7781582
0.7951838
0.813
0.8316734
0.851279
0.8718403
0.8933338
0.9154396
0.9352453
0.9576209
0.9327472
0.9571673
0.9082051
0.9318158
0.956127
0.8844065
0.9066798
0.9302077
0.9542223
0.8611366
0.8821407
0.9043169
0.9276629
0.9510858
0.8384195
0.8582476
0.8791318
0.9011474
0.9242049
0.9466314
0.8169986
0.8357821
0.8555162
0.8762865
0.8981495
0.9208617
0.9422597
0.7971353
0.8150004
0.8337297
0.8534002
0.8740931
0.8957918
0.9181864
0.9387967
0.7787968
0.7958518
0.8137003
0.8324099
0.8520562
0.872665
0.8942189
0.9164263
0.9365061
0.761865
0.7782008
0.7952717
0.8131367
0.8318634
0.8514782
0.8720156
0.8935202
0.91564
0.9354622
0.9576209
0.9332035
0.9577093
0.9091214
0.9328221
0.9573397
0.885895
0.9082724
0.9319625
0.9563797
0.8633312
0.8844687
0.906812
0.9304234
0.9545515
0.8412097
0.8611941
0.8822616
0.90451
0.9279427
0.9514034
0.8195556
0.8384717
0.8583566
0.8793038
0.9013917
0.9244699
0.94688
0.7990867
0.8170468
0.8358823
0.8556732
0.876507
0.8983845
0.921074
0.9424941
0.7800667
0.7971805
0.8150939
0.8338756
0.8536039
0.874308
0.8959828
0.9183925
0.9390216
0.7624766
0.7788395
0.7959399
0.8138375
0.8326005
0.8522563
0.8728411
0.8944063
0.916628
0.9367249
0.7462129
0.7619057
0.7782845
0.7954017
0.8133168
0.8320517
0.851643
0.8721895
0.8937053
0.9158389
0.9365043
0.9570789
0.9332035
0.9577093
0.909538
0.9332784
0.957882
0.8867524
0.9091887
0.9329686
0.9575932
0.8647355
0.8859569
0.9084045
0.9321785
0.9567116
0.8432895
0.863389
0.8845905
0.907007
0.9307071
0.9548772
0.822209
0.8412637
0.8613069
0.8824401
0.9047641
0.9282198
0.9516705
0.8015252
0.8196049
0.8385743
0.8585176
0.8795304
0.9016337
0.9246904
0.9471284
0.781932
0.7991325
0.8171416
0.8360302
0.8558799
0.8767255
0.8985792
0.921285
0.9427272
0.7636929
0.7801098
0.7972694
0.8152321
0.8340679
0.8538057
0.8744859
0.8961724
0.918597
0.9392448
0.7467996
0.7625174
0.7789235
0.7960704
0.8140183
0.8327896
0.8524218
0.8730159
0.8945923
0.9168281
0.9377761
0.7311606
0.7462518
0.7619856
0.7784085
0.7955731
0.8134955
0.8322074
0.8518065
0.8723621
0.8938888
0.9167953
0.9372141
0.9558672
0.9327472
0.9571673
0.909538
0.9332784
0.957882
0.8871425
0.9096051
0.9334249
0.9581359
0.865545
0.8868141
0.9093204
0.9331845
0.9579262
0.8446207
0.8647931
0.8860785
0.9085992
0.9324626
0.95704
0.8241868
0.8433438
0.8635026
0.8847703
0.9072636
0.9309879
0.955151
0.8040553
0.82226
0.8413698
0.8614737
0.8826751
0.9050158
0.9284521
0.9519398
0.7842626
0.801572
0.8197019
0.8387259
0.8587297
0.8797548
0.901835
0.9249106
0.9473768
0.765479
0.7819756
0.7992225
0.8172817
0.8362252
0.8560848
0.8769065
0.8987728
0.9214949
0.942959
0.7479661
0.7637339
0.7801944
0.7974008
0.8154143
0.8342584
0.8539727
0.8746624
0.8963606
0.9188
0.9403178
0.731724
0.7468385
0.7625976
0.7790478
0.7962424
0.8141976
0.8329459
0.852586
0.8731893
0.8947768
0.9177905
0.9384954
0.7166711
0.7311978
0.7463283
0.762104
0.7785719
0.7957431
0.8136432
0.8323619
0.8519687
0.8725333
0.894772
0.9174458
0.9377485
0.9537144
0.9317409
0.9559552
0.9091214
0.9328221
0.9573397
0.8871425
0.9096051
0.9334249
0.9581359
0.8659134
0.8872041
0.9097367
0.9336406
0.9584694
0.8453884
0.8656024
0.8869353
0.9095146
0.9334683
0.9582557
0.8254531
0.8446748
0.8649064
0.8862578
0.9088554
0.9327437
0.9573156
0.8059412
0.8242381
0.8434505
0.8636705
0.8850072
0.9075177
0.9312235
0.9554273
0.7866803
0.8041037
0.8223603
0.8415267
0.8616933
0.882908
0.9052268
0.928686
0.9522115
0.7677103
0.7843071
0.8016641
0.8198454
0.8389257
0.8589398
0.8799415
0.902036
0.9251304
0.9476251
0.749679
0.7655206
0.7820613
0.7993556
0.8174664
0.8364185
0.8562545
0.8770864
0.8989652
0.9217034
0.9440749
0.7328443
0.7480053
0.7638147
0.7803196
0.797574
0.815595
0.8344161
0.8541385
0.8748377
0.8965474
0.9197765
0.941064
0.7172129
0.7317613
0.7469153
0.7627164
0.7792118
0.7964129
0.8143458
0.833101
0.8527489
0.8733613
0.8956647
0.9184473
0.9390394
0.7027114
0.7167068
0.7312711
0.7464416
0.7622603
0.7787341
0.7958837
0.8137897
0.8325152
0.8521296
0.8733575
0.8953721
0.9179351
0.9381058
0.9502697
0.9299865
0.9538016
0.9082051
0.9318158
0.956127
0.8867524
0.9091887
0.9329686
0.9575932
0.8659134
0.8872041
0.9097367
0.9336406
0.9584694
0.8457379
0.8659708
0.887325
0.9099306
0.9339242
0.9587993
0.8261834
0.8454422
0.8657152
0.887114
0.9097701
0.9337492
0.9585317
0.8071487
0.8255041
0.8447811
0.8650736
0.886494
0.9091091
0.9329792
0.957593
0.7884823
0.8059897
0.8243389
0.8436083
0.8638916
0.8852418
0.9077308
0.9314606
0.9557059
0.7700249
0.7867262
0.8041988
0.8225085
0.8417334
0.8619111
0.8831032
0.9054392
0.9289213
0.9524855
0.7518186
0.7677528
0.7843947
0.8018003
0.8200344
0.8391237
0.8591147
0.8801279
0.9022367
0.9253499
0.9488257
0.7344891
0.7497187
0.7656023
0.7821881
0.7995311
0.8176495
0.8365786
0.8564233
0.8772653
0.8991565
0.922708
0.9448934
0.7182899
0.7328819
0.7480826
0.7639343
0.7804848
0.7977458
0.8157444
0.8345726
0.854303
0.8750116
0.8974465
0.9204518
0.9416388
0.7032328
0.7172487
0.7318349
0.747029
0.7628731
0.7793745
0.796554
0.814493
0.8332549
0.8529105
0.8741895
0.89627
0.9189432
0.9394048
0.6892515
0.7027456
0.7167771
0.7313797
0.7465912
0.7624153
0.7788682
0.7960231
0.8139352
0.8326672
0.8529046
0.8739172
0.8958235
0.9182621
0.9382849
0.9455662
0.9272319
0.9503546
0.9066124
0.9300613
0.9539718
0.885895
0.9082724
0.9319625
0.9563797
0.865545
0.8868141
0.9093204
0.9331845
0.9579262
0.8457379
0.8659708
0.887325
0.9099306
0.9339242
0.9587993
0.826516
0.8457917
0.8660833
0.8875035
0.9101858
0.9342049
0.9590754
0.8078453
0.8262342
0.8455481
0.8658818
0.8873493
0.9100232
0.933984
0.9588092
0.7896363
0.807197
0.8256044
0.8449382
0.8652939
0.8867279
0.9093216
0.9332157
0.9578723
0.7717499
0.7885285
0.8060853
0.8244879
0.8438162
0.8641107
0.8854386
0.9079453
0.9316992
0.9559869
0.7540377
0.7700686
0.7868167
0.8043395
0.8227041
0.8419384
0.8620937
0.8832998
0.9056529
0.9291581
0.9538219
0.7365435
0.7518592
0.7678363
0.7845243
0.8019799
0.8202219
0.8392885
0.8592893
0.880314
0.902437
0.9264112
0.9498373
0.7198712
0.7345271
0.7497969
0.7657234
0.7823553
0.7997052
0.8178012
0.8367378
0.8565911
0.8774431
0.9000784
0.9234342
0.9455638
0.7042694
0.718326
0.7329559
0.748197
0.7640921
0.7806486
0.797888
0.8158928
0.8347279
0.8544663
0.8758493
0.8980673
0.9209694
0.9420319
0.6897538
0.7032672
0.7173192
0.7319438
0.747179
0.7630286
0.7795091
0.796694
0.8146389
0.8334076
0.8536889
0.8747537
0.8967269
0.9192758
0.9395884
0.6762642
0.6892844
0.7028132
0.7168814
0.7315232
0.7467397
0.7625435
0.7790013
0.7961615
0.8140794
0.8333997
0.8534306
0.874338
0.896125
0.9184258
0.9410089
0.9235247
0.945646
0.9041192
0.9273057
0.9505206
0.8844065
0.9066798
0.9302077
0.9542223
0.8647355
0.8859569
0.9084045
0.9321785
0.9567116
0.8453884
0.8656024
0.8869353
0.9095146
0.9334683
0.9582557
0.826516
0.8457917
0.8660833
0.8875035
0.9101858
0.9342049
0.9590754
0.8081626
0.8265668
0.8458973
0.8662496
0.8877383
0.9104384
0.9344395
0.9593528
0.790302
0.8078934
0.8263341
0.8457045
0.8661012
0.8875825
0.9102348
0.9342197
0.9590881
0.7728546
0.7896822
0.8072921
0.8257528
0.8451453
0.8655122
0.8869239
0.9095351
0.9334534
0.9581534
0.7556917
0.7717939
0.7886194
0.8062267
0.8246845
0.8440223
0.8642946
0.8856368
0.9081612
0.9319394
0.9573568
0.7386739
0.7540796
0.7701549
0.7869506
0.8045251
0.822898
0.8421103
0.8622775
0.8834975
0.9058679
0.9303122
0.955224
0.7218459
0.7365823
0.751939
0.7679601
0.7846954
0.802158
0.8203779
0.839453
0.8594636
0.8804999
0.9034065
0.9272766
0.9508089
0.705791
0.7199076
0.734602
0.7499127
0.7658831
0.7825212
0.7998494
0.8179521
0.8368961
0.8567578
0.8783006
0.9007432
0.9240206
0.9460534
0.6907522
0.704304
0.718397
0.7330655
0.7483481
0.7642487
0.7807842
0.7980291
0.8160401
0.8348821
0.8552531
0.8764273
0.8985428
0.9213217
0.9422322
0.6767485
0.6897868
0.703335
0.7174238
0.7320877
0.7473279
0.7631572
0.7796426
0.7968329
0.8147838
0.8341431
0.854219
0.8751795
0.8970332
0.9194429
0.6637248
0.6762959
0.6893494
0.7029134
0.7170191
0.7316655
0.7468624
0.7626707
0.7791333
0.7962988
0.8147744
0.8338966
0.853826
0.8746192
0.896276
0.9373576
0.9199476
0.941085
0.9007715
0.9235953
0.945802
0.8820791
0.904186
0.9274501
0.9507648
0.8633312
0.8844687
0.906812
0.9304234
0.9545515
0.8446207
0.8647931
0.8860785
0.9085992
0.9324626
0.95704
0.8261834
0.8454422
0.8657152
0.887114
0.9097701
0.9337492
0.9585317
0.8081626
0.8265668
0.8458973
0.8662496
0.8877383
0.9104384
0.9344395
0.9593528
0.7906053
0.8082106
0.8266664
0.8460534
0.8664685
0.887971
0.9106496
0.9346747
0.9596315
0.773492
0.7903478
0.8079881
0.8264819
0.8459107
0.8663187
0.8877774
0.9104471
0.9344563
0.9593684
0.7567508
0.7728984
0.7897726
0.8074328
0.8259485
0.8453505
0.8656951
0.8871208
0.9097496
0.9336923
0.9595208
0.7402617
0.7557336
0.7718805
0.7887538
0.8064131
0.8248794
0.8441953
0.8644796
0.8858362
0.9083785
0.9331097
0.9587734
0.7238937
0.738714
0.754162
0.7702826
0.7871273
0.8047092
0.8230607
0.8422834
0.8624624
0.8836965
0.9069167
0.931463
0.9569535
0.7076912
0.7218831
0.7366587
0.7520574
0.7681234
0.7848651
0.8023062
0.8205337
0.8396173
0.8596376
0.8813997
0.9041941
0.9280836
0.9516668
0.6922179
0.705826
0.7199794
0.7347129
0.7500655
0.7660416
0.7826587
0.7999928
0.818102
0.8370534
0.8575624
0.8789186
0.9012792
0.924443
0.9463183
0.677711
0.6907855
0.7043721
0.7185022
0.7332103
0.7484979
0.7643782
0.7809187
0.7981692
0.8161863
0.8356252
0.8557957
0.87687
0.8988663
0.9215007
0.6641921
0.6767803
0.689852
0.7034354
0.7175619
0.7322305
0.7474511
0.7632849
0.7797751
0.7969706
0.8154815
0.8346437
0.8546189
0.8754649
0.897187
0.6516106
0.6637554
0.6763585
0.6894458
0.7030458
0.7171558
0.7317833
0.7469842
0.7627969
0.7792642
0.7969603
0.8152458
0.8342702
0.8540902
0.87476
0.9348732
0.9170841
0.9374314
0.8975469
0.9200159
0.9412337
0.8789557
0.9008358
0.9237336
0.9460316
0.8611366
0.8821407
0.9043169
0.9276629
0.9510858
0.8432895
0.863389
0.8845905
0.907007
0.9307071
0.9548772
0.8254531
0.8446748
0.8649064
0.8862578
0.9088554
0.9327437
0.9573156
0.8078453
0.8262342
0.8455481
0.8658818
0.8873493
0.9100232
0.933984
0.9588092
0.7906053
0.8082106
0.8266664
0.8460534
0.8664685
0.887971
0.9106496
0.9346747
0.9596315
0.7737824
0.7906509
0.808305
0.8268138
0.8462591
0.8666855
0.8881655
0.9108613
0.9349106
0.9599114
0.757362
0.7735356
0.7904378
0.8081281
0.8266766
0.8461151
0.8665005
0.8879731
0.9106602
0.9346936
0.9607299
0.7412786
0.7567926
0.7729845
0.7899064
0.8076184
0.8261425
0.8455225
0.8658788
0.8873186
0.9099651
0.9348539
0.9608705
0.7254198
0.7403019
0.7558164
0.7720088
0.7889313
0.8065981
0.8250429
0.8443694
0.8646659
0.8860369
0.9094382
0.9342639
0.9604551
0.7096614
0.723932
0.7387929
0.7542841
0.7704513
0.7873027
0.8048637
0.8232244
0.8424576
0.8626486
0.8846679
0.9079584
0.9328315
0.9591399
0.6940479
0.7077269
0.7219564
0.7367721
0.7522135
0.7682854
0.7850063
0.8024542
0.8206893
0.8397814
0.8604809
0.8821303
0.9049265
0.9287774
0.9522546
0.6791238
0.6922515
0.705895
0.7200859
0.7348594
0.7502172
0.7661729
0.7827954
0.8001354
0.8182511
0.8378127
0.8581419
0.8794167
0.9016648
0.9246691
0.6651206
0.677743
0.690851
0.7044732
0.7186411
0.733354
0.7486219
0.7645068
0.7810523
0.7983083
0.8168909
0.8361375
0.8562113
0.8771711
0.8990306
0.6520616
0.6642227
0.676843
0.6899486
0.7035681
0.717699
0.7323486
0.7475732
0.7634115
0.7799065
0.7976347
0.8159564
0.8350215
0.8548871
0.8756082
0.6399005
0.65164
0.6638156
0.6764513
0.6895731
0.7031772
0.7172689
0.7319001
0.747105
0.7629221
0.7798954
0.7974088
0.8156002
0.8345198
0.8542225
0.9336265
0.9151348
0.9349455
0.8949691
0.9171509
0.9375755
0.8759475
0.8976093
0.9201496
0.9414524
0.8581921
0.8790152
0.9009617
0.9239372
0.9463331
0.8412097
0.8611941
0.8822616
0.90451
0.9279427
0.9514034
0.8241868
0.8433438
0.8635026
0.8847703
0.9072636
0.9309879
0.955151
0.8071487
0.8255041
0.8447811
0.8650736
0.886494
0.9091091
0.9329792
0.957593
0.790302
0.8078934
0.8263341
0.8457045
0.8661012
0.8875825
0.9102348
0.9342197
0.9590881
0.7737824
0.7906509
0.808305
0.8268138
0.8462591
0.8666855
0.8881655
0.9108613
0.9349106
0.9599114
0.7576404
0.7738259
0.7907407
0.8084447
0.8270081
0.846463
0.8668669
0.8883605
0.9110737
0.9351472
0.9612698
0.7418653
0.7574036
0.7736213
0.790571
0.8083128
0.8268698
0.846286
0.8666831
0.8881695
0.910874
0.9358465
0.96203
0.7263971
0.7413185
0.7568749
0.7731122
0.790083
0.8078025
0.826305
0.8456952
0.8660635
0.8875174
0.9110143
0.9359523
0.9624047
0.7111297
0.7254582
0.7403811
0.755939
0.7721781
0.7891074
0.8067533
0.8252075
0.8445447
0.8648534
0.8870164
0.9104808
0.935589
0.9624178
0.6959453
0.7096982
0.7240076
0.7389098
0.7544453
0.7706186
0.7874498
0.8050192
0.8233892
0.8426329
0.8635578
0.8856331
0.9091943
0.9345156
0.9620295
0.6808878
0.6940822
0.7077973
0.7220651
0.7369217
0.7523685
0.7684202
0.7851473
0.802602
0.8208446
0.8405764
0.8611655
0.8828099
0.9055549
0.9292424
0.6664835
0.6791562
0.6923178
0.7059972
0.7202264
0.7350048
0.7503429
0.7663035
0.7829313
0.8002771
0.8189707
0.8383594
0.8586091
0.879775
0.9018711
0.652958
0.6651514
0.6778061
0.6909483
0.7046068
0.7187791
0.7334729
0.7487451
0.7646344
0.7811849
0.7989786
0.8173766
0.8365297
0.8564939
0.8773239
0.6403362
0.6520911
0.6642831
0.6769361
0.6900763
0.7036999
0.7178124
0.7324657
0.7476945
0.7635371
0.78054
0.7980864
0.8163147
0.8352748
0.8550217
0.6285752
0.6399289
0.6516981
0.6639051
0.6765739
0.6896996
0.7032859
0.717381
0.732016
0.7472249
0.7635255
0.7803233
0.797746
0.815837
0.8346448
0.914156
0.9336982
0.8932161
0.9152008
0.935087
0.8735425
0.8950304
0.9172818
0.9377876
0.8553557
0.8760054
0.8977317
0.9203465
0.9417398
0.8384195
0.8582476
0.8791318
0.9011474
0.9242049
0.9466314
0.822209
0.8412637
0.8613069
0.8824401
0.9047641
0.9282198
0.9516705
0.8059412
0.8242381
0.8434505
0.8636705
0.8850072
0.9075177
0.9312235
0.9554273
0.7896363
0.807197
0.8256044
0.8449382
0.8652939
0.8867279
0.9093216
0.9332157
0.9578723
0.773492
0.7903478
0.8079881
0.8264819
0.8459107
0.8663187
0.8877774
0.9104471
0.9344563
0.9593684
0.7576404
0.7738259
0.7907407
0.8084447
0.8270081
0.846463
0.8668669
0.8883605
0.9110737
0.9351472
0.9612698
0.7421327
0.7576819
0.7739114
0.7908736
0.808629
0.8272008
0.8466335
0.8670488
0.8885562
0.9112867
0.9362958
0.9625471
0.7269611
0.7419051
0.7574855
0.7737484
0.7907467
0.808496
0.8270313
0.8464576
0.8668662
0.8883665
0.9119137
0.9369041
0.9634684
0.71207
0.7264353
0.7413973
0.7569968
0.7732806
0.7902582
0.8079567
0.8264683
0.8458689
0.8662491
0.8884859
0.912005
0.9371607
0.9641146
0.6973593
0.7111666
0.7255341
0.7404984
0.7561008
0.7723461
0.7892552
0.8069096
0.8253733
0.8447211
0.8657691
0.887981
0.9116764
0.9370964
0.9646668
0.6827166
0.6959807
0.7097708
0.7241198
0.7390642
0.7546054
0.7707591
0.7875978
0.8051757
0.8235551
0.8434894
0.8644619
0.886779
0.9107123
0.9367022
0.9667547
0.668185
0.6809208
0.6941498
0.7079016
0.7222087
0.7370702
0.7524975
0.7685549
0.7852882
0.8027496
0.8215977
0.8412219
0.8618025
0.8833929
0.9059753
0.6542736
0.6665146
0.6792199
0.6924161
0.7061322
0.7203659
0.7351253
0.7504679
0.7664333
0.7830664
0.8009613
0.8194888
0.8388003
0.8589453
0.8799667
0.6412021
0.6529877
0.6652122
0.6778997
0.6910767
0.7047394
0.7188932
0.7335909
0.7488673
0.7647611
0.7818242
0.7994405
0.8177485
0.8367966
0.8566374
0.6289963
0.6403646
0.6521494
0.6643727
0.677059
0.6902031
0.7038089
0.7179249
0.732582
0.7478148
0.7641427
0.7809708
0.7984273
0.8165548
0.8354019
0.6176168
0.6286026
0.6399849
0.6517843
0.6640233
0.6766958
0.6898042
0.7033937
0.7174923
0.7321309
0.7478028
0.7639345
0.7806449
0.7979713
0.8159555
0.8923361
0.9142216
0.9338384
0.8719068
0.8932768
0.91533
0.9352952
0.8530874
0.8735994
0.8951506
0.9174746
0.9380663
0.8357311
0.8554098
0.8761189
0.8979121
0.9206054
0.9420241
0.8195556
0.8384717
0.8583566
0.8793038
0.9013917
0.9244699
0.94688
0.8040553
0.82226
0.8413698
0.8614737
0.8826751
0.9050158
0.9284521
0.9519398
0.7884823
0.8059897
0.8243389
0.8436083
0.8638916
0.8852418
0.9077308
0.9314606
0.9557059
0.7728546
0.7896822
0.8072921
0.8257528
0.8451453
0.8655122
0.8869239
0.9095351
0.9334534
0.9581534
0.757362
0.7735356
0.7904378
0.8081281
0.8266766
0.8461151
0.8665005
0.8879731
0.9106602
0.9346936
0.9607299
0.7421327
0.7576819
0.7739114
0.7908736
0.808629
0.8272008
0.8466335
0.8670488
0.8885562
0.9112867
0.9362958
0.9625471
0.727218
0.7421724
0.7577636
0.7740381
0.7910489
0.8088118
0.8273619
0.8468044
0.8672313
0.8887523
0.9123216
0.9373348
0.9639432
0.7126126
0.7269992
0.7419835
0.7576068
0.773916
0.7909211
0.8086493
0.8271935
0.8466298
0.8670501
0.8893254
0.9128668
0.9380374
0.9650361
0.6982647
0.7121067
0.7265108
0.741514
0.7571578
0.7734477
0.790405
0.8081116
0.8266324
0.8460434
0.8671537
0.8894013
0.9130948
0.938472
0.9659818
0.6840793
0.6973947
0.7112394
0.7256466
0.7406534
0.7562615
0.7724871
0.7894039
0.8070669
0.8255402
0.8455831
0.8666718
0.8890885
0.9130357
0.9387895
0.9675869
0.6699489
0.6827505
0.6960504
0.7098785
0.7242679
0.7392176
0.7547397
0.7709004
0.7877469
0.8053332
0.8243659
0.8443418
0.8655362
0.8881872
0.912681
0.9402593
0.9692905
0.655916
0.6682167
0.6809858
0.6942502
0.7080395
0.7223512
0.7371938
0.7526264
0.7686894
0.7854288
0.8034653
0.8222091
0.8418229
0.8623493
0.8837831
0.6424728
0.6543036
0.666576
0.6793146
0.6925459
0.7062663
0.7204816
0.735245
0.7505921
0.7665624
0.7837187
0.8014539
0.8199066
0.8391175
0.8591251
0.6298331
0.6412307
0.6530463
0.6653024
0.6780234
0.6912043
0.7048491
0.7190065
0.7337081
0.7489885
0.7653721
0.7822647
0.7997942
0.8180015
0.8369321
0.618024
0.6290238
0.6404208
0.6522358
0.6644913
0.6771812
0.690308
0.7039171
0.7180365
0.7326973
0.7483947
0.7645545
0.7812959
0.7986558
0.8166754
0.6070087
0.6176432
0.6286567
0.6400681
0.6518983
0.6641407
0.6767965
0.689908
0.7035007
0.7176027
0.7326852
0.7481945
0.7642419
0.7808598
0.7980841
0.8710854
0.8923965
0.9143499
0.9340449
0.8515443
0.8719632
0.8933957
0.9155203
0.9355688
0.8335807
0.8531408
0.8737112
0.8953278
0.917728
0.938342
0.8169986
0.8357821
0.8555162
0.8762865
0.8981495
0.9208617
0.9422597
0.8015252
0.8196049
0.8385743
0.8585176
0.8795304
0.9016337
0.9246904
0.9471284
0.7866803
0.8041037
0.8223603
0.8415267
0.8616933
0.882908
0.9052268
0.928686
0.9522115
0.7717499
0.7885285
0.8060853
0.8244879
0.8438162
0.8641107
0.8854386
0.9079453
0.9316992
0.9559869
0.7567508
0.7728984
0.7897726
0.8074328
0.8259485
0.8453505
0.8656951
0.8871208
0.9097496
0.9336923
0.9595208
0.7418653
0.7574036
0.7736213
0.790571
0.8083128
0.8268698
0.846286
0.8666831
0.8881695
0.910874
0.9358465
0.96203
0.727218
0.7421724
0.7577636
0.7740381
0.7910489
0.8088118
0.8273619
0.8468044
0.8672313
0.8887523
0.9123216
0.9373348
0.9639432
0.7128599
0.727256
0.7422505
0.7578847
0.7742053
0.7912228
0.8089646
0.8275234
0.8469759
0.8674142
0.8897065
0.9132574
0.9384349
0.9654508
0.6987873
0.7126492
0.7270743
0.7420996
0.757767
0.7740823
0.7910669
0.8088032
0.8273562
0.8468026
0.8679452
0.8902053
0.9138884
0.9392391
0.9667195
0.684952
0.6983
0.7121791
0.7266227
0.7416681
0.7573176
0.7735878
0.7905525
0.8082674
0.8267974
0.8468945
0.8680096
0.8904096
0.9142774
0.9398716
0.968318
0.6712632
0.6841134
0.6974647
0.7113474
0.7257953
0.7408073
0.7563963
0.7726291
0.7895537
0.8072254
0.8263557
0.8464336
0.8677093
0.8903485
0.914562
0.9409548
0.9696431
0.6576185
0.6699816
0.6828176
0.6961539
0.7100207
0.724415
0.7393462
0.7548749
0.7710427
0.787897
0.8061035
0.8251734
0.8453556
0.8668574
0.8900142
0.9158862
0.9423115
0.9711554
0.644059
0.6559465
0.6682794
0.6810824
0.6943828
0.7081764
0.7224698
0.7373173
0.752755
0.7688237
0.7861108
0.8040465
0.8227786
0.8423389
0.8627154
0.6310612
0.6425017
0.6543628
0.6666672
0.6794396
0.6926749
0.7063774
0.7205965
0.7353641
0.7507156
0.7671856
0.7841883
0.8018512
0.8202072
0.8392873
0.6188332
0.6298608
0.6412872
0.6531332
0.6654215
0.6781462
0.6913098
0.704958
0.719119
0.7338244
0.7495735
0.765793
0.782602
0.8000348
0.8181299
0.6074027
0.6180506
0.629078
0.6405043
0.6523501
0.664609
0.6772822
0.6904121
0.7040244
0.7181473
0.7332535
0.748789
0.7648652
0.7815139
0.7987705
0.5967353
0.6070342
0.6176955
0.628737
0.6401781
0.6520116
0.6642378
0.6768964
0.6900109
0.7036068
0.718135
0.7330608
0.7484889
0.7644473
0.7809674
0.8507692
0.8711416
0.8925147
0.9145391
0.9343161
0.8321173
0.8515972
0.8720738
0.893571
0.9157705
0.9358395
0.8149528
0.833631
0.8532455
0.873876
0.895561
0.9179789
0.9385702
0.7990867
0.8170468
0.8358823
0.8556732
0.876507
0.8983845
0.921074
0.9424941
0.7842626
0.801572
0.8197019
0.8387259
0.8587297
0.8797548
0.901835
0.9249106
0.9473768
0.7700249
0.7867262
0.8041988
0.8225085
0.8417334
0.8619111
0.8831032
0.9054392
0.9289213
0.9524855
0.7556917
0.7717939
0.7886194
0.8062267
0.8246845
0.8440223
0.8642946
0.8856368
0.9081612
0.9319394
0.9573568
0.7412786
0.7567926
0.7729845
0.7899064
0.8076184
0.8261425
0.8455225
0.8658788
0.8873186
0.9099651
0.9348539
0.9608705
0.7269611
0.7419051
0.7574855
0.7737484
0.7907467
0.808496
0.8270313
0.8464576
0.8668662
0.8883665
0.9119137
0.9369041
0.9634684
0.7128599
0.727256
0.7422505
0.7578847
0.7742053
0.7912228
0.8089646
0.8275234
0.8469759
0.8674142
0.8897065
0.9132574
0.9384349
0.9654508
0.6990254
0.7128963
0.727331
0.7423664
0.7580445
0.7743712
0.7913682
0.8091179
0.8276855
0.8471479
0.8683047
0.8905701
0.914249
0.9395904
0.9670598
0.6854556
0.6988224
0.7127212
0.7271856
0.742253
0.757926
0.7742215
0.7912133
0.8089576
0.8275195
0.8476445
0.8687674
0.8911498
0.9149722
0.9404983
0.9688099
0.672105
0.6849859
0.6983696
0.7122865
0.7267705
0.7418212
0.7574515
0.7737285
0.7907008
0.808424
0.8276022
0.8477004
0.8689534
0.891505
0.9155403
0.9415884
0.9700527
0.658887
0.6712961
0.6841807
0.6975685
0.7114902
0.7259429
0.7409364
0.7565321
0.7727721
0.7897046
0.8079997
0.8271609
0.847412
0.8688908
0.8917644
0.9165157
0.9426395
0.9713299
0.6457033
0.65765
0.6700462
0.6829172
0.6962906
0.710162
0.7245384
0.7394757
0.755011
0.771186
0.7886308
0.806871
0.8261344
0.8466031
0.8685723
0.8929914
0.9177369
0.9439404
0.9725813
0.6325941
0.6440885
0.6560069
0.6683724
0.68121
0.6945145
0.7082904
0.7225883
0.7374406
0.7528835
0.7694751
0.7866647
0.8045879
0.8232677
0.8426845
0.6200207
0.6310891
0.6425588
0.6544506
0.6667876
0.6795638
0.6927818
0.7064879
0.7207108
0.7354825
0.7513121
0.7676342
0.784567
0.802137
0.8203682
0.6081855
0.6188599
0.6299153
0.641371
0.6532481
0.66554
0.6782479
0.6914146
0.7050661
0.7192307
0.7343853
0.7499765
0.7661154
0.7828314
0.800157
0.5971166
0.6074283
0.618103
0.6291586
0.6406146
0.6524637
0.6647064
0.6773824
0.6905154
0.7041309
0.7186813
0.7336316
0.7490865
0.7650735
0.7816233
0.5867822
0.59676
0.6070847
0.6177731
0.6288433
0.6402875
0.6521053
0.6643341
0.6769956
0.6901131
0.7041186
0.7184956
0.7333431
0.7486855
0.7645502
0.8313821
0.8508218
0.8712517
0.8926892
0.9147878
0.9345845
0.8135603
0.8321672
0.851701
0.8722371
0.8938016
0.9160182
0.9360634
0.7971353
0.8150004
0.8337297
0.8534002
0.8740931
0.8957918
0.9181864
0.9387967
0.781932
0.7991325
0.8171416
0.8360302
0.8558799
0.8767255
0.8985792
0.921285
0.9427272
0.7677103
0.7843071
0.8016641
0.8198454
0.8389257
0.8589398
0.8799415
0.902036
0.9251304
0.9476251
0.7540377
0.7700686
0.7868167
0.8043395
0.8227041
0.8419384
0.8620937
0.8832998
0.9056529
0.9291581
0.9538219
0.7402617
0.7557336
0.7718805
0.7887538
0.8064131
0.8248794
0.8441953
0.8644796
0.8858362
0.9083785
0.9331097
0.9587734
0.7263971
0.7413185
0.7568749
0.7731122
0.790083
0.8078025
0.826305
0.8456952
0.8660635
0.8875174
0.9110143
0.9359523
0.9624047
0.7126126
0.7269992
0.7419835
0.7576068
0.773916
0.7909211
0.8086493
0.8271935
0.8466298
0.8670501
0.8893254
0.9128668
0.9380374
0.9650361
0.6990254
0.7128963
0.727331
0.7423664
0.7580445
0.7743712
0.7913682
0.8091179
0.8276855
0.8471479
0.8683047
0.8905701
0.914249
0.9395904
0.9670598
0.6856851
0.6990604
0.7129682
0.727442
0.7425194
0.7582031
0.7745099
0.7915141
0.8092716
0.827848
0.8479853
0.8691114
0.8914864
0.9152912
0.9407932
0.9690533
0.6725907
0.6854893
0.6988916
0.7128281
0.7273327
0.7424053
0.7580591
0.7743611
0.7913603
0.8091126
0.8283154
0.8484183
0.869651
0.8921531
0.916109
0.942028
0.9703694
0.6596994
0.6721376
0.6850528
0.6984728
0.7124285
0.7269173
0.7419494
0.7575861
0.77387
0.7908498
0.8091879
0.8283649
0.8485899
0.8699797
0.8926758
0.917091
0.9430281
0.9715638
0.6469284
0.6589186
0.6713608
0.6842805
0.6977057
0.7116319
0.7260667
0.7410665
0.7566688
0.772916
0.790442
0.8087648
0.8280879
0.848527
0.870219
0.893578
0.9180384
0.9441334
0.9726827
0.6341831
0.6457336
0.6577122
0.6701421
0.6830488
0.6964265
0.7102806
0.7246627
0.7396061
0.7551481
0.7718867
0.7893623
0.8077849
0.8273174
0.848223
0.8713689
0.8947082
0.9192109
0.9452693
0.973682
0.6215029
0.6326226
0.6441467
0.6560966
0.6684953
0.6813368
0.6946241
0.7084042
0.7227066
0.7375637
0.7535068
0.7700042
0.7871808
0.805053
0.8235954
0.6093343
0.6200476
0.6311442
0.6426435
0.6545668
0.6669073
0.6796667
0.6928881
0.7065977
0.7208245
0.7360544
0.7517415
0.7679961
0.7848396
0.8022901
0.5978744
0.6082113
0.6189126
0.6299963
0.641482
0.6533624
0.6656379
0.6783488
0.6915186
0.7051734
0.7197692
0.7347716
0.750285
0.7663346
0.7829479
0.5871515
0.5971414
0.6074789
0.6181808
0.6292651
0.6407242
0.6525576
0.664803
0.6774819
0.6906178
0.7046443
0.7190444
0.7339169
0.7492859
0.7651781
0.5771361
0.5868061
0.5968088
0.6071598
0.6178758
0.6289489
0.6403779
0.6521982
0.6644297
0.677094
0.6906055
0.7044653
0.7187667
0.7335317
0.748784
0.8128605
0.8314317
0.8509252
0.8714143
0.8929186
0.9150339
0.9348065
0.7958069
0.8136075
0.8322651
0.8518543
0.8724521
0.89403
0.916223
0.9362856
0.7800667
0.7971805
0.8150939
0.8338756
0.8536039
0.874308
0.8959828
0.9183925
0.9390216
0.765479
0.7819756
0.7992225
0.8172817
0.8362252
0.8560848
0.8769065
0.8987728
0.9214949
0.942959
0.7518186
0.7677528
0.7843947
0.8018003
0.8200344
0.8391237
0.8591147
0.8801279
0.9022367
0.9253499
0.9488257
0.7386739
0.7540796
0.7701549
0.7869506
0.8045251
0.822898
0.8421103
0.8622775
0.8834975
0.9058679
0.9303122
0.955224
0.7254198
0.7403019
0.7558164
0.7720088
0.7889313
0.8065981
0.8250429
0.8443694
0.8646659
0.8860369
0.9094382
0.9342639
0.9604551
0.71207
0.7264353
0.7413973
0.7569968
0.7732806
0.7902582
0.8079567
0.8264683
0.8458689
0.8662491
0.8884859
0.912005
0.9371607
0.9641146
0.6987873
0.7126492
0.7270743
0.7420996
0.757767
0.7740823
0.7910669
0.8088032
0.8273562
0.8468026
0.8679452
0.8902053
0.9138884
0.9392391
0.9667195
0.6856851
0.6990604
0.7129682
0.727442
0.7425194
0.7582031
0.7745099
0.7915141
0.8092716
0.827848
0.8479853
0.8691114
0.8914864
0.9152912
0.9407932
0.9690533
0.6728121
0.6857188
0.6991295
0.7130748
0.7275887
0.7426713
0.7583357
0.7746491
0.7916604
0.8094258
0.8286396
0.8487444
0.8699685
0.8924509
0.9163772
0.9422498
0.9705369
0.6601682
0.6726232
0.6855559
0.6989943
0.7129693
0.7274787
0.7425327
0.7581926
0.7745013
0.7915078
0.8098679
0.8290475
0.8492508
0.8705906
0.8932065
0.9174918
0.9433351
0.9717622
0.6477129
0.6597308
0.672202
0.6851521
0.6986092
0.7125694
0.7270403
0.7420783
0.7577213
0.7740122
0.7915771
0.8099123
0.8292073
0.8495579
0.8710774
0.8941147
0.9183962
0.9443896
0.9728261
0.6353669
0.6469588
0.658981
0.671457
0.6844125
0.697842
0.7117509
0.7261915
0.7411974
0.7568064
0.77362
0.791171
0.8096461
0.8291449
0.8497812
0.8719215
0.8949912
0.9193932
0.9454077
0.9737507
0.6230391
0.6342124
0.6457937
0.6578046
0.6702689
0.6831796
0.6965405
0.7103999
0.7247878
0.7397374
0.7558184
0.7725854
0.7902338
0.8089105
0.8288541
0.850866
0.8729801
0.8960756
0.9204171
0.9463473
0.9745226
0.6107681
0.6215303
0.6326788
0.6442332
0.6562151
0.6686175
0.6814423
0.6947335
0.7085179
0.7228247
0.7381611
0.7540132
0.7704973
0.7876244
0.8053648
0.5989862
0.6093603
0.6201009
0.631226
0.6427556
0.6546822
0.6670065
0.679769
0.6929937
0.7067069
0.7213734
0.736466
0.7520878