/*--------------------------------*- C++ -*----------------------------------*\
| =========                 |                                                 |
| \\      /  F ield         | OpenFOAM: The Open Source CFD Toolbox           |
|  \\    /   O peration     | Version:  2306                                  |
|   \\  /    A nd           | Website:  www.openfoam.com                      |
|    \\/     M anipulation  |                                                 |
\*---------------------------------------------------------------------------*/
FoamFile
{
    version     2.0;
    format      ascii;
    arch        "LSB;label=32;scalar=64";
    class       volScalarField;
    location    "0.9";
    object      contErrCp;
}
// * * * * * * * * * * * * * * * * * * * * * * * * * * * * * * * * * * * * * //

dimensions      [1 -1 -3 -1 0 0 0];

internalField   nonuniform List<scalar> 
52000
(
0
0
0
0
0
0
0
0
0
0
0
0
0
0
0
0
0
0
0
0
0
0
0
0
0
0
0
0
0
0
0
0
0
0
0
0
0
0
0
0
0
0
0
0
0
0
0
0
0
0
0
0
0
0
0
0
0
0
0
0
0
0
0
0
0
0
0
0
0
0
0
0
0
0
0
0
0
0
0
0
0
0
0
0
0
0
0
0
0
0
0
0
0
0
0
0
0
0
0
0
0
0
0
0
0
0
0
0
0
0
0
0
0
0
0
0
0
0
0
0
0
0
0
0
0
0
0
0
0
0
0
0
0
0
0
0
0
0
0
0
0
0
0
0
0
0
0
0
0
0
0
0
0
0
0
0
0
0
0
0
0
0
0
0
0
0
0
0
0
0
0
0
0
0
0
0
0
0
0
0
0
0
0
0
0
0
0
0
0
0
0
0
0
0
0
0
0
0
0
0
0
0
0
0
0
0
0
0
0
0
0
0
0
0
0
0
0
0
0
0
0
0
0
0
0
0
0
0
0
0
0
0
0
0
0
0
0
0
0
0
0.0001290301
0
0
0
0
0
0
0
0
0
0
0
0
0
0
0
0
0
0
0
0
0
0
0
0
0
0
0
0
0
0
0
0
0
0
0
0
0
0
0
0
0
0
0
0
0
0
0
0
0
0
0
0
0
0
0
0
0
0
0
0
0
0
0
0
0
0.0003285441
0
0
0
0
0
-3.446349e-05
0.0004154379
0
0
0
0
0
0
0
0
0
0
0
0
0
0
0
0
0
0
0
0
0
0
0
0
0
0
0
0
0
0
0
0
0
0
0
0
0
0
0
0
0
0
0
0
0
0
0
0
0
0
0
0
0
0
0
0
0
0
0
0
0
0
0
0
0
0
0
0
0
0
2.693973e-05
0
0
0
0
0
0.000231864
-0.0002096766
0
0
0
0
0
-0.0001458255
0.0002243363
-0.0002835822
0
0
0
0
0
0
0
0
0
0
0
0
0
0
0
0
0
0
0
0
0
0
0
0
0
0
0
0
0
0
0
0
0
0
0
0
0
0
0
0
0
0
0
0
0
0
0
0
0
0
0
0
0
0
0
0
0
0
0
0
0
0
0
0
0
0
0
0
0
0
0
0
0
0
0
0.0006461159
0
0
0
0
0
0.0004838652
-0.000683375
0
0
0
0
0
0.0001361757
-0.0004331915
-0.0001759231
0
0
0
0
0
0.0002862987
0.0003972153
0.000307331
0.0001158991
0
0
0
0
0
0
0
0
0
0
0
0
0
0
0
0
0
0
0
0
0
0
0
0
0
0
0
0
0
0
0
0
0
0
0
0
0
0
0
0
0
0
0
0
0
0
0
0
0
0
0
0
0
0
0
0
0
0
0
0
0
0
0
0
0
0
0
0
0
0
0
0
0
0
0
0
0
0
0
0
0.0003576061
0
0
0
0
0
-0.0003232792
-0.0004830016
0
0
0
0
0
0.0003650451
-0.000592632
0.0001481225
0
0
0
0
0
-0.0004016501
-0.0001324759
0.0006540001
0.0004227569
0
0
0
0
0
-5.988342e-05
0.0003098737
-0.0006927341
-0.0003935056
-0.0003569072
0
0
0
0
0
0
0
0
0
0
0
0
0
0
0
0
0
0
0
0
0
0
0
0
0
0
0
0
0
0
0
0
0
0
0
0
0
0
0
0
0
0
0
0
0
0
0
0
0
0
0
0
0
0
0
0
0
0
0
0
0
0
0
0
0
0
0
0
0
0
0
0
0
0
0
0
0
0
0
0
0
0
0
0
0
0.0003643046
0
0
0
0
0
0.0003012425
-0.0009405002
0
0
0
0
0
1.114588e-05
-0.0009148408
0.0006758709
0
0
0
0
0
0.0001490621
-4.728107e-05
-0.0007866034
-3.879497e-05
0
0
0
0
0
-0.0002797659
-0.0001681998
0.000218822
4.431418e-05
0.0004055796
0
0
0
0
0
4.859088e-05
0.0003570574
0.0003784009
0.0001595007
9.701772e-05
-0.0002405711
0
0
0
0
0
0
0
0
0
0
0
0
0
0
0
0
0
0
0
0
0
0
0
0
0
0
0
0
0
0
0
0
0
0
0
0
0
0
0
0
0
0
0
0
0
0
0
0
0
0
0
0
0
0
0
0
0
0
0
0
0
0
0
0
0
0
0
0
0
4.735966e-07
0
0
0
0
0
0
0
0
0
0
0
0
0
0
0
0
0
0
0
0
-0.0001214937
0
0
0
0
0
-0.000257921
-0.001035101
0
0
0
0
0
-0.0001083062
0.001859112
0.0001946664
0
0
0
0
0
0.0001437361
0.001087428
0.001057071
-0.002298042
0
0
0
0
0
9.93563e-05
-0.0001505862
-0.0004144862
-0.0003902228
-0.001704475
0
0
0
0
0
-0.0007387258
-0.0001014158
-0.0009273109
0.001558538
-0.0002850354
0.0004302134
0
0
0
0
0
-6.005321e-05
0.0003422859
-0.0002481767
-0.001135993
1.277841e-05
-0.0001898668
-0.0003297318
0
0
0
0
0
0
0
0
0
0
0
0
0
0
0
0
0
0
0
0
0
0
0
0
0
0
0
0
0
0
0
0
0
0
0
0
0
0
0
0
0
0
0
0
0
0
0
0
0
0
0
0
0
0
0
0
0
-3.588765e-06
0
0
0
0
0
0
0
0
0
0
0
0
0
0
0
-2.126633e-06
-4.134137e-07
0
0
0
0
0
0
0
0
0
0
0
0
0
0
0
0
0
0
0
0
0.0006491931
0
0
0
0
0
-0.0004794176
0.0001248998
0
0
0
0
0
0.0002675455
-0.0001620129
0.0009164527
0
0
0
0
0
-6.914482e-05
-0.0008584043
0.0001911508
0.0002963577
0
0
0
0
0
0.0001058
0.0004552691
-0.001397182
0.0008960184
0.003001101
0
0
0
0
0
0.0001328133
0.0007522839
0.0002807884
-0.000501882
0.00112427
0.0004916627
0
0
0
0
0
0.000395491
0.0006733467
-0.0005689714
0.001539641
-0.001013356
-0.0008430148
-0.0008700422
0
0
0
0
0
-0.0001636966
-0.000460471
-0.0005497548
0.0001666482
0.0008151957
0.000635848
-0.0001454797
4.286886e-05
0
0
0
0
0
0
0
0
0
0
0
0
0
0
0
0
0
0
0
0
0
0
0
0
0
0
0
0
0
0
0
0
0
0
0
0
0
0
0
0
0
0
0
0
-1.565547e-07
0
0
0
0
0
0
0
0
0
0
0
0
0
0
0
2.437894e-06
4.562132e-07
0
0
0
0
0
0
0
0
0
0
0
0
0
0
0
-4.893768e-07
1.332087e-06
-1.746222e-06
0
0
0
0
0
0
0
0
0
0
0
0
0
0
0
0
0
0
0
0
-0.0004184544
0
0
0
0
0
0.0005901928
-0.001625441
0
0
0
0
0
0.0001832097
0.0008128542
-0.0004404815
0
0
0
0
0
-0.0003884982
0.0004061487
-0.0008664721
0.001183504
0
0
0
0
0
-0.000664138
-0.0005954448
4.862264e-05
-0.0007032556
0.0002053904
0
0
0
0
0
0.0002546355
0.0003199547
-0.0007193245
0.001362825
0.0002569971
-0.0009831253
0
0
0
0
0
-3.122895e-05
-7.415447e-05
0.0001337004
-8.69056e-05
0.001765661
-0.001034965
0.001513576
0
0
0
0
0
8.841372e-05
-0.0007019219
0.001339745
0.0005971731
-0.0002477129
0.0005746622
0.002226409
0.0005746553
0
0
0
0
0
0.0001622951
0.0002635594
0.0001546177
0.0008229718
-0.0002149289
1.371935e-05
-0.0004818466
0.0001703283
9.380929e-05
0
0
0
0
0
0
0
0
0
0
0
0
0
0
0
0
0
0
0
0
0
0
0
0
0
0
0
0
0
0
-2.903602e-06
0
0
0
0
0
0
0
0
0
0
0
0
0
0
0
-3.006579e-07
-2.016745e-06
0
0
0
0
0
0
0
0
0
0
0
0
0
0
0
-1.780988e-08
-5.45273e-07
-6.94154e-06
0
0
0
0
0
0
0
0
0
0
0
0
0
0
0
-8.799402e-07
-1.862527e-08
-3.985913e-06
-3.400595e-06
0
0
0
0
0
0
0
0
0
0
0
0
0
0
0
0
0
0
0
0
2.577415e-06
0
0
0
0
0
0.0005154365
0.001128424
0
0
0
0
0
-9.011873e-05
-2.99913e-05
0.0005684782
0
0
0
0
0
0.0005719372
5.921566e-05
-0.001513451
-0.0009882881
0
0
0
0
0
-2.519153e-05
0.001377524
0.0004788723
0.0005401895
-0.001945467
0
0
0
0
0
-0.0004991233
0.0002804295
0.0009484828
-0.001563524
-0.001005607
0.000928542
0
0
0
0
0
-0.0002971296
-0.0008579266
-0.0004711467
-0.000435532
-0.001104812
0.0001361152
-0.0007823476
0
0
0
0
0
-6.810889e-06
0.0009908097
-3.852361e-05
-0.0001930977
0.0003204798
-0.001956163
-0.0006379434
-0.001344705
0
0
0
0
0
-0.0004943455
-0.0006880244
0.0007205557
-0.003048662
-0.0005486636
-0.0006760946
-0.0005687677
0.0001071203
-0.00021885
0
0
0
0
0
-6.351886e-05
-0.0002106441
0.0009790604
-5.002878e-05
-0.0003171532
0.0007731869
-0.0006512982
0.0004022205
-0.000598463
0.0001677811
0
0
0
0
0
0
0
0
0
0
0
0
0
0
0
-3.208507e-06
0
0
0
0
0
0
0
0
0
0
0
0
0
0
0
-2.938723e-06
-5.057806e-07
0
0
0
0
0
0
0
0
0
0
0
0
0
0
0
-2.428088e-06
-2.606317e-06
2.841524e-06
0
0
0
0
0
0
0
0
0
0
0
0
0
0
0
-2.617223e-06
2.472839e-06
1.117663e-07
3.535506e-06
0
0
0
0
0
0
0
0
0
0
0
0
0
0
0
-5.067795e-07
4.207546e-06
-1.244531e-06
2.170037e-06
2.057514e-06
0
0
0
0
0
0
0
0
0
0
0
0
0
0
0
0
0
0
0
0
0
0
0
0
0
-3.117313e-06
-0.0004851027
0
0
0
0
0
0.0002730131
-0.001254297
0.0005730239
0
0
0
0
0
-0.0007297966
-0.001221916
0.001007671
-0.0005721663
0
0
0
0
0
0.000152919
-0.0005440747
-0.0005547623
0.0005679872
0.0003874146
0
0
0
0
0
0.0001696513
0.0003879523
-0.001738593
0.00154511
0.0008438949
-0.000173726
0
0
0
0
0
3.110036e-05
0.0003224956
0.0006783892
0.0005591776
0.0007765998
0.001086216
-0.0004515643
0
0
0
0
0
-0.0007058837
5.741882e-05
0.0008432714
-0.0007593268
-0.000390233
0.002238849
0.0007895001
3.327631e-05
0
0
0
0
0
0.00038288
0.0005322641
0.0004691697
0.0001641071
0.0006112191
-0.001045261
0.0008621694
-0.002280653
4.663685e-05
0
0
0
0
0
0.0006834783
0.0006123186
-0.0003682958
-7.834704e-05
0.0007037904
-0.001200463
0.001280911
-0.0002170967
0.0001891056
0.0003793804
0
0
0
0
0
4.386e-06
0.0003163664
0.0008398525
-0.001130401
1.416055e-05
0.000126387
0.0005203358
0.0002251796
-0.0003920065
-0.0001270706
-0.0002246572
0
0
0
0
0
0
0
0
0
0
0
0
0
0
0
-3.046959e-06
5.674923e-06
0
0
0
0
0
0
0
0
0
0
0
0
0
0
0
3.053044e-07
-2.584018e-06
1.91728e-07
0
0
0
0
0
0
0
0
0
0
0
0
0
0
0
3.52654e-07
1.695459e-06
-1.648505e-06
-1.528181e-06
0
0
0
0
0
0
0
0
0
0
0
0
0
0
0
-5.500209e-07
-3.698628e-06
7.464861e-09
2.380286e-08
2.095836e-06
0
0
0
0
0
0
0
0
0
0
0
0
0
0
0
3.702776e-07
2.448299e-06
1.755211e-07
-3.530262e-08
-1.719375e-06
-5.359517e-06
0
0
0
0
0
0
0
0
0
0
0
0
0
0
0
0
0
0
0
0
0
0
0
0
0
0
0
0
0
0
0.0001508457
0.0005275115
0.000172135
0
0
0
0
0
0.0003581539
0.0004606218
-0.0009120364
0.0008453924
0
0
0
0
0
-0.0001097057
0.002188284
0.0006720235
0.001086778
0.0002724277
0
0
0
0
0
0.0002124406
-0.0004813839
-0.0004487069
0.0004840952
-0.0003955186
-0.0009545451
0
0
0
0
0
-0.0004095213
-0.0008517204
-0.001040093
0.0001869313
0.0001691952
-0.00123293
0.001681737
0
0
0
0
0
0.0004480665
0.0001182385
0.001170416
0.0006398269
0.0005766685
-0.001233623
-0.00157787
0.0005500801
0
0
0
0
0
-0.0002508316
0.0003004241
-0.001008213
-0.000603264
-3.164588e-05
0.0009234008
-0.0006826085
-0.001156534
0.001948715
0
0
0
0
0
0.0005157934
-8.268863e-05
-0.0004248514
-0.0006404948
0.0001314248
0.0005436256
2.239664e-05
-4.001852e-05
0.000117034
-0.0003862265
0
0
0
0
0
-0.0003945367
-0.0009953792
-0.0004803837
0.0002822843
-0.0006055019
-4.708906e-05
-8.913557e-05
-0.0008181069
0.0009732316
0.0004214546
-4.488446e-05
0
0
0
0
0
-9.009168e-05
-0.0004317263
-0.0002535548
-0.00068374
0.0004503901
0.0002175964
-0.0001154248
-0.0001134617
-4.87388e-05
-0.0001601963
0.0001053547
-4.24353e-06
0
0
0
0
0
0
0
0
0
0
0
0
0
0
0
-1.297226e-06
3.891702e-06
-6.975613e-07
0
0
0
0
0
0
0
0
0
0
0
0
0
0
0
5.543054e-07
-2.310712e-06
-4.467969e-06
1.395642e-06
0
0
0
0
0
0
0
0
0
0
0
0
0
0
0
1.381967e-06
-2.78466e-08
1.506572e-07
3.105546e-06
4.287609e-07
0
0
0
0
0
0
0
0
0
0
0
0
0
0
0
-3.186998e-06
-1.895013e-06
-9.543414e-07
1.817513e-06
1.4672e-06
2.789906e-05
0
0
0
0
0
0
0
0
0
0
0
0
0
0
0
8.540433e-07
-1.427933e-06
2.983468e-06
-8.708313e-07
-9.518025e-07
5.784177e-06
-7.919915e-06
0
0
0
0
0
0
0
0
0
0
0
0
0
0
0
0
0
0
0
0
0
0
0
0
0
0
0
0
0
0
0
0
0
0
0
-2.131815e-05
-0.0004396306
4.292587e-06
-6.280251e-05
0
0
0
0
0
0.0001969722
-0.001470236
-0.0004454082
0.0001778372
-0.0003143571
0
0
0
0
0
-0.0001023101
0.001537862
-0.001433305
-0.0003183194
-0.002071043
0.001861742
0
0
0
0
0
0.0002267621
-0.0005934249
0.0006628309
0.0007054844
-0.00118619
0.0008567501
8.577707e-05
0
0
0
0
0
-2.46932e-07
0.0008372647
0.0004896005
-0.0002382144
-0.0004529632
0.000748391
0.0006773054
-0.002103354
0
0
0
0
0
-0.0003131851
6.431108e-05
0.0008368107
0.0003243663
-0.0007199461
-0.0009484383
0.001182826
0.001419171
-0.0002449608
0
0
0
0
0
-0.0002083487
0.001220128
-0.0002153302
-0.0007398649
-0.0004636259
-0.0003229997
5.017208e-05
-0.001239354
0.001995282
-0.0006075721
0
0
0
0
0
-0.0001177047
-2.379381e-06
-0.0006372595
-8.837485e-05
0.001791866
0.001360938
-0.0001219818
0.00093959
-0.0004435478
-0.0003855424
-9.728173e-06
0
0
0
0
0
-0.0003610827
0.001095215
-0.0002849134
0.0003628581
-0.0004649677
0.0001199471
-0.0001014893
0.001385683
-0.0001426538
-0.0007494804
0.0002220145
-6.792129e-07
0
0
0
0
0
2.117111e-06
0.0001895475
0.0001488469
0.0003942774
0.0005982496
0.0002009143
-9.270241e-05
0.0007639989
-9.480806e-05
0.000818269
0.0003618926
-2.066776e-07
5.567136e-07
0
0
0
0
0
0
0
0
0
0
0
0
0
0
0
-1.572291e-06
3.965637e-06
-1.553769e-06
2.516554e-06
0
0
0
0
0
0
0
0
0
0
0
0
0
0
0
-4.262483e-07
9.143687e-07
-2.275017e-06
-5.542442e-07
2.744086e-06
0
0
0
0
0
0
0
0
0
0
0
0
0
0
0
-8.384837e-07
-2.021615e-06
-1.772872e-06
7.556536e-07
3.264327e-06
1.64613e-05
0
0
0
0
0
0
0
0
0
0
0
0
0
0
0
-2.277946e-06
1.607372e-06
-2.171457e-07
7.704917e-07
2.360151e-06
-3.532136e-06
9.875942e-06
0
0
0
0
0
0
0
0
0
0
0
0
0
0
0
1.17617e-06
-1.143158e-06
2.215747e-07
-9.723232e-07
9.38158e-08
1.497335e-05
2.882875e-06
-7.979479e-06
0
0
0
0
0
0
0
0
0
0
0
0
0
0
0
0
0
0
0
0
0
0
0
0
0
0
0
0
0
0
0
0
0
0
0
0
0
0
0
0
5.928226e-05
5.427267e-05
-2.163162e-05
0.0003059356
-0.0001480059
0
0
0
0
0
0.0002428451
-0.0004091469
0.0006199644
0.0004693872
0.0005241019
0.0006025407
0
0
0
0
0
0.0001811728
0.001331053
-0.0008288331
0.0001058863
-0.0002775955
0.001155124
-0.0001713667
0
0
0
0
0
-0.0001162182
-0.001198979
-0.000128565
0.0009467487
-0.000181411
-0.0008764708
-0.0001928586
0.0003859508
0
0
0
0
0
-7.693932e-05
0.0002193504
-0.001001022
-0.0004246144
0.001249117
0.0001075675
-0.0002539609
-0.0008055475
0.0003075834
0
0
0
0
0
-0.0003860103
-0.000885466
2.554593e-05
0.001018646
0.0001915093
0.0005275954
3.698443e-05
-4.218997e-05
0.0002887742
-0.0003246955
0
0
0
0
0
0.0004619037
0.0002669917
-0.001897662
0.0001604423
-0.0002057197
-0.001157514
-0.0004650917
-0.001761194
-4.708877e-05
-0.0004238975
0.0002562752
0
0
0
0
0
-0.0002866495
0.0001389751
-0.0001063572
5.428651e-05
0.001165274
-0.0006555866
3.228785e-06
-0.001993196
0.000178804
0.001029655
0.0002793548
3.94039e-07
0
0
0
0
0
-4.390147e-05
0.000151593
-0.001179666
-0.0001385402
-0.0005467288
0.0003290323
-0.0003550068
-0.00160924
-0.0007592068
-0.0004803045
0.0002800819
-1.902071e-06
1.213694e-06
0
0
0
0
0
0.0002291728
-9.607838e-05
4.640946e-05
0.0005541766
0.000203935
-0.00017236
-0.00054083
0.0002278764
-0.0002310413
-0.0007276917
-0.000225943
-2.926992e-06
1.326887e-06
-3.006968e-06
0
0
0
0
0
0
0
0
0
0
0
0
0
0
0
-2.126826e-06
-4.34795e-07
-2.204127e-06
2.260133e-06
-9.519427e-07
0
0
0
0
0
0
0
0
0
0
0
0
0
0
0
-1.327656e-06
2.140434e-06
3.036518e-06
1.26874e-06
9.332906e-07
-4.95425e-06
0
0
0
0
0
0
0
0
0
0
0
0
0
0
0
2.018821e-07
-1.69365e-06
-2.331016e-06
-1.427832e-06
1.72141e-06
1.404031e-05
-1.859742e-06
0
0
0
0
0
0
0
0
0
0
0
0
0
0
0
-3.671826e-06
8.270121e-07
-4.332277e-06
4.935776e-07
1.003604e-06
1.471869e-05
5.860114e-06
-1.593986e-05
0
0
0
0
0
0
0
0
0
0
0
0
0
0
0
-5.798307e-07
3.624502e-07
-2.425258e-06
-2.503409e-06
4.712762e-07
-4.924948e-06
-9.797333e-06
-1.402023e-05
7.926982e-06
0
0
0
0
0
0
0
0
0
0
0
0
0
0
0
0
0
0
0
0
0
0
0
0
0
0
0
0
0
0
0
0
0
0
0
0
0
0
0
0
0
0
0
0
0
-2.572043e-05
-0.0004267145
0.0001004755
0.0008588513
-0.0002608755
-0.000459317
0
0
0
0
0
9.411188e-05
-0.0006338165
0.0004003178
0.001361197
0.000488636
-0.0008319175
-0.001761928
0
0
0
0
0
-0.0003414885
0.000128078
0.000429379
-0.001987581
-0.0003910014
0.001928961
-0.0006999727
-0.0003201963
0
0
0
0
0
0.0003007762
0.0002820242
0.0009741529
-0.0001613938
-0.0005785757
1.437849e-05
0.0009532137
-0.0002482424
0.001253763
0
0
0
0
0
0.0002202131
0.0009173335
-0.0002005281
-0.0007183864
-0.0001407993
-0.0008905094
0.0002164972
-0.0001207333
-0.0001947634
0.0007933888
0
0
0
0
0
-0.0002861509
0.0004247931
0.001051081
-0.0003256563
0.0001354566
0.0004812961
0.0007552887
0.001670266
0.000942314
-0.001387709
-5.867776e-05
0
0
0
0
0
-4.002169e-05
-0.0002993295
-0.0008380537
0.0005823128
-0.00132449
0.0005651754
-0.0005300113
0.001334655
-6.987298e-05
0.0009036298
3.68467e-05
6.597931e-07
0
0
0
0
0
-6.500956e-05
0.0008088339
0.0001059077
-0.0001547388
0.001914422
-0.001440503
0.001541797
0.002484506
4.493635e-05
-0.0003291789
0.0001121217
3.246732e-06
-3.975956e-06
0
0
0
0
0
0.0003680592
0.0002715731
-0.0004169087
0.0007992578
-0.0008325375
0.000282382
0.0004082767
-0.0007380826
0.0002985808
0.002423762
-2.336333e-05
-2.898417e-06
2.563371e-07
2.940711e-07
0
0
0
0
0
0.0002021236
0.0002208427
4.600903e-05
0.0001074097
-0.0005167863
-7.544532e-05
0.0002818511
0.0003303491
-2.935916e-05
-3.783719e-06
0.000126563
1.130487e-07
2.228046e-06
4.568115e-06
2.994295e-07
0
0
0
0
0
0
0
0
0
0
0
0
0
0
0
-6.579834e-07
-3.244318e-06
4.563228e-06
1.461788e-06
-3.986257e-06
-9.831736e-06
0
0
0
0
0
0
0
0
0
0
0
0
0
0
0
-1.096053e-06
2.274764e-06
1.574591e-06
4.104628e-06
3.109498e-08
6.623386e-06
-1.862578e-05
0
0
0
0
0
0
0
0
0
0
0
0
0
0
0
1.128997e-06
-3.120663e-06
-3.792747e-07
-1.167882e-06
9.695136e-07
1.519627e-05
-1.368885e-05
-5.450965e-06
0
0
0
0
0
0
0
0
0
0
0
0
0
0
0
-1.487748e-06
-9.225405e-07
-3.012778e-06
1.983209e-07
2.330319e-06
3.48313e-05
8.278105e-06
6.0658e-06
5.631544e-06
0
0
0
0
0
0
0
0
0
0
0
0
0
0
0
3.319169e-07
1.919002e-06
7.657813e-07
1.612957e-06
-6.905221e-07
-2.607583e-06
-2.365485e-07
2.988798e-06
1.953574e-05
1.737934e-05
0
0
0
0
0
0
0
0
0
0
0
0
0
0
0
0
0
0
0
0
0
0
0
0
0
0
0
0
0
0
0
0
0
0
0
0
0
0
0
0
0
0
0
0
0
0
0
0
0
0
8.775724e-05
-0.0001221186
0.0001324843
-0.0007529371
-0.0009502991
5.92391e-05
0.000671467
0
0
0
0
0
8.065158e-05
0.0002713756
-0.001395415
-0.0001279192
0.0003035951
-0.001067242
0.00157064
0.0007641393
0
0
0
0
0
-0.0002413558
0.0009325396
0.0002377326
-0.001586757
0.002469555
-0.001326852
-0.0009873775
-0.0003221435
-0.001542601
0
0
0
0
0
0.0002476475
-0.001062449
-4.46957e-05
0.0001950669
0.0003398974
-0.0004699405
0.0007570979
0.0003261849
0.0002500474
-0.0005491717
0
0
0
0
0
-9.804981e-05
-0.001181237
-0.0001007996
-0.0008838869
-0.001207781
-0.0005658895
0.0006905676
-0.00151869
-4.391871e-05
0.0002185701
-4.704581e-05
0
0
0
0
0
0.0003633602
0.0007676812
0.001336047
0.0002071467
0.001984463
0.0008484656
5.046547e-05
-0.0003370998
-6.445181e-05
-0.001005753
0.0007053984
8.654133e-07
0
0
0
0
0
-0.0003572674
0.0008430588
0.0001763797
0.0004320547
-0.00147984
0.002298611
-0.001039822
-0.0007992338
-0.0001136387
0.0005700619
-0.0007995795
-1.577442e-06
2.612141e-06
0
0
0
0
0
-0.000533897
-0.0006316516
0.0007134897
-0.0009522989
-0.0009409593
-0.00166939
0.0008817816
-0.0002825317
-0.001169956
4.044892e-05
0.0002520728
-4.350089e-07
6.996413e-07
-9.751431e-07
0
0
0
0
0
2.101965e-05
-0.001179751
-0.0006906875
0.0004057806
6.045756e-05
0.001607729
-0.001392043
0.0002946779
0.0009295608
0.0004568127
-0.0007640878
2.575887e-06
-3.031938e-06
-2.561654e-06
-1.049352e-06
0
0
0
0
0
0.0002170537
9.185269e-06
0.0001698105
6.665866e-05
-4.417454e-05
4.86427e-05
0.000210127
-0.0001884613
-0.0001004473
-0.0002054901
-4.273336e-05
4.093502e-08
-3.049095e-06
-9.401037e-07
4.085244e-06
9.047234e-06
0
0
0
0
0
0
0
0
0
0
0
0
0
0
0
4.650261e-07
3.345197e-06
1.144839e-06
-2.135785e-07
-2.854853e-06
-2.356746e-06
-8.691747e-06
0
0
0
0
0
0
0
0
0
0
0
0
0
0
0
-1.588413e-06
1.456471e-06
1.878962e-06
1.004969e-06
-3.341872e-06
-1.514941e-05
-1.333985e-05
2.420247e-05
0
0
0
0
0
0
0
0
0
0
0
0
0
0
0
9.787275e-07
-6.717036e-07
9.748842e-07
3.752752e-07
-1.356892e-06
-2.933829e-06
3.478518e-06
1.194816e-05
1.424385e-05
0
0
0
0
0
0
0
0
0
0
0
0
0
0
0
1.089463e-06
-1.820062e-07
-8.409226e-07
6.573777e-08
1.372624e-06
6.933899e-06
-1.68694e-05
2.620359e-06
1.603139e-05
-3.612713e-06
0
0
0
0
0
0
0
0
0
0
0
0
0
0
0
2.115217e-08
1.427982e-06
-5.112012e-07
1.234196e-06
-1.066715e-06
-1.492207e-05
1.106718e-05
-1.021856e-05
1.253119e-05
-8.658713e-06
-79842.38
0
0
0
0
0
0
0
0
0
0
0
0
0
0
0
0
0
0
0
0
0
0
0
0
0
0
0
0
0
0
0
0
0
0
0
0
0
0
0
0
0
0
0
0
0
0
0
0
0
0
0
0
0
0
0
0.0001670336
-0.0004384558
0.0007423558
0.0002294707
-4.461108e-05
0.001163632
-7.96697e-05
-0.0002888454
0
0
0
0
0
0.0002093541
-0.0004500849
0.00081273
0.000998185
-0.0007467919
0.0003275354
-0.000485335
-0.001628694
0.0005355525
0
0
0
0
0
0.0005468193
0.00196004
-0.0004321962
-0.001387166
0.001184938
-0.0003365553
0.001232429
-7.184476e-05
-4.590133e-05
0.0004198427
0
0
0
0
0
0.000744688
0.0009691901
-0.0006496081
0.0005382151
0.0009460872
0.0006485758
0.0005303517
-7.386167e-05
-0.000878931
-0.0001564394
-1.729476e-05
0
0
0
0
0
-0.0001677366
-0.0002452465
-0.0004918318
-0.0006993591
-0.0003209802
-6.840522e-06
0.0001971228
0.0004773509
0.001440848
0.0002802389
0.0002102565
-2.086447e-07
0
0
0
0
0
-0.0002327331
-0.001499374
-0.0005173922
-0.0003852044
0.002307891
-0.0009585585
0.0001711983
-0.0003485071
-0.00196887
-0.0001428322
0.0001508428
4.041259e-07
-2.440917e-06
0
0
0
0
0
-0.0003343609
0.001021148
0.001043631
-0.0003357242
-6.346556e-05
-0.0002218417
-0.002710001
-0.0001792137
0.0003952112
-0.0006388849
-0.000284555
-2.509411e-06
2.071249e-06
1.101628e-06
0
0
0
0
0
-0.0005375571
0.001012806
0.0009606747
-0.0001629701
9.639948e-05
-0.000605671
3.646469e-05
-0.001025923
-0.001126098
-0.0004059903
-0.0004631616
2.142767e-07
8.997613e-07
1.853469e-06
1.603225e-06
0
0
0
0
0
0.0001261513
-0.0006716872
-0.0008814556
-0.0006970336
0.0006223283
0.0006148234
-0.0007340407
0.001959418
-0.0008431376
0.0006179973
-7.898321e-05
1.365789e-07
2.983055e-06
-3.705223e-06
-3.658026e-06
-1.857981e-05
0
0
0
0
0
0.0001292877
-0.0003742663
0.0004828725
0.0001556591
6.531019e-05
0.0003901434
0.0002949264
4.355564e-05
-0.0001601858
-0.0004120944
-2.236088e-05
3.123588e-06
-1.204616e-06
-2.135494e-06
3.824915e-06
8.019699e-06
-5.917e-06
0
0
0
0
0
0
0
0
0
0
0
0
0
0
0
-1.464367e-06
-7.327452e-07
9.604697e-07
1.847476e-06
5.025814e-06
-1.684302e-05
3.13127e-06
3.287138e-06
0
0
0
0
0
0
0
0
0
0
0
0
0
0
0
-1.866361e-06
3.804059e-06
-1.430228e-06
1.831221e-06
-4.224531e-07
-2.551427e-05
1.18943e-05
1.308531e-05
-6.547713e-06
0
0
0
0
0
0
0
0
0
0
0
0
0
0
0
8.354606e-07
-1.323743e-06
-6.330505e-07
-2.246069e-06
1.543487e-06
-2.509142e-06
8.748791e-06
-1.387979e-05
-1.962356e-05
-1.557518e-05
0
0
0
0
0
0
0
0
0
0
0
0
0
0
0
-9.293107e-09
-3.147476e-06
8.266241e-07
-6.084338e-07
1.123365e-06
1.165652e-05
2.766277e-05
9.629277e-06
-1.469707e-05
-3.317113e-05
-80548.34
0
0
0
0
0
0
0
0
0
0
0
0
0
0
0
-1.431877e-06
2.439456e-07
3.534181e-07
-1.710969e-06
-2.324625e-06
-1.54551e-05
5.757295e-06
-2.055384e-05
1.028063e-05
-4.854054e-06
-73100.45
-80375.53
0
0
0
0
0
0
0
0
0
0
0
0
0
0
0
0
0
0
0
0
0
0
0
0
0
0
0
0
0
0
0
0
0
0
0
0
0
0
0
0
0
0
0
0
0
0
0
0
0
0
0
0
0
0
0
0
0
0
0
0
5.502491e-05
-0.0007960973
-0.0007005335
-0.0003293025
0.0003083519
0.0002130409
-7.487826e-05
0.0005975812
0.0001600184
0
0
0
0
0
-0.0002078856
-0.001480898
0.0009952829
-7.934423e-05
0.0003946095
0.0004657343
-0.001296558
7.286193e-05
-0.0002289406
0.0004817351
0
0
0
0
0
-5.412861e-05
-0.002665583
-0.001078354
-0.0006201838
0.000348957
-0.0008169119
-0.001096969
6.993001e-05
-0.0002127299
-9.727643e-05
0.0002733793
0
0
0
0
0
-5.01947e-05
-0.001241653
-0.0005298108
-4.642586e-05
0.0006174152
-0.0003419285
0.0008276894
-0.0001445276
-0.0007519497
0.0002935202
3.048821e-06
2.816125e-06
0
0
0
0
0
0.0006656176
0.0004765938
0.0002327279
0.0003253499
0.000327117
0.0004795238
-0.0001448754
-0.0004372371
0.0004835038
-0.0001258431
-1.319995e-05
2.341802e-06
-2.715159e-06
0
0
0
0
0
0.0003265462
-7.288009e-06
0.0007692714
0.0003679161
0.0002511611
-0.0007109771
0.002110533
-0.0002895509
0.0006940386
0.002363068
6.15506e-05
-2.211283e-06
-3.305464e-06
6.261595e-06
0
0
0
0
0
0.0002038439
0.001541457
-0.002130349
-0.002318147
0.0001114398
0.0006532114
0.001751377
0.000373015
0.000832408
-0.0004170109
3.844527e-05
-3.443239e-08
-1.876704e-06
-7.578552e-07
3.453724e-06
0
0
0
0
0
-0.0004453754
0.00032603
0.0008810142
-0.0002129098
-0.000139809
-0.001435289
0.001561553
0.0001295034
0.000873542
-0.0001747633
6.847674e-05
1.796488e-06
-2.756876e-06
-4.571138e-07
1.91281e-06
-1.176444e-05
0
0
0
0
0
-0.0006082152
8.012278e-05
-0.001385202
0.00015126
0.0009866823
-4.455779e-05
-0.0007839686
0.001029204
-3.185198e-05
0.0009898083
-0.0007735499
-1.258322e-06
2.075834e-06
1.354688e-06
-8.743104e-06
-4.870724e-06
1.509467e-05
0
0
0
0
0
8.994237e-05
0.0004221889
0.0005601736
-0.0005214078
-0.0003017309
-0.0006097263
-0.0006941412
-0.0005088537
-0.0002601571
2.844246e-05
0.0001255213
7.883942e-07
-1.786849e-06
-1.02441e-06
-5.313757e-06
2.05983e-05
7.58373e-06
1.792873e-05
0
0
0
0
0
0
0
0
0
0
0
0
0
0
0
-1.853217e-06
8.180666e-07
-4.9757e-07
2.20481e-06
5.779078e-07
1.956884e-05
6.04738e-06
-2.313818e-05
4.870151e-06
0
0
0
0
0
0
0
0
0
0
0
0
0
0
0
1.078215e-07
3.396226e-06
7.440539e-07
1.804833e-06
-2.178774e-06
-1.274112e-05
5.065159e-06
1.057224e-05
-2.297442e-06
2.011519e-06
0
0
0
0
0
0
0
0
0
0
0
0
0
0
0
2.741703e-07
-6.758991e-07
-2.720303e-06
-3.946642e-06
9.375958e-07
2.26576e-05
-2.211578e-07
-3.548744e-06
2.095938e-05
9.627214e-06
-81973.9
0
0
0
0
0
0
0
0
0
0
0
0
0
0
0
-1.44999e-06
9.584984e-08
1.937728e-06
-1.97192e-06
2.368716e-06
2.838844e-06
-7.655747e-06
-1.835311e-05
-4.790284e-07
7.463827e-06
-73553.04
-81091.96
0
0
0
0
0
0
0
0
0
0
0
0
0
0
0
3.182666e-07
1.424862e-06
1.455991e-06
-1.713959e-06
5.00789e-07
5.294927e-06
1.060305e-05
-1.228633e-06
1.23647e-05
5.894522e-06
-67441.37
-73566.56
-81811.11
0
0
0
0
0
0
0
0
0
0
0
0
0
0
0
0
0
0
0
0
0
0
0
0
0
0
0
0
0
0
0
0
0
0
0
0
0
0
0
0
0
0
0
0
0
0
0
0
0
0
0
0
0
0
0
0
0
0
0
0
0
0
0
0
0
0.0002053928
-0.0001823972
0.0006348559
0.000472488
-0.0001957911
0.0004161043
0.0004127047
0.0004423825
-0.0001202257
-0.0002678599
0
0
0
0
0
-0.0002526078
0.0005471803
0.00113215
-8.434113e-05
0.00030139
-5.835486e-05
-0.0002690826
-0.0004283004
-0.0002107635
0.0003825692
-0.0005690879
0
0
0
0
0
0.000117386
0.0002639094
0.001864021
0.0001213845
0.0008154742
-0.0007173359
-0.0005274419
0.0007439235
0.0005381174
-1.015384e-05
7.431761e-05
-6.088282e-06
0
0
0
0
0
-0.0004147479
0.0002602107
-0.0003526391
-0.0001645717
-0.0003738283
-0.0003809589
0.0005725756
0.0003136775
-0.0007933355
-0.0005846119
0.0001251987
4.402185e-07
3.583661e-06
0
0
0
0
0
1.352556e-05
-0.0003725757
-0.000904987
-0.0001183874
-0.0009401593
-0.0005441698
-0.0007311815
0.001325245
-0.0006013962
-0.0003881639
0.0004784585
2.271611e-07
1.650859e-06
5.2328e-06
0
0
0
0
0
0.000109938
-0.001444204
0.001193755
-0.0008695533
-0.0008122506
-0.0004030342
-0.001224195
-0.0002992634
-7.730773e-05
-0.0005222294
-0.0005859092
8.096949e-07
1.756399e-06
2.547994e-06
-1.078333e-06
0
0
0
0
0
-0.0006289461
0.001752291
-0.001229409
-0.001089875
0.001609167
0.0003718413
-0.000152642
-0.001156995
0.0001231445
-0.0004524518
0.0003953985
4.285852e-07
-1.500259e-07
-2.434805e-06
4.346648e-06
2.011739e-05
0
0
0
0
0
0.0004045684
-0.0005277288
0.0003492356
0.0005310146
0.0001044863
-0.0004891349
0.0001480983
-0.001596216
-0.001421793
-0.0002468901
-0.0001282817
-5.911184e-07
-2.852466e-06
-9.578989e-07
3.193165e-06
1.095586e-05
1.999519e-05
0
0
0
0
0
-0.0001770855
-0.000828885
-0.000511065
3.15675e-05
-0.0004524184
0.0006202205
-3.746869e-05
0.001751011
-0.0008277467
-0.000201889
0.0001413933
2.484808e-06
1.281366e-06
3.41145e-06
1.451241e-06
-7.010801e-06
-7.046053e-06
1.302044e-05
0
0
0
0
0
-0.0003923926
-3.428747e-06
0.0005107838
8.37401e-05
-0.0002029361
-0.0003591304
0.0003411525
0.0006909315
-4.729064e-06
0.0001253461
0.0001046828
-2.289085e-06
-2.857019e-06
-1.906642e-06
-5.993298e-07
-6.886514e-06
-9.970654e-06
1.675415e-05
-9.89481e-06
0
0
0
0
0
0
0
0
0
0
0
0
0
0
0
2.320512e-07
1.153171e-06
-2.173433e-06
-8.374984e-07
5.242019e-06
2.346192e-05
-1.296466e-06
-1.060365e-05
1.304393e-05
-7.01978e-06
0
0
0
0
0
0
0
0
0
0
0
0
0
0
0
-1.017765e-07
8.758639e-07
-2.425669e-06
3.612589e-06
-1.996079e-06
-2.565386e-05
-1.876974e-06
7.752469e-06
-2.186807e-05
-3.377979e-06
-84108.5
0
0
0
0
0
0
0
0
0
0
0
0
0
0
0
-6.869982e-07
-2.059594e-06
-4.475311e-07
4.281985e-07
1.185037e-06
3.987391e-06
-3.24517e-06
6.451154e-06
9.350067e-06
-1.267121e-05
-74443.5
-82538.41
0
0
0
0
0
0
0
0
0
0
0
0
0
0
0
-5.407763e-07
-5.471603e-08
-2.602482e-07
1.329502e-06
2.864269e-06
2.480993e-05
2.216596e-05
1.414263e-05
1.072746e-06
-7.922141e-06
-67785.9
-74026.14
-82553.06
0
0
0
0
0
0
0
0
0
0
0
0
0
0
0
5.572322e-07
4.964008e-08
-1.834897e-06
-2.602834e-06
2.009603e-06
-1.939912e-05
-4.856189e-06
9.833238e-07
1.619212e-06
1.618664e-06
-62925.63
-67857
-74808.66
-84189.68
0
0
0
0
0
0
0
0
0
0
0
0
0
0
0
0
0
0
0
0
0
0
0
0
0
0
0
0
0
0
0
0
0
0
0
0
0
0
0
0
0
0
0
0
0
0
0
0
0
0
0
0
0
0
0
0
0
0
0
0
0
0
0
0
0
0
0
0
0
0
0.0001130993
-0.0001458232
-0.0002398135
-0.0003506317
0.0003422053
-4.727743e-05
0.0001437626
-0.0005060826
-5.527584e-05
0.00035251
2.065197e-05
0
0
0
0
0
0.000270828
0.0008835849
2.245005e-05
-0.0004975037
-0.0004940304
-0.0005818147
-0.0001438853
-0.0003994818
0.0006017257
0.0005964892
-0.0001895559
5.651182e-06
0
0
0
0
0
-6.685117e-06
9.745013e-05
0.0006702093
0.000387039
0.001792826
-0.001244028
-0.0008194768
-0.0006841533
0.0007279614
0.0007270631
0.0001254743
1.196711e-06
4.24017e-07
0
0
0
0
0
-0.00035585
-0.0003821594
-4.813047e-05
0.001393413
0.0002357482
0.0004697357
0.0001425248
-0.001245987
0.0004069731
0.0004255261
8.561691e-05
-1.357795e-06
1.73964e-07
4.49255e-06
0
0
0
0
0
-0.0002346765
0.0004152765
-0.0003096379
0.002509852
-0.0002367068
0.0009427048
-0.0003551275
0.0005639229
-0.001237633
0.001560824
-0.0001021082
-8.870409e-07
8.498086e-07
4.798929e-06
-7.542057e-07
0
0
0
0
0
5.473679e-05
-0.002399563
-0.0006315405
0.001500172
0.0005295723
-7.270969e-05
-0.0004187942
0.0005839367
4.987089e-05
-0.0003311038
8.439921e-05
2.634309e-07
-5.07983e-07
-6.463221e-06
-4.945461e-06
-3.236398e-06
0
0
0
0
0
0.0002072873
0.0002503556
-0.0005668561
0.0008881387
0.00171812
-0.001220421
4.730589e-05
1.755608e-05
0.0008295883
0.0005252377
8.767229e-05
-2.175958e-06
3.665315e-06
-3.289352e-06
-1.20467e-06
6.469722e-06
7.519956e-06
0
0
0
0
0
-0.0004832332
0.0009407024
0.0009691602
0.0018776
-0.000305776
-0.00114755
-0.0008570842
0.0001999864
0.001243261
0.001526311
0.0001820793
4.013313e-07
-8.718678e-07
9.272862e-07
9.164977e-07
-1.000922e-05
-2.594522e-05
-1.38409e-05
0
0
0
0
0
0.0003803511
-8.692537e-05
5.003132e-05
-0.0005692981
0.0009336804
0.0006417055
0.0002415701
0.001108453
-0.0007019092
0.001314573
0.0002327159
-1.256822e-06
-8.124381e-07
4.853356e-07
2.223455e-06
-8.126647e-06
-4.388364e-06
1.266854e-05
3.989637e-06
0
0
0
0
0
-0.0002807856
0.000500882
1.743379e-05
-0.0003172863
-0.0002533119
-0.0001447232
-0.0002165787
-5.662829e-05
0.0003158528
-0.0002616845
3.210177e-05
-9.799821e-07
2.939083e-06
2.352827e-06
-2.115654e-06
-9.077013e-06
8.710901e-06
8.704781e-06
-9.303015e-06
-1.590605e-05
0
0
0
0
0
0
0
0
0
0
0
0
0
0
0
-2.08103e-06
-6.502151e-07
-1.508807e-08
-6.342979e-07
9.344829e-07
1.336442e-05
-1.023075e-05
1.99778e-06
2.712175e-06
-8.015047e-07
-86857.96
0
0
0
0
0
0
0
0
0
0
0
0
0
0
0
-2.411224e-07
7.467898e-07
7.820745e-07
2.005614e-06
3.718879e-07
-5.100996e-06
1.6975e-05
6.804874e-06
-1.122726e-05
1.961094e-05
-75708.45
-84702.96
0
0
0
0
0
0
0
0
0
0
0
0
0
0
0
-3.041986e-08
7.189972e-07
1.780641e-06
1.923209e-06
1.501129e-07
1.601155e-05
3.425831e-06
-3.913987e-06
7.856614e-06
-4.692549e-06
-68456.49
-74930.58
-84051.16
0
0
0
0
0
0
0
0
0
0
0
0
0
0
0
1.089984e-06
-1.113716e-06
1.601886e-06