/*--------------------------------*- C++ -*----------------------------------*\
| =========                 |                                                 |
| \\      /  F ield         | OpenFOAM: The Open Source CFD Toolbox           |
|  \\    /   O peration     | Version:  2306                                  |
|   \\  /    A nd           | Website:  www.openfoam.com                      |
|    \\/     M anipulation  |                                                 |
\*---------------------------------------------------------------------------*/
FoamFile
{
    version     2.0;
    format      ascii;
    arch        "LSB;label=32;scalar=64";
    class       volScalarField;
    location    "0.9";
    object      k;
}
// * * * * * * * * * * * * * * * * * * * * * * * * * * * * * * * * * * * * * //

dimensions      [1 1 -3 -1 0 0 0];

internalField   nonuniform List<scalar> 
52000
(
20
20
20
20
20
20
20
20
20
20
20
20
20
20
20
20
20
20
20
20
20
20
20
20
20
20
20
20
20
20
20
20
20
20
20
20
20
20
20
20
20
20
20
20
20
20
20
20
20
20
20
20
20
20
20
20
20
20
20
20
20
20
20
20
20
20
20
20
20
20
20
20
20
20
20
20
20
20
20
20
20
20
20
20
20
20
20
20
20
20
20
20
20
20
20
20
20
20
20
20
20
20
20
20
20
20
20
20
20
20
20
20
20
20
20
20
20
20
20
20
20
20
20
20
20
20
20
20
20
20
20
20
20
20
20
20
20
20
20
20
20
20
20
20
20
20
20
20
20
20
20
20
20
20
20
20
20
20
20
20
20
20
20
20
20
20
20
20
20
20
20
20
20
20
20
20
20
20
20
20
20
20
20
20
20
20
20
20
20
20
20
20
20
20
20
20
20
20
20
20
20
20
20
20
20
20
20
20
20
20
20
20
20
20
20
20
20
20
20
20
20
20
20
20
20
20
20
20
20
20
20
20
20
20
20
20
20
20
20
20
0.0872145
20
20
20
20
20
20
20
20
20
20
20
20
20
20
20
20
20
20
20
20
20
20
20
20
20
20
20
20
20
20
20
20
20
20
20
20
20
20
20
20
20
20
20
20
20
20
20
20
20
20
20
20
20
20
20
20
20
20
20
20
20
20
20
20
20
0.08649837
20
20
20
20
20
0.08805754
0.08648566
20
20
20
20
20
20
20
20
20
20
20
20
20
20
20
20
20
20
20
20
20
20
20
20
20
20
20
20
20
20
20
20
20
20
20
20
20
20
20
20
20
20
20
20
20
20
20
20
20
20
20
20
20
20
20
20
20
20
20
20
20
20
20
20
20
20
20
20
20
20
0.08609543
20
20
20
20
20
0.08790049
0.08472365
20
20
20
20
20
0.08828664
0.08789933
0.08607218
20
20
20
20
20
20
20
20
20
20
20
20
20
20
20
20
20
20
20
20
20
20
20
20
20
20
20
20
20
20
20
20
20
20
20
20
20
20
20
20
20
20
20
20
20
20
20
20
20
20
20
20
20
20
20
20
20
20
20
20
20
20
20
20
20
20
20
20
20
20
20
20
20
20
20
0.08586408
20
20
20
20
20
0.08776401
0.08360663
20
20
20
20
20
0.08823023
0.08743623
0.08358866
20
20
20
20
20
0.08847272
0.08823526
0.08776316
0.08582886
20
20
20
20
20
20
20
20
20
20
20
20
20
20
20
20
20
20
20
20
20
20
20
20
20
20
20
20
20
20
20
20
20
20
20
20
20
20
20
20
20
20
20
20
20
20
20
20
20
20
20
20
20
20
20
20
20
20
20
20
20
20
20
20
20
20
20
20
20
20
20
20
20
20
20
20
20
20
20
20
0.08575617
20
20
20
20
20
0.08766333
0.08293
20
20
20
20
20
0.08817953
0.08702834
0.08189384
20
20
20
20
20
0.08844805
0.08807181
0.08702515
0.0828817
20
20
20
20
20
0.08863764
0.08845513
0.0881907
0.08766335
0.08570534
20
20
20
20
20
20
20
20
20
20
20
20
20
20
20
20
20
20
20
20
20
20
20
20
20
20
20
20
20
20
20
20
20
20
20
20
20
20
20
20
20
20
20
20
20
20
20
20
20
20
20
20
20
20
20
20
20
20
20
20
20
20
20
20
20
20
20
20
20
20
20
20
20
20
20
20
20
20
20
20
20
20
20
20
20
0.08575617
20
20
20
20
20
0.08760992
0.08260726
20
20
20
20
20
0.08814072
0.0867249
0.08081815
20
20
20
20
20
0.08842646
0.08792265
0.08636324
0.08077618
20
20
20
20
20
0.08862414
0.08838783
0.08792863
0.08671472
0.08251149
20
20
20
20
20
0.08878781
0.08863145
0.08844152
0.0881598
0.08761143
0.08568472
20
20
20
20
20
20
20
20
20
20
20
20
20
20
20
20
20
20
20
20
20
20
20
20
20
20
20
20
20
20
20
20
20
20
20
20
20
20
20
20
20
20
20
20
20
20
20
20
20
20
20
20
20
20
20
20
20
20
20
20
20
20
20
20
20
20
20
20
20
0.3618089
20
20
20
20
20
20
20
20
20
20
20
20
20
20
20
20
20
20
20
20
0.08586408
20
20
20
20
20
0.08760992
0.08260726
20
20
20
20
20
0.08811961
0.08656318
0.08029167
20
20
20
20
20
0.08841013
0.08780744
0.08586401
0.07939635
20
20
20
20
20
0.08861281
0.08832742
0.08768554
0.08585178
0.08017431
20
20
20
20
20
0.08877858
0.08859759
0.08833645
0.08782077
0.08654211
0.08244421
20
20
20
20
20
0.08892625
0.08878549
0.08862824
0.08843527
0.08814901
0.0876148
0.08576629
20
20
20
20
20
20
20
20
20
20
20
20
20
20
20
20
20
20
20
20
20
20
20
20
20
20
20
20
20
20
20
20
20
20
20
20
20
20
20
20
20
20
20
20
20
20
20
20
20
20
20
20
20
20
20
20
20
0.3617993
20
20
20
20
20
20
20
20
20
20
20
20
20
20
20
0.3619357
0.361881
20
20
20
20
20
20
20
20
20
20
20
20
20
20
20
20
20
20
20
20
0.08609543
20
20
20
20
20
0.08766333
0.08293
20
20
20
20
20
0.08811961
0.08656318
0.08029167
20
20
20
20
20
0.08840129
0.08774444
0.08559587
0.07870833
20
20
20
20
20
0.08860448
0.08828119
0.08749546
0.08519343
0.07861534
20
20
20
20
20
0.08877111
0.08856818
0.08824029
0.08750214
0.0855613
0.08006101
20
20
20
20
20
0.08891882
0.08876403
0.08857766
0.08830242
0.08776775
0.08653026
0.08267833
20
20
20
20
20
0.08905478
0.08892517
0.08878572
0.0886301
0.08843932
0.0881629
0.08767617
0.08596405
20
20
20
20
20
20
20
20
20
20
20
20
20
20
20
20
20
20
20
20
20
20
20
20
20
20
20
20
20
20
20
20
20
20
20
20
20
20
20
20
20
20
20
20
0.3617792
20
20
20
20
20
20
20
20
20
20
20
20
20
20
20
0.3619294
0.3618699
20
20
20
20
20
20
20
20
20
20
20
20
20
20
20
0.3620538
0.3620012
0.3619545
20
20
20
20
20
20
20
20
20
20
20
20
20
20
20
20
20
20
20
20
0.08649837
20
20
20
20
20
0.08776401
0.08360663
20
20
20
20
20
0.08814072
0.0867249
0.08081815
20
20
20
20
20
0.08840129
0.08774444
0.08559587
0.07870833
20
20
20
20
20
0.08860003
0.08825599
0.08739082
0.08483726
0.07782967
20
20
20
20
20
0.08876575
0.08854629
0.08816565
0.08725046
0.08480766
0.07846503
20
20
20
20
20
0.08891291
0.08874599
0.08853276
0.08817895
0.08740628
0.08553305
0.08043717
20
20
20
20
20
0.08904828
0.08890861
0.08875504
0.0885688
0.08829405
0.08778316
0.08668601
0.08324203
20
20
20
20
20
0.0891747
0.08905409
0.08892641
0.08879004
0.08863863
0.08845592
0.08820342
0.08779412
0.08631954
20
20
20
20
20
20
20
20
20
20
20
20
20
20
20
20
20
20
20
20
20
20
20
20
20
20
20
20
20
20
0.3617456
20
20
20
20
20
20
20
20
20
20
20
20
20
20
20
0.3619169
0.3618461
20
20
20
20
20
20
20
20
20
20
20
20
20
20
20
0.3620485
0.361995
0.3619424
20
20
20
20
20
20
20
20
20
20
20
20
20
20
20
0.36216
0.362111
0.3620677
0.3620297
20
20
20
20
20
20
20
20
20
20
20
20
20
20
20
20
20
20
20
20
0.0872145
20
20
20
20
20
0.08790049
0.08472365
20
20
20
20
20
0.08817953
0.08702834
0.08189384
20
20
20
20
20
0.08841013
0.08780744
0.08586401
0.07939635
20
20
20
20
20
0.08860003
0.08825599
0.08739082
0.08483726
0.07782967
20
20
20
20
20
0.08876293
0.08853457
0.08812464
0.08711107
0.08439809
0.07765872
20
20
20
20
20
0.08890874
0.08873296
0.08849882
0.08808193
0.08711873
0.08476527
0.07895029
20
20
20
20
20
0.08904314
0.08889498
0.0887287
0.08851342
0.08815734
0.08742107
0.08577768
0.08132834
20
20
20
20
20
0.08916878
0.0890398
0.08890337
0.08875453
0.088575
0.08831752
0.08787157
0.08700017
0.08421217
20
20
20
20
20
0.08928698
0.08917409
0.08905553
0.08893124
0.08879953
0.08865508
0.08848643
0.08827075
0.08796644
0.08695061
20
20
20
20
20
20
20
20
20
20
20
20
20
20
20
0.3616794
20
20
20
20
20
20
20
20
20
20
20
20
20
20
20
0.3618985
0.3618031
20
20
20
20
20
20
20
20
20
20
20
20
20
20
20
0.3620382
0.3619828
0.3619158
20
20
20
20
20
20
20
20
20
20
20
20
20
20
20
0.3621552
0.3621062
0.3620615
0.3620169
20
20
20
20
20
20
20
20
20
20
20
20
20
20
20
0.3622573
0.3622098
0.362169
0.3621351
0.3621068
20
20
20
20
20
20
20
20
20
20
20
20
20
20
20
20
20
20
20
20
20
20
20
20
20
0.08805754
0.08648566
20
20
20
20
20
0.08823023
0.08743623
0.08358866
20
20
20
20
20
0.08842646
0.08792265
0.08636324
0.08077618
20
20
20
20
20
0.08860448
0.08828119
0.08749546
0.08519343
0.07861534
20
20
20
20
20
0.08876293
0.08853457
0.08812464
0.08711107
0.08439809
0.07765872
20
20
20
20
20
0.08890657
0.08872613
0.08848049
0.08802823
0.0869588
0.08434748
0.07820325
20
20
20
20
20
0.08903951
0.08888535
0.08870942
0.08847096
0.08804879
0.0871318
0.08508007
0.08008597
20
20
20
20
20
0.08916409
0.08902816
0.08888407
0.08872354
0.08851652
0.08818548
0.0875529
0.08627401
0.08280158
20
20
20
20
20
0.0892815
0.08916111
0.08903589
0.08890538
0.08876489
0.0885994
0.08837581
0.08802918
0.08745044
0.08577067
20
20
20
20
20
0.0893924
0.08928638
0.0891755
0.08906028
0.08894053
0.08881507
0.08868056
0.08853227
0.08836714
0.08820228
0.3613726
20
20
20
20
20
20
20
20
20
20
20
20
20
20
20
0.3618767
0.3617157
20
20
20
20
20
20
20
20
20
20
20
20
20
20
20
0.3620235
0.3619652
0.3618674
20
20
20
20
20
20
20
20
20
20
20
20
20
20
20
0.3621459
0.362097
0.3620494
0.3619887
20
20
20
20
20
20
20
20
20
20
20
20
20
20
20
0.3622528
0.3622055
0.3621645
0.362129
0.3620936
20
20
20
20
20
20
20
20
20
20
20
20
20
20
20
0.3623476
0.3623007
0.3622602
0.3622277
0.3622035
0.6355153
20
20
20
20
20
20
20
20
20
20
20
20
20
20
20
20
20
20
20
20
20
20
20
20
20
20
20
20
20
20
0.08828664
0.08789933
0.08607218
20
20
20
20
20
0.08844805
0.08807181
0.08702515
0.0828817
20
20
20
20
20
0.08861281
0.08832742
0.08768554
0.08585178
0.08017431
20
20
20
20
20
0.08876575
0.08854629
0.08816565
0.08725046
0.08480766
0.07846503
20
20
20
20
20
0.08890657
0.08872613
0.08848049
0.08802823
0.0869588
0.08434748
0.07820325
20
20
20
20
20
0.08903764
0.08888037
0.08869922
0.08844782
0.08798834
0.08697054
0.08470111
0.07946963
20
20
20
20
20
0.08916079
0.08902001
0.08887028
0.08870053
0.08847103
0.08807955
0.08729728
0.08571856
0.08191237
20
20
20
20
20
0.08927713
0.08915056
0.08901961
0.08888341
0.08873407
0.08854681
0.08826713
0.08779116
0.08697136
0.08500889
20
20
20
20
20
0.08938728
0.08927433
0.0891577
0.0890385
0.08891639
0.08878811
0.08864424
0.08846943
0.08824757
0.08800656
0.361045
20
20
20
20
20
0.08949161
0.08939179
0.08928769
0.08917999
0.08906907
0.08895499
0.08883759
0.08871683
0.08859826
0.08851165
0.3618958
0.3614784
20
20
20
20
20
20
20
20
20
20
20
20
20
20
20
0.3620104
0.3619464
0.3617754
20
20
20
20
20
20
20
20
20
20
20
20
20
20
20
0.3621328
0.3620855
0.3620321
0.3619383
20
20
20
20
20
20
20
20
20
20
20
20
20
20
20
0.3622441
0.3621975
0.3621562
0.3621168
0.3620649
20
20
20
20
20
20
20
20
20
20
20
20
20
20
20
0.3623434
0.3622967
0.3622563
0.3622235
0.3621974
0.6355078
20
20
20
20
20
20
20
20
20
20
20
20
20
20
20
0.362432
0.3623857
0.3623447
0.3623112
0.3622871
0.6355675
0.6355184
20
20
20
20
20
20
20
20
20
20
20
20
20
20
20
20
20
20
20
20
20
20
20
20
20
20
20
20
20
20
20
20
20
20
20
0.08847272
0.08823526
0.08776316
0.08582886
20
20
20
20
20
0.08862414
0.08838783
0.08792863
0.08671472
0.08251149
20
20
20
20
20
0.08877111
0.08856818
0.08824029
0.08750214
0.0855613
0.08006101
20
20
20
20
20
0.08890874
0.08873296
0.08849882
0.08808193
0.08711873
0.08476527
0.07895029
20
20
20
20
20
0.08903764
0.08888037
0.08869922
0.08844782
0.08798834
0.08697054
0.08470111
0.07946963
20
20
20
20
20
0.08915908
0.08901582
0.08886311
0.08868825
0.08844602
0.0880202
0.08715452
0.08541769
0.08147818
20
20
20
20
20
0.08927406
0.0891432
0.08900812
0.08886753
0.08871081
0.08850503
0.08817824
0.08759779
0.0866035
0.08453315
20
20
20
20
20
0.08938319
0.08926454
0.089143
0.08902023
0.08889551
0.08876312
0.08860688
0.08839966
0.08811179
0.08779536
0.3607878
20
20
20
20
20
0.08948681
0.08938051
0.08927115
0.08916028
0.08904908
0.0889379
0.08882604
0.08871161
0.0885992
0.08852211
0.3618554
0.3612155
20
20
20
20
20
0.08958515
0.08949101
0.08939301
0.0892919
0.08918822
0.08908251
0.08897544
0.08886885
0.08876927
0.08870579
0.3620791
0.3619455
0.3615876
20
20
20
20
20
20
20
20
20
20
20
20
20
20
20
0.3621222
0.3620801
0.3620132
0.36185
20
20
20
20
20
20
20
20
20
20
20
20
20
20
20
0.3622319
0.362188
0.3621464
0.3620994
0.362015
20
20
20
20
20
20
20
20
20
20
20
20
20
20
20
0.3623352
0.3622893
0.3622494
0.3622157
0.3621851
0.6354915
20
20
20
20
20
20
20
20
20
20
20
20
20
20
20
0.362428
0.362382
0.3623411
0.3623076
0.362283
0.635564
0.6355109
20
20
20
20
20
20
20
20
20
20
20
20
20
20
20
0.3625113
0.3624657
0.3624244
0.3623892
0.3623627
0.6356123
0.6355703
0.6355215
20
20
20
20
20
20
20
20
20
20
20
20
20
20
20
20
20
20
20
20
20
20
20
20
20
20
20
20
20
20
20
20
20
20
20
20
20
20
20
20
0.08863764
0.08845513
0.0881907
0.08766335
0.08570534
20
20
20
20
20
0.08877858
0.08859759
0.08833645
0.08782077
0.08654211
0.08244421
20
20
20
20
20
0.08891291
0.08874599
0.08853276
0.08817895
0.08740628
0.08553305
0.08043717
20
20
20
20
20
0.08903951
0.08888535
0.08870942
0.08847096
0.08804879
0.0871318
0.08508007
0.08008597
20
20
20
20
20
0.08915908
0.08901582
0.08886311
0.08868825
0.08844602
0.0880202
0.08715452
0.08541769
0.08147818
20
20
20
20
20
0.08927247
0.08913943
0.0890022
0.08885922
0.08869826
0.08848177
0.08812795
0.08748923
0.08640414
0.08430167
20
20
20
20
20
0.0893803
0.08925771
0.08913267
0.08900723
0.0888802
0.08874362
0.08857552
0.08833899
0.08799539
0.08762549
0.3606148
20
20
20
20
20
0.08948296
0.08937133
0.0892575
0.08914385
0.08903207
0.0889224
0.08881271
0.0886973
0.08857627
0.08848628
0.3617979
0.3609997
20
20
20
20
20
0.08958064
0.0894804
0.08937748
0.08927356
0.08917017
0.08906891
0.08897153
0.08888112
0.08880544
0.08877155
0.3621011
0.3619114
0.3613771
20
20
20
20
20
0.08967348
0.08958456
0.08949214
0.08939696
0.08929962
0.08920076
0.08910137
0.08900354
0.08891403
0.08885835
0.3621967
0.3621195
0.362001
0.3616996
20
20
20
20
20
20
20
20
20
20
20
20
20
20
20
0.3622219
0.3621859
0.3621426
0.362079
0.361934
20
20
20
20
20
20
20
20
20
20
20
20
20
20
20
0.3623236
0.3622805
0.3622418
0.3622064
0.3621671
0.6354637
20
20
20
20
20
20
20
20
20
20
20
20
20
20
20
0.3624202
0.362375
0.3623348
0.3623013
0.3622753
0.635557
0.6354947
20
20
20
20
20
20
20
20
20
20
20
20
20
20
20
0.3625075
0.3624621
0.362421
0.362386
0.3623593
0.63561
0.6355668
0.6355141
20
20
20
20
20
20
20
20
20
20
20
20
20
20
20
0.3625859
0.3625413
0.3624999
0.3624635
0.3624343
0.635653
0.6356147
0.635573
0.6355247
20
20
20
20
20
20
20
20
20
20
20
20
20
20
20
20
20
20
20
20
20
20
20
20
20
20
20
20
20
20
20
20
20
20
20
20
20
20
20
20
20
20
20
20
20
0.08878781
0.08863145
0.08844152
0.0881598
0.08761143
0.08568472
20
20
20
20
20
0.08891882
0.08876403
0.08857766
0.08830242
0.08776775
0.08653026
0.08267833
20
20
20
20
20
0.08904314
0.08889498
0.0887287
0.08851342
0.08815734
0.08742107
0.08577768
0.08132834
20
20
20
20
20
0.08916079
0.08902001
0.08887028
0.08870053
0.08847103
0.08807955
0.08729728
0.08571856
0.08191237
20
20
20
20
20
0.08927247
0.08913943
0.0890022
0.08885922
0.08869826
0.08848177
0.08812795
0.08748923
0.08640414
0.08430167
20
20
20
20
20
0.08937881
0.08925421
0.08912737
0.08900049
0.0888721
0.08873289
0.08855755
0.08830372
0.08792869
0.08753192
0.3605283
20
20
20
20
20
0.08948024
0.08936492
0.08924793
0.08913221
0.0890198
0.08891059
0.08880086
0.08868134
0.08854833
0.08844434
0.3617478
0.3608515
20
20
20
20
20
0.089577
0.08947175
0.08936467
0.08925828
0.0891549
0.08905678
0.08896581
0.08888438
0.08881762
0.08878936
0.3621013
0.3618647
0.3611989
20
20
20
20
20
0.08966923
0.08957456
0.08947751
0.0893797
0.08928275
0.0891885
0.08909945
0.08901966
0.08895795
0.08893503
0.3622337
0.3621363
0.3619702
0.3615323
20
20
20
20
20
0.08975699
0.08967291
0.08958563
0.08949587
0.08940423
0.08931137
0.0892183
0.08912715
0.08904404
0.08899182
0.3622908
0.3622315
0.3621635
0.3620598
0.3618136
20
20
20
20
20
20
20
20
20
20
20
20
20
20
20
0.3623137
0.3622788
0.3622418
0.3622012
0.3621447
0.6354202
20
20
20
20
20
20
20
20
20
20
20
20
20
20
20
0.362409
0.3623665
0.362328
0.3622945
0.3622656
0.6355465
0.6354669
20
20
20
20
20
20
20
20
20
20
20
20
20
20
20
0.3624999
0.3624554
0.362415
0.3623803
0.3623532
0.6356056
0.6355597
0.6354978
20
20
20
20
20
20
20
20
20
20
20
20
20
20
20
0.3625822
0.3625379
0.3624967
0.3624605
0.3624312
0.6356511
0.6356124
0.6355695
0.6355172
20
20
20
20
20
20
20
20
20
20
20
20
20
20
20
0.3626563
0.3626128
0.3625718
0.3625346
0.3625032
0.6356919
0.6356552
0.6356171
0.6355758
0.6355278
20
20
20
20
20
20
20
20
20
20
20
20
20
20
20
20
20
20
20
20
20
20
20
20
20
20
20
20
20
20
20
20
20
20
20
20
20
20
20
20
20
20
20
20
20
20
20
20
20
20
0.08892625
0.08878549
0.08862824
0.08843527
0.08814901
0.0876148
0.08576629
20
20
20
20
20
0.08904828
0.08890861
0.08875504
0.0885688
0.08829405
0.08778316
0.08668601
0.08324203
20
20
20
20
20
0.08916409
0.08902816
0.08888407
0.08872354
0.08851652
0.08818548
0.0875529
0.08627401
0.08280158
20
20
20
20
20
0.08927406
0.0891432
0.08900812
0.08886753
0.08871081
0.08850503
0.08817824
0.08759779
0.0866035
0.08453315
20
20
20
20
20
0.08937881
0.08925421
0.08912737
0.08900049
0.0888721
0.08873289
0.08855755
0.08830372
0.08792869
0.08753192
0.3605283
20
20
20
20
20
0.08947883
0.08936163
0.08924302
0.08912621
0.08901339
0.08890419
0.0887939
0.08867117
0.08853033
0.08841816
0.3617192
0.3607767
20
20
20
20
20
0.08957443
0.0894657
0.08935568
0.08924749
0.08914398
0.0890477
0.0889603
0.08888294
0.08881835
0.08878989
0.3620944
0.3618238
0.3610744
20
20
20
20
20
0.08966579
0.0895664
0.08946543
0.08936532
0.08926851
0.08917765
0.08909594
0.08902751
0.08897966
0.08896724
0.3622504
0.3621374
0.3619315
0.3613881
20
20
20
20
20
0.08975298
0.08966349
0.08957183
0.08947957
0.08938827
0.08929977
0.08921658
0.08914291
0.08908682
0.08906599
0.3623291
0.3622606
0.3621741
0.3620309
0.3616829
20
20
20
20
20
0.08983601
0.08975646
0.08967393
0.08958916
0.08950273
0.08941529
0.08932779
0.08924222
0.08916419
0.08911385
0.3623745
0.3623217
0.362269
0.3622093
0.3621205
0.6353591
20
20
20
20
20
20
20
20
20
20
20
20
20
20
20
0.3623992
0.3623643
0.3623284
0.3622933
0.3622575
0.6355331
0.6354238
20
20
20
20
20
20
20
20
20
20
20
20
20
20
20
0.3624892
0.3624472
0.3624085
0.3623743
0.3623463
0.6355998
0.6355493
0.6354702
20
20
20
20
20
20
20
20
20
20
20
20
20
20
20
0.362575
0.3625314
0.3624909
0.3624551
0.3624257
0.6356477
0.635608
0.6355625
0.635501
20
20
20
20
20
20
20
20
20
20
20
20
20
20
20
0.3626527
0.3626095
0.3625687
0.3625317
0.3625003
0.6356901
0.6356533
0.6356148
0.6355723
0.6355204
20
20
20
20
20
20
20
20
20
20
20
20
20
20
20
0.3627228
0.3626806
0.3626402
0.3626028
0.3625698
0.6357295
0.6356937
0.6356573
0.6356196
0.6355786
0.7266483
20
20
20
20
20
20
20
20
20
20
20
20
20
20
20
20
20
20
20
20
20
20
20
20
20
20
20
20
20
20
20
20
20
20
20
20
20
20
20
20
20
20
20
20
20
20
20
20
20
20
20
20
20
20
20
0.08905478
0.08892517
0.08878572
0.0886301
0.08843932
0.0881629
0.08767617
0.08596405
20
20
20
20
20
0.08916878
0.0890398
0.08890337
0.08875453
0.088575
0.08831752
0.08787157
0.08700017
0.08421217
20
20
20
20
20
0.08927713
0.08915056
0.08901961
0.08888341
0.08873407
0.08854681
0.08826713
0.08779116
0.08697136
0.08500889
20
20
20
20
20
0.0893803
0.08925771
0.08913267
0.08900723
0.0888802
0.08874362
0.08857552
0.08833899
0.08799539
0.08762549
0.3606148
20
20
20
20
20
0.08947883
0.08936163
0.08924302
0.08912621
0.08901339
0.08890419
0.0887939
0.08867117
0.08853033
0.08841816
0.3617192
0.3607767
20
20
20
20
20
0.08957309
0.08946261
0.08935106
0.08924193
0.0891383
0.08904284
0.08895695
0.08888103
0.08881648
0.08878714
0.362089
0.3618005
0.361011
20
20
20
20
20
0.08966335
0.08956069
0.08945694
0.08935516
0.08925835
0.0891696
0.08909234
0.08903022
0.08898888
0.0889804
0.362257
0.3621326
0.3618981
0.3612858
20
20
20
20
20
0.08974972
0.08965577
0.08956041
0.08946597
0.0893748
0.08928954
0.08921349
0.08915122
0.08910953
0.08910007
0.3623493
0.3622752
0.3621746
0.3619983
0.3615692
20
20
20
20
20
0.08983222
0.08974756
0.0896609
0.08957375
0.08948759
0.08940415
0.08932582
0.08925646
0.08920348
0.08918182
0.3624101
0.3623517
0.3622898
0.3622137
0.3620926
0.6352941
20
20
20
20
20
0.08991083
0.08983552
0.08975744
0.08967731
0.08959568
0.08951319
0.08943074
0.08935016
0.08927648
0.08922775
0.3624521
0.3624023
0.3623546
0.3623076
0.3622558
0.6355181
0.6353636
20
20
20
20
20
20
20
20
20
20
20
20
20
20
20
0.3624794
0.3624444
0.3624083
0.3623738
0.3623423
0.6355942
0.6355358
0.6354273
20
20
20
20
20
20
20
20
20
20
20
20
20
20
20
0.3625647
0.3625234
0.3624845
0.3624494
0.3624197
0.6356434
0.6356022
0.635552
0.6354735
20
20
20
20
20
20
20
20
20
20
20
20
20
20
20
0.3626458
0.3626033
0.3625631
0.3625265
0.3624952
0.635687
0.6356498
0.6356104
0.6355653
0.6355042
20
20
20
20
20
20
20
20
20
20
20
20
20
20
20
0.3627194
0.3626774
0.3626372
0.3626
0.3625671
0.6357279
0.635692
0.6356554
0.6356172
0.6355751
0.7266427
20
20
20
20
20
20
20
20
20
20
20
20
20
20
20
0.3627857
0.3627448
0.3627053
0.362668
0.3626342
0.6357662
0.6357312
0.6356956
0.6356594
0.635622
0.726686
0.7266503
20
20
20
20
20
20
20
20
20
20
20
20
20
20
20
20
20
20
20
20
20
20
20
20
20
20
20
20
20
20
20
20
20
20
20
20
20
20
20
20
20
20
20
20
20
20
20
20
20
20
20
20
20
20
20
20
20
20
20
20
0.0891747
0.08905409
0.08892641
0.08879004
0.08863863
0.08845592
0.08820342
0.08779412
0.08631954
20
20
20
20
20
0.0892815
0.08916111
0.08903589
0.08890538
0.08876489
0.0885994
0.08837581
0.08802918
0.08745044
0.08577067
20
20
20
20
20
0.08938319
0.08926454
0.089143
0.08902023
0.08889551
0.08876312
0.08860688
0.08839966
0.08811179
0.08779536
0.3607878
20
20
20
20
20
0.08948024
0.08936492
0.08924793
0.08913221
0.0890198
0.08891059
0.08880086
0.08868134
0.08854833
0.08844434
0.3617478
0.3608515
20
20
20
20
20
0.08957309
0.08946261
0.08935106
0.08924193
0.0891383
0.08904284
0.08895695
0.08888103
0.08881648
0.08878714
0.362089
0.3618005
0.361011
20
20
20
20
20
0.08966209
0.08955777
0.08945259
0.08934993
0.08925307
0.08916533
0.08909013
0.08903076
0.08899198
0.08898493
0.362259
0.3621286
0.3618791
0.3612333
20
20
20
20
20
0.08974741
0.08965038
0.08955239
0.08945636
0.08936518
0.08928199
0.08921037
0.08915471
0.08912041
0.08911604
0.3623594
0.3622815
0.3621709
0.3619709
0.3614877
20
20
20
20
20
0.08982914
0.08974027
0.08965011
0.08956088
0.0894748
0.08939435
0.08932267
0.08926401
0.08922471
0.0892139
0.3624298
0.3623691
0.3623013
0.3622126
0.3620648
0.6352376
20
20
20
20
20
0.08990725
0.08982712
0.08974514
0.08966274
0.08958131
0.08950249
0.08942846
0.08936277
0.08931198
0.08928919
0.3624841
0.3624301
0.3623764
0.3623205
0.3622542
0.6355023
0.6352996
20
20
20
20
20
0.0899817
0.08991039
0.08983649
0.08976068
0.08968352
0.08960561
0.0895278
0.08945177
0.08938208
0.08933492
0.3625254
0.3624774
0.3624316
0.3623882
0.3623463
0.6355906
0.6355207
0.635368
20
20
20
20
20
20
20
20
20
20
20
20
20
20
20
0.3625548
0.3625199
0.3624837
0.3624486
0.3624167
0.6356402
0.6355965
0.6355385
0.635431
20
20
20
20
20
20
20
20
20
20
20
20
20
20
20
0.3626358
0.3625954
0.3625568
0.3625209
0.3624895
0.6356834
0.6356456
0.6356046
0.6355548
0.6354768
20
20
20
20
20
20
20
20
20
20
20
20
20
20
20
0.3627126
0.3626714
0.3626318
0.3625949
0.3625621
0.635725
0.6356889
0.6356519
0.6356128
0.6355681
0.7266306
20
20
20
20
20
20
20
20
20
20
20
20
20
20
20
0.3627824
0.3627418
0.3627025
0.3626653
0.3626316
0.6357646
0.6357296
0.6356939
0.6356575
0.6356197
0.7266834
0.7266447
20
20
20
20
20
20
20
20
20
20
20
20
20
20
20
0.3628453
0.3628059
0.3627674
0.3627306
0.3626963
0.6358018
0.6357677
0.6357329
0.6356975
0.6356616
0.7267183
0.7266878
0.7266519
20
20
20
20
20
20
20
20
20
20
20
20
20
20
20
20
20
20
20
20
20
20
20
20
20
20
20
20
20
20
20
20
20
20
20
20
20
20
20
20
20
20
20
20
20
20
20
20
20
20
20
20
20
20
20
20
20
20
20
20
20
20
20
20
20
0.08928698
0.08917409
0.08905553
0.08893124
0.08879953
0.08865508
0.08848643
0.08827075
0.08796644
0.08695061
20
20
20
20
20
0.08938728
0.08927433
0.0891577
0.0890385
0.08891639
0.08878811
0.08864424
0.08846943
0.08824757
0.08800656
0.361045
20
20
20
20
20
0.08948296
0.08937133
0.0892575
0.08914385
0.08903207
0.0889224
0.08881271
0.0886973
0.08857627
0.08848628
0.3617979
0.3609997
20
20
20
20
20
0.08957443
0.0894657
0.08935568
0.08924749
0.08914398
0.0890477
0.0889603
0.08888294
0.08881835
0.08878989
0.3620944
0.3618238
0.3610744
20
20
20
20
20
0.08966209
0.08955777
0.08945259
0.08934993
0.08925307
0.08916533
0.08909013
0.08903076
0.08899198
0.08898493
0.362259
0.3621286
0.3618791
0.3612333
20
20
20
20
20
0.08974621
0.08964761
0.08954827
0.08945141
0.08936019
0.08927799
0.08920846
0.08915581
0.08912467
0.08912242
0.3623635
0.3622837
0.3621679
0.3619556
0.3614455
20
20
20
20
20
0.08982695
0.08973517
0.08964252
0.08955178
0.08946566
0.08938711
0.0893196
0.08926724
0.08923517
0.08922948
0.3624402
0.3623782
0.3623067
0.3622094
0.3620426
0.6351969
20
20
20
20
20
0.08990433
0.08982024
0.08973494
0.08965056
0.08956916
0.08949307
0.08942516
0.08936935
0.08933116
0.0893184
0.3625022
0.3624469
0.3623902
0.3623285
0.3622512
0.6354876
0.635244
20
20
20
20
20
0.0899783
0.08990247
0.08982488
0.08974691
0.0896699
0.08959535
0.0895253
0.08946293
0.08941414
0.0893904
0.362554
0.3625023
0.3624519
0.3624024
0.3623521
0.635588
0.6355049
0.635305
20
20
20
20
20
0.09004882
0.08998131
0.08991135
0.0898396
0.08976663
0.08969298
0.08961948
0.08954765
0.08948168
0.08943619
0.362595
0.3625485
0.3625039
0.3624615
0.3624218
0.6356398
0.6355927
0.6355233
0.6353724
20
20
20
20
20
20
20
20
20
20
20
20
20
20
20
0.362626
0.3625915
0.3625553
0.3625196
0.3624866
0.6356808
0.6356422
0.6355988
0.6355412
0.6354346
20
20
20
20
20
20
20
20
20
20
20
20
20
20
20
0.362703
0.3626637
0.3626255
0.3625894
0.3625566
0.6357216
0.6356853
0.6356477
0.635607
0.6355576
0.7266101
20
20
20
20
20
20
20
20
20
20
20
20
20
20
20
0.3627759
0.3627359
0.3626972
0.3626604
0.3626268
0.6357618
0.6357267
0.6356908
0.635654
0.6356153
0.7266782
0.7266326
20
20
20
20
20
20
20
20
20
20
20
20
20
20
20
0.3628421
0.3628029
0.3627646
0.3627279
0.3626938
0.6358003
0.6357662
0.6357313
0.6356958
0.6356597
0.7267166
0.7266852
0.7266463
20
20
20
20
20
20
20
20
20
20
20
20
20
20
20
0.3629018
0.3628639
0.3628266
0.3627904
0.3627562
0.6358363
0.6358032
0.6357692
0.6357346
0.6356994
0.7267478
0.7267199
0.7266892
0.726653
20
20
20
20
20
20
20
20
20
20
20
20
20
20
20
20
20
20
20
20
20
20
20
20
20
20
20
20
20
20
20
20
20
20
20
20
20
20
20
20
20
20
20
20
20
20
20
20
20
20
20
20
20
20
20
20
20
20
20
20
20
20
20
20
20
20
20
20
20
20
0.0893924
0.08928638
0.0891755
0.08906028
0.08894053
0.08881507
0.08868056
0.08853227
0.08836714
0.08820228
0.3613726
20
20
20
20
20
0.08948681
0.08938051
0.08927115
0.08916028
0.08904908
0.0889379
0.08882604
0.08871161
0.0885992
0.08852211
0.3618554
0.3612155
20
20
20
20
20
0.089577
0.08947175
0.08936467
0.08925828
0.0891549
0.08905678
0.08896581
0.08888438
0.08881762
0.08878936
0.3621013
0.3618647
0.3611989
20
20
20
20
20
0.08966335
0.08956069
0.08945694
0.08935516
0.08925835
0.0891696
0.08909234
0.08903022
0.08898888
0.0889804
0.362257
0.3621326
0.3618981
0.3612858
20
20
20
20
20
0.08974621
0.08964761
0.08954827
0.08945141
0.08936019
0.08927799
0.08920846
0.08915581
0.08912467
0.08912242
0.3623635
0.3622837
0.3621679
0.3619556
0.3614455
20
20
20
20
20
0.08982581
0.08973255
0.08963863
0.08954709
0.08946092
0.08938329
0.08931776
0.08926828
0.08923939
0.08923592
0.3624447
0.3623821
0.3623087
0.3622069
0.3620303
0.6351758
20
20
20
20
20
0.08990225
0.08981541
0.08972776
0.08964193
0.08956047
0.08948612
0.08942206
0.08937209
0.08934065
0.08933275
0.3625119
0.3624562
0.3623979
0.3623326
0.3622479
0.6354762
0.6352039
20
20
20
20
20
0.08997554
0.08989596
0.08981524
0.08973539
0.08965837
0.08958632
0.0895219
0.08946861
0.08943138
0.0894168
0.3625703
0.3625176
0.3624653
0.3624124
0.3623564
0.6355857
0.6354903
0.6352503
20
20
20
20
20
0.09004561
0.08997384
0.08990039
0.08982661
0.08975374
0.0896832
0.08961685
0.08955762
0.08951078
0.08948653
0.3626205
0.3625706
0.3625219
0.3624748
0.362429
0.6356411
0.6355899
0.6355075
0.6353104
20
20
20
20
20
0.09011239
0.09004849
0.08998226
0.08991436
0.08984531
0.08977567
0.08970619
0.08963829
0.08957582
0.08953208
0.3626612
0.3626163
0.3625726
0.3625307
0.3624913
0.6356813
0.6356416
0.6355947
0.6355259
0.6353768
20
20
20
20
20
20
20
20
20
20
20
20
20
20
20
0.3626933
0.3626594
0.3626235
0.3625876
0.3625536
0.6357192
0.6356826
0.6356442
0.6356011
0.6355439
0.7265787
20
20
20
20
20
20
20
20
20
20
20
20
20
20
20
0.3627665
0.3627284
0.362691
0.3626549
0.3626213
0.6357586
0.6357233
0.6356871
0.6356498
0.6356094
0.7266703
0.7266123
20
20
20
20
20
20
20
20
20
20
20
20
20
20
20
0.3628358
0.3627973
0.3627595
0.3627232
0.3626892
0.6357976
0.6357634
0.6357284
0.6356927
0.6356562
0.7267133
0.7266799
0.7266343
20
20
20
20
20
20
20
20
20
20
20
20
20
20
20
0.3628987
0.362861
0.3628239
0.3627879
0.3627537
0.6358349
0.6358017
0.6357677
0.635733
0.6356977
0.7267464
0.7267181
0.7266866
0.7266474
20
20
20
20
20
20
20
20
20
20
20
20
20
20
20
0.3629554
0.362919
0.362883
0.3628477
0.3628138
0.6358696
0.6358375
0.6358046
0.6357707
0.6357363
0.726776
0.7267491
0.726721
0.7266901
0.7266537
20
20
20
20
20
20
20
20
20
20
20
20
20
20
20
20
20
20
20
20
20
20
20
20
20
20
20
20
20
20
20
20
20
20
20
20
20
20
20
20
20
20
20
20
20
20
20
20
20
20
20
20
20
20
20
20
20
20
20
20
20
20
20
20
20
20
20
20
20
0.3616794
20
20
20
20
20
0.08949161
0.08939179
0.08928769
0.08917999
0.08906907
0.08895499
0.08883759
0.08871683
0.08859826
0.08851165
0.3618958
0.3614784
20
20
20
20
20
0.08958064
0.0894804
0.08937748
0.08927356
0.08917017
0.08906891
0.08897153
0.08888112
0.08880544
0.08877155
0.3621011
0.3619114
0.3613771
20
20
20
20
20
0.08966579
0.0895664
0.08946543
0.08936532
0.08926851
0.08917765
0.08909594
0.08902751
0.08897966
0.08896724
0.3622504
0.3621374
0.3619315
0.3613881
20
20
20
20
20
0.08974741
0.08965038
0.08955239
0.08945636
0.08936518
0.08928199
0.08921037
0.08915471
0.08912041
0.08911604
0.3623594
0.3622815
0.3621709
0.3619709
0.3614877
20
20
20
20
20
0.08982581
0.08973255
0.08963863
0.08954709
0.08946092
0.08938329
0.08931776
0.08926828
0.08923939
0.08923592
0.3624447
0.3623821
0.3623087
0.3622069
0.3620303
0.6351758
20
20
20
20
20
0.08990117
0.08981293
0.08972408
0.08963749
0.08955597
0.08948245
0.08942022
0.08937294
0.08934449
0.08933874
0.3625162
0.3624603
0.3624013
0.3623342
0.3622458
0.63547
0.6351831
20
20
20
20
20
0.08997356
0.08989139
0.08980845
0.08972723
0.08965012
0.08957966
0.08951877
0.08947086
0.08943987
0.08942979
0.3625792
0.3625263
0.3624731
0.3624183
0.3623589
0.6355837
0.6354791
0.6352108
20
20
20
20
20
0.09004299
0.08996769
0.08989129
0.08981572
0.08974281
0.08967457