/*--------------------------------*- C++ -*----------------------------------*\
| =========                 |                                                 |
| \\      /  F ield         | OpenFOAM: The Open Source CFD Toolbox           |
|  \\    /   O peration     | Version:  2306                                  |
|   \\  /    A nd           | Website:  www.openfoam.com                      |
|    \\/     M anipulation  |                                                 |
\*---------------------------------------------------------------------------*/
FoamFile
{
    version     2.0;
    format      ascii;
    arch        "LSB;label=32;scalar=64";
    class       volScalarField;
    location    "0.9";
    object      rhoCp;
}
// * * * * * * * * * * * * * * * * * * * * * * * * * * * * * * * * * * * * * //

dimensions      [1 -1 -2 -1 0 0 0];

internalField   nonuniform List<scalar> 
52000
(
5346000
5346000
5346000
5346000
5346000
5346000
5346000
5346000
5346000
5346000
5346000
5346000
5346000
5346000
5346000
5346000
5346000
5346000
5346000
5346000
5346000
5346000
5346000
5346000
5346000
5346000
5346000
5346000
5346000
5346000
5346000
5346000
5346000
5346000
5346000
5346000
5346000
5346000
5346000
5346000
5346000
5346000
5346000
5346000
5346000
5346000
5346000
5346000
5346000
5346000
5346000
5346000
5346000
5346000
5346000
5346000
5346000
5346000
5346000
5346000
5346000
5346000
5346000
5346000
5346000
5346000
5346000
5346000
5346000
5346000
5346000
5346000
5346000
5346000
5346000
5346000
5346000
5346000
5346000
5346000
5346000
5346000
5346000
5346000
5346000
5346000
5346000
5346000
5346000
5346000
5346000
5346000
5346000
5346000
5346000
5346000
5346000
5346000
5346000
5346000
5346000
5346000
5346000
5346000
5346000
5346000
5346000
5346000
5346000
5346000
5346000
5346000
5346000
5346000
5346000
5346000
5346000
5346000
5346000
5346000
5346000
5346000
5346000
5346000
5346000
5346000
5346000
5346000
5346000
5346000
5346000
5346000
5346000
5346000
5346000
5346000
5346000
5346000
5346000
5346000
5346000
5346000
5346000
5346000
5346000
5346000
5346000
5346000
5346000
5346000
5346000
5346000
5346000
5346000
5346000
5346000
5346000
5346000
5346000
5346000
5346000
5346000
5346000
5346000
5346000
5346000
5346000
5346000
5346000
5346000
5346000
5346000
5346000
5346000
5346000
5346000
5346000
5346000
5346000
5346000
5346000
5346000
5346000
5346000
5346000
5346000
5346000
5346000
5346000
5346000
5346000
5346000
5346000
5346000
5346000
5346000
5346000
5346000
5346000
5346000
5346000
5346000
5346000
5346000
5346000
5346000
5346000
5346000
5346000
5346000
5346000
5346000
5346000
5346000
5346000
5346000
5346000
5346000
5346000
5346000
5346000
5346000
5346000
5346000
5346000
5346000
5346000
5346000
5346000
5346000
5346000
5346000
5346000
5346000
5346000
5346000
5346000
5346000
5346000
5346000
335.5377
5346000
5346000
5346000
5346000
5346000
5346000
5346000
5346000
5346000
5346000
5346000
5346000
5346000
5346000
5346000
5346000
5346000
5346000
5346000
5346000
5346000
5346000
5346000
5346000
5346000
5346000
5346000
5346000
5346000
5346000
5346000
5346000
5346000
5346000
5346000
5346000
5346000
5346000
5346000
5346000
5346000
5346000
5346000
5346000
5346000
5346000
5346000
5346000
5346000
5346000
5346000
5346000
5346000
5346000
5346000
5346000
5346000
5346000
5346000
5346000
5346000
5346000
5346000
5346000
5346000
338.7042
5346000
5346000
5346000
5346000
5346000
331.891
338.7625
5346000
5346000
5346000
5346000
5346000
5346000
5346000
5346000
5346000
5346000
5346000
5346000
5346000
5346000
5346000
5346000
5346000
5346000
5346000
5346000
5346000
5346000
5346000
5346000
5346000
5346000
5346000
5346000
5346000
5346000
5346000
5346000
5346000
5346000
5346000
5346000
5346000
5346000
5346000
5346000
5346000
5346000
5346000
5346000
5346000
5346000
5346000
5346000
5346000
5346000
5346000
5346000
5346000
5346000
5346000
5346000
5346000
5346000
5346000
5346000
5346000
5346000
5346000
5346000
5346000
5346000
5346000
5346000
5346000
5346000
340.5061
5346000
5346000
5346000
5346000
5346000
332.5682
346.7663
5346000
5346000
5346000
5346000
5346000
330.9379
332.5761
340.6159
5346000
5346000
5346000
5346000
5346000
5346000
5346000
5346000
5346000
5346000
5346000
5346000
5346000
5346000
5346000
5346000
5346000
5346000
5346000
5346000
5346000
5346000
5346000
5346000
5346000
5346000
5346000
5346000
5346000
5346000
5346000
5346000
5346000
5346000
5346000
5346000
5346000
5346000
5346000
5346000
5346000
5346000
5346000
5346000
5346000
5346000
5346000
5346000
5346000
5346000
5346000
5346000
5346000
5346000
5346000
5346000
5346000
5346000
5346000
5346000
5346000
5346000
5346000
5346000
5346000
5346000
5346000
5346000
5346000
5346000
5346000
5346000
5346000
5346000
5346000
341.5473
5346000
5346000
5346000
5346000
5346000
333.1579
351.9997
5346000
5346000
5346000
5346000
5346000
331.1784
334.5881
352.0885
5346000
5346000
5346000
5346000
5346000
330.1701
331.1607
333.1703
341.7175
5346000
5346000
5346000
5346000
5346000
5346000
5346000
5346000
5346000
5346000
5346000
5346000
5346000
5346000
5346000
5346000
5346000
5346000
5346000
5346000
5346000
5346000
5346000
5346000
5346000
5346000
5346000
5346000
5346000
5346000
5346000
5346000
5346000
5346000
5346000
5346000
5346000
5346000
5346000
5346000
5346000
5346000
5346000
5346000
5346000
5346000
5346000
5346000
5346000
5346000
5346000
5346000
5346000
5346000
5346000
5346000
5346000
5346000
5346000
5346000
5346000
5346000
5346000
5346000
5346000
5346000
5346000
5346000
5346000
5346000
5346000
5346000
5346000
5346000
5346000
5346000
5346000
5346000
5346000
5346000
342.0346
5346000
5346000
5346000
5346000
5346000
333.5938
355.2326
5346000
5346000
5346000
5346000
5346000
331.3941
336.3758
360.2841
5346000
5346000
5346000
5346000
5346000
330.2739
331.8619
336.3955
355.4746
5346000
5346000
5346000
5346000
5346000
329.4991
330.2475
331.3575
333.6114
342.2841
5346000
5346000
5346000
5346000
5346000
5346000
5346000
5346000
5346000
5346000
5346000
5346000
5346000
5346000
5346000
5346000
5346000
5346000
5346000
5346000
5346000
5346000
5346000
5346000
5346000
5346000
5346000
5346000
5346000
5346000
5346000
5346000
5346000
5346000
5346000
5346000
5346000
5346000
5346000
5346000
5346000
5346000
5346000
5346000
5346000
5346000
5346000
5346000
5346000
5346000
5346000
5346000
5346000
5346000
5346000
5346000
5346000
5346000
5346000
5346000
5346000
5346000
5346000
5346000
5346000
5346000
5346000
5346000
5346000
5346000
5346000
5346000
5346000
5346000
5346000
5346000
5346000
5346000
5346000
5346000
5346000
5346000
5346000
5346000
5346000
342.0346
5346000
5346000
5346000
5346000
5346000
333.8254
356.7917
5346000
5346000
5346000
5346000
5346000
331.559
337.7156
365.6502
5346000
5346000
5346000
5346000
5346000
330.364
332.5031
339.3303
365.868
5346000
5346000
5346000
5346000
5346000
329.5551
330.5333
332.4848
337.7747
357.2739
5346000
5346000
5346000
5346000
5346000
328.8891
329.5276
330.3111
331.4998
333.8494
342.3886
5346000
5346000
5346000
5346000
5346000
5346000
5346000
5346000
5346000
5346000
5346000
5346000
5346000
5346000
5346000
5346000
5346000
5346000
5346000
5346000
5346000
5346000
5346000
5346000
5346000
5346000
5346000
5346000
5346000
5346000
5346000
5346000
5346000
5346000
5346000
5346000
5346000
5346000
5346000
5346000
5346000
5346000
5346000
5346000
5346000
5346000
5346000
5346000
5346000
5346000
5346000
5346000
5346000
5346000
5346000
5346000
5346000
5346000
5346000
5346000
5346000
5346000
5346000
5346000
5346000
5346000
5346000
5346000
5346000
331.3252
5346000
5346000
5346000
5346000
5346000
5346000
5346000
5346000
5346000
5346000
5346000
5346000
5346000
5346000
5346000
5346000
5346000
5346000
5346000
5346000
341.5473
5346000
5346000
5346000
5346000
5346000
333.8254
356.7917
5346000
5346000
5346000
5346000
5346000
331.6487
338.4332
368.325
5346000
5346000
5346000
5346000
5346000
330.4319
332.9994
341.5711
372.9557
5346000
5346000
5346000
5346000
5346000
329.6012
330.7894
333.535
341.6344
368.9395
5346000
5346000
5346000
5346000
5346000
328.9268
329.6699
330.7583
332.9605
338.5529
357.6113
5346000
5346000
5346000
5346000
5346000
328.3303
328.9009
329.5464
330.3473
331.5605
333.8526
342.035
5346000
5346000
5346000
5346000
5346000
5346000
5346000
5346000
5346000
5346000
5346000
5346000
5346000
5346000
5346000
5346000
5346000
5346000
5346000
5346000
5346000
5346000
5346000
5346000
5346000
5346000
5346000
5346000
5346000
5346000
5346000
5346000
5346000
5346000
5346000
5346000
5346000
5346000
5346000
5346000
5346000
5346000
5346000
5346000
5346000
5346000
5346000
5346000
5346000
5346000
5346000
5346000
5346000
5346000
5346000
5346000
5346000
331.3694
5346000
5346000
5346000
5346000
5346000
5346000
5346000
5346000
5346000
5346000
5346000
5346000
5346000
5346000
5346000
330.566
330.8874
5346000
5346000
5346000
5346000
5346000
5346000
5346000
5346000
5346000
5346000
5346000
5346000
5346000
5346000
5346000
5346000
5346000
5346000
5346000
5346000
340.5061
5346000
5346000
5346000
5346000
5346000
333.5938
355.2326
5346000
5346000
5346000
5346000
5346000
331.6487
338.4332
368.325
5346000
5346000
5346000
5346000
5346000
330.4686
333.2712
342.7845
376.576
5346000
5346000
5346000
5346000
5346000
329.6348
330.9853
334.3597
344.6271
377.0778
5346000
5346000
5346000
5346000
5346000
328.9565
329.7926
331.1674
334.3416
342.9606
369.5304
5346000
5346000
5346000
5346000
5346000
328.3603
328.9902
329.7595
330.9132
333.2041
338.6225
356.4887
5346000
5346000
5346000
5346000
5346000
327.8124
328.3367
328.9048
329.5475
330.3441
331.5204
333.6102
341.1646
5346000
5346000
5346000
5346000
5346000
5346000
5346000
5346000
5346000
5346000
5346000
5346000
5346000
5346000
5346000
5346000
5346000
5346000
5346000
5346000
5346000
5346000
5346000
5346000
5346000
5346000
5346000
5346000
5346000
5346000
5346000
5346000
5346000
5346000
5346000
5346000
5346000
5346000
5346000
5346000
5346000
5346000
5346000
5346000
331.4618
5346000
5346000
5346000
5346000
5346000
5346000
5346000
5346000
5346000
5346000
5346000
5346000
5346000
5346000
5346000
330.591
330.9399
5346000
5346000
5346000
5346000
5346000
5346000
5346000
5346000
5346000
5346000
5346000
5346000
5346000
5346000
5346000
329.8596
330.1693
330.4446
5346000
5346000
5346000
5346000
5346000
5346000
5346000
5346000
5346000
5346000
5346000
5346000
5346000
5346000
5346000
5346000
5346000
5346000
5346000
5346000
338.7042
5346000
5346000
5346000
5346000
5346000
333.1579
351.9997
5346000
5346000
5346000
5346000
5346000
331.559
337.7156
365.6502
5346000
5346000
5346000
5346000
5346000
330.4686
333.2712
342.7845
376.576
5346000
5346000
5346000
5346000
5346000
329.6527
331.092
334.815
346.2639
381.2941
5346000
5346000
5346000
5346000
5346000
328.9775
329.8837
331.4853
335.4388
346.411
377.8874
5346000
5346000
5346000
5346000
5346000
328.3834
329.0643
329.9478
331.4394
334.7732
343.1048
367.6178
5346000
5346000
5346000
5346000
5346000
327.8385
328.405
329.0327
329.8058
330.9628
333.1564
337.9535
353.7963
5346000
5346000
5346000
5346000
5346000
327.3313
327.8172
328.3361
328.895
329.5247
330.2924
331.3717
333.1299
339.6018
5346000
5346000
5346000
5346000
5346000
5346000
5346000
5346000
5346000
5346000
5346000
5346000
5346000
5346000
5346000
5346000
5346000
5346000
5346000
5346000
5346000
5346000
5346000
5346000
5346000
5346000
5346000
5346000
5346000
5346000
331.6227
5346000
5346000
5346000
5346000
5346000
5346000
5346000
5346000
5346000
5346000
5346000
5346000
5346000
5346000
5346000
330.6401
331.0551
5346000
5346000
5346000
5346000
5346000
5346000
5346000
5346000
5346000
5346000
5346000
5346000
5346000
5346000
5346000
329.8793
330.1939
330.5037
5346000
5346000
5346000
5346000
5346000
5346000
5346000
5346000
5346000
5346000
5346000
5346000
5346000
5346000
5346000
329.2179
329.5142
329.7705
329.9926
5346000
5346000
5346000
5346000
5346000
5346000
5346000
5346000
5346000
5346000
5346000
5346000
5346000
5346000
5346000
5346000
5346000
5346000
5346000
5346000
335.5377
5346000
5346000
5346000
5346000
5346000
332.5682
346.7663
5346000
5346000
5346000
5346000
5346000
331.3941
336.3758
360.2841
5346000
5346000
5346000
5346000
5346000
330.4319
332.9994
341.5711
372.9557
5346000
5346000
5346000
5346000
5346000
329.6527
331.092
334.815
346.2639
381.2941
5346000
5346000
5346000
5346000
5346000
328.9884
329.9324
331.6601
336.049
348.31
382.2309
5346000
5346000
5346000
5346000
5346000
328.3994
329.1174
330.0899
331.8536
336.0297
346.6215
375.324
5346000
5346000
5346000
5346000
5346000
327.8584
328.4603
329.1415
330.0384
331.5456
334.7271
342.017
363.141
5346000
5346000
5346000
5346000
5346000
327.3549
327.8757
328.4313
329.043
329.7926
330.8812
332.7983
336.5942
349.2356
5346000
5346000
5346000
5346000
5346000
326.8818
327.3356
327.8155
328.3237
328.8675
329.4729
330.1866
331.1142
332.4244
336.8486
5346000
5346000
5346000
5346000
5346000
5346000
5346000
5346000
5346000
5346000
5346000
5346000
5346000
5346000
5346000
331.9581
5346000
5346000
5346000
5346000
5346000
5346000
5346000
5346000
5346000
5346000
5346000
5346000
5346000
5346000
5346000
330.713
331.2734
5346000
5346000
5346000
5346000
5346000
5346000
5346000
5346000
5346000
5346000
5346000
5346000
5346000
5346000
5346000
329.9171
330.2415
330.6357
5346000
5346000
5346000
5346000
5346000
5346000
5346000
5346000
5346000
5346000
5346000
5346000
5346000
5346000
5346000
329.2353
329.5313
329.7948
330.056
5346000
5346000
5346000
5346000
5346000
5346000
5346000
5346000
5346000
5346000
5346000
5346000
5346000
5346000
5346000
328.6364
328.9189
329.1676
329.3668
329.5398
5346000
5346000
5346000
5346000
5346000
5346000
5346000
5346000
5346000
5346000
5346000
5346000
5346000
5346000
5346000
5346000
5346000
5346000
5346000
5346000
5346000
5346000
5346000
5346000
5346000
331.891
338.7625
5346000
5346000
5346000
5346000
5346000
331.1784
334.5881
352.0885
5346000
5346000
5346000
5346000
5346000
330.364
332.5031
339.3303
365.868
5346000
5346000
5346000
5346000
5346000
329.6348
330.9853
334.3597
344.6271
377.0778
5346000
5346000
5346000
5346000
5346000
328.9884
329.9324
331.6601
336.049
348.31
382.2309
5346000
5346000
5346000
5346000
5346000
328.4076
329.1453
330.1666
332.0831
336.7318
348.56
379.2986
5346000
5346000
5346000
5346000
5346000
327.8721
328.4991
329.2209
330.2165
332.0092
335.9902
345.1915
369.4281
5346000
5346000
5346000
5346000
5346000
327.373
327.9226
328.5102
329.1712
330.0378
331.4431
334.176
339.8119
355.933
5346000
5346000
5346000
5346000
5346000
326.9037
327.3885
327.8962
328.4305
329.0115
329.7066
330.6557
332.1481
334.6561
342.1045
5346000
5346000
5346000
5346000
5346000
326.4612
326.886
327.3338
327.8031
328.2965
328.8189
329.3878
330.0212
330.7397
331.4595
333.7577
5346000
5346000
5346000
5346000
5346000
5346000
5346000
5346000
5346000
5346000
5346000
5346000
5346000
5346000
5346000
330.7837
331.7424
5346000
5346000
5346000
5346000
5346000
5346000
5346000
5346000
5346000
5346000
5346000
5346000
5346000
5346000
5346000
329.9694
330.3087
330.8873
5346000
5346000
5346000
5346000
5346000
5346000
5346000
5346000
5346000
5346000
5346000
5346000
5346000
5346000
5346000
329.2683
329.5619
329.8418
330.1977
5346000
5346000
5346000
5346000
5346000
5346000
5346000
5346000
5346000
5346000
5346000
5346000
5346000
5346000
5346000
328.6524
328.9332
329.1825
329.391
329.6052
5346000
5346000
5346000
5346000
5346000
5346000
5346000
5346000
5346000
5346000
5346000
5346000
5346000
5346000
5346000
328.0973
328.3764
328.6188
328.8174
328.9666
329.2747
5346000
5346000
5346000
5346000
5346000
5346000
5346000
5346000
5346000
5346000
5346000
5346000
5346000
5346000
5346000
5346000
5346000
5346000
5346000
5346000
5346000
5346000
5346000
5346000
5346000
5346000
5346000
5346000
5346000
5346000
330.9379
332.5761
340.6159
5346000
5346000
5346000
5346000
5346000
330.2739
331.8619
336.3955
355.4746
5346000
5346000
5346000
5346000
5346000
329.6012
330.7894
333.535
341.6344
368.9395
5346000
5346000
5346000
5346000
5346000
328.9775
329.8837
331.4853
335.4388
346.411
377.8874
5346000
5346000
5346000
5346000
5346000
328.4076
329.1453
330.1666
332.0831
336.7318
348.56
379.2986
5346000
5346000
5346000
5346000
5346000
327.8791
328.519
329.2628
330.3136
332.2678
336.6976
346.9362
372.6147
5346000
5346000
5346000
5346000
5346000
327.3853
327.9551
328.5661
329.2659
330.2285
331.8948
335.2875
342.3065
360.2636
5346000
5346000
5346000
5346000
5346000
326.9203
327.4308
327.9622
328.5202
329.1385
329.9262
331.1161
333.1702
336.748
345.5657
5346000
5346000
5346000
5346000
5346000
326.4815
326.935
327.4067
327.8925
328.3958
328.93
329.5385
330.2847
331.2446
332.286
335.7567
5346000
5346000
5346000
5346000
5346000
326.0663
326.4653
326.8845
327.3223
327.7775
328.2518
328.7455
329.2621
329.7763
330.1697
330.5841
333.1274
5346000
5346000
5346000
5346000
5346000
5346000
5346000
5346000
5346000
5346000
5346000
5346000
5346000
5346000
5346000
329.9916
330.3645
331.3878
5346000
5346000
5346000
5346000
5346000
5346000
5346000
5346000
5346000
5346000
5346000
5346000
5346000
5346000
5346000
329.3129
329.5953
329.9075
330.4614
5346000
5346000
5346000
5346000
5346000
5346000
5346000
5346000
5346000
5346000
5346000
5346000
5346000
5346000
5346000
328.6828
328.9579
329.2081
329.4381
329.7501
5346000
5346000
5346000
5346000
5346000
5346000
5346000
5346000
5346000
5346000
5346000
5346000
5346000
5346000
5346000
328.1123
328.3894
328.6306
328.8309
328.9908
329.3399
5346000
5346000
5346000
5346000
5346000
5346000
5346000
5346000
5346000
5346000
5346000
5346000
5346000
5346000
5346000
327.5972
327.8698
328.1155
328.3156
328.4717
328.7341
329.2414
5346000
5346000
5346000
5346000
5346000
5346000
5346000
5346000
5346000
5346000
5346000
5346000
5346000
5346000
5346000
5346000
5346000
5346000
5346000
5346000
5346000
5346000
5346000
5346000
5346000
5346000
5346000
5346000
5346000
5346000
5346000
5346000
5346000
5346000
5346000
330.1701
331.1607
333.1703
341.7175
5346000
5346000
5346000
5346000
5346000
329.5551
330.5333
332.4848
337.7747
357.2739
5346000
5346000
5346000
5346000
5346000
328.9565
329.7926
331.1674
334.3416
342.9606
369.5304
5346000
5346000
5346000
5346000
5346000
328.3994
329.1174
330.0899
331.8536
336.0297
346.6215
375.324
5346000
5346000
5346000
5346000
5346000
327.8791
328.519
329.2628
330.3136
332.2678
336.6976
346.9362
372.6147
5346000
5346000
5346000
5346000
5346000
327.3916
327.9717
328.5951
329.3164
330.3334
332.1482
335.9109
343.6701
362.4099
5346000
5346000
5346000
5346000
5346000
326.9317
327.46
328.0083
328.5846
329.2339
330.1006
331.4932
334.0041
338.3685
347.756
5346000
5346000
5346000
5346000
5346000
326.497
326.9741
327.466
327.9664
328.4804
329.0318
329.6926
330.5766
331.819
333.1842
337.3523
5346000
5346000
5346000
5346000
5346000
326.0852
326.511
326.952
327.4028
327.8591
328.321
328.7909
329.2798
329.7652
330.1102
330.7908
334.7132
5346000
5346000
5346000
5346000
5346000
325.6949
326.0703
326.464
326.8738
327.2986
327.7364
328.1862
328.64
329.0737
329.3635
329.4975
330.3023
332.4795
5346000
5346000
5346000
5346000
5346000
5346000
5346000
5346000
5346000
5346000
5346000
5346000
5346000
5346000
5346000
329.3235
329.5732
329.9677
330.9421
5346000
5346000
5346000
5346000
5346000
5346000
5346000
5346000
5346000
5346000
5346000
5346000
5346000
5346000
5346000
328.724
328.9814
329.2314
329.5055
330.0109
5346000
5346000
5346000
5346000
5346000
5346000
5346000
5346000
5346000
5346000
5346000
5346000
5346000
5346000
5346000
328.141
328.4118
328.6493
328.8536
329.0386
329.4832
5346000
5346000
5346000
5346000
5346000
5346000
5346000
5346000
5346000
5346000
5346000
5346000
5346000
5346000
5346000
327.6115
327.8821
328.126
328.3256
328.4844
328.7581
329.3064
5346000
5346000
5346000
5346000
5346000
5346000
5346000
5346000
5346000
5346000
5346000
5346000
5346000
5346000
5346000
327.1293
327.3968
327.6414
327.8516
328.0169
328.2703
328.7047
329.2087
5346000
5346000
5346000
5346000
5346000
5346000
5346000
5346000
5346000
5346000
5346000
5346000
5346000
5346000
5346000
5346000
5346000
5346000
5346000
5346000
5346000
5346000
5346000
5346000
5346000
5346000
5346000
5346000
5346000
5346000
5346000
5346000
5346000
5346000
5346000
5346000
5346000
5346000
5346000
5346000
329.4991
330.2475
331.3575
333.6114
342.2841
5346000
5346000
5346000
5346000
5346000
328.9268
329.6699
330.7583
332.9605
338.5529
357.6113
5346000
5346000
5346000
5346000
5346000
328.3834
329.0643
329.9478
331.4394
334.7732
343.1048
367.6178
5346000
5346000
5346000
5346000
5346000
327.8721
328.4991
329.2209
330.2165
332.0092
335.9902
345.1915
369.4281
5346000
5346000
5346000
5346000
5346000
327.3916
327.9717
328.5951
329.3164
330.3334
332.1482
335.9109
343.6701
362.4099
5346000
5346000
5346000
5346000
5346000
326.9376
327.4748
328.032
328.6181
329.2853
330.1977
331.7069
334.4737
339.2521
348.83
5346000
5346000
5346000
5346000
5346000
326.5077
327.001
327.5072
328.0186
328.542
329.1109
329.8219
330.831
332.3133
333.911
338.4343
5346000
5346000
5346000
5346000
5346000
326.0998
326.5476
327.0068
327.469
327.9273
328.3825
328.8427
329.3346
329.8544
330.2493
331.1199
336.0386
5346000
5346000
5346000
5346000
5346000
325.7126
326.1132
326.5272
326.9486
327.3719
327.7908
328.1994
328.5838
328.9135
329.0704
329.3263
330.4674
333.733
5346000
5346000
5346000
5346000
5346000
325.345
325.6988
326.0692
326.4542
326.8519
327.2607
327.6768
328.0931
328.4812
328.738
328.8008
329.2722
329.9863
331.8076
5346000
5346000
5346000
5346000
5346000
5346000
5346000
5346000
5346000
5346000
5346000
5346000
5346000
5346000
5346000
328.7335
328.9431
329.2033
329.577
330.4478
5346000
5346000
5346000
5346000
5346000
5346000
5346000
5346000
5346000
5346000
5346000
5346000
5346000
5346000
5346000
328.18
328.4325
328.6609
328.8742
329.1097
329.7366
5346000
5346000
5346000
5346000
5346000
5346000
5346000
5346000
5346000
5346000
5346000
5346000
5346000
5346000
5346000
327.6388
327.9032
328.1424
328.3407
328.5062
328.8061
329.4494
5346000
5346000
5346000
5346000
5346000
5346000
5346000
5346000
5346000
5346000
5346000
5346000
5346000
5346000
5346000
327.1429
327.4084
327.6513
327.8603
328.0259
328.2828
328.7287
329.2736
5346000
5346000
5346000
5346000
5346000
5346000
5346000
5346000
5346000
5346000
5346000
5346000
5346000
5346000
5346000
326.6911
326.9514
327.1953
327.4101
327.5919
327.8418
328.2446
328.6759
329.1753
5346000
5346000
5346000
5346000
5346000
5346000
5346000
5346000
5346000
5346000
5346000
5346000
5346000
5346000
5346000
5346000
5346000
5346000
5346000
5346000
5346000
5346000
5346000
5346000
5346000
5346000
5346000
5346000
5346000
5346000
5346000
5346000
5346000
5346000
5346000
5346000
5346000
5346000
5346000
5346000
5346000
5346000
5346000
5346000
5346000
328.8891
329.5276
330.3111
331.4998
333.8494
342.3886
5346000
5346000
5346000
5346000
5346000
328.3603
328.9902
329.7595
330.9132
333.2041
338.6225
356.4887
5346000
5346000
5346000
5346000
5346000
327.8584
328.4603
329.1415
330.0384
331.5456
334.7271
342.017
363.141
5346000
5346000
5346000
5346000
5346000
327.3853
327.9551
328.5661
329.2659
330.2285
331.8948
335.2875
342.3065
360.2636
5346000
5346000
5346000
5346000
5346000
326.9376
327.4748
328.032
328.6181
329.2853
330.1977
331.7069
334.4737
339.2521
348.83
5346000
5346000
5346000
5346000
5346000
326.5131
327.0147
327.5283
328.0455
328.5745
329.1544
329.8961
330.9791
332.5974
334.3129
338.9785
5346000
5346000
5346000
5346000
5346000
326.1098
326.5727
327.0449
327.5153
327.9761
328.4289
328.8888
329.3975
329.9667
330.4187
331.4137
336.9556
5346000
5346000
5346000
5346000
5346000
325.7263
326.1475
326.5785
327.0098
327.4327
327.8381
328.219
328.5643
328.8539
328.9819
329.3039
330.7285
334.8142
5346000
5346000
5346000
5346000
5346000
325.3617
325.7391
326.1286
326.5243
326.9202
327.3095
327.6817
328.0209
328.2891
328.4005
328.5418
329.1304
330.1299
332.7903
5346000
5346000
5346000
5346000
5346000
325.015
325.3487
325.6979
326.0601
326.4338
326.8168
327.2059
327.5926
327.9529
328.1921
328.2503
328.6086
329.0252
329.6432
331.1315
5346000
5346000
5346000
5346000
5346000
5346000
5346000
5346000
5346000
5346000
5346000
5346000
5346000
5346000
5346000
328.1912
328.3952
328.6136
328.8574
329.1951
330.1445
5346000
5346000
5346000
5346000
5346000
5346000
5346000
5346000
5346000
5346000
5346000
5346000
5346000
5346000
5346000
327.6763
327.9233
328.1513
328.3483
328.5294
328.8791
329.7018
5346000
5346000
5346000
5346000
5346000
5346000
5346000
5346000
5346000
5346000
5346000
5346000
5346000
5346000
5346000
327.1691
327.4288
327.6667
327.873
328.0396
328.3048
328.7766
329.4162
5346000
5346000
5346000
5346000
5346000
5346000
5346000
5346000
5346000
5346000
5346000
5346000
5346000
5346000
5346000
326.7042
326.9626
327.2048
327.4183
327.5996
327.8506
328.2571
328.6999
329.2401
5346000
5346000
5346000
5346000
5346000
5346000
5346000
5346000
5346000
5346000
5346000
5346000
5346000
5346000
5346000
326.2792
326.532
326.7724
326.9911
327.1827
327.4386
327.8192
328.2196
328.6466
329.1434
5346000
5346000
5346000
5346000
5346000
5346000
5346000
5346000
5346000
5346000
5346000
5346000
5346000
5346000
5346000
5346000
5346000
5346000
5346000
5346000
5346000
5346000
5346000
5346000
5346000
5346000
5346000
5346000
5346000
5346000
5346000
5346000
5346000
5346000
5346000
5346000
5346000
5346000
5346000
5346000
5346000
5346000
5346000
5346000
5346000
5346000
5346000
5346000
5346000
5346000
328.3303
328.9009
329.5464
330.3473
331.5605
333.8526
342.035
5346000
5346000
5346000
5346000
5346000
327.8385
328.405
329.0327
329.8058
330.9628
333.1564
337.9535
353.7963
5346000
5346000
5346000
5346000
5346000
327.373
327.9226
328.5102
329.1712
330.0378
331.4431
334.176
339.8119
355.933
5346000
5346000
5346000
5346000
5346000
326.9317
327.46
328.0083
328.5846
329.2339
330.1006
331.4932
334.0041
338.3685
347.756
5346000
5346000
5346000
5346000
5346000
326.5131
327.0147
327.5283
328.0455
328.5745
329.1544
329.8961
330.9791
332.5974
334.3129
338.9785
5346000
5346000
5346000
5346000
5346000
326.1149
326.5855
327.0643
327.5391
328.0014
328.454
328.916
329.4379
330.0398
330.5256
331.582
337.4209
5346000
5346000
5346000
5346000
5346000
325.7357
326.1711
326.6141
327.0526
327.4758
327.8731
328.2384
328.5656
328.8444
328.9704
329.3328
330.9639
335.576
5346000
5346000
5346000
5346000
5346000
325.3745
325.7713
326.1768
326.5817
326.9767
327.3514
327.6922
327.9824
328.1898
328.2521
328.4212
329.1012
330.3396
333.6547
5346000
5346000
5346000
5346000
5346000
325.0306
325.3867
325.7537
326.1262
326.4982
326.8628
327.2101
327.5223
327.7665
327.8668
327.9866
328.3958
328.9206
329.776
331.8868
5346000
5346000
5346000
5346000
5346000
324.7034
325.0185
325.3479
325.6894
326.0411
326.4012
326.7661
327.1287
327.466
327.6964
327.7612
328.0815
328.4008
328.7615
329.2946
330.7454
5346000
5346000
5346000
5346000
5346000
5346000
5346000
5346000
5346000
5346000
5346000
5346000
5346000
5346000
5346000
327.6898
327.8913
328.1042
328.3105
328.5318
328.9715
330.1063
5346000
5346000
5346000
5346000
5346000
5346000
5346000
5346000
5346000
5346000
5346000
5346000
5346000
5346000
5346000
327.2053
327.4489
327.6757
327.8775
328.0488
328.3306
328.8498
329.6676
5346000
5346000
5346000
5346000
5346000
5346000
5346000
5346000
5346000
5346000
5346000
5346000
5346000
5346000
5346000
326.7293
326.9822
327.2198
327.4302
327.6107
327.8643
328.279
328.7478
329.3823
5346000
5346000
5346000
5346000
5346000
5346000
5346000
5346000
5346000
5346000
5346000
5346000
5346000
5346000
5346000
326.2917
326.5428
326.7815
326.999
327.1899
327.446
327.8279
328.232
328.6705
329.208
5346000
5346000
5346000
5346000
5346000
5346000
5346000
5346000
5346000
5346000
5346000
5346000
5346000
5346000
5346000
325.8914
326.1358
326.3718
326.5907
326.7905
327.0474
327.4186
327.7973
328.194
328.6186
329.1072
5346000
5346000
5346000
5346000
5346000
5346000
5346000
5346000
5346000
5346000
5346000
5346000
5346000
5346000
5346000
5346000
5346000
5346000
5346000
5346000
5346000
5346000
5346000
5346000
5346000
5346000
5346000
5346000
5346000
5346000
5346000
5346000
5346000
5346000
5346000
5346000
5346000
5346000
5346000
5346000
5346000
5346000
5346000
5346000
5346000
5346000
5346000
5346000
5346000
5346000
5346000
5346000
5346000
5346000
5346000
327.8124
328.3367
328.9048
329.5475
330.3441
331.5204
333.6102
341.1646
5346000
5346000
5346000
5346000
5346000
327.3549
327.8757
328.4313
329.043
329.7926
330.8812
332.7983
336.5942
349.2356
5346000
5346000
5346000
5346000
5346000
326.9203
327.4308
327.9622
328.5202
329.1385
329.9262
331.1161
333.1702
336.748
345.5657
5346000
5346000
5346000
5346000
5346000
326.5077
327.001
327.5072
328.0186
328.542
329.1109
329.8219
330.831
332.3133
333.911
338.4343
5346000
5346000
5346000
5346000
5346000
326.1149
326.5855
327.0643
327.5391
328.0014
328.454
328.916
329.4379
330.0398
330.5256
331.582
337.4209
5346000
5346000
5346000
5346000
5346000
325.7406
326.1831
326.6323
327.0746
327.4981
327.8917
328.2504
328.571
328.8489
328.9774
329.3597
331.0996
335.9661
5346000
5346000
5346000
5346000
5346000
325.3834
325.7936
326.2103
326.6219
327.0166
327.382
327.7036
327.9665
328.1448
328.1879
328.3694
329.1161
330.5276
334.2728
5346000
5346000
5346000
5346000
5346000
325.0428
325.417
325.7991
326.1803
326.5515
326.9022
327.219
327.4822
327.6636
327.7116
327.8463
328.2866
328.8933
329.9474
332.5579
5346000
5346000
5346000
5346000
5346000
324.7181
325.0542
325.4005
325.7516
326.102
326.4452
326.7714
327.0651
327.295
327.3985
327.5163
327.8654
328.2374
328.6952
329.4215
331.3952
5346000
5346000
5346000
5346000
5346000
324.409
324.7067
325.0177
325.3399
325.6715
326.0105
326.3539
326.6946
327.0129
327.2347
327.311
327.6107
327.9009
328.1807
328.4988
329.0851
330.6981
5346000
5346000
5346000
5346000
5346000
5346000
5346000
5346000
5346000
5346000
5346000
5346000
5346000
5346000
5346000
327.2208
327.4229
327.634
327.8382
328.0294
328.3443
328.9427
330.0686
5346000
5346000
5346000
5346000
5346000
5346000
5346000
5346000
5346000
5346000
5346000
5346000
5346000
5346000
5346000
326.7643
327.0025
327.2296
327.4347
327.6162
327.876
328.3051
328.8211
329.6325
5346000
5346000
5346000
5346000
5346000
5346000
5346000
5346000
5346000
5346000
5346000
5346000
5346000
5346000
5346000
326.3159
326.5619
326.7962
327.0106