/*--------------------------------*- C++ -*----------------------------------*\
| =========                 |                                                 |
| \\      /  F ield         | OpenFOAM: The Open Source CFD Toolbox           |
|  \\    /   O peration     | Version:  2306                                  |
|   \\  /    A nd           | Website:  www.openfoam.com                      |
|    \\/     M anipulation  |                                                 |
\*---------------------------------------------------------------------------*/
FoamFile
{
    version     2.0;
    format      ascii;
    arch        "LSB;label=32;scalar=64";
    class       volScalarField;
    location    "0.9";
    object      T;
}
// * * * * * * * * * * * * * * * * * * * * * * * * * * * * * * * * * * * * * //

dimensions      [0 0 0 1 0 0 0];

internalField   nonuniform List<scalar> 
52000
(
1243.135
1243.132
1245.135
1243.064
1243.128
1245.134
1243.061
1247.772
1245.113
1242.925
1243.122
1245.132
1243.055
1247.771
1245.112
1242.919
1250.481
1247.772
1245.071
1242.72
1243.114
1245.13
1243.046
1247.77
1245.109
1242.909
1250.48
1247.771
1245.069
1242.711
1253.073
1250.489
1247.774
1245.014
1242.463
1243.107
1245.127
1243.036
1247.768
1245.106
1242.895
1250.479
1247.769
1245.066
1242.693
1253.072
1250.488
1247.773
1245.011
1242.445
1255.496
1253.082
1250.506
1247.782
1244.948
1242.249
1243.099
1245.124
1243.025
1247.766
1245.103
1242.878
1250.477
1247.767
1245.062
1242.668
1253.07
1250.486
1247.77
1245.006
1242.411
1255.496
1253.081
1250.504
1247.779
1244.944
1242.218
1257.749
1255.506
1253.103
1250.535
1247.799
1244.9
1242.111
1243.092
1245.121
1243.014
1247.763
1245.099
1242.859
1250.474
1247.763
1245.056
1242.639
1253.068
1250.483
1247.766
1244.999
1242.365
1255.494
1253.079
1250.501
1247.774
1244.936
1242.158
1257.748
1255.505
1253.101
1250.532
1247.796
1244.893
1242.071
1259.842
1257.758
1255.526
1253.137
1250.58
1247.823
1244.873
1241.984
1243.087
1245.118
1243.004
1247.76
1245.095
1242.84
1250.471
1247.76
1245.05
1242.608
1253.066
1250.479
1247.76
1244.991
1242.316
1255.492
1253.077
1250.496
1247.767
1244.925
1242.068
1257.747
1255.503
1253.098
1250.527
1247.789
1244.88
1241.991
1259.842
1257.757
1255.525
1253.135
1250.577
1247.82
1244.864
1241.936
1261.791
1259.85
1257.777
1255.559
1253.188
1250.628
1247.844
1244.853
1241.877
1243.085
1245.116
1242.997
1247.758
1245.091
1242.823
1250.469
1247.756
1245.044
1242.572
1253.063
1250.476
1247.754
1244.982
1242.282
1255.49
1253.073
1250.491
1247.758
1244.914
1241.955
1257.745
1255.501
1253.094
1250.52
1247.779
1244.862
1241.867
1259.841
1257.755
1255.522
1253.13
1250.57
1247.813
1244.846
1241.838
1261.79
1259.85
1257.775
1255.557
1253.185
1250.625
1247.841
1244.841
1241.823
1263.609
1261.798
1259.867
1257.807
1255.608
1253.24
1250.664
1247.87
1244.843
1241.795
1243.085
1245.115
1242.993
1247.757
1245.089
1242.81
1250.467
1247.753
1245.038
1242.537
1253.061
1250.472
1247.748
1244.97
1242.203
1255.488
1253.07
1250.484
1247.747
1244.906
1227.781
1257.743
1255.498
1253.088
1250.51
1247.764
1244.842
1241.694
1259.839
1257.753
1255.518
1253.122
1250.559
1247.804
1244.819
1241.685
1261.789
1259.848
1257.773
1255.553
1253.179
1250.62
1247.833
1244.818
1241.711
1263.609
1261.798
1259.866
1257.805
1255.606
1253.238
1250.662
1247.866
1244.829
1241.737
1265.31
1263.616
1261.814
1259.895
1257.852
1255.658
1253.279
1250.705
1247.903
1244.845
1241.742
1243.087
1245.115
1242.993
1247.756
1245.087
1242.803
1250.465
1247.751
1245.033
1242.51
1253.059
1250.469
1247.743
1244.959
1242.123
1255.486
1253.066
1250.478
1247.736
1244.884
1214.417
1257.741
1255.494
1253.082
1250.497
1247.741
1243.318
1214.171
1259.837
1257.75
1255.513
1253.113
1250.542
1247.794
1244.786
1241.467
1261.788
1259.846
1257.769
1255.546
1253.168
1250.613
1247.823
1244.783
1241.536
1263.608
1261.796
1259.864
1257.801
1255.6
1253.234
1250.658
1247.858
1244.802
1241.616
1265.31
1263.615
1261.812
1259.893
1257.85
1255.656
1253.277
1250.703
1247.898
1244.83
1241.681
1266.904
1265.316
1263.63
1261.838
1259.935
1257.897
1255.695
1253.321
1250.75
1247.941
1244.861
1241.717
1243.092
1245.116
1242.997
1247.756
1245.087
1242.803
1250.464
1247.75
1245.03
1242.495
1253.057
1250.467
1247.739
1244.949
1242.063
1255.484
1253.063
1250.473
1247.727
1244.858
1206.929
1257.739
1255.491
1253.076
1250.486
1247.719
1240.379
1181.559
1259.835
1257.747
1255.507
1253.101
1250.514
1247.243
1240.326
1206.467
1261.786
1259.844
1257.764
1255.537
1253.152
1250.606
1247.81
1244.736
1241.289
1263.607
1261.794
1259.86
1257.795
1255.591
1253.228
1250.652
1247.846
1244.761
1241.429
1265.309
1263.614
1261.81
1259.889
1257.845
1255.653
1253.274
1250.699
1247.889
1244.801
1241.557
1266.904
1265.316
1263.629
1261.837
1259.933
1257.896
1255.693
1253.32
1250.748
1247.937
1244.846
1241.656
1268.401
1266.91
1265.329
1263.652
1261.875
1259.976
1257.931
1255.735
1253.367
1250.798
1247.987
1244.891
1241.722
1243.099
1245.118
1243.004
1247.757
1245.089
1242.81
1250.464
1247.75
1245.03
1242.495
1253.057
1250.466
1247.737
1244.944
1242.031
1255.482
1253.061
1250.469
1247.72
1244.836
1202.639
1257.738
1255.489
1253.072
1250.477
1247.701
1237.833
1161.083
1259.834
1257.745
1255.502
1253.09
1250.491
1246.197
1231.656
1160.736
1261.785
1259.841
1257.759
1255.526
1253.123
1250.349
1246.256
1237.725
1201.922
1263.605
1261.792
1259.856
1257.787
1255.575
1253.222
1250.645
1247.829
1244.702
1241.165
1265.308
1263.612
1261.807
1259.884
1257.836
1255.648
1253.27
1250.693
1247.875
1244.755
1241.365
1266.903
1265.315
1263.627
1261.834
1259.929
1257.893
1255.691
1253.318
1250.744
1247.928
1244.817
1241.533
1268.401
1266.909
1265.328
1263.651
1261.873
1259.975
1257.93
1255.734
1253.366
1250.797
1247.983
1244.877
1241.662
1269.808
1268.406
1266.921
1265.349
1263.685
1261.912
1260.006
1257.967
1255.777
1253.415
1250.851
1248.039
1244.936
1241.755
1243.107
1245.121
1243.014
1247.758
1245.091
1242.823
1250.465
1247.751
1245.033
1242.51
1253.057
1250.466
1247.737
1244.944
1242.031
1255.482
1253.06
1250.467
1247.716
1244.824
1200.641
1257.736
1255.487
1253.068
1250.47
1247.687
1235.96
1148.754
1259.832
1257.742
1255.497
1253.081
1250.475
1245.264
1224.049
1129.96
1261.783
1259.838
1257.755
1255.516
1253.102
1249.899
1243.201
1223.929
1147.827
1263.604
1261.79
1259.852
1257.777
1255.548
1253.069
1249.997
1245.367
1235.773
1199.578
1265.307
1263.61
1261.804
1259.877
1257.822
1255.642
1253.266
1250.686
1247.855
1244.691
1241.096
1266.902
1265.313
1263.624
1261.829
1259.921
1257.888
1255.688
1253.315
1250.739
1247.913
1244.77
1241.344
1268.4
1266.908
1265.326
1263.648
1261.869
1259.972
1257.928
1255.732
1253.364
1250.794
1247.974
1244.85
1241.542
1269.808
1268.406
1266.921
1265.348
1263.684
1261.91
1260.005
1257.966
1255.777
1253.415
1250.85
1248.036
1244.923
1241.696
1271.132
1269.813
1268.417
1266.94
1265.379
1263.719
1261.939
1260.039
1258.005
1255.822
1253.466
1250.907
1248.098
1244.993
1241.814
1243.114
1245.124
1243.025
1247.76
1245.095
1242.84
1250.467
1247.753
1245.038
1242.537
1253.057
1250.467
1247.739
1244.949
1242.063
1255.482
1253.06
1250.467
1247.716
1244.824
1200.641
1257.736
1255.486
1253.066
1250.467
1247.68
1234.966
1142.893
1259.831
1257.74
1255.494
1253.075
1250.464
1244.553
1218.405
1110.605
1261.782
1259.836
1257.751
1255.508
1253.087
1249.513
1240.425
1211.621
1109.825
1263.602
1261.787
1259.847
1257.768
1255.529
1252.83
1248.749
1240.466
1218.064
1141.058
1265.305
1263.608
1261.8
1259.868
1257.798
1255.532
1252.933
1249.69
1244.697
1234.677
1199.108
1266.901
1265.311
1263.621
1261.822
1259.908
1257.883
1255.685
1253.311
1250.731
1247.891
1244.705
1241.082
1268.399
1266.907
1265.324
1263.643
1261.862
1259.968
1257.925
1255.73
1253.362
1250.789
1247.96
1244.807
1241.36
1269.807
1268.405
1266.919
1265.345
1263.68
1261.908
1260.003
1257.965
1255.776
1253.414
1250.848
1248.029
1244.899
1241.579
1271.132
1269.812
1268.416
1266.939
1265.378
1263.718
1261.938
1260.038
1258.005
1255.822
1253.466
1250.907
1248.096
1244.982
1241.755
1272.379
1271.136
1269.823
1268.434
1266.968
1265.41
1263.743
1261.968
1260.074
1258.046
1255.869
1253.52
1250.966
1248.161
1245.061
1242.802
1243.122
1245.127
1243.036
1247.763
1245.099
1242.859
1250.469
1247.756
1245.044
1242.572
1253.059
1250.469
1247.743
1244.959
1242.123
1255.482
1253.061
1250.469
1247.72
1244.836
1202.639
1257.736
1255.486
1253.066
1250.467
1247.68
1234.966
1142.893
1259.83
1257.74
1255.492
1253.072
1250.458
1244.167
1215.402
1101.182
1261.781
1259.835
1257.748
1255.502
1253.077
1249.224
1238.284
1202.375
1085.206
1263.601
1261.785
1259.844
1257.761
1255.516
1252.636
1247.637
1235.937
1202.061
1099.015
1265.304
1263.606
1261.796
1259.86
1257.78
1255.372
1252.314
1247.737
1238.358
1214.734
1139.76
1266.9
1265.309
1263.617
1261.814
1259.887
1257.792
1255.47
1252.825
1249.485
1244.361
1234.567
1200.483
1268.398
1266.905
1265.321
1263.637
1261.85
1259.964
1257.922
1255.727
1253.358
1250.781
1247.939
1244.747
1241.115
1269.806
1268.403
1266.917
1265.341
1263.674
1261.904
1260.001
1257.963
1255.774
1253.412
1250.844
1248.018
1244.863
1241.406
1271.131
1269.811
1268.414
1266.936
1265.374
1263.715
1261.936
1260.037
1258.004
1255.821
1253.466
1250.907
1248.092
1244.962
1241.638
1272.379
1271.136
1269.822
1268.433
1266.966
1265.409
1263.742
1261.968
1260.073
1258.046
1255.869
1253.52
1250.967
1248.161
1245.052
1242.723
1273.553
1272.383
1271.146
1269.839
1268.459
1266.996
1265.432
1263.77
1261.999
1260.11
1258.088
1255.917
1253.574
1251.027
1248.228
1245.964
1244.701
1243.128
1245.13
1243.046
1247.766
1245.103
1242.878
1250.471
1247.76
1245.05
1242.608
1253.061
1250.472
1247.748
1244.97
1242.203
1255.484
1253.063
1250.473
1247.727
1244.858
1206.929
1257.736
1255.487
1253.068
1250.47
1247.687
1235.96
1148.754
1259.83
1257.74
1255.492
1253.072
1250.458
1244.167
1215.402
1101.182
1261.78
1259.834
1257.746
1255.5
1253.072
1249.068
1237.115
1197.422
1073.014
1263.6
1261.784
1259.841
1257.756
1255.507
1252.496
1246.79
1232.402
1189.915
1071.331
1265.303
1263.604
1261.792
1259.853
1257.768
1255.25
1251.784
1245.959
1232.424
1196.577
1096.924
1266.898
1265.307
1263.614
1261.807
1259.871
1257.665
1255.083
1251.895
1247.013
1237.235
1214.351
1143.885
1268.397
1266.903
1265.317
1263.63
1261.831
1259.884
1257.755
1255.429
1252.776
1249.429
1244.438
1235.487
1203.946
1269.805
1268.402
1266.914
1265.336
1263.663
1261.9
1259.999
1257.961
1255.772
1253.409
1250.837
1248
1244.814
1241.183
1271.13
1269.81
1268.412
1266.933
1265.369
1263.712
1261.934
1260.035
1258.003
1255.821
1253.466
1250.905
1248.085
1244.934
1241.467
1272.378
1271.135
1269.821
1268.431
1266.963
1265.407
1263.741
1261.967
1260.073
1258.046
1255.87
1253.522
1250.969
1248.161
1245.035
1242.546
1273.553
1272.383
1271.145
1269.838
1268.458
1266.995
1265.431
1263.769
1261.999
1260.11
1258.088
1255.918
1253.576
1251.029
1248.229
1245.956
1244.584
1274.66
1273.557
1272.392
1271.161
1269.862
1268.485
1267.016
1265.456
1263.798
1262.032
1260.148
1258.131
1255.966
1253.629
1251.087
1249.018
1247.693
1246.613
1243.132
1245.132
1243.055
1247.768
1245.106
1242.895
1250.474
1247.763
1245.056
1242.639
1253.063
1250.476
1247.754
1244.982
1242.282
1255.486
1253.066
1250.478
1247.736
1244.884
1214.417
1257.738
1255.489
1253.072
1250.477
1247.701
1237.833
1161.083
1259.831
1257.74
1255.494
1253.075
1250.464
1244.553
1218.405
1110.605
1261.78
1259.834
1257.746
1255.5
1253.072
1249.068
1237.115
1197.422
1073.014
1263.6
1261.783
1259.84
1257.753
1255.503
1252.423
1246.328
1230.459
1183.366
1057.487
1265.302
1263.603
1261.79
1259.849
1257.761
1255.165
1251.393
1244.583
1227.747
1182.707
1068.615
1266.897
1265.306
1263.611
1261.801
1259.86
1257.572
1254.766
1251.08
1244.728
1230.507
1195.902
1103.537
1268.395
1266.902
1265.314
1263.623
1261.817
1259.773
1257.459
1254.872
1251.648
1246.727
1237.345
1217.031
1153.955
1269.804
1268.4
1266.911
1265.329
1263.645
1261.828
1259.854
1257.735
1255.431
1252.812
1249.562
1244.962
1237.404
1210.245
1271.129
1269.809
1268.41
1266.928
1265.359
1263.708
1261.932
1260.034
1258.001
1255.819
1253.463
1250.901
1248.074
1244.9
1241.257
1272.377
1271.134
1269.819
1268.427
1266.958
1265.404
1263.739
1261.965
1260.072
1258.045
1255.87
1253.523
1250.971
1248.16
1245.015
1242.202
1273.553
1272.382
1271.144
1269.835
1268.455
1266.993
1265.43
1263.768
1261.999
1260.11
1258.089
1255.92
1253.579
1251.034
1248.232
1245.943
1244.305
1274.66
1273.557
1272.391
1271.16
1269.861
1268.484
1267.015
1265.456
1263.798
1262.032
1260.148
1258.132
1255.968
1253.632
1251.091
1249.025
1247.686
1246.466
1275.702
1274.664
1273.566
1272.406
1271.183
1269.886
1268.504
1267.038
1265.482
1263.828
1262.066
1260.187
1258.175
1256.015
1253.683
1251.774
1250.529
1249.422
1248.543
1243.135
1245.134
1243.061
1247.77
1245.109
1242.909
1250.477
1247.767
1245.062
1242.668
1253.066
1250.479
1247.76
1244.991
1242.316
1255.488
1253.07
1250.484
1247.747
1244.906
1227.781
1257.739
1255.491
1253.076
1250.486
1247.719
1240.379
1181.559
1259.832
1257.742
1255.497
1253.081
1250.475
1245.264
1224.049
1129.96
1261.781
1259.835
1257.748
1255.502
1253.077
1249.224
1238.284
1202.375
1085.206
1263.6
1261.783
1259.84
1257.753
1255.503
1252.423
1246.328
1230.459
1183.366
1057.487
1265.301
1263.602
1261.789
1259.846
1257.757
1255.122
1251.184
1243.827
1225.161
1175.199
1054.426
1266.897
1265.304
1263.608
1261.797
1259.853
1257.509
1254.54
1250.466
1242.936
1225.168
1181.783
1077.099
1268.395
1266.9
1265.311
1263.618
1261.807
1259.693
1257.224
1254.404
1250.641
1244.198
1230.611
1200.221
1119.361
1269.803
1268.398
1266.908
1265.323
1263.633
1261.728
1259.6
1257.321
1254.787
1251.643
1246.992
1238.771
1222.608
1171.421
1271.128
1269.807
1268.407
1266.922
1265.343
1263.642
1261.8
1259.84
1257.751
1255.491
1252.952
1249.908
1245.934
1240.264
1221.537
1272.376
1271.133
1269.816
1268.422
1266.949
1265.4
1263.737
1261.964
1260.07
1258.044
1255.869
1253.523
1250.971
1248.16
1244.998
1241.232
1273.552
1272.381
1271.142
1269.832
1268.45
1266.99
1265.428
1263.767
1261.998
1260.109
1258.09
1255.922
1253.584
1251.041
1248.24
1245.942
1243.701
1274.659
1273.556
1272.39
1271.158
1269.858
1268.482
1267.014
1265.455
1263.797
1262.032
1260.149
1258.134
1255.972
1253.638
1251.099
1249.047
1247.678
1246.109
1275.702
1274.663
1273.565
1272.405
1271.181
1269.885
1268.503
1267.038
1265.482
1263.828
1262.067
1260.187
1258.177
1256.018
1253.687
1251.785
1250.547
1249.415
1248.375
1276.682
1275.705
1274.671
1273.579
1272.426
1271.205
1269.904
1268.524
1267.062
1265.509
1263.859
1262.101
1260.226
1258.219
1256.063
1254.282
1253.086
1252.036
1251.151
1250.495
1245.135
1243.064
1247.771
1245.112
1242.919
1250.479
1247.769
1245.066
1242.693
1253.068
1250.483
1247.766
1244.999
1242.365
1255.49
1253.073
1250.491
1247.758
1244.914
1241.955
1257.741
1255.494
1253.082
1250.497
1247.741
1243.318
1214.171
1259.834
1257.745
1255.502
1253.09
1250.491
1246.197
1231.656
1160.736
1261.782
1259.836
1257.751
1255.508
1253.087
1249.513
1240.425
1211.621
1109.825
1263.6
1261.784
1259.841
1257.756
1255.507
1252.496
1246.79
1232.402
1189.915
1071.331
1265.301
1263.602
1261.789
1259.846
1257.757
1255.122
1251.184
1243.827
1225.161
1175.199
1054.426
1266.896
1265.304
1263.607
1261.795
1259.85
1257.477
1254.423
1250.136
1241.945
1222.204
1174.13
1063.914
1268.394
1266.899
1265.309
1263.615
1261.801
1259.64
1257.061
1254.065
1249.871
1242.194
1225.245
1187.383
1097.141
1269.802
1268.397
1266.905
1265.318
1263.624
1261.655
1259.401
1256.984
1254.236
1250.581
1244.555
1232.854
1209.161
1145.76
1271.127
1269.806
1268.404
1266.916
1265.331
1263.549
1261.571
1259.49
1257.288
1254.866
1251.935
1247.864
1241.445
1230.676
1199.758
1272.375
1271.131
1269.813
1268.417
1266.934
1265.338
1263.615
1261.788
1259.858
1257.814
1255.623
1253.216
1250.49
1247.387
1244.22
1234.323
1273.551
1272.38
1271.14
1269.828
1268.442
1266.987
1265.426
1263.766
1261.996
1260.109
1258.09
1255.923
1253.587
1251.049
1248.254
1246.067
1242.12
1274.658
1273.555
1272.388
1271.155
1269.854
1268.48
1267.012
1265.454
1263.796
1262.032
1260.149
1258.136
1255.976
1253.647
1251.114
1249.112
1247.695
1245.348
1275.701
1274.663
1273.564
1272.403
1271.179
1269.883
1268.502
1267.037
1265.481
1263.828
1262.067
1260.189
1258.18
1256.024
1253.696
1251.815
1250.599
1249.408
1247.972
1276.682
1275.705
1274.671
1273.578
1272.425
1271.204
1269.903
1268.524
1267.062
1265.509
1263.859
1262.102
1260.227
1258.222
1256.067
1254.293
1253.111
1252.063
1251.144
1250.316
1277.604
1276.686
1275.713
1274.684
1273.598
1272.447
1271.221
1269.923
1268.546
1267.087
1265.537
1263.89
1262.137
1260.265
1258.261
1256.588
1255.425
1254.394
1253.539
1252.881
1251.539
1247.772
1245.113
1242.925
1250.48
1247.771
1245.069
1242.711
1253.07
1250.486
1247.77
1245.006
1242.411
1255.492
1253.077
1250.496
1247.767
1244.925
1242.068
1257.743
1255.498
1253.088
1250.51
1247.764
1244.842
1241.694
1259.835
1257.747
1255.507
1253.101
1250.514
1247.243
1240.326
1206.467
1261.783
1259.838
1257.755
1255.516
1253.102
1249.899
1243.201
1223.929
1147.827
1263.601
1261.785
1259.844
1257.761
1255.516
1252.636
1247.637
1235.937
1202.061
1099.015
1265.302
1263.603
1261.79
1259.849
1257.761
1255.165
1251.393
1244.583
1227.747
1182.707
1068.615
1266.896
1265.304
1263.607
1261.795
1259.85
1257.477
1254.423
1250.136
1241.945
1222.204
1174.13
1063.914
1268.393
1266.899
1265.308
1263.613
1261.798
1259.613
1256.978
1253.887
1249.453
1241.079
1222.259
1180.433
1086.187
1269.801
1268.396
1266.904
1265.315
1263.618
1261.607
1259.266
1256.747
1253.831
1249.758
1242.604
1228.119
1198.923
1129.714
1271.126
1269.804
1268.402
1266.912
1265.323
1263.482
1261.391
1259.208
1256.905
1254.322
1250.987
1245.87
1237.044
1221.821
1185.816
1272.374
1271.13
1269.811
1268.412
1266.924
1265.253
1263.402
1261.471
1259.47
1257.385
1255.145
1252.567
1249.352
1245.211
1240.696
1225.976
1273.55
1272.378
1271.137
1269.823
1268.429
1266.929
1265.313
1263.603
1261.805
1259.917
1257.934
1255.843
1253.634
1251.393
1249.662
1247.719
1236.777
1274.658
1273.554
1272.386
1271.151
1269.846
1268.477
1267.011
1265.452
1263.795
1262.031
1260.149
1258.138
1255.981
1253.657
1251.135
1249.417
1247.865
1243.597
1275.7
1274.662
1273.562
1272.4
1271.175
1269.881
1268.501
1267.036
1265.481
1263.827
1262.068
1260.191
1258.185
1256.033
1253.712
1251.892
1250.742
1249.424
1247.145
1276.682
1275.704
1274.67
1273.576
1272.423
1271.203
1269.902
1268.523
1267.061
1265.509
1263.859
1262.104
1260.231
1258.227
1256.076
1254.323
1253.175
1252.136
1251.134
1249.895
1277.604
1276.685
1275.712
1274.683
1273.597
1272.447
1271.221
1269.922
1268.546
1267.087
1265.537
1263.891
1262.138
1260.267
1258.265
1256.599
1255.45
1254.429
1253.572
1252.874
1251.36
1278.47
1277.607
1276.693
1275.725
1274.702
1273.618
1272.463
1271.239
1269.943
1268.569
1267.112
1265.566
1263.922
1262.172
1260.303
1258.725
1257.591
1256.565
1255.697
1255.036
1253.796
1251.652
1250.481
1247.772
1245.071
1242.72
1253.072
1250.488
1247.773
1245.011
1242.445
1255.494
1253.079
1250.501
1247.774
1244.936
1242.158
1257.745
1255.501
1253.094
1250.52
1247.779
1244.862
1241.867
1259.837
1257.75
1255.513
1253.113
1250.542
1247.794
1244.786
1241.467
1261.785
1259.841
1257.759
1255.526
1253.123
1250.349
1246.256
1237.725
1201.922
1263.602
1261.787
1259.847
1257.768
1255.529
1252.83
1248.749
1240.466
1218.064
1141.058
1265.303
1263.604
1261.792
1259.853
1257.768
1255.25
1251.784
1245.959
1232.424
1196.577
1096.924
1266.897
1265.304
1263.608
1261.797
1259.853
1257.509
1254.54
1250.466
1242.936
1225.168
1181.783
1077.099
1268.393
1266.899
1265.308
1263.613
1261.798
1259.613
1256.978
1253.887
1249.453
1241.079
1222.259
1180.433
1086.187
1269.801
1268.396
1266.903
1265.313
1263.615
1261.583
1259.197
1256.625
1253.615
1249.306
1241.511
1225.478
1193.393
1121.914
1271.126
1269.803
1268.4
1266.908
1265.318
1263.438
1261.27
1259.013
1256.632
1253.916
1250.237
1244.242
1233.476
1215.042
1177.15
1272.374
1271.129
1269.809
1268.408
1266.916
1265.19
1263.236
1261.218
1259.156
1257.026
1254.714
1251.91
1248.098
1242.746
1236.874
1219.333
1273.549
1272.377
1271.135
1269.818
1268.419
1266.849
1265.113
1263.308
1261.455
1259.566
1257.641
1255.658
1253.578
1251.477
1249.997
1247.009
1230.221
1274.657
1273.553
1272.384
1271.146
1269.834
1268.423
1266.904
1265.3
1263.617
1261.858
1260.026
1258.126
1256.181
1254.303
1253.002
1252.319
1248.73
1239.402
1275.7
1274.66
1273.56
1272.396
1271.168
1269.879
1268.499
1267.035
1265.479
1263.827
1262.068
1260.193
1258.189
1256.043
1253.734
1252.221
1251.225
1249.551
1245.453
1276.681
1275.703
1274.668
1273.573
1272.419
1271.2
1269.9
1268.522
1267.06
1265.509
1263.86
1262.105
1260.235
1258.236
1256.09
1254.399
1253.342
1252.317
1251.135
1249.073
1277.603
1276.685
1275.711
1274.681
1273.595
1272.445
1271.22
1269.921
1268.546
1267.087
1265.538
1263.892
1262.141
1260.273
1258.273
1256.627
1255.515
1254.519
1253.656
1252.858
1250.943
1278.469
1277.607
1276.692
1275.724
1274.701
1273.617
1272.462
1271.239
1269.943
1268.569
1267.113
1265.567
1263.924
1262.174
1260.306
1258.735
1257.615
1256.6
1255.739
1255.072
1253.789
1251.473
1279.281
1278.473
1277.614
1276.704
1275.742
1274.721
1273.632
1272.479
1271.258
1269.964
1268.593
1267.139
1265.595
1263.954
1262.206
1260.715
1259.611
1258.59
1257.699
1256.992
1255.825
1253.895
1251.765
1253.073
1250.489
1247.774
1245.014
1242.463
1255.496
1253.081
1250.504
1247.779
1244.944
1242.218
1257.747
1255.503
1253.098
1250.527
1247.789
1244.88
1241.991
1259.839
1257.753
1255.518
1253.122
1250.559
1247.804
1244.819
1241.685
1261.786
1259.844
1257.764
1255.537
1253.152
1250.606
1247.81
1244.736
1241.289
1263.604
1261.79
1259.852
1257.777
1255.548
1253.069
1249.997
1245.367
1235.773
1199.578
1265.304
1263.606
1261.796
1259.86
1257.78
1255.372
1252.314
1247.737
1238.358
1214.734
1139.76
1266.897
1265.306
1263.611
1261.801
1259.86
1257.572
1254.766
1251.08
1244.728
1230.507
1195.902
1103.537
1268.394
1266.899
1265.309
1263.615
1261.801
1259.64
1257.061
1254.065
1249.871
1242.194
1225.245
1187.383
1097.141
1269.801
1268.396
1266.903
1265.313
1263.615
1261.583
1259.197
1256.625
1253.615
1249.306
1241.511
1225.478
1193.393
1121.914
1271.126
1269.803
1268.399
1266.907
1265.316
1263.416
1261.208
1258.914
1256.491
1253.697
1249.82
1243.322
1231.474
1211.375
1172.944
1272.373
1271.128
1269.807
1268.405
1266.911
1265.149
1263.124
1261.044
1258.936
1256.768
1254.381
1251.36
1247.008
1240.629
1233.79
1214.855
1273.549
1272.376
1271.133
1269.814
1268.412
1266.79
1264.958
1263.074
1261.173
1259.278
1257.386
1255.451
1253.364
1251.124
1249.451
1245.678
1224.718
1274.656
1273.552
1272.381
1271.141
1269.824
1268.348
1266.717
1265.024
1263.292
1261.542
1259.797
1258.083
1256.452
1255.047
1254.37
1253.26
1248.252
1234.267
1275.699
1274.659
1273.558
1272.392
1271.156
1269.828
1268.399
1266.891
1265.312
1263.665
1261.956
1260.197
1258.418
1256.731
1255.59
1255.209
1253.106
1249.967
1242.159
1276.68
1275.702
1274.666
1273.57
1272.412
1271.198
1269.899
1268.521
1267.059
1265.508
1263.86
1262.107
1260.239
1258.245
1256.111
1254.71
1253.871
1252.806
1251.192
1247.553
1277.603
1276.684
1275.71
1274.679
1273.591
1272.443
1271.218
1269.92
1268.545
1267.086
1265.538
1263.894
1262.145
1260.28
1258.287
1256.698
1255.677
1254.733
1253.842
1252.838
1250.147
1278.469
1277.606
1276.691
1275.722
1274.699
1273.616
1272.461
1271.238
1269.942
1268.569
1267.113
1265.568
1263.926
1262.179
1260.314
1258.761
1257.675
1256.69
1255.843
1255.158
1253.77
1251.056
1279.281
1278.472
1277.614
1276.703
1275.741
1274.72
1273.632
1272.479
1271.258
1269.964
1268.593
1267.139
1265.596
1263.956
1262.209
1260.725
1259.633
1258.624
1257.741
1257.038
1255.861
1253.887
1251.587
1280.04
1279.284
1278.479
1277.625
1276.721
1275.76
1274.735
1273.648
1272.497
1271.278
1269.986
1268.617
1267.166
1265.624
1263.985
1262.575
1261.503
1260.493
1259.583
1258.825
1257.672
1255.91
1253.994
1251.878
1255.496
1253.082
1250.506
1247.782
1244.948
1242.249
1257.748
1255.505
1253.101
1250.532
1247.796
1244.893
1242.071
1259.841
1257.755
1255.522
1253.13
1250.57
1247.813
1244.846
1241.838
1261.788
1259.846
1257.769
1255.546
1253.168
1250.613
1247.823
1244.783
1241.536
1263.605
1261.792
1259.856
1257.787
1255.575
1253.222
1250.645
1247.829
1244.702
1241.165
1265.305
1263.608
1261.8
1259.868
1257.798
1255.532
1252.933
1249.69
1244.697
1234.677
1199.108
1266.898
1265.307
1263.614
1261.807
1259.871
1257.665
1255.083
1251.895
1247.013
1237.235
1214.351
1143.885
1268.395
1266.9
1265.311
1263.618
1261.807
1259.693
1257.224
1254.404
1250.641
1244.198
1230.611
1200.221
1119.361
1269.801
1268.396
1266.904
1265.315
1263.618
1261.607
1259.266
1256.747
1253.831
1249.758
1242.604
1228.119
1198.923
1129.714
1271.126
1269.803
1268.399
1266.907
1265.316
1263.416
1261.208
1258.914
1256.491
1253.697
1249.82
1243.322
1231.474
1211.375
1172.944
1272.373
1271.127
1269.806
1268.403
1266.909
1265.128
1263.067
1260.956
1258.823
1256.632
1254.199
1251.044
1246.373
1239.415
1232.088
1212.612
1273.548
1272.375
1271.131
1269.811
1268.407
1266.752
1264.853
1262.914
1260.978
1259.075
1257.196
1255.266
1253.11
1250.662
1248.754
1244.46
1220.915
1274.655
1273.55
1272.38
1271.138
1269.818
1268.293
1266.571
1264.804
1263.031
1261.285
1259.604
1258.018
1256.566
1255.351
1254.825
1253.463
1247.248
1229.794
1275.698
1274.658
1273.556
1272.388
1271.147
1269.757
1268.223
1266.631
1265.006
1263.37
1261.751
1260.191
1258.76
1257.618
1257.157
1256.533
1253.964
1249.597
1238.18
1276.679
1275.701
1274.664
1273.566
1272.401
1271.151
1269.804
1268.386
1266.901
1265.355
1263.754
1262.111
1260.456
1258.895
1257.827
1257.49
1255.868
1254.057
1251.338
1245.009
1277.602
1276.683
1275.708
1274.675
1273.585
1272.441
1271.217
1269.919
1268.544
1267.086
1265.538
1263.895
1262.148
1260.289
1258.306
1256.981
1256.181
1255.283
1254.263
1252.821
1248.744
1278.468
1277.606
1276.69
1275.72
1274.696
1273.614
1272.46
1271.237
1269.941
1268.569
1267.113
1265.57
1263.93
1262.186
1260.326
1258.826
1257.826
1256.899
1256.069
1255.329
1253.738
1250.263
1279.28
1278.472
1277.613
1276.702
1275.739
1274.719
1273.631
1272.478
1271.257
1269.964
1268.594
1267.141
1265.599
1263.96
1262.216
1260.749
1259.689
1258.708
1257.846
1257.147
1255.945
1253.869
1251.17
1280.04
1279.284
1278.479
1277.624
1276.72
1275.759
1274.734
1273.648
1272.497
1271.278
1269.986
1268.618
1267.167
1265.626
1263.988
1262.584
1261.523
1260.524
1259.624
1258.872
1257.719
1255.946
1253.986
1251.7
1280.748
1280.043
1279.29
1278.49
1277.641
1276.738
1275.773
1274.75
1273.665
1272.516
1271.298
1270.009
1268.642
1267.192
1265.652
1264.318
1263.281
1262.288
1261.37
1260.57
1259.416
1257.746
1255.994
1254.092
1251.992
1257.749
1255.506
1253.103
1250.535
1247.799
1244.9
1242.111
1259.842
1257.757
1255.525
1253.135
1250.577
1247.82
1244.864
1241.936
1261.789
1259.848
1257.773
1255.553
1253.179
1250.62
1247.833
1244.818
1241.711
1263.607
1261.794
1259.86
1257.795
1255.591
1253.228
1250.652
1247.846
1244.761
1241.429
1265.307
1263.61
1261.804
1259.877
1257.822
1255.642
1253.266
1250.686
1247.855
1244.691
1241.096
1266.9
1265.309
1263.617
1261.814
1259.887
1257.792
1255.47
1252.825
1249.485
1244.361
1234.567
1200.483
1268.395
1266.902
1265.314
1263.623
1261.817
1259.773
1257.459
1254.872
1251.648
1246.727
1237.345
1217.031
1153.955
1269.802
1268.397
1266.905
1265.318
1263.624
1261.655
1259.401
1256.984
1254.236
1250.581
1244.555
1232.854
1209.161
1145.76
1271.126
1269.803
1268.4
1266.908
1265.318
1263.438
1261.27
1259.013
1256.632
1253.916
1250.237
1244.242
1233.476
1215.042
1177.15
1272.373
1271.127
1269.806
1268.403
1266.909
1265.128
1263.067
1260.956
1258.823
1256.632
1254.199
1251.044
1246.373
1239.415
1232.088
1212.612
1273.548
1272.375
1271.131
1269.81
1268.405
1266.732
1264.8
1262.832
1260.879
1258.971
1257.094
1255.156
1252.945
1250.358
1248.308
1243.756
1218.99
1274.655
1273.55
1272.378
1271.135
1269.814
1268.256
1266.472
1264.654
1262.85
1261.107
1259.464
1257.95
1256.584
1255.424
1254.921
1253.398
1246.296
1226.633
1275.697
1274.657
1273.554
1272.384
1271.141
1269.706
1268.085
1266.425
1264.761
1263.132
1261.581
1260.164
1258.958
1258.098
1257.877
1257.166
1254.227
1248.834
1234.626
1276.679
1275.7
1274.662
1273.562
1272.393
1271.084
1269.639
1268.141
1266.613
1265.076
1263.561
1262.107
1260.79
1259.758
1259.341
1258.828
1257.03
1254.767
1251.02
1242.003
1277.601
1276.682
1275.706
1274.671
1273.575
1272.396
1271.128
1269.792
1268.394
1266.941
1265.437
1263.895
1262.346
1260.882
1259.86
1259.496
1258.059
1256.66
1255.097
1252.791
1246.548
1278.468
1277.605
1276.688
1275.717
1274.69
1273.612
1272.459
1271.236
1269.941
1268.568
1267.113
1265.571
1263.933
1262.193
1260.343
1259.082
1258.287
1257.429
1256.56
1255.655
1253.685
1248.873
1279.28
1278.471
1277.611
1276.7
1275.736
1274.717
1273.63
1272.477
1271.257
1269.964
1268.594
1267.142
1265.602
1263.967
1262.227
1260.808
1259.827
1258.904
1258.07
1257.362
1256.101
1253.835
1250.381
1280.039
1279.283
1278.478
1277.623
1276.718
1275.758
1274.733
1273.647
1272.496
1271.278
1269.987
1268.619
1267.169
1265.63
1263.994
1262.606
1261.576
1260.603
1259.724
1258.983
1257.827
1256.03
1253.967
1251.285
1280.748
1280.042
1279.29
1278.489
1277.64
1276.737
1275.773
1274.749
1273.665
1272.516
1271.299
1270.009
1268.643
1267.194
1265.655
1264.327
1263.3
1262.317
1261.408
1260.615
1259.464
1257.793
1256.031
1254.085
1251.814
1281.406
1280.751
1280.049
1279.3
1278.505
1277.657
1276.75
1275.787
1274.765
1273.682
1272.535
1271.319
1270.032
1268.666
1267.218
1265.955
1264.955
1263.984
1263.067
1262.24
1261.088
1259.48
1257.819
1256.079
1254.191
1252.099
1259.842
1257.758
1255.526
1253.137
1250.58
1247.823
1244.873
1241.984
1261.79
1259.85
1257.775
1255.557
1253.185
1250.625
1247.841
1244.841
1241.823
1263.608
1261.796
1259.864
1257.801
1255.6
1253.234
1250.658
1247.858
1244.802
1241.616
1265.308
1263.612
1261.807
1259.884
1257.836
1255.648
1253.27
1250.693
1247.875
1244.755
1241.365
1266.901
1265.311
1263.621
1261.822
1259.908
1257.883
1255.685
1253.311
1250.731
1247.891
1244.705
1241.082
1268.397
1266.903