/*--------------------------------*- C++ -*----------------------------------*\
| =========                 |                                                 |
| \\      /  F ield         | OpenFOAM: The Open Source CFD Toolbox           |
|  \\    /   O peration     | Version:  2306                                  |
|   \\  /    A nd           | Website:  www.openfoam.com                      |
|    \\/     M anipulation  |                                                 |
\*---------------------------------------------------------------------------*/
FoamFile
{
    version     2.0;
    format      ascii;
    arch        "LSB;label=32;scalar=64";
    class       volVectorField;
    location    "0.3/phiEC";
    object      i;
}
// * * * * * * * * * * * * * * * * * * * * * * * * * * * * * * * * * * * * * //

dimensions      [0 -2 0 0 0 1 0];

internalField   nonuniform List<vector> 
20000
(
(28.64727 72.6111 15757.99)
(28.33773 212.3404 15601.72)
(68.14122 69.5157 15175.29)
(87.892 239.9286 16406.38)
(27.74171 335.2301 15299.45)
(67.43584 203.2848 15025.72)
(86.86223 704.7418 16208.76)
(78.4134 65.55732 14375.21)
(208.414 229.6309 15782.28)
(153.4663 467.834 17870.17)
(26.9071 429.2927 14873.32)
(66.07792 320.9238 14736.41)
(84.86533 1121.571 15817.4)
(77.64733 191.7075 14234.17)
(206.0731 674.4751 15593.27)
(151.4358 1390.288 17615.43)
(73.41936 61.85498 13588.65)
(238.9151 216.5197 14938.83)
(361.6513 447.5292 17154.07)
(231.1124 749.4062 20381.57)
(25.90826 482.9009 14359.59)
(64.17702 410.9582 14328.58)
(82.04004 1450.429 15245.51)
(76.17296 302.6419 13961.38)
(201.5353 1073.35 15218.99)
(147.4249 2261.732 17081.4)
(72.73002 180.8804 13455.58)
(236.3803 635.955 14760.67)
(357.0542 1329.875 16910.64)
(227.8211 2282.296 20167.49)
(64.26379 58.66386 12892.21)
(223.1819 204.2828 14117.32)
(411.4055 421.8629 16214.17)
(539.6142 716.4928 19508.54)
(328.0728 895.9849 23784.19)
(24.84349 487.5307 13809.15)
(61.90268 462.2648 13836.94)
(78.62134 1645.442 14527.33)
(74.10977 387.5403 13576.84)
(195.1183 1387.989 14672.12)
(141.5867 3009.436 16225.83)
(71.40348 285.5483 13198.2)
(231.4687 1012.023 14407.89)
(347.9794 2163.24 16400.39)
(221.066 3900.787 19658.75)
(63.67254 171.5487 12766)
(220.9044 600.011 13949.25)
(406.4519 1253.57 15984.83)
(532.1945 2181.832 19304.11)
(324.1121 2835.919 23932.75)
(55.51123 55.94243 12291.63)
(195.1403 193.7444 13393.19)
(382.5469 397.993 15314.37)
(606.8548 675.2092 18405.29)
(756.9063 856.3782 22689.91)
(419.4945 563.2143 26246.94)
(23.82445 441.3102 13282.41)
(59.47865 466.6926 13310.18)
(74.94964 1666.827 13734.3)
(71.64211 435.9172 13113.29)
(187.3571 1574.538 13985.44)
(134.2867 3505.337 15016.15)
(69.5475 365.6497 12835.4)
(224.527 1308.646 13892.49)
(334.7827 2878.053 15583.13)
(210.5794 5580.914 18648.27)
(62.53482 270.8168 12521.9)
(216.4922 954.8167 13616.45)
(396.6811 2039.017 15504.15)
(516.9855 3728.37 18818.47)
(315.4814 5300.189 24276.72)
(55.0044 163.5906 12171.28)
(193.1879 569.058 13233.79)
(378.107 1182.631 15098.03)
(598.9015 2056.009 18212.77)
(747.9989 2710.005 22831.57)
(417.0708 1681.907 26682.65)
(48.30148 53.59556 11772.15)
(168.4993 184.7591 12769.79)
(333.7703 377.4639 14527.74)
(560.4683 636.9597 17372.25)
(838.6624 806.9105 21363.7)
(957.0101 538.9773 24973.6)
(485.8807 349.3456 27250.03)
(22.95763 349.8926 12835.76)
(57.15866 422.4515 12806.1)
(71.43705 1505.473 12981.12)
(69.01252 440.0904 12616.63)
(179.0238 1594.984 13227.25)
(126.2524 3579.947 13520.29)
(67.32802 411.2923 12398.05)
(216.1361 1484.497 13245.35)
(318.2981 3351.994 14427.9)
(196.2716 7056.526 16673.28)
(60.9431 346.7857 12177.81)
(210.2582 1234.663 13130.22)
(382.4884 2712.623 14734.33)
(493.4184 5332.971 17854.25)
(300.3895 8980.376 24960.43)
(54.02915 258.254 11938.5)
(189.4059 905.5603 12918.15)
(369.3529 1923.606 14644.62)
(582.6228 3513.025 17755.48)
(728.635 5062.963 23159.78)
(412.2105 2709.105 27693.4)
(47.86113 156.7278 11656.85)
(166.8259 542.6671 12617.78)
(329.9676 1121.63 14322.56)
(553.3583 1939.512 17190.66)
(829.1426 2553.205 21497.02)
(951.504 1609.067 25388.87)
(484.4768 1004.788 27634.38)
(42.58749 51.53894 11317.09)
(146.606 177.0105 12230.79)
(287.991 359.9664 13852.62)
(487.491 604.1101 16478.56)
(767.8929 761.1795 20150.93)
(1045.654 508.1532 23478.94)
(1100.407 335.3071 25872.55)
(557.2431 178.8664 27882.56)
(22.3299 224.0596 12513.49)
(55.18493 334.947 12378.65)
(68.46406 1187.937 12356.47)
(66.49576 398.373 12141.36)
(171.0509 1440.617 12507.14)
(118.6216 3196.961 12184.71)
(64.96314 415.2291 11929.47)
(207.1296 1503.764 12530.86)
(300.1662 3423.297 12999.61)
(179.0847 7329.723 12685.95)
(59.03977 390.0736 11763.03)
(202.7247 1400.564 12519.75)
(364.7802 3159.172 13646.29)
(461.3294 6741.579 15970.35)
(274.873 15429.97 26407.95)
(52.66475 330.6992 11610.37)
(184.0628 1170.97 12457)
(356.6437 2559.044 13918.5)
(557.4533 5024.354 16847.71)
(694.8938 8574.293 23812.59)
(405.2091 3233.939 29633.88)
(47.0138 247.4203 11433.84)
(163.5844 863.5653 12316.76)
(322.4709 1824.384 13892.53)
(538.8161 3313.888 16759.35)
(808.5056 4769.138 21806.02)
(940.5023 2590.488 26352.65)
(481.7991 1485.265 28428.9)
(42.1989 150.7138 11206.21)
(145.1521 519.9089 12085.15)
(284.7324 1069.638 13656.94)
(481.4072 1839.487 16306.33)
(759.3955 2408.437 20276.64)
(1039.701 1516.828 23869.67)
(1097.132 963.9724 26237.89)
(556.7197 503.0417 28189.91)
(38.05138 49.70968 10912.87)
(129.2697 170.2198 11758.58)
(250.5439 344.8775 13269.32)
(420.184 576.1216 15714.5)
(665.3201 721.9364 19113.15)
(949.9076 479.4555 22135.75)
(1191.444 316.5918 24296.98)
(1252.315 173.6325 26408.13)
(633.323 41.99717 28222.48)
(22.00099 77.05557 12345.1)
(53.75531 214.4932 12070.23)
(66.32375 757.2455 11915.74)
(64.35423 315.8591 11738.33)
(164.3006 1136.804 11909.84)
(112.2834 2480.649 11159.35)
(62.69969 375.8686 11481.06)
(198.5117 1358.242 11852.22)
(282.9384 3057.271 11724.13)
(163.5529 6227.338 10165.8)
(57.01181 393.8072 11318.62)
(194.6397 1418.739 11845.73)
(345.3164 3226.35 12301.19)
(422.8429 7002.535 12167.85)
(229.8725 16594.91 6003.59)
(51.03326 371.9793 11214.82)
(177.6065 1328.313 11878.02)
(340.7953 2980.274 12892.25)
(523.2658 6350.771 15074.4)
(638.0757 14724.8 25194.94)
(397.8723 1643.527 33238.63)
(45.82837 316.8268 11119.47)
(159.005 1116.669 11876.99)
(311.5894 2427.047 13203.85)
(516.3543 4739.401 15903.21)
(772.696 8074.784 22420.8)
(924.7319 3090.556 28203.84)
(478.3333 1519.662 29635.37)
(41.45117 237.9264 10991.75)
(142.3357 827.3508 11796.75)
(278.3084 1739.823 13246.82)
(468.9667 3142.985 15897.25)
(740.9989 4498.497 20568.02)
(1027.857 2441.384 24776.72)
(1090.925 1423.83 26993.8)
(555.7206 708.1211 28766.8)
(37.70368 145.3646 10805.92)
(127.9866 499.964 11618.52)
(247.7125 1024.803 13081.83)
(414.9716 1754.269 15550.23)
(658.0528 2284.265 19232.35)
(944.5687 1431.102 22504.16)
(1187.799 909.9637 24640.31)
(1250.912 487.8166 26698.37)
(633.6308 120.5436 28490.8)
(34.38952 48.06198 10549.29)
(115.5099 164.1795 11339.02)
(220.9413 331.6527 12758.18)
(365.4935 551.9858 15054.91)
(572.7221 688.5061 18229.29)
(820.1948 454.7639 20995.29)
(1076.929 298.8644 22899.75)
(1342.934 164.8324 24769.93)
(1411.671 45.07451 26655.13)
(713.9782 -89.45493 28309.75)
(22.00099 -77.05557 12345.1)
(53.00614 73.76651 11909.06)
(65.20721 259.7269 11688.98)
(62.80272 202.2717 11447.52)
(159.4393 724.677 11488.37)
(107.8038 1559.042 10479.24)
(60.77356 298.0167 11100.81)
(191.2126 1071.821 11289.31)
(268.6178 2372.471 10744.68)
(151.398 4598.865 8597.859)
(55.07084 356.4772 10893.35)
(186.9032 1281.447 11205.54)
(326.8146 2881.477 11099.89)
(388.0145 5950.471 9763.496)
(199.0826 11373.14 4354.164)
(49.29496 375.5398 10791.02)
(170.6781 1345.55 11238.77)
(323.3815 3043.64 11623.57)
(482.3382 6596.573 11495.49)
(538.2582 15837.01 5749.65)
(44.41088 356.3756 10740.5)
(153.4716 1266.717 11324.83)
(298.0227 2826.55 12230.52)
(485.8792 5990.427 14230.83)
(712.6843 13863.61 23722.77)
(908.2919 1570.158 31643.48)
(475.3881 689.8385 30992.59)
(40.40507 304.6699 10689.44)
(138.3568 1069.843 11375.41)
(268.9843 2314.562 12590.02)
(449.7583 4494.985 15085.24)
(709.138 7616.079 21147.85)
(1010.975 2911.835 26519.35)
(1082.96 1455.551 28142.88)
(554.4574 670.2446 29501.01)
(37.03463 229.4819 10599.07)
(125.5011 795.6129 11341.18)
(242.1309 1666.903 12688.88)
(404.3136 2997.399 15160.07)
(642.3265 4266.563 19508.68)
(933.9638 2303.227 23359.47)
(1180.941 1343.544 25350.95)
(1248.297 685.498 27243.85)
(634.0947 174.1593 28962.62)
(34.07485 140.5463 10445.89)
(114.3618 482.2229 11203.93)
(218.4423 985.5074 12577.88)
(360.9643 1680.782 14897.51)
(566.4961 2178.5 18342.96)
(815.6203 1357.39 21344.65)
(1073.622 858.9461 23223.31)
(1341.16 462.8615 25041.81)
(1411.942 128.2606 26905.25)
(715.2751 -237.101 28604.05)
(31.3678 46.56301 10218.91)
(104.4016 158.7385 10961.56)
(197.455 319.888 12303.85)
(322.3639 530.8295 14476.73)
(498.0976 659.6762 17466.84)
(705.2645 433.7107 20026.49)
(927.8712 283.5144 21720.02)
(1207.604 155.8967 23338.01)
(1498.457 44.70982 24968.92)
(1577.671 -76.48619 26653.19)
(798.9792 -252.3005 28119.29)
(22.3299 -224.0596 12513.49)
(53.00614 -73.76651 11909.06)
(65.20721 -259.7269 11688.98)
(61.98953 69.56384 11295.56)
(156.9026 248.5615 11271.5)
(105.496 530.585 10142.5)
(59.37795 190.8461 10826.44)
(185.9538 683.2651 10892.08)
(258.4888 1491.168 10094.89)
(143.1933 2790.959 7684.645)
(53.41907 282.6416 10532.71)
(180.3495 1011.226 10674.51)
(311.421 2236.153 10177.31)
(360.7101 4395.269 8267.023)
(178.4508 7442.961 3430.688)
(47.63122 339.9412 10385.47)
(164.0481 1215.34 10631.6)
(306.8249 2718.318 10490.49)
(445.2392 5606.01 9232.076)
(469.6834 10858.92 4176.516)
(42.90059 359.7868 10334.48)
(147.5337 1283.155 10715.2)
(283.1178 2886.647 11027.25)
(449.4273 6222.27 10855.72)
(607.742 14910.99 5426.514)
(39.15417 342.7015 10325.02)
(133.5492 1213.6 10846.38)
(257.3599 2695.558 11661.75)
(423.7075 5681.502 13499.06)
(655.8615 13075.26 22375.86)
(993.4829 1479.126 29757.63)
(1076.248 660.3863 29436.74)
(553.4579 286.2987 30119.34)
(36.0986 293.8568 10307.49)
(121.9897 1028.804 10935.99)
(234.0292 2217.562 12059.58)
(387.8587 4286.809 14385.62)
(615.1087 7223.411 20058.56)
(918.8868 2746.815 25002.85)
(1172.222 1372.893 26431.8)
(1245.088 647.6181 27939.34)
(634.5005 167.1232 29498.16)
(33.46935 221.8756 10245.89)
(112.1377 767.3816 10936.43)
(213.5159 1602.99 12199.98)
(351.7032 2871.855 14523.67)
(553.0247 4069.056 18606.47)
(806.5398 2184.565 22155.78)
(1067.414 1268.055 23893.16)
(1337.921 649.8854 25553.12)
(1412.293 182.8569 27345.56)
(717.427 -299.2377 29110.89)
(31.08047 136.1629 10118.74)
(103.3625 466.2419 10830.94)
(195.2187 950.5498 12129.93)
(318.366 1616.366 14325.36)
(492.6873 2087.291 17575.75)
(701.3431 1294.552 20359.67)
(925.0245 814.8145 22026.81)
(1205.918 437.6941 23593.96)
(1498.241 126.7667 25201.79)
(1579.812 -202.6133 26923.11)
(801.7245 -680.5999 28521.56)
(28.82102 45.18862 9916.278)
(95.23375 153.7884 10618.51)
(178.4926 309.2897 11894.91)
(288.1643 512.007 13962.51)
(439.4209 634.4028 16798.23)
(613.3032 415.5498 19191.14)
(797.3179 270.3981 20719.6)
(1038.209 147.9713 22136.16)
(1340.306 42.91491 23518.01)
(1656.645 -68.03565 24932.7)
(1749.376 -224.8469 26381.97)
(887.7104 -491.7222 27543.94)
(22.95763 -349.8926 12835.76)
(53.75531 -214.4932 12070.23)
(66.32375 -757.2455 11915.74)
(61.98953 -69.56383 11295.56)
(156.9026 -248.5615 11271.5)
(105.496 -530.585 10142.5)
(58.6464 65.63454 10683.07)
(183.2089 234.3599 10687.67)
(253.2678 507.5074 9773.119)
(139.0826 933.2167 7263.809)
(52.22221 181.0001 10272.5)
(175.6268 644.6395 10299.77)
(300.5232 1405.543 9565.179)
(342.2518 2667.805 7395.164)
(165.6999 4227.144 2932.116)
(46.21537 269.5304 10041.56)
(158.4315 959.058 10127.95)
(293.0439 2109.557 9620.278)
(416.0937 4141.238 7823.069)
(423.5758 7109.134 3295.424)
(41.45508 325.6814 9945.933)
(141.8516 1158.982 10136.17)
(268.9456 2578.101 9952.603)
(416.3601 5288.026 8721.1)
(535.2939 10226.32 3945.82)
(37.82138 345.9818 9934.568)
(128.39 1229.349 10262.3)
(244.5893 2752.87 10514.17)
(392.557 5901.382 10297.93)
(562.893 14063.11 5122.632)
(34.97933 330.5388 9955.996)
(117.7468 1167.049 10427.24)
(223.9289 2582.599 11170.16)
(365.5442 5418.414 12872.79)
(569.6311 12401.16 21223.23)
(903.3067 1395.235 28056.88)
(1164.943 622.7214 27649.37)
(1242.614 276.3041 28526.16)
(634.7059 71.51028 29880.35)
(32.62224 284.1169 9963.972)
(108.9956 992.2995 10545.61)
(206.3653 2132.543 11594.78)
(337.4049 4107.292 13781.59)
(529.7132 6889.125 19130.87)
(793.642 2605.265 23714.35)
(1059.554 1295.574 24912.16)
(1334.047 613.4186 26205.64)
(1412.498 173.2346 27846.19)
(719.6541 -247.4826 29665.17)
(30.52756 214.9557 9924.979)
(101.3496 741.951 10572.3)
(190.81 1546.132 11765.43)
(310.1912 2761.805 13965.82)
(480.9807 3898.734 17828.21)
(693.5605 2083.444 21133.23)
(919.6883 1202.867 22661.98)
(1202.86 614.3714 24075.42)
(1497.784 179.717 25611.97)
(1583.362 -255.4472 27388.11)
(806.3731 -886.9643 29228.96)
(28.55679 132.1439 9819.059)
(94.28486 451.7027 10491.96)
(176.4684 919.0576 11726.75)
(284.5862 1559.055 13816.5)
(434.6448 2007.332 16902.96)
(609.895 1240.35 19510.36)
(794.8741 777.1171 21012.17)
(1036.734 415.4226 22378.77)
(1339.926 121.5331 23736.76)
(1658.008 -180.1842 25182.08)
(1754.139 -606.66 26746.5)
(892.781 -1346.773 28151.68)
(26.63436 43.92069 9637.279)
(87.50557 149.2495 10304.21)
(162.8377 299.6469 11523.12)
(260.5477 495.049 13499.4)
(392.9224 611.9154 16203.19)
(541.1765 399.6289 18458.32)
(693.3167 259.0764 19857.17)
(891.5495 141.1448 21118.77)
(1149.795 40.90853 22307.85)
(1473.712 -62.85321 23476.87)
(1816.089 -204.6712 24644.45)
(1925.155 -441.0157 25746.22)
(978.7507 -860.0445 26378.82)
(23.82445 -441.3102 13282.41)
(55.18493 -334.947 12378.65)
(68.46406 -1187.937 12356.47)
(62.80272 -202.2717 11447.52)
(159.4393 -724.677 11488.37)
(107.8038 -1559.042 10479.24)
(58.6464 -65.63454 10683.07)
(183.2089 -234.3598 10687.67)
(253.2678 -507.5074 9773.119)
(139.0826 -933.2167 7263.809)
(51.59482 62.24833 10136.52)
(173.1613 221.1119 10106.94)
(294.9025 478.3756 9262.036)
(332.9948 892.11 6993.306)
(159.5966 1372.258 2712.596)
(45.18945 172.6037 9793.413)
(154.3838 611.383 9772.549)
(283.2836 1325.983 9042.886)
(396.3553 2513.805 7002.05)
(395.0078 4038.602 2819.583)
(40.22495 258.2239 9616.446)
(137.0379 914.5826 9655.865)
(257.1476 2000.739 9127.27)
(390.3566 3906.431 7392.213)
(486.3829 6696.205 3116.36)
(36.54576 313.1849 9560.929)
(123.4531 1110.382 9707.522)
(232.4463 2458.616 9489.271)
(364.2916 5015.303 8273.361)
(498.568 9645.332 3726.242)
(33.78677 333.7027 9579.402)
(113.1937 1182.194 9865.543)
(212.8325 2637.51 10070.6)
(338.8632 5628.11 9819.666)
(490.3287 13338.05 4859.185)
(31.60927 319.5832 9624.125)
(105.1989 1125.64 10054.9)
(197.4504 2483.591 10739.42)
(318.0147 5191.547 12332.02)
(490.7694 11827.46 20241.61)
(780.3267 1323.325 26610.88)
(1053.018 587.6001 26060.25)
(1331.131 261.5624 26756.69)
(1412.514 73.56381 28204.18)
(721.0752 -95.89099 30040.31)
(29.75401 275.256 9651.851)
(98.50578 959.416 10194.43)
(184.4107 2056.907 11181.68)
(297.5696 3949.923 13252.15)
(460.7231 6600.858 18330.65)
(682.509 2484.685 22619.64)
(912.9404 1228.93 23628.31)
(1199.236 579.7173 24690.03)
(1497.153 169.3287 26078.74)
(1587.03 -211.0003 27896.85)
(811.3332 -762.2897 30029.01)
(28.04834 208.6111 9631.02)
(92.44671 718.8144 10241.38)
(172.478 1494.91 11374.32)
(277.2697 2663.89 13469.69)
(424.3103 3749.414 17145.75)
(603.1311 1996.224 20251.54)
(790.2944 1147.213 21617.9)
(1034.065 583.0627 22835.16)
(1339.211 171.977 24122.16)
(1660.261 -227.0667 25611.78)
(1762.204 -790.878 27387.46)
(901.5771 -1806.691 29272.8)
(26.39002 128.4361 9542.788)
(86.63295 438.3715 10181.4)
(160.9892 890.4045 11360.2)
(257.3088 1507.42 13358.22)
(388.6475 1936.185 16304.2)
(538.1679 1192.832 18765.31)
(691.192 744.5804 20137.48)
(890.2761 396.2533 21350.1)
(1149.41 115.8109 22515.06)
(1474.591 -166.4485 23710.5)
(1819.502 -552.3141 24979.36)
(1934.033 -1208.106 26293.37)
(987.5552 -2409.466 27287.01)
(24.72799 42.74524 9378.76)
(80.86923 145.0622 10014.43)
(149.6369 290.8049 11182.39)
(237.7374 479.6186 13078.14)
(355.3658 591.6539 15666.94)
(484.0474 385.4634 17805.81)
(611.8722 249.1504 19100.34)
(775.2295 135.2378 20241.83)
(986.751 39.06336 21285.19)
(1261.491 -59.24114 22270.46)
(1606.53 -190.7167 23199.59)
(1974.883 -402.9442 24018.36)
(2101.933 -771.9995 24562.62)
(1069.33 -1399.915 24323.67)
(24.84349 -487.5307 13809.15)
(57.15866 -422.4515 12806.1)
(71.43705 -1505.473 12981.12)
(64.35423 -315.8591 11738.33)
(164.3006 -1136.804 11909.84)
(112.2834 -2480.649 11159.35)
(59.37795 -190.8461 10826.44)
(185.9538 -683.2651 10892.08)
(258.4888 -1491.168 10094.89)
(143.1933 -2790.959 7684.645)
(51.59482 -62.24833 10136.52)
(173.1613 -221.1119 10106.94)
(294.9025 -478.3756 9262.036)
(332.9948 -892.1099 6993.306)
(159.5966 -1372.258 2712.596)
(44.65167 59.36067 9663.743)
(152.2706 209.7048 9589.663)
(278.248 451.3 8756.94)
(386.4447 840.6463 6623.588)
(381.312 1311.225 2610.026)
(39.3336 165.363 9378.706)
(133.5687 583.0298 9316.931)
(248.7904 1257.583 8579.656)
(372.7313 2371.316 6617.854)
(455.9854 3804.506 2668.337)
(35.46021 248.3156 9244.081)
(119.2707 876.2295 9247.346)
(222.3372 1908.005 8702.152)
(342.0567 3704.95 7012.993)
(455.0592 6316.049 2943.979)
(32.64537 302.0697 9219.021)
(108.8367 1067.789 9332.036)
(202.2816 2355.58 9088.6)
(314.6521 4783.023 7888.736)
(435.4183 9147.979 3534.78)
(30.52998 322.6423 9260.011)
(101.1246 1140.248 9513.121)
(187.6562 2536.396 9681.973)
(294.83 5392.462 9406.523)
(422.871 12720.98 4633.773)
(28.82902 309.6162 9322.602)
(95.06952 1088.339 9719.978)
(176.4324 2395.509 10356.63)
(280.4525 4992.665 11858.03)
(426.8802 11332.74 19394.88)
(671.103 1262.082 25382.14)
(907.3378 557.3631 24717.12)
(1196.531 247.1432 25209.25)
(1496.634 71.66851 26412.84)
(1589.365 -81.68022 28241.32)
(814.6042 -303.6247 30593.39)
(27.33699 267.1316 9365.953)
(89.84978 929.4988 9875.288)
(166.6858 1988.767 10809.9)
(265.9728 3809.904 12781.29)
(406.4258 6348.119 17628.92)
(593.5266 2380.69 21675.74)
(784.5059 1172.068 22539.46)
(1030.912 550.127 23417.84)
(1338.333 161.7396 24560.87)
(1662.58 -187.4527 26082.03)
(1770.811 -679.9789 28112.22)
(911.333 -1611.91 30647.69)
(25.91985 202.7578 9360.025)
(84.94256 697.6002 9938.215)
(157.345 1448.306 11018.75)
(250.6858 2575.671 13022.89)
(379.3972 3616.545 16538.38)
(532.1968 1919.76 19478.1)
(687.2105 1099.186 20717.85)
(887.9742 556.1482 21785.31)
(1148.699 163.7904 22880.16)
(1476.042 -209.7316 24113.1)
(1825.285 -720.2365 25568.26)
(1949.432 -1621.171 27302.79)
(1003.374 -3382.971 29082.58)
(24.50103 124.9988 9286.797)
(80.06229 426.0726 9895.062)
(147.937 864.1308 11024.28)
(234.7794 1460.437 12941.36)
(351.496 1872.079 15764.6)
(481.3546 1150.552 18101.92)
(609.9965 716.0546 19369.91)
(774.1208 379.6697 20463.47)
(986.4037 110.5771 21482.75)
(1262.136 -156.8829 22491.59)
(1608.975 -514.7008 23512.73)
(1981.385 -1103.997 24519.63)
(2117.344 -2163.231 25377.14)
(1083.768 -4050.537 25554.06)
(23.04469 41.65111 9138.225)
(75.08288 141.1802 9745.891)
(138.2978 282.6474 10868.18)
(218.4936 465.469 12691.95)
(324.3264 573.2167 15178.91)
(437.8936 372.7006 17217.49)
(547.3805 240.3191 18426.19)
(684.2742 130.0574 19471.96)
(857.9974 37.43573 20403.78)
(1081.957 -56.40733 21252.65)
(1372.216 -180.2235 22010.04)
(1737.152 -375.9949 22606.62)
(2130.049 -705.9414 22887.84)
(2274.252 -1255.531 22563.1)
(1154.808 -2090.438 41045.1)
(25.90826 -482.9009 14359.59)
(59.47865 -466.6926 13310.18)
(74.94964 -1666.827 13734.3)
(66.49576 -398.373 12141.36)
(171.0509 -1440.617 12507.14)
(118.6216 -3196.961 12184.71)
(60.77356 -298.0167 11100.81)
(191.2126 -1071.821 11289.31)
(268.6178 -2372.471 10744.68)
(151.398 -4598.865 8597.859)
(52.22221 -181.0001 10272.5)
(175.6268 -644.6395 10299.77)
(300.5232 -1405.543 9565.179)
(342.2518 -2667.805 7395.164)
(165.6999 -4227.143 2932.116)
(44.65167 -59.36066 9663.743)
(152.2706 -209.7048 9589.663)
(278.248 -451.3 8756.94)
(386.4447 -840.6463 6623.588)
(381.312 -1311.225 2610.026)
(38.86636 56.87047 9254.474)
(131.7575 199.9794 9142.522)
(244.4782 428.0196 8308.458)
(363.8768 793.004 6260.892)
(441.3853 1235.3 2471.01)
(34.67362 159.0177 9015.462)
(116.2565 558.5795 8922.616)
(215.1761 1199.29 8179.898)
(326.9814 2249.006 6278.563)
(427.9809 3588.627 2521.433)
(31.67405 239.5025 8913.417)
(105.1456 842.6173 8889.501)
(193.4979 1828.037 8334.433)
(295.6053 3533.329 6686.683)
(398.2537 5990.334 2792.847)
(29.497 292.0576 8911.573)
(97.22576 1029.901 8998.533)
(178.3436 2265.27 8737.577)
(273.7918 4582.724 7556.343)
(375.8499 8724.582 3370.609)
(27.84346 312.58 8969.842)
(91.38194 1102.462 9196.141)
(167.6671 2446.442 9336.647)
(259.9851 5185.881 9044.461)
(367.8734 12188.86 4439.147)
(26.48637 300.4777 9046.421)
(86.71182 1054.402 9415.628)
(159.4642 2316.155 10012.16)
(250.6518 4815.703 11436.54)
(376.5456 10898.96 18652.38)
(583.6142 1209.265 24322.67)
(779.702 531.574 23577.86)
(1028.566 234.5156 23910.14)
(1337.673 68.38085 24874.99)
(1664.05 -72.53452 26400.56)
(1776.489 -270.914 28623.37)
(918.0776 -660.2701 31730.55)
(25.26206 259.6364 9102.394)
(82.55438 902.0671 9582.921)
(152.0553 1926.768 10471.91)
(240.4594 3683.745 12357.26)
(363.3879 6123.21 17004.42)
(523.7176 2289.515 20847.77)
(682.1784 1123.006 21600.83)
(885.2571 524.7235 22340.95)
(1147.849 153.9579 23295.8)
(1477.53 -173.1146 24553.76)
(1831.461 -619.4462 26234.19)
(1966.511 -1446.906 28540.83)
(1022.019 -3220.04 31579.45)
(24.0643 197.3314 9108.925)
(78.49913 678.0287 9658.698)
(144.5855 1405.571 10692.9)
(228.7306 2495.397 12616.47)
(343.1218 3496.818 15991.02)
(476.0101 1851.722 18789.44)
(606.4817 1057.078 19928.05)
(772.1168 532.8727 20880.44)
(985.7667 156.3662 21830.83)
(1263.198 -197.6776 22872.67)
(1613.122 -671.2874 24063.4)
(1992.668 -1481.902 25444.57)
(2145.027 -3038.333 26988.39)
(1110.996 -6099.134 28212)
(22.83311 121.7993 9048.616)
(74.33333 414.6705 9629.722)
(136.7258 839.8907 10714.5)
(215.7732 1417.352 12559.2)
(320.7919 1813.744 15273.53)
(435.456 1112.459 17503.8)
(545.7018 690.6745 18686.21)
(683.2953 365.1263 19685.11)
(857.6915 105.9677 20593.04)
(1082.478 -149.3805 21463.43)
(1374.116 -486.4032 22306.26)
(1741.901 -1030.258 23074.84)
(2141.355 -1978.524 23632.95)
(2299.439 -3633.869 23662.51)
(1176.71 -6297.799 43797.76)
(21.5431 40.62937 8913.671)
(69.97316 137.5667 9496.021)
(128.4089 275.0844 10576.95)
(201.9567 452.4141 12335.71)
(298.1239 556.309 14731.33)
(399.7265 361.0873 16681.86)
(495.2698 232.3631 17818.13)
(612.2686 125.4489 18785.9)
(757.4655 36.00475 19629.6)
(940.7889 -54.02885 20375.39)
(1176.258 -171.7149 21007.93)
(1480.657 -355.4535 21451.54)
(1863.212 -658.9359 21542.87)
(2276.858 -1148.048 21008.92)
(2433.407 -1871.416 37903.38)
(157.7873 -424.0714 12920.64)
(26.9071 -429.2927 14873.32)
(61.90269 -462.2648 13836.94)
(78.62134 -1645.442 14527.33)
(69.01252 -440.0904 12616.63)
(179.0238 -1594.984 13227.25)
(126.2524 -3579.947 13520.29)
(62.69969 -375.8686 11481.06)
(198.5117 -1358.242 11852.22)
(282.9384 -3057.271 11724.13)
(163.5529 -6227.338 10165.8)
(53.41907 -282.6416 10532.71)
(180.3495 -1011.226 10674.51)
(311.421 -2236.153 10177.31)
(360.7102 -4395.269 8267.023)
(178.4508 -7442.961 3430.688)
(45.18945 -172.6037 9793.413)
(154.3838 -611.383 9772.549)
(283.2836 -1325.983 9042.886)
(396.3553 -2513.805 7002.05)
(395.0078 -4038.602 2819.583)
(38.86636 -56.87047 9254.474)
(131.7575 -199.9794 9142.522)
(244.4782 -428.0196 8308.458)
(363.8768 -793.004 6260.892)
(441.3853 -1235.3 2471.01)
(34.2613 54.68824 8895.997)
(114.6829 191.5928 8755.516)
(211.4811 408.1788 7921.26)
(319.4065 752.101 5940.009)
(414.9636 1165.224 2335.323)
(30.97023 153.3739 8692.91)
(102.4856 537.1518 8577.22)
(187.2758 1149.022 7834.046)
(282.6908 2144.814 5986.243)
(375.1125 3403.55 2392.089)
(28.61793 231.5642 8616.097)
(93.92289 812.7186 8571.692)
(170.5909 1757.947 8012.298)
(257.2415 3385.336 6404.574)
(344.0209 5712.992 2662.994)
(26.90019 282.9491 8632.269)
(87.85324 995.7719 8698.599)
(159.3329 2184.927 8425.716)
(241.4134 4407.138 7265.085)
(327.0118 8359.478 3228.792)
(25.58006 303.354 8704.072)
(83.34434 1068.085 8908.12)
(151.5301 2365.401 9025.938)
(232.3315 5002.07 8722.584)
(324.444 11722.29 4268.556)
(24.47548 292.0469 8791.827)
(79.66864 1023.284 9136.823)
(145.4601 2243.952 9699.026)
(226.5899 4656.253 11057)
(336.6389 10512.92 17991.61)
(514.9663 1162.958 23393.36)
(678.0027 509.3242 22595.77)
(883.2378 223.6838 22810.42)
(1147.221 65.0699 23593.45)
(1478.471 -66.97839 24852.28)
(1835.538 -246.8525 26703.87)
(1978.318 -592.8244 29516.05)
(1036.055 -1386.49 33972.73)
(23.45329 252.6878 8858.19)
(76.29069 876.7595 9313.37)
(139.7207 1869.917 10162.19)
(219.3907 3568.945 11971.58)
(328.6282 5920.537 16441.63)
(468.4204 2208.385 20110.58)
(602.0393 1079.991 20777.21)
(769.7521 502.7633 21412.81)
(985.0091 146.9593 22227.12)
(1264.286 -163.1634 23289.81)
(1617.556 -577.4444 24686.15)
(2005.187 -1323.058 26579.31)
(2177.649 -2893.236 29230.8)
(1146.198 -6502.057 32638.3)
(22.42596 192.2804 8875.297)
(72.88133 659.8841 9399.682)
(133.6265 1366.143 10392.41)
(210.21 2421.783 12243.9)
(313.1433 3387.866 15492.89)
(430.6179 1790.418 18168.55)
(542.556 1019.613 19224.56)
(681.526 512.4613 20086.1)
(857.1313 149.8435 20926.53)
(1083.337 -188.2288 21826.68)
(1377.341 -634.4286 22827.18)
(1750.149 -1383.152 23938.93)
(2161.671 -2779.912 25107.56)
(2346.934 -5474.833 26040.68)
(1220.506 -10467.22 50385.96)
(21.34525 118.8114 8826.26)
(69.27437 404.0571 9382.824)
(126.9486 817.4174 10427.39)
(199.4408 1377.601 12206.68)
(294.8731 1760.248 14823.15)
(397.5003 1077.796 16959.25)
(493.7504 667.8095 18069.53)
(611.3927 352.1882 18991.48)
(757.1952 101.916 19811.61)
(941.2345 -143.0838 20577.32)
(1177.831 -463.451 21290.23)
(1484.386 -974.0242 21894.3)
(1871.508 -1847.008 22238.44)
(2295.255 -3323.714 22013.26)
(2471.423 -5640.818 40341.54)
(162.4303 -1351.598 13802.75)
(20.192 39.67254 8703.436)
(65.41471 134.1923 9262.741)
(119.6747 268.0444 10305.94)
(187.5299 440.3104 12005.47)
(275.5946 540.7089 14318.33)
(367.4887 350.4376 16190.48)
(452.1603 225.1243 17264.37)
(554.0756 121.2985 18166.82)
(677.8943 34.7327 18939.34)
(830.7175 -51.95132 19604.39)
(1022.824 -164.4931 20144.01)
(1268.561 -338.7035 20479.53)
(1584.925 -622.9818 20448.45)
(1981.091 -1071.566 19781.03)
(2408.255 -1710.276 35300.46)
(326.8948 -377.6414 11920.06)
(186.8331 -677.9351 18490.44)
(27.74171 -335.2301 15299.45)
(64.17702 -410.9582 14328.58)
(82.04004 -1450.429 15245.51)
(71.64211 -435.9172 13113.29)
(187.3571 -1574.538 13985.44)
(134.2867 -3505.337 15016.15)
(64.96314 -415.2291 11929.47)
(207.1296 -1503.764 12530.86)
(300.1662 -3423.297 12999.61)
(179.0847 -7329.723 12685.95)
(55.07084 -356.4772 10893.35)
(186.9032 -1281.447 11205.54)
(326.8146 -2881.477 11099.89)
(388.0145 -5950.471 9763.496)
(199.0826 -11373.14 4354.164)
(46.21537 -269.5304 10041.56)
(158.4315 -959.058 10127.95)
(293.0439 -2109.557 9620.278)
(416.0937 -4141.238 7823.069)
(423.5758 -7109.134 3295.424)
(39.3336 -165.363 9378.706)
(133.5687 -583.0298 9316.931)
(248.7904 -1257.583 8579.656)
(372.7313 -2371.316 6617.854)
(455.9854 -3804.506 2668.337)
(34.2613 -54.68824 8895.997)
(114.6829 -191.5928 8755.516)
(211.4811 -408.1788 7921.26)
(319.4065 -752.101 5940.009)
(414.9636 -1165.224 2335.323)
(30.6013 52.74723 8577.684)
(101.0968 184.243 8416.528)
(184.0653 391.0694 7586.239)
(276.2013 717.255 5663.36)
(363.9846 1105.127 2215.575)
(27.98096 148.2902 8402.898)
(91.54261 518.0914 8270.487)
(165.0993 1104.964 7531.082)
(246.0198 2054.966 5733.443)
(324.2002 3245.937 2280.777)
(26.09746 224.3422 8346.007)
(84.86393 785.7858 8285.897)
(152.3948 1695.594 7726.142)
(226.8038 3255.609 6157.406)
(299.3532 5473.836 2550.769)
(24.71263 274.5976 8376.462)
(80.12197 964.7212 8426.087)
(143.9863 2112.547 8145.163)
(215.7085 4250.911 7006.224)
(288.3674 8039.38 3104.509)
(23.63739 294.8425 8459.083)
(76.57183 1036.564 8644.288)
(138.2142 2291.663 8743.533)
(210.0047 4836.448 8432.827)
(289.994 11307.08 4116.852)
(22.72266 284.231 8555.933)
(73.62212 994.576 8879.784)
(133.6553 2177.744 9412.101)
(206.723 4511.156 10711.81)
(304.4101 10165.02 17396.13)
(460.5867 1121.752 22566)
(598.3528 489.8169 21734.05)
(767.9951 214.3225 21862.62)
(984.4534 62.10685 22510.92)
(1264.973 -63.1275 23572.41)
(1620.488 -230.1411 25125.42)
(2013.845 -542.2083 27473.44)
(2202.2 -1246.134 31382.23)
(1177.127 -3053.544 38634.08)
(21.85634 246.22 8630.978)
(70.82993 853.297 9063.593)
(129.1277 1817.466 9876.582)
(201.6199 3463.669 11618.01)
(299.905 5736.094 15929.45)
(423.7471 2135.281 19445.95)
(538.5799 1041.717 20043.63)
(679.4383 483.506 20598.07)
(856.4661 140.8251 21306.22)
(1084.216 -155.3682 22224.32)
(1380.793 -545.7847 23416.36)
(1759.313 -1235.131 24999.25)
(2185.619 -2648.315 27161.21)
(2408.336 -5840.753 30008.96)
(1284.953 -13642.12 64797.84)
(20.96452 187.5637 8657.192)
(67.9207 642.9947 9158.672)
(124.0697 1329.59 10113.92)
(194.296 2353.864 11900.21)
(287.8383 3287.949 15036.04)
(393.0815 1734.633 17603.29)
(490.9029 985.8595 18590.05)
(609.8095 494.3024 19378.26)
(756.7002 144.1121 20132.31)
(941.9686 -180.2993 20925.32)
(1180.502 -604.5176 21786.71)
(1490.867 -1307.779 22711.5)
(1886.429 -2595.698 23615.44)
(2329.962 -5010.167 24187.62)
(2547.465 -9384.781 46195.68)
(172.4602 -2653.154 15914.62)
(20.00651 116.0134 8618.083)
(64.76126 394.1459 9152.321)
(118.3133 796.4982 10160.2)
(185.1929 1340.745 11879.89)
(272.5882 1710.888 14407.58)
(365.4412 1046.008 16459.68)
(450.7726 647.005 17507.94)
(553.283 340.5359 18365.6)
(677.6529 98.3142 19114.89)
(831.1103 -137.5836 19798.57)
(1024.178 -443.9669 20414.44)
(1271.66 -928.1562 20901.44)
(1591.457 -1746.357 21106.03)
(1994.593 -3102.831 20717.98)
(2435.808 -5157.223 37519.78)
(334.8591 -1204.868 12698.64)
(194.4663 -2208.698 19690.1)
(18.96761 38.77448 8506.146)
(61.3129 131.0322 9044.327)
(111.8819 261.4701 10052.9)
(174.7844 429.0434 11698.09)