/*--------------------------------*- C++ -*----------------------------------*\
| =========                 |                                                 |
| \\      /  F ield         | OpenFOAM: The Open Source CFD Toolbox           |
|  \\    /   O peration     | Version:  2306                                  |
|   \\  /    A nd           | Website:  www.openfoam.com                      |
|    \\/     M anipulation  |                                                 |
\*---------------------------------------------------------------------------*/
FoamFile
{
    version     2.0;
    format      ascii;
    arch        "LSB;label=32;scalar=64";
    class       volScalarField;
    location    "0.3/phiEC";
    object      phi;
}
// * * * * * * * * * * * * * * * * * * * * * * * * * * * * * * * * * * * * * //

dimensions      [1 2 -3 0 0 -1 0];

internalField   nonuniform List<scalar> 
20000
(
0.8376446
0.8376439
0.8376417
0.8378037
0.8376425
0.8376411
0.8378013
0.8376378
0.8377949
0.8379727
0.8376405
0.8376397
0.8377967
0.8376371
0.8377926
0.8379681
0.8376339
0.8377829
0.8379574
0.8381611
0.8376382
0.8376378
0.8377901
0.8376359
0.8377882
0.8379588
0.8376333
0.8377807
0.8379529
0.8381536
0.8376305
0.837771
0.8379366
0.838138
0.8383804
0.8376357
0.8376356
0.8377822
0.8376341
0.8377819
0.8379454
0.8376321
0.8377765
0.8379441
0.8381383
0.8376299
0.837769
0.8379324
0.8381308
0.8383714
0.8376275
0.8377605
0.8379163
0.8381071
0.8383476
0.8385727
0.8376333
0.8376332
0.8377736
0.837632
0.8377743
0.8379287
0.8376304
0.8377706
0.8379313
0.8381146
0.8376287
0.837765
0.837924
0.8381162
0.838352
0.8376269
0.8377586
0.8379123
0.8381004
0.838339
0.8385671
0.8376249
0.8377515
0.8378983
0.8380773
0.8383047
0.8385307
0.8387069
0.8376313
0.8376309
0.8377655
0.8376298
0.8377661
0.8379104
0.8376284
0.8377634
0.8379153
0.8380825
0.8376272
0.8377594
0.837912
0.8380935
0.8383184
0.8376258
0.8377549
0.8379044
0.8380866
0.8383205
0.8385559
0.8376244
0.8377497
0.8378945
0.8380709
0.8382966
0.8385253
0.8387035
0.8376227
0.8377437
0.8378829
0.8380511
0.8382637
0.838477
0.8386584
0.8388452
0.8376298
0.837629
0.8377586
0.8376276
0.8377583
0.8378929
0.8376263
0.8377557
0.8378978
0.838044
0.8376253
0.8377527
0.8378969
0.8380628
0.8382622
0.8376243
0.8377496
0.837893
0.8380653
0.8382884
0.83854
0.8376233
0.8377461
0.8378871
0.8380579
0.8382792
0.8385146
0.8386969
0.8376221
0.8377419
0.8378793
0.8380451
0.8382561
0.8384719
0.838655
0.8388434
0.8376206
0.8377368
0.8378695
0.8380286
0.8382279
0.8384262
0.8385969
0.8387895
0.8389858
0.8376291
0.8376276
0.8377536
0.8376258
0.8377517
0.8378784
0.8376243
0.8377484
0.8378811
0.8380092
0.8376233
0.8377454
0.8378804
0.8380261
0.8381641
0.8376225
0.8377431
0.8378788
0.8380363
0.8382347
0.8385235
0.8376219
0.837741
0.8378763
0.8380378
0.8382489
0.8384994
0.8386886
0.8376211
0.8377385
0.8378722
0.8380327
0.8382396
0.8384618
0.8386487
0.8388402
0.8376202
0.8377351
0.8378661
0.8380228
0.8382207
0.8384214
0.8385937
0.8387877
0.8389854
0.8376188
0.8377308
0.8378578
0.8380091
0.8381972
0.838382
0.8385392
0.83872
0.8389224
0.8391274
0.8376291
0.8376269
0.837751
0.8376244
0.837747
0.8378681
0.8376226
0.8377421
0.8378672
0.8379818
0.8376213
0.8377385
0.8378647
0.8379928
0.8380963
0.8376206
0.8377363
0.8378632
0.8380018
0.8381411
0.8376202
0.8377349
0.8378628
0.8380105
0.8381984
0.8384837
0.8386817
0.8376198
0.8377337
0.8378619
0.8380136
0.8382111
0.8384475
0.8386408
0.8388363
0.8376192
0.8377318
0.8378593
0.838011
0.8382051
0.8384119
0.8385878
0.8387846
0.8389846
0.8376184
0.8377291
0.8378545
0.8380036
0.8381903
0.8383774
0.8385362
0.8387183
0.838922
0.8391283
0.8376172
0.8377253
0.8378474
0.837992
0.8381706
0.8383442
0.8384892
0.8386552
0.8388446
0.839056
0.8392689
0.8376298
0.8376269
0.837751
0.8376238
0.8377445
0.8378628
0.8376213
0.8377377
0.8378574
0.8379632
0.8376197
0.8377326
0.8378516
0.8379666
0.8380504
0.8376188
0.8377297
0.8378484
0.8379704
0.8380764
0.8376183
0.8377284
0.837848
0.8379779
0.8381103
0.8376181
0.8377278
0.837849
0.8379878
0.8381635
0.8384327
0.8386342
0.8388335
0.8376179
0.8377272
0.8378494
0.8379928
0.838178
0.8383983
0.8385803
0.8387809
0.8389836
0.8376174
0.8377259
0.837848
0.8379923
0.8381754
0.8383684
0.8385306
0.8387153
0.8389212
0.8391298
0.8376167
0.8377237
0.8378442
0.8379867
0.838164
0.8383398
0.8384864
0.8386536
0.8388442
0.8390568
0.8392714
0.8376157
0.8377203
0.8378381
0.8379768
0.8381474
0.8383115
0.8384464
0.8385992
0.8387726
0.8389696
0.839189
0.8394086
0.8376313
0.8376276
0.8377536
0.8376238
0.8377445
0.8378628
0.8376207
0.8377353
0.8378523
0.8379539
0.8376185
0.8377284
0.8378423
0.8379489
0.8380218
0.8376172
0.8377241
0.8378361
0.8379457
0.8380325
0.8376166
0.8377221
0.837834
0.8379483
0.8380493
0.8376163
0.8377215
0.8378349
0.8379568
0.8380804
0.8376163
0.8377216
0.8378371
0.8379682
0.8381328
0.8383844
0.8385741
0.8387781
0.8389829
0.8376161
0.8377215
0.8378385
0.8379748
0.8381496
0.8383556
0.8385235
0.8387118
0.8389202
0.8391313
0.8376158
0.8377206
0.8378379
0.8379758
0.8381497
0.8383312
0.8384811
0.8386508
0.8388433
0.839058
0.8392757
0.8376153
0.8377188
0.837835
0.8379717
0.838141
0.8383073
0.8384437
0.8385977
0.8387722
0.8389703
0.8391912
0.8394135
0.8376143
0.8377158
0.8378296
0.8379632
0.8381267
0.8382828
0.8384095
0.8385513
0.8387106
0.8388903
0.8390939
0.8393198
0.8395443
0.8376333
0.837629
0.8377586
0.8376244
0.837747
0.8378681
0.8376207
0.8377353
0.8378523
0.8379539
0.8376179
0.8377262
0.8378375
0.8379399
0.8380081
0.8376161
0.8377201
0.8378273
0.837929
0.8380053
0.8376151
0.8377168
0.8378223
0.837925
0.838008
0.8376146
0.8377155
0.8378215
0.8379287
0.8380228
0.8376146
0.8377155
0.8378236
0.8379386
0.838054
0.8376146
0.837716
0.8378266
0.8379512
0.8381065
0.8383424
0.8385177
0.8387092
0.8389194
0.8391323
0.8376146
0.8377163
0.8378288
0.8379591
0.838125
0.838319
0.8384743
0.8386475
0.8388424
0.8390593
0.8392803
0.8376144
0.8377158
0.8378289
0.8379613
0.8381273
0.8382991
0.8384387
0.838595
0.8387714
0.8389714
0.839195
0.8394221
0.8376139
0.8377143
0.8378266
0.8379582
0.8381206
0.8382788
0.8384069
0.8385499
0.8387102
0.838891
0.839096
0.8393242
0.8395529
0.837613
0.8377116
0.8378218
0.8379508
0.8381081
0.8382574
0.8383771
0.83851
0.8386576
0.8388223
0.8390074
0.8392161
0.8394464
0.8396724
0.8376357
0.8376309
0.8377655
0.8376258
0.8377517
0.8378784
0.8376213
0.8377377
0.8378574
0.8379632
0.8376179
0.8377262
0.8378375
0.8379399
0.8380081
0.8376155
0.837718
0.8378228
0.8379206
0.8379921
0.837614
0.8377129
0.837814
0.8379092
0.8379823
0.8376132
0.8377104
0.8378103
0.8379067
0.8379839
0.8376129
0.8377097
0.8378107
0.8379119
0.8379994
0.837613
0.8377102
0.8378136
0.8379229
0.8380313
0.8376131
0.837711
0.8378174
0.8379363
0.8380837
0.8383064
0.8384688
0.838645
0.8388416
0.8390602
0.8392833
0.8376132
0.8377116
0.83782
0.8379451
0.8381035
0.8382874
0.8384323
0.8385919
0.8387704
0.8389726
0.8391991
0.8394316
0.837613
0.8377114
0.8378207
0.8379481
0.8381073
0.8382709
0.838402
0.8385474
0.8387094
0.838892
0.8390995
0.8393319
0.8395684
0.8376126
0.8377101
0.8378189
0.837946
0.8381021
0.8382535
0.8383746
0.8385087
0.8386572
0.8388229
0.8390093
0.8392201
0.8394542
0.8396864
0.8376119
0.8377077
0.8378146
0.8379394
0.8380911
0.8382344
0.8383483
0.8384738
0.8386119
0.8387642
0.8389333
0.8391223
0.8393341
0.8395655
0.8397875
0.8376382
0.8376332
0.8377736
0.8376276
0.8377583
0.8378929
0.8376226
0.8377421
0.8378672
0.8379818
0.8376185
0.8377284
0.8378423
0.8379489
0.8380218
0.8376155
0.837718
0.8378228
0.8379206
0.8379921
0.8376134
0.8377109
0.8378097
0.8379013
0.83797
0.8376122
0.8377067
0.8378024
0.8378917
0.8379597
0.8376115
0.8377048
0.8378
0.8378908
0.8379625
0.8376114
0.8377046
0.8378013
0.8378973
0.8379793
0.8376115
0.8377054
0.8378048
0.8379092
0.8380117
0.8376117
0.8377065
0.837809
0.8379232
0.8380638
0.8382753
0.8384269
0.8385895
0.8387698
0.8389733
0.8392018
0.8394382
0.8376119
0.8377073
0.8378121
0.8379325
0.8380844
0.8382596
0.8383959
0.8385444
0.8387085
0.8388931
0.8391032
0.8393405
0.8395867
0.8376118
0.8377073
0.8378132
0.8379362
0.8380893
0.8382458
0.8383699
0.8385062
0.8386565
0.8388238
0.8390125
0.8392271
0.8394681
0.8397129
0.8376114
0.8377063
0.8378118
0.8379348
0.8380854
0.8382307
0.8383459
0.8384725
0.8386115
0.8387648
0.8389351
0.8391261
0.8393412
0.839578
0.8398085
0.8376107
0.8377041
0.837808
0.8379289
0.8380756
0.8382136
0.8383224
0.8384416
0.8385718
0.8387141
0.8388701
0.8390424
0.8392334
0.839445
0.8396721
0.8399943
0.8376405
0.8376356
0.8377822
0.8376298
0.8377661
0.8379104
0.8376243
0.8377484
0.8378811
0.8380092
0.8376197
0.8377326
0.8378516
0.8379666
0.8380504
0.8376161
0.8377201
0.8378273
0.837929
0.8380053
0.8376134
0.8377109
0.8378097
0.8379013
0.83797
0.8376116
0.8377048
0.8377983
0.8378842
0.837948
0.8376105
0.8377013
0.8377924
0.8378765
0.8379395
0.83761
0.8376999
0.837791
0.8378771
0.8379441
0.83761
0.8377
0.8377929
0.8378845
0.8379619
0.8376102
0.8377011
0.8377969
0.8378969
0.8379945
0.8376104
0.8377024
0.8378014
0.8379113
0.8380461
0.838248
0.8383908
0.8385421
0.8387079
0.8388937
0.8391057
0.8393464
0.8396006
0.8376106
0.8377033
0.8378048
0.837921
0.8380672
0.838235
0.838364
0.8385034
0.8386557
0.8388248
0.839016
0.8392349
0.8394845
0.8397474
0.8376106
0.8377035
0.8378062
0.8379252
0.838073
0.8382233
0.8383414
0.8384702
0.8386108
0.8387657
0.8389381
0.8391326
0.8393539
0.8396018
0.8398505
0.8376103
0.8377027
0.8378052
0.8379244
0.8380701
0.83821
0.83832
0.8384404
0.8385715
0.8387146
0.8388719
0.8390459
0.83924
0.8394564
0.8396908
0.8400296
0.8376097
0.8377007
0.8378018
0.8379192
0.8380613
0.8381944
0.8382988
0.8384126
0.8385362
0.8386701
0.8388157
0.8389743
0.8391478
0.8393378
0.8395442
0.8398628
0.8403068
0.8376425
0.8376378
0.8377901
0.837632
0.8377743
0.8379287
0.8376263
0.8377557
0.8378978
0.838044
0.8376213
0.8377385
0.8378647
0.8379928
0.8380963
0.8376172
0.8377241
0.8378361
0.8379457
0.8380325
0.837614
0.8377129
0.837814
0.8379092
0.8379823
0.8376116
0.8377048
0.8377983
0.8378842
0.837948
0.83761
0.8376995
0.8377885
0.8378694
0.8379285
0.8376091
0.8376965
0.8377837
0.8378634
0.8379222
0.8376087
0.8376954
0.837783
0.8378651
0.8379281
0.8376087
0.8376958
0.8377853
0.8378731
0.8379466
0.8376089
0.8376971
0.8377897
0.8378859
0.8379793
0.8376093
0.8376985
0.8377945
0.8379005
0.8380301
0.8382238
0.8383591
0.8385012
0.838655
0.8388255
0.8390183
0.8392404
0.839497
0.8397779
0.8376095
0.8376997
0.8377981
0.8379105
0.8380515
0.8382128
0.8383357
0.8384674
0.83861
0.8387666
0.8389414
0.8391399
0.839369
0.8396328
0.8399131
0.8376096
0.8377
0.8377998
0.8379152
0.838058
0.8382028
0.8383157
0.8384381
0.8385708
0.8387155
0.8388748
0.8390521
0.8392519
0.8394782
0.8397285
0.8401069
0.8376093
0.8376993
0.8377991
0.8379148
0.8380559
0.8381909
0.8382965
0.8384114
0.8385358
0.8386706
0.8388173
0.8389777
0.839154
0.8393485
0.8395613
0.8398942
0.8403633
0.8376087
0.8376975
0.837796
0.8379102
0.8380481
0.8381768
0.8382771
0.8383862
0.838504
0.838631
0.8387679
0.8389155
0.8390749
0.8392469
0.8394312
0.8397218
0.8401511
0.8406106
0.8376439
0.8376397
0.8377967
0.8376341
0.8377819
0.8379454
0.8376284
0.8377634
0.8379153
0.8380825
0.8376233
0.8377454
0.8378804
0.8380261
0.8381641
0.8376188
0.8377297
0.8378484
0.8379704
0.8380764
0.8376151
0.8377168
0.8378223
0.837925
0.838008
0.8376122
0.8377067
0.8378024
0.8378917
0.8379597
0.83761
0.8376995
0.8377885
0.8378694
0.8379285
0.8376085
0.8376947
0.8377799
0.8378565
0.8379116
0.8376077
0.8376922
0.8377759
0.8378519
0.8379071
0.8376074
0.8376914
0.8377757
0.8378544
0.8379141
0.8376075
0.837692
0.8377785
0.8378629
0.837933
0.8376078
0.8376934
0.8377831
0.8378759
0.8379655
0.8376082
0.837695
0.837788
0.8378906
0.8380156
0.8382019
0.838331
0.8384653
0.8386094
0.8387672
0.8389436
0.839145
0.8393804
0.8396602
0.8399869
0.8376085
0.8376963
0.8377919
0.8379009
0.8380372
0.8381926
0.8383102
0.8384354
0.83857
0.8387164
0.8388779
0.839059
0.839266
0.8395065
0.8397846
0.8402507
0.8376085
0.8376967
0.8377938
0.8379058
0.8380442
0.838184
0.8382923
0.8384092
0.8385352
0.8386715
0.8388201
0.8389836
0.8391653
0.8393688
0.8395958
0.8399632
0.8404909
0.8376083
0.8376962
0.8377934
0.8379059
0.8380428
0.8381734
0.838275
0.838385
0.8385037
0.8386315
0.8387694
0.8389188
0.8390809
0.839257
0.8394472
0.8397505
0.8402013
0.8406859
0.8376078
0.8376946
0.8377906
0.8379017
0.8380357
0.8381605
0.8382572
0.838362
0.8384748
0.8385958
0.8387253
0.838864
0.8390121
0.8391696
0.8393357
0.8395988
0.8399905
0.8404315
0.8409026
0.8376446
0.8376411
0.8378013
0.8376359
0.8377882
0.8379588
0.8376304
0.8377706
0.8379313
0.8381146
0.8376253
0.8377527
0.8378969
0.8380628
0.8382622
0.8376206
0.8377363
0.8378632
0.8380018
0.8381411
0.8376166
0.8377221
0.837834
0.8379483
0.8380493
0.8376132
0.8377104
0.8378103
0.8379067
0.8379839
0.8376105
0.8377013
0.8377924
0.8378765
0.8379395
0.8376085
0.8376947
0.8377799
0.8378565
0.8379116
0.8376072
0.8376904
0.8377723
0.8378453
0.837897
0.8376065
0.8376882
0.837769
0.8378417
0.8378939
0.8376063
0.8376877
0.8377692
0.8378448
0.8379017
0.8376064
0.8376885
0.8377722
0.8378536
0.8379208
0.8376067
0.83769
0.837777
0.8378668
0.837953
0.8376072
0.8376917
0.8377821
0.8378815
0.8380024
0.8381821
0.8383056
0.8384334
0.8385694
0.838717
0.83888
0.8390638
0.8392766
0.8395317
0.839851
0.8406027
0.8376075
0.8376931
0.8377861
0.8378919
0.838024
0.8381741
0.838287
0.8384066
0.8385344
0.8386724
0.8388231
0.8389901
0.8391786
0.8393953
0.8396472
0.8400918
0.840737
0.8376076
0.8376937
0.8377882
0.8378971
0.8380314
0.8381666
0.8382709
0.8383829
0.8385031
0.8386323
0.8387721
0.8389244
0.8390916
0.8392762
0.8394794
0.8398135
0.8403147
0.8408562
0.8376074
0.8376933
0.837788
0.8378976
0.8380306
0.8381572
0.8382551
0.8383609
0.8384745
0.8385962
0.8387268
0.8388671
0.8390178
0.8391792
0.8393507
0.8396255
0.8400362
0.8404982
0.8409937
0.8376069
0.8376918
0.8377855
0.8378938
0.8380242
0.8381453
0.8382387
0.8383397
0.838448
0.8385637
0.838687
0.8388181
0.8389569
0.8391028
0.8392544
0.8394951
0.8398523
0.8402518
0.8407012
0.8411804
0.8376417
0.8378037
0.8376371
0.8377926
0.8379681
0.8376321
0.8377765
0.8379441
0.8381383
0.8376272
0.8377594
0.837912
0.8380935
0.8383184
0.8376225
0.8377431
0.8378788
0.8380363
0.8382347
0.8385235
0.8376183
0.8377284
0.837848
0.8379779
0.8381103
0.8376146
0.8377155
0.8378215
0.8379287
0.8380228
0.8376115
0.8377048
0.8378
0.8378908
0.8379625
0.8376091
0.8376965
0.8377837
0.8378634
0.8379222
0.8376072
0.8376904
0.8377723
0.8378453
0.837897
0.837606
0.8376866
0.8377654
0.8378354
0.8378842
0.8376054
0.8376846
0.8377626
0.8378326
0.8378822
0.8376052
0.8376843
0.8377632
0.8378361
0.8378906
0.8376054
0.8376852
0.8377664
0.8378451
0.8379097
0.8376058
0.8376868
0.8377713
0.8378583
0.8379416
0.8426652
0.8376062
0.8376886
0.8377766
0.8378731
0.8379901
0.8381639
0.8382825
0.8384047
0.8385339
0.8386729
0.8388251
0.8389947
0.8391887
0.8394188
0.839708
0.8404082
0.8412767
0.8376065
0.8376901
0.8377807
0.8378836
0.8380117
0.838157
0.8382657
0.8383804
0.8385023
0.8386332
0.838775
0.8389307
0.8391043
0.8393012
0.8395274
0.8399311
0.8405343
0.8411766
0.8376067
0.8376908
0.837783
0.837889
0.8380195
0.8381506
0.8382511
0.8383588
0.8384739
0.838597
0.8387294
0.8388725
0.839028
0.8391975
0.8393812
0.8396842
0.8401396
0.8406492
0.8411978
0.8376066
0.8376905
0.837783
0.8378898
0.8380192
0.838142
0.8382366
0.8383386
0.8384477
0.8385642
0.8386885
0.8388211
0.8389624
0.8391121
0.8392688
0.8395203
0.8398948
0.8403125
0.8407816
0.8412836
0.8376061
0.8376891
0.8377807
0.8378864
0.8380134
0.8381311
0.8382215
0.838319
0.8384233
0.8385343
0.8386521
0.8387767
0.8389078
0.8390443
0.8391843
0.8394069
0.8397362
0.8400989
0.8405034
0.840958
0.8413177
0.8376378
0.8377949
0.8379727
0.8376333
0.8377807
0.8379529
0.8381536
0.8376287
0.837765
0.837924
0.8381162
0.838352
0.8376243
0.8377496
0.837893
0.8380653
0.8382884
0.83854
0.8376202
0.8377349
0.8378628
0.8380105
0.8381984
0.8384837
0.8386817
0.8376163
0.8377215
0.8378349
0.8379568
0.8380804
0.8376129
0.8377097
0.8378107
0.8379119
0.8379994
0.83761
0.8376999
0.837791
0.8378771
0.8379441
0.8376077
0.8376922
0.8377759
0.8378519
0.8379071
0.837606
0.8376866
0.8377654
0.8378354
0.8378842
0.8376049
0.837683
0.8377592
0.8378264
0.8378729
0.8376043
0.8376813
0.8377568
0.8378242
0.8378717
0.8376042
0.8376811
0.8377577
0.8378281
0.8378804
0.8376044
0.8376822
0.8377611
0.8378373
0.8378996
0.8438592
0.8376048
0.8376839
0.8377661
0.8378505
0.8379311
0.8422679
0.8428047
0.8376053
0.8376858
0.8377714
0.8378652
0.8379788
0.8381471
0.8382614
0.8383785
0.8385018
0.8386337
0.8387769
0.8389351
0.8391139
0.8393235
0.8395842
0.8402213
0.8410184
0.8417931
0.8376057
0.8376873
0.8377757
0.8378758
0.8380003
0.8381412
0.8382461
0.8383564
0.8384732
0.8385979
0.8387322
0.8388786
0.8390402
0.8392214
0.8394266
0.8397941
0.8403403
0.8409345
0.8415692
0.8376059
0.8376881
0.8377781
0.8378814
0.8380084
0.8381356
0.8382328
0.8383366
0.8384471
0.8385649
0.838691
0.8388263
0.8389722
0.8391296
0.8392978
0.8395758
0.8399912
0.8404502
0.8409623
0.8415131
0.8376058
0.8376879
0.8377783
0.8378824
0.8380085
0.8381279
0.8382195
0.8383179
0.838423
0.8385347
0.8386535
0.8387796
0.838913
0.8390532
0.8391981
0.839431
0.8397764
0.8401554
0.8405765
0.8410489
0.8414254
0.8376053
0.8376867
0.8377762
0.8378795
0.8380033
0.8381178
0.8382054
0.8382997
0.8384003
0.8385071
0.8386201
0.838739
0.8388635
0.8389921
0.8391227
0.8393308
0.8396377
0.8399709
0.8403364
0.8407432
0.8410852
0.8413306
0.8376339
0.8377829
0.8379574
0.8381611
0.8376299
0.837769
0.8379324
0.8381308
0.8383714
0.8376258
0.8377549
0.8379044
0.8380866
0.8383205
0.8385559
0.8376219
0.837741
0.8378763
0.8380378
0.8382489
0.8384994
0.8386886
0.8376181
0.8377278
0.837849
0.8379878
0.8381635
0.8384327
0.8386342
0.8388335
0.8376146
0.8377155
0.8378236
0.8379386
0.838054
0.8376114
0.8377046
0.8378013
0.8378973
0.8379793
0.8376087
0.8376954
0.837783
0.8378651
0.8379281
0.8376065
0.8376882
0.837769
0.8378417
0.8378939
0.8376049
0.837683
0.8377592
0.8378264
0.8378729
0.8376039
0.8376797
0.8377535
0.8378183
0.8378627
0.8376034
0.8376782
0.8377514
0.8378166
0.8378622
0.8376033
0.8376782
0.8377525
0.8378208
0.8378711
0.844664
0.8376035
0.8376793
0.8377561
0.83783
0.8378902
0.8433402
0.8439223
0.837604
0.8376811
0.8377612
0.8378432
0.8379213
0.8419304
0.8423937
0.8430107
0.8376045
0.8376831
0.8377666
0.8378579
0.8379682
0.8381316
0.8382419
0.8383546
0.8384727
0.8385984
0.8387341
0.8388828
0.8390494
0.8392426
0.8394804
0.8400654
0.8407839
0.841486
0.8422137
0.8376049
0.8376847
0.837771
0.8378685
0.8379897
0.8381265
0.8382279
0.8383342
0.8384464
0.8385657
0.8386936
0.8388321
0.8389839
0.8391525
0.8393411
0.8396796
0.8401785
0.8407106
0.8412921
0.8419185
0.8376051
0.8376855
0.8377735
0.8378743
0.837998
0.8381216
0.8382157
0.838316
0.8384224
0.8385355
0.8386559
0.8387847
0.8389225
0.83907
0.8392258
0.8394838
0.8398674
0.8402836
0.840741
0.8412515
0.841664
0.837605
0.8376855
0.8377738
0.8378755
0.8379985
0.8381147
0.8382035
0.8382987
0.8384
0.8385076
0.8386215
0.8387418
0.8388685
0.8390007
0.839136
0.8393538
0.8396759
0.8400242
0.8404044
0.8408258
0.8411799
0.8414387
0.8376046
0.8376843
0.837772
0.8378729
0.8379938
0.8381053
0.8381904
0.8382817
0.838379
0.838482
0.8385906
0.8387045
0.8388231
0.8389451
0.8390679
0.8392639
0.8395525
0.8398623
0.8401971
0.8405631
0.8408622
0.8410971
0.8413434
0.8376305
0.837771
0.8379366
0.838138
0.8383804
0.8376269
0.8377586
0.8379123
0.8381004
0.838339
0.8385671
0.8376233
0.8377461
0.8378871
0.8380579
0.8382792
0.8385146
0.8386969
0.8376198
0.8377337
0.8378619
0.8380136
0.8382111
0.8384475
0.8386408
0.8388363
0.8376163
0.8377216
0.8378371
0.8379682
0.8381328
0.8383844
0.8385741
0.8387781
0.8389829
0.837613
0.8377102
0.8378136
0.8379229
0.8380313
0.83761
0.8377
0.8377929
0.8378845
0.8379619
0.8376074
0.8376914
0.8377757
0.8378544
0.8379141
0.8376054
0.8376846
0.8377626
0.8378326
0.8378822
0.8376039
0.8376797
0.8377535
0.8378183
0.8378627
0.8376029
0.8376767
0.8377482
0.8378108
0.8378534
0.8376025
0.8376753
0.8377465
0.8378096
0.8378534
0.8451809
0.8376024
0.8376755
0.8377478
0.8378139
0.8378625
0.8440608
0.844711
0.8376027
0.8376767
0.8377514
0.8378233
0.8378815
0.8429134
0.8433964
0.8440388
0.8376032
0.8376785
0.8377566
0.8378364
0.8379122
0.8416656
0.8420465
0.8425791
0.8432476
0.8376037
0.8376805
0.837762
0.837851
0.8379583
0.8381171
0.8382238
0.8383325
0.8384459
0.8385662
0.8386954
0.8388362
0.8389928
0.8391728
0.8393923
0.8399365
0.8405931
0.8412153
0.841867
0.8425726
0.8376041
0.8376822
0.8377665
0.8378617
0.8379797
0.8381128
0.8382109
0.8383137
0.8384217
0.8385363
0.8386585
0.8387903
0.8389338
0.839092
0.8392673
0.8395828
0.8400445
0.8405266
0.8410418
0.8416105
0.8420813
0.8376043
0.8376831
0.8377691
0.8378676
0.8379882
0.8381086
0.8381998
0.8382968
0.8383995
0.8385083
0.8386238
0.8387467
0.8388777
0.839017
0.8391627
0.8394044
0.8397626
0.8401453
0.8405576
0.8410099
0.8413901
0.8416781
0.8376043
0.8376831
0.8377697
0.8378691
0.8379891
0.8381023
0.8381885
0.8382807
0.8383787
0.8384824
0.8385919
0.8387072
0.8388281
0.8389534
0.8390806
0.839286
0.839589
0.839913
0.8402612
0.8406398
0.8409481
0.8411922
0.8414518
0.8376039
0.8376821
0.837768
0.8378667
0.8379848
0.8380935
0.8381762
0.8382649
0.8383591
0.8384586
0.8385632
0.8386726
0.8387861
0.8389022
0.8390184
0.8392042
0.8394775
0.8397682
0.8400787
0.8404129
0.8406756
0.8408734
0.8411089
0.841356
0.8376275
0.8377605
0.8379163
0.8381071
0.8383476
0.8385727
0.8376244
0.8377497
0.8378945
0.8380709
0.8382966
0.8385253
0.8387035
0.8376211
0.8377385
0.8378722
0.8380327
0.8382396
0.8384618
0.8386487
0.8388402
0.8376179
0.8377272
0.8378494
0.8379928
0.838178
0.8383983
0.8385803
0.8387809
0.8389836
0.8376146
0.837716
0.8378266
0.8379512
0.8381065
0.8383424
0.8385177
0.8387092
0.8389194
0.8391323
0.8376115
0.8377054
0.8378048
0.8379092
0.8380117
0.8376087
0.8376958
0.8377853
0.8378731
0.8379466
0.8376063
0.8376877
0.8377692
0.8378448
0.8379017
0.8376043
0.8376813
0.8377568
0.8378242
0.8378717
0.8376029
0.8376767
0.8377482
0.8378108
0.8378534
0.837602
0.8376739
0.8377434
0.8378039
0.8378449
0.845436
0.8376016
0.8376727
0.8377419
0.837803
0.8378453
0.8445227
0.8452239
0.8376016
0.8376729
0.8377433
0.8378076
0.8378546
0.8435727
0.8441021
0.8448032
0.8376019
0.8376742
0.8377471
0.837817
0.8378734
0.8425847
0.8429651
0.8434999
0.8441984
0.8376024
0.8376761
0.8377523
0.8378301
0.8379037
0.8414521
0.8417745
0.8422175
0.842792
0.8434986
0.8376029
0.8376781
0.8377578
0.8378445
0.8379491
0.8381036
0.838207
0.838312
0.8384212
0.8385367
0.8386603
0.8387942
0.8389424
0.8391116
0.8393164
0.8398277
0.8404367
0.840998
0.8415671
0.8421917
0.8427384
0.8376033
0.8376798
0.8377623
0.8378552
0.8379703
0.8380999
0.8381951
0.8382945
0.8383988
0.8385091
0.8386263
0.8387522
0.8388886
0.8390382
0.8392025
0.8394992
0.8399313
0.8403749
0.840838
0.841337
0.8417589
0.8420964
0.8376036
0.8376809
0.837765
0.8378612
0.837979
0.8380963
0.8381849
0.8382789
0.8383782
0.8384831
0.8385942
0.838712
0.838837
0.8389691
0.8391064
0.8393346
0.839672
0.8400282
0.8404058
0.8408112
0.8411391
0.8414031
0.8416919
0.8376036
0.8376809
0.8377657
0.8378629
0.8379803
0.8380906
0.8381744
0.8382639
0.8383588
0.838459
0.8385645
0.8386752
0.8387909
0.8389103
0.8390307
0.8392256
0.8395126
0.8398168
0.8401397
0.8404853
0.8407554
0.8409596
0.8412043
0.8414647
0.8376033
0.83768
0.8377642
0.8378608
0.8379764
0.8380825
0.838163
0.8382491
0.8383404
0.8384367
0.8385377
0.838643
0.838752
0.8388629
0.8389733
0.8391504
0.8394106
0.8396854
0.8399763
0.8402854
0.8405202
0.8406862
0.8408844
0.8411206
0.8413684
0.8376249
0.8377515
0.8378983
0.8380773
0.8383047
0.8385307
0.8387069
0.8376221
0.8377419
0.8378793
0.8380451
0.8382561
0.8384719
0.838655
0.8388434
0.8376192
0.8377318
0.8378593
0.838011
0.8382051
0.8384119
0.8385878
0.8387846
0.8389846
0.8376161
0.8377215
0.8378385
0.8379748
0.8381496
0.8383556
0.8385235
0.8387118
0.8389202
0.8391313
0.8376131
0.837711
0.8378174
0.8379363
0.8380837
0.8383064
0.8384688
0.838645
0.8388416
0.8390602
0.8392833
0.8376102
0.8377011
0.8377969
0.8378969
0.8379945
0.8376075
0.837692
0.8377785
0.8378629
0.837933
0.8376052
0.8376843
0.8377632
0.8378361
0.8378906
0.8376034
0.8376782
0.8377514
0.8378166
0.8378622
0.837602
0.8376739
0.8377434
0.8378039
0.8378449
0.845436
0.8376012
0.8376712
0.8377388
0.8377975
0.837837
0.8447504
0.8454779
0.8376008
0.8376702
0.8377376
0.837797
0.8378378
0.8439947
0.84456
0.8453093
0.8376008
0.8376705
0.8377391
0.8378017
0.8378472
0.8432004
0.8436104
0.8441827
0.8449377
0.8376012
0.8376718
0.837743
0.8378111
0.8378659
0.8423219
0.8426331
0.8430602
0.8436412
0.8443927
0.8376017
0.8376738
0.8377482
0.8378241
0.8378958
0.8412736
0.8415554
0.841935
0.8424138
0.8430169
0.8436334
0.8376022
0.8376759
0.8377538
0.8378385
0.8379404
0.8380909
0.8381913
0.8382929
0.8383984
0.8385095
0.838628
0.838756
0.8388969
0.839057
0.8392498
0.8397339
0.8403052
0.8408208
0.8413283
0.8418673
0.8423417
0.8427539
0.8376027
0.8376776
0.8377583
0.8378492
0.8379615
0.8380878
0.8381803
0.8382767
0.8383775
0.8384838
0.8385966
0.8387173
0.8388475
0.8389896
0.8391448
0.8394258
0.8398336
0.8402469
0.8406706
0.8411158
0.8414748
0.8417727
0.8421112
0.8376029
0.8376787
0.8377612
0.8378553
0.8379704
0.8380848
0.8381709
0.8382621
0.8383583
0.8384597
0.8385667
0.8386799
0.8387995
0.8389255
0.8390556
0.8392724
0.8395924
0.8399271
0.8402773
0.840647
0.8409331
0.8411512
0.8414158
0.8417055
0.8376029
0.8376789
0.8377619
0.8378572
0.8379719
0.8380796
0.8381611
0.8382481
0.8383401
0.8384371
0.838539
0.8386456
0.8387566
0.8388707
0.8389852
0.839171
0.8394444
0.8397321
0.8400346
0.8403542
0.8405954
0.8407663
0.8409709
0.8412162
0.8414774
0.8376027
0.837678
0.8377606
0.8378553
0.8379684
0.838072
0.8381504
0.8382342
0.8383229
0.8384162
0.8385139
0.8386155
0.8387203
0.8388266
0.8389319
0.8391013
0.8393501
0.8396115
0.8398859
0.8401749
0.8403881
0.8405303
0.8406966
0.8408953
0.8411321
0.8413829
0.8376227
0.8377437
0.8378829
0.8380511
0.8382637
0.838477
0.8386584
0.8388452
0.8376202
0.8377351
0.8378661
0.8380228
0.8382207
0.8384214
0.8385937
0.8387877
0.8389854
0.8376174
0.8377259
0.837848
0.8379923
0.8381754
0.8383684
0.8385306
0.8387153
0.8389212
0.8391298
0.8376146
0.8377163
0.8378288
0.8379591
0.838125
0.838319
0.8384743
0.8386475
0.8388424
0.8390593
0.8392803
0.8376117
0.8377065
0.837809
0.8379232
0.8380638
0.8382753
0.8384269
0.8385895
0.8387698
0.8389733
0.8392018
0.8394382
0.8376089
0.8376971
0.8377897
0.8378859
0.8379793
0.8376064
0.8376885
0.8377722
0.8378536
0.8379208
0.8376042
0.8376811
0.8377577
0.8378281
0.8378804
0.8376025
0.8376753
0.8377465
0.8378096
0.8378534
0.8451809
0.8376012
0.8376712
0.8377388
0.8377975
0.837837
0.8447504
0.8454779
0.8376004
0.8376688
0.8377346
0.8377916
0.8378298
0.8442025
0.8447866
0.8455616
0.8376001
0.8376678
0.8377335
0.8377913
0.8378309
0.8435943
0.8440287
0.8446341
0.8454363
0.8376001
0.8376682
0.8377352
0.8377961
0.8378403
0.8429043
0.8432358
0.8436844
0.8443003
0.8451117
0.8376005
0.8376696
0.8377391
0.8378055
0.8378588
0.842103
0.8423678
0.8427224
0.8431903
0.8438129
0.8445099
0.837601
0.8376716
0.8377444
0.8378185
0.8378883
0.8411201
0.8413722
0.8417076
0.8421193
0.8426213
0.8431374
0.8436463
0.8376015
0.8376737
0.83775
0.8378328
0.8379323
0.8380791
0.8381765
0.838275
0.8383771
0.8384843
0.8385983
0.838721
0.8388555
0.8390078
0.8391904
0.8396516
0.840192
0.8406719
0.8411342
0.8416104
0.8420061
0.8423557
0.8427689
0.837602
0.8376755
0.8377546
0.8378434
0.8379532
0.8380765
0.8381664
0.83826
0.8383577
0.8384604
0.8385691
0.838685
0.8388098
0.8389453
0.8390928
0.8393604
0.8397478
0.8401365
0.8405295
0.8409346
0.8412456
0.8414876
0.8417862
0.8421255
0.8376023
0.8376767
0.8377575
0.8378496
0.8379622
0.8380739
0.8381577
0.8382463
0.8383396
0.8384378
0.8385411
0.8386501
0.838765
0.8388855
0.8390093
0.8392163
0.8395214
0.8398381
0.8401663
0.840508
0.840763
0.8409445
0.841163
0.8414282
0.8417187
0.8376023
0.8376769
0.8377584
0.8378517
0.837964
0.8380692
0.8381487
0.8382333
0.8383226
0.8384166
0.8385151
0.838618
0.8387248
0.8388342
0.8389435
0.8391213
0.8393828
0.8396564
0.839942
0.8402407
0.8404597
0.8406058
0.840777
0.8409821
0.8412279
0.8414922
0.8376021
0.8376761
0.8377572
0.8378501
0.8379608
0.8380622
0.8381386
0.8382202
0.8383064
0.838397
0.8384916
0.8385898
0.8386908
0.838793
0.8388937
0.8390562
0.839295
0.8395446
0.8398052
0.8400774
0.8402737
0.8403978
0.8405402
0.8407069
0.8409061
0.8411455
0.8413964
0.8376206
0.8377368
0.8378695
0.8380286
0.8382279
0.8384262
0.8385969
0.8387895
0.8389858
0.8376184
0.8377291
0.8378545
0.8380036
0.8381903
0.8383774
0.8385362
0.8387183
0.838922
0.8391283
0.8376158
0.8377206
0.8378379
0.8379758
0.8381497
0.8383312
0.8384811
0.8386508
0.8388433
0.839058
0.8392757
0.8376132
0.8377116
0.83782
0.8379451
0.8381035
0.8382874
0.8384323
0.8385919
0.8387704
0.8389726
0.8391991
0.8394316
0.8376104
0.8377024
0.8378014
0.8379113
0.8380461
0.838248
0.8383908
0.8385421
0.8387079
0.8388937
0.8391057
0.8393464
0.8396006
0.8376078
0.8376934
0.8377831
0.8378759
0.8379655
0.8376054
0.8376852
0.8377664
0.8378451
0.8379097
0.8376033
0.8376782
0.8377525
0.8378208
0.8378711
0.844664
0.8376016
0.8376727
0.8377419
0.837803
0.8378453
0.8445227
0.8452239
0.8376004
0.8376688
0.8377346
0.8377916
0.8378298
0.8442025
0.8447866
0.8455616
0.8375997
0.8376664
0.8377306
0.8377861
0.837823
0.8437882
0.8442356
0.8448589
0.8456868
0.8375994
0.8376656
0.8377297
0.837786
0.8378244
0.8432767
0.8436261
0.8440964
0.8447441
0.8456043
0.8375994
0.8376661
0.8377315
0.8377909
0.8378339
0.8426581
0.8429378
0.843305
0.8437921
0.844452
0.8452226
0.8375998
0.8376675
0.8377355
0.8378003
0.8378522
0.841915
0.8421468
0.8424525
0.8428443
0.8433481
0.8439161
0.8445214
0.8376003
0.8376696
0.8377408
0.8378132
0.8378813
0.8409853
0.8412147
0.8415175
0.8418824
0.8423141
0.8427324
0.8431489
0.8436592
0.8376009
0.8376717
0.8377464
0.8378274
0.8379246
0.8380679
0.8381627
0.8382584
0.8383572
0.8384608
0.8385707
0.8386886
0.8388175
0.838963
0.8391369
0.8395782
0.8400924
0.8405437
0.8409712
0.841402
0.8417409
0.842019
0.8423693
0.8427836
0.8376014
0.8376736
0.8377511
0.837838
0.8379454
0.8380658
0.8381533
0.8382443