/*--------------------------------*- C++ -*----------------------------------*\
| =========                 |                                                 |
| \\      /  F ield         | OpenFOAM: The Open Source CFD Toolbox           |
|  \\    /   O peration     | Version:  2306                                  |
|   \\  /    A nd           | Website:  www.openfoam.com                      |
|    \\/     M anipulation  |                                                 |
\*---------------------------------------------------------------------------*/
FoamFile
{
    version     2.0;
    format      ascii;
    arch        "LSB;label=32;scalar=64";
    class       volScalarField;
    location    "0.3/phiEC";
    object      T;
}
// * * * * * * * * * * * * * * * * * * * * * * * * * * * * * * * * * * * * * //

dimensions      [0 0 0 1 0 0 0];

internalField   nonuniform List<scalar> 
20000
(
1044.54
1044.539
1045.577
1044.504
1044.536
1045.576
1044.502
1046.98
1045.564
1044.432
1044.533
1045.575
1044.499
1046.98
1045.564
1044.429
1048.461
1046.979
1045.541
1044.327
1044.529
1045.574
1044.494
1046.979
1045.562
1044.424
1048.46
1046.979
1045.54
1044.322
1049.909
1048.464
1046.978
1045.508
1044.195
1044.525
1045.572
1044.489
1046.978
1045.561
1044.416
1048.459
1046.977
1045.538
1044.313
1049.909
1048.463
1046.977
1045.507
1044.185
1051.289
1049.914
1048.472
1046.979
1045.47
1044.086
1044.521
1045.57
1044.483
1046.976
1045.558
1044.408
1048.458
1046.976
1045.535
1044.3
1049.908
1048.462
1046.975
1045.504
1044.168
1051.289
1049.914
1048.471
1046.977
1045.468
1044.07
1052.59
1051.294
1049.925
1048.485
1046.984
1045.443
1044.015
1044.518
1045.569
1044.478
1046.975
1045.556
1044.398
1048.457
1046.974
1045.532
1044.285
1049.907
1048.461
1046.973
1045.5
1044.144
1051.288
1049.912
1048.469
1046.974
1045.463
1044.039
1052.589
1051.294
1049.924
1048.483
1046.982
1045.439
1043.995
1053.813
1052.595
1051.305
1049.942
1048.506
1046.993
1045.427
1043.951
1044.515
1045.567
1044.473
1046.973
1045.554
1044.388
1048.455
1046.972
1045.528
1044.269
1049.906
1048.459
1046.97
1045.495
1044.119
1051.287
1049.911
1048.466
1046.97
1045.457
1043.992
1052.589
1051.292
1049.922
1048.48
1046.978
1045.431
1043.953
1053.813
1052.594
1051.304
1049.94
1048.504
1046.991
1045.421
1043.927
1054.964
1053.818
1052.605
1051.323
1049.968
1048.529
1047.002
1045.415
1043.897
1044.514
1045.566
1044.469
1046.972
1045.552
1044.38
1048.454
1046.97
1045.525
1044.25
1049.904
1048.456
1046.966
1045.489
1044.101
1051.285
1049.909
1048.463
1046.965
1045.45
1043.933
1052.588
1051.291
1049.919
1048.476
1046.972
1045.42
1043.89
1053.812
1052.593
1051.302
1049.938
1048.5
1046.986
1045.411
1043.876
1054.964
1053.817
1052.604
1051.321
1049.966
1048.528
1046.999
1045.408
1043.869
1056.048
1054.968
1053.828
1052.622
1051.349
1049.995
1048.547
1047.014
1045.408
1043.856
1044.514
1045.565
1044.467
1046.971
1045.55
1044.373
1048.452
1046.968
1045.521
1044.233
1049.903
1048.454
1046.963
1045.483
1044.06
1051.284
1049.907
1048.459
1046.959
1045.445
1052.586
1051.289
1049.916
1048.47
1046.963
1045.408
1043.801
1053.811
1052.592
1051.3
1049.933
1048.494
1046.98
1045.395
1043.798
1054.963
1053.816
1052.603
1051.319
1049.962
1048.524
1046.994
1045.394
1043.812
1056.048
1054.968
1053.827
1052.621
1051.347
1049.993
1048.546
1047.011
1045.4
1043.826
1057.072
1056.052
1054.977
1053.843
1052.647
1051.376
1050.015
1048.568
1047.029
1045.408
1043.83
1044.515
1045.565
1044.467
1046.971
1045.549
1044.369
1048.451
1046.967
1045.518
1044.219
1049.901
1048.453
1046.96
1045.476
1044.02
1051.283
1049.905
1048.456
1046.952
1045.432
1052.585
1051.287
1049.913
1048.463
1046.951
1053.81
1052.59
1051.297
1049.928
1048.484
1046.974
1045.375
1043.686
1054.962
1053.815
1052.601
1051.315
1049.956
1048.52
1046.987
1045.373
1043.723
1056.047
1054.967
1053.825
1052.618
1051.344
1049.991
1048.542
1047.005
1045.384
1043.765
1057.071
1056.052
1054.977
1053.842
1052.646
1051.375
1050.014
1048.566
1047.026
1045.4
1043.799
1058.039
1057.075
1056.061
1054.992
1053.867
1052.673
1051.396
1050.038
1048.591
1047.048
1045.416
1043.819
1044.518
1045.566
1044.469
1046.971
1045.549
1044.369
1048.451
1046.966
1045.517
1044.211
1049.901
1048.451
1046.957
1045.47
1043.99
1051.282
1049.903
1048.453
1046.946
1045.416
1052.584
1051.285
1049.909
1048.457
1046.938
1053.809
1052.588
1051.294
1049.921
1048.469
1054.961
1053.814
1052.598
1051.309
1049.947
1048.515
1046.978
1045.345
1043.596
1056.047
1054.966
1053.823
1052.615
1051.338
1049.987
1048.538
1046.996
1045.359
1043.669
1057.071
1056.051
1054.975
1053.84
1052.643
1051.373
1050.012
1048.563
1047.019
1045.382
1043.736
1058.038
1057.075
1056.06
1054.991
1053.865
1052.672
1051.395
1050.037
1048.589
1047.045
1045.408
1043.787
1058.954
1058.042
1057.083
1056.074
1055.013
1053.89
1052.692
1051.418
1050.062
1048.616
1047.072
1045.432
1043.822
1044.521
1045.567
1044.473
1046.971
1045.55
1044.373
1048.451
1046.966
1045.517
1044.211
1049.9
1048.451
1046.956
1045.467
1043.974
1051.281
1049.902
1048.45
1046.942
1045.403
1052.583
1051.284
1049.906
1048.451
1046.926
1053.808
1052.587
1051.29
1049.915
1048.456
1054.96
1053.812
1052.595
1051.303
1049.931
1056.046
1054.965
1053.821
1052.61
1051.329
1049.983
1048.533
1046.983
1045.324
1043.535
1057.07
1056.05
1054.973
1053.837
1052.638
1051.369
1050.009
1048.558
1047.009
1045.355
1043.638
1058.038
1057.074
1056.059
1054.989
1053.862
1052.67
1051.393
1050.035
1048.586
1047.038
1045.39
1043.724
1058.954
1058.042
1057.082
1056.073
1055.012
1053.889
1052.691
1051.417
1050.061
1048.615
1047.069
1045.424
1043.792
1059.821
1058.957
1058.049
1057.096
1056.094
1055.035
1053.908
1052.712
1051.442
1050.089
1048.644
1047.1
1045.456
1043.841
1044.525
1045.569
1044.478
1046.972
1045.552
1044.38
1048.451
1046.967
1045.518
1044.219
1049.9
1048.451
1046.956
1045.467
1043.974
1051.28
1049.901
1048.449
1046.94
1045.396
1052.582
1051.283
1049.904
1048.447
1046.917
1053.807
1052.585
1051.288
1049.909
1048.446
1054.959
1053.81
1052.592
1051.297
1049.919
1056.045
1054.963
1053.818
1052.604
1051.314
1057.069
1056.049
1054.971
1053.832
1052.629
1051.366
1050.006
1048.552
1046.994
1045.316
1043.501
1058.037
1057.073
1056.057
1054.986
1053.858
1052.667
1051.391
1050.032
1048.581
1047.027
1045.362
1043.628
1058.953
1058.041
1057.081
1056.071
1055.01
1053.888
1052.689
1051.416
1050.06
1048.612
1047.062
1045.408
1043.73
1059.821
1058.957
1058.049
1057.095
1056.093
1055.035
1053.907
1052.712
1051.441
1050.088
1048.643
1047.097
1045.449
1043.81
1060.643
1059.824
1058.964
1058.061
1057.114
1056.114
1055.052
1053.927
1052.734
1051.467
1050.117
1048.675
1047.131
1045.487
1043.873
1044.529
1045.57
1044.483
1046.973
1045.554
1044.388
1048.452
1046.968
1045.521
1044.233
1049.901
1048.451
1046.957
1045.47
1043.99
1051.28
1049.901
1048.449
1046.94
1045.396
1052.582
1051.282
1049.903
1048.445
1046.913
1053.806
1052.584
1051.286
1049.906
1048.439
1054.958
1053.809
1052.589
1051.292
1049.91
1056.044
1054.962
1053.815
1052.599
1051.303
1057.068
1056.047
1054.969
1053.827
1052.615
1058.036
1057.072
1056.055
1054.982
1053.85
1052.664
1051.389
1050.028
1048.574
1047.01
1045.323
1043.494
1058.952
1058.04
1057.08
1056.068
1055.005
1053.885
1052.687
1051.414
1050.057
1048.606
1047.051
1045.382
1043.638
1059.82
1058.956
1058.048
1057.093
1056.091
1055.033
1053.906
1052.711
1051.44
1050.086
1048.64
1047.091
1045.434
1043.751
1060.643
1059.824
1058.963
1058.06
1057.113
1056.114
1055.051
1053.926
1052.734
1051.467
1050.116
1048.674
1047.129
1045.481
1043.842
1061.422
1060.646
1059.83
1058.975
1058.078
1057.133
1056.129
1055.069
1053.947
1052.758
1051.494
1050.147
1048.707
1047.166
1045.524
1044.413
1044.533
1045.572
1044.489
1046.975
1045.556
1044.398
1048.454
1046.97
1045.525
1044.25
1049.901
1048.453
1046.96
1045.476
1044.02
1051.281
1049.902
1048.45
1046.942
1045.403
1052.582
1051.282
1049.903
1048.445
1046.913
1053.806
1052.584
1051.285
1049.904
1048.435
1054.958
1053.808
1052.588
1051.289
1049.904
1056.043
1054.96
1053.813
1052.594
1051.295
1057.067
1056.046
1054.966
1053.822
1052.605
1058.035
1057.071
1056.052
1054.977
1053.837
1058.952
1058.039
1057.078
1056.065
1054.998
1053.882
1052.685
1051.412
1050.053
1048.599
1047.035
1045.346
1043.512
1059.819
1058.955
1058.046
1057.09
1056.087
1055.031
1053.904
1052.709
1051.438
1050.084
1048.636
1047.082
1045.412
1043.662
1060.642
1059.823
1058.962
1058.059
1057.111
1056.112
1055.05
1053.926
1052.733
1051.466
1050.115
1048.672
1047.125
1045.469
1043.782
1061.422
1060.645
1059.83
1058.974
1058.077
1057.132
1056.129
1055.069
1053.947
1052.758
1051.494
1050.147
1048.707
1047.165
1045.519
1044.371
1062.162
1061.425
1060.652
1059.841
1058.991
1058.096
1057.147
1056.146
1055.088
1053.969
1052.783
1051.521
1050.177
1048.741
1047.202
1046.028
1045.452
1044.536
1045.574
1044.494
1046.976
1045.558
1044.408
1048.455
1046.972
1045.528
1044.269
1049.903
1048.454
1046.963
1045.483
1044.06
1051.282
1049.903
1048.453
1046.946
1045.416
1052.582
1051.283
1049.904
1048.447
1046.917
1053.806
1052.584
1051.285
1049.904
1048.435
1054.957
1053.808
1052.587
1051.287
1049.9
1056.042
1054.959
1053.811
1052.591
1051.289
1057.066
1056.045
1054.964
1053.818
1052.597
1058.035
1057.069
1056.05
1054.972
1053.828
1058.951
1058.038
1057.075
1056.06
1054.986
1059.819
1058.954
1058.044
1057.087
1056.08
1055.028
1053.902
1052.707
1051.436
1050.08
1048.629
1047.068
1045.382
1043.548
1060.642
1059.822
1058.961
1058.056
1057.107
1056.11
1055.048
1053.924
1052.732
1051.464
1050.114
1048.669
1047.119
1045.451
1043.695
1061.422
1060.645
1059.829
1058.973
1058.075
1057.131
1056.128
1055.068
1053.946
1052.757
1051.493
1050.146
1048.707
1047.163
1045.508
1044.278
1062.161
1061.425
1060.651
1059.84
1058.99
1058.095
1057.146
1056.145
1055.088
1053.969
1052.783
1051.522
1050.178
1048.742
1047.202
1046.022
1045.389
1062.863
1062.164
1061.431
1060.662
1059.856
1059.008
1058.109
1057.162
1056.163
1055.108
1053.992
1052.808
1051.55
1050.209
1048.775
1047.652
1046.992
1046.497
1044.539
1045.575
1044.499
1046.978
1045.561
1044.416
1048.457
1046.974
1045.532
1044.285
1049.904
1048.456
1046.966
1045.489
1044.101
1051.283
1049.905
1048.456
1046.952
1045.432
1052.583
1051.284
1049.906
1048.451
1046.926
1053.806
1052.584
1051.286
1049.906
1048.439
1054.957
1053.808
1052.587
1051.287
1049.9
1056.042
1054.959
1053.811
1052.59
1051.287
1057.066
1056.044
1054.963
1053.815
1052.592
1058.034
1057.068
1056.048
1054.968
1053.821
1058.95
1058.036
1057.073
1056.056
1054.978
1059.818
1058.953
1058.042
1057.082
1056.069
1060.641
1059.821
1058.959
1058.053
1057.101
1056.108
1055.047
1053.923
1052.73
1051.462
1050.11
1048.664
1047.109
1045.43
1043.587
1061.421
1060.644
1059.827
1058.97
1058.072
1057.129
1056.126
1055.067
1053.945
1052.756
1051.492
1050.146
1048.706
1047.16
1045.495
1044.096
1062.161
1061.424
1060.65
1059.839
1058.988
1058.094
1057.145
1056.145
1055.087
1053.969
1052.782
1051.522
1050.179
1048.743
1047.202
1046.013
1045.24
1062.862
1062.164
1061.43
1060.661
1059.855
1059.007
1058.109
1057.162
1056.163
1055.108
1053.992
1052.808
1051.551
1050.21
1048.777
1047.655
1046.986
1046.418
1063.527
1062.865
1062.17
1061.441
1060.677
1059.872
1059.02
1058.123
1057.178
1056.182
1055.129
1054.015
1052.834
1051.578
1050.24
1049.174
1048.513
1047.956
1047.553
1044.54
1045.576
1044.502
1046.979
1045.562
1044.424
1048.458
1046.976
1045.535
1044.3
1049.906
1048.459
1046.97
1045.495
1044.119
1051.284
1049.907
1048.459
1046.959
1045.445
1052.584
1051.285
1049.909
1048.457
1046.938
1053.807
1052.585
1051.288
1049.909
1048.446
1054.958
1053.808
1052.588
1051.289
1049.904
1056.042
1054.959
1053.811
1052.59
1051.287
1057.066
1056.044
1054.962
1053.814
1052.59
1058.033
1057.067
1056.047
1054.966
1053.816
1058.949
1058.035
1057.071
1056.052
1054.971
1059.817
1058.952
1058.04
1057.078
1056.061
1060.64
1059.82
1058.957
1058.049
1057.091
1061.42
1060.643
1059.826
1058.967
1058.066
1057.127
1056.125
1055.065
1053.944
1052.755
1051.491
1050.144
1048.703
1047.156
1045.483
1043.58
1062.16
1061.423
1060.649
1059.836
1058.985
1058.092
1057.144
1056.143
1055.086
1053.968
1052.782
1051.522
1050.18
1048.745
1047.204
1046.007
1044.916
1062.862
1062.163
1061.43
1060.66
1059.854
1059.006
1058.108
1057.161
1056.162
1055.108
1053.992
1052.809
1051.552
1050.213
1048.78
1047.665
1046.978
1046.225
1063.527
1062.865
1062.169
1061.44
1060.676
1059.871
1059.02
1058.123
1057.178
1056.182
1055.129
1054.016
1052.835
1051.58
1050.242
1049.18
1048.522
1047.951
1047.461
1064.156
1063.529
1062.871
1062.179
1061.455
1060.692
1059.884
1059.034
1058.139
1057.196
1056.201
1055.151
1054.039
1052.86
1051.607
1050.594
1049.937
1049.372
1048.922
1048.62
1045.577
1044.504
1046.98
1045.564
1044.429
1048.459
1046.977
1045.538
1044.313
1049.907
1048.461
1046.973
1045.5
1044.144
1051.285
1049.909
1048.463
1046.965
1045.45
1043.933
1052.585
1051.287
1049.913
1048.463
1046.951
1053.808
1052.587
1051.29
1049.915
1048.456
1054.958
1053.809
1052.589
1051.292
1049.91
1056.042
1054.959
1053.811
1052.591
1051.289
1057.066
1056.044
1054.962
1053.814
1052.59
1058.033
1057.067
1056.046
1054.965
1053.814
1058.949
1058.035
1057.07
1056.05
1054.967
1059.817
1058.951
1058.038
1057.075
1056.055
1060.639
1059.819
1058.955
1058.045
1057.083
1061.42
1060.642
1059.824
1058.963
1058.056
1039.88
1062.16
1061.422
1060.647
1059.833
1058.98
1058.09
1057.143
1056.142
1055.085
1053.967
1052.781
1051.522
1050.18
1048.747
1047.209
1046.06
1044.068
1062.861
1062.163
1061.428
1060.658
1059.85
1059.004
1058.106
1057.16
1056.162
1055.107
1053.992
1052.81
1051.554
1050.217
1048.786
1047.696
1046.977
1045.814
1063.526
1062.864
1062.169
1061.438
1060.674
1059.87
1059.019
1058.122
1057.178
1056.181
1055.129
1054.016
1052.837
1051.583
1050.246
1049.195
1048.547
1047.941
1047.242
1064.155
1063.529
1062.87
1062.178
1061.454
1060.691
1059.883
1059.033
1058.138
1057.196
1056.201
1055.151
1054.04
1052.862
1051.609
1050.601
1049.95
1049.385
1048.915
1048.523
1064.75
1064.158
1063.535
1062.879
1062.193
1061.469
1060.703
1059.897
1059.048
1058.155
1057.214
1056.221
1055.173
1054.063
1052.886
1051.924
1051.273
1050.697
1050.228
1049.887
1049.191
1046.98
1045.564
1044.432
1048.46
1046.979
1045.54
1044.322
1049.908
1048.462
1046.975
1045.504
1044.168
1051.287
1049.911
1048.466
1046.97
1045.457
1043.992
1052.586
1051.289
1049.916
1048.47
1046.963
1045.408
1043.801
1053.809
1052.588
1051.294
1049.921
1048.469
1054.959
1053.81
1052.592
1051.297
1049.919
1056.043
1054.96
1053.813
1052.594
1051.295
1057.066
1056.044
1054.963
1053.815
1052.592
1058.033
1057.067
1056.046
1054.965
1053.814
1058.949
1058.034
1057.07
1056.049
1054.965
1059.816
1058.95
1058.037
1057.073
1056.051
1060.639
1059.818
1058.954
1058.042
1057.078
1061.419
1060.641
1059.822
1058.96
1058.049
1035.468
1062.159
1061.421
1060.646
1059.83
1058.97
1046.861
1041.206
1062.861
1062.162
1061.427
1060.655
1059.845
1059.002
1058.105
1057.159
1056.16
1055.106
1053.991
1052.81
1051.555
1050.221
1048.796
1047.854
1047.043
1044.871
1063.526
1062.864
1062.167
1061.436
1060.671
1059.869
1059.018
1058.121
1057.177
1056.181
1055.129
1054.017
1052.839
1051.587
1050.254
1049.236
1048.618
1047.936
1046.793
1064.155
1063.528
1062.869
1062.177
1061.452
1060.69
1059.882
1059.033
1058.138
1057.195
1056.201
1055.152
1054.041
1052.865
1051.613
1050.617
1049.985
1049.421
1048.903
1048.292
1064.75
1064.158
1063.534
1062.879
1062.192
1061.468
1060.702
1059.896
1059.048
1058.155
1057.214
1056.221
1055.173
1054.064
1052.888
1051.93
1051.287
1050.717
1050.245
1049.88
1049.093
1065.312
1064.753
1064.163
1063.543
1062.893
1062.207
1061.48
1060.715
1059.91
1059.063
1058.172
1057.232
1056.241
1055.194
1054.086
1053.171
1052.53
1051.948
1051.455
1051.082
1050.398
1049.252
1048.461
1046.979
1045.541
1044.327
1049.909
1048.463
1046.977
1045.507
1044.185
1051.288
1049.912
1048.469
1046.974
1045.463
1044.039
1052.588
1051.291
1049.919
1048.476
1046.972
1045.42
1043.89
1053.81
1052.59
1051.297
1049.928
1048.484
1046.974
1045.375
1043.686
1054.96
1053.812
1052.595
1051.303
1049.931
1056.044
1054.962
1053.815
1052.599
1051.303
1057.066
1056.045
1054.964
1053.818
1052.597
1058.033
1057.067
1056.047
1054.966
1053.816
1058.949
1058.034
1057.07
1056.049
1054.965
1059.816
1058.95
1058.037
1057.072
1056.05
1060.638
1059.817
1058.953
1058.04
1057.074
1061.418
1060.64
1059.821
1058.957
1058.044
1031.984
1062.158
1061.421
1060.644
1059.826
1058.964
1046.296
1037.73
1062.86
1062.161
1061.425
1060.651
1059.837
1049.394
1047.428
1042.619
1063.525
1062.863
1062.166
1061.434
1060.666
1059.867
1059.016
1058.12
1057.176
1056.18
1055.128
1054.017
1052.84
1051.592
1050.265
1049.417
1048.865
1047.974
1045.875
1064.155
1063.528
1062.868
1062.175
1061.449
1060.688
1059.881
1059.032
1058.137
1057.195
1056.201
1055.152
1054.043
1052.869
1051.621
1050.661
1050.076
1049.511
1048.888
1047.842
1064.75
1064.157
1063.533
1062.878
1062.19
1061.467
1060.701
1059.896
1059.047
1058.154
1057.214
1056.222
1055.175
1054.067
1052.892
1051.947
1051.324
1050.766
1050.286
1049.865
1048.864
1065.312
1064.752
1064.163
1063.543
1062.892
1062.206
1061.479
1060.715
1059.91
1059.063
1058.172
1057.233
1056.242
1055.196
1054.088
1053.178
1052.545
1051.969
1051.478
1051.1
1050.391
1049.154
1065.841
1065.314
1064.758
1064.172
1063.556
1062.906
1062.217
1061.491
1060.728
1059.925
1059.079
1058.189
1057.251
1056.262
1055.216
1054.346
1053.718
1053.134
1052.621
1052.208
1051.532
1050.452
1049.313
1049.909
1048.464
1046.978
1045.508
1044.195
1051.289
1049.914
1048.471
1046.977
1045.468
1044.07
1052.589
1051.292
1049.922
1048.48
1046.978
1045.431
1043.953
1053.811
1052.592
1051.3
1049.933
1048.494
1046.98
1045.395
1043.798
1054.961
1053.814
1052.598
1051.309
1049.947
1048.515
1046.978
1045.345
1043.596
1056.045
1054.963
1053.818
1052.604
1051.314
1057.067
1056.046
1054.966
1053.822
1052.605
1058.034
1057.068
1056.048
1054.968
1053.821
1058.949
1058.035
1057.07
1056.05
1054.967
1059.816
1058.95
1058.037
1057.072
1056.05
1060.638
1059.817
1058.952
1058.039
1057.072
1061.418
1060.639
1059.82
1058.955
1058.041
1029.647
1062.158
1061.42
1060.643
1059.824
1058.959
1045.397
1034.831
1062.859
1062.16
1061.423
1060.648
1059.83
1049.761
1047.027
1039.885
1063.524
1062.862
1062.164
1061.43
1060.658
1051.091
1049.844
1048.126
1044.099
1064.154
1063.527
1062.867
1062.172
1061.445
1060.686
1059.88
1059.031
1058.136
1057.194
1056.201
1055.152
1054.045
1052.874
1051.632
1050.84
1050.366
1049.758
1048.887
1047.011
1064.749
1064.157
1063.532
1062.876
1062.188
1061.466
1060.7
1059.895
1059.047
1058.154
1057.214
1056.223
1055.177
1054.071
1052.9
1051.989
1051.418
1050.882
1050.378
1049.838
1048.426
1065.311
1064.752
1064.162
1063.541
1062.89
1062.205
1061.478
1060.714
1059.909
1059.063
1058.172
1057.233
1056.244
1055.198
1054.092
1053.194
1052.581
1052.021
1051.535
1051.143
1050.374
1048.925
1065.841
1065.314
1064.757
1064.171
1063.555
1062.905
1062.216
1061.491
1060.728
1059.925
1059.079
1058.19
1057.252
1056.263
1055.218
1054.352
1053.732
1053.155
1052.646
1052.234
1051.55
1050.445
1049.215
1066.339
1065.843
1065.319
1064.766
1064.184
1063.569
1062.916
1062.228
1061.504
1060.742
1059.94
1059.096
1058.207
1057.27
1056.281
1055.453
1054.842
1054.262
1053.735
1053.289
1052.604
1051.579
1050.507
1049.374
1051.289
1049.914
1048.472
1046.979
1045.47
1044.086
1052.589
1051.294
1049.924
1048.483
1046.982
1045.439
1043.995
1053.812
1052.593
1051.302
1049.938
1048.5
1046.986
1045.411
1043.876
1054.962
1053.815
1052.601
1051.315
1049.956
1048.52
1046.987
1045.373
1043.723
1056.046
1054.965
1053.821
1052.61
1051.329
1049.983
1048.533
1046.983
1045.324
1043.535
1057.068
1056.047
1054.969
1053.827
1052.615
1058.035
1057.069
1056.05
1054.972
1053.828
1058.949
1058.035
1057.071
1056.052
1054.971
1059.816
1058.95
1058.037
1057.073
1056.051
1060.638
1059.817
1058.952
1058.039
1057.072
1061.418
1060.639
1059.819
1058.954
1058.039
1028.481
1062.157
1061.419
1060.642
1059.822
1058.956
1044.6
1032.836
1062.859
1062.159
1061.422
1060.646
1059.826
1049.713
1046.339
1037.515
1063.524
1062.861
1062.163
1061.427
1060.652
1051.747
1050.198
1047.812
1041.967
1064.153
1063.526
1062.865
1062.169
1061.437
1052.466
1051.473
1050.394
1048.903
1045.627
1064.749
1064.156
1063.531
1062.873
1062.183
1061.464
1060.699
1059.894
1059.046
1058.153
1057.213
1056.223
1055.178
1054.076
1052.91
1052.159
1051.709
1051.183
1050.587
1049.798
1047.655
1065.311
1064.751
1064.161
1063.539
1062.888
1062.203
1061.477
1060.713
1059.909
1059.062
1058.172
1057.234
1056.245
1055.202
1054.099
1053.233
1052.672
1052.142
1051.658
1051.226
1050.341
1048.488
1065.84
1065.313
1064.757
1064.17
1063.554
1062.904
1062.216
1061.49
1060.727
1059.924
1059.079
1058.19
1057.253
1056.265
1055.222
1054.367
1053.767
1053.207
1052.707
1052.294
1051.591
1050.428
1048.986
1066.338
1065.843
1065.319
1064.765
1064.183
1063.568
1062.916
1062.228
1061.504
1060.742
1059.94
1059.096
1058.208
1057.271
1056.283
1055.459
1054.855
1054.282
1053.76
1053.316
1052.63
1051.598
1050.5
1049.276
1066.805
1066.341
1065.848
1065.327
1064.778
1064.197
1063.579
1062.927
1062.24
1061.517
1060.756
1059.955
1059.113
1058.225
1057.289
1056.5
1055.907
1055.336
1054.803
1054.331
1053.639
1052.646
1051.627
1050.561
1049.435
1052.59
1051.294
1049.925
1048.485
1046.984
1045.443
1044.015
1053.813
1052.594
1051.304
1049.94
1048.504
1046.991
1045.421
1043.927
1054.963
1053.816
1052.603
1051.319
1049.962
1048.524
1046.994
1045.394
1043.812
1056.047
1054.966
1053.823
1052.615
1051.338
1049.987
1048.538
1046.996
1045.359
1043.669
1057.069
1056.049
1054.971
1053.832
1052.629
1051.366
1050.006
1048.552
1046.994
1045.316
1043.501
1058.035
1057.071
1056.052
1054.977
1053.837
1058.95
1058.036
1057.073
1056.056
1054.978
1059.817
1058.951
1058.038
1057.075
1056.055
1060.638
1059.817
1058.953
1058.04
1057.074
1061.418
1060.639
1059.819
1058.954
1058.039
1028.481
1062.157
1061.419
1060.641
1059.821
1058.954
1044.146
1031.829
1062.858
1062.159
1061.421
1060.644
1059.823
1049.549
1045.711
1035.846
1063.523
1062.86
1062.161
1061.425
1060.647
1052.004
1050.215
1047.283
1040.07
1064.153
1063.525
1062.864
1062.166
1061.431
1053.192
1052.059
1050.691
1048.64
1044
1064.748
1064.155
1063.529
1062.87
1062.175
1053.681
1052.8
1051.938
1050.999
1049.727
1046.451
1065.31
1064.75
1064.16
1063.537
1062.883
1062.202
1061.476
1060.712
1059.908
1059.062
1058.171
1057.234
1056.247
1055.207
1054.109
1053.392
1052.95
1052.448
1051.926
1051.383
1050.283
1047.724
1065.84
1065.313
1064.755
1064.168
1063.551
1062.903
1062.215
1061.49
1060.727
1059.924
1059.079
1058.191
1057.255
1056.269
1055.228
1054.404
1053.853
1053.325
1052.837
1052.411
1051.667
1050.394
1048.552
1066.338
1065.843
1065.318
1064.764
1064.182
1063.567
1062.915
1062.227
1061.503
1060.741
1059.94
1059.097
1058.209
1057.274
1056.287
1055.473
1054.889
1054.332
1053.821
1053.382
1052.69
1051.639
1050.482
1049.048
1066.805
1066.341
1065.848
1065.327
1064.777
1064.196
1063.578
1062.926
1062.24
1061.517
1060.756
1059.956
1059.113
1058.226
1057.29
1056.506
1055.92
1055.355
1054.827
1054.359
1053.668
1052.672
1051.646
1050.554
1049.338
1067.241
1066.807
1066.346
1065.856
1065.339
1064.79
1064.206
1063.589
1062.938
1062.253
1061.531
1060.771
1059.971
1059.129
1058.242
1057.492
1056.919
1056.359
1055.826
1055.339
1054.644
1053.676
1052.688
1051.675
1050.616
1049.493
1053.813
1052.595
1051.305
1049.942
1048.506
1046.993
1045.427
1043.951
1054.964
1053.817
1052.604
1051.321
1049.966
1048.528
1046.999
1045.408
1043.869
1056.047
1054.967
1053.825
1052.618
1051.344
1049.991
1048.542
1047.005
1045.384
1043.765
1057.07
1056.05
1054.973
1053.837
1052.638
1051.369
1050.009
1048.558
1047.009
1045.355
1043.638
1058.036
1057.072
1056.055
1054.982
1053.85
1052.664
1051.389
1050.028
1048.574
1047.01
1045.323
1043.494
1058.951
1058.038
1057.075
1056.06
1054.986
1059.817
1058.952
1058.04
1057.078
1056.061
1060.639
1059.818
1058.954
1058.042
1057.078
1061.418
1060.639
1059.82
1058.955
1058.041
1029.647
1062.157
1061.419
1060.641
1059.821
1058.954
1044.146
1031.829
1062.858
1062.158
1061.421
1060.643
1059.821
1049.43
1045.348
1034.994
1063.523
1062.86
1062.16
1061.423
1060.645
1052.084
1050.117
1046.792
1038.707
1064.152
1063.524
1062.862
1062.164
1061.427
1053.549
1052.324
1050.739
1048.23
1042.525
1064.747
1064.154
1063.528
1062.867
1062.17
1054.399
1053.44
1052.423
1051.225
1049.497
1045.055
1065.31
1064.75
1064.158
1063.534
1062.876
1054.802
1053.979
1053.205
1052.445
1051.634
1050.178
1046.539
1065.839
1065.312
1064.754
1064.166
1063.547
1062.901
1062.213
1061.489
1060.726
1059.923
1059.079
1058.191
1057.257
1056.273
1055.238
1054.552
1054.114
1053.619
1053.114
1052.627
1051.796
1050.334
1047.794
1066.338
1065.842
1065.317
1064.762
1064.179
1063.566
1062.914
1062.226
1061.503
1060.741
1059.94
1059.097
1058.211
1057.277
1056.293
1055.509
1054.97
1054.445
1053.949
1053.507
1052.8
1051.714
1050.448
1048.615
1066.805
1066.34
1065.847
1065.325
1064.776
1064.195
1063.577
1062.926
1062.239
1061.517
1060.756
1059.956
1059.114
1058.228
1057.294
1056.52
1055.952
1055.403
1054.886
1054.425
1053.733
1052.732
1051.687
1050.537
1049.11
1067.241
1066.807
1066.345
1065.855
1065.338
1064.79
1064.206
1063.589
1062.938
1062.253
1061.531
1060.771
1059.972
1059.13
1058.243
1057.497
1056.931
1056.378
1055.85
1055.367
1054.673
1053.705
1052.714
1051.693
1050.609
1049.396
1067.647
1067.243
1066.812
1066.353
1065.868
1065.351
1064.799
1064.216
1063.6
1062.951
1062.266
1061.545
1060.786
1059.987
1059.145
1058.432
1057.881
1057.336
1056.808
1056.313
1055.62
1054.677
1053.713
1052.73
1051.723
1050.667
1049.536
1054.964
1053.818
1052.605
1051.323
1049.968
1048.529
1047.002
1045.415
1043.897
1056.048
1054.968
1053.827
1052.621
1051.347
1049.993
1048.546
1047.011
1045.4
1043.826
1057.071
1056.051
1054.975
1053.84
1052.643
1051.373
1050.012
1048.563
1047.019
1045.382
1043.736
1058.037
1057.073
1056.057
1054.986
1053.858
1052.667
1051.391
1050.032
1048.581
1047.027
1045.362
1043.628
1058.952
1058.039
1057.078
1056.065
1054.998
1053.882
1052.685
1051.412
1050.053
1048.599
1047.035
1045.346
1043.512
1059.818
1058.953
1058.042
1057.082
1056.069
1060.639
1059.819
1058.955
1058.045
1057.083
1061.418
1060.64
1059.821
1058.957
1058.044
1031.984
1062.157
1061.419
1060.642
1059.822
1058.956
1044.6
1032.836
1062.858
1062.158
1061.421
1060.643
1059.821
1049.43
1045.348
1034.994
1063.523
1062.859
1062.16
1061.422
1060.643
1052.1
1050.036
1046.507
1038.003
1064.152
1063.524
1062.861
1062.162
1061.424
1053.718
1052.426
1050.685
1047.852
1041.447
1064.747
1064.153
1063.527
1062.865
1062.166
1054.779
1053.784
1052.671
1051.28
1049.181
1043.783
1065.309
1064.749
1064.157
1063.531
1062.87
1055.483
1054.611
1053.736
1052.825
1051.788
1049.959
1045.167
1065.839
1065.311
1064.753
1064.163
1063.54
1055.856
1055.071
1054.341
1053.646
1052.973
1051.977
1050.226
1046.627
1066.337
1065.841
1065.316
1064.76
1064.175
1063.564
1062.913
1062.225
1061.502
1060.74
1059.939
1059.097
1058.212
1057.281
1056.302
1055.647
1055.213
1054.722
1054.218
1053.737
1052.987
1051.84
1050.386
1047.864
1066.804
1066.339
1065.846
1065.324
1064.773
1064.194
1063.576
1062.925
1062.239
1061.516
1060.756
1059.957
1059.116
1058.231
1057.3
1056.553
1056.029
1055.51
1055.009
1054.55
1053.852
1052.841
1051.761
1050.502
1048.68
1067.241
1066.807
1066.344
1065.854
1065.337
1064.789
1064.205
1063.588
1062.938
1062.252
1061.531
1060.772
1059.973
1059.132
1058.247
1057.51
1056.962
1056.423
1055.907
1055.43
1054.738
1053.77
1052.774
1051.735
1050.591
1049.169
1067.647
1067.243
1066.812
1066.353
1065.867
1065.351
1064.799
1064.216
1063.6
1062.951
1062.266
1061.545
1060.787
1059.988
1059.147
1058.437
1057.892
1057.353
1056.831
1056.34
1055.649
1054.706
1053.742
1052.757
1051.741
1050.66
1049.439
1068.024
1067.649
1067.248
1066.82
1066.365
1065.879
1065.36
1064.809
1064.227
1063.612
1062.963
1062.28
1061.56
1060.801
1060.003
1059.324
1058.796
1058.268
1057.749
1057.253
1056.568
1055.65
1054.711
1053.751
1052.772
1051.768
1050.705
1049.569
1056.048
1054.968
1053.828
1052.622
1051.349
1049.995
1048.547
1047.014
1045.408
1043.856
1057.071
1056.052
1054.977
1053.842
1052.646
1051.375
1050.014
1048.566
1047.026
1045.4
1043.799
1058.038
1057.074
1056.059
1054.989
1053.862
1052.67
1051.393
1050.035
1048.586
1047.038
1045.39
1043.724
1058.952
1058.04
1057.08
1056.068
1055.005
1053.885
1052.687
1051.414
1050.057
1048.606
1047.051
1045.382
1043.638
1059.819
1058.954
1058.044
1057.087
1056.08
1055.028
1053.902
1052.707
1051.436
1050.08
1048.629
1047.068
1045.382
1043.548
1060.64
1059.82
1058.957
1058.049
1057.091
1061.419
1060.641
1059.822
1058.96
1058.049
1035.468
1062.158
1061.42
1060.643
1059.824
1058.959
1045.397
1034.831
1062.858
1062.159
1061.421
1060.644
1059.823
1049.549
1045.711
1035.846
1063.523
1062.859
1062.16
1061.422
1060.643
1052.1
1050.036
1046.507
1038.003
1064.152
1063.524
1062.861
1062.162
1061.423
1053.785
1052.456
1050.632
1047.631
1040.884
1064.747
1064.153
1063.526
1062.863
1062.163
1054.976
1053.958
1052.78
1051.255
1048.895
1042.844
1065.309
1064.748
1064.155
1063.529
1062.867
1055.855
1054.971
1054.048
1053.041
1051.836
1049.684
1043.916
1065.838
1065.31
1064.751
1064.16
1063.534
1056.495
1055.671
1054.865
1054.067
1053.253
1052.094
1050.008
1045.279
1066.336
1065.84
1065.314
1064.757
1064.168
1056.857
1056.103
1055.398
1054.733
1054.105
1053.258
1052.014
1050.274
1046.715
1066.804
1066.339
1065.845
1065.321
1064.769
1064.192
1063.575
1062.924
1062.238
1061.515
1060.756
1059.957
1059.117
1058.235
1057.308
1056.682
1056.257
1055.77
1055.266
1054.778
1054.055
1053.025
1051.883
1050.438
1047.935
1067.24
1066.806
1066.343
1065.853
1065.334
1064.788
1064.204
1063.587
1062.937
1062.252
1061.531
1060.772
1059.975
1059.136
1058.252
1057.542
1057.035
1056.525
1056.024
1055.552
1054.859
1053.889
1052.883
1051.808
1050.556
1048.74
1067.647
1067.243
1066.811
1066.352
1065.866
1065.35
1064.798
1064.215
1063.6
1062.95
1062.266
1061.546
1060.788
1059.99
1059.15
1058.45
1057.922
1057.397
1056.885
1056.401
1055.713
1054.772
1053.807
1052.816
1051.782
1050.642
1049.213
1068.023