/*--------------------------------*- C++ -*----------------------------------*\
| =========                 |                                                 |
| \\      /  F ield         | OpenFOAM: The Open Source CFD Toolbox           |
|  \\    /   O peration     | Version:  2306                                  |
|   \\  /    A nd           | Website:  www.openfoam.com                      |
|    \\/     M anipulation  |                                                 |
\*---------------------------------------------------------------------------*/
FoamFile
{
    version     2.0;
    format      ascii;
    arch        "LSB;label=32;scalar=64";
    class       volScalarField;
    location    "0.3/fuel";
    object      diffSp.H2;
}
// * * * * * * * * * * * * * * * * * * * * * * * * * * * * * * * * * * * * * //

dimensions      [0 2 -1 0 0 0 0];

internalField   nonuniform List<scalar> 
16000
(
8.825824e-05
8.825133e-05
8.843563e-05
8.826817e-05
8.823349e-05
8.843834e-05
8.826143e-05
8.85948e-05
8.844354e-05
8.829005e-05
8.819978e-05
8.844271e-05
8.824396e-05
8.859986e-05
8.844631e-05
8.828365e-05
8.873764e-05
8.860102e-05
8.846135e-05
8.831581e-05
8.813485e-05
8.844928e-05
8.82109e-05
8.86098e-05
8.845079e-05
8.82669e-05
8.874317e-05
8.86061e-05
8.846428e-05
8.830981e-05
8.886959e-05
8.874258e-05
8.861549e-05
8.848243e-05
8.836841e-05
8.80461e-05
8.845162e-05
8.814697e-05
8.862645e-05
8.845752e-05
8.823501e-05
8.87544e-05
8.861608e-05
8.846909e-05
8.829388e-05
8.887505e-05
8.874812e-05
8.862067e-05
8.848556e-05
8.83632e-05
8.899396e-05
8.887355e-05
8.875455e-05
8.863272e-05
8.852572e-05
0.0001325708
8.792528e-05
8.845617e-05
8.805961e-05
8.864642e-05
8.845998e-05
8.817277e-05
8.87735e-05
8.863276e-05
8.847628e-05
8.826334e-05
8.888629e-05
8.875936e-05
8.863082e-05
8.849075e-05
8.83489e-05
8.899919e-05
8.887901e-05
8.876015e-05
8.863801e-05
8.852927e-05
0.0001325633
8.911226e-05
8.899715e-05
8.888361e-05
8.876891e-05
8.866837e-05
0.0001328035
0.0001325792
8.781471e-05
8.84386e-05
8.794031e-05
8.867525e-05
8.84646e-05
8.808755e-05
8.879847e-05
8.865263e-05
8.847924e-05
8.820299e-05
8.890552e-05
8.877842e-05
8.864772e-05
8.849848e-05
8.832092e-05
8.901003e-05
8.889024e-05
8.877149e-05
8.864838e-05
8.853529e-05
0.0001325425
8.911721e-05
8.900237e-05
8.88891e-05
8.877458e-05
8.867393e-05
0.0001328089
0.0001325718
8.922537e-05
8.911483e-05
8.900571e-05
8.889576e-05
8.879888e-05
0.0001330148
0.0001328103
0.0001325908
8.773067e-05
8.841725e-05
8.783106e-05
8.868818e-05
8.84472e-05
8.797026e-05
8.883408e-05
8.868123e-05
8.848433e-05
8.81201e-05
8.89315e-05
8.880324e-05
8.866775e-05
8.850206e-05
8.826405e-05
8.902862e-05
8.890941e-05
8.879066e-05
8.866555e-05
8.854426e-05
0.0001325015
8.912753e-05
8.901319e-05
8.89004e-05
8.878605e-05
8.868482e-05
0.0001328182
0.0001325513
8.923006e-05
8.911977e-05
8.901095e-05
8.890131e-05
8.880474e-05
0.0001330232
0.0001328158
0.0001325836
8.933378e-05
8.922745e-05
8.912218e-05
8.901614e-05
8.892143e-05
0.0001332085
0.0001330203
0.0001328198
0.0001326011
8.76863e-05
8.839704e-05
8.774796e-05
8.86952e-05
8.842613e-05
8.786262e-05
8.885734e-05
8.8694e-05
8.846736e-05
8.800493e-05
8.89683e-05
8.883853e-05
8.869639e-05
8.850774e-05
8.818523e-05
8.905419e-05
8.893522e-05
8.88155e-05
8.868582e-05
8.854933e-05
0.0001324178
8.914527e-05
8.903172e-05
8.891962e-05
8.880537e-05
8.870272e-05
0.0001328319
0.0001325111
8.923987e-05
8.913007e-05
8.902182e-05
8.891269e-05
8.881656e-05
0.0001330396
0.0001328251
0.0001325636
8.933823e-05
8.923212e-05
8.912714e-05
8.902142e-05
8.892711e-05
0.0001332173
0.0001330287
0.0001328253
0.0001325941
8.94378e-05
8.933545e-05
8.923382e-05
8.913123e-05
8.903843e-05
0.0001333907
0.000133213
0.000133028
0.0001328282
0.0001326131
8.76863e-05
8.838546e-05
8.770407e-05
8.869677e-05
8.84062e-05
8.778061e-05
8.887437e-05
8.870098e-05
8.844673e-05
8.789898e-05
8.899497e-05
8.886153e-05
8.870916e-05
8.849129e-05
8.807339e-05
8.909024e-05
8.897169e-05
8.885067e-05
8.871459e-05
8.855656e-05
0.0001323015
8.916994e-05
8.905712e-05
8.894538e-05
8.883029e-05
8.872379e-05
0.0001328397
0.0001324283
8.925675e-05
8.914775e-05
8.904037e-05
8.893199e-05
8.883636e-05
0.0001330664
0.0001328388
0.0001325242
8.934756e-05
8.924191e-05
8.913747e-05
8.903234e-05
8.893874e-05
0.000133235
0.000133045
0.0001328347
0.0001325746
8.944203e-05
8.933988e-05
8.923851e-05
8.913622e-05
8.904382e-05
0.0001333992
0.0001332218
0.0001330364
0.0001328337
0.0001326063
8.953762e-05
8.943913e-05
8.934102e-05
8.924174e-05
8.915082e-05
0.0001335649
0.0001333944
0.0001332194
0.0001330349
0.0001328379
0.0003229807
8.773067e-05
8.838546e-05
8.770407e-05
8.869686e-05
8.839477e-05
8.773726e-05
8.888396e-05
8.870259e-05
8.842715e-05
8.781808e-05
8.901551e-05
8.887841e-05
8.87162e-05
8.847113e-05
8.796984e-05
8.911768e-05
8.899808e-05
8.887352e-05
8.872741e-05
8.854123e-05
0.0001321358
8.92046e-05
8.909286e-05
8.898168e-05
8.88654e-05
8.875331e-05
0.0001328506
0.0001323133
8.928041e-05
8.917225e-05
8.906569e-05
8.895775e-05
8.886175e-05
0.0001330979
0.0001328465
0.0001324426
8.936365e-05
8.925872e-05
8.915514e-05
8.905093e-05
8.895838e-05
0.0001332647
0.0001330718
0.0001328485
0.0001325359
8.945095e-05
8.934919e-05
8.924831e-05
8.914658e-05
8.905492e-05
0.0001334167
0.0001332394
0.0001330527
0.0001328432
0.0001325873
8.954167e-05
8.944335e-05
8.934546e-05
8.924645e-05
8.915589e-05
0.000133573
0.0001334029
0.0001332281
0.0001330432
0.0001328435
0.0003229663
8.963342e-05
8.953867e-05
8.944402e-05
8.9348e-05
8.925912e-05
0.0001337325
0.0001335679
0.0001333997
0.000133225
0.0001330428
0.0003235102
0.0003230573
8.781471e-05
8.839704e-05
8.774796e-05
8.869686e-05
8.839477e-05
8.773726e-05
8.888842e-05
8.870271e-05
8.841592e-05
8.777529e-05
8.902811e-05
8.888795e-05
8.871788e-05
8.845191e-05
8.789044e-05
8.913921e-05
8.901845e-05
8.889032e-05
8.873454e-05
8.85219e-05
0.0001319823
8.923175e-05
8.912003e-05
8.900787e-05
8.888814e-05
8.876657e-05
0.0001328279
0.0001321491
8.931357e-05
8.920662e-05
8.910124e-05
8.899393e-05
8.889726e-05
0.0001331419
0.0001328572
0.000132329
8.938636e-05
8.928223e-05
8.917956e-05
8.907621e-05
8.898444e-05
0.0001333025
0.000133103
0.0001328563
0.0001324555
8.946632e-05
8.936521e-05
8.926511e-05
8.916427e-05
8.907375e-05
0.000133446
0.0001332689
0.0001330794
0.0001328571
0.0001325495
8.955021e-05
8.945224e-05
8.935477e-05
8.925627e-05
8.916639e-05
0.0001335896
0.0001334202
0.0001332457
0.0001330595
0.0001328531
0.0003229246
8.96373e-05
8.95427e-05
8.944825e-05
8.935245e-05
8.926389e-05
0.0001337401
0.000133576
0.0001334081
0.0001332337
0.0001330512
0.000323524
0.0003230469
8.97253e-05
8.963423e-05
8.954299e-05
8.945021e-05
8.936353e-05
0.0001338941
0.0001337349
0.0001335723
0.0001334043
0.0001332315
0.0003239943
0.0003235683
0.0003231691
8.792528e-05
8.841725e-05
8.783106e-05
8.869677e-05
8.84062e-05
8.778061e-05
8.888842e-05
8.870271e-05
8.841592e-05
8.777529e-05
8.903423e-05
8.889239e-05
8.871806e-05
8.844088e-05
8.784836e-05
8.915282e-05
8.903095e-05
8.889983e-05
8.873631e-05
8.850323e-05
0.0001318645
8.925324e-05
8.914139e-05
8.902811e-05
8.890488e-05
8.8774e-05
0.0001327993
0.0001319971
8.934007e-05
8.923353e-05
8.91282e-05
8.901995e-05
8.892016e-05
0.0001331616
0.0001328344
0.0001321665
8.941809e-05
8.931513e-05
8.921375e-05
8.911162e-05
8.902082e-05
0.0001333554
0.0001331464
0.0001328668
0.0001323433
8.948817e-05
8.938778e-05
8.928854e-05
8.918863e-05
8.909923e-05
0.0001334849
0.0001333064
0.0001331103
0.0001328648
0.0001324704
8.956497e-05
8.946755e-05
8.937078e-05
8.927307e-05
8.918426e-05
0.0001336178
0.0001334494
0.000133275
0.0001330861
0.0001328671
0.000322841
8.964552e-05
8.955122e-05
8.945714e-05
8.936178e-05
8.927382e-05
0.0001337558
0.0001335925
0.0001334254
0.0001332512
0.0001330675
0.0003235476
0.0003230144
8.972904e-05
8.96381e-05
8.954703e-05
8.945445e-05
8.936804e-05
0.0001339012
0.0001337425
0.0001335803
0.0001334127
0.0001332402
0.0003240143
0.0003235821
0.0003231646
8.981338e-05
8.972592e-05
8.963807e-05
8.954852e-05
8.94642e-05
0.00013405
0.0001338961
0.0001337386
0.0001335762
0.0001334097
0.0003244419
0.0003240393
0.0003236526
0.0003232691
8.80461e-05
8.84386e-05
8.794031e-05
8.86952e-05
8.842613e-05
8.786262e-05
8.888396e-05
8.870259e-05
8.842715e-05
8.781808e-05
8.903423e-05
8.889239e-05
8.871806e-05
8.844088e-05
8.784836e-05
8.915953e-05
8.903704e-05
8.890426e-05
8.873654e-05
8.849248e-05
0.0001318021
8.926702e-05
8.91549e-05
8.904055e-05
8.891437e-05
8.877598e-05
0.0001327716
0.0001318805
8.936115e-05
8.925486e-05
8.914942e-05
8.904008e-05
8.893698e-05
0.0001331726
0.000132806
0.000132016
8.944386e-05
8.934141e-05
8.924046e-05
8.91384e-05
8.904687e-05
0.0001333893
0.0001331656
0.0001328441
0.0001321822
8.951862e-05
8.941928e-05
8.932126e-05
8.922267e-05
8.913475e-05
0.000133539
0.0001333586
0.0001331533
0.0001328753
0.0001323596
8.958604e-05
8.948926e-05
8.939326e-05
8.929643e-05
8.920875e-05
0.0001336557
0.0001334878
0.0001333122
0.0001331167
0.0001328749
0.00032266
8.965972e-05
8.956592e-05
8.947243e-05
8.937778e-05
8.929075e-05
0.0001337825
0.0001336204
0.0001334544
0.0001332804
0.0001330939
0.000323582
0.0003229474
8.973697e-05
8.96463e-05
8.955555e-05
8.946335e-05
8.937746e-05
0.0001339161
0.0001337581
0.0001335968
0.0001334299
0.0001332577
0.0003240531
0.0003236057
0.0003231456
8.981699e-05
8.972964e-05
8.964194e-05
8.955256e-05
8.946848e-05
0.0001340567
0.0001339032
0.0001337461
0.0001335841
0.0001334181
0.0003244626
0.0003240581
0.000323667
0.0003232714
8.989774e-05
8.981384e-05
8.972934e-05
8.964303e-05
8.956119e-05
0.0001342004
0.0001340516
0.0001338991
0.0001337418
0.0001335807
0.0003248661
0.0003244759
0.0003241046
0.0003237248
0.0003233717
8.813485e-05
8.845617e-05
8.805961e-05
8.868818e-05
8.84472e-05
8.797026e-05
8.887437e-05
8.870098e-05
8.844673e-05
8.789898e-05
8.902811e-05
8.888795e-05
8.871788e-05
8.845191e-05
8.789044e-05
8.915953e-05
8.903704e-05
8.890426e-05
8.873654e-05
8.849248e-05
0.0001318021
8.927386e-05
8.916157e-05
8.904661e-05
8.89188e-05
8.877631e-05
0.0001327557
0.0001318187
8.937479e-05
8.926855e-05
8.916286e-05
8.905246e-05
8.894653e-05
0.0001331756
0.0001327787
0.0001319006
8.946442e-05
8.936234e-05
8.926166e-05
8.915949e-05
8.906699e-05
0.0001334144
0.0001331765
0.0001328159
0.0001320332
8.954368e-05
8.944485e-05
8.934735e-05
8.92492e-05
8.916149e-05
0.0001335777
0.0001333921
0.0001331722
0.0001328525
0.0001322
8.961538e-05
8.951952e-05
8.94246e-05
8.932901e-05
8.924285e-05
0.0001337086
0.0001335414
0.0001333639
0.0001331593
0.0001328854
0.0003224012
8.968012e-05
8.958687e-05
8.949406e-05
8.940019e-05
8.93142e-05
0.000133819
0.0001336581
0.0001334925
0.0001333172
0.0001331244
0.0003235998
0.0003227852
8.97507e-05
8.966045e-05
8.957021e-05
8.947862e-05
8.939355e-05
0.0001339414
0.0001337846
0.0001336246
0.0001334587
0.0001332867
0.0003241157
0.0003236402
0.0003231035
8.982467e-05
8.973755e-05
8.965013e-05
8.956108e-05
8.947744e-05
0.0001340708
0.0001339179
0.0001337617
0.0001336005
0.0001334352
0.0003245039
0.0003240944
0.000323692
0.0003232686
8.990124e-05
8.981743e-05
8.973306e-05
8.96469e-05
8.956526e-05
0.0001342068
0.0001340583
0.0001339062
0.0001337493
0.0001335886
0.000324886
0.0003244951
0.0003241225
0.00032374
0.0003233817
8.997847e-05
8.989806e-05
8.981689e-05
8.973381e-05
8.965456e-05
0.0001343454
0.0001342017
0.0001340542
0.0001339018
0.0001337456
0.0003252745
0.0003248908
0.0003245267
0.0003241591
0.0003237976
8.819978e-05
8.845162e-05
8.814697e-05
8.867525e-05
8.84646e-05
8.808755e-05
8.885734e-05
8.8694e-05
8.846736e-05
8.800493e-05
8.901551e-05
8.887841e-05
8.87162e-05
8.847113e-05
8.796984e-05
8.915282e-05
8.903095e-05
8.889983e-05
8.873631e-05
8.850323e-05
0.0001318645
8.927386e-05
8.916157e-05
8.904661e-05
8.89188e-05
8.877631e-05
0.0001327557
0.0001318187
8.938157e-05
8.927535e-05
8.916949e-05
8.90585e-05
8.895099e-05
0.0001331762
0.000132763
0.0001318393
8.94778e-05
8.93759e-05
8.927527e-05
8.917285e-05
8.907936e-05
0.0001334286
0.0001331795
0.0001327889
0.0001319189
8.956373e-05
8.946528e-05
8.936816e-05
8.927027e-05
8.918253e-05
0.0001336076
0.0001334168
0.000133183
0.0001328246
0.0001320525
8.963979e-05
8.95444e-05
8.945e-05
8.935494e-05
8.926931e-05
0.0001337483
0.0001335796
0.0001333969
0.0001331778
0.0001328626
0.0003220278
8.970847e-05
8.961602e-05
8.952416e-05
8.94314e-05
8.934681e-05
0.0001338697
0.0001337104
0.0001335456
0.0001333684
0.0001331666
0.0003236212
0.0003225343
8.97705e-05
8.968073e-05
8.959109e-05
8.950018e-05
8.941602e-05
0.0001339763
0.0001338208
0.0001336619
0.0001334965
0.0001333232
0.0003241856
0.0003236553
0.0003229692
8.983797e-05
8.975122e-05
8.966425e-05
8.957573e-05
8.94928e-05
0.0001340948
0.0001339431
0.000133788
0.0001336281
0.0001334639
0.0003245719
0.0003241527
0.0003237302
0.0003232578
8.990869e-05
8.982509e-05
8.974096e-05
8.965509e-05
8.957384e-05
0.0001342202
0.0001340723
0.0001339209
0.0001337647
0.0001336049
0.0003249263
0.0003245331
0.0003241567
0.0003237672
0.0003233973
8.998186e-05
8.990154e-05
8.982049e-05
8.973753e-05
8.965846e-05
0.0001343515
0.000134208
0.0001340609
0.0001339088
0.000133753
0.0003252933
0.0003249092
0.0003245444
0.000324176
0.0003238139
9.005562e-05
8.997866e-05
8.99008e-05
8.982093e-05
8.974435e-05
0.000134485
0.0001343464
0.0001342039
0.0001340564
0.000133905
0.0003256694
0.0003252912
0.0003249296
0.0003245678
0.0003242135
8.823349e-05
8.844928e-05
8.82109e-05
8.864642e-05
8.845998e-05
8.817277e-05
8.883408e-05
8.868123e-05
8.848433e-05
8.81201e-05
8.899497e-05
8.886153e-05
8.870916e-05
8.849129e-05
8.807339e-05
8.913921e-05
8.901845e-05
8.889032e-05
8.873454e-05
8.85219e-05
0.0001319823
8.926702e-05
8.91549e-05
8.904055e-05
8.891437e-05
8.877598e-05
0.0001327716
0.0001318805
8.938157e-05
8.927535e-05
8.916949e-05
8.90585e-05
8.895099e-05
0.0001331762
0.000132763
0.0001318393
8.948447e-05
8.938265e-05
8.928204e-05
8.917946e-05
8.908539e-05
0.0001334352
0.0001331801
0.0001327734
0.0001318582
8.957684e-05
8.947859e-05
8.938165e-05
8.928382e-05
8.919586e-05
0.000133626
0.0001334309
0.0001331859
0.0001327978
0.0001319392
8.965936e-05
8.956433e-05
8.947032e-05
8.937563e-05
8.929031e-05
0.0001337796
0.0001336092
0.0001334214
0.0001331884
0.0001328349
0.0003216842
8.973231e-05
8.964027e-05
8.954889e-05
8.945664e-05
8.937266e-05
0.0001339091
0.0001337497
0.0001335833
0.000133401
0.0001331847
0.0003235649
0.000322167
8.979797e-05
8.970891e-05
8.96201e-05
8.953017e-05
8.944724e-05
0.0001340249
0.0001338711
0.0001337138
0.0001335491
0.000133374
0.0003242815
0.000323671
0.0003227229
8.985724e-05
8.977092e-05
8.968446e-05
8.959654e-05
8.951439e-05
0.0001341283
0.0001339777
0.0001338239
0.0001336651
0.0001335013
0.0003246559
0.0003242146
0.000323747
0.0003231642
8.992161e-05
8.983833e-05
8.97546e-05
8.966919e-05
8.958854e-05
0.0001342431
0.0001340962
0.0001339459
0.0001337909
0.0001336324
0.0003249934
0.0003245956
0.0003242123
0.0003238112
0.0003234259
8.998911e-05
8.990897e-05
8.982813e-05
8.974543e-05
8.966669e-05
0.0001343643
0.0001342214
0.0001340748
0.0001339234
0.0001337684
0.0003253316
0.000324946
0.0003245791
0.000324208
0.0003238439
9.005892e-05
8.998204e-05
8.990428e-05
8.982453e-05
8.974809e-05
0.0001344908
0.0001343524
0.0001342102
0.000134063
0.000133912
0.000325687
0.0003253084
0.0003249463
0.0003245839
0.0003242294
9.012926e-05
9.005571e-05
8.998113e-05
8.990447e-05
8.983061e-05
0.0001346193
0.0001344858
0.0001343482
0.0001342057
0.0001340591
0.0003260521
0.0003256793
0.00032532
0.0003249599
0.0003246086
8.825133e-05
8.844271e-05
8.824396e-05
8.862645e-05
8.845752e-05
8.823501e-05
8.879847e-05
8.865263e-05
8.847924e-05
8.820299e-05
8.89683e-05
8.883853e-05
8.869639e-05
8.850774e-05
8.818523e-05
8.911768e-05
8.899808e-05
8.887352e-05
8.872741e-05
8.854123e-05
0.0001321358
8.925324e-05
8.914139e-05
8.902811e-05
8.890488e-05
8.8774e-05
0.0001327993
0.0001319971
8.937479e-05
8.926855e-05
8.916286e-05
8.905246e-05
8.894653e-05
0.0001331756
0.0001327787
0.0001319006
8.948447e-05
8.938265e-05
8.928204e-05
8.917946e-05
8.908539e-05
0.0001334352
0.0001331801
0.0001327734
0.0001318582
8.958338e-05
8.948523e-05
8.938837e-05
8.929055e-05
8.920244e-05
0.000133635
0.0001334375
0.0001331865
0.0001327825
0.0001318792
8.96722e-05
8.957737e-05
8.948356e-05
8.938905e-05
8.930381e-05
0.0001337995
0.0001336275
0.0001334354
0.0001331914
0.0001328084
0.0003214206
8.975145e-05
8.965974e-05
8.956871e-05
8.947686e-05
8.939328e-05
0.0001339403
0.0001337807
0.0001336127
0.0001334252
0.0001331952
0.0003234997
0.0003218372
8.98213e-05
8.97326e-05
8.964421e-05
8.955475e-05
8.947241e-05
0.0001340633
0.0001339101
0.0001337526
0.0001335864
0.0001334061
0.000324321
0.0003236064
0.0003223462
8.988395e-05
8.979824e-05
8.971251e-05
8.962544e-05
8.954438e-05
0.0001341749
0.0001340259
0.0001338738
0.0001337166
0.0001335536
0.0003247725
0.0003243025
0.0003237639
0.0003228966
8.994042e-05
8.985751e-05
8.977422e-05
8.968933e-05
8.960937e-05
0.0001342753
0.0001341294
0.0001339803
0.0001338265
0.000133669
0.0003250797
0.0003246704
0.0003242687
0.0003238344
0.0003234026
9.000169e-05
8.992184e-05
8.984135e-05
8.975904e-05
8.968083e-05
0.0001343862
0.0001342441
0.0001340985
0.0001339482
0.0001337944
0.0003253957
0.0003250072
0.0003246368
0.0003242616
0.0003238966
9.006599e-05
8.998927e-05
8.99117e-05
8.983216e-05
8.975602e-05
0.0001345031
0.0001343652
0.0001342235
0.0001340769
0.0001339265
0.0003257231
0.0003253432
0.0003249794
0.000324615
0.0003242594
9.013248e-05
9.0059e-05
8.998451e-05
8.990794e-05
8.983422e-05
0.0001346249
0.0001344916
0.0001343543
0.000134212
0.0001340657
0.0003260686
0.0003256954
0.0003253355
0.0003249747
0.000324623
9.019946e-05
9.012927e-05
9.005793e-05
8.998447e-05
8.991338e-05
0.0001347484
0.0001346199
0.0001344873
0.0001343497
0.000134208
0.0003264227
0.0003260562
0.0003256998
0.0003253413
0.0003249897
8.825824e-05
8.843834e-05
8.826143e-05
8.86098e-05
8.845079e-05
8.82669e-05
8.87735e-05
8.863276e-05
8.847628e-05
8.826334e-05
8.89315e-05
8.880324e-05
8.866775e-05
8.850206e-05
8.826405e-05
8.909024e-05
8.897169e-05
8.885067e-05
8.871459e-05
8.855656e-05
0.0001323015
8.923175e-05
8.912003e-05
8.900787e-05
8.888814e-05
8.876657e-05
0.0001328279
0.0001321491
8.936115e-05
8.925486e-05
8.914942e-05
8.904008e-05
8.893698e-05
0.0001331726
0.000132806
0.000132016
8.94778e-05
8.93759e-05
8.927527e-05
8.917285e-05
8.907936e-05
0.0001334286
0.0001331795
0.0001327889
0.0001319189
8.958338e-05
8.948523e-05
8.938837e-05
8.929055e-05
8.920244e-05
0.000133635
0.0001334375
0.0001331865
0.0001327825
0.0001318792
8.967862e-05
8.958388e-05
8.949017e-05
8.939574e-05
8.931052e-05
0.0001338093
0.0001336364
0.0001334419
0.000133192
0.0001327933
0.000321281
8.976405e-05
8.967252e-05
8.95817e-05
8.949004e-05
8.940664e-05
0.0001339605
0.0001338004
0.0001336308
0.000133439
0.0001331981
0.0003234383
0.0003215873
8.984006e-05
8.975165e-05
8.966358e-05
8.957448e-05
8.949254e-05
0.0001340941
0.0001339411
0.0001337834
0.0001336154
0.00013343
0.0003243444
0.0003235399
0.0003220202
8.990683e-05
8.982144e-05
8.973608e-05
8.964943e-05
8.956889e-05
0.0001342123
0.000134064
0.0001339124
0.000133755
0.0001335904
0.0003248449
0.0003243306
0.0003236863
0.0003224961
8.996645e-05
8.988408e-05
8.980144e-05
8.971728e-05
8.963827e-05
0.00013432
0.0001341756
0.0001340281
0.000133876
0.0001337201
0.0003252001
0.0003247791
0.0003243567
0.0003238456
0.0003231193
9.002008e-05
8.994055e-05
8.986045e-05
8.97786e-05
8.970098e-05
0.0001344173
0.0001342761
0.0001341315
0.0001339823
0.0001338297
0.0003254804
0.0003250845
0.0003247038
0.0003243138
0.0003239364
9.007827e-05
9.00018e-05
8.992453e-05
8.984535e-05
8.976967e-05
0.0001345242
0.000134387
0.0001342461
0.0001341005
0.0001339512
0.0003257839
0.0003254016
0.0003250351
0.0003246677
0.0003243119
9.013939e-05
9.006604e-05
8.999172e-05
8.991535e-05
8.984189e-05
0.0001346368
0.0001345038
0.0001343669
0.0001342252
0.0001340795
0.0003261027
0.0003257282
0.0003253666
0.0003250038
0.0003246504
9.02026e-05
9.013247e-05
9.006122e-05
8.998784e-05
8.991687e-05
0.0001347538
0.0001346255
0.0001344931
0.0001343557
0.0001342142
0.0003264382
0.0003260713
0.0003257142
0.0003253549
0.0003250026
9.026625e-05
9.019939e-05
9.013128e-05
9.006098e-05
8.999271e-05
0.0001348723
0.0001347488
0.0001346212
0.0001344886
0.0001343517
0.0003267813
0.000326422
0.0003260698
0.0003257135
0.000325362
8.843563e-05
8.826817e-05
8.859986e-05
8.844631e-05
8.828365e-05
8.87544e-05
8.861608e-05
8.846909e-05
8.829388e-05
8.890552e-05
8.877842e-05
8.864772e-05
8.849848e-05
8.832092e-05
8.905419e-05
8.893522e-05
8.88155e-05
8.868582e-05
8.854933e-05
0.0001324178
8.92046e-05
8.909286e-05
8.898168e-05
8.88654e-05
8.875331e-05
0.0001328506
0.0001323133
8.934007e-05
8.923353e-05
8.91282e-05
8.901995e-05
8.892016e-05
0.0001331616
0.0001328344
0.0001321665
8.946442e-05
8.936234e-05
8.926166e-05
8.915949e-05
8.906699e-05
0.0001334144
0.0001331765
0.0001328159
0.0001320332
8.957684e-05
8.947859e-05
8.938165e-05
8.928382e-05
8.919586e-05
0.000133626
0.0001334309
0.0001331859
0.0001327978
0.0001319392
8.967862e-05
8.958388e-05
8.949017e-05
8.939574e-05
8.931052e-05
0.0001338093
0.0001336364
0.0001334419
0.000133192
0.0001327933
0.000321281
8.977036e-05
8.967892e-05
8.958818e-05
8.949662e-05
8.94133e-05
0.0001339705
0.0001338102
0.0001336396
0.0001334455
0.0001331987
0.0003234035
0.0003214555
8.985246e-05
8.97642e-05
8.967632e-05
8.958741e-05
8.950567e-05
0.000134114
0.000133961
0.0001338029
0.0001336333
0.0001334437
0.0003243511
0.0003234806
0.0003217783
8.992526e-05
8.984012e-05
8.975504e-05
8.966871e-05
8.958854e-05
0.0001342424
0.0001340945
0.0001339432
0.0001337855
0.0001336191
0.0003248998
0.000324348
0.0003236149
0.0003221664
8.998893e-05
8.990684e-05
8.982452e-05
8.974073e-05
8.966218e-05
0.0001343565
0.0001342128
0.0001340659
0.0001339142
0.0001337582
0.0003252842
0.0003248402
0.0003243717
0.0003237516
0.0003226657
9.00455e-05
8.996645e-05
8.988692e-05
8.980572e-05
8.972893e-05
0.0001344604
0.0001343205
0.0001341774
0.0001340299
0.000133879
0.0003255988
0.0003251979
0.0003248128
0.0003244009
0.0003239668
0.0008302649
9.009628e-05
9.00201e-05
8.994317e-05
8.986439e-05
8.978923e-05
0.0001345543
0.0001344178
0.0001342778
0.0001341332
0.000133985
0.0003258656
0.0003254778
0.000325104
0.000324727
0.0003243634
9.015139e-05
9.007827e-05
9.000422e-05
8.992816e-05
8.98551e-05
0.0001346571
0.0001345248
0.0001343886
0.0001342477
0.0001341029
0.0003261603
0.0003257835
0.0003254193
0.0003250533
0.0003246984
9.020936e-05
9.013936e-05
9.006825e-05
8.999504e-05
8.99243e-05
0.0001347652
0.0001346373
0.0001345053
0.0001343683
0.0001342273
0.0003264705
0.0003261022
0.0003257433
0.0003253818
0.0003250273
9.026933e-05
9.020252e-05
9.013448e-05
9.006426e-05
8.999609e-05
0.0001348775
0.0001347542
0.0001346267
0.0001344943
0.0001343576
0.000326796
0.0003264362
0.0003260832
0.000325726
0.0003253736
9.03297e-05
9.026612e-05
9.020121e-05
9.013407e-05
9.006862e-05
0.000134991
0.0001348726
0.0001347499
0.0001346222
0.0001344902
0.0003271279
0.0003267766
0.0003264297
0.0003260771
0.0003257267
8.85948e-05
8.844354e-05
8.829005e-05
8.874317e-05
8.86061e-05
8.846428e-05
8.830981e-05
8.888629e-05
8.875936e-05
8.863082e-05
8.849075e-05
8.83489e-05
8.902862e-05
8.890941e-05
8.879066e-05
8.866555e-05
8.854426e-05
0.0001325015
8.916994e-05
8.905712e-05
8.894538e-05
8.883029e-05
8.872379e-05
0.0001328397
0.0001324283
8.931357e-05
8.920662e-05
8.910124e-05
8.899393e-05
8.889726e-05
0.0001331419
0.0001328572
0.000132329
8.944386e-05
8.934141e-05
8.924046e-05
8.91384e-05
8.904687e-05
0.0001333893
0.0001331656
0.0001328441
0.0001321822
8.956373e-05
8.946528e-05
8.936816e-05
8.927027e-05
8.918253e-05
0.0001336076
0.0001334168
0.000133183
0.0001328246
0.0001320525
8.96722e-05
8.957737e-05
8.948356e-05
8.938905e-05
8.930381e-05
0.0001337995
0.0001336275
0.0001334354
0.0001331914
0.0001328084
0.0003214206
8.977036e-05
8.967892e-05
8.958818e-05
8.949662e-05
8.94133e-05
0.0001339705
0.0001338102
0.0001336396
0.0001334455
0.0001331987
0.0003234035
0.0003214555
8.985866e-05
8.977048e-05
8.968269e-05
8.959387e-05
8.951223e-05
0.0001341239
0.000133971
0.0001338126
0.0001336421
0.0001334502
0.0003243527
0.0003234476
0.000321652
8.993746e-05
8.985246e-05
8.976754e-05
8.968139e-05
8.960142e-05
0.0001342619
0.0001341143
0.000133963
0.0001338048
0.0001336369
0.0003249315
0.0003243524
0.0003235555
0.0003219285
9.000705e-05
8.992518e-05
8.984312e-05
8.975961e-05
8.96814e-05
0.0001343859
0.0001342426
0.0001340962
0.0001339447
0.0001337883
0.0003253505
0.0003248879
0.0003243816
0.0003236738
0.0003223157
9.006763e-05
8.998882e-05
8.990957e-05
8.98287e-05
8.975231e-05
0.0001344961
0.0001343568
0.0001342143
0.0001340673
0.0001339168
0.0003256863
0.0003252719
0.0003248622
0.0003244024
0.000323841
0.0008284516
9.012116e-05
9.004541e-05
8.996898e-05
8.989077e-05
8.981634e-05
0.000134596
0.0001344607
0.000134322
0.0001341788
0.0001340323
0.0003259802
0.0003255907
0.0003252187
0.0003248379
0.0003244765
0.0008326561
0.0008308056
9.016907e-05
9.00962e-05
9.002245e-05
8.994674e-05
8.987414e-05
0.0001346863
0.0001345547
0.0001344192
0.0001342792
0.0001341354
0.0003262388
0.0003258574
0.0003254873
0.0003251133
0.0003247502
9.022112e-05
9.015131e-05
9.008045e-05
9.000751e-05
8.993713e-05
0.000134785
0.0001346575
0.0001345261
0.0001343899
0.0001342497
0.0003265253
0.0003261546
0.0003257929
0.0003254279
0.0003250706
9.027595e-05
9.020925e-05
9.014135e-05
9.007128e-05
9.000331e-05
0.0001348886
0.0001347656
0.0001346385
0.0001345064
0.0001343702
0.0003268268
0.0003264654
0.0003261104
0.0003257509
0.000325396
9.033271e-05
9.026918e-05
9.020433e-05
9.013726e-05
9.007191e-05
0.0001349961
0.0001348777
0.0001347552
0.0001346277
0.0001344959
0.0003271419
0.00032679
0.0003264423
0.0003260887
0.0003257372
9.038983e-05
9.03295e-05
9.026776e-05
9.020376e-05
9.014116e-05
0.0001351047
0.0001349912
0.0001348735
0.0001347507
0.0001346236
0.0003274625
0.0003271198
0.0003267794
0.0003264318
0.000326084
8.873764e-05
8.860102e-05
8.846135e-05
8.831581e-05
8.887505e-05
8.874812e-05
8.862067e-05
8.848556e-05
8.83632e-05
8.901003e-05
8.889024e-05
8.877149e-05
8.864838e-05
8.853529e-05
0.0001325425
8.914527e-05
8.903172e-05
8.891962e-05
8.880537e-05
8.870272e-05
0.0001328319
0.0001325111
8.928041e-05
8.917225e-05
8.906569e-05
8.895775e-05
8.886175e-05
0.0001330979
0.0001328465
0.0001324426
8.941809e-05
8.931513e-05
8.921375e-05
8.911162e-05
8.902082e-05
0.0001333554
0.0001331464
0.0001328668
0.0001323433
8.954368e-05
8.944485e-05
8.934735e-05
8.92492e-05
8.916149e-05
0.0001335777
0.0001333921
0.0001331722
0.0001328525
0.0001322
8.965936e-05
8.956433e-05
8.947032e-05
8.937563e-05
8.929031e-05
0.0001337796
0.0001336092
0.0001334214
0.0001331884
0.0001328349
0.0003216842
8.976405e-05
8.967252e-05
8.95817e-05
8.949004e-05
8.940664e-05
0.0001339605
0.0001338004
0.0001336308
0.000133439
0.0001331981
0.0003234383
0.0003215873
8.985866e-05
8.977048e-05
8.968269e-05
8.959387e-05
8.951223e-05
0.0001341239
0.000133971
0.0001338126
0.0001336421
0.0001334502
0.0003243527
0.0003234476
0.000321652
8.994357e-05
8.985864e-05
8.97738e-05
8.968773e-05
8.960786e-05
0.0001342717
0.0001341242
0.0001339729
0.0001338144
0.0001336456
0.0003249467
0.0003243534
0.0003235233
0.0003218057
9.001908e-05
8.993734e-05
8.985542e-05
8.977207e-05
8.969403e-05
0.0001344051
0.0001342621
0.0001341158
0.0001339644
0.0001338076
0.0003253918
0.0003249159
0.0003243827
0.000323613
0.0003220762
9.008548e-05
9.000687e-05
8.992784e-05
8.984722e-05
8.977113e-05
0.0001345247
0.0001343859
0.0001342439
0.0001340974
0.000133947
0.0003257563
0.0003253312
0.0003249021
0.0003244046
0.0003237466
0.000827209
9.014297e-05
9.006743e-05
8.999125e-05
8.991334e-05
8.983926e-05
0.0001346309
0.0001344961
0.000134358
0.0001342154
0.0001340694
0.0003260678
0.0003256694
0.0003252826
0.0003248761
0.0003244536
0.0008321446
0.0008291688
9.019347e-05
9.012098e-05
9.004767e-05
8.997247e-05
8.990051e-05
0.0001347268
0.0001345961
0.0001344619
0.0001343231
0.0001341808
0.0003263493
0.0003259677
0.0003256024
0.0003252321
0.0003248889
0.0008341875
0.000832885
0.0008311112
9.023849e-05
9.016891e-05
9.009831e-05
9.002568e-05
8.99557e-05
0.0001348134
0.0001346865
0.0001345558
0.0001344203
0.000134281
0.0003266009
0.0003262259
0.000325859
0.0003254866
0.0003251201
9.028748e-05
9.022096e-05
9.015327e-05
9.008345e-05
9.001579e-05
0.0001349077
0.0001347852
0.0001346586
0.0001345271
0.0001343916
0.000326879
0.0003265152
0.0003261572
0.0003257939
0.0003254351
9.033921e-05
9.027578e-05
9.021105e-05
9.014412e-05
9.007894e-05
0.0001350068
0.0001348888
0.0001347666
0.0001346394
0.0001345079
0.0003271713
0.0003268177
0.000326468
0.0003261118
0.0003257575
9.039279e-05
9.03325e-05
9.027082e-05
9.020688e-05
9.014437e-05
0.0001351096
0.0001349962
0.0001348786
0.000134756
0.0001346291
0.0003274759
0.0003271326
0.0003267912
0.0003264425
0.0003260936
9.04467e-05
9.038959e-05
9.0331e-05
9.027011e-05
9.021037e-05
0.0001352133
0.0001351047
0.0001349919
0.0001348741
0.0001347519
0.0003277849
0.0003274516
0.0003271186
0.000326777
0.0003264333
8.886959e-05
8.874258e-05
8.861549e-05
8.848243e-05
8.836841e-05
8.899919e-05
8.887901e-05
8.876015e-05
8.863801e-05
8.852927e-05
0.0001325633
8.912753e-05
8.901319e-05
8.89004e-05
8.878605e-05
8.868482e-05
0.0001328182
0.0001325513
8.925675e-05
8.914775e-05
8.904037e-05
8.893199e-05
8.883636e-05
0.0001330664
0.0001328388
0.0001325242
8.938636e-05
8.928223e-05
8.917956e-05
8.907621e-05
8.898444e-05
0.0001333025
0.000133103
0.0001328563
0.0001324555
8.951862e-05
8.941928e-05
8.932126e-05
8.922267e-05
8.913475e-05
0.000133539
0.0001333586
0.0001331533
0.0001328753
0.0001323596
8.963979e-05
8.95444e-05
8.945e-05
8.935494e-05
8.926931e-05
0.0001337483
0.0001335796
0.0001333969
0.0001331778
0.0001328626
0.0003220278
8.975145e-05
8.965974e-05
8.956871e-05
8.947686e-05
8.939328e-05
0.0001339403
0.0001337807
0.0001336127
0.0001334252
0.0001331952
0.0003234997
0.0003218372
8.985246e-05
8.97642e-05
8.967632e-05
8.958741e-05
8.950567e-05
0.000134114
0.000133961
0.0001338029
0.0001336333