/*--------------------------------*- C++ -*----------------------------------*\
| =========                 |                                                 |
| \\      /  F ield         | OpenFOAM: The Open Source CFD Toolbox           |
|  \\    /   O peration     | Version:  2306                                  |
|   \\  /    A nd           | Website:  www.openfoam.com                      |
|    \\/     M anipulation  |                                                 |
\*---------------------------------------------------------------------------*/
FoamFile
{
    version     2.0;
    format      ascii;
    arch        "LSB;label=32;scalar=64";
    class       volScalarField;
    location    "0.3/fuel";
    object      eta.fuel;
}
// * * * * * * * * * * * * * * * * * * * * * * * * * * * * * * * * * * * * * //

dimensions      [1 2 -3 0 0 -1 0];

internalField   nonuniform List<scalar> 
16000
(
0.0994616
0.09988397
0.09418619
0.09573509
0.1007045
0.09447273
0.09613046
0.0894266
0.09076929
0.09304557
0.1018971
0.09501647
0.09689746
0.0896519
0.09103808
0.09342301
0.08551255
0.08628398
0.08828897
0.0913508
0.103357
0.09578087
0.0980115
0.09007417
0.09154733
0.0941548
0.0857014
0.08649561
0.08854558
0.09171883
0.08221494
0.08259347
0.08399343
0.08670903
0.09062501
0.1048089
0.09666557
0.09937379
0.09065614
0.09226278
0.09521806
0.08605229
0.08689158
0.08903132
0.09243266
0.08237901
0.08277106
0.08419551
0.08695874
0.0909919
0.07935297
0.07948244
0.08046004
0.08252375
0.08600705
0
0.1057128
0.09747239
0.1007271
0.09130617
0.0930897
0.0965193
0.08652793
0.08743686
0.0897137
0.09347133
0.08268188
0.08310038
0.08457317
0.08743131
0.09170443
0.07949872
0.07963687
0.08062967
0.08272018
0.08625493
0
0.07681542
0.07678061
0.07748153
0.07908486
0.08185537
0
0
0.1061366
0.09791858
0.101561
0.09186303
0.09384225
0.09781398
0.08704299
0.0880448
0.0905022
0.09474596
0.08308661
0.08354631
0.08509307
0.08809559
0.09274386
0.07976651
0.07992138
0.08094381
0.08308708
0.08672432
0
0.07694718
0.07691792
0.0776291
0.07924967
0.0820499
0
0
0.07452492
0.07438313
0.07489425
0.07618777
0.07845061
0
0
0
0.10629
0.09808641
0.1019446
0.09213744
0.09425358
0.09860672
0.08745857
0.08856391
0.09121942
0.09601975
0.08351277
0.084028
0.08567214
0.08886392
0.09402537
0.08011987
0.08030102
0.0813689
0.08359225
0.08738497
0
0.07718846
0.07716968
0.07790057
0.07955466
0.08241334
0
0
0.07464571
0.07450737
0.07502553
0.07633113
0.07861362
0
0
0
0.07242971
0.07221705
0.07259752
0.07367191
0.07558567
0
0
0
0
0.1063301
0.09811797
0.102078
0.09221101
0.09440418
0.09896774
0.08763646
0.08881593
0.09160791
0.09679871
0.08383673
0.08441466
0.08616555
0.08956366
0.09531515
0.08048254
0.08069946
0.08182729
0.08415493
0.08815079
0
0.07750342
0.07750131
0.07826247
0.07996729
0.08291409
0
0
0.07486647
0.07473441
0.07526585
0.07659463
0.07891528
0
0
0
0.0725416
0.07233106
0.07271637
0.07379945
0.07572737
0
0
0
0
0.07049412
0.0702336
0.07052131
0.07143864
0.07309959
0
0
0
0
0
0.1063301
0.09811148
0.10211
0.09219847
0.09442869
0.09909055
0.08765635
0.08887997
0.0917475
0.09715366
0.08395248
0.08457652
0.08640202
0.0899406
0.09610702
0.08074225
0.08100007
0.08219374
0.08463401
0.08885036
0
0.07781931
0.07784027
0.07864134
0.08041189
0.08347241
0
0
0.07515197
0.07503016
0.07558202
0.07694572
0.07932355
0
0
0
0.07274588
0.07253899
0.07293322
0.07403271
0.07598778
0
0
0
0
0.07059869
0.07033931
0.07063045
0.07155413
0.0732256
0
0
0
0
0
0.06869041
0.06839928
0.06861885
0.06941948
0.07089375
0
0
0
0
0
0
0.10629
0.09811148
0.10211
0.09217544
0.09441993
0.09911861
0.0876179
0.08886458
0.09176783
0.09727488
0.0839376
0.0845906
0.08645947
0.09007501
0.09647203
0.08081503
0.08110365
0.08234407
0.08486134
0.08922664
0
0.07803267
0.07808049
0.07892538
0.08076638
0.08394815
0
0
0.07543257
0.07532533
0.07590412
0.07731275
0.07976358
0
0
0
0.07300803
0.07280727
0.07321524
0.07433936
0.0763348
0
0
0
0
0.07078958
0.07053191
0.07082916
0.07176463
0.07345603
0
0
0
0
0
0.06878886
0.06849817
0.06872011
0.06952556
0.07100784
0
0
0
0
0
0
0.06699744
0.06668799
0.06685812
0.06756875
0.0688999
0
0
0
0
0
0
0
0.1061366
0.09811797
0.102078
0.09217544
0.09441993
0.09911862
0.08758478
0.0888411
0.0917579
0.0973029
0.08388207
0.08455122
0.08644221
0.09009385
0.09660044
0.08077632
0.08108511
0.08235387
0.08491491
0.08936148
0
0.07807521
0.07814367
0.07901999
0.08090938
0.0841725
0
0
0.07561184
0.07552202
0.07613036
0.07758662
0.08011406
0
0
0
0.0732612
0.07306946
0.07349561
0.07465112
0.07669745
0
0
0
0
0.07103296
0.07077844
0.07108511
0.07203816
0.07375892
0
0
0
0
0
0.06896869
0.06867833
0.0689043
0.06971852
0.07121574
0
0
0
0
0
0
0.0670907
0.06678119
0.06695291
0.06766721
0.06900469
0
0
0
0
0
0
0
0.06539909
0.06507988
0.06521416
0.06585525
0.06707256
0
0
0
0
0
0
0
0
0.1057128
0.09808641
0.1019446
0.09219847
0.09442869
0.09909055
0.08758478
0.0888411
0.0917579
0.0973029
0.08384214
0.08451845
0.08641852
0.09008378
0.09663223
0.08070914
0.08102969
0.08231379
0.08489669
0.08938144
0
0.0780202
0.07810266
0.07899859
0.0809163
0.0842248
0
0
0.07563293
0.07555677
0.07618635
0.07767524
0.08025373
0
0
0
0.07341477
0.07323418
0.07368024
0.07486858
0.07696732
0
0
0
0
0.0712645
0.07101503
0.0713341
0.07230935
0.07406663
0
0
0
0
0
0.06919675
0.06890741
0.06913961
0.06996678
0.07148581
0
0
0
0
0
0
0.06726125
0.06695109
0.06712534
0.06784613
0.06919524
0
0
0
0
0
0
0
0.0654879
0.06516826
0.06530356
0.06594746
0.06716983
0
0
0
0
0
0
0
0
0.06388157
0.06355984
0.06366798
0.06425466
0.06538075
0
0
0
0
0
0
0
0
0
0.1048089
0.09791858
0.101561
0.09221101
0.09440418
0.09896774
0.0876179
0.08886458
0.09176783
0.09727488
0.08384214
0.08451845
0.08641852
0.09008378
0.09663223
0.08066456
0.08099052
0.08228126
0.084873
0.08937221
0
0.07794529
0.0780362
0.07894314
0.08087569
0.08420647
0
0
0.07556693
0.07550034
0.07614343
0.07765171
0.0802591
0
0
0
0.07342048
0.07324878
0.07370907
0.0749196
0.0770528
0
0
0
0
0.07139847
0.0711557
0.07148823
0.07248629
0.07428033
0
0
0
0
0
0.069411
0.06912388
0.0693643
0.07020753
0.07175328
0
0
0
0
0
0
0.06747664
0.06716597
0.06734414
0.06807443
0.06944033
0
0
0
0
0
0
0
0.06565058
0.06532958
0.0654663
0.06611502
0.06734653
0
0
0
0
0
0
0
0
0.06396656
0.06364408
0.06375282
0.06434166
0.06547185
0
0
0
0
0
0
0
0
0
0.06243578
0.06211489
0.06220519
0.06274851
0.06380031
0
0
0
0
0
0
0
0
0
0
0.103357
0.09747239
0.1007271
0.09213744
0.09425358
0.09860672
0.08765635
0.08887997
0.0917475
0.09715366
0.08388207
0.08455122
0.08644221
0.09009385
0.09660044
0.08066456
0.08099052
0.08228126
0.084873
0.08937221
0
0.07789772
0.07799261
0.07890447
0.0808433
0.08418298
0
0
0.07548714
0.07542653
0.07607736
0.07759607
0.08021812
0
0
0
0.07334723
0.07318197
0.07365138
0.07487511
0.07702781
0
0
0
0
0.07139315
0.07115592
0.07149786
0.07251094
0.07432851
0
0
0
0
0
0.06952991
0.06924627
0.06949555
0.07035485
0.07192676
0
0
0
0
0
0
0.06767694
0.06736639
0.06754975
0.06829165
0.06967766
0
0
0
0
0
0
0
0.06585534
0.06553272
0.06567167
0.06632737
0.06757189
0
0
0
0
0
0
0
0
0.06412256
0.06379812
0.06390747
0.06449989
0.06563734
0
0
0
0
0
0
0
0
0
0.06251738
0.06219559
0.06228611
0.06283111
0.06388628
0
0
0
0
0
0
0
0
0
0
0.06105144
0.06073659
0.06081337
0.06132282
0.06231294
0
0
0
0
0
0
0
0
0
0
0.1018971
0.09666557
0.09937379
0.09186303
0.09384225
0.09781398
0.08763646
0.08881593
0.09160791
0.09679871
0.0839376
0.0845906
0.08645947
0.09007501
0.09647203
0.08070914
0.08102969
0.08231379
0.08489669
0.08938144
0
0.07789772
0.07799261
0.07890447
0.0808433
0.08418298
0
0
0.07543781
0.07538006
0.07603443
0.07755765
0.08018576
0
0
0
0.07326464
0.07310351
0.07357822
0.07480909
0.07697179
0
0
0
0
0.07131528
0.07108228
0.07143023
0.07245209
0.07428274
0
0
0
0
0
0.0695168
0.06923621
0.06949151
0.0703609
0.07194887
0
0
0
0
0
0
0.06778423
0.0674748
0.06766366
0.06841679
0.0698218
0
0
0
0
0
0
0
0.06604423
0.06572024
0.06586212
0.06652615
0.06778596
0
0
0
0
0
0
0
0
0.06431842
0.06399146
0.06410178
0.06469928
0.06584697
0
0
0
0
0
0
0
0
0
0.06266752
0.06234348
0.06243391
0.06298155
0.06404257
0
0
0
0
0
0
0
0
0
0
0.06113007
0.06081414
0.06089095
0.06140164
0.06239457
0
0
0
0
0
0
0
0
0
0
0.05972399
0.05941524
0.05948455
0.05996552
0.06090479
0
0
0
0
0
0
0
0
0
0
0.1007045
0.09578087
0.0980115
0.09130617
0.0930897
0.0965193
0.08745857
0.08856391
0.09121942
0.09601974
0.08395248
0.08457652
0.08640202
0.0899406
0.09610702
0.08077632
0.08108511
0.08235387
0.08491491
0.08936148
0
0.07794529
0.0780362
0.07894314
0.08087569
0.08420647
0
0
0.07543781
0.07538006
0.07603443
0.07755765
0.08018576
0
0
0
0.07321445
0.07305534
0.0735325
0.07476649
0.07693338
0
0
0
0
0.07123132
0.07100113
0.0713526
0.07237915
0.07421642
0
0
0
0
0
0.06943628
0.06915825
0.06941737
0.07029242
0.07188893
0
0
0
0
0
0
0.06776574
0.06745753
0.0676499
0.06840963
0.06982559
0
0
0
0
0
0
0
0.06614252
0.06581791
0.06596281
0.06663452
0.06790818
0
0
0
0
0
0
0
0
0.06449798
0.06416847
0.06428006
0.06488345
0.06604284
0
0
0
0
0
0
0
0
0
0.06285572
0.06252862
0.06261899
0.0631703
0.06423943
0
0
0
0
0
0
0
0
0
0
0.06127514
0.06095663
0.06103297
0.06154549
0.0625432
0
0
0
0
0
0
0
0
0
0
0.05979988
0.05949004
0.05955916
0.06004113
0.06098271
0
0
0
0
0
0
0
0
0
0
0.05844476
0.05814671
0.05820943
0.05866891
0.05956393
0
0
0
0
0
0
0
0
0
0
0.09988397
0.09501647
0.09689746
0.09065614
0.09226278
0.09521806
0.08704299
0.0880448
0.0905022
0.09474596
0.08383673
0.08441466
0.08616555
0.08956366
0.09531515
0.08081503
0.08110365
0.08234407
0.08486134
0.08922664
0
0.0780202
0.07810266
0.07899859
0.0809163
0.0842248
0
0
0.07548714
0.07542653
0.07607736
0.07759607
0.08021812
0
0
0
0.07321445
0.07305534
0.0735325
0.07476649
0.07693338
0
0
0
0
0.0711809
0.07095212
0.07130522
0.07233382
0.07417385
0
0
0
0
0
0.06935202
0.0690758
0.06933715
0.07021512
0.07181577
0
0
0
0
0
0
0.06768405
0.06737713
0.06757167
0.06833487
0.06975618
0
0
0
0
0
0
0
0.06612048
0.06579574
0.06594228
0.06661803
0.06789901
0
0
0
0
0
0
0
0
0.06458933
0.06425788
0.06437066
0.06497908
0.06614852
0
0
0
0
0
0
0
0
0
0.06302751
0.06269707
0.06278741
0.06334275
0.06442089
0
0
0
0
0
0
0
0
0
0
0.06145679
0.06113474
0.06121037
0.06172538
0.06272958
0
0
0
0
0
0
0
0
0
0
0.05994032
0.05962787
0.05969611
0.06017943
0.06112485
0
0
0
0
0
0
0
0
0
0
0.05851832
0.05821897
0.05828145
0.05874166
0.05963867
0
0
0
0
0
0
0
0
0
0
0.05721066
0.05692277
0.05698419
0.05742394
0.05828274
0
0
0
0
0
0
0
0
0
0
0.09946159
0.09447273
0.09613046
0.09007417
0.09154733
0.0941548
0.08652793
0.08743686
0.0897137
0.09347133
0.08351277
0.084028
0.08567214
0.08886392
0.09402537
0.08074225
0.08100007
0.08219374
0.08463401
0.08885036
0
0.07807521
0.07814367
0.07901999
0.08090938
0.0841725
0
0
0.07556693
0.07550034
0.07614343
0.07765171
0.0802591
0
0
0
0.07326464
0.07310351
0.07357822
0.07480909
0.07697179
0
0
0
0
0.0711809
0.07095212
0.07130522
0.07233382
0.07417385
0
0
0
0
0
0.06930184
0.06902656
0.06928896
0.07016817
0.07177049
0
0
0
0
0
0
0.06760028
0.0672944
0.06749021
0.06825507
0.06967874
0
0
0
0
0
0
0
0.06603869
0.0657143
0.06586178
0.06653934
0.06782345
0
0
0
0
0
0
0
0
0.06456519
0.06423253
0.06434558
0.06495612
0.06613021
0
0
0
0
0
0
0
0
0
0.06311349
0.06278019
0.06287028
0.06342869
0.06451403
0
0
0
0
0
0
0
0
0
0
0.06162219
0.0612961
0.06137077
0.06188835
0.0628995
0
0
0
0
0
0
0
0
0
0
0.06011612
0.05979999
0.05986692
0.06035194
0.06130251
0
0
0
0
0
0
0
0
0
0
0.05865483
0.05835255
0.05841404
0.0588751
0.05977537
0
0
0
0
0
0
0
0
0
0
0.05728211
0.05699286
0.05705381
0.05749419
0.05835467
0
0
0
0
0
0
0
0
0
0
0.05601759
0.05574064
0.05580091
0.05622698
0.05705226
0
0
0
0
0
0
0
0
0
0
0.09418619
0.09573509
0.0896519
0.09103808
0.09342301
0.08605229
0.08689158
0.08903132
0.09243266
0.08308661
0.08354631
0.08509307
0.08809559
0.09274386
0.08048254
0.08069946
0.08182729
0.08415493
0.08815079
0
0.07803267
0.07808049
0.07892538
0.08076638
0.08394815
0
0
0.07563293
0.07555677
0.07618635
0.07767524
0.08025373
0
0
0
0.07334723
0.07318197
0.07365138
0.07487511
0.07702781
0
0
0
0
0.07123132
0.07100113
0.0713526
0.07237915
0.07421642
0
0
0
0
0
0.06930184
0.06902656
0.06928896
0.07016817
0.07177049
0
0
0
0
0
0
0.06755069
0.06724538
0.06744179
0.06820732
0.06963186
0
0
0
0
0
0
0
0.06595599
0.06563207
0.06578007
0.06645835
0.06774357
0
0
0
0
0
0
0
0
0.06448413
0.06415109
0.06426416
0.06487528
0.06605085
0
0
0
0
0
0
0
0
0
0.06308827
0.06275303
0.06284231
0.06340143
0.06448943
0
0
0
0
0
0
0
0
0
0
0.06170424
0.06137439
0.06144781
0.06196691
0.06298314
0
0
0
0
0
0
0
0
0
0
0
0.06027596
0.05995554
0.06002071
0.06050724
0.06146311
0
0
0
0
0
0
0
0
0
0
0.0588257
0.05851931
0.05857925
0.0590413
0.05994577
0
0
0
0
0
0
0
0
0
0
0.05741515
0.05712285
0.05718241
0.05762346
0.05848659
0
0
0
0
0
0
0
0
0
0
0.05608711
0.05580879
0.05586849
0.05629492
0.05712174
0
0
0
0
0
0
0
0
0
0
0.05486133
0.05459651
0.05465702
0.05507029
0.05586895
0
0
0
0
0
0
0
0
0
0
0.0894266
0.09076929
0.09304557
0.0857014
0.08649561
0.08854558
0.09171883
0.08268188
0.08310038
0.08457317
0.08743131
0.09170443
0.08011987
0.08030102
0.0813689
0.08359225
0.08738497
0
0.07781931
0.07784027
0.07864134
0.08041189
0.08347241
0
0
0.07561184
0.07552202
0.07613036
0.07758662
0.08011406
0
0
0
0.07342048
0.07324878
0.07370907
0.0749196
0.0770528
0
0
0
0
0.07131528
0.07108228
0.07143023
0.07245209
0.07428274
0
0
0
0
0
0.06935202
0.0690758
0.06933715
0.07021512
0.07181577
0
0
0
0
0
0
0.06755069
0.06724538
0.06744179
0.06820732
0.06963186
0
0
0
0
0
0
0
0.06590724
0.06558361
0.06573186
0.06641039
0.06769591
0
0
0
0
0
0
0
0
0.06440296
0.06406991
0.06418295
0.06479407
0.06596982
0
0
0
0
0
0
0
0
0
0.06300854
0.0626724
0.06276097
0.06331977
0.06440801
0
0
0
0
0
0
0
0
0
0
0.06167891
0.06134641
0.06141826
0.06193696
0.06295437
0
0
0
0
0
0
0
0
0
0
0
0.06035486
0.06003037
0.06009332
0.06058026
0.06153952
0
0
0
0
0
0
0
0
0
0
0
0
0.05898104
0.05866983
0.05872766
0.05919029
0.06009885
0
0
0
0
0
0
0
0
0
0
0.05758167
0.05728512
0.05734262
0.0577843
0.05865079
0
0
0
0
0
0
0
0
0
0
0.05621699
0.0559356
0.05599374
0.05642036
0.05724956
0
0
0
0
0
0
0
0
0
0
0.05492905
0.05466288
0.05472278
0.05513627
0.05593616
0
0
0
0
0
0
0
0
0
0
0.05373862
0.05348643
0.05354895
0.05395145
0.05472515
0
0
0
0
0
0
0
0
0
0
0.08551255
0.08628398
0.08828897
0.09135079
0.08237901
0.08277106
0.08419551
0.08695874
0.0909919
0.07976651
0.07992138
0.08094381
0.08308708
0.08672432
0
0.07750342
0.07750131
0.07826247
0.07996729
0.08291409
0
0
0.07543257
0.07532533
0.07590412
0.07731275
0.07976358
0
0
0
0.07341477
0.07323418
0.07368024
0.07486858
0.07696732
0
0
0
0
0.07139315
0.07115592
0.07149786
0.07251094
0.07432851
0
0
0
0
0
0.06943628
0.06915825
0.06941737
0.07029242
0.07188893
0
0
0
0
0
0
0.06760028
0.0672944
0.06749021
0.06825507
0.06967874
0
0
0
0
0
0
0
0.06590724
0.06558361
0.06573186
0.06641039
0.06769591
0
0
0
0
0
0
0
0
0.06435524
0.06402226
0.06413529
0.06474632
0.06592196
0
0
0
0
0
0
0
0
0
0.06292918
0.0625927
0.0626808
0.06323908
0.0643268
0
0
0
0
0
0
0
0
0
0
0.06160107
0.06126714
0.06133778
0.06185545
0.0628722
0
0
0
0
0
0
0
0
0
0
0
0.06032992
0.06000248
0.06006314
0.0605489
0.06150819
0
0
0
0
0
0
0
0
0
0
0
0
0.05905775
0.05874191
0.05879713
0.05925913
0.06016985
0
0
0
0
0
0
0
0
0
0
0
0
0
0.05773317
0.05743162
0.05748638
0.05792818
0.05879768
0
0
0
0
0
0
0
0
0
0
0.05637975
0.05609392
0.05614977
0.05657642
0.05740852
0
0
0
0
0
0
0
0
0
0
0.055056
0.0547868
0.05484506
0.05525851
0.05606023
0
0
0
0
0
0
0
0
0
0
0.05380468
0.05355113
0.05361302
0.05401568
0.05479043
0
0
0
0
0
0
0
0
0
0
0.05264789
0.05240737
0.05247291
0.05286701
0.0536185
0
0
0
0
0
0
0
0
0
0
0.08221494
0.08259347
0.08399343
0.08670903
0.09062501
0.07949872
0.07963687
0.08062967
0.08272018
0.08625493
0
0.07718846
0.07716968
0.07790057
0.07955466
0.08241334
0
0
0.07515197
0.07503016
0.07558202
0.07694572
0.07932355
0
0
0
0.0732612
0.07306946
0.07349561
0.07465112
0.07669745
0
0
0
0
0.07139847
0.0711557
0.07148823
0.07248629
0.07428033
0
0
0
0
0
0.0695168
0.06923621
0.06949151
0.0703609
0.07194887
0
0
0
0
0
0
0.06768405
0.06737713
0.06757167
0.06833487
0.06975618
0
0
0
0
0
0
0
0.06595599
0.06563207
0.06578007
0.06645835
0.06774357
0
0
0
0
0
0
0
0
0.06435524
0.06402226
0.06413529
0.06474632
0.06592196
0
0
0
0
0
0
0
0
0
0.06288262
0.06254605
0.06263392
0.06319187
0.06427916
0
0
0
0
0
0
0
0
0
0
0.06152382
0.06118922
0.06125909
0.06177581
0.06279153
0
0
0
0
0
0
0
0
0
0
0
0.06025424
0.05992513
0.05998407
0.0604683
0.06142623
0
0
0
0
0
0
0
0
0
0
0
0
0.0590338
0.05871459
0.05876721
0.05922727
0.06013722
0
0
0
0
0
0
0
0
0
0
0
0
0
0.05780829
0.05750187
0.05755341
0.05799411
0.05886463
0
0
0
0
0
0
0
0
0
0
0
0
0
0
0.0565281
0.05623699
0.05628983
0.05671588
0.0575504
0
0
0
0
0
0
0
0
0
0
0.05521527
0.05494173
0.05499743
0.05541059
0.0562145
0
0
0
0
0
0
0
0
0
0
0.05392897
0.05367238
0.05373262
0.05413509
0.05491136
0
0
0
0
0
0
0
0
0
0
0.05271245
0.05247054
0.05253541
0.05292963
0.05368205
0
0
0
0
0
0
0
0
0
0
0.05158665
0.05135795
0.05142605
0.05181332
0.05254558
0
0
0
0
0
0
0
0
0
0
0.07935297
0.07948244
0.08046004
0.08252375
0.08600705
0
0.07694718
0.07691792
0.0776291
0.07924967
0.0820499
0
0
0.07486647
0.07473441
0.07526585
0.07659463
0.07891528
0
0
0
0.07300803
0.07280727
0.07321524
0.07433936
0.0763348
0
0
0
0
0.0712645
0.07101503
0.0713341
0.07230935
0.07406663
0
0
0
0
0
0.06952991
0.06924627
0.06949555
0.07035485
0.07192676
0
0
0
0
0
0
0.06776574
0.06745753
0.0676499
0.06840963
0.06982559
0
0
0
0
0
0
0
0.06603869
0.0657143
0.06586178
0.06653934
0.06782345
0
0
0
0
0
0
0
0
0.06440296
0.06406991
0.06418295
0.06479407
0.06596982
0
0
0
0
0
0
0
0
0
0.06288262
0.06254605
0.06263392
0.06319187
0.06427916
0
0
0
0
0
0
0
0
0
0
0.06147853
0.06114368
0.06121318
0.06172937
0.06274444
0
0
0
0
0
0
0
0
0
0
0
0.06017922
0.05984927
0.05990712
0.06039014
0.06134664
0
0
0
0
0
0
0
0
0
0
0
0
0.05896055
0.0586394
0.05869008
0.05914812
0.06005623
0
0
0
0
0
0
0
0
0
0
0
0
0
0.05778569
0.05747568
0.05752419
0.05796263
0.05883159
0
0
0
0
0
0
0
0
0
0
0
0
0
0
0.05660225
0.05630597
0.05635531
0.05677957
0.05761454
0
0
0
0
0
0
0
0
0
0
0
0
0
0
0
0.05536081
0.05508202
0.05513438
0.05554657
0.05635206
0
0
0
0
0
0
0
0
0
0
0.05408509
0.05382414
0.05388186
0.05428369
0.05506173
0
0
0
0
0
0
0
0
0
0
0.05283432
0.05258935
0.05265252
0.05304648
0.05380021
0
0
0
0
0
0
0
0
0
0
0.05164978
0.05141972
0.05148711
0.05187442
0.05260755
0
0
0
0
0
0
0
0
0
0
0.05055114
0.05033586
0.05040713
0.05078761
0.0515028
0
0
0
0
0
0
0
0
0
0
0.07681542
0.07678061
0.07748153
0.07908486
0.08185537
0
0
0.07464571
0.07450737
0.07502553
0.07633113
0.07861362
0
0
0
0.07274588
0.07253899
0.07293322
0.07403271
0.07598778
0
0
0
0
0.07103296
0.07077844
0.07108511
0.07203816
0.07375892
0
0
0
0
0
0.069411
0.06912388
0.0693643
0.07020753
0.07175328
0
0
0
0
0
0
0.06778423
0.0674748
0.06766366
0.06841678
0.0698218
0
0
0
0
0
0
0
0.06612048
0.06579574
0.06594228
0.06661803
0.06789901
0
0
0
0
0
0
0
0
0.06448413
0.06415109
0.06426416
0.06487528
0.06605085
0
0
0
0
0
0
0
0
0
0.06292918
0.0625927
0.0626808
0.06323908
0.0643268
0
0
0
0
0
0
0
0
0
0
0.06147853
0.06114368
0.06121318
0.06172937
0.06274444
0
0
0
0
0
0
0
0
0
0
0
0.06013525
0.05980497
0.05986231
0.06034466
0.06130032
0
0
0
0
0
0
0
0
0
0
0
0
0.05888787
0.05856573
0.05861517
0.0590717
0.05997811
0
0
0
0
0
0
0
0
0
0
0
0
0
0.05771511
0.05740292
0.05744923
0.05788544
0.05875208
0
0
0
0
0
0
0
0
0
0
0
0
0
0
0.05658136
0.05628126
0.05632732
0.05674888
0.05758195
0
0
0
0
0
0
0
0
0
0
0
0
0
0
0
0.05543439
0.05515033
0.05519881
0.05560886
0.05641405
0
0
0
0
0
0
0
0
0
0
0
0
0
0
0
0
0.05422818
0.05396198
0.0540163
0.05441673
0.05519591
0
0
0
0
0
0
0
0
0
0
0.05298766
0.05273827
0.05279883
0.0531921
0.05394717
0
0
0
0
0
0
0
0
0
0
0.05176939
0.05153634
0.05160195
0.05198889
0.0527232
0
0
0
0
0
0
0
0
0
0
0.05061303
0.05039631
0.05046687
0.05084732
0.05156329
0
0
0
0
0
0
0
0
0
0
0.04954088
0.0493375
0.04941394
0.04978872
0.05048745
0
0
0
0
0
0
0
0
0
0
0.07452492
0.07438313
0.07489425
0.07618777
0.07845061
0
0
0
0.0725416
0.07233106
0.07271637
0.07379945
0.07572737
0
0
0
0
0.07078958
0.07053191
0.07082916
0.07176463
0.07345603
0
0
0
0
0
0.06919675
0.06890741
0.06913961
0.06996678
0.07148581
0
0
0
0
0
0
0.06767694
0.06736639
0.06754975
0.06829165
0.06967766
0
0
0
0
0
0
0
0.06614252
0.06581791
0.06596281
0.06663452
0.06790818
0
0
0
0
0
0
0
0
0.06456519
0.06423253
0.06434558
0.06495612
0.06613021
0
0
0
0
0
0
0
0
0
0.06300854
0.0626724
0.06276097
0.06331977
0.06440801
0
0
0
0
0
0
0
0
0
0
0.06152382
0.06118922
0.06125909
0.06177581
0.06279153
0
0
0
0
0
0
0
0
0
0
0
0.06013525
0.05980497
0.05986231
0.06034466
0.06130032
0
0
0
0
0
0
0
0
0
0
0
0
0.05884525
0.05852271
0.05857155
0.0590273
0.05993276
0
0
0
0
0
0
0
0
0
0
0
0
0
0.05764491
0.05733153
0.05737647
0.05781104
0.05867572
0
0
0
0
0
0
0
0
0
0
0
0
0
0
0.05651356
0.05621116
0.0562548
0.05667389
0.05750444
0
0
0
0
0
0
0
0
0
0
0
0
0
0
0
0.05541543
0.05512743
0.05517241
0.0555795
0.05638233
0
0
0
0
0
0
0
0
0
0
0
0
0
0
0
0
0.05430139
0.05402996
0.05408026
0.05447814
0.05525659
0
0
0
0
0
0
0
0
0
0
0
0
0
0
0
0
0
0.05312872
0.05287396
0.05293106
0.05332281
0.0540785
0
0
0
0
0
0
0
0
0
0
0.05192012
0.05168275
0.05174563
0.05213174
0.05286726
0
0
0
0
0
0
0
0
0
0
0.0507307
0.05051086
0.05057965
0.05095962
0.0516766
0
0
0
0
0
0
0
0
0
0
0.04960155
0.04939681
0.04947244
0.04984717
0.05054657
0
0
0
0
0
0
0
0
0
0
0.04855519
0.04836254
0.04844304
0.04881455
0.04949839
0
0
0
0
0
0
0
0
0
0
0.07242971
0.07221705
0.07259752
0.07367191
0.07558567
0
0
0
0
0.07059869
0.07033931
0.07063045
0.07155413
0.0732256
0
0
0
0
0
0.06896869
0.06867833
0.0689043
0.06971852
0.07121574
0
0
0
0
0
0
0.06747664
0.06716597
0.06734414
0.06807443
0.06944033
0
0
0
0
0
0
0
0.06604423
0.06572024
0.06586212
0.06652615
0.06778596
0
0
0
0
0
0
0
0
0.06458933
0.06425788
0.06437066
0.06497908
0.06614852
0
0
0
0
0
0
0
0
0
0.06308827
0.06275303
0.06284231
0.06340143
0.06448943
0
0
0
0
0
0
0
0
0
0
0.06160107
0.06126714
0.06133778
0.06185545
0.0628722
0
0
0
0
0
0
0
0
0
0
0
0.06017922
0.05984927
0.05990713
0.06039014
0.06134664
0
0
0
0
0
0
0
0
0
0
0
0
0.05884525
0.05852271
0.05857155
0.0590273
0.05993276
0
0
0
0
0
0
0
0
0
0
0
0
0
0.05760372
0.05728983
0.05733412
0.05776783
0.05863144
0
0
0
0
0
0
0
0
0
0
0
0
0
0
0.05644582
0.0561422
0.05618429
0.05660163
0.05743011
0
0
0
0
0
0
0
0
0
0
0
0
0
0
0
0.0553505
0.05506008
0.05510254
0.05550696
0.05630704
0
0
0
0
0
0
0
0
0
0
0
0
0
0
0
0
0.05428444
0.05400908
0.05405574
0.05445043
0.05522625
0
0
0
0
0
0
0
0
0
0
0
0
0
0
0
0
0
0.05320198
0.05294181
0.05299488
0.05338388
0.05413837
0
0
0
0
0
0
0
0
0
0
0
0
0
0
0
0
0
0
0.05205929
0.0518167
0.05187594
0.05226039
0.05299631
0
0
0
0
0
0
0
0
0
0
0.05087923
0.05065491
0.05072103
0.05109998
0.05181795
0
0
0
0
0
0
0
0
0
0
0.04971733
0.04950959
0.0495833
0.04995752
0.05065776
0
0
0
0
0
0
0
0
0
0
0.04861479
0.04842071
0.04850046
0.0488718
0.04955627
0
0
0
0
0
0
0
0
0
0
0.04759255
0.0474104
0.04749416
0.04786172
0.04853357
0
0
0
0
0
0
0
0
0
0
0.07049412
0.0702336
0.07052131
0.07143864
0.07309959
0
0
0
0
0
0.06878887
0.06849817
0.06872011
0.06952556
0.07100784
0
0
0
0
0
0
0.06726125
0.06695109
0.06712534
0.06784613
0.06919524
0
0
0
0
0
0
0
0.06585534
0.06553272
0.06567167
0.06632737
0.06757189
0
0
0
0
0
0
0
0
0.06449798
0.06416847
0.06428006
0.06488345
0.06604284
0
0
0
0
0
0
0
0
0
0.0631135
0.06278019
0.06287028
0.06342869
0.06451403
0
0
0
0
0
0
0
0
0
0
0.06167891
0.06134641
0.06141826
0.06193696
0.06295437
0
0
0
0
0
0
0
0
0
0
0
0.06025424
0.05992513
0.05998407
0.0604683
0.06142623
0
0
0
0
0
0
0
0
0
0
0
0
0.05888787
0.05856573
0.05861517
0.0590717
0.05997811
0
0
0
0
0
0
0
0
0
0
0
0
0
0.05760372
0.05728983
0.05733412
0.05776783
0.05863144
0
0
0
0
0
0
0
0
0
0
0
0
0
0
0.05640602
0.05610188
0.05614323
0.05655966
0.05738701
0
0
0
0
0
0
0
0
0
0
0
0
0
0
0
0.05528527
0.05499353
0.05503443
0.05543693
0.05623484
0
0
0
0
0
0
0
0
0
0
0
0
0
0
0
0
0.05422243
0.05394459
0.05398863
0.05438055
0.05515343
0
0
0
0
0
0
0
0
0
0
0
0
0
0
0
0
0
0.05318728
0.05292302
0.05297245
0.05335813
0.05410973
0
0
0
0
0
0
0
0
0
0
0
0
0
0
0
0
0
0
0.05213262
0.0518848
0.05193979
0.05232145
0.05305591
0
0
0
0
0
0
0
0
0
0
0
0
0
0
0
0
0
0
0
0.05101696
0.05078723
0.0508498
0.05122685
0.05194502
0
0
0
0
0
0
0
0
0
0
0.0498638
0.04965169
0.0497225
0.05009569
0.05079668
0
0
0
0
0
0
0
0
0
0
0.04872892
0.04853177
0.04860967
0.04898031
0.04966556
0
0
0
0
0
0
0
0
0
0
0.0476511
0.04746758
0.04755052
0.04791794
0.04859027
0
0
0
0
0
0
0
0
0
0
0.0466533
0.04647969
0.04656683
0.04693003
0.04758964
0
0
0
0
0
0
0
0
0
0
0.06869041
0.06839928
0.06861885
0.06941948
0.07089375
0
0
0
0
0
0
0.0670907
0.06678119
0.06695291
0.06766721
0.06900469
0
0
0
0
0
0
0
0.06565058
0.06532958
0.0654663
0.06611502
0.06734653
0
0
0
0
0
0
0
0
0.06431842
0.06399146
0.06410178
0.06469928
0.06584697
0
0
0
0
0
0
0
0
0
0.06302751
0.06269707
0.06278741
0.06334275
0.06442089
0
0
0
0
0
0
0
0
0
0
0.06170424
0.06137439
0.06144781
0.06196691
0.06298314
0
0
0
0
0
0
0
0
0
0
0
0.06032992
0.06000249
0.06006314
0.0605489
0.06150819
0
0
0
0
0
0
0
0
0
0
0
0
0.05896055
0.0586394
0.05869008
0.05914812
0.06005623
0
0
0
0
0
0
0
0
0
0
0
0
0
0.05764491
0.05733153
0.05737647
0.05781104
0.05867572
0
0
0
0
0
0
0
0
0
0
0
0
0
0
0.05640601
0.05610188
0.05614323
0.05655966
0.05738701
0
0
0
0
0
0
0
0
0
0
0
0
0
0
0
0.05524688
0.05495456
0.05499472
0.05539624
0.05619299
0
0
0
0
0
0
0
0
0
0
0
0
0
0
0
0
0.05415974
0.0538805
0.05392289
0.0543129
0.05508347
0
0
0
0
0
0
0
0
0
0
0
0
0
0
0
0
0
0.05312826
0.05286143
0.05290819
0.053291
0.05403958
0
0
0
0
0
0
0
0
0
0
0
0
0
0
0
0
0
0
0.05212007
0.05186833
0.05191952
0.05229783
0.05302927
0
0
0
0
0
0
0
0
0
0
0
0
0
0
0
0
0
0
0
0.05109084
0.05085559
0.05091406
0.05128805
0.05200466
0
0
0
0
0
0
0
0
0
0
0
0
0
0
0
0
0
0
0
0
0.05000033
0.0497828
0.04984983
0.05022116
0.05092202
0
0
0
0
0
0
0
0
0
0
0.04887364
0.04867202
0.04874709
0.04911643
0.04980234
0
0
0
0
0
0
0
0
0
0
0.04776362
0.04757715
0.04765813
0.04802488
0.04869776
0
0
0
0
0
0
0
0
0
0
0.04671085
0.0465359
0.04662226
0.04698522
0.04764532
0
0
0
0
0
0
0
0
0
0
0.04573564
0.04557082
0.04565975
0.04601905
0.04666642
0
0
0
0
0
0
0
0
0
0
0.06699744
0.06668799
0.06685812
0.06756875
0.0688999
0
0
0
0
0
0
0
0.0654879
0.06516826
0.06530356
0.06594746
0.06716983
0
0
0
0
0
0
0
0
0.06412256
0.06379812
0.06390747
0.06449989
0.06563734
0
0
0
0
0
0
0
0
0
0.06285572
0.06252862
0.06261899
0.0631703
0.06423943
0
0
0
0
0
0
0
0
0
0
0.06162219
0.0612961
0.06137077
0.06188835
0.0628995
0
0
0
0
0
0
0
0
0
0
0.06035486
0.06003037
0.06009332
0.06058026
0.06153952
0
0
0
0
0
0
0
0
0
0
0
0
0.0590338
0.05871459
0.05876722
0.05922727
0.06013722
0
0
0
0
0
0
0
0
0
0
0
0
0
0.05771511
0.05740292
0.05744923
0.05788544
0.05875208
0
0
0
0
0
0
0
0
0
0
0
0
0
0
0.05644581
0.0561422
0.05618429
0.05660163
0.05743011
0
0
0
0
0
0
0
0
0
0
0
0
0
0
0
0.05524688
0.05495456
0.05499472
0.05539624
0.05619299
0
0
0
0
0
0
0
0
0
0
0
0
0
0
0
0
0.05412276
0.0538429
0.05388451
0.05427355
0.05504288
0
0
0
0
0
0
0
0
0
0
0
0
0
0
0
0
0
0.05306809
0.05279983
0.05284487
0.05322571
0.053972
0
0
0
0
0
0
0
0
0
0
0
0
0
0
0
0
0
0
0.05206388
0.05180969
0.05185814
0.05223356
0.0529619
0
0
0
0
0
0
0
0
0
0
0
0
0
0
0
0
0
0
0
0.05108075
0.05084132
0.05089616
0.05126664
0.0519802
0
0
0
0
0
0
0
0
0
0
0
0
0
0
0
0
0
0
0
0
0.05007493
0.04985188
0.04991448
0.05028286
0.05098187
0
0
0
0
0
0
0
0
0
0
0
0
0
0
0
0
0
0
0
0
0.04900924
0.04880216
0.04887339
0.04924057
0.04992633
0
0
0
0
0
0
0
0
0
0
0.04790663
0.04771585
0.04779386
0.04815932
0.04883253
0
0
0
0
0
0
0
0
0
0
0.04682183
0.046644
0.04672849
0.04709064
0.04775128
0
0
0
0
0
0
0
0
0
0
0.0457923
0.04562611
0.04571426
0.04607335
0.0467211
0
0
0
0
0
0
0
0
0
0
0.044839
0.04468213
0.04477337
0.04512755
0.04576352
0
0
0
0
0
0
0
0
0
0
0.06539909
0.06507988
0.06521416
0.06585525
0.06707256
0
0
0
0
0
0
0
0
0.06396656
0.06364408
0.06375282
0.06434166
0.06547185
0
0
0
0
0
0
0
0
0
0.06266752
0.06234348
0.06243391
0.06298155
0.06404257
0
0
0
0
0
0
0
0
0
0
0.06145679
0.06113475
0.06121037
0.06172538
0.06272958
0
0
0
0
0
0
0
0
0
0
0.06027596
0.05995554
0.06002072
0.06050724
0.06146311
0
0
0
0
0
0
0
0
0
0
0.05905775
0.05874191
0.05879714
0.05925913
0.06016985
0
0
0
0
0
0
0
0
0
0
0
0
0
0.05778569
0.05747568
0.05752419
0.05796263
0.05883159
0
0
0
0
0
0
0
0
0
0
0
0
0
0
0.05651355
0.05621116
0.0562548
0.05667389
0.05750444
0
0
0
0
0
0
0
0
0
0
0
0
0
0
0
0.05528527
0.05499353
0.05503443
0.05543693
0.05623484
0
0
0
0
0
0
0
0
0
0
0
0
0
0
0
0
0.05412276
0.0538429
0.05388451
0.05427355
0.05504288
0
0
0
0
0
0
0
0
0
0
0
0
0
0
0
0
0
0.05303252
0.05276361
0.05280784
0.05318767
0.05393275
0
0
0
0
0
0
0
0
0
0
0
0
0
0
0
0
0
0
0.05200611
0.05175057
0.05179728
0.05217067
0.05289667
0
0
0
0
0
0
0
0
0
0
0
0
0
0
0
0
0
0
0
0.0510276
0.0507855
0.05083772
0.05120525
0.05191569
0
0
0
0
0
0
0
0
0
0
0
0
0
0
0
0
0
0
0
0
0.0500674
0.04984012
0.04989884
0.05026386
0.05095965
0
0
0
0
0
0
0
0
0
0
0
0
0
0
0
0
0
0
0
0
0.04908475
0.0488721
0.04893888
0.04930277
0.04998674
0
0
0
0
0
0
0
0
0
0
0
0
0
0
0
0
0
0
0
0
0.04804131
0.04784526
0.04791934
0.04828254
0.04895525
0
0
0
0
0
0
0
0
0
0
0.0469632
0.04678117
0.04686281
0.04722349
0.04788441
0
0
0
0
0
0
0
0
0
0
0.04590195
0.04573279
0.04581913
0.04617746
0.04682556
0
0
0
0
0
0
0
0
0
0
0.04489478
0.04473659
0.044827
0.04518097
0.04581732
0
0
0
0
0
0
0
0
0
0
0.04396202
0.04381307
0.04390613
0.04425601
0.04487971
0
0
0
0
0
0
0
0
0
0
0.06388157
0.06355984
0.06366798
0.06425466
0.06538075
0
0
0
0
0
0
0
0
0
0.06251738
0.06219559
0.06228611
0.06283111
0.06388628
0
0
0
0
0
0
0
0
0
0
0.06127513
0.06095664
0.06103297
0.06154549
0.0625432
0
0
0
0
0
0
0
0
0
0
0.06011612
0.05979999
0.05986693
0.06035194
0.06130251
0
0
0
0
0
0
0
0
0
0
0.05898104
0.05866983
0.05872766
0.05919029
0.06009885
0
0
0
0
0
0
0
0
0
0
0.05780829
0.05750187
0.05755341
0.05799411
0.05886463
0
0
0
0
0
0
0
0
0
0
0
0
0
0
0.05658136
0.05628126
0.05632732
0.05674888
0.05758196
0
0
0
0
0
0
0
0
0
0
0
0
0
0
0
0.0553505
0.05506008
0.05510254
0.05550696
0.05630704
0
0
0
0
0
0
0
0
0
0
0
0
0
0
0
0
0.05415973
0.0538805
0.05392289
0.0543129
0.05508347
0
0
0
0
0
0
0
0
0
0
0
0
0
0
0
0
0
0.05303252
0.05276361
0.05280784
0.05318767
0.05393275
0
0
0
0
0
0
0
0
0
0
0
0
0
0
0
0
0
0
0.05197186
0.05171573
0.0517616
0.05213396
0.05285873
0
0
0
0
0
0
0
0
0
0
0
0