/*--------------------------------*- C++ -*----------------------------------*\
| =========                 |                                                 |
| \\      /  F ield         | OpenFOAM: The Open Source CFD Toolbox           |
|  \\    /   O peration     | Version:  2306                                  |
|   \\  /    A nd           | Website:  www.openfoam.com                      |
|    \\/     M anipulation  |                                                 |
\*---------------------------------------------------------------------------*/
FoamFile
{
    version     2.0;
    format      ascii;
    arch        "LSB;label=32;scalar=64";
    class       volScalarField;
    location    "0.3/fuel";
    object      H2;
}
// * * * * * * * * * * * * * * * * * * * * * * * * * * * * * * * * * * * * * //

dimensions      [0 0 0 0 0 0 0];

internalField   nonuniform List<scalar> 
16000
(
0.5722838
0.5773681
0.5064309
0.5725797
0.5877265
0.5096913
0.5776707
0.4467288
0.5066504
0.5731572
0.6035103
0.5162857
0.5880431
0.4491017
0.5099143
0.578261
0.3990202
0.4468919
0.5070792
0.5740066
0.6242154
0.5262206
0.6038502
0.4538874
0.5165159
0.5886608
0.4008544
0.4492669
0.5103498
0.5791293
0.3606648
0.3991459
0.4472111
0.5077105
0.5751235
0.6468827
0.5390669
0.6245905
0.4610674
0.5264625
0.604513
0.4045453
0.454057
0.5169655
0.5895692
0.3621315
0.4009815
0.4495901
0.510991
0.580271
0.3292345
0.3607647
0.399392
0.4476813
0.5085408
0.5762302
0.6644857
0.5529362
0.6473034
0.4702992
0.5393261
0.6253219
0.4100642
0.461244
0.5269348
0.6054878
0.3650776
0.4046753
0.4543887
0.5176274
0.5907636
0.3304362
0.3622324
0.4012303
0.4500663
0.5118343
0.5814023
0.3030085
0.3293159
0.3609605
0.3997548
0.4482999
0.5093635
0.5771481
0.6759992
0.5636723
0.664935
0.4802013
0.5532174
0.6481241
0.4171282
0.4704862
0.5398323
0.6263978
0.3694713
0.4101988
0.4615894
0.5276302
0.6067695
0.3328466
0.3651805
0.4049297
0.4548773
0.5184978
0.5919471
0.3040122
0.3305183
0.3624301
0.4015971
0.4506927
0.5126699
0.5823406
0.2807843
0.3030762
0.3294755
0.3612492
0.4002323
0.4489129
0.5100455
0.5780613
0.6826862
0.5707316
0.6764642
0.4878226
0.5639657
0.6658114
0.4246667
0.4804016
0.5537667
0.649332
0.3750755
0.4172698
0.4708521
0.5405775
0.6278127
0.3364339
0.3695774
0.4104622
0.4620982
0.5285446
0.6080396
0.3060229
0.3329302
0.3653821
0.4053047
0.4555202
0.5193603
0.5929293
0.2816356
0.3040803
0.3306793
0.3627216
0.4020798
0.4513135
0.5133625
0.5832742
0.2617029
0.2808414
0.3032089
0.329711
0.3616294
0.4007055
0.4494208
0.5107237
0.5789698
0.6857325
0.5748701
0.6831594
0.4928179
0.5710311
0.6773707
0.4304435
0.4880298
0.5645392
0.667101
0.3810327
0.4248172
0.4807937
0.5545757
0.6509215
0.3409971
0.3751866
0.4175469
0.4713911
0.5415579
0.6292154
0.3090105
0.3365199
0.3697854
0.4108506
0.4627676
0.5294508
0.6090957
0.2833397
0.3060922
0.333094
0.3656794
0.4057982
0.4561571
0.5200755
0.593907
0.2624345
0.2816932
0.3042141
0.3309169
0.3631054
0.4025582
0.4518279
0.5140514
0.5842031
0.2451352
0.2617518
0.2809536
0.3034049
0.3300212
0.3620062
0.4010975
0.4499256
0.5113981
0.5798735
0.6857325
0.576771
0.6862093
0.4957428
0.5751727
0.6840818
0.4342199
0.4930281
0.5716163
0.6787043
0.3855829
0.4305983
0.4884352
0.5653837
0.6687981
0.3458328
0.3811502
0.425112
0.4813716
0.5556406
0.6524984
0.3128025
0.3410867
0.3754043
0.4179556
0.4721004
0.5425295
0.6303877
0.2858682
0.3090816
0.3366884
0.3700921
0.4113618
0.4634309
0.5302034
0.6101489
0.2638979
0.2833981
0.3062281
0.3333359
0.3660709
0.4062874
0.4566852
0.5207872
0.5948802
0.245771
0.2624838
0.2818062
0.3044116
0.3312298
0.3634859
0.4029544
0.4523392
0.5147364
0.5851271
0.2306111
0.2451776
0.2618479
0.2811193
0.303663
0.3303288
0.3623183
0.4014871
0.4504275
0.5120686
0.584246
0.6826862
0.576771
0.6862093
0.497086
0.5770749
0.6871387
0.4364283
0.4959544
0.5757637
0.6854385
0.3885515
0.4343763
0.4934392
0.572478
0.6804591
0.3495169
0.3857032
0.4309013
0.4890326
0.5664951
0.6704817
0.3168111
0.3459272
0.3813805
0.4255468
0.4821323
0.5566964
0.6538286
0.2890718
0.3128764
0.3412625
0.3757254
0.4184934
0.4728034
0.5433401
0.6315631
0.2660667
0.285928
0.3092211
0.3369371
0.3704959
0.4118683
0.4639815
0.5309534
0.6111992
0.2470417
0.2639478
0.2835128
0.3064289
0.3336543
0.3664588
0.4066927
0.4572103
0.5214951
0.5958489
0.2311688
0.2458136
0.2625806
0.2819731
0.3046718
0.3315399
0.3638009
0.4033483
0.4528475
0.5154176
0.5895983
0.2177717
0.2306481
0.2452609
0.2619899
0.2813377
0.303919
0.3305834
0.3626283
0.4018741
0.4509262
0.5153116
0.5872563
0.6759992
0.5748701
0.6831594
0.497086
0.5770749
0.6871387
0.4374419
0.4972981
0.5776684
0.6885055
0.3902859
0.4365853
0.4963681
0.5766338
0.6872234
0.3519167
0.3886728
0.4346824
0.494045
0.5736118
0.6821999
0.3198588
0.3496133
0.385939
0.4313482
0.4898192
0.5675972
0.6719026
0.2924516
0.3168887
0.3461125
0.3817204
0.4261194
0.4828866
0.5575843
0.6551747
0.2688105
0.2891338
0.3130215
0.3415219
0.3761482
0.4190265
0.4733895
0.5441513
0.6327415
0.2489232
0.2661178
0.2860455
0.3094271
0.3372647
0.3708962
0.4122888
0.46453
0.5317006
0.6122466
0.2322828
0.2470849
0.2640459
0.2836822
0.3066933
0.33397
0.3667803
0.4070957
0.4577325
0.5221993
0.6005386
0.2182649
0.2312061
0.2458974
0.2627235
0.282193
0.3049298
0.3317968
0.364114
0.4037396
0.4533527
0.5187121
0.5926902
0.2063383
0.2178044
0.230721
0.245384
0.2621772
0.2815542
0.304131
0.3308363
0.3629363
0.4022587
0.4533376
0.5175366
0.5895386
0.6644857
0.5707316
0.6764642
0.4957428
0.5751727
0.6840818
0.4374419
0.4972981
0.5776684
0.6885055
0.3910817
0.4375992
0.4977129
0.5785421
0.6903036
0.3533176
0.3904075
0.4368927
0.4969777
0.5777787
0.6889941
0.3218415
0.3520136
0.3889103
0.4351339
0.4948425
0.5747361
0.6836663
0.2950168
0.3199379
0.3498023
0.386287
0.4319368
0.490599
0.5685244
0.6733411
0.2717004
0.2925166
0.3170412
0.346386
0.3821682
0.4266871
0.4835205
0.5584802
0.656537
0.2513005
0.2688634
0.2892557
0.3132357
0.3418636
0.3765674
0.4194709
0.4739758
0.5449632
0.6339228
0.233931
0.2489673
0.2662181
0.286219
0.3096984
0.3375895
0.3712283
0.4127074
0.4650762
0.532445
0.6173265
0.2192498
0.2323206
0.2471698
0.2641909
0.2839054
0.3069555
0.3342315
0.3670998
0.4074963
0.4582518
0.5256068
0.6038351
0.2067777
0.2182978
0.2312794
0.2460213
0.262912
0.2824112
0.3051434
0.3320519
0.364425
0.4041285
0.4557954
0.5209803
0.5950454
0.1960912
0.2063674
0.2178687
0.2308288
0.2455463
0.2623628
0.2817335
0.3043414
0.3310875
0.3632423
0.4041175
0.4549878
0.51922
0.5910726
0.6468827
0.5636723
0.664935
0.4928179
0.5710311
0.6773707
0.4364283
0.4959544
0.5757637
0.6854385
0.3910817
0.4375992
0.4977129
0.5785421
0.6903036
0.3539601
0.3912033
0.437907
0.4983241
0.5796917
0.6920873
0.3229983
0.3534147
0.3906456
0.437346
0.4977801
0.5789138
0.6904835
0.2966839
0.3219209
0.3522037
0.3892609
0.4357284
0.4956332
0.5756803
0.685148
0.2738907
0.2950829
0.320093
0.3500815
0.3867454
0.4325204
0.4912547
0.5694601
0.6747972
0.2538009
0.2717557
0.2926443
0.3172664
0.3467465
0.3826123
0.4271641
0.4841597
0.5593841
0.6579157
0.2360113
0.2513461
0.2689673
0.2894357
0.3135179
0.3422024
0.3769167
0.4199153
0.4745623
0.5457757
0.6396832
0.2207057
0.2339695
0.249054
0.2663664
0.2864477
0.3099675
0.3378589
0.371559
0.4131242
0.4656202
0.5360524
0.6210931
0.2076546
0.219283
0.2323948
0.2472953
0.264382
0.2841268
0.3071726
0.3344914
0.3674174
0.4078946
0.4607633
0.5279842
0.6063926
0.1964851
0.2068069
0.2183625
0.2313878
0.2461847
0.2630989
0.2825917
0.3053556
0.3323054
0.364734
0.4060082
0.4574726
0.5227031
0.5966355
0.1868544
0.1961172
0.2064246
0.2179638
0.2309709
0.2457074
0.2625165
0.2819115
0.3045505
0.3313371
0.3647208
0.4053873
0.4562348
0.5203498
0.5918436
0.6242154
0.5529362
0.6473034
0.4878226
0.5639657
0.6658114
0.4342199
0.4930281
0.5716163
0.6787043
0.3902859
0.4365853
0.4963681
0.5766338
0.6872234
0.3539601
0.3912033
0.437907
0.4983241
0.5796917
0.6920873
0.3235286
0.3540572
0.3914417
0.438361
0.4991285
0.5808315
0.6935867
0.297656
0.3230777
0.353605
0.3909971
0.4379428
0.4985756
0.5798659
0.6919863
0.2753129
0.2967502
0.3220767
0.3524844
0.3897227
0.4363178
0.4962968
0.5766317
0.6866452
0.2556938
0.2739468
0.2952127
0.3203223
0.3504494
0.3871999
0.4330109
0.491916
0.5704044
0.6762712
0.2381966
0.2538485
0.2718644
0.2928331
0.3175632
0.347104
0.3829853
0.427645
0.4848043
0.5602961
0.6647032
0.2225417
0.2360511
0.2514358
0.2691208
0.289673
0.3137978
0.3424847
0.377266
0.4203597
0.4751489
0.5497308
0.6445957
0.2089503
0.2207396
0.2340452
0.2491822
0.2665618
0.2866745
0.3101907
0.338127
0.3718881
0.4135391
0.4682551
0.5386838
0.6242016
0.197271
0.2076842
0.2193484
0.2325045
0.2474607
0.2645715
0.2843102
0.3073884
0.3347497
0.367733
0.4098204
0.4625102
0.5298173
0.6081506
0.1872096
0.1965113
0.2068644
0.2184582
0.2315308
0.2463467
0.2632536
0.282771
0.3055663
0.3325571
0.3662272
0.4072965
0.4587448
0.5238635
0.5974373
0.1784858
0.1868778
0.1961684
0.2065092
0.2180894
0.231112
0.2458406
0.2626691
0.2820883
0.3047581
0.3325427
0.3657294
0.406346
0.4570709
0.5209171
0.6035103
0.5390669
0.6245905
0.4802013
0.5532174
0.6481241
0.4304435
0.4880298
0.5645392
0.667101
0.3885515
0.4343763
0.4934392
0.572478
0.6804591
0.3533176
0.3904075
0.4368927
0.4969777
0.5777787
0.6889941
0.3235286
0.3540572
0.3914417
0.438361
0.4991285
0.5808315
0.6935867
0.2981016
0.3236081
0.3542477
0.3917934
0.4389587
0.4999259
0.5817869
0.6950984
0.2761418
0.2977222
0.3232336
0.3538861
0.39146
0.4385345
0.4992424
0.580824
0.6935025
0.2569218
0.2753691
0.2968804
0.3223069
0.3528543
0.3901806
0.4368124
0.4969652
0.5775903
0.688158
0.2398492
0.255742
0.2740571
0.2954045
0.3206245
0.3508142
0.3875819
0.4335055
0.492583
0.5713575
0.6835291
0.2244684
0.2382381
0.2539421
0.272025
0.293082
0.3178576
0.3474043
0.3833613
0.4281298
0.4854543
0.5647729
0.6719391
0.2105828
0.2225767
0.2361292
0.2515683
0.2693232
0.2899083
0.314031
0.3427669
0.3776152
0.4208041
0.4780033
0.552988
0.6493618
0.1984315
0.2089804
0.2208063
0.2341572
0.2493512
0.2667556
0.2868625
0.3104128
0.3383939
0.3722157
0.4155487
0.4701695
0.5408223
0.6264844
0.1879178
0.1972974
0.2077423
0.2194452
0.2326492
0.2476249
0.2647284
0.2844923
0.3076028
0.3350064
0.369259
0.4111573
0.4638548
0.5310705
0.6090495
0.1788076
0.1872331
0.1965627
0.2069495
0.2185844
0.2316726
0.2464808
0.2634073
0.2829492
0.3057756
0.3337736
0.3672493
0.4082727
0.4596007
0.5244476
0.1708685
0.178507
0.1869239
0.1962441
0.2066208
0.2182139
0.2312287
0.245973
0.2628207
0.2822639
0.305761
0.3333643
0.3664904
0.4069884
0.4574905
0.5877265
0.5262206
0.6038502
0.4702992
0.5393261
0.6253219
0.4246667
0.4804016
0.5537667
0.649332
0.3855829
0.4305983
0.4884352
0.5653837
0.6687981
0.3519167
0.3886728
0.4346824
0.494045
0.5736118
0.6821999
0.3229983
0.3534147
0.3906456
0.437346
0.4977801
0.5789138
0.6904835
0.2981016
0.3236081
0.3542477
0.3917934
0.4389587
0.4999259
0.5817869
0.6950984
0.2765216
0.2981678
0.3237639
0.3545288
0.3922566
0.4395513
0.500594
0.5827478
0.6966227
0.2576373
0.2761979
0.2978524
0.3234638
0.3542564
0.3919189
0.4390304
0.4999131
0.5817881
0.6950324
0.2409207
0.2569701
0.2754796
0.2970727
0.3226102
0.353221
0.3905647
0.4373103
0.4976381
0.5785561
0.6955929
0.225924
0.2398912
0.2558368
0.2742201
0.2956575
0.3209242
0.3511207
0.387967
0.4340042
0.4932558
0.5760364
0.6911757
0.2122943
0.2245048
0.2383196
0.2540806
0.2722369
0.293329
0.3181049
0.3477069
0.3837403
0.4286185
0.4886431
0.5692935
0.6810323
0.1998926
0.2106138
0.2226454
0.2362448
0.251743
0.2695239
0.2901044
0.3142641
0.3430491
0.3779644
0.4229659
0.480341
0.5560501
0.6536107
0.1889632
0.1984583
0.2090396
0.220905
0.2343049
0.2495189
0.2669164
0.2870497
0.3106339
0.3386596
0.373802
0.4170057
0.4717211
0.5423701
0.6277238
0.1794492
0.1879416
0.1973494
0.2078283
0.2195729
0.2327928
0.2477608
0.2648843
0.2846733
0.3078159
0.3362471
0.3703169
0.4121853
0.4647729
0.5317088
0.1711614
0.1788289
0.1872794
0.1966388
0.2070617
0.2187096
0.23179
0.246614
0.2635599
0.283126
0.3067868
0.3346053
0.3680232
0.4089291
0.4600314
0.1639065
0.1708877
0.1785486
0.1869921
0.1963441
0.2067316
0.218317
0.2313446
0.2461044
0.2629712
0.2831118
0.3064439
0.3339838
0.367
0.4073106
0.5773681
0.5162857
0.5880431
0.4610674
0.5264625
0.604513
0.4171282
0.4704862
0.5398323
0.6263978
0.3810327
0.4248172
0.4807937
0.5545757
0.6509215
0.3495169
0.3857032
0.4309013
0.4890326
0.5664951
0.6704817
0.3218415
0.3520136
0.3889103
0.4351339
0.4948425
0.5747361
0.6836663
0.297656
0.3230777
0.353605
0.3909971
0.4379428
0.4985756
0.5798659
0.6919863
0.2765216
0.2981678
0.3237639
0.3545288
0.3922566
0.4395513
0.500594
0.5827478
0.6966227
0.2579651
0.2765778
0.2982979
0.3239941
0.3548991
0.3927159
0.4400476
0.5012655
0.5837141
0.6981596
0.2415447
0.2576855
0.2763083
0.2980446
0.3237672
0.3546235
0.3923034
0.4395289
0.5005876
0.5827583
0.7025403
0.2268673
0.2409627
0.257065
0.2756428
0.2973263
0.3229111
0.3535286
0.3909514
0.4378115
0.4983158
0.5832898
0.7030785
0.2135864
0.2259608
0.2399737
0.2559771
0.274435
0.2959084
0.3211761
0.3514297
0.3883553
0.4345071
0.496557
0.5807171
0.7004402
0.2014232
0.2123266
0.2245764
0.2384402
0.2542632
0.2724472
0.2935363
0.3183541
0.3480119
0.3841223
0.4310156
0.4918425
0.5747418
0.6928123
0.1902786
0.1999202
0.2106747
0.2227471
0.2363972
0.2519164
0.2696911
0.2903003
0.3144971
0.3433311
0.3796625
0.4247328
0.4825297
0.5587027
0.656544
0.1803957
0.1889874
0.1985112
0.2091272
0.2210351
0.2344514
0.2496579
0.2670763
0.287236
0.3108539
0.3399456
0.3749506
0.4181855
0.4728418
0.5432011
0.1717453
0.1794706
0.1879883
0.1974263
0.2079418
0.2196996
0.2329117
0.2478958
0.2650392
0.2848531
0.3088456
0.3371063
0.3711298
0.4128867
0.46524
0.1641742
0.1711808
0.1788707
0.1873479
0.1967393
0.2071731
0.2188133
0.2319066
0.2467462
0.2637114
0.2839805
0.3074776
0.3352348
0.3685434
0.4092593
0.1575191
0.163924
0.1709256
0.1786104
0.1870821
0.1964433
0.2068233
0.2184193
0.2314596
0.2462348
0.2636979
0.2836888
0.3069586
0.3343986
0.3672556
0.5722838
0.5096913
0.5776707
0.4538874
0.5165159
0.5886608
0.4100642
0.461244
0.5269348
0.6054878
0.3750755
0.4172698
0.4708521
0.5405775
0.6278127
0.3458328
0.3811502
0.425112
0.4813716
0.5556406
0.6524984
0.3198588
0.3496133
0.385939
0.4313482
0.4898192
0.5675972
0.6719026
0.2966839
0.3219209
0.3522037
0.3892609
0.4357284
0.4956332
0.5756803
0.685148
0.2761418
0.2977222
0.3232336
0.3538861
0.39146
0.4385345
0.4992424
0.580824
0.6935025
0.2579651
0.2765778
0.2982979
0.3239941
0.3548991
0.3927159
0.4400476
0.5012655
0.5837141
0.6981596
0.2418306
0.2580133
0.276688
0.29849
0.3242975
0.3552664
0.3931005
0.4405462
0.5019404
0.5846858
0.705697
0.2274164
0.2415866
0.2577803
0.2764714
0.2982981
0.3240681
0.3549311
0.3926899
0.4400301
0.5012659
0.5875071
0.7098568
0.2144233
0.2269041
0.2410452
0.2572054
0.2758581
0.2975778
0.3231634
0.3538382
0.3913405
0.4383161
0.5016355
0.5878322
0.71176
0.2025779
0.213619
0.2260333
0.2400957
0.2561622
0.2746483
0.2961192
0.3214299
0.3517412
0.3887467
0.4369741
0.4998423
0.5861691
0.7115194
0.1916556
0.2014519
0.21239
0.2246824
0.2385993
0.2544445
0.2726237
0.2937453
0.3186052
0.3483193
0.3859955
0.4334171
0.4956791
0.5815598
0.7089016
0.181586
0.1903034
0.1999746
0.2107649
0.2228813
0.2365485
0.2520608
0.2698583
0.2904962
0.31473
0.3447028
0.3810488
0.4263853
0.4844186
0.56049
0.1726063
0.1804175
0.1890349
0.1985895
0.2092427
0.2211642
0.2345728
0.2497963
0.2672355
0.2874213
0.3119188
0.3408758
0.3758801
0.4190369
0.4734426
0.1647077
0.1717648
0.1795129
0.1880575
0.1975278
0.2080544
0.2198044
0.2330298
0.2480299
0.2651931
0.2857222
0.3095581
0.3377663
0.3716842
0.4132435
0.1577648
0.1641918
0.1712188
0.1789327
0.1874384
0.196839
0.2072653
0.2189162
0.2320223
0.2468775
0.2644433
0.2845638
0.3080002
0.3356578
0.3688049
0.1516388
0.1575352
0.1639586
0.1709818
0.1786919
0.1871715
0.1965254
0.2069144
0.2185209
0.2315738
0.2468649
0.2641922
0.2841236
0.3073032
0.3346066
0.5064309
0.5725797
0.4491017
0.5099143
0.578261
0.4045453
0.454057
0.5169655
0.5895692
0.3694713
0.4101988
0.4615894
0.5276302
0.6067695
0.3409971
0.3751866
0.4175469
0.4713911
0.5415579
0.6292154
0.3168111
0.3459272
0.3813805
0.4255468
0.4821323
0.5566964
0.6538286
0.2950168
0.3199379
0.3498023
0.386287
0.4319368
0.490599
0.5685244
0.6733411
0.2753129
0.2967502
0.3220767
0.3524844
0.3897227
0.4363178
0.4962968
0.5766317
0.6866452
0.2576373
0.2761979
0.2978524
0.3234638
0.3542564
0.3919189
0.4390304
0.4999131
0.5817881
0.6950324
0.2418306
0.2580133
0.276688
0.29849
0.3242975
0.3552664
0.3931005
0.4405462
0.5019404
0.5846858
0.705697
0.227668
0.2418724
0.258108
0.276851
0.2987434
0.3245984
0.3555738
0.3934868
0.4410473
0.5026188
0.5894395
0.7129311
0.2149103
0.2274531
0.2416689
0.2579205
0.2766864
0.2985495
0.3243202
0.3552402
0.3930784
0.4405341
0.5045845
0.5919294
0.7181136
0.2033255
0.2144558
0.2269765
0.2411672
0.2573906
0.2760717
0.2977887
0.3234173
0.3541498
0.3917322
0.4407872
0.5048075
0.5929022
0.7216564
0.1926937
0.202607
0.2136831
0.2261404
0.2402568
0.2563458
0.2748275
0.2963316
0.3216857
0.3520552
0.3906666
0.4394264
0.503654
0.5924766
0.7245838
0.1828313
0.1916813
0.2015085
0.2124839
0.2248223
0.2387572
0.2545967
0.2728016
0.2939559
0.3188582
0.3498265
0.3878711
0.4362933
0.5004544
0.5906072
0.7372688
0.1736885
0.1816084
0.1903523
0.2000552
0.210884
0.2230145
0.2366745
0.2522051
0.2700253
0.2906919
0.3158625
0.3458217
0.3823449
0.4278101
0.4856879
0.1654942
0.1726261
0.1804605
0.1891053
0.1986928
0.2093574
0.2212713
0.2346937
0.2499339
0.2673939
0.2883184
0.3126885
0.3416283
0.3765506
0.4194933
0.158254
0.1647255
0.1718032
0.1795755
0.1881489
0.1976286
0.2081476
0.2199086
0.2331471
0.2481632
0.2659368
0.2863231
0.3101052
0.3382162
0.3719661
0.1518649
0.1577809
0.1642266
0.1712752
0.1790146
0.1875282
0.1969215
0.2073568
0.2190183
0.2321372
0.2475118
0.2649427
0.285005
0.3083512
0.3358703
0.1462084
0.1516536
0.1575669
0.1640099
0.1710559
0.1787728
0.1872454
0.196607
0.2070047
0.2186217
0.2321254
0.2472931
0.2645645
0.2844146
0.3074759
0.4467288
0.5066504
0.5731572
0.4008544
0.4492669
0.5103498
0.5791293
0.3650776
0.4046753
0.4543887
0.5176274
0.5907636
0.3364339
0.3695774
0.4104622
0.4620982
0.5285446
0.6080396
0.3128025
0.3410867
0.3754043
0.4179556
0.4721004
0.5425295
0.6303877
0.2924516
0.3168887
0.3461125
0.3817204
0.4261194
0.4828866
0.5575843
0.6551747
0.2738907
0.2950829
0.320093
0.3500815
0.3867454
0.4325204
0.4912547
0.5694601
0.6747972
0.2569218
0.2753691
0.2968804
0.3223069
0.3528543
0.3901806
0.4368124
0.4969652
0.5775903
0.688158
0.2415447
0.2576855
0.2763083
0.2980446
0.3237672
0.3546235
0.3923034
0.4395289
0.5005876
0.5827583
0.7025403
0.227668
0.2418724
0.258108
0.276851
0.2987434
0.3245984
0.3555738
0.3934868
0.4410473
0.5026188
0.5894395
0.7129311
0.2151334
0.2277046
0.2419547
0.258248
0.2770659
0.2989946
0.3248502
0.3558827
0.3938749
0.4415507
0.5059356
0.5938051
0.7209947
0.2037604
0.2149428
0.2275254
0.2417908
0.2581054
0.2768998
0.29876
0.3245735
0.3555509
0.393469
0.4429989
0.5076637
0.5967355
0.7273079
0.1933655
0.2033544
0.2145199
0.2270836
0.2413283
0.2575744
0.2762508
0.298001
0.3236728
0.3544634
0.39365
0.4431462
0.5083374
0.598491
0.732738
0.1837697
0.1927197
0.2026641
0.213778
0.2262819
0.2404166
0.2565001
0.2750081
0.2965457
0.3219436
0.3535952
0.3925743
0.4422692
0.5080459
0.5996987
0.7426027
0.1748201
0.1828546
0.1917321
0.2015923
0.2126079
0.2249612
0.2388898
0.25475
0.2729808
0.294168
0.320099
0.3513352
0.3901164
0.4398664
0.5067542
0.6062005
0.753807
0.1664823
0.1737089
0.1816526
0.1904247
0.2001616
0.2110022
0.2231255
0.2368004
0.2523494
0.2701923
0.2916438
0.3167859
0.3468674
0.3834617
0.4287669
0.1589752
0.1655122
0.1726651
0.1805241
0.1891982
0.1987954
0.2094525
0.2213779
0.234814
0.2500709
0.2681604
0.2889664
0.3133109
0.3421709
0.37691
0.1523152
0.1582703
0.1647605
0.1718601
0.1796582
0.1882396
0.197712
0.2082402
0.2200121
0.2332636
0.2488071
0.2664508
0.2867844
0.3104781
0.3384449
0.1464172
0.1518798
0.1578127
0.164278
0.1713496
0.1790959
0.1876025
0.1970035
0.2074477
0.2191198
0.2326923
0.2479443
0.2653203
0.2853012
0.3085276
0.1411789
0.146222
0.1516828
0.1576139
0.1640776
0.1711295
0.1788397
0.1873188
0.1966879
0.2070944
0.2191087
0.2325002
0.2476157
0.2648136
0.2845604
0.3990202
0.4468919
0.5070792
0.5740066
0.3621315
0.4009815
0.4495901
0.510991
0.580271
0.3328466
0.3651805
0.4049297
0.4548773
0.5184978
0.5919471
0.3090105
0.3365199
0.3697854
0.4108506
0.4627676
0.5294508
0.6090957
0.2890718
0.3128764
0.3412625
0.3757254
0.4184934
0.4728034
0.5433401
0.6315631
0.2717004
0.2925166
0.3170412
0.346386
0.3821682
0.4266871
0.4835205
0.5584802
0.656537
0.2556938
0.2739468
0.2952127
0.3203223
0.3504494
0.3871999
0.4330109
0.491916
0.5704044
0.6762712
0.2409207
0.2569701
0.2754796
0.2970727
0.3226102
0.353221
0.3905647
0.4373103
0.4976381
0.5785561
0.6955929
0.2274164
0.2415866
0.2577803
0.2764714
0.2982981
0.3240681
0.3549311
0.3926899
0.4400301
0.5012659
0.5875071
0.7098568
0.2151334
0.2277046
0.2419547
0.258248
0.2770659
0.2989946
0.3248502
0.3558827
0.3938749
0.4415507
0.5059356
0.5938051
0.7209947
0.2039596
0.2151658
0.2277768
0.2420764
0.2584327
0.2772791
0.299205
0.3251031
0.3561929
0.3942648
0.4440116
0.5089713
0.5984931
0.7298873
0.1937563
0.2037893
0.2150067
0.2276323
0.2419515
0.2582888
0.2770785
0.2989716
0.324828
0.3558632
0.3953788
0.4452837
0.5110023
0.6019086
0.7374119
0.1843766
0.1933915
0.2034115
0.2146147
0.227225
0.2414881
0.2577284
0.276431
0.2982145
0.3239299
0.3559984
0.39548
0.4457698
0.5122167
0.6045583
0.7473704
0.1756723
0.1837931
0.192771
0.2027487
0.2139033
0.2264223
0.2405508
0.2566555
0.27519
0.2967615
0.3232082
0.355125
0.3947851
0.4455401
0.5130537
0.6093945
0.7561493
0.1675149
0.1748412
0.1829004
0.1918074
0.201703
0.212731
0.2250778
0.2390234
0.2549045
0.2731614
0.2952083
0.3213406
0.3531406
0.3929026
0.4445671
0.5175455
0.6157669
0.766446
0.1598808
0.1665008
0.1737489
0.181718
0.1905203
0.2002672
0.2111006
0.2232363
0.2369263
0.2524935
0.271004
0.2924194
0.3176486
0.3477683
0.3842117
0.1529787
0.1589917
0.1655478
0.1727229
0.1806082
0.1892905
0.1988804
0.2095471
0.2214838
0.2349336
0.2507337
0.2687138
0.2894902
0.3137597
0.3424618
0.1468329
0.1523302
0.1583024
0.1648124
0.1719352
0.1797402
0.1883147
0.1977949
0.2083322
0.2201149
0.2338267
0.2492518
0.2668451
0.2870987
0.3106676
0.1413722
0.1464308
0.151909
0.1578599
0.164346
0.1714235
0.1791631
0.1876762
0.1970848
0.2075379
0.2196097
0.2330707
0.2482713
0.2655738
0.2854501
0.1365082
0.1411915
0.1462489
0.151726
0.1576759
0.1641448
0.1711903
0.1789062
0.1873917
0.1967682
0.2075276
0.2194395
0.2327824
0.2478315
0.2649384
0.3606648
0.3991459
0.4472111
0.5077105
0.5751235
0.3304362
0.3622324
0.4012303
0.4500663
0.5118343
0.5814023
0.3060229
0.3329302
0.3653821
0.4053047
0.4555202
0.5193603
0.5929293
0.2858682
0.3090816
0.3366884
0.3700921
0.4113618
0.4634309
0.5302034
0.6101489
0.2688105
0.2891338
0.3130215
0.3415219
0.3761482
0.4190265
0.4733895
0.5441513
0.6327415
0.2538009
0.2717557
0.2926443
0.3172664
0.3467465
0.3826123
0.4271641
0.4841597
0.5593841
0.6579157
0.2398492
0.255742
0.2740571
0.2954045
0.3206245
0.3508142
0.3875819
0.4335055
0.492583
0.5713575
0.6835291
0.2268673
0.2409627
0.257065
0.2756428
0.2973263
0.3229111
0.3535286
0.3909514
0.4378115
0.4983158
0.5832898
0.7030785
0.2149103
0.2274531
0.2416689
0.2579205
0.2766864
0.2985495
0.3243202
0.3552402
0.3930784
0.4405341
0.5045845
0.5919294
0.7181136
0.2039596
0.2151658
0.2277768
0.2420764
0.2584327
0.2772791
0.299205
0.3251031
0.3561929
0.3942648
0.4440116
0.5089713
0.5984931
0.7298873
0.1939352
0.2039884
0.2152296
0.2278835
0.2422369
0.258616
0.2774575
0.2994162
0.3253572
0.3565044
0.3961702
0.4462619
0.5122244
0.6034896
0.7395927
0.1847296
0.1937822
0.2038462
0.2151013
0.2277733
0.242111
0.2584425
0.277258
0.2991842
0.3250838
0.35739
0.3971485
0.4477601
0.5145873
0.6074155
0.7506162
0.1762233
0.1844
0.1934426
0.203496
0.2147398
0.2273653
0.2416221
0.2578834
0.2766123
0.2984294
0.3251884
0.3574629
0.3975151
0.4486502
0.5164157
0.6123375
0.7589002
0.1682922
0.1756936
0.1838394
0.1928469
0.2028605
0.2140277
0.2265403
0.2406861
0.2568122
0.2753734
0.2978197
0.3244643
0.3568976
0.3973266
0.4492622
0.5197511
0.617309
0.7676367
0.1608268
0.1675341
0.1748828
0.1829684
0.1919068
0.2018129
0.2128344
0.2251952
0.239158
0.2550602
0.2740468
0.2962492
0.3228263
0.3553793
0.3965614
0.4525907
0.5241222
0.6235493
0.776406
0.1538117
0.1598978
0.1665373
0.1738083
0.1818044
0.1906152
0.2003551
0.211199
0.2233471
0.237052
0.2531943
0.2716652
0.293144
0.3183917
0.3483732
0.1474453
0.1529939
0.1590243
0.1656006
0.1727993
0.1806916
0.189367
0.198965
0.2096413
0.2215893
0.2355126
0.251212
0.269161
0.2898679
0.3140002
0.1417571
0.1468467
0.1523597
0.15835
0.164881
0.1720098
0.1798082
0.1883893
0.1978772
0.2084235
0.2206116
0.2342155
0.2495931
0.2671138
0.2872584
0.1366877
0.1413849
0.1464578
0.1519524
0.1579222
0.1644135
0.1714847
0.1792299
0.1877495
0.1971655
0.2079735
0.2199435
0.2333567
0.2484908
0.2657012
0.1321601
0.1365199
0.1412164
0.1462888
0.1517831
0.1577376
0.1642004
0.1712508
0.1789721
0.187464
0.197156
0.2078217
0.2196886
0.2329712
0.2479396
0.3292345
0.3607647
0.399392
0.4476813
0.5085408
0.5762302
0.3040122
0.3305183
0.3624301
0.4015971
0.4506927
0.5126699
0.5823406
0.2833397
0.3060922
0.333094
0.3656794
0.4057982
0.4561571
0.5200755
0.593907
0.2660667
0.285928
0.3092211
0.3369371
0.3704959
0.4118683
0.4639815
0.5309534
0.6111992
0.2513005
0.2688634
0.2892557
0.3132357
0.3418636
0.3765674
0.4194709
0.4739758
0.5449632
0.6339228
0.2381966
0.2538485
0.2718644
0.2928331
0.3175632
0.347104
0.3829853
0.427645
0.4848043
0.5602961
0.6647032
0.225924
0.2398912
0.2558368
0.2742201
0.2956575
0.3209242
0.3511207
0.387967
0.4340042
0.4932558
0.5760364
0.6911757
0.2144233
0.2269041
0.2410452
0.2572054
0.2758581
0.2975778
0.3231634
0.3538382
0.3913405
0.4383161
0.5016355
0.5878322
0.71176
0.2037604
0.2149428
0.2275254
0.2417908
0.2581054
0.2768998
0.29876
0.3245735
0.3555509
0.393469
0.4429989
0.5076637
0.5967355
0.7273079
0.1939352
0.2039884
0.2152296
0.2278835
0.2422369
0.258616
0.2774575
0.2994162
0.3253572
0.3565044
0.3961702
0.4462619
0.5122244
0.6034896
0.7395927
0.1848912
0.1939611
0.2040453
0.2153241
0.2280244
0.2423963
0.2587694
0.2776367
0.2996283
0.3256123
0.3580269
0.3979118
0.4486726
0.5156846
0.6087703
0.7522344
0.1765437
0.184753
0.1938332
0.2039305
0.2152261
0.2279133
0.2422446
0.2585968
0.2774384
0.2993979
0.3263344
0.3588044
0.3990663
0.4504173
0.5183949
0.6143958
0.7610449
0.1687947
0.1762446
0.1844462
0.1935184
0.2036076
0.214864
0.227483
0.2417569
0.2580394
0.2767947
0.2994812
0.3263889
0.3590913
0.399748
0.4517639
0.5217859
0.61915
0.7692463
0.1615386
0.1683116
0.1757355
0.1839079
0.1929472
0.2029714
0.2141321
0.2266591
0.2408225
0.25697
0.2762726
0.2988707
0.3259195
0.3589341
0.400215
0.4542292
0.5251993
0.6244752
0.7771121
0.1546813
0.1608443
0.167572
0.1749444
0.1830581
0.1920054
0.2019051
0.2129385
0.2253136
0.2392936
0.2558233
0.2749326
0.2974944
0.3246673
0.3583153
0.4027913
0.4574513
0.5294647
0.6300265
0.7842827
0.1482138
0.1538272
0.1599312
0.1665915
0.1738867
0.1818901
0.1906942
0.200443
0.2112973
0.2234578
0.2376634
0.253765
0.2722829
0.2937681
0.3188906
0.142324
0.1474593
0.1530239
0.1590726
0.1656702
0.1728751
0.1807608
0.1894431
0.1990492
0.2097349
0.2220995
0.2359303
0.2515985
0.2694834
0.2900703
0.137045
0.1417699
0.1468739
0.1524035
0.1584129
0.1649491
0.1720716
0.1798756
0.1884633
0.1979589
0.208865
0.2209544
0.2345137
0.2498255
0.2672504
0.1323272
0.1366994
0.1414098
0.1464979
0.1520097
0.1579841
0.1644694
0.1715454
0.1792962
0.1878222
0.1975555
0.2082703
0.2201958
0.2335486
0.2486011
0.1281034
0.132171
0.136543
0.1412532
0.1463414
0.1518397
0.1577885
0.1642556
0.1713108
0.1790376
0.1878133
0.1974193
0.2080432
0.2198551
0.2330657
0.3030085
0.3293159
0.3609605
0.3997548
0.4482999
0.5093635
0.5771481
0.2816356
0.3040803
0.3306793
0.3627216
0.4020798
0.4513135
0.5133625
0.5832742
0.2638979
0.2833981
0.3062281
0.3333359
0.3660709
0.4062874
0.4566852
0.5207872
0.5948802
0.2489232
0.2661178
0.2860455
0.3094271
0.3372647
0.3708962
0.4122888
0.46453
0.5317006
0.6122466
0.2360113
0.2513461
0.2689673
0.2894357
0.3135179
0.3422024
0.3769167
0.4199153
0.4745623
0.5457757
0.6396832
0.2244684
0.2382381
0.2539421
0.272025
0.293082
0.3178576
0.3474043
0.3833613
0.4281298
0.4854543
0.5647729
0.6719391
0.2135864
0.2259608
0.2399737
0.2559771
0.274435
0.2959084
0.3211761
0.3514297
0.3883553
0.4345071
0.496557
0.5807171
0.7004402
0.2033255
0.2144558
0.2269765
0.2411672
0.2573906
0.2760717
0.2977887
0.3234173
0.3541498
0.3917322
0.4407872
0.5048075
0.5929022
0.7216564
0.1937563
0.2037893
0.2150067
0.2276323
0.2419515
0.2582888
0.2770785
0.2989716
0.324828
0.3558632
0.3953788
0.4452837
0.5110023
0.6019086
0.7374119
0.1848912
0.1939611
0.2040453
0.2153241
0.2280244
0.2423963
0.2587694
0.2776367
0.2996283
0.3256123
0.3580269
0.3979118
0.4486726
0.5156846
0.6087703
0.7522344
0.1766904
0.1849145
0.194012
0.2041294
0.2154487
0.2281642
0.2425296
0.2589234
0.2778166
0.2998413
0.3268588
0.359418
0.3997775
0.4512353
0.5193346
0.6154395
0.7621845
0.1690868
0.1765649
0.184799
0.1939088
0.2040417
0.21535
0.2280306
0.2423788
0.2587519
0.2776197
0.3004422
0.3274928
0.3603373
0.4011236
0.4532371
0.5232126
0.6206127
0.7706202
0.1619985
0.168814
0.1762864
0.1845146
0.1936185
0.2037183
0.2149682
0.2276013
0.2418925
0.2581963
0.2776875
0.3004843
0.3277238
0.3608775
0.4021599
0.4557406
0.5264852
0.6257107
0.7781173
0.1553355
0.1615563
0.1683498
0.1757976
0.1839984
0.1930468
0.2030646
0.2142374
0.2267789
0.2409599
0.257744
0.2771657
0.3000882
0.3275908
0.3612465
0.4040636
0.4582552
0.530127
0.6307019
0.7847687
0.1490159
0.1546975
0.160879
0.1676282
0.1750258
0.1831472
0.1920883
0.2019981
0.2130434
0.2254328
0.2399585
0.2565867
0.2759922
0.2990368
0.3270794
0.3633052
0.4065491
0.4613875
0.5339063
0.6353673
0.7904153
0.1430351
0.1482281
0.1538579
0.1599808
0.166663
0.1739646
0.1819616
0.1907732
0.2005308
0.2113955
0.2239959
0.2381611
0.254298
0.2728148
0.2941871
0.1375712
0.1423369
0.1474869
0.1530683
0.1591364
0.1657394
0.1729379
0.1808296