/*--------------------------------*- C++ -*----------------------------------*\
| =========                 |                                                 |
| \\      /  F ield         | OpenFOAM: The Open Source CFD Toolbox           |
|  \\    /   O peration     | Version:  2306                                  |
|   \\  /    A nd           | Website:  www.openfoam.com                      |
|    \\/     M anipulation  |                                                 |
\*---------------------------------------------------------------------------*/
FoamFile
{
    version     2.0;
    format      ascii;
    arch        "LSB;label=32;scalar=64";
    class       volScalarField;
    location    "0.3/fuel";
    object      H2O;
}
// * * * * * * * * * * * * * * * * * * * * * * * * * * * * * * * * * * * * * //

dimensions      [0 0 0 0 0 0 0];

internalField   nonuniform List<scalar> 
16000
(
0.427852
0.422767
0.4936932
0.427556
0.4124072
0.4904324
0.4224644
0.5533823
0.4934737
0.4269784
0.396621
0.4838373
0.4120905
0.5510093
0.4902094
0.4218739
0.601079
0.5532191
0.4930448
0.4261288
0.3759124
0.4739012
0.3962811
0.5462232
0.4836071
0.4114727
0.5992448
0.550844
0.4897738
0.4210054
0.639424
0.6009533
0.5529
0.4924134
0.4250117
0.3532407
0.4610531
0.3755373
0.5390427
0.4736593
0.3956181
0.5955538
0.5460536
0.4831574
0.4105641
0.6379573
0.5991177
0.5505208
0.4891326
0.4198635
0.6708452
0.6393241
0.6007072
0.5524298
0.491583
0.4239048
0.3356337
0.4471816
0.35282
0.5298101
0.4607939
0.3748057
0.5900347
0.538866
0.4731868
0.3946431
0.6350112
0.5954238
0.5457219
0.4824954
0.4093695
0.6696436
0.6378564
0.5988689
0.5500446
0.4882892
0.4187321
0.6970632
0.6707639
0.6391284
0.6003444
0.5518111
0.4907602
0.4229868
0.3241172
0.4364436
0.3351843
0.519907
0.4469005
0.351999
0.5829704
0.529623
0.4602876
0.3737295
0.6306176
0.5899001
0.5385206
0.4724914
0.3933611
0.6672332
0.6349083
0.5951694
0.5452332
0.4816249
0.4081858
0.6960597
0.6695614
0.6376588
0.5985021
0.5494181
0.4874535
0.4177936
0.7192805
0.6969956
0.6706043
0.6388396
0.5998669
0.5511981
0.4900781
0.4220734
0.3174283
0.4293829
0.3236521
0.5122847
0.4361501
0.3343077
0.5754316
0.5197066
0.446351
0.3507909
0.6250134
0.5828288
0.5292571
0.4595422
0.3723143
0.6636461
0.6305114
0.5896367
0.5380118
0.4715768
0.3920908
0.694049
0.6671497
0.6347067
0.5947944
0.5445903
0.4807623
0.4072034
0.7184292
0.6959915
0.6694005
0.6373672
0.5980193
0.5487973
0.4867608
0.4168598
0.7383557
0.7192234
0.6968629
0.6703687
0.6384594
0.5993936
0.5506901
0.4893999
0.4211648
0.314381
0.4252433
0.316955
0.5072887
0.4290832
0.3227453
0.5696543
0.5120775
0.4355766
0.3330177
0.6190561
0.575281
0.5193145
0.4455418
0.3492009
0.6590831
0.6249023
0.5825516
0.528718
0.4585617
0.3709113
0.6910617
0.6635601
0.6303035
0.5892483
0.5373423
0.4706705
0.3910345
0.7167253
0.6939797
0.6669858
0.6344094
0.5943008
0.5439533
0.480047
0.4062255
0.7376241
0.7183716
0.6958577
0.6691629
0.6369834
0.597541
0.5482828
0.4860718
0.4159308
0.7549178
0.7383067
0.7191112
0.6966669
0.6700585
0.6380826
0.5990016
0.5501852
0.4887254
0.4202609
0.314381
0.423342
0.3139041
0.5043633
0.4249407
0.3160323
0.5658776
0.5070785
0.428498
0.3214113
0.6145058
0.5694996
0.5116721
0.4347319
0.3313202
0.6542475
0.6189386
0.5749863
0.5187366
0.4444768
0.3476237
0.6872699
0.6589934
0.6246846
0.582143
0.5280087
0.45759
0.3697387
0.714197
0.6909906
0.6633916
0.6299968
0.5887371
0.536679
0.4699178
0.3899811
0.7361609
0.7166668
0.6938438
0.666744
0.634018
0.5938117
0.5434252
0.4793353
0.4052521
0.7542821
0.7375748
0.7182587
0.6956602
0.66885
0.636603
0.5971447
0.5477715
0.4853867
0.4150066
0.769437
0.7548754
0.7382106
0.7189455
0.6964088
0.669751
0.6377706
0.5986121
0.5496834
0.4880548
0.4158876
0.3174283
0.423342
0.3139041
0.5030199
0.423038
0.3129745
0.563669
0.5041517
0.4243496
0.3146752
0.611537
0.5657212
0.5066674
0.4276361
0.3196561
0.6505634
0.6143855
0.5691965
0.5110746
0.4336203
0.3296361
0.6832615
0.654153
0.6187083
0.5745514
0.5179758
0.4434208
0.3462932
0.7109937
0.687196
0.6588177
0.6243635
0.5816051
0.5273057
0.4567793
0.3685631
0.7339922
0.7141371
0.6908511
0.6631429
0.6295929
0.5882305
0.5361283
0.4691677
0.3889305
0.7530115
0.7361109
0.7165522
0.6936431
0.6664256
0.63363
0.5934063
0.5429
0.4786272
0.4042832
0.7688793
0.7542395
0.7374781
0.7180918
0.6954
0.6685399
0.6362879
0.5967508
0.5472631
0.4847055
0.4105345
0.7822719
0.7693999
0.7547922
0.7380686
0.7187271
0.6961528
0.6694964
0.6374606
0.598225
0.5491845
0.4848114
0.4128767
0.3241172
0.4252433
0.316955
0.5030199
0.423038
0.3129745
0.5626552
0.5028078
0.4224444
0.3116073
0.6098025
0.5635119
0.503738
0.4234793
0.3128898
0.6481636
0.6114158
0.5654151
0.5060614
0.4265021
0.3179149
0.6802139
0.650467
0.6141497
0.5687496
0.510288
0.432518
0.3282149
0.7076141
0.6831838
0.6539678
0.6183684
0.5739788
0.5172214
0.4425327
0.3449467
0.7312487
0.7109316
0.6870509
0.6585582
0.6239406
0.581072
0.5267195
0.4559679
0.3673844
0.7511302
0.7339412
0.7140197
0.6906451
0.6628153
0.6291927
0.5878101
0.5355798
0.4684204
0.387883
0.7677654
0.7529683
0.7360128
0.7163828
0.6933787
0.6661099
0.6333086
0.5930033
0.5423778
0.4779229
0.3995926
0.7817787
0.768842
0.7541557
0.7373351
0.7178718
0.6951421
0.6682831
0.6359749
0.5963595
0.5467579
0.4814106
0.4074421
0.7937013
0.7822392
0.769327
0.754669
0.7378814
0.7185106
0.6959409
0.6692435
0.6371526
0.5978404
0.546773
0.4825862
0.410594
0.3356337
0.4293829
0.3236521
0.5043633
0.4249407
0.3160323
0.5626552
0.5028078
0.4224444
0.3116073
0.6090067
0.562498
0.502393
0.4215705
0.3098087
0.6467626
0.609681
0.5632045
0.5031283
0.4223342
0.3111187
0.6782312
0.6480666
0.6111782
0.5649636
0.5052639
0.4253776
0.3164481
0.705049
0.6801348
0.650278
0.6138017
0.568161
0.509508
0.4315907
0.3267761
0.7283591
0.7075491
0.6830314
0.6536943
0.6179206
0.573411
0.5165874
0.4416368
0.3435841
0.7487531
0.7311958
0.7108097
0.6868367
0.6582165
0.6235215
0.5806276
0.5261331
0.4551559
0.3662029
0.7661174
0.7510861
0.7338409
0.7138462
0.6903737
0.6624906
0.6288605
0.5873914
0.5350335
0.4676759
0.3828019
0.780794
0.7677277
0.7528834
0.7358679
0.7161596
0.6931165
0.6658484
0.6329891
0.5926027
0.5418585
0.4745149
0.3962955
0.7932619
0.7817458
0.7687687
0.7540318
0.7371467
0.7176537
0.6949285
0.6680279
0.6356639
0.5959706
0.5443151
0.479142
0.4050864
0.8039447
0.7936722
0.7821749
0.7692193
0.7545067
0.7376958
0.7183313
0.6957304
0.6689923
0.6368466
0.5959815
0.5451227
0.4809025
0.4090597
0.3532407
0.4364436
0.3351843
0.5072887
0.4290832
0.3227453
0.563669
0.5041517
0.4243496
0.3146752
0.6090067
0.562498
0.502393
0.4215705
0.3098087
0.6461201
0.6088851
0.5621901
0.5017817
0.4204207
0.3080245
0.6770744
0.6466655
0.6094428
0.5627512
0.5023258
0.4211989
0.3096289
0.703382
0.6781518
0.6478765
0.6108276
0.564369
0.5044731
0.4244332
0.314966
0.7261689
0.7049829
0.6799796
0.6499988
0.6133433
0.5675774
0.5088523
0.4306548
0.3253196
0.746253
0.7283038
0.7074214
0.6828062
0.6533338
0.6174765
0.572934
0.5159482
0.4407327
0.3422051
0.7640374
0.7487076
0.731092
0.7106297
0.6865545
0.6578778
0.6231722
0.5801832
0.5255466
0.4543433
0.3604411
0.7793383
0.7660789
0.7509994
0.7336926
0.7136175
0.6901047
0.6622212
0.6285299
0.5869746
0.5344895
0.464068
0.3790346
0.7923851
0.7807608
0.7676535
0.752758
0.7356768
0.7159382
0.6928994
0.6655885
0.6326715
0.5922044
0.5393468
0.4721372
0.3937375
0.8035508
0.7932327
0.7816812
0.7686604
0.7538685
0.7369598
0.7174732
0.6947163
0.6677745
0.6353549
0.5940908
0.5426377
0.477419
0.403496
0.8131782
0.8039187
0.793615
0.7820798
0.7690771
0.7543457
0.7375421
0.7181533
0.6955214
0.6687427
0.6353681
0.5947117
0.5438756
0.4797725
0.4082886
0.3759124
0.4471816
0.35282
0.5122847
0.4361501
0.3343077
0.5658776
0.5070785
0.428498
0.3214113
0.6098025
0.5635119
0.503738
0.4234793
0.3128898
0.6461201
0.6088851
0.5621901
0.5017817
0.4204207
0.3080245
0.676544
0.646023
0.6086467
0.5617361
0.5009772
0.4192808
0.3065247
0.7024099
0.676995
0.6464752
0.6090914
0.5621544
0.5015302
0.4202466
0.3081257
0.7247468
0.7033157
0.677996
0.6475958
0.6103658
0.5637796
0.5038094
0.4234817
0.3134683
0.7443604
0.7261128
0.7048531
0.6797504
0.649631
0.6128888
0.5670869
0.5081909
0.4297103
0.3238452
0.7618524
0.7462054
0.7281951
0.7072326
0.6825094
0.6529763
0.6171035
0.5724531
0.5153035
0.4398206
0.3354159
0.7775025
0.7639977
0.7486179
0.7309385
0.7103925
0.6862746
0.6575955
0.6228229
0.5797388
0.5249599
0.4503876
0.3555276
0.7910897
0.7793044
0.7660032
0.7508712
0.7334972
0.7133908
0.6898815
0.661953
0.6282008
0.5865597
0.5318544
0.4614362
0.3759254
0.8027651
0.7923556
0.7806954
0.7675438
0.7525925
0.7354873
0.7157549
0.6926836
0.6653302
0.6323559
0.5902785
0.5375997
0.4703039
0.3919791
0.8128231
0.8035247
0.7931752
0.7815855
0.7685174
0.7537064
0.736805
0.7172939
0.6945056
0.6675227
0.6338616
0.5928025
0.5413655
0.4762585
0.4026941
0.8215438
0.8131548
0.8038675
0.7935304
0.7819543
0.7689361
0.7542125
0.7373895
0.7179766
0.6953138
0.6675372
0.6343595
0.593753
0.5430395
0.4792052
0.396621
0.4610531
0.3755373
0.519907
0.4469005
0.351999
0.5696543
0.5120775
0.4355766
0.3330177
0.611537
0.5657212
0.5066674
0.4276361
0.3196561
0.6467626
0.609681
0.5632045
0.5031283
0.4223342
0.3111187
0.676544
0.646023
0.6086467
0.5617361
0.5009772
0.4192808
0.3065247
0.7019643
0.6764646
0.6458325
0.608295
0.5611383
0.5001797
0.4183251
0.3050125
0.723918
0.7023437
0.6768391
0.6461941
0.6086285
0.5615627
0.5008633
0.4192883
0.306609
0.7431324
0.7246906
0.7031855
0.6777658
0.647226
0.609908
0.563285
0.503141
0.4225229
0.3119551
0.7602
0.7443122
0.7260026
0.7046613
0.6794482
0.6492661
0.6125068
0.5665923
0.5075238
0.4287571
0.3165854
0.7755761
0.7618109
0.7461118
0.7280345
0.7069837
0.682215
0.652676
0.6167275
0.5719683
0.5146535
0.4353431
0.3281783
0.7894574
0.7774676
0.7639195
0.7484854
0.7307361
0.7101572
0.6860414
0.6573133
0.6224737
0.5792944
0.5221053
0.4471299
0.3507604
0.8016048
0.7910596
0.7792377
0.7658913
0.7507022
0.7333034
0.7132027
0.6896594
0.6616861
0.6278732
0.58455
0.5299398
0.4592974
0.3736421
0.8121149
0.8027387
0.7922975
0.7805986
0.7673991
0.7524284
0.7353304
0.7155727
0.6924692
0.6650736
0.6308299
0.5889416
0.536255
0.4690505
0.39108
0.821222
0.8127996
0.8034733
0.7930902
0.7814593
0.7683756
0.7535723
0.7366514
0.7171158
0.6942963
0.6663063
0.6328396
0.5918263
0.5405094
0.4756743
0.8291583
0.8215226
0.8131087
0.8037918
0.7934188
0.7818297
0.7688194
0.7540801
0.737238
0.717801
0.6943109
0.6667156
0.6335985
0.5931107
0.5426199
0.4124072
0.4739012
0.3962811
0.5298101
0.4607939
0.3748057
0.5754316
0.5197066
0.446351
0.3507909
0.6145058
0.5694996
0.5116721
0.4347319
0.3313202
0.6481636
0.6114158
0.5654151
0.5060614
0.4265021
0.3179149
0.6770744
0.6466655
0.6094428
0.5627512
0.5023258
0.4211989
0.3096289
0.7019643
0.6764646
0.6458325
0.608295
0.5611383
0.5001797
0.4183251
0.3050125
0.7235382
0.7018981
0.6763088
0.6455514
0.6078318
0.5605458
0.4995115
0.4173641
0.3034878
0.742417
0.7238619
0.7022136
0.6766089
0.6458239
0.6081696
0.5610668
0.5001926
0.4183241
0.3050787
0.7591286
0.7430841
0.7245802
0.7029932
0.6774625
0.6468593
0.6095239
0.5627871
0.502468
0.4215569
0.3045183
0.7741207
0.760158
0.7442173
0.7258396
0.7044084
0.6791485
0.6489596
0.6121217
0.5660935
0.506851
0.4240773
0.3089368
0.7877461
0.7755398
0.7617294
0.7459734
0.7278226
0.7067368
0.6819678
0.6523734
0.6163486
0.5714796
0.5114644
0.4308217
0.3190831
0.800144
0.7894264
0.7773989
0.763804
0.7483107
0.7305354
0.7099611
0.6858083
0.6570311
0.6221245
0.5771325
0.5197674
0.4440673
0.3465106
0.8110697
0.801578
0.7910004
0.779139
0.7657437
0.7505346
0.7331427
0.7130155
0.6894383
0.6614205
0.6262869
0.5830929
0.528388
0.4577494
0.3724025
0.8205806
0.8120912
0.8026868
0.7922115
0.780471
0.7672555
0.7522925
0.7351745
0.7153918
0.6922562
0.6638329
0.629772
0.5879135
0.5353369
0.4684121
0.8288654
0.8212008
0.8127533
0.8033972
0.792978
0.7813341
0.7682582
0.7534392
0.7364988
0.7169389
0.6932852
0.6654746
0.6320657
0.5911698
0.5400788
0.8361177
0.829139
0.8214809
0.8130405
0.8036918
0.793308
0.7817267
0.7687036
0.7539488
0.7370875
0.7169531
0.6936281
0.6660961
0.6330888
0.5927884
0.422767
0.4838373
0.4120905
0.5390427
0.4736593
0.3956181
0.5829704
0.529623
0.4602876
0.3737295
0.6190561
0.575281
0.5193145
0.4455418
0.3492009
0.6505634
0.6143855
0.5691965
0.5110746
0.4336203
0.3296361
0.6782312
0.6480666
0.6111782
0.5649636
0.5052639
0.4253776
0.3164481
0.7024099
0.676995
0.6464752
0.6090914
0.5621544
0.5015302
0.4202466
0.3081257
0.7235382
0.7018981
0.6763088
0.6455514
0.6078318
0.5605458
0.4995115
0.4173641
0.3034878
0.7420892
0.723482
0.7017681
0.6760786
0.6451811
0.6073725
0.5600495
0.49884
0.4163976
0.3019505
0.7585046
0.7423688
0.7237515
0.7020213
0.6763055
0.6454567
0.6077851
0.5605682
0.4995181
0.4173537
0.2975688
0.7731775
0.7590866
0.7429892
0.724417
0.7027397
0.6771617
0.6465517
0.6091372
0.5622858
0.5017902
0.4168224
0.2970307
0.7864542
0.7740839
0.7600755
0.7440771
0.7256247
0.7041575
0.6788967
0.6486506
0.6117334
0.5655906
0.5035495
0.4193959
0.29967
0.7986135
0.7877139
0.7754681
0.7616089
0.7457908
0.7276124
0.7065294
0.6817186
0.6520685
0.6159666
0.5690824
0.5082647
0.4253725
0.3073003
0.8097546
0.8001163
0.7893655
0.7772971
0.7636515
0.7481374
0.7303682
0.7097652
0.6855754
0.6567491
0.6204264
0.5753656
0.5175785
0.4414143
0.3435767
0.8196342
0.8110456
0.8015251
0.7909128
0.7790089
0.7655972
0.7503956
0.7329827
0.7128293
0.6892184
0.6601345
0.6251383
0.5819131
0.5272673
0.4569182
0.8282817
0.8205591
0.8120445
0.8026098
0.792098
0.7803443
0.7671367
0.7521575
0.7350196
0.715212
0.6912265
0.6629737
0.6289591
0.5872121
0.5348697
0.83585
0.8288461
0.8211589
0.8126848
0.8032967
0.7928666
0.7812305
0.7681416
0.7533069
0.7363473
0.7160845
0.6925945
0.6648451
0.6315455
0.5908397
0.8425027
0.8361002
0.8291012
0.8214192
0.8129505
0.8035926
0.7932163
0.7816244
0.7685886
0.7538183
0.7363608
0.7163762
0.6931134
0.6656813
0.6328333
0.427852
0.4904324
0.4224644
0.5462232
0.4836071
0.4114727
0.5900347
0.538866
0.4731868
0.3946431
0.6250134
0.5828288
0.5292571
0.4595422
0.3723143
0.6542475
0.6189386
0.5749863
0.5187366
0.4444768
0.3476237
0.6802139
0.650467
0.6141497
0.5687496
0.510288
0.432518
0.3282149
0.703382
0.6781518
0.6478765
0.6108276
0.564369
0.5044731
0.4244332
0.314966
0.723918
0.7023437
0.6768391
0.6461941
0.6086285
0.5615627
0.5008633
0.4192883
0.306609
0.7420892
0.723482
0.7017681
0.6760786
0.6451811
0.6073725
0.5600495
0.49884
0.4163976
0.3019505
0.7582188
0.7420411
0.7233718
0.7015759
0.6757753
0.6448138
0.6069879
0.5595508
0.498165
0.4154257
0.294411
0.7726284
0.7584627
0.742274
0.7235885
0.7017679
0.6760046
0.6451492
0.6073986
0.560067
0.4988397
0.4126041
0.2902502
0.7856174
0.7731407
0.7590041
0.7428488
0.7242017
0.7024882
0.6769094
0.6462421
0.6087481
0.5617812
0.4984703
0.4122791
0.2883468
0.797459
0.7864216
0.7740114
0.7599535
0.743892
0.7254114
0.7039468
0.6786429
0.6483391
0.611342
0.5631235
0.5002639
0.4139429
0.288588
0.8083778
0.7985848
0.7876505
0.7753622
0.7614498
0.7456096
0.7274359
0.7063205
0.6814675
0.6517611
0.6140933
0.5666809
0.5044278
0.4185534
0.2912072
0.8184441
0.8097298
0.8000619
0.7892753
0.777163
0.7635003
0.747993
0.730201
0.7095694
0.6853425
0.6553775
0.6190401
0.573713
0.5156894
0.4396267
0.8274208
0.8196124
0.810998
0.8014468
0.7907973
0.7788798
0.7654757
0.7502573
0.7328236
0.712644
0.6881535
0.6592043
0.6242088
0.5810617
0.5266664
0.8353167
0.8282622
0.8205168
0.8119753
0.8025083
0.7919855
0.7802394
0.7670186
0.7520234
0.7348658
0.714343
0.690514
0.6623138
0.6284047
0.5868553
0.8422571
0.8358324
0.828808
0.8210969
0.8125943
0.803197
0.7927744
0.7811276
0.7680259
0.7531757
0.7356155
0.7155013
0.6920719
0.6644222
0.631284
0.8483808
0.8424866
0.8360656
0.829045
0.8213377
0.8128612
0.8035105
0.7931253
0.7815228
0.7684744
0.7531883
0.7358666
0.7159414
0.6927689
0.6654733
0.4936932
0.427556
0.5510093
0.4902094
0.4218739
0.5955538
0.5460536
0.4831574
0.4105641
0.6306176
0.5899001
0.5385206
0.4724914
0.3933611
0.6590831
0.6249023
0.5825516
0.528718
0.4585617
0.3709113
0.6832615
0.654153
0.6187083
0.5745514
0.5179758
0.4434208
0.3462932
0.705049
0.6801348
0.650278
0.6138017
0.568161
0.509508
0.4315907
0.3267761
0.7247468
0.7033157
0.677996
0.6475958
0.6103658
0.5637796
0.5038094
0.4234817
0.3134683
0.742417
0.7238619
0.7022136
0.6766089
0.6458239
0.6081696
0.5610668
0.5001926
0.4183241
0.3050787
0.7582188
0.7420411
0.7233718
0.7015759
0.6757753
0.6448138
0.6069879
0.5595508
0.498165
0.4154257
0.294411
0.7723769
0.7581769
0.7419464
0.7232088
0.7013226
0.6754744
0.6445064
0.6066016
0.5590497
0.4974865
0.4106711
0.2871749
0.7851304
0.7725917
0.7583804
0.7421339
0.7233734
0.7015165
0.6757526
0.6448401
0.60701
0.559563
0.4955207
0.4081809
0.2819911
0.7967115
0.7855849
0.7730683
0.7588821
0.7426637
0.7239881
0.7022773
0.6766555
0.6459305
0.6083564
0.55931
0.4952979
0.4072081
0.2784476
0.8073398
0.79743
0.7863575
0.7739043
0.7597925
0.7437084
0.7252323
0.7037343
0.6783871
0.6480251
0.6094221
0.5606711
0.4964518
0.4076342
0.2755201
0.817199
0.808352
0.7985282
0.7875565
0.7752223
0.7612919
0.7454574
0.727258
0.7061099
0.6812145
0.6502539
0.6122177
0.5638045
0.499652
0.4095045
0.2628309
0.8263388
0.8184217
0.8096809
0.7999813
0.7891562
0.7770298
0.7633743
0.7478487
0.730034
0.7093736
0.68421
0.6542586
0.6177441
0.5722882
0.5144201
0.8345303
0.827401
0.8195694
0.8109277
0.8013435
0.7906826
0.7787728
0.7653549
0.7501196
0.7326652
0.711747
0.6873839
0.6584519
0.6235384
0.5806053
0.8417679
0.8352989
0.8282238
0.8204542
0.8118839
0.8024076
0.7918922
0.7801353
0.7669013
0.7518902
0.7341222
0.7137421
0.689967
0.6618639
0.6281228
0.8481548
0.842241
0.8357977
0.8287517
0.821015
0.8125046
0.8031145
0.7926829
0.7810254
0.767911
0.7525415
0.7351161
0.7150602
0.6917209
0.6642097
0.8538092
0.848366
0.8424549
0.8360144
0.8289709
0.8212568
0.8127872
0.8034291
0.7930349
0.781422
0.7679228
0.7527601
0.7354943
0.7156505
0.6925962
0.5533823
0.4934737
0.4269784
0.5992448
0.550844
0.4897738
0.4210054
0.6350112
0.5954238
0.5457219
0.4824954
0.4093695
0.6636461
0.6305114
0.5896367
0.5380118
0.4715768
0.3920908
0.6872699
0.6589934
0.6246846
0.582143
0.5280087
0.45759
0.3697387
0.7076141
0.6831838
0.6539678
0.6183684
0.5739788
0.5172214
0.4425327
0.3449467
0.7261689
0.7049829
0.6799796
0.6499988
0.6133433
0.5675774
0.5088523
0.4306548
0.3253196
0.7431324
0.7246906
0.7031855
0.6777658
0.647226
0.609908
0.563285
0.503141
0.4225229
0.3119551
0.7585046
0.7423688
0.7237515
0.7020213
0.6763055
0.6454567
0.6077851
0.5605682
0.4995181
0.4173537
0.2975688
0.7723769
0.7581769
0.7419464
0.7232088
0.7013226
0.6754744
0.6445064
0.6066016
0.5590497
0.4974865
0.4106711
0.2871749
0.7849074
0.7723402
0.7580947
0.7418063
0.722994
0.7010713
0.6752226
0.6441976
0.6062135
0.5585463
0.4941694
0.4063047
0.279109
0.7962767
0.785098
0.7725195
0.7582586
0.741949
0.7231601
0.701306
0.6754993
0.6445294
0.6066195
0.5570981
0.4924412
0.4033739
0.2727942
0.8066681
0.7966826
0.7855208
0.7729612
0.758721
0.74248
0.7238091
0.702065
0.6764
0.645617
0.6064386
0.5569509
0.4917676
0.4016183
0.2673629
0.8162608
0.8073138
0.7973728
0.7862626
0.7737628
0.7596327
0.7435542
0.7250517
0.7035202
0.6781292
0.6464853
0.6075144
0.5578282
0.4920594
0.4004107
0.2574949
0.8252074
0.8171757
0.8083012
0.7984444
0.7874326
0.7750834
0.7611593
0.7453041
0.7270788
0.7058978
0.6799738
0.6487453
0.6099725
0.5602313
0.4933516
0.3939072
0.2462853
0.8335424
0.8263184
0.8183775
0.8096085
0.799875
0.7890381
0.7769189
0.7632484
0.7477045
0.7298671
0.7084219
0.6832868
0.653213
0.6166272
0.5713313
0.8410469
0.8345123
0.827362
0.8195058
0.8108347
0.8012409
0.7905875
0.7786662
0.7652346
0.7499827
0.7318988
0.711099
0.6867615
0.6579093
0.623179
0.8477045
0.8417517
0.8352638
0.8281669
0.8203716
0.8117932
0.8023242
0.7917996
0.7800318
0.7667848
0.7512464
0.7336083
0.7132809
0.6895942
0.6616352
0.8536005
0.8481399
0.8422092
0.8357462
0.8286772
0.8209338
0.8124303
0.8030326
0.7925921
0.780924
0.767356
0.752109
0.7347386
0.7147639
0.6915445
0.8588369
0.8537956
0.8483369
0.842408
0.8359467
0.8288974
0.8211899
0.8127138
0.8033482
0.7929453
0.7809351
0.7675481
0.7524376
0.7352453
0.7155046
0.601079
0.5532191
0.4930448
0.4261288
0.6379573
0.5991177
0.5505208
0.4891326
0.4198635
0.6672332
0.6349083
0.5951694
0.5452332
0.4816249
0.4081858
0.6910617
0.6635601
0.6303035
0.5892483
0.5373423
0.4706705
0.3910345
0.7109937
0.687196
0.6588177
0.6243635
0.5816051
0.5273057
0.4567793
0.3685631
0.7283591
0.7075491
0.6830314
0.6536943
0.6179206
0.573411
0.5165874
0.4416368
0.3435841
0.7443604
0.7261128
0.7048531
0.6797504
0.649631
0.6128888
0.5670869
0.5081909
0.4297103
0.3238452
0.7591286
0.7430841
0.7245802
0.7029932
0.6774625
0.6468593
0.6095239
0.5627871
0.502468
0.4215569
0.3045183
0.7726284
0.7584627
0.742274
0.7235885
0.7017679
0.6760046
0.6451492
0.6073986
0.560067
0.4988397
0.4126041
0.2902502
0.7849074
0.7723402
0.7580947
0.7418063
0.722994
0.7010713
0.6752226
0.6441976
0.6062135
0.5585463
0.4941694
0.4063047
0.279109
0.7960775
0.784875
0.7722681
0.757973
0.7416216
0.7227808
0.7008611
0.6749697
0.6438874
0.6058236
0.5560853
0.4911334
0.4016158
0.2702138
0.8062774
0.7962478
0.7850341
0.7724126
0.7580979
0.7417655
0.7229814
0.7010944
0.6752448
0.6442171
0.6047097
0.5548132
0.4891022
0.3981997
0.2626872
0.8156539
0.8066422
0.7966255
0.785426
0.7728198
0.7585612
0.7423259
0.7236289
0.7018515
0.676143
0.644082
0.6046086
0.5543272
0.4878879
0.3955497
0.2527252
0.8243553
0.8162373
0.8072625
0.7972882
0.7861374
0.7736224
0.7594984
0.7433988
0.7248698
0.7033044
0.6768647
0.6449555
0.6053037
0.5545572
0.487051
0.3907123
0.243942
0.83251
0.8251863
0.8171299
0.808226
0.7983338
0.7873095
0.7749668
0.7610257
0.7451496
0.7268982
0.7048576
0.6787322
0.64694
0.6071864
0.5555305
0.4825585
0.3843375
0.2336402
0.8401415
0.8335239
0.8262783
0.8183121
0.8095129
0.7997694
0.7889397
0.776808
0.7631226
0.7475603
0.7290554
0.7076463
0.6824241
0.6523122
0.6158773
0.8470412
0.8410304
0.8344767
0.8273042
0.8194218
0.8107425
0.8011559
0.7904929
0.7785603
0.765115
0.74932
0.7313455
0.7105752
0.6863128
0.6576185
0.8531849
0.8476896
0.8417196
0.8352119
0.8280918
0.8202895
0.8117181
0.8022413
0.7917077
0.779929
0.7662218
0.7508016
0.7332139
0.7129666
0.6894047
0.8586436
0.8535868
0.8481107
0.842162
0.8356783
0.8286033
0.8208665
0.8123565
0.8029513
0.7925019
0.7804342
0.7669777
0.751782
0.7344851
0.7146151
0.8635058
0.8588243
0.8537687
0.8482937
0.8423459
0.8358795
0.8288365
0.8211235
0.812641
0.8032679
0.7925121
0.7806043
0.7672659
0.7522219
0.7351204
0.639424
0.6009533
0.5529
0.4924134
0.4250117
0.6696436
0.6378564
0.5988689
0.5500446
0.4882892
0.4187321
0.694049
0.6671497
0.6347067
0.5947944
0.5445903
0.4807623
0.4072034
0.714197
0.6909906
0.6633916
0.6299968
0.5887371
0.536679
0.4699178
0.3899811
0.7312487
0.7109316
0.6870509
0.6585582
0.6239406
0.581072
0.5267195
0.4559679
0.3673844
0.746253
0.7283038
0.7074214
0.6828062
0.6533338
0.6174765
0.572934
0.5159482
0.4407327
0.3422051
0.7602
0.7443122
0.7260026
0.7046613
0.6794482
0.6492661
0.6125068
0.5665923
0.5075238
0.4287571
0.3165854
0.7731775
0.7590866
0.7429892
0.724417
0.7027397
0.6771617
0.6465517
0.6091372
0.5622858
0.5017902
0.4168224
0.2970307
0.7851304
0.7725917
0.7583804
0.7421339
0.7233734
0.7015165
0.6757526
0.6448401
0.60701
0.559563
0.4955207
0.4081809
0.2819911
0.7960775
0.784875
0.7722681
0.757973
0.7416216
0.7227808
0.7008611
0.6749697
0.6438874
0.6058236
0.5560853
0.4911334
0.4016158
0.2702138
0.8060985
0.7960487
0.7848112
0.7721613
0.7578125
0.7414384
0.7226024
0.7006499
0.6747157
0.6435759
0.6039182
0.5538349
0.4878798
0.3966183
0.2605056
0.815301
0.8062515
0.7961909
0.7849395
0.7722715
0.7579384
0.7416119
0.7228019
0.7008818
0.674989
0.6426904
0.60294
0.5523367
0.4855168
0.3926917
0.2494779
0.8238043
0.8156305
0.806591
0.796541
0.7853009
0.7726795
0.7584273
0.7421709
0.7234476
0.7016366
0.6748845
0.6426176
0.6025735
0.5514466
0.4836884
0.3877682
0.2411899
0.8317328
0.824334
0.8161911
0.8071866
0.7971765
0.786013
0.7735045
0.7593632
0.7432421
0.7246864
0.7022464
0.6756087
0.643183
0.6027622
0.5508349
0.4803524
0.3827948
0.2324489
0.8391957
0.8324908
0.8251447
0.817062
0.8081267
0.7982239
0.7872062
0.7748494
0.7608911
0.7449939
0.7260129
0.7038168
0.6772467
0.6447014
0.6035276
0.547506
0.47598
0.3765521
0.223675
0.8462084
0.8401245
0.8334873
0.826219
0.8182257
0.809418
0.7996815
0.7888413
0.7766973
0.7629968
0.7468596
0.7283943
0.7069218
0.6816811
0.6517073
0.8525726
0.847026
0.8409978
0.8344239
0.8272278
0.8193383
0.810666
0.8010713
0.7903988
0.7784549
0.7645361
0.7488417
0.7308983
0.7101976
0.6860723
0.8582587
0.8531711
0.8476601
0.841672
0.8351434
0.8280172
0.8202216
0.8116436
0.802159
0.7916163
0.7794324
0.765833
0.7504605
0.7329453
0.7128069
0.8633263
0.8586309
0.8535598
0.8480673
0.8420997
0.8356108
0.8285422
0.8207998
0.8122833
0.8028705
0.7920663
0.7801004
0.7666917
0.7515626
0.7343577
0.8678522
0.8634941
0.8587994
0.8537289
0.8482366
0.8422843
0.8358239
0.8287761
0.8210575
0.8125687
0.8028801
0.7922181
0.7803553
0.7670772
0.7521138
0.6708452
0.6393241
0.6007072
0.5524298
0.491583
0.4239048
0.6960597
0.6695614
0.6376588
0.5985021
0.5494181
0.4874535
0.4177936
0.7167253
0.6939797
0.6669858
0.6344094
0.5943008
0.5439533
0.480047
0.4062255
0.7339922
0.7141371
0.6908511
0.6631429
0.6295929
0.5882305
0.5361283
0.4691677
0.3889305
0.7487531
0.7311958
0.7108097
0.6868367
0.6582165
0.6235215
0.5806276
0.5261331
0.4551559
0.3662029
0.7618524
0.7462054
0.7281951
0.7072326
0.6825094
0.6529763
0.6171035
0.5724531
0.5153035
0.4398206
0.3354159
0.7741207
0.760158
0.7442173
0.7258396
0.7044084
0.6791485
0.6489596
0.6121217
0.5660935
0.506851
0.4240773
0.3089368
0.7856174
0.7731407
0.7590041
0.7428488
0.7242017
0.7024882
0.6769094
0.6462421
0.6087481
0.5617812
0.4984703
0.4122791
0.2883468
0.7962767
0.785098
0.7725195
0.7582586
0.741949
0.7231601
0.701306
0.6754993
0.6445294
0.6066195
0.5570981
0.4924412
0.4033739
0.2727942
0.8060985
0.7960487
0.7848112
0.7721613
0.7578125
0.7414384
0.7226024
0.7006499
0.6747157
0.6435759
0.6039182
0.5538349
0.4878798
0.3966183
0.2605056
0.8151394
0.8060726
0.7959918
0.7847167
0.7720205
0.7576532
0.741285
0.7224232
0.7004378
0.6744606
0.6420535
0.6021766
0.551424
0.4844193
0.3913364
0.247859
0.823484
0.8152776
0.8062005
0.7961066
0.7848147
0.7721316
0.7578048
0.7414576
0.7226215
0.7006682
0.6737385
0.641276
0.6010221
0.5496793
0.4817086
0.3857093
0.2390442
0.8312304
0.8237831
0.8155844
0.8065152
0.7964295
0.7851767
0.7725619
0.7582925
0.742015
0.7232652
0.700585
0.6736841
0.6409892
0.6003405
0.5483328
0.4783171
0.3809532
0.2308386
0.838484
0.8317134
0.8242921
0.8161226
0.8070864
0.7970656
0.7859086
0.7733857
0.7592268
0.7430843
0.7237873
0.7011955
0.6741535
0.6411465
0.5998738
0.5458672
0.4749026
0.375626
0.2229686
0.8453389
0.8391781
0.8324529
0.8250831
0.8169722
0.808028
0.7981317
0.7871021
0.774731
0.7607555
0.7442309
0.7251272
0.7025718
0.6754058
0.6417655
0.5972973
0.5426443
0.4706359
0.3700725
0.215794
0.8518042
0.8461928
0.8400911
0.8334332
0.8261406
0.81814
0.809339
0.7995937
0.788743
0.7765866
0.7623856
0.7462891
0.7277767
0.7062978
0.6811822
0.857692
0.8525586
0.846996
0.8409495
0.8343543
0.8271521
0.8192692
0.8105899
0.8009872
0.7903052
0.7779447
0.7641185
0.7484553
0.7305759
0.7099953
0.862969
0.858246
0.8531439
0.8476163
0.8416092
0.8350753
0.8279554
0.8201542
0.8115695
0.8020773
0.791175
0.7790896
0.7655348
0.7502281
0.7328087
0.8676851
0.8633146
0.858606
0.8535198
0.84801
0.8420379
0.835555
0.8284815
0.8207335
0.8122106
0.8024807
0.7917695
0.7798481
0.7664998
0.7514523
0.8719074
0.8678413
0.863471
0.8587625
0.8536762
0.84818
0.8422334
0.8357687
0.8287161
0.8209921
0.8122195
0.8026169
0.7919967
0.7801888
0.7669826
0.6970632
0.6707639
0.6391284
0.6003444
0.5518111
0.4907602
0.4229868
0.7184292
0.6959915
0.6694005
0.6373672
0.5980193
0.5487973
0.4867608
0.4168598
0.7361609
0.7166668
0.6938438
0.666744
0.634018
0.5938117
0.5434252
0.4793353
0.4052521
0.7511302
0.7339412
0.7140197
0.6906451
0.6628153
0.6291927
0.5878101
0.5355798
0.4684204
0.387883
0.7640374
0.7487076
0.731092
0.7106297
0.6865545
0.6578778
0.6231722
0.5801832
0.5255466
0.4543433
0.3604411
0.7755761
0.7618109
0.7461118
0.7280345
0.7069837
0.682215
0.652676
0.6167275
0.5719683
0.5146535
0.4353431
0.3281783
0.7864542
0.7740839
0.7600755
0.7440771
0.7256247
0.7041575
0.6788967
0.6486506
0.6117334
0.5655906
0.5035495
0.4193959
0.29967
0.7967115
0.7855849
0.7730683
0.7588821
0.7426637
0.7239881
0.7022773
0.6766555
0.6459305
0.6083564
0.55931
0.4952979
0.4072081
0.2784476
0.8062774
0.7962478
0.7850341
0.7724126
0.7580979
0.7417655
0.7229814
0.7010944
0.6752448
0.6442171
0.6047097
0.5548132
0.4891022
0.3981997
0.2626872
0.8151394
0.8060726
0.7959918
0.7847167
0.7720205
0.7576532
0.741285
0.7224232
0.7004378
0.6744606
0.6420535
0.6021766
0.551424
0.4844193
0.3913364
0.247859
0.8233373
0.8151161
0.8060217
0.7959077
0.7845921
0.7718807
0.7575199
0.741131
0.7222433
0.7002248
0.6732142
0.6406624
0.6003109
0.5488612
0.4807688
0.3846653
0.2379041
0.8309383
0.8234628
0.8152316
0.8061249
0.7959954
0.7846908
0.7720144
0.7576707
0.7413025
0.7224403
0.699624
0.6725802
0.6397432
0.5989649
0.5468593
0.4768899
0.37949
0.2294641
0.8380241
0.8312111
0.8237413
0.815516
0.8064151
0.7963188
0.7850726
0.7724436
0.7581569
0.7418581
0.7223725
0.6995819
0.6723493
0.6392031
0.5979287
0.5443555
0.4736163
0.37439
0.2219629
0.8446849
0.8384663
0.8316753
0.82423
0.8160321
0.8069868
0.7969724
0.7858033
0.7732659
0.7590895
0.7423104
0.7228944
0.6999781
0.6724824
0.6388342
0.5960248
0.5418403
0.4699735
0.3693968
0.2153078
0.8510023
0.8453228
0.8391435
0.8323967
0.8250017
0.8168831
0.8079452
0.7980388
0.7869972
0.7746118
0.7600908
0.7434676
0.7240678
0.7010295
0.672994
0.6367755
0.5935389
0.5387073
0.466193
0.3647295
0.209658
0.856981
0.8517899
0.8461621
0.8400416
0.8333617
0.8260627
0.8180686
0.8092601
0.7995059
0.7886449
0.7760485
0.7618879
0.7457561
0.7272449
0.7058788
0.862443
0.857679
0.852531
0.8469517
0.8408857
0.8342852
0.8270892
0.8192004
0.8105143
0.8009035
0.7898521
0.7775768
0.763781
0.7481767
0.7304032
0.8673527
0.8629572
0.8582208