/*--------------------------------*- C++ -*----------------------------------*\
| =========                 |                                                 |
| \\      /  F ield         | OpenFOAM: The Open Source CFD Toolbox           |
|  \\    /   O peration     | Version:  2306                                  |
|   \\  /    A nd           | Website:  www.openfoam.com                      |
|    \\/     M anipulation  |                                                 |
\*---------------------------------------------------------------------------*/
FoamFile
{
    version     2.0;
    format      ascii;
    arch        "LSB;label=32;scalar=64";
    class       volScalarField;
    location    "0.3/fuel";
    object      iDmdtfuel.H2O;
}
// * * * * * * * * * * * * * * * * * * * * * * * * * * * * * * * * * * * * * //

dimensions      [1 -3 -1 0 0 0 0];

internalField   nonuniform List<scalar> 
16000
(
100.8516
101.6183
91.20397
95.73524
103.1379
91.68821
96.4369
82.69882
86.83847
92.13117
105.4004
92.62459
97.8259
83.05987
87.28415
92.7898
75.83911
78.95171
83.73863
89.89744
108.2865
93.96705
99.89173
83.75011
88.14511
94.09294
76.12947
79.28565
84.15825
90.53208
70.17031
72.56292
76.27489
81.79479
88.90616
111.3043
95.58029
102.5237
84.72104
89.37878
96.03077
76.68064
79.92345
84.96841
91.78798
70.41349
72.83253
76.59022
82.19924
89.53325
65.35261
67.26438
70.21241
74.58261
80.90807
0
113.447
97.1227
105.2717
85.85068
90.86044
98.50024
77.44555
80.82028
86.12923
93.65708
70.87297
73.34386
77.19213
82.98007
90.77528
65.56144
67.49094
70.46765
74.88683
81.30684
0
61.1745
62.74772
65.17275
68.71845
73.79793
0
0
114.675
98.11216
107.2132
86.87437
92.27593
101.0801
78.31457
81.86332
87.52366
96.04313
71.50405
74.05324
78.03847
84.09938
92.62686
65.95478
67.91862
70.95143
75.46742
82.077
0
61.35721
62.94282
65.38771
68.96498
74.09761
0
0
57.49186
58.82022
60.86797
63.83837
68.01937
0
0
0
115.2943
98.60877
108.3196
87.48018
93.18068
102.8965
79.07029
82.80793
88.85606
98.54255
72.20764
74.85885
79.02286
85.44525
94.99801
66.49054
68.50582
71.62254
76.28402
83.18203
0
61.70067
63.30999
65.79326
69.43212
74.66967
0
0
57.65405
58.99134
61.05345
64.04623
68.26219
0
0
0
54.20647
55.35016
57.11777
59.66547
63.2106
0
0
0
0
115.5452
98.82213
108.8744
87.7437
93.63272
103.9282
79.48662
83.3652
89.70491
100.2993
72.7989
75.55882
79.91426
86.73285
97.49333
67.0786
69.16012
72.38462
77.23439
84.51298
0
62.16532
63.80988
66.34997
70.08025
75.47474
0
0
57.95857
59.31275
61.40229
64.43825
68.72236
0
0
0
54.35201
55.50241
57.28075
59.84501
63.41538
0
0
0
0
51.24846
52.24765
53.79876
56.02643
59.09791
0
0
0
0
0
115.5452
98.89553
109.098
87.83095
93.82576
104.4439
79.64057
83.60656
90.12763
101.2966
73.10341
75.94315
80.43834
87.55087
99.24744
67.55837
69.70931
73.04644
78.09539
85.78902
0
62.66872
64.35818
66.97015
70.81649
76.41267
0
0
58.36828
59.74735
61.87713
64.97644
69.36108
0
0
0
54.62512
55.78803
57.58665
60.18258
63.80159
0
0
0
0
51.38024
52.38454
53.94399
56.18435
59.27485
0
0
0
0
0
48.5643
49.44871
50.82663
52.80263
55.51035
0
0
0
0
0
0
115.2943
98.89553
109.098
87.85001
93.89169
104.6513
79.67116
83.68582
90.30753
101.7953
73.19572
76.08441
80.66442
87.95755
100.2452
67.7898
69.99097
73.40836
78.59977
86.59787
0
63.06905
64.80479
67.49019
71.45577
77.2632
0
0
58.80732
60.21779
62.39773
65.57606
70.08711
0
0
0
54.99089
56.1721
58.00018
60.64208
64.33197
0
0
0
0
51.62754
52.64123
54.21628
56.48067
59.60751
0
0
0
0
0
48.68452
49.57289
50.9574
52.94349
55.66603
0
0
0
0
0
0
46.11276
46.90418
48.14144
49.91306
52.33108
0
0
0
0
0
0
0
114.675
98.82213
108.8744
87.85001
93.89169
104.6513
79.66664
83.70279
90.36875
101.9961
73.19604
76.11183
80.7382
88.1306
100.7462
67.84382
70.07545
73.54053
78.81663
86.99994
0
63.25036
65.01904
67.75557
71.80379
77.75959
0
0
59.14882
60.59112
62.82116
66.07853
70.71762
0
0
0
55.37927
56.58322
58.44754
61.14583
64.92313
0
0
0
0
51.95748
52.9848
54.58229
56.88122
60.06042
0
0
0
0
0
48.91022
49.80576
51.20248
53.2075
55.95814
0
0
0
0
0
0
46.22312
47.01766
48.26023
50.04001
52.47
0
0
0
0
0
0
0
43.86167
44.57616
45.69702
47.30014
49.4804
0
0
0
0
0
0
0
0
113.447
98.60877
108.3196
87.83095
93.82576
104.4439
79.66664
83.70279
90.36875
101.9961
73.17946
76.1072
80.75376
88.18955
100.9487
67.82644
70.07483
73.56559
78.88716
87.17155
0
63.27967
65.06802
67.83424
71.93007
77.97242
0
0
59.29453
60.75902
63.02303
66.3335
71.05914
0
0
0
55.67568
56.90221
58.80188
61.55509
65.41829
0
0
0
0
52.30511
53.34917
54.9738
57.31444
60.55708
0
0
0
0
0
49.2104
50.11625
51.53037
53.56236
56.35307
0
0
0
0
0
0
46.43048
47.23057
48.48287
50.27785
52.73036
0
0
0
0
0
0
0
43.96352
44.68051
45.80571
47.41556
49.60564
0
0
0
0
0
0
0
0
41.78439
42.43505
43.45776
44.91952
46.90171
0
0
0
0
0
0
0
0
0
111.3043
98.11216
107.2132
87.7437
93.63272
103.9282
79.67116
83.68582
90.30753
101.7953
73.17946
76.1072
80.75376
88.18955
100.9487
67.80323
70.05897
73.56081
78.90194
87.23032
0
63.25181
65.05085
67.83277
71.95351
78.04157
0
0
59.30751
60.78496
63.06812
66.40817
71.18226
0
0
0
55.79528
57.03711
58.95999
61.74886
65.66801
0
0
0
0
52.56611
53.62644
55.27687
57.65706
60.96022
0
0
0
0
0
49.52462
50.44296
51.87782
53.9418
56.78026
0
0
0
0
0
0
46.70556
47.51355
48.7796
50.59602
53.08034
0
0
0
0
0
0
0
44.1551
44.87644
46.00954
47.63182
49.84029
0
0
0
0
0
0
0
0
41.87887
42.5315
43.55782
45.02521
47.01562
0
0
0
0
0
0
0
0
0
39.86075
40.45626
41.39583
42.73696
44.55142
0
0
0
0
0
0
0
0
0
0
108.2865
97.1227
105.2717
87.48018
93.18068
102.8965
79.64057
83.60656
90.12763
101.2966
73.19604
76.11183
80.7382
88.1306
100.7462
67.80323
70.05897
73.56081
78.90194
87.23032
0
63.22503
65.02872
67.81733
71.94859
78.05609
0
0
59.27352
60.75789
63.0509
66.40595
71.20467
0
0
0
55.79731
57.04779
58.98325
61.79113
65.74023
0
0
0
0
52.66611
53.73712
55.40383
57.80868
61.14969
0
0
0
0
0
49.75728
50.68744
52.1415
54.23497
57.11769
0
0
0
0
0
0
46.99195
47.80935
49.09152
50.93302
53.4546
0
0
0
0
0
0
0
44.40872
45.13618
46.28031
47.91999
50.1542
0
0
0
0
0
0
0
0
42.05679
42.7128
43.74562
45.22335
47.22905
0
0
0
0
0
0
0
0
0
39.94871
40.54584
41.48842
42.83433
44.65577
0
0
0
0
0
0
0
0
0
0
38.07191
38.62122
39.48807
40.72572
42.39591
0
0
0
0
0
0
0
0
0
0
105.4004
95.58029
102.5237
86.87437
92.27593
101.0801
79.48662
83.3652
89.70491
100.2993
73.19572
76.08441
80.66442
87.95755
100.2452
67.82644
70.07483
73.56559
78.88716
87.17155
0
63.22503
65.02872
67.81733
71.94859
78.05609
0
0
59.24501
60.73235
63.02946
66.39068
71.19958
0
0
0
55.75996
57.0149
58.95657
61.77365
65.73727
0
0
0
0
52.66074
53.73755
55.4126
57.82989
61.19004
0
0
0
0
0
49.84232
50.77993
52.24559
54.35659
57.26575
0
0
0
0
0
0
47.20154
48.02757
49.32425
51.18821
53.74332
0
0
0
0
0
0
0
44.67157
45.40619
46.56306
48.22276
50.48668
0
0
0
0
0
0
0
0
42.29191
42.95263
43.99445
45.48653
47.51347
0
0
0
0
0
0
0
0
0
40.11457
40.71446
41.66239
43.01704
44.85139
0
0
0
0
0
0
0
0
0
0
38.15409
38.70472
39.57415
40.81588
42.49207
0
0
0
0
0
0
0
0
0
0
36.40492
36.91244
37.71702
38.86352
40.4089
0
0
0
0
0
0
0
0
0
0
103.1379
93.96705
99.89173
85.85068
90.86044
98.50024
79.07029
82.80793
88.85606
98.54255
73.10341
75.94315
80.43834
87.55087
99.24744
67.84382
70.07545
73.54053
78.81663
86.99994
0
63.25181
65.05085
67.83277
71.95351
78.04157
0
0
59.24501
60.73235
63.02946
66.39068
71.19958
0
0
0
55.73085
56.98766
58.93182
61.75253
65.72192
0
0
0
0
52.62176
53.70144
55.38033
57.80323
61.17206
0
0
0
0
0
49.83203
50.77344
52.24464
54.36383
57.28542
0
0
0
0
0
0
47.27502
48.10618
49.41115
51.28782
53.86193
0
0
0
0
0
0
0
44.8621
45.60303
46.77098
48.4481
50.73801
0
0
0
0
0
0
0
0
42.53468
43.20083
44.25284
45.76117
47.81226
0
0
0
0
0
0
0
0
0
40.3335
40.93713
41.89242
43.25907
45.11123
0
0
0
0
0
0
0
0
0
0
38.30934
38.86214
39.73614
40.98527
42.67252
0
0
0
0
0
0
0
0
0
0
36.4819
36.99057
37.79735
38.9474
40.49798
0
0
0
0
0
0
0
0
0
0
34.84539
35.31806
36.06617
37.13358
38.56852
0
0
0
0
0
0
0
0
0
0
101.6183
92.62459
97.8259
84.72104
89.37878
96.03077
78.31457
81.86332
87.52366
96.04313
72.7989
75.55882
79.91426
86.73285
97.49333
67.7898
69.99097
73.40836
78.59977
86.59787
0
63.27967
65.06802
67.83424
71.93007
77.97242
0
0
59.27352
60.75789
63.0509
66.40595
71.20467
0
0
0
55.73085
56.98766
58.93182
61.75253
65.72192
0
0
0
0
52.59273
53.67357
55.35392
57.77888
61.15093
0
0
0
0
0
49.79256
50.73573
52.20925
54.33174
57.25842
0
0
0
0
0
0
47.26153
48.09508
49.40363
51.28569
53.86794
0
0
0
0
0
0
0
44.92652
45.67093
46.84479
48.53118
50.83505
0
0
0
0
0
0
0
0
42.70928
43.37999
44.44057
45.9626
48.03423
0
0
0
0
0
0
0
0
0
40.55889
41.16668
42.13019
43.51024
45.38236
0
0
0
0
0
0
0
0
0
0
38.51404
39.06975
39.94993
41.20917
42.91157
0
0
0
0
0
0
0
0
0
0
36.62756
37.13809
37.94872
39.10522
40.66532
0
0
0
0
0
0
0
0
0
0
34.91776
35.39132
36.14139
37.2119
38.65142
0
0
0
0
0
0
0
0
0
0
33.38395
33.82462
34.52438
35.51999
36.8583
0
0
0
0
0
0
0
0
0
0
100.8516
91.68821
96.4369
83.75011
88.14511
94.09294
77.44555
80.82028
86.12923
93.65708
72.20764
74.85885
79.02286
85.44525
94.99801
67.55837
69.70931
73.04644
78.09539
85.78902
0
63.25036
65.01904
67.75557
71.80379
77.75959
0
0
59.30751
60.78496
63.06812
66.40817
71.18226
0
0
0
55.75996
57.0149
58.95657
61.77365
65.73727
0
0
0
0
52.59273
53.67357
55.35392
57.77888
61.15093
0
0
0
0
0
49.76407
50.70789
52.1822
54.30576
57.23411
0
0
0
0
0
0
47.22237
48.05688
49.3667
51.25058
53.83562
0
0
0
0
0
0
0
44.91106
45.65685
46.83291
48.52274
50.83191
0
0
0
0
0
0
0
0
42.76656
43.43951
44.50428
46.03311
48.11509
0
0
0
0
0
0
0
0
0
40.71998
41.33108
42.30121
43.6922
45.58081
0
0
0
0
0
0
0
0
0
0
38.72431
39.28315
40.17007
41.44045
43.15959
0
0
0
0
0
0
0
0
0
0
36.81952
37.33247
38.14826
39.31347
40.88654
0
0
0
0
0
0
0
0
0
0
35.05497
35.52991
36.28339
37.35948
38.80739
0
0
0
0
0
0
0
0
0
0
33.45218
33.89358
34.59497
35.59338
36.93573
0
0
0
0
0
0
0
0
0
0
32.01146
32.42352
33.07888
34.01207
35.2626
0
0
0
0
0
0
0
0
0
0
91.20397
95.73524
83.05987
87.28415
92.7898
76.68064
79.92345
84.96841
91.78798
71.50405
74.05324
78.03847
84.09938
92.62686
67.0786
69.16012
72.38462
77.23439
84.51298
0
63.06905
64.80479
67.49019
71.45577
77.2632
0
0
59.29453
60.75902
63.02303
66.3335
71.05914
0
0
0
55.79731
57.04779
58.98325
61.79113
65.74023
0
0
0
0
52.62176
53.70144
55.38033
57.80323
61.17206
0
0
0
0
0
49.76407
50.70789
52.1822
54.30576
57.23411
0
0
0
0
0
0
47.1947
48.02951
49.33965
51.22397
53.8097
0
0
0
0
0
0
0
44.87273
45.61892
46.79549
48.48613
50.79665
0
0
0
0
0
0
0
0
42.75003
43.42361
44.4896
46.02049
48.1058
0
0
0
0
0
0
0
0
0
40.77153
41.38401
42.35704
43.75302
45.64937
0
0
0
0
0
0
0
0
0
0
38.87397
39.43503
40.32715
41.60632
43.3389
0
0
0
0
0
0
0
0
0
0
0
37.01637
37.53182
38.35312
39.52774
41.11499
0
0
0
0
0
0
0
0
0
0
35.23566
35.7124
36.47039
37.55398
39.0132
0
0
0
0
0
0
0
0
0
0
33.58177
34.02427
34.72849
35.73191
37.08163
0
0
0
0
0
0
0
0
0
0
32.07591
32.48859
33.14537
34.08098
35.33517
0
0
0
0
0
0
0
0
0
0
30.71954
31.10626
31.72157
32.59747
33.77096
0
0
0
0
0
0
0
0
0
0
82.69882
86.83847
92.13117
76.12947
79.28565
84.15825
90.53208
70.87297
73.34386
77.19213
82.98007
90.77528
66.49054
68.50582
71.62254
76.28402
83.18203
0
62.66872
64.35818
66.97015
70.81649
76.41267
0
0
59.14882
60.59112
62.82116
66.07853
70.71762
0
0
0
55.79528
57.03711
58.95999
61.74886
65.66801
0
0
0
0
52.66074
53.73755
55.4126
57.82989
61.19004
0
0
0
0
0
49.79256
50.73573
52.20925
54.33174
57.25842
0
0
0
0
0
0
47.1947
48.02951
49.33965
51.22397
53.8097
0
0
0
0
0
0
0
44.84604
45.59229
46.76887
48.45952
50.77012
0
0
0
0
0
0
0
0
42.71287
43.38644
44.45244
45.98343
48.0691
0
0
0
0
0
0
0
0
0
40.75455
41.36714
42.34066
43.73773
45.63602
0
0
0
0
0
0
0
0
0
0
38.92101
39.48268
40.37679
41.65958
43.39801
0
0
0
0
0
0
0
0
0
0
0
37.15599
37.67309
38.49836
39.68018
41.27849
0
0
0
0
0
0
0
0
0
0
0
0
35.42075
35.89926
36.66195
37.7535
39.22493
0
0
0
0
0
0
0
0
0
0
33.75234
34.19627
34.90422
35.91429
37.2739
0
0
0
0
0
0
0
0
0
0
32.19858
32.61216
33.2714
34.21131
35.47216
0
0
0
0
0
0
0
0
0
0
30.78053
31.16778
31.78437
32.66242
33.83912
0
0
0
0
0
0
0
0
0
0
29.50114
29.86502
30.44444
31.26843
32.37122
0
0
0
0
0
0
0
0
0
0
75.83911
78.95171
83.73863
89.89744
70.41349
72.83253
76.59022
82.19924
89.53325
65.95478
67.91862
70.95143
75.46742
82.077
0
62.16532
63.80988
66.34997
70.08025
75.47474
0
0
58.80732
60.21779
62.39773
65.57606
70.08711
0
0
0
55.67568
56.90221
58.80188
61.55509
65.41829
0
0
0
0
52.66611
53.73712
55.40383
57.80868
61.14969
0
0
0
0
0
49.83203
50.77344
52.24464
54.36383
57.28542
0
0
0
0
0
0
47.22237
48.05688
49.3667
51.25058
53.83562
0
0
0
0
0
0
0
44.84604
45.59229
46.76887
48.45952
50.77012
0
0
0
0
0
0
0
0
42.68728
43.36073
44.42652
45.95722
48.04257
0
0
0
0
0
0
0
0
0
40.71876
41.33108
42.30423
43.70093
45.5989
0
0
0
0
0
0
0
0
0
0
38.90409
39.46543
40.35954
41.6427
43.3821
0
0
0
0
0
0
0
0
0
0
0
37.19929
37.71661
38.54306
39.72752
41.33022
0
0
0
0
0
0
0
0
0
0
0
0
35.55174
36.03122
36.79718
37.89454
39.37522
0
0
0
0
0
0
0
0
0
0
0
0
0
33.92689
34.37216
35.08393
36.10098
37.47111
0
0
0
0
0
0
0
0
0
0
32.36006
32.7747
33.43717
34.3828
35.65252
0
0
0
0
0
0
0
0
0
0
30.89685
31.28488
31.90363
32.78551
33.96804
0
0
0
0
0
0
0
0
0
0
29.55896
29.9233
30.50387
31.3298
32.43548
0
0
0
0
0
0
0
0
0
0
28.35078
28.69325
29.24008
30.01722
31.05578
0
0
0
0
0
0
0
0
0
0
70.17031
72.56292
76.27489
81.79479
88.90616
65.56144
67.49094
70.46765
74.88683
81.30684
0
61.70067
63.30999
65.79326
69.43212
74.66967
0
0
58.36828
59.74735
61.87713
64.97644
69.36108
0
0
0
55.37927
56.58322
58.44754
61.14583
64.92313
0
0
0
0
52.56611
53.62644
55.27687
57.65706
60.96022
0
0
0
0
0
49.84232
50.77993
52.24559
54.35659
57.26575
0
0
0
0
0
0
47.26153
48.09508
49.40363
51.28569
53.86794
0
0
0
0
0
0
0
44.87273
45.61892
46.79549
48.48613
50.79665
0
0
0
0
0
0
0
0
42.68728
43.36073
44.42652
45.95722
48.04257
0
0
0
0
0
0
0
0
0
40.69432
41.3064
42.27918
43.67539
45.57279
0
0
0
0
0
0
0
0
0
0
38.86987
39.43067
40.32417
41.60662
43.34525
0
0
0
0
0
0
0
0
0
0
0
37.18271
37.69947
38.52549
39.70984
41.3128
0
0
0
0
0
0
0
0
0
0
0
0
35.59204
36.07131
36.83802
37.93717
39.42119
0
0
0
0
0
0
0
0
0
0
0
0
0
34.05028
34.49612
35.21037
36.23237
37.6102
0
0
0
0
0
0
0
0
0
0
0
0
0
0
32.52524
32.94078
33.60649
34.55805
35.8371
0
0
0
0
0
0
0
0
0
0
31.04998
31.43893
32.06042
32.94737
34.13768
0
0
0
0
0
0
0
0
0
0
29.66947
30.03445
30.61697
31.44634
32.55727
0
0
0
0
0
0
0
0
0
0
28.4057
28.74854
29.2964
30.07532
31.11651
0
0
0
0
0
0
0
0
0
0
27.26291
27.58587
28.10225
28.83669
29.81705
0
0
0
0
0
0
0
0
0
0
65.35261
67.26438
70.21241
74.58261
80.90807
0
61.35721
62.94282
65.38771
68.96498
74.09761
0
0
57.95857
59.31275
61.40229
64.43825
68.72236
0
0
0
54.99089
56.1721
58.00018
60.64208
64.33197
0
0
0
0
52.30511
53.34917
54.9738
57.31444
60.55708
0
0
0
0
0
49.75728
50.68744
52.1415
54.23497
57.11769
0
0
0
0
0
0
47.27502
48.10618
49.41115
51.28782
53.86193
0
0
0
0
0
0
0
44.91106
45.65685
46.83291
48.52274
50.83191
0
0
0
0
0
0
0
0
42.71287
43.38644
44.45244
45.98343
48.0691
0
0
0
0
0
0
0
0
0
40.69432
41.3064
42.27918
43.67539
45.57279
0
0
0
0
0
0
0
0
0
0
38.84661
39.40707
40.3001
41.58193
43.31982
0
0
0
0
0
0
0
0
0
0
0
37.15009
37.6662
38.4914
39.67481
41.2767
0
0
0
0
0
0
0
0
0
0
0
0
35.57604
36.05454
36.82061
37.91922
39.40303
0
0
0
0
0
0
0
0
0
0
0
0
0
34.08811
34.53347
35.24802
36.27133
37.65159
0
0
0
0
0
0
0
0
0
0
0
0
0
0
32.64198
33.05769
33.72537
34.68098
35.96672
0
0
0
0
0
0
0
0
0
0
0
0
0
0
0
31.20662
31.59625
32.22043
33.11257
34.31099
0
0
0
0
0
0
0
0
0
0
29.81498
30.18067
30.76568
31.59952
32.71742
0
0
0
0
0
0
0
0
0
0
28.5109
28.85424
29.40383
30.1859
31.23186
0
0
0
0
0
0
0
0
0
0
27.31515
27.63843
28.15573
28.89178
29.87456
0
0
0
0
0
0
0
0
0
0
26.23173
26.5377
27.02618
27.72081
28.64798
0
0
0
0
0
0
0
0
0
0
61.1745
62.74772
65.17275
68.71845
73.79793
0
0
57.65405
58.99134
61.05345
64.04623
68.26219
0
0
0
54.62512
55.78803
57.58665
60.18258
63.80159
0
0
0
0
51.95748
52.9848
54.58229
56.88122
60.06042
0
0
0
0
0
49.52462
50.44296
51.87782
53.9418
56.78026
0
0
0
0
0
0
47.20154
48.02757
49.32425
51.18821
53.74332
0
0
0
0
0
0
0
44.92652
45.67093
46.84479
48.53118
50.83505
0
0
0
0
0
0
0
0
42.75003
43.42361
44.4896
46.02049
48.1058
0
0
0
0
0
0
0
0
0
40.71877
41.33108
42.30423
43.70093
45.5989
0
0
0
0
0
0
0
0
0
0
38.84661
39.40707
40.3001
41.58193
43.31982
0
0
0
0
0
0
0
0
0
0
0
37.12799
37.64372
38.46836
39.65108
41.2521
0
0
0
0
0
0
0
0
0
0
0
0
35.54503
36.0228
36.78796
37.88545
39.36799
0
0
0
0
0
0
0
0
0
0
0
0
0
34.07288
34.51732
35.23102
36.2536
37.63322
0
0
0
0
0
0
0
0
0
0
0
0
0
0
32.67779
33.0928
33.76049
34.71691
36.00455
0
0
0
0
0
0
0
0
0
0
0
0
0
0
0
31.31742
31.70699
32.33265
33.22823
34.43229
0
0
0
0
0
0
0
0
0
0
0
0
0
0
0
0
29.96383
30.33002
30.91738
31.75573
32.88085
0
0
0
0
0
0
0
0
0
0
28.64946
28.99332
29.5451
30.33126
31.38345
0
0
0
0
0
0
0
0
0
0
27.41544
27.73914
28.25796
28.99687
29.98402
0
0
0
0
0
0
0
0
0
0
26.28154
26.58774
27.07705
27.77314
28.70252
0
0
0
0
0
0
0
0
0
0
25.2537
25.54326
26.00695
26.66501
27.54267
0
0
0
0
0
0
0
0
0
0
57.49186
58.82022
60.86797
63.83837
68.01937
0
0
0
54.35201
55.50241
57.28075
59.84501
63.41538
0
0
0
0
51.62754
52.64123
54.21628
56.48067
59.60751
0
0
0
0
0
49.2104
50.11625
51.53037
53.56236
56.35307
0
0
0
0
0
0
46.99195
47.80935
49.09152
50.93302
53.4546
0
0
0
0
0
0
0
44.8621
45.60303
46.77098
48.4481
50.73801
0
0
0
0
0
0
0
0
42.76656
43.43951
44.50428
46.03311
48.11509
0
0
0
0
0
0
0
0
0
40.75455
41.36714
42.34066
43.73773
45.63602
0
0
0
0
0
0
0
0
0
0
38.86987
39.43067
40.32417
41.60662
43.34525
0
0
0
0
0
0
0
0
0
0
0
37.12799
37.64372
38.46836
39.65108
41.2521
0
0
0
0
0
0
0
0
0
0
0
0
35.52408
36.00143
36.766
37.86273
39.34435
0
0
0
0
0
0
0
0
0
0
0
0
0
34.04354
34.48713
35.19985
36.22124
37.59944
0
0
0
0
0
0
0
0
0
0
0
0
0
0
32.66343
33.07743
33.74411
34.69961
35.98642
0
0
0
0
0
0
0
0
0
0
0
0
0
0
0
31.35156
31.7403
32.3657
33.26177
34.46719
0
0
0
0
0
0
0
0
0
0
0
0
0
0
0
0
30.06922
30.43524
31.02378
31.86496
32.99501
0
0
0
0
0
0
0
0
0
0
0
0
0
0
0
0
0
28.79128
29.13539
29.68923
30.47945
31.53802
0
0
0
0
0
0
0
0
0
0
27.54757
27.8717
28.39242
29.13502
30.12792
0
0
0
0
0
0
0
0
0
0
26.37737
26.68382
27.17452
27.87319
28.80658
0
0
0
0
0
0
0
0
0
0
25.30123
25.59101
26.0554
26.7148
27.59449
0
0
0
0
0
0
0
0
0
0
24.32545
24.59929
25.03932
25.66452
26.49662
0
0
0
0
0
0
0
0
0
0
54.20647
55.35016
57.11777
59.66547
63.2106
0
0
0
0
51.38024
52.38454
53.94399
56.18435
59.27485
0
0
0
0
0
48.91022
49.80576
51.20248
53.2075
55.95814
0
0
0
0
0
0
46.70556
47.51355
48.7796
50.59602
53.08034
0
0
0
0
0
0
0
44.67157
45.40619
46.56306
48.22276
50.48668
0
0
0
0
0
0
0
0
42.70928
43.37999
44.44057
45.9626
48.03423
0
0
0
0
0
0
0
0
0
40.77153
41.38401
42.35704
43.75302
45.64937
0
0
0
0
0
0
0
0
0
0
38.90409
39.46543
40.35954
41.6427
43.3821
0
0
0
0
0
0
0
0
0
0
0
37.15008
37.6662
38.4914
39.67481
41.2767
0
0
0
0
0
0
0
0
0
0
0
0
35.52408
36.00143
36.766
37.86273
39.34435
0
0
0
0
0
0
0
0
0
0
0
0
0
34.02373
34.46684
35.17896
36.19957
37.5768
0
0
0
0
0
0
0
0
0
0
0
0
0
0
32.63568
33.04884
33.71445
34.66872
35.95407
0
0
0
0
0
0
0
0
0
0
0
0
0
0
0
31.33813
31.7258
32.35013
33.24512
34.44953
0
0
0
0
0
0
0
0
0
0
0
0
0
0
0
0
30.10192
30.46705
31.05517
31.89656
33.0276
0
0
0
0
0
0
0
0
0
0
0
0
0
0
0
0
0
28.89189
29.23559
29.79041
30.58308
31.64588
0
0
0
0
0
0
0
0
0
0
0
0
0
0
0
0
0
0
27.68286
28.00718
28.52962
29.27587
30.27458
0
0
0
0
0
0
0
0
0
0
26.50367
26.81033
27.30277
28.00475
28.94338
0
0
0
0
0
0
0
0
0
0
25.39287
25.68289
26.14846
26.81024
27.69358
0
0
0
0
0
0
0
0
0
0
24.37089
24.64488
25.08558
25.71196
26.54594
0
0
0
0
0
0
0
0
0
0
23.44341
23.70265
24.12022
24.71426
25.50515
0
0
0
0
0
0
0
0
0
0
51.24846
52.24765
53.79876
56.02643
59.09791
0
0
0
0
0
48.68452
49.57289
50.9574
52.94349
55.66603
0
0
0
0
0
0
46.43048
47.23057
48.48287
50.27785
52.73036
0
0
0
0
0
0
0
44.40872
45.13618
46.28031
47.91999
50.1542
0
0
0
0
0
0
0
0
42.53468
43.20083
44.25284
45.76117
47.81226
0
0
0
0
0
0
0
0
0
40.71998
41.33108
42.30121
43.6922
45.58081
0
0
0
0
0
0
0
0
0
0
38.92102
39.48268
40.37679
41.65958
43.39801
0
0
0
0
0
0
0
0
0
0
0
37.18271
37.69947
38.52549
39.70984
41.3128
0
0
0
0
0
0
0
0
0
0
0
0
35.54503
36.0228
36.78796
37.88545
39.36799
0
0
0
0
0
0
0
0
0
0
0
0
0
34.02373
34.46684
35.17896
36.19957
37.5768
0
0
0
0
0
0
0
0
0
0
0
0
0
0
32.61694
33.02964
33.69461
34.6481
35.93248
0
0
0
0
0
0
0
0
0
0
0
0
0
0
0
31.31196
31.69875
32.32203
33.21572
34.41865
0
0
0
0
0
0
0
0
0
0
0
0
0
0
0
0
30.08946
30.45349
31.04048
31.88074
33.01062
0
0
0
0
0
0
0
0
0
0
0
0
0
0
0
0
0
28.92343
29.26611
29.82044
30.61312
31.6766
0
0
0
0
0
0
0
0
0
0
0
0
0
0
0
0
0
0
27.77903
28.10295
28.62606
29.37449
30.37694
0
0
0
0
0
0
0
0
0
0
0
0
0
0
0
0
0
0
0
26.63309
26.9397
27.4337
28.1389
29.08281
0
0
0
0
0
0
0
0
0
0
25.51376
25.80393
26.27093
26.93577
27.82387
0
0
0
0
0
0
0
0
0
0
24.45872
24.73282
25.17462
25.80311
26.64047
0
0
0
0
0
0
0
0
0
0
23.48689
23.74627
24.1644
24.75957
25.55215
0
0
0
0
0
0
0
0
0
0
22.60528
22.85001
23.24666
23.81126
24.56324
0
0
0
0
0
0
0
0
0
0
48.5643
49.44871
50.82663
52.80263
55.51035
0
0
0
0
0
0
46.22312
47.01766
48.26023
50.04001
52.47
0
0
0
0
0
0
0
44.1551
44.87644
46.00954
47.63182
49.84029
0
0
0
0
0
0
0
0
42.29191
42.95263
43.99445
45.48653
47.51347
0
0
0
0
0
0
0
0
0
40.55889
41.16668
42.13019
43.51024
45.38236
0
0
0
0
0
0
0
0
0
0
38.87397
39.43503
40.32715
41.60632
43.3389
0
0
0
0
0
0
0
0
0
0
0
37.19929
37.71661
38.54306
39.72752
41.33022
0
0
0
0
0
0
0
0
0
0
0
0
35.57604
36.05454
36.82061
37.91922
39.40303
0
0
0
0
0
0
0
0
0
0
0
0
0
34.04354
34.48713
35.19985
36.22124
37.59944
0
0
0
0
0
0
0
0
0
0
0
0
0
0
32.61694
33.02964
33.69461
34.6481
35.93248
0
0
0
0
0
0
0
0
0
0
0
0
0
0
0
31.29427
31.68057
32.30324
33.19613
34.3981
0
0
0
0
0
0
0
0
0
0
0
0
0
0
0
0
30.06483
30.42797
31.01389
31.85288
32.98122
0
0
0
0
0
0
0
0
0
0
0
0
0
0
0
0
0
28.91198
29.25352
29.8067
30.5982
31.66047
0
0
0
0
0
0
0
0
0
0
0
0
0
0
0
0
0
0
27.80948
28.13245
28.65492
29.40326
30.40616
0
0
0
0
0
0
0
0
0
0
0
0
0
0
0
0
0
0
0
26.72539
27.03133
27.52595
28.23294
29.18024
0
0
0
0
0
0
0
0
0
0
0
0
0
0
0
0
0
0
0
0
25.63779
25.92779
26.39604
27.06385
27.9567
0
0
0
0
0
0
0
0
0
0
24.57466
24.84876
25.29187
25.92304
26.76483
0
0
0
0
0
0
0
0
0
0
23.57114
23.83061
24.24967
24.84681
25.64245
0
0
0
0
0
0
0
0
0
0
22.64694
22.89177
23.28896
23.85456
24.60813
0
0
0
0
0
0
0
0
0
0
21.80787
22.03922
22.4155
22.95268
23.668
0
0
0
0
0
0
0
0
0
0
46.11276
46.90418
48.14144
49.91306
52.33108
0
0
0
0
0
0
0
43.96352
44.68051
45.80571
47.41556
49.60564
0
0
0
0
0
0
0
0
42.05679
42.7128
43.74562
45.22335
47.22905
0
0
0
0
0
0
0
0
0
40.3335
40.93713
41.89242
43.25907
45.11123
0
0
0
0
0
0
0
0
0
0
38.72432
39.28316
40.17007
41.44045
43.15959
0
0
0
0
0
0
0
0
0
0
37.15599
37.67309
38.49837
39.68018
41.27849
0
0
0
0
0
0
0
0
0
0
0
0
35.59204
36.0713
36.83802
37.93717
39.42119
0
0
0
0
0
0
0
0
0
0
0
0
0
34.07288
34.51732
35.23102
36.2536
37.63322
0
0
0
0
0
0
0
0
0
0
0
0
0
0
32.63568
33.04884
33.71445
34.66872
35.95407
0
0
0
0
0
0
0
0
0
0
0
0
0
0
0
31.29427
31.68057
32.30324
33.19613
34.3981
0
0
0
0
0
0
0
0
0
0
0
0
0
0
0
0
30.04814
30.41079
30.99609
31.83432
32.9617
0
0
0
0
0
0
0
0
0
0
0
0
0
0
0
0
0
28.88884
29.22948
29.78159
30.57182
31.63261
0
0
0
0
0
0
0
0
0
0
0
0
0
0
0
0
0
0
27.79894
28.12086
28.64216
29.3893
30.39096
0
0
0
0
0
0
0
0
0
0
0
0
0
0
0
0
0
0
0
26.75504
27.05986
27.55389
28.26062
29.20825
0
0
0
0
0
0
0
0
0
0
0
0
0
0
0
0
0
0
0
0
25.72656
26.01582
26.48437
27.15386
28.04965
0
0
0
0
0
0
0
0
0
0
0
0
0
0
0
0
0
0
0
0
24.69378
24.96757
25.41173
26.04548
26.89168
0
0
0
0
0
0
0
0
0
0
23.68242
23.94189
24.36205
24.96168
25.76128
0
0
0
0
0
0
0
0
0
0
22.72782
22.97272
23.37079
23.93815
24.69459
0
0
0
0
0
0
0
0
0
0
21.84785
22.07925
22.45602
22.99414
23.7109
0
0
0
0
0
0
0
0
0
0
21.04889
21.2673
21.62471
22.13545
22.81661
0
0
0
0
0
0
0
0
0
0
43.86167
44.57616
45.69702
47.30014
49.4804
0
0
0
0
0
0
0
0
41.87887
42.5315
43.55782
45.02521
47.01562
0
0
0
0
0
0
0
0
0
40.11458
40.71447
41.66239
43.01704
44.85139
0
0
0
0
0
0
0
0
0
0
38.51404
39.06976
39.94993
41.20917
42.91157
0
0
0
0
0
0
0
0
0
0
37.01637
37.53182
38.35312
39.52774
41.11499
0
0
0
0
0
0
0
0
0
0
35.55174
36.03122
36.79718
37.89454
39.37522
0
0
0
0
0
0
0
0
0
0
0
0
0
34.08811
34.53347
35.24802
36.27134
37.6516
0
0
0
0
0
0
0
0
0
0
0
0
0
0
32.66343
33.07743
33.74411
34.69961
35.98642
0
0
0
0
0
0
0
0
0
0
0
0
0
0
0
31.31196
31.69875
32.32203
33.21572
34.41864
0
0
0
0
0
0
0
0
0
0
0
0
0
0
0
0
30.04814
30.41079
30.99609
31.83432
32.9617
0
0
0
0
0
0
0
0
0
0
0
0
0
0
0
0
0
28.87311
29.21327
29.76477
30.55424
31.61412
0
0
0
0
0
0
0
0
0
0
0
0
0
0
0
0
0
0
27.77716
28.09827
28.6185
29.36439
30.36458
0
0
0
0
0
0
0
0
0
0
0
0
0
0
0
0
0
0
0
26.74554
27.04919
27.54214
28.24765
29.19403
0
0
0
0
0
0
0
0
0
0
0
0
0
0
0
0
0
0
0
0
25.75558
26.04366
26.51144
27.18069
28.07662
0
0
0
0
0
0
0
0
0
0
0
0
0
0
0
0
0
0
0
0
24.77936
25.05232
25.49666
26.13171
26.98065
0
0
0
0
0
0
0
0
0
0
0
0
0
0
0
0
0
0
0
0
23.79691
24.05608
24.47709
25.07903
25.88257
0
0
0
0
0
0
0
0
0
0
22.83475
23.07961
23.47871
24.04828
24.80842
0
0
0
0
0
0
0
0
0
0
21.92565
22.15702
22.5346
23.07438
23.79375
0
0
0
0
0
0
0
0
0
0
21.08727
21.30574
21.66356
22.17518
22.85771
0
0
0
0
0
0
0
0
0
0
20.32592
20.53207
20.87143
21.35763
22.00608
0
0
0
0
0
0
0
0
0
0
41.78439
42.43505
43.45776
44.91952
46.90171
0
0
0
0
0
0
0
0
0
39.94871
40.54585
41.48842
42.83433
44.65577
0
0
0
0
0
0
0
0
0
0
38.30934
38.86214
39.73614
40.98527
42.67252
0
0
0
0
0
0
0
0
0
0
36.81952
37.33247
38.14827
39.31347
40.88654
0
0
0
0
0
0
0
0
0
0
35.42074
35.89925
36.66195
37.75351
39.22493
0
0
0
0
0
0
0
0
0
0
34.05028
34.49612
35.21037
36.23237
37.61021
0
0
0
0
0
0
0
0
0
0
0
0
0
0
32.67779
33.0928
33.76049
34.71691
36.00455
0
0
0
0
0
0
0
0
0
0
0
0
0
0
0
31.33813
31.72579
32.35013
33.24512
34.44953
0
0
0
0
0
0
0
0
0
0
0
0
0
0
0
0
30.06483
30.42797
31.01389
31.85288
32.98122
0
0
0
0
0
0
0
0
0
0
0
0
0
0
0
0
0
28.87311
29.21327
29.76477
30.55424
31.61412
0
0
0
0
0
0
0
0
0
0
0
0
0
0
0
0
0
0
27.76231
28.08299
28.60262
29.34777
30.34706
0
0
0
0
0
0
0
0
0
0
0
0
0
0
0
0
0
0
0
26.72515
27.02792
27.5199
28.22418
29.16912
0
0
0
0
0
0
0
0
0
0
0
0
0
0
0
0
0
0
0
0
25.74712
26.03403
26.50061
27.16874
28.0634
0
0
0
0
0
0
0
0
0
0
0
0
0
0
0
0
0
0
0
0
24.80782
25.07963
25.52313
26.15774
27.00683
0
0
0
0
0
0
0
0
0
0
0
0
0
0
0
0
0
0
0
0
23.87944
24.13787
24.55893
25.16199
25.96784
0
0
0
0
0
0
0
0
0
0
0
0
0
0
0
0
0
0
0
0
22.94486
23.18945
23.58935
24.16096
24.9247
0
0
0
0
0
0
0
0
0
0
22.02852
22.2598
22.63831
23.18018
23.90291
0
0
0
0
0
0
0
0
0
0
21.16212
21.3806
21.73909
22.25226
22.93725
0
0
0
0
0
0
0
0
0
0
20.36278
20.56899
20.90875
21.39573
22.04546
0
0
0
0
0
0
0
0
0
0
19.63923
19.83128
20.15358
20.61645
21.23449
0
0
0
0
0
0
0
0
0
0
39.86076
40.45626
41.39583
42.73696
44.55142
0
0
0
0
0
0
0
0
0
0
38.15409
38.70472
39.57416
40.81588
42.49207
0
0
0
0
0
0
0
0
0
0
36.62756
37.13809
37.94872
39.10522
40.66532
0
0
0
0
0
0
0
0
0
0
35.23566
35.7124
36.47039
37.55398
39.0132
0
0
0
0
0
0
0
0
0
0
33.92689
34.37216
35.08393
36.10098
37.47112
0
0
0
0
0
0
0
0
0
0
32.64197
33.05769
33.72537
34.68098
35.96672
0
0
0
0
0
0
0
0
0
0
0
0
0
0
0
31.35156
31.74029
32.3657
33.26177
34.46719
0
0
0
0
0
0
0
0
0
0
0
0
0
0
0
0
30.08945
30.45349
31.04048
31.88074
33.01062
0
0
0
0
0
0
0
0
0
0
0
0
0
0
0
0
0
28.88884
29.22948
29.78159
30.57182
31.63261
0
0
0
0
0
0
0
0
0
0
0
0
0
0
0
0
0
0
27.76231
28.08298
28.60262
29.34777
30.34706
0
0
0
0
0
0
0
0
0
0
0
0
0
0
0
0
0
0
0
26.71119
27.01348
27.50492
28.20849
29.15254
0
0
0
0
0
0
0
0
0
0
0
0
0
0
0
0
0
0
0
0
25.72811
26.01411
26.47966
27.14667
28.03992
0
0
0
0
0
0
0
0
0
0
0
0
0
0
0
0
0
0
0
0
24.80029
25.07103
25.51333
26.14672
26.99464
0
0
0
0
0
0
0
0
0
0
0
0
0
0
0
0
0
0
0
0
23.90721
24.16471
24.58493
25.18748
25.99325
0
0
0
0
0
0
0
0
0
0
0
0
0
0
0
0
0
0
0
0
23.02445
23.2684
23.66839
24.24094
25.00675
0
0
0
0
0
0
0
0
0
0
0
0
0
0
0
0
0
0
0
0
22.13452
22.36551
22.74481
23.2886
24.01458
0
0
0
0
0
0
0
0
0
0
21.26116
21.47953
21.83886
22.35398
23.04214
0
0
0
0
0
0
0
0
0
0
20.43486
20.64105
20.98149
21.46984
22.12188
0
0
0
0
0
0
0
0
0
0
19.67475
19.86676
20.18945
20.65306
21.27227
0
0
0
0
0
0
0
0
0
0
18.9867
19.16525
19.46904
19.90988
20.49911
0
0
0
0
0
0
0
0
0
0
38.0719
38.62122
39.48807
40.72572
42.39591
0
0
0
0
0
0
0
0
0
0
36.48189
36.99056
37.79735
38.94741
40.49798
0
0
0
0
0
0
0
0
0
0
35.05497
35.5299
36.28339
37.35949
38.80739
0
0
0
0
0
0
0
0
0
0
33.75233
34.19626
34.90422
35.91429
37.27391
0
0
0
0
0
0
0
0
0
0
32.52523
32.94078
33.60648
34.55805
35.8371
0
0
0
0
0
0
0
0
0
0
31.31741
31.70699
32.33265
33.22823
34.43229
0
0
0
0
0
0
0
0
0
0
0
0
0
0
0
0
30.10191
30.46705
31.05517
31.89656
33.0276
0
0
0
0
0
0
0
0
0
0
0
0
0
0
0
0
0
28.91198
29.25351
29.8067
30.59819
31.66047
0
0
0
0
0
0
0
0
0
0
0
0
0
0
0
0
0
0
27.77716
28.09827
28.6185
29.36439
30.36458
0
0
0
0
0
0
0
0
0
0
0
0
0
0
0
0
0
0
0
26.71119
27.01348
27.50492
28.20848
29.15254
0
0
0
0
0
0
0
0
0
0
0
0
0
0
0
0
0
0
0
0
25.715
26.00053
26.4655
27.13186
28.02427
0
0
0
0
0
0
0
0
0
0
0
0
0
0
0
0
0
0
0
0
24.78246
25.05244
25.49371
26.12593
26.97256
0
0
0
0
0
0
0
0
0
0
0
0
0
0
0
0
0
0
0
0
23.90036
24.15704
24.57618
25.17749
25.982
0
0
0
0
0
0
0
0
0
0
0
0
0
0
0
0
0
0
0
0
23.05163
23.29463
23.69399
24.26602
25.03165
0
0
0
0
0
0
0
0
0
0
0
0
0
0
0
0
0
0
0
0
22.21137
22.44171
22.82115
23.36589
24.0937
0
0
0
0
0
0
0
0
0
0
0
0
0
0
0
0
0
0
0
0
21.36335
21.58137
21.94141
22.45836
23.1496
0
0
0
0
0
0
0
0
0
0
20.53029
20.73635
21.07758
21.56772
22.22274
0
0
0
0
0
0
0
0
0
0
19.74432
19.93618
20.25948
20.72445
21.34575
0
0
0
0
0
0
0
0
0
0
19.02086
19.19945
19.50351
19.94508
20.53542
0
0
0
0
0
0
0
0
0
0
18.37171
18.53198
18.81813
19.23588
19.79797
0
0
0
0
0
0
0
0
0
0
36.40492
36.91244
37.71703
38.86352
40.4089
0
0
0
0
0
0
0
0
0
0
34.91776
35.39131
36.14139
37.2119
38.65142
0
0
0
0
0
0
0
0
0
0
33.58176
34.02427
34.72849
35.73191
37.08163
0
0
0
0
0
0
0
0
0
0
32.36005
32.7747
33.43716
34.3828
35.65252
0
0
0
0
0
0
0
0
0
0
31.20661
31.59625
32.22043
33.11257
34.31099
0
0
0
0
0
0
0
0
0
0
30.06922
30.43524
31.02377
31.86496
32.99501
0
0
0
0
0
0
0
0
0
0
0
0
0
0
0
0
0
28.92343
29.2661
29.82044
30.61311
31.6766
0
0
0
0
0
0
0
0
0
0
0
0
0
0
0
0
0
0
27.79894
28.12086
28.64215
29.3893
30.39096
0
0
0
0
0
0
0