/*--------------------------------*- C++ -*----------------------------------*\
| =========                 |                                                 |
| \\      /  F ield         | OpenFOAM: The Open Source CFD Toolbox           |
|  \\    /   O peration     | Version:  2306                                  |
|   \\  /    A nd           | Website:  www.openfoam.com                      |
|    \\/     M anipulation  |                                                 |
\*---------------------------------------------------------------------------*/
FoamFile
{
    version     2.0;
    format      ascii;
    arch        "LSB;label=32;scalar=64";
    class       volScalarField;
    location    "0.3/fuel";
    object      nernst;
}
// * * * * * * * * * * * * * * * * * * * * * * * * * * * * * * * * * * * * * //

dimensions      [1 2 -3 0 0 -1 0];

internalField   nonuniform List<scalar> 
16000
(
-1.699354
-1.700251
-1.687869
-1.69941
-1.702075
-1.688455
-1.700308
-1.677495
-1.687908
-1.69952
-1.704846
-1.68964
-1.702135
-1.677937
-1.688495
-1.700421
-1.669069
-1.677524
-1.687988
-1.699682
-1.708472
-1.691422
-1.704913
-1.678828
-1.689681
-1.702254
-1.669426
-1.677966
-1.688576
-1.700587
-1.662098
-1.669091
-1.677583
-1.688106
-1.699897
-1.712418
-1.693719
-1.708548
-1.680165
-1.691465
-1.705042
-1.670145
-1.678857
-1.689764
-1.70243
-1.662398
-1.669448
-1.678025
-1.688696
-1.700807
-1.656184
-1.662115
-1.669137
-1.677671
-1.688262
-1.700111
-1.715397
-1.696185
-1.712508
-1.681883
-1.693765
-1.708695
-1.671222
-1.680194
-1.691552
-1.705234
-1.663001
-1.670167
-1.678918
-1.689888
-1.702661
-1.656442
-1.662415
-1.669494
-1.678115
-1.688854
-1.701027
-1.651057
-1.656197
-1.662152
-1.669206
-1.677789
-1.688419
-1.700292
-1.717252
-1.698058
-1.7155
-1.683726
-1.696233
-1.71268
-1.672604
-1.681914
-1.693857
-1.708912
-1.663903
-1.671244
-1.680257
-1.691681
-1.705486
-1.656961
-1.663018
-1.670214
-1.679009
-1.690051
-1.702893
-1.651284
-1.656455
-1.662452
-1.669564
-1.678233
-1.689013
-1.701212
-1.64654
-1.651068
-1.656227
-1.662209
-1.669299
-1.677907
-1.68855
-1.700472
-1.718266
-1.699253
-1.717363
-1.685139
-1.698109
-1.715691
-1.674086
-1.683757
-1.696333
-1.712931
-1.66506
-1.672626
-1.681978
-1.693995
-1.709196
-1.657737
-1.66392
-1.671291
-1.680351
-1.691853
-1.705739
-1.65174
-1.656974
-1.663055
-1.670285
-1.67913
-1.690215
-1.703089
-1.646742
-1.651295
-1.656486
-1.662509
-1.669658
-1.678353
-1.689147
-1.701397
-1.642504
-1.646548
-1.651094
-1.656275
-1.662285
-1.669393
-1.678006
-1.688681
-1.700651
-1.718707
-1.699928
-1.718384
-1.686057
-1.699305
-1.717568
-1.675229
-1.68517
-1.698213
-1.715969
-1.6663
-1.674107
-1.683824
-1.696482
-1.71326
-1.658732
-1.665076
-1.672675
-1.682077
-1.694179
-1.709482
-1.652421
-1.65775
-1.663958
-1.671364
-1.680476
-1.692025
-1.705951
-1.647148
-1.65175
-1.657005
-1.663113
-1.67038
-1.679252
-1.690353
-1.703283
-1.642687
-1.64675
-1.65132
-1.656534
-1.662586
-1.669753
-1.678453
-1.68928
-1.70158
-1.63886
-1.642511
-1.64657
-1.651134
-1.65634
-1.662363
-1.669472
-1.678105
-1.688812
-1.700829
-1.718707
-1.700229
-1.718828
-1.686588
-1.699982
-1.718598
-1.67598
-1.686088
-1.699413
-1.717864
-1.66726
-1.67525
-1.685239
-1.69837
-1.716332
-1.659798
-1.666316
-1.674157
-1.683928
-1.696681
-1.713591
-1.653293
-1.658744
-1.665115
-1.67275
-1.682208
-1.694363
-1.709723
-1.647755
-1.652431
-1.657781
-1.664017
-1.671462
-1.680602
-1.692169
-1.706164
-1.643053
-1.647156
-1.651776
-1.657053
-1.663191
-1.670476
-1.679355
-1.69049
-1.703477
-1.639026
-1.642693
-1.646772
-1.651361
-1.656598
-1.662664
-1.669832
-1.678553
-1.689412
-1.701763
-1.635538
-1.638865
-1.64253
-1.646606
-1.65119
-1.656405
-1.662428
-1.66955
-1.678203
-1.688941
-1.701695
-1.718266
-1.700229
-1.718828
-1.686829
-1.700284
-1.719045
-1.67642
-1.686619
-1.700092
-1.718905
-1.667895
-1.676
-1.686157
-1.699573
-1.718249
-1.660625
-1.667275
-1.6753
-1.685344
-1.698577
-1.716696
-1.654228
-1.65981
-1.666355
-1.674235
-1.684066
-1.69688
-1.713873
-1.648532
-1.653303
-1.658776
-1.665175
-1.672851
-1.68234
-1.694517
-1.709966
-1.6436
-1.647763
-1.652457
-1.65783
-1.664096
-1.67156
-1.680708
-1.692313
-1.706377
-1.63936
-1.64306
-1.647179
-1.651818
-1.657119
-1.66327
-1.670557
-1.679457
-1.690627
-1.703671
-1.635691
-1.639032
-1.642713
-1.646808
-1.651417
-1.656664
-1.662729
-1.669911
-1.678652
-1.689544
-1.702652
-1.632487
-1.635543
-1.638882
-1.642561
-1.646654
-1.651247
-1.65646
-1.662492
-1.669628
-1.678301
-1.68957
-1.702357
-1.717252
-1.699928
-1.718384
-1.686829
-1.700284
-1.719045
-1.676623
-1.686861
-1.700395
-1.719357
-1.668271
-1.67644
-1.686689
-1.700255
-1.719304
-1.661175
-1.66791
-1.67605
-1.686264
-1.699787
-1.718636
-1.654956
-1.660636
-1.667314
-1.675378
-1.685486
-1.698786
-1.717007
-1.649365
-1.654238
-1.659841
-1.666417
-1.674341
-1.684206
-1.697049
-1.714159
-1.644301
-1.64854
-1.653329
-1.658826
-1.665257
-1.672953
-1.68245
-1.694673
-1.71021
-1.639858
-1.643607
-1.647785
-1.652499
-1.657897
-1.664176
-1.671643
-1.680813
-1.692457
-1.706589
-1.635998
-1.639365
-1.643079
-1.647214
-1.651874
-1.657185
-1.663336
-1.670637
-1.679558
-1.690762
-1.704611
-1.632629
-1.635695
-1.639048
-1.642744
-1.646857
-1.651474
-1.656719
-1.662794
-1.669989
-1.678751
-1.690182
-1.703336
-1.629667
-1.632491
-1.635557
-1.63891
-1.642605
-1.646704
-1.651294
-1.656514
-1.662556
-1.669706
-1.678774
-1.690049
-1.702889
-1.715397
-1.699253
-1.717363
-1.686588
-1.699982
-1.718598
-1.676623
-1.686861
-1.700395
-1.719357
-1.668444
-1.676642
-1.686931
-1.70056
-1.719763
-1.661502
-1.668285
-1.67649
-1.686796
-1.700472
-1.719703
-1.65544
-1.661185
-1.667948
-1.676128
-1.686407
-1.700001
-1.718966
-1.650014
-1.654964
-1.660667
-1.667375
-1.675484
-1.685629
-1.698962
-1.717323
-1.645053
-1.649372
-1.654264
-1.659892
-1.666501
-1.674447
-1.684323
-1.697219
-1.714449
-1.640497
-1.644308
-1.648562
-1.653372
-1.658894
-1.665339
-1.673038
-1.682561
-1.694828
-1.710456
-1.636456
-1.639864
-1.643626
-1.647821
-1.652556
-1.657964
-1.664244
-1.671725
-1.680918
-1.6926
-1.707624
-1.632912
-1.636002
-1.639382
-1.643111
-1.647264
-1.651931
-1.657241
-1.663402
-1.670717
-1.679659
-1.691422
-1.70535
-1.629798
-1.632632
-1.63571
-1.639076
-1.642787
-1.646907
-1.651522
-1.656774
-1.662859
-1.670067
-1.679229
-1.690669
-1.70389
-1.627044
-1.62967
-1.632504
-1.635582
-1.638949
-1.642649
-1.646745
-1.651341
-1.656568
-1.66262
-1.670081
-1.679133
-1.69043
-1.703285
-1.712418
-1.698058
-1.7155
-1.686057
-1.699305
-1.717568
-1.67642
-1.686619
-1.700092
-1.718905
-1.668444
-1.676642
-1.686931
-1.70056
-1.719763
-1.661653
-1.668458
-1.676692
-1.687038
-1.700778
-1.720169
-1.655729
-1.661512
-1.668322
-1.676568
-1.68694
-1.700689
-1.720045
-1.650448
-1.655448
-1.661216
-1.668009
-1.676235
-1.686551
-1.700182
-1.7193
-1.64564
-1.65002
-1.65499
-1.660718
-1.66746
-1.675592
-1.685749
-1.699141
-1.717643
-1.641183
-1.645059
-1.649395
-1.654307
-1.659962
-1.666586
-1.674536
-1.684442
-1.697391
-1.714743
-1.637043
-1.640502
-1.644327
-1.648599
-1.65343
-1.658963
-1.665408
-1.673123
-1.682672
-1.694984
-1.711657
-1.633336
-1.63646
-1.639881
-1.643658
-1.647871
-1.652614
-1.65802
-1.66431
-1.671806
-1.681022
-1.693296
-1.708483
-1.630062
-1.632916
-1.636017
-1.63941
-1.643154
-1.647314
-1.651979
-1.657296
-1.663467
-1.670796
-1.680147
-1.691929
-1.705962
-1.627167
-1.629801
-1.632645
-1.635735
-1.639115
-1.642832
-1.646948
-1.651569
-1.656828
-1.662922
-1.670445
-1.679591
-1.691058
-1.704307
-1.624593
-1.627046
-1.629682
-1.632527
-1.635617
-1.638988
-1.642685
-1.646786
-1.651387
-1.656622
-1.662928
-1.670363
-1.679418
-1.690712
-1.703542
-1.708472
-1.696185
-1.712508
-1.685139
-1.698109
-1.715691
-1.67598
-1.686088
-1.699413
-1.717864
-1.668271
-1.67644
-1.686689
-1.700255
-1.719304
-1.661653
-1.668458
-1.676692
-1.687038
-1.700778
-1.720169
-1.655864
-1.661663
-1.668495
-1.67677
-1.687183
-1.700997
-1.720516
-1.650707
-1.655737
-1.661542
-1.668383
-1.676675
-1.687085
-1.700873
-1.72039
-1.646033
-1.650454
-1.655473
-1.661266
-1.668093
-1.676342
-1.686672
-1.700364
-1.719638
-1.641719
-1.645645
-1.650042
-1.655032
-1.660788
-1.667546
-1.675682
-1.68587
-1.699321
-1.717967
-1.637673
-1.641187
-1.645078
-1.649432
-1.654367
-1.660033
-1.666658
-1.674626
-1.684561
-1.697565
-1.716197
-1.633879
-1.637047
-1.640519
-1.644359
-1.648649
-1.653489
-1.65902
-1.665477
-1.673209
-1.682783
-1.695743
-1.712782
-1.630456
-1.633339
-1.636475
-1.639909
-1.643702
-1.647922
-1.652662
-1.658076
-1.664377
-1.671888
-1.681529
-1.693851
-1.709235
-1.627414
-1.630065
-1.632929
-1.636042
-1.639449
-1.643199
-1.647355
-1.652026
-1.657351
-1.663531
-1.67118
-1.680519
-1.69234
-1.706431
-1.624709
-1.627169
-1.629813
-1.632668
-1.63577
-1.639155
-1.642868
-1.646989
-1.651615
-1.656882
-1.663233
-1.670729
-1.679879
-1.691346
-1.704579
-1.622293
-1.624595
-1.627057
-1.629702
-1.632559
-1.635653
-1.639021
-1.642722
-1.646827
-1.651434
-1.656882
-1.663158
-1.670586
-1.679627
-1.690892
-1.704846
-1.693719
-1.708548
-1.683726
-1.696233
-1.71268
-1.675229
-1.68517
-1.698213
-1.715969
-1.667895
-1.676
-1.686157
-1.699573
-1.718249
-1.661502
-1.668285
-1.67649
-1.686796
-1.700472
-1.719703
-1.655864
-1.661663
-1.668495
-1.67677
-1.687183
-1.700997
-1.720516
-1.650828
-1.655871
-1.661693
-1.668556
-1.676877
-1.687328
-1.701182
-1.720866
-1.646268
-1.650712
-1.655761
-1.661591
-1.668467
-1.676782
-1.687206
-1.701057
-1.720739
-1.642078
-1.646037
-1.650475
-1.655515
-1.661335
-1.668178
-1.676432
-1.686794
-1.700548
-1.71998
-1.638167
-1.641722
-1.645663
-1.650079
-1.655092
-1.660859
-1.667617
-1.675773
-1.685992
-1.699502
-1.719573
-1.634464
-1.637677
-1.641204
-1.645111
-1.649484
-1.654427
-1.660093
-1.66673
-1.674717
-1.684682
-1.698419
-1.717831
-1.630962
-1.633882
-1.637061
-1.640547
-1.644404
-1.648701
-1.653538
-1.659078
-1.665546
-1.673294
-1.683323
-1.696412
-1.713909
-1.627783
-1.630459
-1.633353
-1.6365
-1.639948
-1.643747
-1.647964
-1.65271
-1.658132
-1.664443
-1.672282
-1.681926
-1.69432
-1.709846
-1.62494
-1.627416
-1.630077
-1.632952
-1.636077
-1.639489
-1.643235
-1.647397
-1.652073
-1.657405
-1.663845
-1.671468
-1.680817
-1.692648
-1.706745
-1.622402
-1.624711
-1.62718
-1.629834
-1.6327
-1.635806
-1.639187
-1.642905
-1.64703
-1.651662
-1.657144
-1.663463
-1.670953
-1.68009
-1.691531
-1.620126
-1.622295
-1.624605
-1.627076
-1.629731
-1.632591
-1.635683
-1.639053
-1.642758
-1.646867
-1.651658
-1.657073
-1.663337
-1.670748
-1.679759
-1.702075
-1.691422
-1.704913
-1.681883
-1.693765
-1.708695
-1.674086
-1.683757
-1.696333
-1.712931
-1.66726
-1.67525
-1.685239
-1.69837
-1.716332
-1.661175
-1.66791
-1.67605
-1.686264
-1.699787
-1.718636
-1.655729
-1.661512
-1.668322
-1.676568
-1.68694
-1.700689
-1.720045
-1.650828
-1.655871
-1.661693
-1.668556
-1.676877
-1.687328
-1.701182
-1.720866
-1.646377
-1.650833
-1.655895
-1.661742
-1.66864
-1.676984
-1.687449
-1.701368
-1.72122
-1.642293
-1.646272
-1.650733
-1.655803
-1.66166
-1.668552
-1.676871
-1.687329
-1.701243
-1.721091
-1.638498
-1.642081
-1.646055
-1.650511
-1.655574
-1.661406
-1.668249
-1.676522
-1.686917
-1.700733
-1.72167
-1.634921
-1.638169
-1.641739
-1.645696
-1.65013
-1.655152
-1.660918
-1.667689
-1.675864
-1.686116
-1.700396
-1.721349
-1.631507
-1.634466
-1.637692
-1.641233
-1.645156
-1.649536
-1.654478
-1.660152
-1.666803
-1.674808
-1.685273
-1.699311
-1.719871
-1.628256
-1.630965
-1.633896
-1.637087
-1.640587
-1.644449
-1.648743
-1.653587
-1.659135
-1.665615
-1.673709
-1.683787
-1.697053
-1.714973
-1.625287
-1.627785
-1.630471
-1.633375
-1.636535
-1.639988
-1.643784
-1.648005
-1.652758
-1.658188
-1.664764
-1.672586
-1.682257
-1.694687
-1.710271
-1.622621
-1.624942
-1.627427
-1.630097
-1.632984
-1.636113
-1.639522
-1.643272
-1.647438
-1.65212
-1.657669
-1.664078
-1.671698
-1.681037
-1.692845
-1.620229
-1.622404
-1.62472
-1.627199
-1.629863
-1.632733
-1.635836
-1.63922
-1.642941
-1.647071
-1.651886
-1.657334
-1.663642
-1.671116
-1.680224
-1.618078
-1.620128
-1.622304
-1.624622
-1.627103
-1.629761
-1.632618
-1.635712
-1.639086
-1.642794
-1.647063
-1.651818
-1.657221
-1.663466
-1.670849
-1.700251
-1.68964
-1.702135
-1.680165
-1.691465
-1.705042
-1.672604
-1.681914
-1.693857
-1.708912
-1.6663
-1.674107
-1.683824
-1.696482
-1.71326
-1.660625
-1.667275
-1.6753
-1.685344
-1.698577
-1.716696
-1.65544
-1.661185
-1.667948
-1.676128
-1.686407
-1.700001
-1.718966
-1.650707
-1.655737
-1.661542
-1.668383
-1.676675
-1.687085
-1.700873
-1.72039
-1.646377
-1.650833
-1.655895
-1.661742
-1.66864
-1.676984
-1.687449
-1.701368
-1.72122
-1.642394
-1.646381
-1.650853
-1.655937
-1.661811
-1.668725
-1.677073
-1.687572
-1.701555
-1.721577
-1.638697
-1.642296
-1.64629
-1.650769
-1.655861
-1.66173
-1.668623
-1.676962
-1.687452
-1.70143
-1.722829
-1.635229
-1.638501
-1.642097
-1.646087
-1.650562
-1.655634
-1.661464
-1.668321
-1.676614
-1.68704
-1.701643
-1.723466
-1.631934
-1.634923
-1.638184
-1.641767
-1.645741
-1.650183
-1.655202
-1.660977
-1.667762
-1.675957
-1.686721
-1.701317
-1.723484
-1.628766
-1.631509
-1.634479
-1.637717
-1.641274
-1.645203
-1.64958
-1.654529
-1.660213
-1.666876
-1.675256
-1.685879
-1.70038
-1.722511
-1.625732
-1.628258
-1.630977
-1.633919
-1.637123
-1.640628
-1.644487
-1.648786
-1.653636
-1.659192
-1.66595
-1.674059
-1.684226
-1.69763
-1.715827
-1.622948
-1.625289
-1.627795
-1.630492
-1.633408
-1.636572
-1.640021
-1.643821
-1.648047
-1.652805
-1.658456
-1.665006
-1.672837
-1.68251
-1.694928
-1.620436
-1.622622
-1.624952
-1.627446
-1.630127
-1.633017
-1.636143
-1.639555
-1.643308
-1.647479
-1.652346
-1.657861
-1.664261
-1.671865
-1.681174
-1.618175
-1.62023
-1.622413
-1.624738
-1.627226
-1.629893
-1.63276
-1.635865
-1.639252
-1.642977
-1.647267
-1.652047
-1.657482
-1.663772
-1.671216
-1.616135
-1.618079
-1.620136
-1.62232
-1.624647
-1.627131
-1.629786
-1.632645
-1.635741
-1.639118
-1.642967
-1.647201
-1.651942
-1.657325
-1.663545
-1.699354
-1.688455
-1.700308
-1.678828
-1.689681
-1.702254
-1.671222
-1.680194
-1.691552
-1.705234
-1.66506
-1.672626
-1.681978
-1.693995
-1.709196
-1.659798
-1.666316
-1.674157
-1.683928
-1.696681
-1.713591
-1.654956
-1.660636
-1.667314
-1.675378
-1.685486
-1.698786
-1.717007
-1.650448
-1.655448
-1.661216
-1.668009
-1.676235
-1.686551
-1.700182
-1.7193
-1.646268
-1.650712
-1.655761
-1.661591
-1.668467
-1.676782
-1.687206
-1.701057
-1.720739
-1.642394
-1.646381
-1.650853
-1.655937
-1.661811
-1.668725
-1.677073
-1.687572
-1.701555
-1.721577
-1.63879
-1.642397
-1.646399
-1.650889
-1.655995
-1.661881
-1.668795
-1.677163
-1.687695
-1.701743
-1.723339
-1.635415
-1.6387
-1.642312
-1.646321
-1.650819
-1.65592
-1.661788
-1.668693
-1.677052
-1.687575
-1.702348
-1.724628
-1.632222
-1.635231
-1.638515
-1.642125
-1.646132
-1.650614
-1.655683
-1.661523
-1.668393
-1.676705
-1.687647
-1.702542
-1.725527
-1.629167
-1.631935
-1.634936
-1.638209
-1.641807
-1.645787
-1.650226
-1.655253
-1.661038
-1.667836
-1.67641
-1.687331
-1.702385
-1.72604
-1.626212
-1.628768
-1.631521
-1.634503
-1.637754
-1.641315
-1.645242
-1.649624
-1.65458
-1.660273
-1.667235
-1.675709
-1.6866
-1.701708
-1.72614
-1.623368
-1.625734
-1.628269
-1.630997
-1.633951
-1.637159
-1.640661
-1.644524
-1.648829
-1.653685
-1.659471
-1.666227
-1.674387
-1.684611
-1.698064
-1.620745
-1.622949
-1.625298
-1.627814
-1.630521
-1.633441
-1.636601
-1.640054
-1.643857
-1.648088
-1.653035
-1.658655
-1.665204
-1.673025
-1.682668
-1.618371
-1.620437
-1.622631
-1.624969
-1.627473
-1.630157
-1.633044
-1.636172
-1.639587
-1.643344
-1.647676
-1.652508
-1.658011
-1.664392
-1.671966
-1.616228
-1.618176
-1.620239
-1.622429
-1.624763
-1.627254
-1.629917
-1.632786
-1.635894
-1.639284
-1.64315
-1.647404
-1.65217
-1.657586
-1.663849
-1.614287
-1.616136
-1.618086
-1.620151
-1.622343
-1.624673
-1.627153
-1.62981
-1.632671
-1.63577
-1.639272
-1.643085
-1.647305
-1.652028
-1.657387
-1.687869
-1.69941
-1.677937
-1.688495
-1.700421
-1.670145
-1.678857
-1.689764
-1.70243
-1.663903
-1.671244
-1.680257
-1.691681
-1.705486
-1.658732
-1.665076
-1.672675
-1.682077
-1.694179
-1.709482
-1.654228
-1.65981
-1.666355
-1.674235
-1.684066
-1.69688
-1.713873
-1.650014
-1.654964
-1.660667
-1.667375
-1.675484
-1.685629
-1.698962
-1.717323
-1.646033
-1.650454
-1.655473
-1.661266
-1.668093
-1.676342
-1.686672
-1.700364
-1.719638
-1.642293
-1.646272
-1.650733
-1.655803
-1.66166
-1.668552
-1.676871
-1.687329
-1.701243
-1.721091
-1.63879
-1.642397
-1.646399
-1.650889
-1.655995
-1.661881
-1.668795
-1.677163
-1.687695
-1.701743
-1.723339
-1.635501
-1.638793
-1.642412
-1.64643
-1.650939
-1.656054
-1.661938
-1.668866
-1.677254
-1.687819
-1.702665
-1.725139
-1.632396
-1.635416
-1.638713
-1.64234
-1.646365
-1.650871
-1.655969
-1.661846
-1.668765
-1.677144
-1.688181
-1.703231
-1.726632
-1.629438
-1.632223
-1.635243
-1.638539
-1.642165
-1.646177
-1.650656
-1.655733
-1.661582
-1.668465
-1.677155
-1.688231
-1.703541
-1.727874
-1.62659
-1.629168
-1.631947
-1.634959
-1.638246
-1.641849
-1.645825
-1.65027
-1.655304
-1.661098
-1.668196
-1.67686
-1.688038
-1.703615
-1.729082
-1.623821
-1.626213
-1.628778
-1.631542
-1.634536
-1.637792
-1.64135
-1.645281
-1.649669
-1.654632
-1.660571
-1.667593
-1.676249
-1.68749
-1.703456
-1.732864
-1.621143
-1.623369
-1.625743
-1.628288
-1.631027
-1.633985
-1.63719
-1.640695
-1.644562
-1.648871
-1.653923
-1.659698
-1.666484
-1.67467
-1.684889
-1.618665
-1.620746
-1.622958
-1.625316
-1.627842
-1.630551
-1.633468
-1.636631
-1.640087
-1.643894
-1.648288
-1.653202
-1.658816
-1.66535
-1.673138
-1.616414
-1.618372
-1.620445
-1.622647
-1.624994
-1.6275
-1.630181
-1.63307
-1.636202
-1.639619
-1.643519
-1.647813
-1.652632
-1.658116
-1.664469
-1.614376
-1.616228
-1.618184
-1.620254
-1.622452
-1.624788
-1.627276
-1.629942
-1.632813
-1.635923
-1.639439
-1.643268
-1.647508
-1.652256
-1.657647
-1.612525
-1.614288
-1.616143
-1.6181
-1.620172
-1.622367
-1.624694
-1.627176
-1.629834
-1.632698
-1.635909
-1.639376
-1.643174
-1.647376
-1.652076
-1.677495
-1.687908
-1.69952
-1.669426
-1.677966
-1.688576
-1.700587
-1.663001
-1.670167
-1.678918
-1.689888
-1.702661
-1.657737
-1.66392
-1.671291
-1.680351
-1.691853
-1.705739
-1.653293
-1.658744
-1.665115
-1.67275
-1.682208
-1.694363
-1.709723
-1.649365
-1.654238
-1.659841
-1.666417
-1.674341
-1.684206
-1.697049
-1.714159
-1.64564
-1.65002
-1.65499
-1.660718
-1.66746
-1.675592
-1.685749
-1.699141
-1.717643
-1.642078
-1.646037
-1.650475
-1.655515
-1.661335
-1.668178
-1.676432
-1.686794
-1.700548
-1.71998
-1.638697
-1.642296
-1.64629
-1.650769
-1.655861
-1.66173
-1.668623
-1.676962
-1.687452
-1.70143
-1.722829
-1.635501
-1.638793
-1.642412
-1.64643
-1.650939
-1.656054
-1.661938
-1.668866
-1.677254
-1.687819
-1.702665
-1.725139
-1.632477
-1.635503
-1.638806
-1.64244
-1.646474
-1.65099
-1.656102
-1.661996
-1.668937
-1.677345
-1.688424
-1.703541
-1.727119
-1.629601
-1.632397
-1.635428
-1.638738
-1.642379
-1.64641
-1.650913
-1.656019
-1.661905
-1.668837
-1.677589
-1.688747
-1.704186
-1.728856
-1.626846
-1.629439
-1.632234
-1.635266
-1.638575
-1.642205
-1.646215
-1.6507
-1.655783
-1.661642
-1.66882
-1.67758
-1.688881
-1.704639
-1.730519
-1.624179
-1.626591
-1.629178
-1.631968
-1.634992
-1.638283
-1.641883
-1.645864
-1.650315
-1.655356
-1.661395
-1.668549
-1.677383
-1.688849
-1.70502
-1.733478
-1.621573
-1.623822
-1.626223
-1.628798
-1.631572
-1.63457
-1.637822
-1.641384
-1.64532
-1.649714
-1.654885
-1.660865
-1.668021
-1.676915
-1.688655
-1.706517
-1.736999
-1.619043
-1.621144
-1.623377
-1.625761
-1.628315
-1.631058
-1.634012
-1.63722
-1.640729
-1.644599
-1.649078
-1.654113
-1.659907
-1.666704
-1.674867
-1.616694
-1.618666
-1.620754
-1.622974
-1.625341
-1.627869
-1.630576
-1.633495
-1.636661
-1.640119
-1.64407
-1.64843
-1.653335
-1.658931
-1.665433
-1.614553
-1.616415
-1.61838
-1.62046
-1.62267
-1.62502
-1.627523
-1.630206
-1.633097
-1.636231
-1.639775
-1.643637
-1.647918
-1.652717
-1.658174
-1.61261
-1.614376
-1.616235
-1.618198
-1.620275
-1.622476
-1.624809
-1.627299
-1.629966
-1.632839
-1.636063
-1.639542
-1.643357
-1.647578
-1.652303
-1.610842
-1.612526
-1.614294
-1.616156
-1.61812
-1.620195
-1.622386
-1.624715
-1.627198
-1.629859
-1.632824
-1.636
-1.639452
-1.643234
-1.647414
-1.669069
-1.677524
-1.687988
-1.699682
-1.662398
-1.669448
-1.678025
-1.688696
-1.700807
-1.656961
-1.663018
-1.670214
-1.679009
-1.690051
-1.702893
-1.652421
-1.65775
-1.663958
-1.671364
-1.680476
-1.692025
-1.705951
-1.648532
-1.653303
-1.658776
-1.665175
-1.672851
-1.68234
-1.694517
-1.709966
-1.645053
-1.649372
-1.654264
-1.659892
-1.666501
-1.674447
-1.684323
-1.697219
-1.714449
-1.641719
-1.645645
-1.650042
-1.655032
-1.660788
-1.667546
-1.675682
-1.68587
-1.699321
-1.717967
-1.638498
-1.642081
-1.646055
-1.650511
-1.655574
-1.661406
-1.668249
-1.676522
-1.686917
-1.700733
-1.72167
-1.635415
-1.6387
-1.642312
-1.646321
-1.650819
-1.65592
-1.661788
-1.668693
-1.677052
-1.687575
-1.702348
-1.724628
-1.632477
-1.635503
-1.638806
-1.64244
-1.646474
-1.65099
-1.656102
-1.661996
-1.668937
-1.677345
-1.688424
-1.703541
-1.727119
-1.629678
-1.632478
-1.635515
-1.638831
-1.642479
-1.646519
-1.651032
-1.656151
-1.662054
-1.669008
-1.677789
-1.688982
-1.704476
-1.729293
-1.627
-1.629602
-1.632408
-1.635451
-1.638773
-1.642419
-1.646448
-1.650956
-1.656068
-1.661964
-1.669187
-1.677997
-1.68936
-1.705209
-1.731311
-1.624421
-1.626846
-1.629449
-1.632255
-1.635299
-1.638612
-1.642239
-1.646253
-1.650743
-1.655834
-1.661933
-1.669151
-1.678056
-1.689595
-1.705829
-1.734173
-1.621912
-1.624179
-1.6266
-1.629197
-1.631998
-1.635026
-1.638313
-1.641917
-1.645903
-1.650359
-1.655608
-1.661684
-1.668961
-1.677984
-1.689772
-1.706954
-1.736991
-1.619452
-1.621574
-1.623831
-1.626241
-1.628826
-1.631603
-1.634598
-1.637854
-1.641419
-1.645359
-1.649933
-1.655132
-1.661217
-1.66855
-1.677785
-1.690657
-1.708417
-1.740244
-1.617053
-1.619043
-1.621152
-1.623394
-1.625786
-1.628343
-1.631083
-1.634039
-1.63725
-1.640762
-1.644781
-1.649239
-1.654286
-1.660083
-1.666851
-1.61482
-1.616694
-1.618673
-1.620769
-1.622997
-1.625367
-1.627892
-1.630601
-1.633521
-1.63669
-1.640276
-1.644192
-1.648541
-1.653428
-1.658994
-1.61278
-1.614554
-1.616422
-1.618394
-1.620482
-1.622694
-1.625041
-1.627546
-1.63023
-1.633123
-1.63637
-1.639877
-1.643725
-1.647987
-1.652762
-1.610923
-1.61261
-1.614382
-1.616248
-1.618218
-1.620298
-1.622495
-1.62483
-1.627321
-1.62999
-1.632966
-1.636153
-1.639618
-1.643415
-1.647615
-1.609229
-1.610842
-1.612532
-1.614306
-1.616175
-1.618141
-1.620213
-1.622406
-1.624735
-1.62722
-1.629974
-1.632904
-1.636066
-1.639502
-1.643263
-1.662098
-1.669091
-1.677583
-1.688106
-1.699897
-1.656442
-1.662415
-1.669494
-1.678115
-1.688854
-1.701027
-1.65174
-1.656974
-1.663055
-1.670285
-1.67913
-1.690215
-1.703089
-1.647755
-1.652431
-1.657781
-1.664017
-1.671462
-1.680602
-1.692169
-1.706164
-1.644301
-1.64854
-1.653329
-1.658826
-1.665257
-1.672953
-1.68245
-1.694673
-1.71021
-1.641183
-1.645059
-1.649395
-1.654307
-1.659962
-1.666586
-1.674536
-1.684442
-1.697391
-1.714743
-1.638167
-1.641722
-1.645663
-1.650079
-1.655092
-1.660859
-1.667617
-1.675773
-1.685992
-1.699502
-1.719573
-1.635229
-1.638501
-1.642097
-1.646087
-1.650562
-1.655634
-1.661464
-1.668321
-1.676614
-1.68704
-1.701643
-1.723466
-1.632396
-1.635416
-1.638713
-1.64234
-1.646365
-1.650871
-1.655969
-1.661846
-1.668765
-1.677144
-1.688181
-1.703231
-1.726632
-1.629678
-1.632478
-1.635515
-1.638831
-1.642479
-1.646519
-1.651032
-1.656151
-1.662054
-1.669008
-1.677789
-1.688982
-1.704476
-1.729293
-1.627073
-1.629679
-1.632489
-1.635537
-1.638866
-1.642519
-1.646556
-1.651075
-1.656201
-1.662113
-1.669356
-1.678189
-1.689579
-1.705469
-1.731672
-1.624568
-1.627001
-1.629612
-1.632428
-1.635483
-1.63881
-1.642452
-1.646485
-1.650998
-1.656118
-1.662251
-1.669502
-1.678442
-1.690019
-1.706296
-1.734666
-1.622143
-1.624421
-1.626855
-1.629467
-1.632285
-1.635332
-1.638642
-1.642273
-1.646291
-1.650787
-1.65608
-1.662202
-1.669523
-1.67858
-1.690368
-1.7074
-1.737252
-1.619775
-1.621913
-1.624187
-1.626618
-1.629225
-1.632029
-1.635054
-1.638344
-1.641952
-1.645942
-1.650577
-1.65585
-1.662022
-1.669435
-1.678667
-1.691018
-1.708571
-1.740037
-1.617443
-1.619452
-1.621582
-1.623847
-1.626267
-1.628854
-1.631629
-1.634627
-1.637885
-1.641455
-1.645553
-1.650146
-1.65543
-1.661654
-1.669242
-1.679265
-1.691879
-1.709958
-1.742882
-1.615163
-1.617054
-1.619051
-1.621167
-1.623417
-1.625812
-1.628366
-1.631108
-1.634067
-1.63728
-1.640924
-1.64492
-1.649385
-1.65443
-1.660195
-1.613034
-1.61482
-1.616701
-1.618687
-1.620791
-1.623021
-1.625388
-1.627915
-1.630625
-1.633548
-1.636831
-1.640382
-1.644286
-1.648617
-1.653475
-1.611085
-1.61278
-1.61456
-1.616435
-1.618414
-1.620504
-1.622714
-1.625062
-1.627568
-1.630254
-1.63325
-1.63646
-1.639953
-1.643783
-1.648022
-1.609307
-1.610923
-1.612616
-1.614395
-1.616267
-1.618239
-1.620316
-1.622514
-1.624851
-1.627343
-1.630106
-1.633045
-1.636218
-1.639667
-1.643443
-1.607682
-1.609229
-1.610848
-1.612543
-1.614324
-1.616194
-1.618158
-1.620231
-1.622425
-1.624756
-1.627326
-1.630045
-1.632962
-1.636108
-1.639524
-1.656184
-1.662115
-1.669137
-1.677671
-1.688262
-1.700111
-1.651284
-1.656455
-1.662452
-1.669564
-1.678233
-1.689013
-1.701212
-1.647148
-1.65175
-1.657005
-1.663113
-1.67038
-1.679252
-1.690353
-1.703283
-1.6436
-1.647763
-1.652457
-1.65783
-1.664096
-1.67156
-1.680708
-1.692313
-1.706377
-1.640497
-1.644308
-1.648562
-1.653372
-1.658894
-1.665339
-1.673038
-1.682561
-1.694828
-1.710456
-1.637673
-1.641187
-1.645078
-1.649432
-1.654367
-1.660033
-1.666658
-1.674626
-1.684561
-1.697565
-1.716197
-1.634921
-1.638169
-1.641739
-1.645696
-1.65013
-1.655152
-1.660918
-1.667689
-1.675864
-1.686116
-1.700396
-1.721349
-1.632222
-1.635231
-1.638515
-1.642125
-1.646132
-1.650614
-1.655683
-1.661523
-1.668393
-1.676705
-1.687647
-1.702542
-1.725527
-1.629601
-1.632397
-1.635428
-1.638738
-1.642379
-1.64641
-1.650913
-1.656019
-1.661905
-1.668837
-1.677589
-1.688747
-1.704186
-1.728856
-1.627073
-1.629679
-1.632489
-1.635537
-1.638866
-1.642519
-1.646556
-1.651075
-1.656201
-1.662113
-1.669356
-1.678189
-1.689579
-1.705469
-1.731672
-1.624637
-1.627073
-1.629688
-1.632509
-1.635569
-1.638902
-1.642552
-1.646593
-1.651117
-1.65625
-1.662398
-1.669665
-1.678621
-1.690215
-1.706515
-1.734914
-1.622283
-1.624568
-1.62701
-1.62963
-1.632457
-1.635516
-1.638839
-1.642486
-1.646523
-1.651042
-1.656361
-1.662506
-1.669848
-1.678922
-1.690719
-1.707719
-1.737513
-1.619995
-1.622143
-1.624429
-1.626872
-1.629495
-1.632315
-1.635359
-1.638673
-1.642307
-1.646329
-1.651
-1.656306
-1.662506
-1.669934
-1.679147
-1.691366
-1.708821
-1.740069
-1.617752
-1.619775
-1.62192
-1.624204
-1.626643
-1.629254
-1.632054
-1.635082
-1.638376
-1.641987
-1.646134
-1.650785
-1.656135
-1.662412
-1.669976
-1.679577
-1.69204
-1.710025
-1.742618
-1.615536
-1.617443
-1.619459
-1.621597
-1.623871
-1.626293
-1.628878
-1.631655
-1.634655
-1.637917
-1.641627
-1.645737
-1.650402
-1.6558
-1.662226
-1.670409
-1.680159
-1.692866
-1.711246
-1.745033
-1.613363
-1.615163
-1.61706
-1.619065
-1.621189
-1.623441
-1.625833
-1.628389
-1.631133
-1.634094
-1.637425
-1.641044
-1.645045
-1.649505
-1.654518
-1.611329
-1.613035
-1.614826
-1.616714
-1.618707
-1.620813
-1.62304
-1.625409
-1.627937
-1.630649
-1.633676
-1.636923
-1.640462
-1.644348
-1.648652
-1.609463
-1.611085
-1.612786
-1.614572
-1.616454
-1.618435
-1.620522
-1.622733
-1.625082
-1.62759
-1.63037
-1.633329
-1.636525
-1.64
-1.643808
-1.607756
-1.609307
-1.610928
-1.612628
-1.614413
-1.616287
-1.618256
-1.620334
-1.622534
-1.624871
-1.627449
-1.630176
-1.633102
-1.636259
-1.639687
-1.606194
-1.607682
-1.609234
-1.610858
-1.61256
-1.614343
-1.61621
-1.618175
-1.620249
-1.622444
-1.624854
-1.62739
-1.630096
-1.632996
-1.636124
-1.651057
-1.656197
-1.662152
-1.669206
-1.677789
-1.688419
-1.700292
-1.646742
-1.651295
-1.656486
-1.662509
-1.669658
-1.678353
-1.689147
-1.701397
-1.643053
-1.647156
-1.651776
-1.657053
-1.663191
-1.670476
-1.679355
-1.69049
-1.703477
-1.639858
-1.643607
-1.647785
-1.652499
-1.657897
-1.664176
-1.671643
-1.680813
-1.692457
-1.706589
-1.637043
-1.640502
-1.644327
-1.648599
-1.65343
-1.658963
-1.665408
-1.673123
-1.682672
-1.694984
-1.711657
-1.634464
-1.637677
-1.641204
-1.645111
-1.649484
-1.654427
-1.660093
-1.66673
-1.674717
-1.684682
-1.698419
-1.717831
-1.631934
-1.634923
-1.638184
-1.641767
-1.645741
-1.650183
-1.655202
-1.660977
-1.667762
-1.675957
-1.686721
-1.701317
-1.723484
-1.629438
-1.632223
-1.635243
-1.638539
-1.642165
-1.646177
-1.650656
-1.655733
-1.661582
-1.668465
-1.677155
-1.688231
-1.703541
-1.727874
-1.627
-1.629602
-1.632408
-1.635451
-1.638773
-1.642419
-1.646448
-1.650956
-1.656068
-1.661964
-1.669187
-1.677997
-1.68936
-1.705209
-1.731311
-1.624637
-1.627073
-1.629688
-1.632509
-1.635569
-1.638902
-1.642552
-1.646593
-1.651117
-1.65625
-1.662398
-1.669665
-1.678621
-1.690215
-1.706515
-1.734914
-1.622349
-1.624637
-1.627082
-1.629707
-1.632538
-1.635602
-1.638932
-1.642585
-1.646631
-1.65116
-1.656491
-1.662647
-1.669999
-1.679081
-1.690885
-1.707882
-1.737662
-1.620129
-1.622283
-1.624576
-1.627027
-1.629657
-1.632487
-1.635543
-1.638869
-1.642519
-1.646561
-1.651251
-1.656574
-1.662788
-1.670223
-1.679432
-1.691614
-1.709034
-1.740172
-1.617963
-1.619995
-1.622151
-1.624445
-1.626898
-1.629523
-1.63234
-1.635387
-1.638703
-1.642341
-1.646517
-1.651193
-1.656561
-1.662842
-1.67038
-1.679867
-1.692251
-1.710177
-1.742546
-1.615832
-1.617752
-1.619782
-1.621935
-1.624228
-1.62667
-1.629277
-1.63208
-1.63511
-1.638407
-1.642158
-1.646315
-1.651031
-1.656465
-1.662857
-1.670686
-1.680312
-1.692959
-1.71129
-1.744768
-1.61372
-1.615536
-1.61745
-1.619474
-1.621619
-1.623896
-1.626315
-1.628902
-1.631681
-1.634684
-1.638072
-1.64179
-1.645961
-1.650722
-1.656287
-1.663185
-1.671109
-1.68088
-1.693687
-1.712316
-1.746759
-1.611644
-1.613363
-1.61517
-1.617073
-1.619085
-1.621211
-1.623461
-1.625855
-1.628412
-1.631158
-1.634225
-1.637531
-1.641152
-1.645145
-1.649573
-1.609697
-1.611329
-1.61304
-1.614839
-1.616733
-1.618728
-1.620831
-1.62306
-1.625429
-1.627959
-1.630766