/*--------------------------------*- C++ -*----------------------------------*\
| =========                 |                                                 |
| \\      /  F ield         | OpenFOAM: The Open Source CFD Toolbox           |
|  \\    /   O peration     | Version:  2306                                  |
|   \\  /    A nd           | Website:  www.openfoam.com                      |
|    \\/     M anipulation  |                                                 |
\*---------------------------------------------------------------------------*/
FoamFile
{
    version     2.0;
    format      ascii;
    arch        "LSB;label=32;scalar=64";
    class       volScalarField;
    location    "0.3/fuel";
    object      p;
}
// * * * * * * * * * * * * * * * * * * * * * * * * * * * * * * * * * * * * * //

dimensions      [1 -1 -2 0 0 0 0];

internalField   nonuniform List<scalar> 
16000
(
100523.1
100516.6
100431.5
100505.8
100504.9
100425
100499
100358.5
100417.3
100468.3
100484.2
100413
100486.8
100352.8
100410.6
100461
100304.1
100346.9
100386.5
100424.9
100464.7
100392.5
100465.4
100342
100398.3
100447.6
100299.1
100341
100379.5
100416.9
100263.4
100294.3
100321.5
100350.7
100334.8
100425.4
100371.6
100444.8
100323.9
100377.4
100424.5
100289.7
100330.1
100366.5
100402.3
100259
100289.2
100315.4
100343.4
100325.6
100231.8
100255
100272.9
100292
100276.6
100317.6
100417.8
100334.6
100404.3
100305.1
100355.9
100401.6
100274
100311.7
100344.6
100377.1
100250.7
100279.7
100304
100329.7
100308.3
100227.8
100250.5
100267.6
100285.6
100268.4
100308.1
100206.5
100224.4
100236.6
100248
100230.8
100262.4
100312.2
100411.6
100324.3
100395.9
100273.2
100318.4
100358.6
100257.5
100292.5
100321.9
100351.7
100236.9
100263.7
100285
100306.7
100279
100220.4
100242.1
100257.7
100273.8
100253.2
100290.3
100203
100220.4
100231.9
100242.6
100223.9
100254.1
100302.6
100185.9
100200
100208.3
100215.2
100196.3
100219.1
100257.9
100302.9
100410.4
100316.6
100389.1
100263.5
100307.6
100348.4
100230.1
100260.2
100283
100305.8
100222.3
100246.9
100265
100282.6
100248.2
100208.2
100228.2
100241.4
100254
100227.9
100260.3
100196.4
100213
100223.3
100232.3
100211
100238.6
100284.6
100182.7
100196.5
100204.2
100210.4
100190.5
100212.1
100249.6
100293.2
100168.7
100180.1
100185.8
100189.6
100170.7
100186.5
100215.4
100250.3
100295.2
100409.8
100314.1
100387.7
100256.4
100299.7
100340.5
100221.3
100250.2
100271.4
100293.4
100198.5
100219.3
100231.9
100242.1
100196.2
100195.3
100213.4
100224
100233.1
100200.9
100228.4
100185.5
100200.6
100209
100215.4
100189.8
100212.9
100254.3
100176.7
100189.8
100196.6
100201.5
100179.5
100199
100234
100274.9
100165.8
100176.9
100182.1
100185.4
100165.6
100180.6
100208.4
100241.9
100285.4
100154.1
100163.5
100167.4
100169.2
100150.7
100162.1
100183.3
100209.1
100243.9
100285.6
100409.8
100313
100386.9
100253.9
100297.1
100338.4
100215
100243
100263
100284.3
100190.7
100210.4
100221.4
100229.5
100179.5
100174.3
100189.4
100195.8
100199
100157.3
100175.3
100173.8
100187.5
100193.8
100197.4
100167
100185.3
100222.1
100166.9
100178.8
100184
100186.8
100161.5
100177.5
100208.1
100244.2
100160.4
100170.8
100175.3
100177.5
100156.1
100169.4
100195.2
100226.1
100266.9
100151.5
100160.6
100164.1
100165.5
100146.3
100157.1
100177.4
100202.1
100235.5
100275.6
100141.6
100149.4
100152
100152.6
100134.8
100143.2
100159.4
100178
100203.9
100236
100261.2
100410.4
100313
100386.9
100252.7
100295.9
100337.5
100212.7
100240.4
100260.1
100281.5
100185.1
100204
100213.8
100220.4
100167.7
100167.3
100181.5
100186.5
100187.9
100142.5
100157.8
100155.2
100166.4
100169.4
100168.5
100130.8
100141.1
100168.5
100156.4
100167
100170.5
100171.1
100142.2
100154.4
100180.4
100211.5
100151.4
100160.9
100164.1
100164.6
100140.6
100151.2
100173.6
100200
100235.8
100146.5
100155.1
100157.9
100158.5
100138
100147.5
100166.2
100188.8
100219.6
100256.8
100139.2
100146.7
100149
100149.2
100130.9
100138.8
100154.3
100172.1
100196.8
100227.5
100250.9
100130.8
100137.3
100139
100138.7
100121.8
100128.2
100140.9
100154.9
100173.6
100197.4
100216
100266.9
100411.6
100314.1
100387.7
100252.7
100295.9
100337.5
100211.7
100239.2
100258.8
100280.3
100183
100201.6
100211
100217.2
100163.5
100162.3
100175.8
100179.9
100179.9
100132.2
100145.5
100148.9
100159.3
100161.2
100158.8
100118.4
100125.9
100150.8
100139.6
100148.3
100149.1
100146.2
100111.8
100117.8
100135.9
100157.2
100141.9
100150.3
100152.1
100150.8
100124
100131.7
100150.3
100172
100202.6
100138.3
100146.1
100147.8
100147
100124.4
100131.8
100148
100167
100193.3
100225.3
100134.6
100141.7
100143.5
100142.9
100123.5
100130.4
100144.7
100160.8
100183.4
100211.4
100231.4
100128.5
100134.9
100136.3
100135.7
100118.3
100124.3
100136.4
100149.7
100167.6
100190.2
100207.3
100256.7
100121.2
100126.8
100127.8
100126.9
100110.9
100115.9
100126.1
100136.9
100151.1
100168.1
100180.8
100220.7
100257.6
100417.8
100316.6
100389.1
100253.9
100297.1
100338.4
100211.7
100239.2
100258.8
100280.3
100182.1
100200.5
100209.8
100215.8
100161.7
100160.4
100173.7
100177.4
100177
100128.3
100141
100144.4
100154.2
100155.4
100151.9
100109.7
100115.4
100138.3
100133.9
100141.9
100141.8
100137.7
100101.3
100105.1
100120.6
100139
100126.8
100133.5
100133.1
100129
100097.9
100101
100113.6
100127.1
100147.7
100129.6
100136.4
100137
100134.7
100109.8
100115
100128.3
100143.5
100165
100191.5
100127.1
100133.5
100134.3
100132.6
100111.5
100116.7
100129
100142.4
100161.5
100184.8
100198.8
100124.3
100130.3
100131.2
100130
100111.7
100116.8
100128
100140.1
100156.3
100176.7
100190.8
100237.3
100119.2
100124.6
100125.3
100124.2
100107.8
100112.4
100122.2
100132.4
100145.9
100162.1
100173.6
100212
100247.1
100112.8
100117.6
100118.1
100116.8
100101.7
100105.6
100114
100122.6
100133.6
100146.3
100154.2
100184.7
100213
100255.6
100425.4
100324.3
100395.9
100256.4
100299.7
100340.5
100212.7
100240.4
100260.1
100281.5
100182.1
100200.5
100209.8
100215.8
100161.7
100159.5
100172.7
100176.3
100175.7
100126.6
100139
100142.6
100152.3
100153.2
100149.4
100106.4
100111.4
100133.8
100129.8
100137.3
100136.6
100131.7
100093.9
100096.3
100110
100126.3
100121.5
100127.7
100126.5
100121.5
100088.9
100090.3
100100.9
100111.6
100129.2
100115.9
100121.2
100120
100115.4
100087.2
100088.7
100097.6
100106.6
100119.7
100135.7
100119.1
100124.7
100124.5
100121.6
100098.6
100102
100112.1
100122.6
100137.9
100156.2
100163.5
100117.4
100122.7
100122.9
100120.6
100101
100104.7
100114.3
100124.3
100137.8
100154.6
100163.6
100204.4
100115.3
100120.3
100120.7
100119
100101.8
100105.7
100114.7
100123.9
100136.2
100150.7
100159.8
100195.5
100227.3
100110.9
100115.5
100115.8
100114.3
100098.9
100102.5
100110.5
100118.6
100129
100141.1
100148.1
100177.4
100204.2
100245.1
100105.3
100109.4
100109.6
100108
100093.8
100096.9
100104
100110.9
100119.6
100129.4
100134.4
100157.4
100178.4
100211.4
100253.5
100464.7
100334.6
100404.3
100263.5
100307.6
100348.4
100215
100243
100263
100284.3
100183
100201.6
100211
100217.2
100163.5
100159.5
100172.7
100176.3
100175.7
100126.6
100139
100141.8
100151.4
100152.2
100148.2
100104.9
100109.6
100131.8
100128.3
100135.6
100134.7
100129.4
100091.1
100092.9
100105.9
100121.6
100117.8
100123.6
100121.9
100116.2
100082.5
100082.8
100092
100100.9
100116.2
100111.1
100116
100114.1
100108.7
100079.2
100079.5
100086.8
100093.7
100104.1
100116.8
100106.6
100110.9
100109.1
100104.3
100078.6
100079.2
100085.8
100091.7
100100.7
100110.5
100106.2
100110
100114.7
100113.9
100110.6
100089.4
100091.7
100099.5
100107.2
100117.9
100130.8
100134.2
100169
100108.9
100113.4
100113
100110.5
100092.2
100094.9
100102.6
100110.1
100120.3
100132.1
100137.3
100168.1
100193
100107.2
100111.6
100111.5
100109.5
100093.5
100096.5
100103.8
100111.1
100120.5
100131.4
100136.5
100163.7
100187.5
100225
100103.5
100107.5
100107.5
100105.7
100091.2
100094
100100.8
100107.3
100115.7
100124.9
100129.1
100151.3
100171
100202.5
100242.8
100098.5
100102.1
100102
100100.3
100086.9
100089.4
100095.4
100101.1
100108.2
100116
100118.9
100137.2
100152.1
100177.1
100209.7
100484.2
100371.6
100444.8
100273.2
100318.4
100358.6
100221.3
100250.2
100271.4
100293.4
100185.1
100204
100213.8
100220.4
100167.7
100160.4
100173.7
100177.4
100177
100128.3
100141
100141.8
100151.4
100152.2
100148.2
100104.9
100109.6
100131.8
100127.5
100134.8
100133.8
100128.4
100089.8
100091.4
100104.1
100119.6
100116.4
100122
100120.1
100114.2
100080.1
100080
100088.6
100096.8
100111.5
100107.7
100112.2
100109.9
100104
100073.7
100073.1
100079.3
100084.7
100093.3
100103.6
100102.2
100106.1
100103.8
100098.3
100071.6
100071.1
100076.5
100080.8
100087.7
100094.7
100086.1
100098.5
100102
100100
100095.1
100071.6
100071.6
100076.6
100080.8
100086.8
100093.2
100087.8
100107.8
100102
100105.9
100104.8
100101.4
100081.7
100083.3
100089.5
100095.3
100103.2
100112
100113
100138.5
100156.3
100101.3
100105.2
100104.5
100101.7
100084.7
100086.7
100093
100098.9
100106.7
100115.4
100117.6
100141
100159
100189.6
100100.1
100103.8
100103.5
100101.3
100086.2
100088.6
100094.7
100100.6
100108.1
100116.3
100119.2
100139.7
100157.1
100185.6
100222.6
100096.8
100100.3
100100.1
100098.1
100084.5
100086.8
100092.5
100097.9
100104.7
100112
100114.4
100131.9
100145.9
100169.7
100200.7
100092.3
100095.6
100095.3
100093.4
100080.8
100082.9
100088
100092.8
100098.7
100105
100106.7
100121.4
100132.6
100151
100175.6
100504.9
100392.5
100465.4
100305.1
100355.9
100401.6
100230.1
100260.2
100283
100305.8
100190.7
100210.4
100221.4
100229.5
100179.5
100162.3
100175.8
100179.9
100179.9
100132.2
100145.5
100142.6
100152.3
100153.2
100149.4
100106.4
100111.4
100133.8
100127.5
100134.8
100133.8
100128.4
100089.8
100091.4
100104.1
100119.6
100115.7
100121.3
100119.3
100113.2
100079
100078.7
100087.1
100095
100109.3
100106.4
100110.8
100108.3
100102.2
100071.5
100070.7
100076.4
100081.3
100089.1
100098.7
100099
100102.7
100100
100094
100066.7
100065.6
100070.1
100073.3
100078.7
100083.7
100072.2
100094.4
100097.6
100095.1
100089.6
100065.3
100064.5
100068.6
100071.5
100075.9
100080.1
100071.3
100089
100091.4
100094.3
100092.1
100087.2
100065.7
100065.4
100069.4
100072.3
100076.6
100080.6
100075
100088.9
100083.8
100095
100098.3
100096.9
100093.4
100075.2
100076.2
100081.3
100085.8
100091.8
100098.2
100097.1
100116.5
100128.5
100151.9
100094.6
100097.9
100097
100094.1
100078.2
100079.7
100085
100089.7
100095.9
100102.4
100103
100120.6
100133.6
100156.3
100185.8
100093.6
100096.9
100096.4
100094.1
100080
100081.8
100087
100091.9
100097.9
100104.4
100105.7
100122
100134.2
100155.6
100183.7
100090.8
100093.9
100093.4
100091.4
100078.6
100080.4
100085.4
100089.9
100095.5
100101.4
100102.7
100116.8
100127.3
100144.8
100168.2
100086.8
100089.6
100089.2
100087.3
100075.4
100077.1
100081.6
100085.7
100090.7
100095.8
100096.7
100108.9
100117.4
100131.6
100149.8
100516.6
100413
100486.8
100323.9
100377.4
100424.5
100257.5
100292.5
100321.9
100351.7
100198.5
100219.3
100231.9
100242.1
100196.2
100167.3
100181.5
100186.5
100187.9
100142.5
100157.8
100144.4
100154.2
100155.4
100151.9
100109.7
100115.4
100138.3
100128.3
100135.6
100134.7
100129.4
100091.1
100092.9
100105.9
100121.6
100115.7
100121.3
100119.3
100113.2
100079
100078.7
100087.1
100095
100109.3
100105.8
100110.1
100107.6
100101.3
100070.6
100069.6
100075.1
100079.8
100087.3
100096.5
100097.8
100101.3
100098.5
100092.4
100064.8
100063.4
100067.7
100070.4
100075.2
100079.5
100066.9
100091.5
100094.5
100091.6
100085.8
100060.9
100059.6
100063
100065.1
100068.3
100071.1
100060
100076.1
100087.6
100090.3
100087.6
100082.3
100060.1
100059
100062.2
100064.2
100067.3
100069.6
100061.5
100073.5
100067.6
100085.1
100087.6
100085.2
100080.5
100060.7
100060.1
100063.4
100065.6
100068.7
100071.4
100065.5
100075.9
100070.1
100067.3
100088.7
100091.5
100090
100086.5
100069.6
100070.2
100074.5
100078
100082.7
100087.4
100085.5
100100
100108.3
100125
100146.8
100088.5
100091.4
100090.3
100087.5
100072.6
100073.7
100078.2
100082.1
100087
100092.1
100091.6
100105.6
100114.4
100131.4
100153.2
100087.8
100090.7
100090
100087.6
100074.4
100075.9
100080.4
100084.4
100089.5
100094.6
100095
100108.1
100117.2
100132.9
100154
100085.3
100088.1
100087.5
100085.4
100073.3
100074.9
100079.2
100083
100087.7
100092.6
100093.1
100104.8
100112.8
100126.3
100143.5
100081.7
100084.2
100083.7
100081.7
100070.6
100072
100075.9
100079.4
100083.7
100088
100088.3
100098.6
100105.4
100116.6
100130.6
100523.1
100425
100499
100342
100398.3
100447.6
100274
100311.7
100344.6
100377.1
100222.3
100246.9
100265
100282.6
100248.2
100174.3
100189.4
100195.8
100199
100157.3
100175.3
100148.9
100159.3
100161.2
100158.8
100118.4
100125.9
100150.8
100129.8
100137.3
100136.6
100131.7
100093.9
100096.3
100110
100126.3
100116.4
100122
100120.1
100114.2
100080.1
100080
100088.6
100096.8
100111.5
100105.8
100110.1
100107.6
100101.3
100070.6
100069.6
100075.1
100079.8
100087.3
100096.5
100097.2
100100.7
100097.9
100091.6
100063.9
100062.4
100066.5
100069.1
100073.7
100077.7
100064.5
100090.4
100093.2
100090.3
100084.3
100059.2
100057.7
100060.8
100062.6
100065.4
100067.6
100055.6
100071.4
100084.9
100087.4
100084.4
100078.8
100056.1
100054.6
100057.3
100058.6
100060.8
100062.1
100052.3
100062.9
100056.6
100081.6
100083.8
100081.1
100076
100055.6
100054.4
100057
100058.4
100060.5
100062
100054.2
100063.2
100057
100054.4
100079.5
100081.6
100079.2
100074.6
100056.4
100055.7
100058.3
100060
100062.4
100064.1
100058.5
100066.2
100060.7
100057.1
100025.1
100083
100085.4
100083.9
100080.4
100064.7
100065
100068.6
100071.5
100075.2
100078.8
100076.4
100088
100093.3
100105.5
100120.9
100083
100085.5
100084.4
100081.5
100067.6
100068.5
100072.3
100075.5
100079.6
100083.6
100082.6
100093.9
100100.3
100112.6
100128.9
100082.5
100085.1
100084.3
100081.9
100069.5
100070.6
100074.6
100078
100082.2
100086.5
100086.2
100097.2
100104
100116.1
100131.6
100080.3
100082.8
100082.1
100080
100068.6
100069.9
100073.7
100077
100081
100085
100085.1
100095
100101.3
100111.9
100125.2
100077
100079.3
100078.6
100076.7
100066.2
100067.4
100070.9
100073.9
100077.6
100081.3
100081.2
100090.1
100095.5
100104.6
100115.7
100431.5
100505.8
100352.8
100410.6
100461
100289.7
100330.1
100366.5
100402.3
100236.9
100263.7
100285
100306.7
100279
100195.3
100213.4
100224
100233.1
100200.9
100228.4
100155.2
100166.4
100169.4
100168.5
100130.8
100141.1
100168.5
100133.9
100141.9
100141.8
100137.7
100101.3
100105.1
100120.6
100139
100117.8
100123.6
100121.9
100116.2
100082.5
100082.8
100092
100100.9
100116.2
100106.4
100110.8
100108.3
100102.2
100071.5
100070.7
100076.4
100081.3
100089.1
100098.7
100097.2
100100.7
100097.9
100091.6
100063.9
100062.4
100066.5
100069.1
100073.7
100077.7
100064.5
100089.9
100092.7
100089.7
100083.6
100058.5
100056.8
100059.8
100061.5
100064.1
100066.1
100053.7
100069.3
100083.9
100086.2
100083.2
100077.4
100054.6
100052.9
100055.4
100056.4
100058.3
100059.1
100048.7
100059
100052.8
100079.1
100081.1
100078.2
100072.8
100052
100050.5
100052.6
100053.5
100054.9
100055.5
100046.5
100054.6
100048.1
100045.8
100076.2
100078.1
100075.4
100070.5
100051.7
100050.5
100052.6
100053.6
100055.2
100056
100048.9
100055.6
100050
100046.8
100024.3
100074.4
100076.2
100073.9
100069.5
100052.6
100051.8
100054
100055.3
100057.1
100058.4
100053
100059.1
100053.7
100050.2
100024.1
100024.2
100077.8
100080
100078.4
100075
100060.3
100060.5
100063.6
100065.9
100069
100071.8
100069.2
100078.5
100082.2
100090.9
100102.2
100078
100080.3
100079
100076.2
100063.2
100063.8
100067.2
100069.9
100073.3
100076.6
100075.1
100084.6
100089.3
100098.7
100110.5
100077.7
100080
100079.1
100076.7
100065
100066
100069.5
100072.4
100076
100079.5
100078.9
100088.2
100093.5
100103.1
100115
100075.7
100077.9
100077.1
100075.1
100064.4
100065.4
100068.8
100071.7
100075.2
100078.6
100078.2
100086.8
100091.8
100100.5
100111
100072.6
100074.7
100074
100072.1
100062.2
100063.2
100066.3
100069
100072.3
100075.4
100075.1
100082.8
100087.2
100094.8
100103.8
100358.5
100417.3
100468.3
100299.1
100341
100379.5
100416.9
100250.7
100279.7
100304
100329.7
100308.3
100208.2
100228.2
100241.4
100254
100227.9
100260.3
100173.8
100187.5
100193.8
100197.4
100167
100185.3
100222.1
100139.6
100148.3
100149.1
100146.2
100111.8
100117.8
100135.9
100157.2
100121.5
100127.7
100126.5
100121.5
100088.9
100090.3
100100.9
100111.6
100129.2
100107.7
100112.2
100109.9
100104
100073.7
100073.1
100079.3
100084.7
100093.3
100103.6
100097.8
100101.3
100098.5
100092.4
100064.8
100063.4
100067.7
100070.4
100075.2
100079.5
100066.9
100089.9
100092.7
100089.7
100083.6
100058.5
100056.8
100059.8
100061.5
100064.1
100066.1
100053.7
100069.3
100083.4
100085.7
100082.6
100076.8
100053.9
100052.1
100054.5
100055.4
100057.2
100057.8
100047.1
100057.3
100051.1
100078.1
100080.1
100077
100071.5
100050.6
100048.9
100050.9
100051.5
100052.7
100053
100043.5
100051.3
100045
100043.2
100073.9
100075.6
100072.7
100067.5
100048.4
100046.9
100048.7
100049.2
100050.2
100050.3
100042.3
100048.4
100042.8
100039.9
100024.1
100071.4
100073
100070.3
100065.6
100048.3
100047
100048.8
100049.6
100050.8
100051.2
100044.7
100050.1
100044.7
100041.8
100023.6
100024.1
100069.8
100071.4
100069.1
100064.9
100049.2
100048.3
100050.3
100051.3
100052.8
100053.6
100048.6
100053.5
100048.5
100044.9
100023.7
100023.4
100024.2
100073.1
100075.1
100073.4
100070.1
100056.4
100056.5
100059.2
100061.1
100063.7
100065.9
100063.2
100071
100073.5
100080.2
100088.2
100073.4
100075.4
100074.2
100071.4
100059.2
100059.7
100062.6
100064.9
100067.9
100070.6
100068.9
100076.9
100080.5
100087.9
100097
100073.2
100075.3
100074.3
100072
100061
100061.8
100064.9
100067.4
100070.6
100073.5
100072.7
100080.7
100084.9
100092.7
100102
100071.4
100073.4
100072.6
100070.6
100060.5
100061.4
100064.4
100066.9
100070
100072.9
100072.4
100079.8
100083.9
100091.1
100099.7
100068.6
100070.5
100069.8
100067.9
100058.5
100059.4
100062.2
100064.6
100067.5
100070.2
100069.7
100076.5
100080.2
100086.6
100094.1
100304.1
100346.9
100386.5
100424.9
100259
100289.2
100315.4
100343.4
100325.6
100220.4
100242.1
100257.7
100273.8
100253.2
100290.3
100185.5
100200.6
100209
100215.4
100189.8
100212.9
100254.3
100156.4
100167
100170.5
100171.1
100142.2
100154.4
100180.4
100211.5
100126.8
100133.5
100133.1
100129
100097.9
100101
100113.6
100127.1
100147.7
100111.1
100116
100114.1
100108.7
100079.2
100079.5
100086.8
100093.7
100104.1
100116.8
100099
100102.7
100100
100094
100066.7
100065.6
100070.1
100073.3
100078.7
100083.7
100072.2
100090.4
100093.2
100090.3
100084.3
100059.2
100057.7
100060.8
100062.6
100065.4
100067.6
100055.6
100071.4
100083.4
100085.7
100082.6
100076.8
100053.9
100052.1
100054.5
100055.4
100057.2
100057.8
100047.1
100057.3
100051.1
100077.7
100079.6
100076.5
100070.9
100050
100048.2
100050.1
100050.7
100051.8
100051.9
100042.2
100049.9
100043.6
100042
100073
100074.6
100071.6
100066.4
100047.2
100045.5
100047.1
100047.5
100048.3
100048.2
100039.8
100045.7
100040.2
100037.7
100024.1
100069.2
100070.6
100067.8
100062.9
100045.3
100043.8
100045.3
100045.6
100046.3
100046.2
100039
100044
100038.7
100036.2
100023.4
100024
100067
100068.3
100065.8
100061.3
100045.2
100044
100045.6
100046.1
100047
100047.2
100041.3
100045.7
100040.9
100037.9
100023.2
100023.4
100024.1
100065.6
100067
100064.7
100060.7
100046.1
100045.3
100047
100047.8
100049
100049.6
100044.9
100049
100044.3
100041.1
100023
100023.1
100023.4
100024.1
100068.9
100070.5
100068.9
100065.7
100052.9
100052.9
100055.3
100056.9
100059.1
100060.9
100058.2
100064.9
100066.6
100071.8
100077.8
100069.2
100071
100069.7
100067.1
100055.6
100055.9
100058.6
100060.6
100063.1
100065.4
100063.6
100070.6
100073.3
100079.3
100086.4
100069.1
100071
100070
100067.8
100057.4
100058
100060.8
100063
100065.8
100068.3
100067.3
100074.2
100077.7
100084.2
100091.8
100067.5
100069.3
100068.5
100066.5
100057
100057.7
100060.4
100062.7
100065.4
100067.9
100067.2
100073.8
100077.2
100083.3
100090.4
100064.9
100066.6
100065.9
100064.1
100055.2
100055.9
100058.5
100060.6
100063.2
100065.6
100065
100071
100074.2
100079.7
100086
100263.4
100294.3
100321.5
100350.7
100334.8
100227.8
100250.5
100267.6
100285.6
100268.4
100308.1
100196.4
100213
100223.3
100232.3
100211
100238.6
100284.6
100166.9
100178.8
100184
100186.8
100161.5
100177.5
100208.1
100244.2
100141.9
100150.3
100152.1
100150.8
100124
100131.7
100150.3
100172
100202.6
100115.9
100121.2
100120
100115.4
100087.2
100088.7
100097.6
100106.6
100119.7
100135.7
100102.2
100106.1
100103.8
100098.3
100071.6
100071.1
100076.5
100080.8
100087.7
100094.7
100086.1
100091.5
100094.5
100091.6
100085.8
100060.9
100059.6
100063
100065.1
100068.3
100071.1
100060
100076.1
100083.9
100086.2
100083.2
100077.4
100054.6
100052.9
100055.4
100056.4
100058.3
100059.1
100048.7
100059
100052.8
100077.7
100079.6
100076.5
100070.9
100050
100048.2
100050.1
100050.7
100051.8
100051.9
100042.2
100049.9
100043.6
100042
100072.6
100074.2
100071.2
100065.8
100046.6
100044.9
100046.4
100046.7
100047.5
100047.2
100038.6
100044.5
100039.1
100036.8
100024.1
100068.4
100069.7
100066.8
100061.8
100044.1
100042.5
100043.9
100044.1
100044.6
100044.3
100036.7
100041.7
100036.6
100034.5
100023.4
100024
100065
100066.2
100063.5
100058.8
100042.5
100041
100042.3
100042.5
100043.1
100042.8
100036.3
100040.4
100035.7
100033.3
100023.1
100023.3
100024.1
100063
100064.2
100061.7
100057.4
100042.5
100041.3
100042.7
100043.1
100043.8
100043.8
100038.4
100042.2
100037.7
100035.1
100022.6
100023.1
100023.4
100024.1
100061.8
100063
100060.8
100057
100043.4
100042.5
100044
100044.7
100045.7
100046.1
100041.7
100045.3
100040.9
100037.9
100022.4
100022.5
100023.1
100023.4
100024.1
100064.9
100066.4
100064.8
100061.8
100049.7
100049.6
100051.8
100053.2
100055.1
100056.6
100053.9
100059.7
100060.9
100065.1
100069.7
100065.3
100066.9
100065.7
100063.1
100052.3
100052.6
100054.9
100056.7
100058.9
100060.8
100059.1
100065.1
100067.3
100072.3
100078
100065.3
100067
100066
100063.8
100054
100054.6
100057.1
100059.1
100061.5
100063.7
100062.6
100068.7
100071.6
100077
100083.4
100063.8
100065.5
100064.6
100062.7
100053.7
100054.3
100056.8
100058.8
100061.3
100063.5
100062.7
100068.6
100071.4
100076.7
100082.6
100061.4
100063
100062.3
100060.5
100052.1
100052.7
100055.1
100057
100059.3
100061.4
100060.7
100066.2
100068.9
100073.7
100079.1
100231.8
100255
100272.9
100292
100276.6
100317.6
100203
100220.4
100231.9
100242.6
100223.9
100254.1
100302.6
100176.7
100189.8
100196.6
100201.5
100179.5
100199
100234
100274.9
100151.4
100160.9
100164.1
100164.6
100140.6
100151.2
100173.6
100200
100235.8
100129.6
100136.4
100137
100134.7
100109.8
100115
100128.3
100143.5
100165
100191.5
100106.6
100110.9
100109.1
100104.3
100078.6
100079.2
100085.8
100091.7
100100.7
100110.5
100106.2
100094.4
100097.6
100095.1
100089.6
100065.3
100064.5
100068.6
100071.5
100075.9
100080.1
100071.3
100089
100084.9
100087.4
100084.4
100078.8
100056.1
100054.6
100057.3
100058.6
100060.8
100062.1
100052.3
100062.9
100056.6
100078.1
100080.1
100077
100071.5
100050.6
100048.9
100050.9
100051.5
100052.7
100053
100043.5
100051.3
100045
100043.2
100072.6
100074.2
100071.2
100065.8
100046.6
100044.9
100046.4
100046.7
100047.5
100047.2
100038.6
100044.5
100039.1
100036.8
100024.1
100068
100069.3
100066.4
100061.3
100043.6
100041.9
100043.2
100043.4
100043.9
100043.4
100035.8
100040.6
100035.6
100033.7
100023.4
100024
100064.2
100065.3
100062.5
100057.8
100041.4
100039.8
100041
100041.1
100041.5
100041.1
100034.3
100038.4
100033.9
100031.8
100023.1
100023.3
100024.1
100061.1
100062.1
100059.5
100055.1
100039.9
100038.5
100039.7
100039.8
100040.2
100039.9
100033.9
100037.5
100033.2
100031.1
100022.5
100023
100023.4
100024.1
100059.3
100060.3
100057.9
100053.9
100040
100038.9
100040.1
100040.4
100041
100040.9
100035.9
100039.2
100035.2
100032.7
100022.1
100022.4
100023.1
100023.4
100024.1
100058.3
100059.4
100057.2
100053.6
100040.8
100040
100041.4
100041.9
100042.8
100043.1
100039
100042.1
100038.1
100035.3
100021.8
100022
100022.5
100023.1
100023.4
100024.1
100061.2
100062.6
100061
100058.1
100046.8
100046.7
100048.6
100049.9
100051.5
100052.7
100050.2
100055.3
100056.2
100059.6
100063.3
100061.7
100063.2
100061.9
100059.5
100049.3
100049.5
100051.6
100053.2
100055.1
100056.8
100055
100060.4
100062.2
100066.4
100071.1
100061.7
100063.3
100062.3
100060.2
100050.9
100051.4
100053.7
100055.5
100057.6
100059.5
100058.4
100063.9
100066.3
100071
100076.3
100060.3
100061.9
100061.1
100059.2
100050.7
100051.2
100053.5
100055.3
100057.5
100059.5
100058.6
100063.9
100066.4
100070.9
100076.1
100058.1
100059.6
100058.9
100057.1
100049.2
100049.8
100051.9
100053.7
100055.8
100057.7
100056.9
100061.9
100064.2
100068.4
100073.1
100206.5
100224.4
100236.6
100248
100230.8
100262.4
100312.2
100182.7
100196.5
100204.2
100210.4
100190.5
100212.1
100249.6
100293.2
100160.4
100170.8
100175.3
100177.5
100156.1
100169.4
100195.2
100226.1
100266.9
100138.3
100146.1
100147.8
100147
100124.4
100131.8
100148
100167
100193.3
100225.3
100119.1
100124.7
100124.5
100121.6
100098.6
100102
100112.1
100122.6
100137.9
100156.2
100163.5
100098.5
100102
100100
100095.1
100071.6
100071.6
100076.6
100080.8
100086.8
100093.2
100087.8
100107.8
100087.6
100090.3
100087.6
100082.3
100060.1
100059
100062.2
100064.2
100067.3
100069.6
100061.5
100073.5
100067.6
100079.1
100081.1
100078.2
100072.8
100052
100050.5
100052.6
100053.5
100054.9
100055.5
100046.5
100054.6
100048.1
100045.8
100073
100074.6
100071.6
100066.4
100047.2
100045.5
100047.1
100047.5
100048.3
100048.2
100039.8
100045.7
100040.2
100037.7
100024.1
100068
100069.3
100066.4
100061.3
100043.6
100041.9
100043.2
100043.4
100043.9
100043.4
100035.8
100040.6
100035.6
100033.7
100023.4
100024
100063.8
100064.9
100062.1
100057.3
100040.9
100039.3
100040.4
100040.5
100040.8
100040.3
100033.4
100037.5
100033.1
100031.2
100023.1
100023.3
100024.1
100060.3
100061.3
100058.7
100054.2
100038.9
100037.5
100038.5
100038.5
100038.8
100038.3
100032.2
100035.7
100031.7
100029.9
100022.5
100023
100023.4
100024.1
100057.5
100058.5
100055.9
100051.7
100037.6
100036.3
100037.3
100037.4
100037.7
100037.3
100031.9
100035
100031.2
100029.3
100022
100022.4
100023.1
100023.4
100024.1
100055.9
100056.8
100054.5
100050.7
100037.7
100036.6
100037.7
100037.9
100038.4
100038.3
100033.8
100036.7
100033
100030.8
100021.5
100022
100022.5
100023.1
100023.4
100024.1
100055
100056
100053.9
100050.5
100038.5
100037.8
100039
100039.4
100040.2
100040.4
100036.6
100039.4
100035.7
100033.1
100021.2
100021.4
100022
100022.5
100023.1
100023.4
100024.1
100057.9
100059.1
100057.6
100054.8
100044.2
100044
100045.7
100046.8
100048.3
100049.3
100046.9
100051.4
100052.1
100054.9
100058
100058.3
100059.7
100058.5
100056.1
100046.5
100046.6
100048.6
100050
100051.7
100053.2
100051.4
100056.2
100057.7
100061.3
100065.3
100058.4
100059.8
100058.8
100056.8
100048.1
100048.5
100050.6
100052.2
100054.1
100055.8
100054.7
100059.6
100061.7
100065.7
100070.3
100057.1
100058.6
100057.7
100055.9
100047.9
100048.4
100050.5
100052.1
100054.1
100055.9
100055
100059.8
100061.9
100065.9
100070.4
100055
100056.4
100055.7
100054
100046.5
100047
100049
100050.6
100052.5
100054.2
100053.5
100058
100060
100063.8
100067.9
100185.9
100200
100208.3
100215.2
100196.3
100219.1
100257.9
100302.9
100165.8
100176.9
100182.1
100185.4
100165.6
100180.6
100208.4
100241.9
100285.4
100146.5
100155.1
100157.9
100158.5
100138
100147.5
100166.2
100188.8
100219.6
100256.8
100127.1
100133.5
100134.3
100132.6
100111.5
100116.7
100129
100142.4
100161.5
100184.8
100198.8
100110
100114.7
100113.9
100110.6
100089.4
100091.7
100099.5
100107.2
100117.9
100130.8
100134.2
100169
100091.4
100094.3
100092.1
100087.2
100065.7
100065.4
100069.4
100072.3
100076.6
100080.6
100075
100088.9
100083.8
100081.6
100083.8
100081.1
100076
100055.6
100054.4
100057
100058.4
100060.5
100062
100054.2
100063.2
100057
100054.4
100073.9
100075.6
100072.7
100067.5
100048.4
100046.9
100048.7
100049.2
100050.2
100050.3
100042.3
100048.4
100042.8
100039.9
100024.1
100068.4
100069.7
100066.8
100061.8
100044.1
100042.5
100043.9
100044.1
100044.6
100044.3
100036.7
100041.7
100036.6
100034.5
100023.4
100024
100063.8
100064.9
100062.1
100057.3
100040.9
100039.3
100040.4
100040.5
100040.8
100040.3
100033.4
100037.5
100033.1
100031.2
100023.1
100023.3
100024.1
100060
100061
100058.3
100053.7
100038.5
100037
100038
100037.9
100038.2
100037.6
100031.4
100034.9
100031
100029.4
100022.5
100023
100023.4
100024.1
100056.8
100057.7
100055.1
100050.9
100036.7
100035.3
100036.2
100036.2
100036.4
100035.9
100030.4
100033.4
100029.9
100028.2
100022
100022.4
100023.1
100023.4
100024
100054.2
100055.1
100052.6
100048.7
100035.5
100034.3
100035.2
100035.2
100035.4
100035.1
100030.2
100032.9
100029.5
100027.8
100021.4
100022
100022.5
100023.1
100023.4
100024
100052.8
100053.6
100051.4
100047.8
100035.6
100034.6
100035.6
100035.8
100036.2
100036
100031.9
100034.4
100031.1
100029.1
100021
100021.4
100022
100022.5
100023.1
100023.4
100024.1
100052
100052.8
100050.9
100047.6
100036.4
100035.6
100036.8
100037.2
100037.8
100038
100034.5
100037
100033.6
100031.2
100020.6
100020.9
100021.4
100022
100022.5
100023.1
100023.4
100024.1
100054.7
100055.8
100054.3
100051.7
100041.7
100041.5
100043.1
100044.1
100045.4
100046.3
100044
100048
100048.5
100051
100053.5
100055.2
100056.4
100055.2
100053
100043.9
100044
100045.8
100047
100048.6
100049.9
100048.2
100052.6
100053.8
100056.9
100060.3
100055.2
100056.6
100055.6
100053.7
100045.4
100045.8
100047.7
100049.2
100050.9
100052.4
100051.3
100055.8
100057.6
100061.2
100065.2
100054.1
100055.4
100054.6
100052.9
100045.2
100045.7
100047.6
100049.1
100051
100052.5
100051.7
100056
100057.9
100061.5
100065.4
100052.1
100053.4
100052.7
100051.1
100043.9
100044.4
100046.3
100047.8
100049.5
100051.1
100050.3
100054.5
100056.3
100059.6
100063.3
100168.7
100180.1
100185.8
100189.6
100170.7
100186.5
100215.4
100250.3
100295.2
100151.5
100160.6
100164.1
100165.5
100146.3
100157.1
100177.4
100202.1
100235.5
100275.6
100134.6
100141.7
100143.5