/*--------------------------------*- C++ -*----------------------------------*\
| =========                 |                                                 |
| \\      /  F ield         | OpenFOAM: The Open Source CFD Toolbox           |
|  \\    /   O peration     | Version:  2306                                  |
|   \\  /    A nd           | Website:  www.openfoam.com                      |
|    \\/     M anipulation  |                                                 |
\*---------------------------------------------------------------------------*/
FoamFile
{
    version     2.0;
    format      ascii;
    arch        "LSB;label=32;scalar=64";
    class       volScalarField;
    location    "0.3/fuel";
    object      T;
}
// * * * * * * * * * * * * * * * * * * * * * * * * * * * * * * * * * * * * * //

dimensions      [0 0 0 1 0 0 0];

internalField   nonuniform List<scalar> 
16000
(
1049.522
1049.425
1050.673
1049.524
1049.202
1050.664
1049.427
1051.752
1050.672
1049.531
1048.787
1050.642
1049.205
1051.768
1050.663
1049.435
1052.776
1051.748
1050.676
1049.543
1048.092
1050.596
1048.792
1051.804
1050.64
1049.213
1052.801
1051.765
1050.667
1049.447
1053.772
1052.771
1051.749
1050.684
1049.56
1047.078
1050.51
1048.101
1051.862
1050.594
1048.802
1052.855
1051.799
1050.644
1049.226
1053.798
1052.795
1051.765
1050.675
1049.464
1054.744
1053.764
1052.769
1051.755
1050.697
1049.582
1045.934
1050.361
1047.093
1051.948
1050.506
1048.114
1052.948
1051.857
1050.596
1048.817
1053.858
1052.848
1051.799
1050.652
1049.244
1054.771
1053.791
1052.793
1051.77
1050.688
1049.487
1055.694
1054.735
1053.761
1052.772
1051.764
1050.715
1049.605
1044.89
1050.147
1045.959
1052.047
1050.354
1047.114
1053.091
1051.939
1050.507
1048.134
1053.963
1052.94
1051.856
1050.604
1048.838
1054.832
1053.85
1052.846
1051.804
1050.664
1049.268
1055.721
1054.762
1053.787
1052.795
1051.78
1050.705
1049.51
1056.62
1055.684
1054.73
1053.761
1052.778
1051.778
1050.733
1049.628
1044.116
1049.912
1044.925
1052.115
1050.14
1045.988
1053.275
1052.034
1050.352
1047.139
1054.125
1053.08
1051.936
1050.512
1048.159
1054.939
1053.953
1052.936
1051.859
1050.615
1048.864
1055.781
1054.822
1053.845
1052.847
1051.812
1050.681
1049.293
1056.646
1055.71
1054.757
1053.787
1052.802
1051.793
1050.723
1049.534
1057.521
1056.609
1055.677
1054.728
1053.765
1052.789
1051.793
1050.751
1049.651
1043.707
1049.715
1044.157
1052.142
1049.906
1044.964
1053.442
1052.099
1050.137
1046.023
1054.338
1053.26
1052.026
1050.355
1047.17
1055.105
1054.112
1053.074
1051.936
1050.522
1048.189
1055.886
1054.928
1053.947
1052.936
1051.866
1050.632
1048.891
1056.705
1055.77
1054.816
1053.845
1052.853
1051.826
1050.699
1049.318
1057.546
1056.635
1055.703
1054.755
1053.791
1052.812
1051.808
1050.742
1049.557
1058.395
1057.509
1056.601
1055.674
1054.73
1053.773
1052.801
1051.807
1050.77
1049.674
1043.707
1049.603
1043.752
1052.144
1049.711
1044.203
1053.565
1052.125
1049.905
1045.007
1054.541
1053.424
1052.088
1050.14
1046.062
1055.326
1054.321
1053.249
1052.022
1050.363
1047.207
1056.051
1055.092
1054.104
1053.071
1051.941
1050.537
1048.221
1056.808
1055.874
1054.92
1053.945
1052.941
1051.878
1050.649
1048.919
1057.603
1056.693
1055.762
1054.814
1053.848
1052.863
1051.839
1050.717
1049.343
1058.42
1057.534
1056.627
1055.7
1054.756
1053.799
1052.823
1051.822
1050.76
1049.582
1059.242
1058.383
1057.5
1056.597
1055.674
1054.736
1053.781
1052.812
1051.822
1050.789
1049.79
1044.116
1049.603
1043.752
1052.138
1049.6
1043.801
1053.641
1052.127
1049.711
1044.253
1054.699
1053.545
1052.114
1049.908
1045.055
1055.54
1054.521
1053.41
1052.082
1050.147
1046.107
1056.271
1055.309
1054.309
1053.242
1052.023
1050.375
1047.244
1056.969
1056.037
1055.082
1054.099
1053.073
1051.95
1050.553
1048.253
1057.704
1056.795
1055.865
1054.916
1053.947
1052.949
1051.89
1050.667
1048.947
1058.476
1057.591
1056.684
1055.758
1054.815
1053.855
1052.873
1051.853
1050.735
1049.369
1059.266
1058.407
1057.525
1056.622
1055.7
1054.762
1053.807
1052.834
1051.836
1050.779
1049.701
1060.06
1059.229
1058.373
1057.495
1056.596
1055.678
1054.742
1053.79
1052.823
1051.837
1050.882
1050.011
1044.89
1049.715
1044.157
1052.138
1049.6
1043.801
1053.676
1052.122
1049.602
1043.855
1054.804
1053.62
1052.115
1049.716
1044.308
1055.711
1054.678
1053.529
1052.106
1049.917
1045.108
1056.486
1055.52
1054.506
1053.4
1052.08
1050.158
1046.152
1057.185
1056.254
1055.295
1054.3
1053.24
1052.029
1050.388
1047.281
1057.862
1056.955
1056.026
1055.076
1054.099
1053.078
1051.96
1050.569
1048.286
1058.574
1057.69
1056.785
1055.86
1054.916
1053.953
1052.958
1051.902
1050.684
1048.976
1059.32
1058.462
1057.582
1056.679
1055.758
1054.82
1053.862
1052.883
1051.866
1050.754
1049.496
1060.084
1059.253
1058.398
1057.52
1056.621
1055.704
1054.768
1053.815
1052.845
1051.851
1050.871
1049.932
1060.849
1060.047
1059.219
1058.367
1057.493
1056.598
1055.682
1054.748
1053.798
1052.834
1051.911
1051.052
1050.243
1045.934
1049.912
1044.925
1052.144
1049.711
1044.203
1053.676
1052.122
1049.602
1043.855
1054.855
1053.655
1052.11
1049.608
1043.914
1055.825
1054.781
1053.603
1052.107
1049.726
1044.368
1056.659
1055.689
1054.66
1053.517
1052.103
1049.93
1045.162
1057.398
1056.466
1055.504
1054.494
1053.394
1052.083
1050.171
1046.197
1058.073
1057.168
1056.24
1055.286
1054.296
1053.241
1052.034
1050.402
1047.319
1058.728
1057.846
1056.943
1056.019
1055.073
1054.102
1053.084
1051.969
1050.585
1048.319
1059.416
1058.56
1057.68
1056.779
1055.859
1054.92
1053.959
1052.966
1051.915
1050.702
1049.119
1060.137
1059.307
1058.453
1057.575
1056.677
1055.761
1054.825
1053.87
1052.893
1051.88
1050.845
1049.751
1060.872
1060.07
1059.243
1058.391
1057.517
1056.623
1055.707
1054.773
1053.823
1052.856
1051.924
1051.041
1050.178
1061.609
1060.836
1060.037
1059.212
1058.364
1057.494
1056.6
1055.686
1054.754
1053.807
1052.893
1052.044
1051.223
1050.483
1047.078
1050.147
1045.959
1052.142
1049.906
1044.964
1053.641
1052.127
1049.711
1044.253
1054.855
1053.655
1052.11
1049.608
1043.914
1055.882
1054.832
1053.638
1052.103
1049.619
1043.977
1056.776
1055.802
1054.763
1053.591
1052.104
1049.741
1044.428
1057.569
1056.637
1055.671
1054.647
1053.51
1052.104
1049.943
1045.215
1058.281
1057.378
1056.45
1055.492
1054.487
1053.393
1052.086
1050.183
1046.242
1058.934
1058.055
1057.153
1056.23
1055.28
1054.295
1053.243
1052.04
1050.415
1047.356
1059.567
1058.712
1057.834
1056.935
1056.015
1055.075
1054.105
1053.09
1051.979
1050.601
1048.484
1060.23
1059.402
1058.549
1057.673
1056.776
1055.86
1054.924
1053.964
1052.975
1051.927
1050.791
1049.413
1060.925
1060.123
1059.296
1058.446
1057.572
1056.679
1055.764
1054.83
1053.877
1052.904
1051.95
1051.015
1050.028
1061.632
1060.859
1060.06
1059.236
1058.388
1057.518
1056.625
1055.711
1054.779
1053.831
1052.913
1052.053
1051.213
1050.434
1062.34
1061.596
1060.825
1060.029
1059.208
1058.364
1057.495
1056.603
1055.69
1054.76
1053.851
1052.995
1052.174
1051.395
1050.729
1048.092
1050.361
1047.093
1052.115
1050.14
1045.988
1053.565
1052.125
1049.905
1045.007
1054.804
1053.62
1052.115
1049.716
1044.308
1055.882
1054.832
1053.638
1052.103
1049.619
1043.977
1056.834
1055.859
1054.813
1053.625
1052.099
1049.635
1044.041
1057.685
1056.753
1055.783
1054.748
1053.582
1052.105
1049.756
1044.488
1058.449
1057.547
1056.619
1055.657
1054.638
1053.506
1052.106
1049.956
1045.268
1059.138
1058.261
1057.361
1056.437
1055.483
1054.483
1053.391
1052.088
1050.196
1046.287
1059.769
1058.916
1058.041
1057.143
1056.223
1055.278
1054.295
1053.245
1052.046
1050.429
1047.541
1060.378
1059.551
1058.7
1057.826
1056.93
1056.015
1055.076
1054.108
1053.096
1051.989
1050.683
1048.825
1061.017
1060.216
1059.39
1058.541
1057.669
1056.777
1055.862
1054.927
1053.97
1052.984
1051.99
1050.959
1049.746
1061.683
1060.911
1060.112
1059.289
1058.442
1057.573
1056.68
1055.767
1054.835
1053.885
1052.956
1052.073
1051.189
1050.324
1062.363
1061.619
1060.848
1060.052
1059.232
1058.388
1057.519
1056.627
1055.715
1054.785
1053.874
1053.011
1052.181
1051.387
1050.699
1063.042
1062.327
1061.585
1060.818
1060.025
1059.207
1058.364
1057.496
1056.605
1055.694
1054.792
1053.927
1053.094
1052.304
1051.568
1048.787
1050.51
1048.101
1052.047
1050.354
1047.114
1053.442
1052.099
1050.137
1046.023
1054.699
1053.545
1052.114
1049.908
1045.055
1055.825
1054.781
1053.603
1052.107
1049.726
1044.368
1056.834
1055.859
1054.813
1053.625
1052.099
1049.635
1044.041
1057.743
1056.811
1055.839
1054.798
1053.617
1052.101
1049.651
1044.104
1058.564
1057.663
1056.734
1055.768
1054.738
1053.578
1052.107
1049.771
1044.547
1059.303
1058.428
1057.529
1056.605
1055.647
1054.632
1053.503
1052.108
1049.97
1045.32
1059.969
1059.118
1058.245
1057.348
1056.428
1055.478
1054.48
1053.39
1052.091
1050.208
1046.503
1060.577
1059.751
1058.902
1058.03
1057.135
1056.22
1055.276
1054.295
1053.247
1052.052
1050.497
1047.882
1061.162
1060.362
1059.538
1058.69
1057.82
1056.929
1056.015
1055.077
1054.112
1053.102
1052.039
1050.844
1049.22
1061.774
1061.002
1060.205
1059.382
1058.536
1057.668
1056.777
1055.864
1054.931
1053.976
1053.028
1052.101
1051.138
1050.114
1062.413
1061.67
1060.9
1060.104
1059.284
1058.441
1057.573
1056.682
1055.77
1054.84
1053.923
1053.046
1052.195
1051.368
1050.633
1063.064
1062.349
1061.608
1060.84
1060.048
1059.23
1058.387
1057.52
1056.629
1055.719
1054.815
1053.946
1053.106
1052.308
1051.562
1063.714
1063.028
1062.316
1061.577
1060.813
1060.023
1059.206
1058.364
1057.497
1056.608
1055.716
1054.847
1054.001
1053.191
1052.433
1049.202
1050.596
1048.792
1051.948
1050.506
1048.114
1053.275
1052.034
1050.352
1047.139
1054.541
1053.424
1052.088
1050.14
1046.062
1055.711
1054.678
1053.529
1052.106
1049.917
1045.108
1056.776
1055.802
1054.763
1053.591
1052.104
1049.741
1044.428
1057.743
1056.811
1055.839
1054.798
1053.617
1052.101
1049.651
1044.104
1058.621
1057.721
1056.792
1055.824
1054.787
1053.612
1052.102
1049.667
1044.167
1059.416
1058.542
1057.644
1056.719
1055.757
1054.732
1053.574
1052.108
1049.785
1044.605
1060.131
1059.283
1058.411
1057.515
1056.594
1055.64
1054.627
1053.5
1052.11
1049.983
1045.571
1060.773
1059.95
1059.102
1058.232
1057.339
1056.422
1055.473
1054.476
1053.389
1052.095
1050.271
1046.866
1061.357
1060.559
1059.737
1058.89
1058.022
1057.131
1056.216
1055.274
1054.294
1053.249
1052.082
1050.627
1048.229
1061.917
1061.146
1060.35
1059.529
1058.684
1057.817
1056.927
1056.014
1055.079
1054.115
1053.133
1052.129
1051.022
1049.685
1062.502
1061.759
1060.99
1060.196
1059.377
1058.534
1057.667
1056.777
1055.866
1054.935
1054.007
1053.103
1052.212
1051.326
1050.515
1063.114
1062.399
1061.658
1060.891
1060.099
1059.283
1058.44
1057.573
1056.683
1055.773
1054.866
1053.986
1053.132
1052.315
1051.549
1063.736
1063.05
1062.338
1061.6
1060.835
1060.046
1059.229
1058.387
1057.52
1056.632
1055.739
1054.866
1054.015
1053.199
1052.434
1064.357
1063.701
1063.018
1062.308
1061.572
1060.81
1060.021
1059.205
1058.363
1057.498
1056.621
1055.752
1054.898
1054.071
1053.287
1049.425
1050.642
1049.205
1051.862
1050.594
1048.802
1053.091
1051.939
1050.507
1048.134
1054.338
1053.26
1052.026
1050.355
1047.17
1055.54
1054.521
1053.41
1052.082
1050.147
1046.107
1056.659
1055.689
1054.66
1053.517
1052.103
1049.93
1045.162
1057.685
1056.753
1055.783
1054.748
1053.582
1052.105
1049.756
1044.488
1058.621
1057.721
1056.792
1055.824
1054.787
1053.612
1052.102
1049.667
1044.167
1059.473
1058.599
1057.702
1056.776
1055.812
1054.781
1053.608
1052.104
1049.683
1044.228
1060.242
1059.395
1058.524
1057.629
1056.708
1055.75
1054.725
1053.57
1052.11
1049.8
1044.885
1060.933
1060.111
1059.265
1058.396
1057.504
1056.587
1055.633
1054.621
1053.497
1052.111
1050.049
1045.975
1061.55
1060.754
1059.933
1059.089
1058.222
1057.332
1056.416
1055.469
1054.473
1053.388
1052.111
1050.386
1047.203
1062.109
1061.339
1060.545
1059.725
1058.882
1058.017
1057.127
1056.213
1055.272
1054.294
1053.26
1052.139
1050.762
1048.579
1062.643
1061.901
1061.133
1060.34
1059.522
1058.681
1057.815
1056.926
1056.014
1055.08
1054.132
1053.184
1052.222
1051.222
1050.255
1063.202
1062.488
1061.747
1060.981
1060.19
1059.374
1058.532
1057.666
1056.778
1055.868
1054.953
1054.055
1053.174
1052.324
1051.524
1063.785
1063.1
1062.388
1061.65
1060.886
1060.097
1059.281
1058.439
1057.573
1056.685
1055.79
1054.908
1054.045
1053.216
1052.436
1064.379
1063.722
1063.039
1062.33
1061.594
1060.833
1060.044
1059.228
1058.387
1057.521
1056.643
1055.771
1054.913
1054.081
1053.29
1064.971
1064.344
1063.69
1063.009
1062.302
1061.569
1060.808
1060.019
1059.204
1058.363
1057.504
1056.641
1055.785
1054.947
1054.141
1049.522
1050.664
1049.427
1051.804
1050.64
1049.213
1052.948
1051.857
1050.596
1048.817
1054.125
1053.08
1051.936
1050.512
1048.159
1055.326
1054.321
1053.249
1052.022
1050.363
1047.207
1056.486
1055.52
1054.506
1053.4
1052.08
1050.158
1046.152
1057.569
1056.637
1055.671
1054.647
1053.51
1052.104
1049.943
1045.215
1058.564
1057.663
1056.734
1055.768
1054.738
1053.578
1052.107
1049.771
1044.547
1059.473
1058.599
1057.702
1056.776
1055.812
1054.781
1053.608
1052.104
1049.683
1044.228
1060.298
1059.451
1058.581
1057.686
1056.764
1055.804
1054.774
1053.603
1052.105
1049.698
1044.523
1061.042
1060.221
1059.377
1058.509
1057.617
1056.699
1055.742
1054.719
1053.566
1052.111
1049.873
1045.325
1061.707
1060.913
1060.094
1059.251
1058.385
1057.497
1056.58
1055.627
1054.616
1053.494
1052.122
1050.165
1046.331
1062.299
1061.531
1060.738
1059.92
1059.079
1058.215
1057.326
1056.411
1055.464
1054.47
1053.383
1052.144
1050.5
1047.51
1062.832
1062.092
1061.325
1060.533
1059.717
1058.877
1058.012
1057.123
1056.21
1055.27
1054.293
1053.28
1052.196
1050.899
1048.917
1063.34
1062.627
1061.888
1061.123
1060.332
1059.518
1058.677
1057.812
1056.924
1056.014
1055.086
1054.157
1053.232
1052.32
1051.456
1063.872
1063.187
1062.476
1061.738
1060.975
1060.187
1059.371
1058.531
1057.666
1056.778
1055.877
1054.98
1054.097
1053.242
1052.437
1064.427
1063.771
1063.088
1062.379
1061.644
1060.883
1060.094
1059.279
1058.438
1057.573
1056.693
1055.814
1054.945
1054.101
1053.297
1064.993
1064.365
1063.711
1063.031
1062.324
1061.591
1060.83
1060.042
1059.227
1058.386
1057.526
1056.66
1055.8
1054.957
1054.145
1065.556
1064.958
1064.333
1063.681
1063.003
1062.299
1061.566
1060.805
1060.017
1059.203
1058.363
1057.511
1056.659
1055.816
1054.994
1050.673
1049.524
1051.768
1050.663
1049.435
1052.855
1051.799
1050.644
1049.226
1053.963
1052.94
1051.856
1050.604
1048.838
1055.105
1054.112
1053.074
1051.936
1050.522
1048.189
1056.271
1055.309
1054.309
1053.242
1052.023
1050.375
1047.244
1057.398
1056.466
1055.504
1054.494
1053.394
1052.083
1050.171
1046.197
1058.449
1057.547
1056.619
1055.657
1054.638
1053.506
1052.106
1049.956
1045.268
1059.416
1058.542
1057.644
1056.719
1055.757
1054.732
1053.574
1052.108
1049.785
1044.605
1060.298
1059.451
1058.581
1057.686
1056.764
1055.804
1054.774
1053.603
1052.105
1049.698
1044.523
1061.097
1060.277
1059.433
1058.565
1057.674
1056.756
1055.796
1054.767
1053.599
1052.107
1049.776
1044.985
1061.815
1061.021
1060.203
1059.362
1058.497
1057.609
1056.691
1055.734
1054.712
1053.562
1052.12
1049.996
1045.707
1062.454
1061.688
1060.896
1060.08
1059.24
1058.377
1057.489
1056.572
1055.62
1054.611
1053.48
1052.143
1050.276
1046.641
1063.021
1062.281
1061.516
1060.725
1059.91
1059.072
1058.209
1057.32
1056.405
1055.459
1054.453
1053.379
1052.178
1050.611
1047.779
1063.528
1062.816
1062.077
1061.313
1060.524
1059.711
1058.872
1058.007
1057.119
1056.207
1055.261
1054.291
1053.3
1052.252
1051.031
1049.573
1064.009
1063.325
1062.614
1061.878
1061.115
1060.328
1059.514
1058.674
1057.81
1056.922
1056.012
1055.091
1054.175
1053.278
1052.428
1064.513
1063.858
1063.175
1062.466
1061.732
1060.971
1060.183
1059.369
1058.529
1057.665
1056.779
1055.887
1055
1054.135
1053.308
1065.04
1064.414
1063.76
1063.08
1062.373
1061.64
1060.88
1060.092
1059.277
1058.437
1057.575
1056.702
1055.832
1054.978
1054.154
1065.577
1064.979
1064.354
1063.703
1063.025
1062.32
1061.588
1060.827
1060.04
1059.225
1058.385
1057.53
1056.673
1055.826
1054.999
1066.113
1065.543
1064.947
1064.324
1063.675
1062.999
1062.295
1061.563
1060.803
1060.016
1059.198
1058.36
1057.516
1056.674
1055.845
1051.752
1050.672
1049.531
1052.801
1051.765
1050.667
1049.447
1053.858
1052.848
1051.799
1050.652
1049.244
1054.939
1053.953
1052.936
1051.859
1050.615
1048.864
1056.051
1055.092
1054.104
1053.071
1051.941
1050.537
1048.221
1057.185
1056.254
1055.295
1054.3
1053.24
1052.029
1050.388
1047.281
1058.281
1057.378
1056.45
1055.492
1054.487
1053.393
1052.086
1050.183
1046.242
1059.303
1058.428
1057.529
1056.605
1055.647
1054.632
1053.503
1052.108
1049.97
1045.32
1060.242
1059.395
1058.524
1057.629
1056.708
1055.75
1054.725
1053.57
1052.11
1049.8
1044.885
1061.097
1060.277
1059.433
1058.565
1057.674
1056.756
1055.796
1054.767
1053.599
1052.107
1049.776
1044.985
1061.869
1061.076
1060.259
1059.418
1058.553
1057.665
1056.747
1055.788
1054.76
1053.595
1052.115
1049.905
1045.382
1062.561
1061.795
1061.004
1060.189
1059.35
1058.489
1057.6
1056.683
1055.727
1054.706
1053.544
1052.137
1050.111
1046.033
1063.174
1062.435
1061.671
1060.882
1060.069
1059.232
1058.369
1057.481
1056.565
1055.614
1054.585
1053.46
1052.165
1050.381
1046.903
1063.714
1063.003
1062.265
1061.503
1060.715
1059.903
1059.065
1058.202
1057.314
1056.4
1055.436
1054.429
1053.377
1052.212
1050.714
1048.26
1064.194
1063.511
1062.801
1062.066
1061.304
1060.518
1059.705
1058.866
1058.003
1057.115
1056.191
1055.243
1054.287
1053.317
1052.303
1051.297
1049.963
1064.649
1063.994
1063.312
1062.604
1061.87
1061.11
1060.323
1059.509
1058.67
1057.807
1056.914
1056.001
1055.089
1054.188
1053.322
1065.126
1064.499
1063.846
1063.166
1062.459
1061.727
1060.967
1060.18
1059.366
1058.527
1057.66
1056.775
1055.889
1055.015
1054.169
1065.625
1065.027
1064.402
1063.751
1063.073
1062.369
1061.637
1060.876
1060.089
1059.275
1058.433
1057.571
1056.706
1055.847
1055.009
1066.134
1065.564
1064.968
1064.346
1063.696
1063.021
1062.317
1061.584
1060.825
1060.038
1059.219
1058.378
1057.53
1056.684
1055.849
1066.64
1066.1
1065.533
1064.939
1064.318
1063.671
1062.996
1062.292
1061.56
1060.8
1060.006
1059.185
1058.354
1057.518
1056.687
1052.776
1051.748
1050.676
1049.543
1053.798
1052.795
1051.765
1050.675
1049.464
1054.832
1053.85
1052.846
1051.804
1050.664
1049.268
1055.886
1054.928
1053.947
1052.936
1051.866
1050.632
1048.891
1056.969
1056.037
1055.082
1054.099
1053.073
1051.95
1050.553
1048.253
1058.073
1057.168
1056.24
1055.286
1054.296
1053.241
1052.034
1050.402
1047.319
1059.138
1058.261
1057.361
1056.437
1055.483
1054.483
1053.391
1052.088
1050.196
1046.287
1060.131
1059.283
1058.411
1057.515
1056.594
1055.64
1054.627
1053.5
1052.11
1049.983
1045.571
1061.042
1060.221
1059.377
1058.509
1057.617
1056.699
1055.742
1054.719
1053.566
1052.111
1049.873
1045.325
1061.869
1061.076
1060.259
1059.418
1058.553
1057.665
1056.747
1055.788
1054.76
1053.595
1052.115
1049.905
1045.382
1062.614
1061.849
1061.059
1060.244
1059.406
1058.544
1057.656
1056.739
1055.78
1054.753
1053.575
1052.132
1050.024
1045.72
1063.279
1062.541
1061.778
1060.99
1060.177
1059.342
1058.48
1057.592
1056.675
1055.72
1054.675
1053.516
1052.155
1050.218
1046.304
1063.865
1063.155
1062.419
1061.658
1060.871
1060.061
1059.224
1058.361
1057.474
1056.558
1055.582
1054.545
1053.445
1052.189
1050.477
1047.36
1064.378
1063.696
1062.987
1062.253
1061.493
1060.708
1059.896
1059.058
1058.195
1057.308
1056.372
1055.4
1054.408
1053.376
1052.244
1050.927
1048.779
1064.832
1064.178
1063.497
1062.79
1062.057
1061.298
1060.512
1059.699
1058.861
1057.998
1057.095
1056.162
1055.225
1054.282
1053.331
1052.401
1051.462
1050.184
1065.26
1064.634
1063.981
1063.302
1062.596
1061.865
1061.105
1060.318
1059.505
1058.667
1057.793
1056.89
1055.982
1055.078
1054.193
1065.709
1065.112
1064.487
1063.836
1063.159
1062.455
1061.723
1060.963
1060.176
1059.363
1058.516
1057.643
1056.763
1055.885
1055.025
1066.181
1065.612
1065.016
1064.393
1063.744
1063.069
1062.365
1061.633
1060.873
1060.087
1059.266
1058.418
1057.562
1056.705
1055.859
1066.661
1066.121
1065.553
1064.96
1064.339
1063.692
1063.017
1062.313
1061.581
1060.822
1060.027
1059.203
1058.368
1057.528
1056.692
1067.14
1066.628
1066.089
1065.524
1064.932
1064.314
1063.667
1062.992
1062.288
1061.557
1060.787
1059.986
1059.17
1058.345
1057.519
1053.772
1052.771
1051.749
1050.684
1049.56
1054.771
1053.791
1052.793
1051.77
1050.688
1049.487
1055.781
1054.822
1053.845
1052.847
1051.812
1050.681
1049.293
1056.808
1055.874
1054.92
1053.945
1052.941
1051.878
1050.649
1048.919
1057.862
1056.955
1056.026
1055.076
1054.099
1053.078
1051.96
1050.569
1048.286
1058.934
1058.055
1057.153
1056.23
1055.28
1054.295
1053.243
1052.04
1050.415
1047.356
1059.969
1059.118
1058.245
1057.348
1056.428
1055.478
1054.48
1053.39
1052.091
1050.208
1046.503
1060.933
1060.111
1059.265
1058.396
1057.504
1056.587
1055.633
1054.621
1053.497
1052.111
1050.049
1045.975
1061.815
1061.021
1060.203
1059.362
1058.497
1057.609
1056.691
1055.734
1054.712
1053.562
1052.12
1049.996
1045.707
1062.614
1061.849
1061.059
1060.244
1059.406
1058.544
1057.656
1056.739
1055.78
1054.753
1053.575
1052.132
1050.024
1045.72
1063.332
1062.594
1061.832
1061.044
1060.232
1059.397
1058.535
1057.648
1056.73
1055.773
1054.72
1053.544
1052.149
1050.133
1045.999
1063.969
1063.26
1062.525
1061.764
1060.979
1060.169
1059.333
1058.471
1057.584
1056.667
1055.683
1054.627
1053.494
1052.174
1050.315
1046.774
1064.528
1063.847
1063.139
1062.406
1061.647
1060.863
1060.052
1059.216
1058.354
1057.466
1056.523
1055.531
1054.511
1053.434
1052.212
1050.68
1047.931
1065.015
1064.361
1063.681
1062.975
1062.243
1061.485
1060.7
1059.889
1059.051
1058.189
1057.277
1056.327
1055.367
1054.389
1053.376
1052.312
1051.156
1049.151
1065.442
1064.816
1064.164
1063.485
1062.781
1062.05
1061.292
1060.506
1059.694
1058.856
1057.973
1057.057
1056.133
1055.205
1054.275
1053.348
1052.46
1051.558
1050.348
1065.843
1065.245
1064.621
1063.971
1063.294
1062.59
1061.859
1061.1
1060.314
1059.501
1058.648
1057.759
1056.858
1055.954
1055.056
1066.264
1065.695
1065.1
1064.477
1063.829
1063.154
1062.45
1061.718
1060.959
1060.173
1059.348
1058.49
1057.619
1056.744
1055.877
1066.708
1066.168
1065.6
1065.007
1064.386
1063.74
1063.064
1062.361
1061.629
1060.87
1060.073
1059.243
1058.399
1057.549
1056.702
1067.16
1066.649
1066.11
1065.545
1064.953
1064.335
1063.688
1063.013
1062.309
1061.578
1060.808
1060.003
1059.184
1058.354
1057.523
1067.611
1067.127
1066.617
1066.081
1065.517
1064.928
1064.31
1063.663
1062.988
1062.285
1061.541
1060.761
1059.963
1059.152
1058.335
1054.744
1053.764
1052.769
1051.755
1050.697
1049.582
1055.721
1054.762
1053.787
1052.795
1051.78
1050.705
1049.51
1056.705
1055.77
1054.816
1053.845
1052.853
1051.826
1050.699
1049.318
1057.704
1056.795
1055.865
1054.916
1053.947
1052.949
1051.89
1050.667
1048.947
1058.728
1057.846
1056.943
1056.019
1055.073
1054.102
1053.084
1051.969
1050.585
1048.319
1059.769
1058.916
1058.041
1057.143
1056.223
1055.278
1054.295
1053.245
1052.046
1050.429
1047.541
1060.773
1059.95
1059.102
1058.232
1057.339
1056.422
1055.473
1054.476
1053.389
1052.095
1050.271
1046.866
1061.707
1060.913
1060.094
1059.251
1058.385
1057.497
1056.58
1055.627
1054.616
1053.494
1052.122
1050.165
1046.331
1062.561
1061.795
1061.004
1060.189
1059.35
1058.489
1057.6
1056.683
1055.727
1054.706
1053.544
1052.137
1050.111
1046.033
1063.332
1062.594
1061.832
1061.044
1060.232
1059.397
1058.535
1057.648
1056.73
1055.773
1054.72
1053.544
1052.149
1050.133
1045.999
1064.021
1063.312
1062.578
1061.817
1061.032
1060.223
1059.388
1058.526
1057.639
1056.722
1055.733
1054.668
1053.519
1052.166
1050.232
1046.482
1064.631
1063.951
1063.244
1062.511
1061.753
1060.97
1060.16
1059.324
1058.463
1057.576
1056.627
1055.624
1054.585
1053.476
1052.193
1050.519
1047.38
1065.163
1064.511
1063.831
1063.126
1062.395
1061.639
1060.855
1060.044
1059.208
1058.346
1057.428
1056.465
1055.487
1054.482
1053.424
1052.264
1050.932
1048.387
1065.623
1064.998
1064.346
1063.668
1062.965
1062.235
1061.478
1060.693
1059.882
1059.045
1058.156
1057.226
1056.286
1055.337
1054.372
1053.375
1052.383
1051.318
1049.443
1066.023
1065.426
1064.802
1064.153
1063.476
1062.774
1062.043
1061.285
1060.5
1059.688
1058.828
1057.929
1057.019
1056.102
1055.184
1054.247
1053.357
1052.495
1051.63
1050.491
1066.397
1065.828
1065.233
1064.611
1063.962
1063.288
1062.585
1061.853
1061.095
1060.309
1059.478
1058.606
1057.716
1056.816
1055.911
1066.791
1066.251
1065.684
1065.09
1064.47
1063.824
1063.148
1062.445
1061.714
1060.955
1060.154
1059.313
1058.456
1057.588
1056.72
1067.207
1066.695
1066.156
1065.591
1065
1064.382
1063.735
1063.06
1062.357
1061.626
1060.853
1060.043
1059.215
1058.376
1057.533
1067.631
1067.148
1066.638
1066.101
1065.538
1064.949
1064.33
1063.684
1063.009
1062.306
1061.561
1060.778
1059.977
1059.162
1058.339
1068.054
1067.599
1067.117
1066.609
1066.074
1065.513
1064.923
1064.305
1063.659
1062.984
1062.267
1061.509
1060.732
1059.938
1059.133
1055.694
1054.735
1053.761
1052.772
1051.764
1050.715
1049.605
1056.646
1055.71
1054.757
1053.787
1052.802
1051.793
1050.723
1049.534
1057.603
1056.693
1055.762
1054.814
1053.848
1052.863
1051.839
1050.717
1049.343
1058.574
1057.69
1056.785
1055.86
1054.916
1053.953
1052.958
1051.902
1050.684
1048.976
1059.567
1058.712
1057.834
1056.935
1056.015
1055.075
1054.105
1053.09
1051.979
1050.601
1048.484
1060.577
1059.751
1058.902
1058.03
1057.135
1056.22
1055.276
1054.295
1053.247
1052.052
1050.497
1047.882
1061.55
1060.754
1059.933
1059.089
1058.222
1057.332
1056.416
1055.469
1054.473
1053.388
1052.111
1050.386
1047.203
1062.454
1061.688
1060.896
1060.08
1059.24
1058.377
1057.489
1056.572
1055.62
1054.611
1053.48
1052.143
1050.276
1046.641
1063.279
1062.541
1061.778
1060.99
1060.177
1059.342
1058.48
1057.592
1056.675
1055.72
1054.675
1053.516
1052.155
1050.218
1046.304
1064.021
1063.312
1062.578
1061.817
1061.032
1060.223
1059.388
1058.526
1057.639
1056.722
1055.733
1054.668
1053.519
1052.166
1050.232
1046.482
1064.683
1064.003
1063.296
1062.564
1061.806
1061.024
1060.214
1059.379
1058.518
1057.631
1056.68
1055.671
1054.623
1053.497
1052.183
1050.439
1047.107
1065.266
1064.613
1063.935
1063.23
1062.5
1061.744
1060.961
1060.151
1059.316
1058.454
1057.533
1056.562
1055.572
1054.55
1053.461
1052.237
1050.785
1047.885
1065.77
1065.146
1064.495
1063.818
1063.116
1062.387
1061.63
1060.847
1060.036
1059.2
1058.307
1057.367
1056.415
1055.448
1054.458
1053.407
1052.333
1051.131
1048.767
1066.202
1065.606
1064.983
1064.334
1063.659
1062.957
1062.228
1061.47
1060.686
1059.875
1059.009
1058.1
1057.179
1056.249
1055.31
1054.333
1053.372
1052.434
1051.443
1049.695
1066.576
1066.007
1065.412
1064.791
1064.144
1063.47
1062.767
1062.037
1061.279
1060.494
1059.658
1058.778
1057.884
1056.98
1056.072
1055.125
1054.226
1053.363
1052.522
1051.692
1050.627
1066.922
1066.382
1065.815
1065.222
1064.603
1063.956
1063.282
1062.579
1061.848
1061.089
1060.283
1059.429
1058.554
1057.662
1056.757
1067.289
1066.777
1066.239
1065.674
1065.083
1064.465
1063.818
1063.143
1062.44
1061.709
1060.933
1060.112
1059.271
1058.415
1057.551
1067.678
1067.194
1066.684
1066.147
1065.584
1064.995
1064.377
1063.73
1063.056
1062.353
1061.606
1060.817
1060.007
1059.183
1058.349
1068.074
1067.619
1067.137
1066.629
1066.095
1065.533
1064.944
1064.326
1063.679
1063.005
1062.286
1061.526
1060.745
1059.947
1059.138
1068.469
1068.042
1067.588
1067.108
1066.602
1066.069
1065.508
1064.919
1064.301
1063.655
1062.964
1062.23
1061.475
1060.7
1059.911
1056.62
1055.684
1054.73
1053.761
1052.778
1051.778
1050.733
1049.628
1057.546
1056.635
1055.703
1054.755
1053.791
1052.812
1051.808
1050.742
1049.557
1058.476
1057.591
1056.684
1055.758
1054.815
1053.855
1052.873
1051.853
1050.735
1049.369
1059.416
1058.56
1057.68
1056.779
1055.859
1054.92
1053.959
1052.966
1051.915
1050.702
1049.119
1060.378
1059.551
1058.7
1057.826
1056.93
1056.015
1055.076
1054.108
1053.096
1051.989
1050.683
1048.825
1061.357
1060.559
1059.737
1058.89
1058.022
1057.131
1056.216
1055.274
1054.294
1053.249
1052.082
1050.627
1048.229
1062.299
1061.531
1060.738
1059.92
1059.079
1058.215
1057.326
1056.411
1055.464
1054.47
1053.383
1052.144
1050.5
1047.51
1063.174
1062.435
1061.671
1060.882
1060.069
1059.232
1058.369
1057.481
1056.565
1055.614
1054.585
1053.46
1052.165
1050.381
1046.903
1063.969
1063.26
1062.525
1061.764
1060.979
1060.169
1059.333
1058.471
1057.584
1056.667
1055.683
1054.627
1053.494
1052.174
1050.315
1046.774
1064.683
1064.003
1063.296
1062.564
1061.806
1061.024
1060.214
1059.379
1058.518
1057.631
1056.68
1055.671
1054.623
1053.497
1052.183
1050.439
1047.107
1065.317
1064.665
1063.987
1063.282
1062.553
1061.797
1061.014
1060.205
1059.37
1058.509
1057.587
1056.612
1055.616
1054.584
1053.48
1052.225
1050.712
1047.636
1065.872
1065.248
1064.598
1063.921
1063.219
1062.491
1061.735
1060.952
1060.143
1059.307
1058.411
1057.465
1056.505
1055.528
1054.519
1053.432
1052.302
1051.004
1048.319
1066.349
1065.753
1065.131
1064.482
1063.808
1063.107
1062.378
1061.622
1060.838
1060.028
1059.159
1058.242
1057.312
1056.371
1055.415
1054.403
1053.388
1052.389
1051.291
1049.102
1066.754
1066.186
1065.592
1064.971
1064.324
1063.651
1062.949
1062.22
1061.463
1060.679
1059.838
1058.95
1058.049
1057.137
1056.216
1055.246
1054.287
1053.37
1052.474
1051.547
1049.934
1067.1
1066.56
1065.994
1065.401
1064.782
1064.137
1063.463
1062.76
1062.03
1061.272
1060.461
1059.603
1058.727
1057.839
1056.942
1055.99
1055.085
1054.215
1053.368
1052.546
1051.749
1050.765
1067.42
1066.908
1066.37
1065.805
1065.214
1064.596
1063.95
1063.275
1062.573
1061.842
1061.061
1060.228
1059.37
1058.49
1057.591
1067.759
1067.276
1066.766
1066.23
1065.667
1065.077
1064.459
1063.813
1063.138
1062.435
1061.685
1060.886
1060.063
1059.222
1058.368
1068.12
1067.665
1067.183
1066.675
1066.14
1065.579
1064.99
1064.372
1063.726
1063.051
1062.331
1061.564
1060.775
1059.968
1059.148
1068.489
1068.062
1067.609
1067.129
1066.622
1066.09
1065.528
1064.939
1064.321
1063.675
1062.983
1062.247
1061.488
1060.709
1059.916