/*--------------------------------*- C++ -*----------------------------------*\
| =========                 |                                                 |
| \\      /  F ield         | OpenFOAM: The Open Source CFD Toolbox           |
|  \\    /   O peration     | Version:  2306                                  |
|   \\  /    A nd           | Website:  www.openfoam.com                      |
|    \\/     M anipulation  |                                                 |
\*---------------------------------------------------------------------------*/
FoamFile
{
    version     2.0;
    format      ascii;
    arch        "LSB;label=32;scalar=64";
    class       volVectorField;
    location    "0.3/fuel";
    object      U;
}
// * * * * * * * * * * * * * * * * * * * * * * * * * * * * * * * * * * * * * //

dimensions      [0 1 -1 0 0 0 0];

internalField   nonuniform List<vector> 
16000
(
(9.726126e-05 7.006741e-05 -0.004636749)
(9.727357e-05 0.0001928834 -0.004706423)
(0.0001743313 6.982482e-05 -0.003801551)
(9.521022e-05 7.458666e-05 -0.01467486)
(9.761096e-05 0.0003428242 -0.004847604)
(0.0001735738 0.0001959682 -0.003841961)
(9.510751e-05 0.0002036804 -0.0148934)
(0.0001348025 6.195717e-05 -0.003124416)
(0.000170439 7.302396e-05 -0.0120496)
(8.812701e-05 8.099079e-05 -0.02174283)
(9.746518e-05 0.0004261256 -0.005064633)
(0.0001725569 0.0003439677 -0.00392234)
(9.520987e-05 0.0003613473 -0.01533603)
(0.000133263 0.0001748105 -0.003151499)
(0.0001695027 0.0002032256 -0.01217663)
(8.777795e-05 0.000221621 -0.02206436)
(0.0001006222 5.402521e-05 -0.002628675)
(0.0001317789 6.440141e-05 -0.009916691)
(0.0001575134 7.688e-05 -0.01787328)
(7.968663e-05 8.620897e-05 -0.03566954)
(9.894913e-05 0.0006235042 -0.005349893)
(0.0001698433 0.000438231 -0.004042733)
(9.468256e-05 0.0004513941 -0.01601646)
(0.0001305081 0.0003049358 -0.003204906)
(0.0001681246 0.0003562604 -0.0124292)
(8.736925e-05 0.0003918039 -0.0227155)
(9.920419e-05 0.0001528119 -0.002648309)
(0.0001301376 0.0001801978 -0.01000197)
(0.0001562175 0.0002135813 -0.01806048)
(7.904867e-05 0.0002425035 -0.03619479)
(7.651872e-05 4.747339e-05 -0.002256185)
(9.839522e-05 5.598086e-05 -0.008352668)
(0.0001217279 6.705881e-05 -0.01472444)
(0.0001425106 7.953628e-05 -0.02934375)
(6.603628e-05 0.000107437 -0.02898822)
(9.660138e-05 0.0004969317 -0.005672409)
(0.0001690681 0.000612803 -0.004194561)
(9.566144e-05 0.0006553556 -0.01691065)
(0.0001254663 0.0003903342 -0.003283975)
(0.0001648306 0.0004545478 -0.01280765)
(8.603116e-05 0.0004940219 -0.02371638)
(9.660596e-05 0.0002656627 -0.002686792)
(0.0001271816 0.0003140212 -0.01017009)
(0.0001540996 0.0003734835 -0.01843269)
(7.804084e-05 0.0004272595 -0.03725813)
(7.535307e-05 0.0001344841 -0.002271108)
(9.691113e-05 0.0001570317 -0.008414577)
(0.00011991 0.0001871317 -0.01485028)
(0.0001407975 0.0002256694 -0.0296498)
(6.474828e-05 0.0003002311 -0.02941401)
(6.010375e-05 4.213214e-05 -0.001966975)
(7.482024e-05 4.90896e-05 -0.007176005)
(9.094126e-05 5.795278e-05 -0.01241265)
(0.0001100498 6.864315e-05 -0.0241921)
(0.000117311 9.389645e-05 -0.0238526)
(0.0005642321 0.0009820375 -0.05775269)
(9.956461e-05 0.000146844 -0.005905055)
(0.000161288 0.0005006405 -0.004360319)
(9.267149e-05 0.0005250365 -0.01792358)
(0.0001208094 0.0005363341 -0.003381678)
(0.0001633044 0.0006330866 -0.01328506)
(8.589392e-05 0.0007068907 -0.02503149)
(9.20605e-05 0.0003407931 -0.002743277)
(0.000121823 0.0004022558 -0.01041911)
(0.0001496451 0.0004778987 -0.01899049)
(7.575264e-05 0.0005436288 -0.03889369)
(7.319899e-05 0.0002332477 -0.002300223)
(9.418377e-05 0.000272761 -0.008535873)
(0.0001165984 0.0003254479 -0.01509836)
(0.0001378212 0.0003935958 -0.03025801)
(6.240684e-05 0.0005261057 -0.03027703)
(5.914777e-05 0.0001194759 -0.001978698)
(7.360859e-05 0.000137913 -0.007223114)
(8.935338e-05 0.0001620545 -0.01250409)
(0.0001080266 0.0001952433 -0.02439799)
(0.0001146067 0.000263474 -0.02410057)
(0.0005516371 0.002786567 -0.05860324)
(4.842587e-05 3.77232e-05 -0.001736344)
(5.876989e-05 4.34997e-05 -0.006261461)
(6.913161e-05 5.06204e-05 -0.01067173)
(8.227377e-05 5.897532e-05 -0.0204075)
(9.037926e-05 7.932769e-05 -0.01966976)
(0.001003476 0.0008516073 -0.04752223)
(0.0005793103 0.001013057 -0.04075447)
(0.000101186 7.888063e-05 -0.006049389)
(0.0001635833 0.0001907848 -0.004471779)
(9.51999e-05 0.0001634625 -0.01865107)
(0.0001106477 0.0004402783 -0.00348687)
(0.0001545728 0.0005179059 -0.01380801)
(8.159538e-05 0.0005718474 -0.02652172)
(8.756022e-05 0.0004638927 -0.002812006)
(0.0001167782 0.0005511123 -0.01072698)
(0.0001465471 0.0006603901 -0.01969425)
(7.430871e-05 0.000766856 -0.04104428)
(6.949166e-05 0.0002995666 -0.002342666)
(8.943596e-05 0.0003500391 -0.008714026)
(0.0001106976 0.000417516 -0.01546593)
(0.0001320203 0.0005051619 -0.03117022)
(5.796562e-05 0.0006792612 -0.03160439)
(5.737254e-05 0.0002068367 -0.002001485)
(7.136515e-05 0.0002390062 -0.007314982)
(8.641885e-05 0.0002809826 -0.01268328)
(0.0001043014 0.000338823 -0.02480361)
(0.0001096174 0.0004574431 -0.02459415)
(0.0005282779 0.004879049 -0.0603239)
(4.763192e-05 0.0001070508 -0.001745793)
(5.778024e-05 0.0001223371 -0.006298503)
(6.785224e-05 0.0001417285 -0.01074138)
(8.056499e-05 0.0001679408 -0.02055721)
(8.780793e-05 0.0002228674 -0.01983653)
(0.0009776996 0.002422499 -0.04801785)
(0.0005657023 0.002950405 -0.04135842)
(3.991378e-05 3.403575e-05 -0.001548316)
(4.735235e-05 3.890164e-05 -0.005531481)
(5.429582e-05 4.472623e-05 -0.009317551)
(6.251243e-05 5.130698e-05 -0.01755585)
(6.769745e-05 6.736323e-05 -0.01659657)
(0.0007726644 0.0007171553 -0.03919268)
(0.001034572 0.0008772388 -0.03352036)
(0.0005657144 0.001047698 -0.04523601)
(0.0001025832 1.902479e-05 -0.006128015)
(0.000164553 0.0001075594 -0.004538525)
(9.65418e-05 8.852837e-05 -0.01910181)
(0.0001089696 0.0001784611 -0.003554053)
(0.0001562506 0.0002002394 -0.0141579)
(8.312354e-05 0.00019486 -0.02759029)
(7.89908e-05 0.0003815638 -0.002885316)
(0.0001061242 0.0004526456 -0.01105983)
(0.0001359986 0.0005416864 -0.02046576)
(6.84785e-05 0.0006262899 -0.04348923)
(6.572834e-05 0.0004051799 -0.00239365)
(8.469374e-05 0.000475342 -0.008930927)
(0.0001049489 0.0005686982 -0.0159205)
(0.0001270991 0.000692273 -0.0323219)
(5.364249e-05 0.0009368929 -0.03335147)
(5.434656e-05 0.0002658312 -0.002034516)
(6.751829e-05 0.0003070277 -0.007449)
(8.135858e-05 0.0003608938 -0.01294652)
(9.776993e-05 0.0004353768 -0.02540513)
(0.0001005977 0.0005903087 -0.0253342)
(0.0004846705 0.006313995 -0.06297805)
(4.615279e-05 0.0001850492 -0.001764107)
(5.593989e-05 0.0002116367 -0.006370472)
(6.547452e-05 0.0002452184 -0.0108772)
(7.738903e-05 0.0002906245 -0.02085034)
(8.299516e-05 0.000385249 -0.0201657)
(0.0009295083 0.004202869 -0.04900155)
(0.0005403681 0.005165255 -0.04258018)
(3.924553e-05 9.663771e-05 -0.001556092)
(4.653282e-05 0.0001094876 -0.005561365)
(5.32592e-05 0.0001253332 -0.009372351)
(6.115406e-05 0.0001462068 -0.01766994)
(6.563938e-05 0.0001893396 -0.01671781)
(0.0007488299 0.002041409 -0.03952619)
(0.001007009 0.002557377 -0.03387245)
(0.0005515033 0.00300177 -0.04590852)
(3.347666e-05 3.090924e-05 -0.001392261)
(3.90332e-05 3.506601e-05 -0.004935855)
(4.374555e-05 3.99089e-05 -0.008235898)
(4.908697e-05 4.519663e-05 -0.01533654)
(5.135862e-05 5.813394e-05 -0.01428067)
(0.0005790475 0.000607828 -0.03307391)
(0.0007964534 0.000738265 -0.02763508)
(0.00100668 0.0009024886 -0.03719943)
(0.0005521669 0.001054391 -0.04593614)
(0.0001031822 6.391838e-06 -0.006162019)
(0.0001659505 3.809123e-05 -0.004573978)
(9.77909e-05 2.360061e-05 -0.01934724)
(0.0001075256 0.0001017425 -0.003592986)
(0.0001568253 0.0001129383 -0.01436731)
(8.383197e-05 0.0001068974 -0.02825184)
(7.692978e-05 0.0001592718 -0.002930092)
(0.0001041624 0.0001849292 -0.0112712)
(0.000136312 0.0002153963 -0.02098141)
(6.88385e-05 0.0002313408 -0.04523429)
(5.89209e-05 0.0003336074 -0.002447673)
(7.581462e-05 0.0003910383 -0.00916339)
(9.351081e-05 0.0004675838 -0.01641242)
(0.0001144431 0.0005694532 -0.03358969)
(4.421115e-05 0.0007770287 -0.03533416)
(5.123086e-05 0.0003578269 -0.002073755)
(6.359067e-05 0.0004144178 -0.007610096)
(7.621798e-05 0.0004877188 -0.01326714)
(9.120265e-05 0.0005892868 -0.02614951)
(9.146366e-05 0.0007973345 -0.02626942)
(0.0004407642 0.008675867 -0.06647119)
(4.364896e-05 0.0002379253 -0.001790527)
(5.281246e-05 0.0002720253 -0.00647487)
(6.142684e-05 0.0003151521 -0.01107541)
(7.196449e-05 0.0003736234 -0.02128141)
(7.475983e-05 0.0004965316 -0.02065361)
(0.0008431471 0.005428652 -0.05048208)
(0.0004932973 0.006689245 -0.04449046)
(3.799777e-05 0.0001668407 -0.001571129)
(4.500442e-05 0.0001891345 -0.005619253)
(5.132624e-05 0.0002164935 -0.00947883)
(5.861963e-05 0.0002525157 -0.01789226)
(6.177715e-05 0.0003264799 -0.01695571)
(0.0007038695 0.003526519 -0.04018215)
(0.0009553616 0.004436375 -0.03457151)
(0.0005249227 0.005253944 -0.04726873)
(3.290726e-05 8.779526e-05 -0.001398769)
(3.834496e-05 9.874705e-05 -0.004960468)
(4.289211e-05 0.0001119021 -0.008280135)
(4.79955e-05 0.0001288546 -0.01542636)
(4.975962e-05 0.0001634373 -0.01437304)
(0.0005601233 0.001730642 -0.03331653)
(0.000771191 0.002152481 -0.02787212)
(0.0009781781 0.002589495 -0.03759164)
(0.0005373403 0.003055593 -0.04662484)
(2.851395e-05 2.822989e-05 -0.00126083)
(3.274274e-05 3.182044e-05 -0.004441134)
(3.606622e-05 3.590973e-05 -0.007352772)
(3.954436e-05 4.02343e-05 -0.01356299)
(4.029957e-05 5.089954e-05 -0.01247803)
(0.0004391296 0.0005238392 -0.02846317)
(0.0005969776 0.0006253749 -0.02331403)
(0.0007747345 0.0007578818 -0.03066394)
(0.0009840743 0.0009051638 -0.03776371)
(0.0005790152 0.001179269 -0.03883827)
(0.0001031822 -6.391841e-06 -0.006162019)
(0.0001665394 1.20738e-05 -0.004589075)
(9.832542e-05 7.773149e-06 -0.01945334)
(0.000107364 3.845772e-05 -0.003613033)
(0.0001580163 4.055471e-05 -0.01447862)
(8.473243e-05 3.278421e-05 -0.02861191)
(7.533602e-05 9.129856e-05 -0.002955231)
(0.0001025377 0.0001053665 -0.01139364)
(0.0001360286 0.0001215882 -0.02129002)
(6.880798e-05 0.0001282303 -0.04631336)
(5.707676e-05 0.0001418114 -0.0024793)
(7.358698e-05 0.0001640633 -0.009304449)
(9.098964e-05 0.0001940707 -0.01672456)
(0.0001131758 0.0002330868 -0.03443188)
(4.207972e-05 0.0003222955 -0.03675386)
(4.576455e-05 0.0002947815 -0.002115133)
(5.657164e-05 0.0003411882 -0.007781695)
(6.690088e-05 0.0004013388 -0.01361112)
(7.885204e-05 0.0004850757 -0.02695899)
(7.355957e-05 0.0006591849 -0.0272954)
(0.0003499651 0.007213426 -0.0705053)
(4.104611e-05 0.0003190532 -0.001821605)
(4.957867e-05 0.000365499 -0.006598979)
(5.724668e-05 0.000423604 -0.01131375)
(6.63596e-05 0.0005022386 -0.02180675)
(6.607759e-05 0.0006644702 -0.02125798)
(0.0007539601 0.00731268 -0.05235184)
(0.0004454346 0.009185762 -0.04698582)
(3.589688e-05 0.0002145634 -0.001592732)
(4.242396e-05 0.0002431805 -0.005702825)
(4.806127e-05 0.0002783257 -0.00963334)
(5.433745e-05 0.0003246961 -0.018217)
(5.528366e-05 0.0004204691 -0.01730534)
(0.0006272251 0.004547618 -0.0411589)
(0.0008630275 0.005732049 -0.03564444)
(0.0004758352 0.006812218 -0.04940476)
(3.184228e-05 0.0001514138 -0.001411329)
(3.705877e-05 0.0001703756 -0.005008031)
(4.129714e-05 0.0001930344 -0.008365835)
(4.595432e-05 0.0002222073 -0.01560073)
(4.67554e-05 0.0002813295 -0.01455348)
(0.0005243755 0.002982383 -0.03379063)
(0.0007234888 0.003718066 -0.02833861)
(0.0009246116 0.004491143 -0.03837015)
(0.0005094859 0.005347402 -0.04801457)
(2.802356e-05 8.020884e-05 -0.001266354)
(3.21573e-05 8.964496e-05 -0.004461747)
(3.535266e-05 0.0001007343 -0.007389226)
(3.865127e-05 0.0001147438 -0.01363554)
(3.903341e-05 0.0001431196 -0.01255075)
(0.0004244795 0.001491696 -0.02864815)
(0.0005769719 0.001823567 -0.02348655)
(0.0007489772 0.002175269 -0.03092807)
(0.0009546632 0.00262492 -0.03816613)
(0.0005621869 0.003385483 -0.03941563)
(2.459508e-05 2.590923e-05 -0.001148736)
(2.789433e-05 2.904359e-05 -0.004024185)
(3.026168e-05 3.25385e-05 -0.006618837)
(3.260879e-05 3.613481e-05 -0.01211428)
(3.245072e-05 4.509502e-05 -0.01103726)
(0.0003445121 0.0004581746 -0.02487427)
(0.000452667 0.0005387313 -0.02005931)
(0.0005808803 0.0006412889 -0.02586674)
(0.0007571206 0.0007590366 -0.03112173)
(0.00102905 0.001006585 -0.03191893)
(0.004803761 0.01097443 -0.1019364)
(0.0001025832 -1.902478e-05 -0.006128015)
(0.0001665394 -1.20738e-05 -0.004589075)
(9.832542e-05 -7.773152e-06 -0.01945334)
(0.0001072785 1.212706e-05 -0.003621369)
(0.0001585154 1.281588e-05 -0.01452604)
(8.511558e-05 1.052741e-05 -0.02876752)
(7.491728e-05 3.552946e-05 -0.002967748)
(0.0001022851 4.007072e-05 -0.01145678)
(0.0001367491 4.481257e-05 -0.02145413)
(6.930227e-05 4.344246e-05 -0.04690046)
(5.568955e-05 8.156517e-05 -0.002496487)
(7.18876e-05 9.39501e-05 -0.009383616)
(8.901882e-05 0.0001104461 -0.01690544)
(0.0001118991 0.0001316862 -0.03493545)
(4.046225e-05 0.0001810106 -0.03763121)
(4.418355e-05 0.0001269015 -0.002138371)
(5.461889e-05 0.0001455419 -0.007881413)
(6.437171e-05 0.0001701343 -0.01381971)
(7.568065e-05 0.0002047755 -0.02746888)
(6.879556e-05 0.0002833382 -0.02798079)
(0.0003263388 0.003045262 -0.07332174)
(3.657769e-05 0.0002629107 -0.001854265)
(4.395944e-05 0.0003010363 -0.006730605)
(4.995276e-05 0.0003486948 -0.01156789)
(5.65316e-05 0.0004134275 -0.02237345)
(5.110067e-05 0.0005481129 -0.02191217)
(0.000584633 0.006051222 -0.05445565)
(0.0003479551 0.007642245 -0.05015008)
(3.369793e-05 0.0002868431 -0.00161792)
(3.973276e-05 0.0003255666 -0.005801208)
(4.465652e-05 0.0003725741 -0.009817094)
(4.98625e-05 0.0004343998 -0.01860773)
(4.838257e-05 0.0005597337 -0.01773183)
(0.0005458385 0.006072138 -0.04236761)
(0.0007671381 0.007718847 -0.03698749)
(0.0004252472 0.009345895 -0.052192)
(3.005688e-05 0.000194746 -0.00142931)
(3.489818e-05 0.0002190991 -0.005076419)
(3.86184e-05 0.0002482038 -0.0084896)
(4.252852e-05 0.0002857385 -0.01585402)
(4.174441e-05 0.0003621139 -0.01481686)
(0.0004644314 0.003842219 -0.03449104)
(0.0006422502 0.004795546 -0.02905023)
(0.0008292049 0.005805822 -0.0395724)
(0.0004583206 0.006940759 -0.05022627)
(2.710522e-05 0.0001382037 -0.001277001)
(3.106162e-05 0.0001545127 -0.004501504)
(3.401699e-05 0.0001735755 -0.007459681)
(3.697843e-05 0.0001976289 -0.01377594)
(3.665285e-05 0.0002460299 -0.01269229)
(0.0003967871 0.002566262 -0.0290078)
(0.0005391531 0.003142281 -0.02382392)
(0.0007002863 0.003756778 -0.03144773)
(0.0008992303 0.004552021 -0.03896249)
(0.0005302112 0.005924034 -0.04059145)
(2.416868e-05 7.36321e-05 -0.001153483)
(2.739086e-05 8.184845e-05 -0.004041694)
(2.965684e-05 9.130838e-05 -0.006649382)
(3.186561e-05 0.0001030758 -0.0121741)
(3.142601e-05 0.00012681 -0.01109599)
(0.0003329391 0.001304804 -0.02502)
(0.0004371977 0.001571045 -0.0201909)
(0.0005605687 0.001840847 -0.02605904)
(0.0007308597 0.002201242 -0.03139316)
(0.0009960114 0.002891701 -0.03225468)
(0.004645703 0.03166122 -0.1036301)
(2.145622e-05 2.388261e-05 -0.001052098)
(2.4066e-05 2.664175e-05 -0.003668348)
(2.579098e-05 2.966298e-05 -0.005999953)
(2.736938e-05 3.269221e-05 -0.01090977)
(2.677121e-05 4.034447e-05 -0.009860187)
(0.0002773841 0.0004055918 -0.02200565)
(0.0003551098 0.0004710431 -0.01752675)
(0.0004403658 0.000552031 -0.02225407)
(0.0005678479 0.0006416927 -0.02624827)
(0.0007913952 0.0008420582 -0.02629864)
(0.008524946 0.009273544 -0.0837326)
(0.0049447 0.01091442 -0.0104495)
(0.000101186 -7.888063e-05 -0.006049389)
(0.0001659505 -3.809123e-05 -0.004573978)
(9.77909e-05 -2.360061e-05 -0.01934724)
(0.0001072785 -1.212706e-05 -0.003621369)
(0.0001585154 -1.281588e-05 -0.01452604)
(8.511558e-05 -1.052741e-05 -0.02876752)
(7.472127e-05 1.118679e-05 -0.002972808)
(0.0001021599 1.261067e-05 -0.01148305)
(0.000137044 1.408339e-05 -0.02152406)
(6.950916e-05 1.372372e-05 -0.04715418)
(5.526457e-05 3.230309e-05 -0.002504724)
(7.141725e-05 3.668114e-05 -0.009423105)
(8.857692e-05 4.251518e-05 -0.0169988)
(0.0001120753 4.978162e-05 -0.03520329)
(4.01112e-05 6.874839e-05 -0.0381085)
(4.301063e-05 7.315869e-05 -0.00215057)
(5.316311e-05 8.36075e-05 -0.007935569)
(6.248864e-05 9.722955e-05 -0.01393684)
(7.330732e-05 0.0001163985 -0.02776411)
(6.529994e-05 0.0001602814 -0.02839044)
(0.0003089869 0.001713265 -0.07505941)
(3.522713e-05 0.0001142249 -0.00187187)
(4.230291e-05 0.0001299094 -0.006803911)
(4.781612e-05 0.0001498039 -0.01171549)
(5.365097e-05 0.0001772628 -0.02271421)
(4.635681e-05 0.0002384335 -0.02232738)
(0.0005357498 0.002623853 -0.05580616)
(0.0003216002 0.003239041 -0.05205767)
(2.998434e-05 0.0002363934 -0.001644328)
(3.514925e-05 0.0002681932 -0.005905235)
(3.885264e-05 0.0003067209 -0.01001218)
(4.224733e-05 0.0003575222 -0.01902688)
(3.693352e-05 0.0004610237 -0.01818931)
(0.0004073534 0.005011009 -0.04371792)
(0.0005865982 0.006388314 -0.03872123)
(0.0003242626 0.007783366 -0.05584296)
(2.817859e-05 0.0002596855 -0.001450111)
(3.263095e-05 0.0002924693 -0.00515622)
(3.580627e-05 0.0003311757 -0.008635355)
(3.892392e-05 0.0003809024 -0.0161554)
(3.639934e-05 0.0004802973 -0.01513406)
(0.0004004299 0.005104693 -0.03534445)
(0.0005558039 0.006401943 -0.0299222)
(0.000729249 0.007814518 -0.04107572)
(0.0004049734 0.009517576 -0.05309655)
(2.55712e-05 0.0001777637 -0.001292195)
(2.922854e-05 0.0001987143 -0.004558467)
(3.178373e-05 0.0002231949 -0.007561014)
(3.418462e-05 0.0002541227 -0.01397893)
(3.270202e-05 0.0003165287 -0.01289771)
(0.0003506994 0.003303798 -0.02953582)
(0.0004757775 0.004048731 -0.02433653)
(0.0006174947 0.004847039 -0.03224647)
(0.000800802 0.005887352 -0.04021567)
(0.000471872 0.00770078 -0.0424513)
(2.336943e-05 0.0001267708 -0.00116262)
(2.644749e-05 0.0001409504 -0.004075415)
(2.852336e-05 0.0001571844 -0.006708304)
(3.047199e-05 0.0001773502 -0.01228958)
(2.949844e-05 0.0002177613 -0.01120997)
(0.0003110537 0.00224184 -0.02530216)
(0.0004079388 0.002702596 -0.020447)
(0.0005221446 0.003171575 -0.02643497)
(0.0006811546 0.003801288 -0.03192526)
(0.0009332226 0.005014154 -0.03292761)
(0.00432568 0.05535544 -0.1068878)
(2.108244e-05 6.788459e-05 -0.001056219)
(2.362874e-05 7.509862e-05 -0.003683401)
(2.527231e-05 8.326103e-05 -0.006025911)
(2.674181e-05 9.327059e-05 -0.01095992)
(2.59258e-05 0.000113458 -0.009908603)
(0.0002680349 0.001155104 -0.02212342)
(0.0003428991 0.001373717 -0.01763048)
(0.0004246899 0.001584717 -0.02240081)
(0.0005472152 0.001861019 -0.02644614)
(0.0007623507 0.002419212 -0.02652429)
(0.008218827 0.02674741 -0.08475734)
(0.004788151 0.03182617 -0.01089233)
(1.88986e-05 2.209862e-05 -0.0009680071)
(2.100017e-05 2.45466e-05 -0.003361383)
(2.226175e-05 2.718213e-05 -0.005471519)
(2.333812e-05 2.976501e-05 -0.009893638)
(2.248806e-05 3.638484e-05 -0.008881368)
(0.0002288631 0.0003626237 -0.01966189)
(0.000285905 0.0004168729 -0.01550303)
(0.0003454257 0.0004824005 -0.01944341)
(0.0004304015 0.0005520237 -0.02257928)
(0.0005938306 0.0007109566 -0.02217647)
(0.006550757 0.007724565 -0.06896072)
(0.008799977 0.009247622 -0.008540001)
(0.00477629 0.0112178 -0.03004535)
(9.956461e-05 -0.000146844 -0.005905055)
(0.000164553 -0.0001075594 -0.004538525)
(9.65418e-05 -8.852836e-05 -0.01910181)
(0.000107364 -3.845772e-05 -0.003613033)
(0.0001580163 -4.055471e-05 -0.01447862)
(8.473243e-05 -3.278421e-05 -0.02861191)
(7.472127e-05 -1.118679e-05 -0.002972808)
(0.0001021599 -1.261067e-05 -0.01148305)
(0.000137044 -1.408339e-05 -0.02152406)
(6.950916e-05 -1.372373e-05 -0.04715418)
(5.506787e-05 1.016443e-05 -0.00250794)
(7.119878e-05 1.153037e-05 -0.009439084)
(8.836947e-05 1.332855e-05 -0.01703769)
(0.0001121343 1.556315e-05 -0.03531747)
(3.995101e-05 2.134918e-05 -0.03831479)
(4.262378e-05 2.932158e-05 -0.002156164)
(5.270545e-05 3.317066e-05 -0.007961577)
(6.191894e-05 3.821747e-05 -0.01399534)
(7.264554e-05 4.537942e-05 -0.02791655)
(6.4306e-05 6.308323e-05 -0.02860838)
(0.0003043025 0.0006602665 -0.07600469)
(3.423382e-05 6.595474e-05 -0.001880784)
(4.10825e-05 7.479007e-05 -0.006842356)
(4.625001e-05 8.583926e-05 -0.01179571)
(5.155368e-05 0.0001010848 -0.02290536)
(4.299003e-05 0.0001352314 -0.02256774)
(0.0005005166 0.001484547 -0.05661082)
(0.0003024064 0.001823084 -0.0532267)
(2.882579e-05 0.0001034168 -0.001658003)
(3.374377e-05 0.000116716 -0.005960793)
(3.707588e-05 0.0001330165 -0.01012076)
(3.989593e-05 0.0001548209 -0.01926799)
(3.314348e-05 0.0002017631 -0.01846696)
(0.0003621129 0.002192596 -0.04453201)
(0.0005333638 0.002773728 -0.03960575)
(0.0002955521 0.003319201 -0.05792975)
(2.504731e-05 0.0002140108 -0.001471887)
(2.882794e-05 0.0002409372 -0.005240432)
(3.109299e-05 0.0002726296 -0.008789623)
(3.290394e-05 0.000313418 -0.01647746)
(2.769066e-05 0.000395146 -0.01547207)
(0.0002952547 0.004205203 -0.03629437)
(0.0004091852 0.005283191 -0.03107604)
(0.000543483 0.006468985 -0.043107)
(0.000300271 0.007932717 -0.05717017)
(2.395106e-05 0.0002365304 -0.001309646)
(2.729609e-05 0.0002646126 -0.004624413)
(2.94279e-05 0.0002970211 -0.007679305)
(3.123097e-05 0.0003377881 -0.0142181)
(2.847817e-05 0.0004186739 -0.01314238)
(0.0003013672 0.004374176 -0.03017092)
(0.0004080214 0.005378412 -0.02495454)
(0.0005290957 0.006469032 -0.03322419)
(0.0006969186 0.007923413 -0.04177263)
(0.0004101456 0.01055732 -0.04487691)
(2.203837e-05 0.0001630581 -0.001175625)
(2.487462e-05 0.000181275 -0.00412358)
(2.663502e-05 0.000202115 -0.00679275)
(2.815354e-05 0.0002280275 -0.01245585)
(2.631136e-05 0.0002800453 -0.01137459)
(0.0002748046 0.002884511 -0.0257143)
(0.0003592701 0.003479613 -0.02083511)
(0.0004578227 0.004087361 -0.02701117)
(0.0005967474 0.004905989 -0.03276209)
(0.0008221728 0.006489712 -0.03397741)
(0.003750512 0.07215638 -0.112835)
(2.038129e-05 0.0001167936 -0.001064146)
(2.280874e-05 0.0001292274 -0.003712359)
(2.429945e-05 0.0001432142 -0.00607591)
(2.556402e-05 0.0001603399 -0.01105653)
(2.433498e-05 0.0001946625 -0.01000236)
(0.0002503497 0.001982578 -0.02235069)
(0.0003197953 0.002360108 -0.01783154)
(0.0003950248 0.002725745 -0.02268627)
(0.0005081486 0.003206092 -0.02683141)
(0.0007070626 0.004177449 -0.02697351)
(0.007606756 0.04634386 -0.08666015)
(0.004470736 0.05608941 -0.01178542)
(1.856846e-05 6.282231e-05 -0.000971618)
(2.061725e-05 6.920637e-05 -0.00337446)
(2.181237e-05 7.631297e-05 -0.005493845)
(2.280164e-05 8.492912e-05 -0.009936274)
(2.177911e-05 0.0001023264 -0.008921952)
(0.0002211611 0.001032755 -0.01975905)
(0.0002760465 0.001215764 -0.0155869)
(0.0003330674 0.001384865 -0.01955911)
(0.0004145042 0.001600997 -0.02273047)
(0.0005711213 0.00204254 -0.02234047)
(0.006288442 0.02227454 -0.06966999)
(0.008495499 0.02695646 -0.008860489)
(0.00461203 0.03248339 -0.03090587)
(1.679027e-05 2.05171e-05 -0.0008942228)
(1.850217e-05 2.270405e-05 -0.003094119)
(1.943678e-05 2.502265e-05 -0.005015452)
(2.0157e-05 2.724619e-05 -0.009025651)
(1.920282e-05 3.303881e-05 -0.008055501)
(0.0001922871 0.0003268538 -0.01771269)
(0.0002359021 0.0003726304 -0.01384997)
(0.0002780912 0.0004267348 -0.01719772)
(0.0003375802 0.0004821561 -0.01972547)
(0.0004499646 0.0006110604 -0.01907404)
(0.004921151 0.00650595 -0.05813434)
(0.00676398 0.007711777 -0.007009091)
(0.008479871 0.009460518 -0.02462939)
(0.004733067 0.01128897 -0.01109118)
(9.660138e-05 -0.0004969317 -0.005672409)
(0.0001635833 -0.0001907848 -0.004471779)
(9.51999e-05 -0.0001634625 -0.01865107)
(0.0001075256 -0.0001017425 -0.003592986)
(0.0001568253 -0.0001129383 -0.01436731)
(8.383197e-05 -0.0001068974 -0.02825184)
(7.491728e-05 -3.552946e-05 -0.002967748)
(0.0001022851 -4.007072e-05 -0.01145678)
(0.0001367491 -4.481257e-05 -0.02145413)
(6.930227e-05 -4.344246e-05 -0.04690046)
(5.506787e-05 -1.016443e-05 -0.00250794)
(7.119878e-05 -1.153037e-05 -0.009439084)
(8.836947e-05 -1.332855e-05 -0.01703769)
(0.0001121343 -1.556315e-05 -0.03531747)
(3.995101e-05 -2.134918e-05 -0.03831479)
(4.244534e-05 9.22308e-06 -0.002158254)
(5.249457e-05 1.042196e-05 -0.007971741)
(6.165755e-05 1.197377e-05 -0.01401905)
(7.234251e-05 1.417032e-05 -0.02798007)
(6.385688e-05 1.956333e-05 -0.02870131)
(0.0003022002 0.0002046119 -0.07641323)
(3.389064e-05 2.665915e-05 -0.001884667)
(4.067353e-05 3.000064e-05 -0.006860022)
(4.573338e-05 3.418288e-05 -0.01183429)
(5.086814e-05 4.002382e-05 -0.02300088)
(4.18182e-05 5.389692e-05 -0.02269191)
(0.0004895272 0.0005880621 -0.05703862)
(0.0002969497 0.0007054226 -0.05386246)
(2.797881e-05 5.977973e-05 -0.001664666)
(3.271607e-05 6.729504e-05 -0.005988875)
(3.57845e-05 7.636193e-05 -0.01017775)
(3.820083e-05 8.84709e-05 -0.01939885)
(3.04748e-05 0.0001145921 -0.01862273)
(0.0003302318 0.001243084 -0.04500102)
(0.0004951755 0.001569287 -0.04012388)
(0.0002748642 0.00186942 -0.0592019)
(2.404682e-05 9.412404e-05 -0.001482726)
(2.762801e-05 0.0001055243 -0.005283591)
(2.960526e-05 0.0001190493 -0.008871969)
(3.098654e-05 0.0001366829 -0.01665481)
(2.475336e-05 0.0001735979 -0.01566867)
(0.0002597326 0.001848292 -0.03683639)
(0.0003609309 0.002312773 -0.03159342)
(0.000486899 0.002814356 -0.04406124)
(0.0002692556 0.003398045 -0.05920106)
(2.127852e-05 0.0001949144 -0.0013279)
(2.40935e-05 0.0002179763 -0.004693928)
(2.55303e-05 0.000244485 -0.007804251)
(2.636559e-05 0.0002778652 -0.01447301)
(2.167615e-05 0.0003441369 -0.01340184)
(0.0002216139 0.003598701 -0.03087683)
(0.0002969018 0.004430334 -0.02579124)
(0.0003799309 0.005338455 -0.0345906)
(0.0005058428 0.006559921 -0.04412054)
(0.0002915703 0.008807979 -0.04825128)
(2.062822e-05 0.0002165644 -0.001190464)
(2.321063e-05 0.0002408942 -0.004178941)
(2.463577e-05 0.000268377 -0.006890552)
(2.569391e-05 0.0003023946 -0.01265003)
(2.289852e-05 0.0003696039 -0.01156874)
(0.0002359423 0.003809019 -0.02620448)
(0.0003071228 0.004606633 -0.02129674)
(0.0003889035 0.00542898 -0.02770522)
(0.0005063587 0.006548197 -0.03377922)
(0.0007038254 0.008736387 -0.03529012)
(0.003123818 0.09838146 -0.1201497)
(1.921663e-05 0.0001502203 -0.001075401)
(2.144549e-05 0.0001661944 -0.003753609)
(2.268362e-05 0.0001841423 -0.006147345)
(2.361084e-05 0.0002061326 -0.01119516)
(2.17125e-05 0.0002502508 -0.01013721)
(0.0002211615 0.002549715 -0.02268125)
(0.0002815457 0.003036858 -0.01813575)
(0.000345723 0.003509942 -0.02312313)
(0.0004428067 0.004132748 -0.02743768)
(0.0006133321 0.00539408 -0.02767259)
(0.006534387 0.0600571 -0.09025932)
(0.003890301 0.07326213 -0.01623938)
(1.794881e-05 0.000108017 -0.0009785591)
(1.989866e-05 0.0001190079 -0.003399596)
(2.096891e-05 0.00013117 -0.005536801)
(2.179416e-05 0.0001458912 -0.01001829)
(2.044474e-05 0.0001754347 -0.009000403)
(0.0002065885 0.001771077 -0.01994604)
(0.0002573886 0.002086594 -0.01574897)
(0.0003096747 0.002378972 -0.01978331)
(0.0003843983 0.002753581 -0.02302328)
(0.0005279048 0.003518682 -0.0226655)
(0.005767257 0.03843754 -0.07095985)
(0.007885734 0.04706226 -0.009512793)
(0.004279375 0.05801098 -0.03256001)
(1.649684e-05 5.83325e-05 -0.0008974125)
(1.816425e-05 6.402146e-05 -0.003105583)
(1.904404e-05 7.026139e-05 -0.005034855)
(1.969341e-05 7.774844e-05 -0.00906234)
(1.860027e-05 9.291837e-05 -0.008090003)
(0.000185836 0.0009308899 -0.01779419)
(0.0002277843 0.001086741 -0.0139192)
(0.000268123 0.001225069 -0.01729131)
(0.0003250611 0.00139837 -0.01984484)
(0.0004325064 0.001755496 -0.019199)
(0.004717759 0.01875737 -0.05866259)
(0.006501184 0.02247314 -0.007257128)
(0.008163427 0.02738576 -0.02522058)
(0.00456591 0.03279598 -0.01162729)
(1.503076e-05 1.910754e-05 -0.0008290328)
(1.644322e-05 2.1072e-05 -0.00285948)
(1.713546e-05 2.312697e-05 -0.004618198)
(1.761247e-05 2.505846e-05 -0.00827623)
(1.66135e-05 3.017461e-05 -0.007349928)
(0.000164255 0.0002966584 -0.01606791)
(0.0001982147 0.0003358142 -0.01247548)
(0.0002294715 0.0003813077 -0.01536349)
(0.0002717607 0.000426352 -0.01744572)
(0.0003528788 0.0005333555 -0.01666148)
(0.003726773 0.005582172 -0.04999067)
(0.005080032 0.006498986 -0.005892611)
(0.006516348 0.007873863 -0.0202585)
(0.008407815 0.009510197 -0.009075136)
(0.004636121 0.01127326 -0.005676689)
(9.894913e-05 -0.0006235042 -0.005349893)
(0.000161288 -0.0005006405 -0.004360319)
(9.267149e-05 -0.0005250365 -0.01792358)
(0.0001089696 -0.0001784611 -0.003554053)
(0.0001562506 -0.0002002394 -0.0141579)
(8.312354e-05 -0.00019486 -0.02759029)
(7.533602e-05 -9.129856e-05 -0.002955231)
(0.0001025377 -0.0001053665 -0.01139364)
(0.0001360286 -0.0001215882 -0.02129002)
(6.880798e-05 -0.0001282303 -0.04631336)
(5.526457e-05 -3.230309e-05 -0.002504724)
(7.141725e-05 -3.668114e-05 -0.009423105)
(8.857692e-05 -4.251518e-05 -0.0169988)
(0.0001120753 -4.978162e-05 -0.03520329)
(4.01112e-05 -6.874839e-05 -0.0381085)
(4.244534e-05 -9.22308e-06 -0.002158254)
(5.249457e-05 -1.042196e-05 -0.007971741)
(6.165755e-05 -1.197377e-05 -0.01401905)
(7.234251e-05 -1.417032e-05 -0.02798007)
(6.385688e-05 -1.956333e-05 -0.02870131)
(0.0003022002 -0.0002046119 -0.07641323)
(3.373254e-05 8.383484e-06 -0.001886038)
(4.048555e-05 9.423684e-06 -0.006866628)
(4.549723e-05 1.070762e-05 -0.01184939)
(5.055666e-05 1.249568e-05 -0.0230396)
(4.12926e-05 1.671703e-05 -0.02274369)
(0.0004845989 0.0001821382 -0.05722095)
(0.0002945088 0.0002184753 -0.05413664)
(2.76767e-05 2.431459e-05 -0.001667402)
(3.235723e-05 2.720694e-05 -0.006001135)
(3.533815e-05 3.068631e-05 -0.01020399)
(3.761528e-05 3.53771e-05 -0.01946181)
(2.950329e-05 4.597598e-05 -0.01870063)
(0.0003188378 0.0004973382 -0.04524292)
(0.0004829785 0.0006226745 -0.04039812)
(0.0002685991 0.0007279674 -0.05989467)
(2.331864e-05 5.444787e-05 -0.001487801)
(2.675521e-05 6.090589e-05 -0.005304573)
(2.852988e-05 6.843178e-05 -0.00891362)
(2.961202e-05 7.822133e-05 -0.01674773)
(2.269214e-05 9.868329e-05 -0.0157754)
(0.0002348487 0.001049 -0.03713842)
(0.0003269954 0.001310936 -0.03188285)
(0.0004466017 0.001592097 -0.04461379)
(0.0002471055 0.001914741 -0.06042499)
(2.040859e-05 8.608577e-05 -0.001336641)
(2.306091e-05 9.593742e-05 -0.004728141)
(2.427206e-05 0.0001073191 -0.00786825)
(2.478152e-05 0.0001218093 -0.01460747)
(1.935577e-05 0.000151606 -0.01354655)
(0.0001942967 0.001586185 -0.03125895)
(0.0002592112 0.001947241 -0.02612572)