/*--------------------------------*- C++ -*----------------------------------*\
| =========                 |                                                 |
| \\      /  F ield         | OpenFOAM: The Open Source CFD Toolbox           |
|  \\    /   O peration     | Version:  2306                                  |
|   \\  /    A nd           | Website:  www.openfoam.com                      |
|    \\/     M anipulation  |                                                 |
\*---------------------------------------------------------------------------*/
FoamFile
{
    version     2.0;
    format      ascii;
    arch        "LSB;label=32;scalar=64";
    class       volScalarField;
    location    "0.3/fuel";
    object      X.H2O;
}
// * * * * * * * * * * * * * * * * * * * * * * * * * * * * * * * * * * * * * //

dimensions      [0 0 0 0 0 0 0];

internalField   nonuniform List<scalar> 
16000
(
0.07721829
0.07574885
0.09837923
0.07713217
0.07281989
0.09722805
0.07566206
0.1217684
0.09830135
0.07696434
0.06851675
0.09493544
0.07273168
0.1207458
0.09714975
0.07549296
0.1442818
0.1216978
0.09814938
0.07671795
0.06314645
0.09156901
0.06842613
0.1187089
0.09485626
0.07255986
0.1433406
0.1206749
0.09699697
0.07524474
0.1655816
0.1442171
0.1215599
0.09792601
0.0763949
0.05759713
0.08736514
0.0630519
0.1157153
0.09148833
0.06824965
0.1414665
0.1186373
0.09470177
0.07230769
0.1647053
0.1432757
0.1205364
0.09677243
0.0749193
0.1857107
0.1655218
0.1440905
0.1213569
0.0976329
0.07607581
0.05350711
0.08300505
0.05749721
0.1119721
0.08728199
0.06286778
0.1387123
0.1156425
0.09133093
0.06799068
0.162961
0.141401
0.1184975
0.09447474
0.07197711
0.1848899
0.1646452
0.1431486
0.1203325
0.09647781
0.07459788
0.2047635
0.185655
0.1654046
0.1439041
0.1210904
0.09734323
0.07581192
0.05092904
0.07975035
0.05340509
0.1080838
0.08291852
0.05730259
0.1352686
0.1118974
0.08711978
0.06259759
0.1603982
0.1386458
0.1155005
0.09109966
0.06765124
0.1832566
0.1629004
0.1412728
0.1182918
0.09417688
0.07165063
0.2039915
0.184834
0.1645276
0.1429614
0.1200649
0.09618665
0.07433205
0.2228317
0.2047114
0.1855458
0.1652318
0.1436591
0.1208269
0.09710368
0.07555007
0.04946539
0.07766489
0.05082649
0.1051765
0.07966279
0.05320644
0.1316911
0.1080064
0.08274963
0.0570169
0.1571944
0.1352005
0.1117515
0.08688142
0.06224345
0.1808572
0.1603368
0.1385158
0.1152915
0.09079624
0.06731603
0.2024554
0.1832002
0.1627819
0.1410841
0.1180216
0.09388254
0.07138051
0.2221031
0.2039391
0.1847244
0.1643543
0.1427155
0.1198002
0.09594586
0.07406825
0.2399969
0.2227827
0.2046091
0.1853847
0.1650047
0.1434168
0.1206089
0.09686597
0.07529023
0.04880659
0.07646179
0.04936273
0.1033097
0.07757733
0.05062686
0.1290151
0.1050984
0.07949195
0.05291492
0.1538665
0.1316206
0.1078552
0.08250138
0.05664231
0.1778584
0.1571316
0.1350673
0.111537
0.08656869
0.06189369
0.2001994
0.1808002
0.1602167
0.1383244
0.1150171
0.09049643
0.0670382
0.2206538
0.2024027
0.1830899
0.1626073
0.1408362
0.1177546
0.09363903
0.07111233
0.2393075
0.2220539
0.2038365
0.1845628
0.1641264
0.1424722
0.1195813
0.09570691
0.07380649
0.2563321
0.2399508
0.2226865
0.2044582
0.1851729
0.16478
0.1432164
0.1203927
0.09663009
0.07503243
0.04880659
0.07591393
0.04870392
0.1022306
0.07637439
0.04916297
0.1272956
0.1032319
0.07740651
0.05033402
0.1513768
0.1289442
0.1049459
0.07924085
0.05253274
0.1747437
0.1538016
0.1314828
0.1076326
0.08217556
0.05627222
0.1973802
0.1778
0.1570087
0.1348711
0.1112552
0.08625965
0.06160236
0.2185255
0.2001461
0.1806884
0.1600397
0.1380729
0.1147458
0.09024803
0.06676192
0.2379364
0.2206043
0.2022994
0.1829271
0.1623776
0.1405909
0.1175336
0.0933973
0.07084611
0.2556783
0.2392612
0.2219575
0.2036852
0.1843503
0.1639009
0.1422711
0.1193641
0.0954698
0.07354676
0.2719006
0.2562885
0.2398601
0.2225446
0.2042596
0.1849632
0.1645941
0.1430175
0.1201781
0.09639606
0.07379433
0.04946539
0.07591393
0.04870392
0.1017384
0.07582663
0.04850417
0.1263008
0.102153
0.07620391
0.04886997
0.1497761
0.127225
0.1030797
0.07715549
0.04995018
0.1724133
0.1513115
0.1288055
0.1047215
0.07891133
0.05215519
0.1944524
0.1746835
0.1536746
0.1312798
0.1073403
0.08185349
0.05596118
0.2158662
0.1973257
0.1776858
0.1568275
0.1346134
0.1109766
0.08600252
0.06131117
0.235923
0.2184754
0.2000415
0.1805236
0.159807
0.1378241
0.114521
0.09000109
0.06648717
0.2543781
0.2378897
0.2205072
0.202147
0.1827131
0.1621504
0.140388
0.1173143
0.09315734
0.07058185
0.2712793
0.2556345
0.2391702
0.2218151
0.2034859
0.1841399
0.1637143
0.1420714
0.1191486
0.09523454
0.07229949
0.2867584
0.2718592
0.2562027
0.2397261
0.2223577
0.2040629
0.1847897
0.1644097
0.1428202
0.1199652
0.0952711
0.07295078
0.05092904
0.07646179
0.04936273
0.1017384
0.07582663
0.04850417
0.1258468
0.1016609
0.07565635
0.04821121
0.1488495
0.1262304
0.1020013
0.07595341
0.04848599
0.1709146
0.1497111
0.1270867
0.1028558
0.07682612
0.04957104
0.1922617
0.1723528
0.1511838
0.1286011
0.1044267
0.07858563
0.0518378
0.2131047
0.1943962
0.1745655
0.1534873
0.1310129
0.1070511
0.08158341
0.0556475
0.2334077
0.2158151
0.1972189
0.1775172
0.1565893
0.1343584
0.1107448
0.0857458
0.06102015
0.2524691
0.2358759
0.2183772
0.1998873
0.1803068
0.1595767
0.137618
0.1142976
0.08975562
0.06621398
0.270044
0.254334
0.2377982
0.2203639
0.2019465
0.1825012
0.1619624
0.1401866
0.1170966
0.09291916
0.06931247
0.286167
0.2712378
0.2555485
0.2390359
0.2216277
0.2032887
0.1839659
0.1635293
0.1418734
0.1189348
0.09410367
0.07144606
0.3009551
0.2867191
0.271778
0.256076
0.2395497
0.2221726
0.2039003
0.1846176
0.1642268
0.1426245
0.1189412
0.09450583
0.07231597
0.05350711
0.07766489
0.05082649
0.1022306
0.07637439
0.04916297
0.1258468
0.1016609
0.07565635
0.04821121
0.1484264
0.1257765
0.1015095
0.07540618
0.0478273
0.1700466
0.1487848
0.1260926
0.1017781
0.07562476
0.04810675
0.1908524
0.1708544
0.1495839
0.126883
0.1025617
0.0765006
0.04925293
0.2110384
0.1922052
0.1722343
0.1509955
0.1283325
0.1041352
0.07831243
0.05151765
0.2307959
0.213052
0.194286
0.1743915
0.153241
0.1307488
0.1068087
0.08131164
0.05533115
0.2500844
0.2333595
0.2157148
0.1970612
0.1772955
0.1563536
0.1341462
0.1105134
0.0854895
0.06072931
0.2682304
0.2524246
0.2357833
0.2182322
0.1996843
0.1800922
0.1593859
0.1374132
0.1140754
0.08951161
0.06489987
0.2849913
0.2700022
0.2542475
0.2376631
0.2201753
0.2017479
0.1823258
0.1617758
0.1399867
0.1168804
0.09177398
0.06842996
0.3003913
0.2861276
0.2711563
0.2554214
0.238859
0.221442
0.2031255
0.1837932
0.1633456
0.1416768
0.1179062
0.09333176
0.07080088
0.314535
0.3009178
0.2866419
0.2716578
0.2559091
0.2393749
0.2220195
0.2037389
0.1844469
0.1640452
0.1416824
0.1182453
0.09393032
0.07189155
0.05759713
0.07975035
0.05340509
0.1033097
0.07757733
0.05062686
0.1263008
0.102153
0.07620391
0.04886997
0.1484264
0.1257765
0.1015095
0.07540618
0.0478273
0.1696502
0.1483618
0.125639
0.1012867
0.07507796
0.04744814
0.190036
0.1699867
0.1486581
0.1258897
0.101485
0.07529998
0.04778902
0.2097089
0.1907962
0.1707364
0.1493964
0.1266153
0.1022709
0.07622801
0.04893266
0.2288415
0.2109855
0.1920945
0.1720594
0.1507478
0.1280667
0.1038907
0.07803745
0.05119473
0.2476084
0.2307463
0.2129486
0.1941232
0.1741624
0.1529972
0.1305274
0.1065647
0.08103815
0.0550121
0.2659649
0.2500389
0.233265
0.2155667
0.1968537
0.177076
0.1561574
0.1339344
0.1102823
0.08523362
0.05932394
0.2832654
0.2681882
0.2523371
0.2356466
0.2180414
0.1994833
0.1799144
0.1591963
0.1372095
0.1138547
0.08833693
0.06393704
0.2992707
0.2849517
0.2699203
0.2541197
0.2374851
0.2199884
0.2015836
0.1821518
0.1615905
0.1397882
0.1158406
0.09098205
0.06775076
0.3139969
0.3003539
0.2860502
0.2710358
0.255254
0.2386837
0.2212884
0.2029636
0.1836218
0.1631634
0.1407309
0.1172049
0.09274909
0.07036767
0.3275381
0.3144995
0.3008443
0.2865278
0.2714995
0.2557436
0.2392304
0.2218676
0.2035788
0.1842775
0.1631712
0.1410426
0.1177221
0.09354575
0.07167894
0.06314645
0.08300505
0.05749721
0.1051765
0.07966279
0.05320644
0.1272956
0.1032319
0.07740651
0.05033402
0.1488495
0.1262304
0.1020013
0.07595341
0.04848599
0.1696502
0.1483618
0.125639
0.1012867
0.07507796
0.04744814
0.189663
0.1695904
0.1482354
0.1254365
0.1009941
0.07475362
0.04713071
0.2089385
0.1899801
0.1698692
0.1484713
0.1256231
0.1011952
0.07502836
0.04746961
0.2275838
0.2096563
0.1906861
0.1705623
0.1491497
0.1263504
0.1020274
0.07595409
0.04861023
0.2457556
0.2287917
0.2108816
0.1919311
0.1718292
0.1505026
0.1278437
0.1036446
0.07776067
0.05086904
0.263613
0.2475615
0.2306488
0.2127958
0.193909
0.1739355
0.1527926
0.1303045
0.1063192
0.08076292
0.05345766
0.2811095
0.2659219
0.2499496
0.2331254
0.2153717
0.1966483
0.1768934
0.1559616
0.133723
0.1100517
0.08399684
0.05814207
0.2976257
0.2832253
0.2681053
0.2522078
0.2354666
0.2178523
0.1993167
0.1797376
0.1590077
0.137007
0.1127909
0.08748812
0.06314971
0.3129274
0.2992331
0.2848738
0.2697991
0.2539513
0.2373087
0.2198338
0.2014204
0.181979
0.1614067
0.1388327
0.1151225
0.09037537
0.06728661
0.3270239
0.3139613
0.3002803
0.2859358
0.2708771
0.2550881
0.2385388
0.2211361
0.202803
0.1834518
0.162286
0.1400864
0.1166756
0.09235837
0.07014996
0.3400001
0.3275042
0.3144295
0.3007357
0.2863773
0.2713425
0.2556068
0.239087
0.2217169
0.20342
0.1834616
0.1625779
0.1405616
0.1173725
0.09335318
0.06851675
0.08736514
0.0630519
0.1080838
0.08291852
0.05730259
0.1290151
0.1050984
0.07949195
0.05291492
0.1497761
0.127225
0.1030797
0.07715549
0.04995018
0.1700466
0.1487848
0.1260926
0.1017781
0.07562476
0.04810675
0.189663
0.1695904
0.1482354
0.1254365
0.1009941
0.07475362
0.04713071
0.2085866
0.1896073
0.1694732
0.1480491
0.1251705
0.1007049
0.07448253
0.04681182
0.226855
0.2088861
0.1898704
0.1696959
0.1482258
0.1253593
0.1009528
0.07475577
0.04714852
0.2445632
0.2275343
0.2095529
0.1905235
0.1703332
0.1489056
0.1261286
0.1017827
0.07567885
0.04828565
0.261853
0.2457086
0.2286939
0.2107282
0.191716
0.1716013
0.1502969
0.1276192
0.1033969
0.0774821
0.04928265
0.2788715
0.2635686
0.2474695
0.2305049
0.2125946
0.1936968
0.1737453
0.1525868
0.1300803
0.1060722
0.07942248
0.05182966
0.2955711
0.2810687
0.2658373
0.2498177
0.2329416
0.2151785
0.1964773
0.176711
0.155766
0.1335118
0.1089359
0.08298912
0.05700971
0.3113574
0.2975877
0.2831466
0.2679828
0.2520375
0.2352882
0.2176957
0.1991511
0.1795619
0.1588202
0.1360308
0.1120239
0.08680326
0.06257568
0.3260019
0.3128915
0.299159
0.2847587
0.2696394
0.2537843
0.2371628
0.2196803
0.2012585
0.1818075
0.160521
0.1381735
0.1145727
0.08996254
0.06705015
0.3395081
0.3269899
0.3138911
0.3001714
0.2857849
0.2707197
0.2549509
0.2383949
0.2209849
0.2026436
0.182633
0.1616886
0.1396001
0.1163208
0.0921622
0.3519537
0.3399677
0.3274375
0.314326
0.3005924
0.2862281
0.2712127
0.255471
0.2389447
0.2215674
0.2026547
0.182908
0.162132
0.1402402
0.1171974
0.07281989
0.09156901
0.06842613
0.1119721
0.08728199
0.06286778
0.1316911
0.1080064
0.08274963
0.0570169
0.1513768
0.1289442
0.1049459
0.07924085
0.05253274
0.1709146
0.1497111
0.1270867
0.1028558
0.07682612
0.04957104
0.190036
0.1699867
0.1486581
0.1258897
0.101485
0.07529998
0.04778902
0.2085866
0.1896073
0.1694732
0.1480491
0.1251705
0.1007049
0.07448253
0.04681182
0.226522
0.2085343
0.1894979
0.1693003
0.1478041
0.1249072
0.1004631
0.07421064
0.04649147
0.2438721
0.2268057
0.2087833
0.1897086
0.1694679
0.1479827
0.1251386
0.1007096
0.07448222
0.04682575
0.2607203
0.2445165
0.2274371
0.2094004
0.1903094
0.1701064
0.1487012
0.1259057
0.1015369
0.07540229
0.04670784
0.2771968
0.2618085
0.2456162
0.2285494
0.2105263
0.1915029
0.1714101
0.1500899
0.1273933
0.1031476
0.07612547
0.04764182
0.2934383
0.2788295
0.2634815
0.2473335
0.2303152
0.2123951
0.1935188
0.1735538
0.1523797
0.1298545
0.1048679
0.07808644
0.04982522
0.3093967
0.2955323
0.2809885
0.2657123
0.2496438
0.2327594
0.2150178
0.1963065
0.1765289
0.1555708
0.1324897
0.1080299
0.08205054
0.05601193
0.3245017
0.3113212
0.2975129
0.2830303
0.2678214
0.2518688
0.2351404
0.2175399
0.1989865
0.1793872
0.1579161
0.1353276
0.1114058
0.08631028
0.06226547
0.3385304
0.3259677
0.312821
0.2990495
0.284607
0.269481
0.2536462
0.2370179
0.219528
0.2010978
0.1809812
0.1599101
0.1376687
0.1141988
0.08975289
0.3514826
0.3394756
0.326923
0.3137873
0.3000278
0.2856353
0.2705895
0.2548147
0.2382522
0.2208349
0.2018756
0.1820756
0.1612378
0.1392741
0.1161427
0.3634284
0.3519228
0.3399039
0.3273387
0.3141894
0.3004504
0.2861047
0.2710839
0.2553363
0.2388035
0.2208469
0.2021356
0.1824919
0.161834
0.1400793
0.07574885
0.09493544
0.07273168
0.1157153
0.09148833
0.06824965
0.1352686
0.1118974
0.08711978
0.06259759
0.1538665
0.1316206
0.1078552
0.08250138
0.05664231
0.1724133
0.1513115
0.1288055
0.1047215
0.07891133
0.05215519
0.1908524
0.1708544
0.1495839
0.126883
0.1025617
0.0765006
0.04925293
0.2089385
0.1899801
0.1698692
0.1484713
0.1256231
0.1011952
0.07502836
0.04746961
0.226522
0.2085343
0.1894979
0.1693003
0.1478041
0.1249072
0.1004631
0.07421064
0.04649147
0.2435563
0.2264728
0.2084318
0.1893365
0.1690729
0.1475616
0.1246872
0.1002206
0.07393795
0.04616967
0.2600637
0.2438256
0.226709
0.2086315
0.1894956
0.1692421
0.1477794
0.1249172
0.1004655
0.0742077
0.04525902
0.276119
0.2606761
0.2444247
0.2272934
0.2091995
0.1900974
0.1699164
0.1484957
0.1256817
0.1012898
0.0740577
0.04514786
0.2918424
0.2771547
0.2617211
0.2454798
0.2283591
0.2103261
0.191324
0.1712176
0.1498814
0.1271659
0.1019322
0.07478632
0.04569451
0.3073613
0.2933984
0.2787468
0.2633526
0.2471541
0.2301272
0.2122279
0.1933396
0.173361
0.1521712
0.1287533
0.103672
0.07649911
0.04729472
0.3226283
0.3093597
0.295456
0.2808697
0.2655475
0.2494715
0.2326078
0.2148572
0.196136
0.176347
0.154625
0.1316602
0.1071879
0.08124429
0.05532943
0.3370955
0.3244672
0.3112499
0.2974022
0.2828769
0.2676613
0.2517289
0.2349934
0.217385
0.1988228
0.1785442
0.157265
0.1347609
0.1109614
0.08604654
0.3505465
0.3384978
0.3259004
0.3127166
0.2989051
0.2844565
0.2693501
0.2535091
0.2368741
0.2193767
0.2003231
0.1804116
0.1594425
0.1373255
0.1140089
0.3629768
0.3514516
0.3394117
0.3268239
0.3136504
0.2998853
0.2855116
0.2704603
0.2546796
0.2381105
0.220112
0.2013531
0.1816551
0.1609356
0.1391104
0.3744513
0.3633987
0.3518618
0.3398095
0.3272083
0.3140539
0.3003329
0.2859822
0.2709561
0.2552026
0.2381231
0.2203584
0.2017455
0.1822139
0.1616849
0.07721829
0.09722805
0.07566206
0.1187089
0.09485626
0.07255986
0.1387123
0.1156425
0.09133093
0.06799068
0.1571944
0.1352005
0.1117515
0.08688142
0.06224345
0.1747437
0.1538016
0.1314828
0.1076326
0.08217556
0.05627222
0.1922617
0.1723528
0.1511838
0.1286011
0.1044267
0.07858563
0.0518378
0.2097089
0.1907962
0.1707364
0.1493964
0.1266153
0.1022709
0.07622801
0.04893266
0.226855
0.2088861
0.1898704
0.1696959
0.1482258
0.1253593
0.1009528
0.07475577
0.04714852
0.2435563
0.2264728
0.2084318
0.1893365
0.1690729
0.1475616
0.1246872
0.1002206
0.07393795
0.04616967
0.2597637
0.2435099
0.2263763
0.2082804
0.189124
0.1688477
0.1473589
0.1244665
0.09997738
0.07366447
0.04460871
0.2754942
0.2600198
0.2437343
0.226566
0.2084316
0.1892846
0.1690533
0.1475754
0.124695
0.1002205
0.07287476
0.04375933
0.2908152
0.2760771
0.2605892
0.244289
0.2271041
0.2090004
0.1899198
0.1697254
0.1482892
0.1254566
0.1000873
0.0727842
0.04337357
0.3058384
0.2918023
0.2770717
0.2615919
0.2452999
0.2281705
0.2101582
0.191144
0.1710237
0.1496716
0.1260563
0.1007354
0.07324868
0.04342236
0.3206836
0.3073233
0.2933197
0.2786244
0.2631827
0.2469764
0.2299694
0.2120595
0.1931592
0.173167
0.1511532
0.1276594
0.1022543
0.07454722
0.04395394
0.3353035
0.322593
0.309287
0.2953431
0.2807132
0.2653841
0.2493281
0.2324563
0.2146969
0.1959657
0.1754659
0.1538576
0.1308892
0.1064661
0.08070453
0.3491725
0.3370625
0.3243992
0.3111445
0.2972562
0.2827248
0.2675287
0.2515898
0.2348473
0.2172311
0.1980328
0.1779373
0.1567403
0.1343535
0.1107238
0.3620796
0.3505153
0.3384335
0.3258008
0.3125789
0.2987618
0.284332
0.26922
0.253373
0.2367313
0.2186477
0.1997892
0.1799755
0.1591245
0.1371512
0.3740182
0.3629471
0.3513905
0.3393171
0.3266932
0.3135146
0.2997675
0.2853888
0.2703321
0.2545455
0.2374279
0.2196202
0.2009589
0.1813732
0.160784
0.3850475
0.374423
0.3633404
0.3517715
0.3396849
0.327079
0.3139419
0.3002163
0.2858608
0.2708293
0.2545585
0.2376619
0.2199911
0.2014848
0.1820747
0.09837923
0.07713217
0.1207458
0.09714975
0.07549296
0.1414665
0.1186373
0.09470177
0.07230769
0.1603982
0.1386458
0.1155005
0.09109966
0.06765124
0.1778584
0.1571316
0.1350673
0.111537
0.08656869
0.06189369
0.1944524
0.1746835
0.1536746
0.1312798
0.1073403
0.08185349
0.05596118
0.2110384
0.1922052
0.1722343
0.1509955
0.1283325
0.1041352
0.07831243
0.05151765
0.2275838
0.2096563
0.1906861
0.1705623
0.1491497
0.1263504
0.1020274
0.07595409
0.04861023
0.2438721
0.2268057
0.2087833
0.1897086
0.1694679
0.1479827
0.1251386
0.1007096
0.07448222
0.04682575
0.2597637
0.2435099
0.2263763
0.2082804
0.189124
0.1688477
0.1473589
0.1244665
0.09997738
0.07366447
0.04460871
0.2752086
0.2597198
0.2434188
0.2262337
0.208081
0.1889136
0.1686594
0.1471556
0.1242452
0.09973345
0.07233735
0.04313695
0.2902197
0.2754525
0.2599333
0.2435993
0.2263777
0.2082336
0.1891082
0.1688637
0.1473706
0.1244719
0.09902961
0.0716493
0.04209813
0.3048582
0.2907754
0.2759946
0.2604607
0.2441101
0.2269166
0.2088337
0.1897413
0.1695335
0.1480816
0.1243601
0.09895011
0.0713818
0.04139532
0.3192286
0.3058003
0.2917235
0.276949
0.2614214
0.2451215
0.2280121
0.209989
0.1909627
0.1708286
0.1486471
0.1249629
0.09936244
0.07149888
0.04081911
0.3334435
0.3206474
0.3072484
0.2932034
0.2784631
0.2630142
0.2468272
0.2298107
0.21189
0.1929776
0.1722192
0.1501415
0.1263616
0.1005139
0.07201441
0.03836674
0.3474567
0.3352699
0.3225237
0.3091795
0.2951942
0.280558
0.2652482
0.2491848
0.2323051
0.2145369
0.1951404
0.1747509
0.153144
0.1302282
0.1059836
0.3607629
0.3491409
0.3369976
0.3242986
0.3110053
0.2971115
0.2825988
0.2673968
0.2514516
0.234702
0.2164879
0.1974642
0.1774482
0.1563631
0.1341356
0.3731576
0.3620498
0.3504538
0.3383384
0.3256694
0.3124424
0.2986433
0.2842084
0.2690909
0.2532379
0.236043
0.2181453
0.1993805
0.1796789
0.158963
0.3846318
0.3739898
0.3628886
0.3512999
0.3391922
0.3265636
0.3134023
0.2996507
0.285267
0.270205
0.2538993
0.2369637
0.2192492
0.2006946
0.1812317
0.3952396
0.3850203
0.374367
0.3632539
0.3516523
0.3395613
0.326972
0.3138308
0.3001007
0.2857402
0.2702181
0.2541219
0.2373152
0.2197458
0.2013544
0.1217684
0.09830135
0.07696434
0.1433406
0.1206749
0.09699697
0.07524474
0.162961
0.141401
0.1184975
0.09447474
0.07197711
0.1808572
0.1603368
0.1385158
0.1152915
0.09079624
0.06731603
0.1973802
0.1778
0.1570087
0.1348711
0.1112552
0.08625965
0.06160236
0.2131047
0.1943962
0.1745655
0.1534873
0.1310129
0.1070511
0.08158341
0.0556475
0.2288415
0.2109855
0.1920945
0.1720594
0.1507478
0.1280667
0.1038907
0.07803745
0.05119473
0.2445632
0.2275343
0.2095529
0.1905235
0.1703332
0.1489056
0.1261286
0.1017827
0.07567885
0.04828565
0.2600637
0.2438256
0.226709
0.2086315
0.1894956
0.1692421
0.1477794
0.1249172
0.1004655
0.0742077
0.04525902
0.2752086
0.2597198
0.2434188
0.2262337
0.208081
0.1889136
0.1686594
0.1471556
0.1242452
0.09973345
0.07233735
0.04313695
0.2899475
0.275167
0.2596336
0.2432842
0.2260459
0.2078834
0.1887377
0.1684705
0.1469517
0.1240231
0.09854833
0.07113403
0.04152605
0.3042899
0.2901801
0.2753705
0.2598054
0.2434213
0.2261911
0.2080679
0.188931
0.1686735
0.147165
0.1233867
0.0979358
0.07033448
0.04028614
0.3182921
0.3048203
0.290697
0.2758727
0.2602912
0.2439328
0.2267594
0.208666
0.1895619
0.1693406
0.1470699
0.1233222
0.09769797
0.06985866
0.03923429
0.3320519
0.3191923
0.3057252
0.2916068
0.2767872
0.2612524
0.2449719
0.2278527
0.2098188
0.1907803
0.1698754
0.1476365
0.1237071
0.09780094
0.06953269
0.03735688
0.3456759
0.3334089
0.320576
0.3071376
0.2930499
0.278303
0.2628728
0.2466771
0.2296508
0.2117193
0.1920903
0.1712765
0.14894
0.1247678
0.09825807
0.06779569
0.03527532
0.3591186
0.3474245
0.3352037
0.3224211
0.3090376
0.2950465
0.2804288
0.2651124
0.2490418
0.2321541
0.2137607
0.1944707
0.1740857
0.152532
0.1297862
0.3718947
0.3607327
0.3490789
0.3369014
0.3241658
0.3108674
0.2969915
0.2824735
0.2672657
0.2513141
0.2340005
0.215953
0.1970059
0.1770964
0.1561612
0.3838057
0.373129
0.3619909
0.3503628
0.3382128
0.325539
0.3123294
0.2985257
0.2840858
0.2689628
0.2525864
0.2355689
0.2177608
0.1991025
0.1795284
0.3948402
0.3846045
0.3739337
0.362802
0.3511805
0.3390683
0.3264564
0.3132909
0.2995347
0.2851461
0.2695919
0.2534599
0.2366134
0.2190005
0.200562
0.4050485
0.3952135
0.3849667
0.3742842
0.3631398
0.351534
0.3394591
0.3268659
0.3137205
0.2999859
0.2851592
0.2698039
0.2537937
0.2370836
0.219623
0.1442818
0.1216978
0.09814938
0.07671795
0.1647053
0.1432757
0.1205364
0.09677243
0.0749193
0.1832566
0.1629004
0.1412728
0.1182918
0.09417688
0.07165063
0.2001994
0.1808002
0.1602167
0.1383244
0.1150171
0.09049643
0.0670382
0.2158662
0.1973257
0.1776858
0.1568275
0.1346134
0.1109766
0.08600252
0.06131117
0.2307959
0.213052
0.194286
0.1743915
0.153241
0.1307488
0.1068087
0.08131164
0.05533115
0.2457556
0.2287917
0.2108816
0.1919311
0.1718292
0.1505026
0.1278437
0.1036446
0.07776067
0.05086904
0.2607203
0.2445165
0.2274371
0.2094004
0.1903094
0.1701064
0.1487012
0.1259057
0.1015369
0.07540229
0.04670784
0.2754942
0.2600198
0.2437343
0.226566
0.2084316
0.1892846
0.1690533
0.1475754
0.124695
0.1002205
0.07287476
0.04375933
0.2899475
0.275167
0.2596336
0.2432842
0.2260459
0.2078834
0.1887377
0.1684705
0.1469517
0.1240231
0.09854833
0.07113403
0.04152605
0.3040302
0.289908
0.2750852
0.2595061
0.2431067
0.2258598
0.2077183
0.1885612
0.1682811
0.1467471
0.1229435
0.0974745
0.06985799
0.03978475
0.3177492
0.3042522
0.2901021
0.2752491
0.2596369
0.243245
0.226035
0.2079016
0.1887532
0.1684825
0.1461643
0.1223891
0.09676181
0.06893868
0.03833938
0.3311562
0.318256
0.3047457
0.290581
0.2757118
0.2601232
0.2437843
0.2266014
0.2084976
0.1893816
0.1683999
0.1461115
0.1221779
0.09633788
0.06823145
0.03646464
0.3443435
0.3320172
0.3191207
0.3056141
0.2914529
0.2766267
0.2611106
0.2448212
0.2276922
0.2096473
0.1898884
0.1689345
0.1464747
0.1222778
0.09604669
0.06695361
0.03484688
0.357412
0.3456428
0.3333407
0.3204702
0.3069914
0.2928976
0.2781688
0.2627305
0.2465259
0.2294899
0.2108852
0.1912074
0.1701562
0.1474635
0.1227014
0.09449634
0.0652951
0.03298997
0.3703176
0.3590878
0.3473613
0.3351056
0.3222857
0.3088968
0.2949236
0.2802998
0.2649768
0.248899
0.2314218
0.2131308
0.1938475
0.173515
0.1521225
0.3825933
0.3718658
0.3606733
0.3489869
0.3367746
0.3240341
0.310753
0.2968722
0.2823489
0.2671353
0.2506503
0.2334958
0.2155219
0.1966763
0.1769082
0.3940466
0.3837782
0.3730727
0.3619038
0.3502427
0.3380882
0.3254312
0.3122172
0.2984089
0.283964
0.2683447
0.2521377
0.2352059
0.2174992
0.1989614
0.4046646
0.394814
0.3845507
0.3738507
0.3626876
0.3510619
0.3389658
0.32635
0.3131803
0.2994196
0.2845633
0.269175
0.2531284
0.2363787
0.2188757
0.4144941
0.4050235
0.395162
0.3848872
0.3741748
0.3630265
0.3514362
0.3393576
0.3267606
0.3136111
0.2994327
0.2847655
0.2694925
0.2535745
0.2369677
0.1655816
0.1442171
0.1215599
0.09792601
0.0763949
0.1848899
0.1646452
0.1431486
0.1203325
0.09647781
0.07459788
0.2024554
0.1832002
0.1627819
0.1410841
0.1180216
0.09388254
0.07138051
0.2185255
0.2001461
0.1806884
0.1600397
0.1380729
0.1147458
0.09024803
0.06676192
0.2334077
0.2158151
0.1972189
0.1775172
0.1565893
0.1343584
0.1107448
0.0857458
0.06102015
0.2476084
0.2307463
0.2129486
0.1941232
0.1741624
0.1529972
0.1305274
0.1065647
0.08103815
0.0550121
0.261853
0.2457086
0.2286939
0.2107282
0.191716
0.1716013
0.1502969
0.1276192
0.1033969
0.0774821
0.04928265
0.276119
0.2606761
0.2444247
0.2272934
0.2091995
0.1900974
0.1699164
0.1484957
0.1256817
0.1012898
0.0740577
0.04514786
0.2902197
0.2754525
0.2599333
0.2435993
0.2263777
0.2082336
0.1891082
0.1688637
0.1473706
0.1244719
0.09902961
0.0716493
0.04209813
0.3040302
0.289908
0.2750852
0.2595061
0.2431067
0.2258598
0.2077183
0.1885612
0.1682811
0.1467471
0.1229435
0.0974745
0.06985799
0.03978475
0.317501
0.3039926
0.2898303
0.2749642
0.259338
0.2429308
0.2257042
0.2075526
0.1883841
0.168091
0.1457517
0.1219644
0.09633509
0.06851602
0.03792513
0.3306369
0.3177132
0.304178
0.2899868
0.2750891
0.2594698
0.2430974
0.2258783
0.2077346
0.1885747
0.1675522
0.1452434
0.1213168
0.0955148
0.06747445
0.03586274
0.343486
0.3311217
0.3181848
0.3046352
0.290428
0.2755523
0.2599825
0.243635
0.2264426
0.2083282
0.1885018
0.167508
0.1450535
0.1209336
0.09488422
0.06618411
0.03434658
0.3561353
0.3443104
0.3319488
0.3190147
0.3054674
0.2913002
0.2764921
0.2609678
0.2446694
0.2275306
0.2088093
0.1890075
0.1678518
0.1451513
0.120671
0.09374292
0.06489804
0.032778
0.3686809
0.3573804
0.3455776
0.3332397
0.3203307
0.3068462
0.2927698
0.2780336
0.2625872
0.2463737
0.2287031
0.2100547
0.1901573
0.1687788
0.1455485
0.1192515
0.09226481
0.06330791
0.03123408
0.3810796
0.3702881
0.3590273
0.3472675
0.3349763
0.3221513
0.3087796
0.2948008
0.280171
0.2648413
0.2482061
0.2308275
0.2125445
0.1933126
0.173133
0.3928821
0.3825656
0.3718088
0.3605853
0.3488656
0.3366487
0.323925
0.3106393
0.2967537
0.2822251
0.2665057
0.2501727
0.2330889
0.2152117
0.1964999
0.4039018
0.3940203
0.3837242
0.3729892
0.3617888
0.3501235
0.3379851
0.3253241
0.3121059
0.298293
0.2833765
0.2679191
0.2517942
0.234959
0.2173664
0.4141248
0.4046395
0.3947624
0.3844711
0.373741
0.362574
0.3509638
0.3388641
0.3262444
0.3130706
0.2988647
0.2841671
0.2688605
0.2529062
0.2362608
0.4235943
0.41447
0.404974
0.3950857
0.3847823
0.3740662
0.3629328
0.3513391
0.339257
0.3266562
0.3130835
0.2990578
0.2844696
0.2692846
0.2534647
0.1857107
0.1655218
0.1440905
0.1213569
0.0976329
0.07607581
0.2039915
0.184834
0.1645276
0.1429614
0.1200649
0.09618665
0.07433205
0.2206538
0.2024027
0.1830899
0.1626073
0.1408362
0.1177546
0.09363903
0.07111233
0.235923
0.2184754
0.2000415
0.1805236
0.159807
0.1378241
0.114521
0.09000109
0.06648717
0.2500844
0.2333595
0.2157148
0.1970612
0.1772955
0.1563536
0.1341462
0.1105134
0.0854895
0.06072931
0.263613
0.2475615
0.2306488
0.2127958
0.193909
0.1739355
0.1527926
0.1303045
0.1063192
0.08076292
0.05345766
0.2771968
0.2618085
0.2456162
0.2285494
0.2105263
0.1915029
0.1714101
0.1500899
0.1273933
0.1031476
0.07612547
0.04764182
0.2908152
0.2760771
0.2605892
0.244289
0.2271041
0.2090004
0.1899198
0.1697254
0.1482892
0.1254566
0.1000873
0.0727842
0.04337357
0.3042899
0.2901801
0.2753705
0.2598054
0.2434213
0.2261911
0.2080679
0.188931
0.1686735
0.147165
0.1233867
0.0979358
0.07033448
0.04028614
0.317501
0.3039926
0.2898303
0.2749642
0.259338
0.2429308
0.2257042
0.2075526
0.1883841
0.168091
0.1457517
0.1219644
0.09633509
0.06851602
0.03792513
0.3303995
0.3174651
0.3039186
0.2897152
0.2748047
0.2591713
0.2427838
0.2255481
0.2073864
0.1882065
0.1671659
0.1448482
0.1209239
0.09513585
0.06711754
0.03556434
0.3429888
0.3306025
0.3176424
0.3040681
0.2898346
0.2749305
0.25933
0.2429493
0.2257209
0.207567
0.1877049
0.1666957
0.1442525
0.1201764
0.0942055
0.06564959
0.03395866
0.3553136
0.343453
0.3310537
0.3180795
0.3044895
0.2902763
0.2754186
0.259841
0.2434849
0.226283
0.2075017
0.1876671
0.1665226
0.1439021
0.1196026
0.09305239
0.06442617
0.03249237
0.3674564
0.3561036
0.344245
0.3318476
0.3188748
0.305322
0.2911721
0.2763564
0.260824
0.2445166
0.2267404
0.207981
0.187993
0.1666175
0.1436626
0.1185587
0.09190364
0.06307425
0.03111108
0.3795086
0.3686506
0.357318
0.345481
0.3331064
0.3201922
0.3067245
0.2926412
0.2778975
0.2624429
0.2456295
0.2279194
0.2090665
0.1888656
0.1669916
0.1423485
0.1172076
0.090485
0.06168518
0.02987266
0.3914281
0.3810514
0.3702301
0.3589375
0.3471438
0.3348479
0.3220395
0.3086626
0.2946782
0.2800423
0.2641843
0.2476438
0.2302741
0.2120412
0.1929545
0.4027825
0.3928555
0.3825111
0.3717245
0.3604691
0.3487452
0.3365444
0.3238164
0.3105263
0.2966358
0.2816267
0.2660527
0.2497876
0.2327962
0.2150457
0.4133912
0.4038766
0.3939685
0.3836441
0.372879
0.3616746
0.3500248
0.3378828
0.3252178
0.3119954
0.2977337
0.282972
0.2675932
0.2515605
0.2348337
0.4232389
0.4141007
0.4045899
0.3946859
0.3843659
0.3736321
0.3624801
0.3508665
0.3387632
0.3261396
0.3125414
0.2984875
0.2838682
0.2686497
0.2527946
0.4323656
0.4235712
0.4144225
0.4049007
0.3949849
0.384678
0.3739763
0.3628398
0.3512428
0.3391572
0.3261524
0.3127261
0.2987761
0.2842719
0.2691804
0.2047635
0.185655
0.1654046
0.1439041
0.1210904
0.09734323
0.07581192
0.2221031
0.2039391
0.1847244
0.1643543
0.1427155
0.1198002
0.09594586
0.07406825
0.2379364
0.2206043
0.2022994
0.1829271
0.1623776
0.1405909
0.1175336
0.0933973
0.07084611
0.2524691
0.2358759
0.2183772
0.1998873
0.1803068
0.1595767
0.137618
0.1142976
0.08975562
0.06621398
0.2659649
0.2500389
0.233265
0.2155667
0.1968537
0.177076
0.1561574
0.1339344
0.1102823
0.08523362
0.05932394
0.2788715
0.2635686
0.2474695
0.2305049
0.2125946
0.1936968
0.1737453
0.1525868
0.1300803
0.1060722
0.07942248
0.05182966
0.2918424
0.2771547
0.2617211
0.2454798
0.2283591
0.2103261
0.191324
0.1712176
0.1498814
0.1271659
0.1019322
0.07478632
0.04569451
0.3048582
0.2907754
0.2759946
0.2604607
0.2441101
0.2269166
0.2088337
0.1897413
0.1695335
0.1480816
0.1243601
0.09895011
0.0713818
0.04139532
0.3177492
0.3042522
0.2901021
0.2752491
0.2596369
0.243245
0.226035
0.2079016
0.1887532
0.1684825
0.1461643
0.1223891
0.09676181
0.06893868
0.03833938
0.3303995
0.3174651
0.3039186
0.2897152
0.2748047
0.2591713
0.2427838
0.2255481
0.2073864
0.1882065
0.1671659
0.1448482
0.1209239
0.09513585
0.06711754
0.03556434
0.3427616
0.3303653
0.3173945
0.303809
0.2895635
0.2746464
0.259032
0.2426362
0.2253915
0.2072196
0.1873416
0.1663256
0.1438869
0.1198274
0.09388474
0.06537969
0.03375331
0.3548372
0.342956
0.330535
0.3175376
0.3039232
0.2896837
0.2747977
0.2591896
0.2428006
0.225563
0.20675
0.1869035
0.165773
0.1431976
0.1189777
0.09257078
0.06405292
0.03224938
0.3666684
0.3552821
0.3433881
0.3309531
0.3179404
0.3043449
0.2901491
0.2752843
0.2596988
0.243334
0.2255039
0.2067172
0.1867442
0.1654493
0.1426694
0.1179231
0.09147401
0.06276332
0.03093631
0.3783334
0.367426
0.3560411
0.3441482
0.3317139