/*--------------------------------*- C++ -*----------------------------------*\
| =========                 |                                                 |
| \\      /  F ield         | OpenFOAM: The Open Source CFD Toolbox           |
|  \\    /   O peration     | Version:  2306                                  |
|   \\  /    A nd           | Website:  www.openfoam.com                      |
|    \\/     M anipulation  |                                                 |
\*---------------------------------------------------------------------------*/
FoamFile
{
    version     2.0;
    format      ascii;
    arch        "LSB;label=32;scalar=64";
    class       volScalarField;
    location    "0.3/fuel";
    object      X.H2;
}
// * * * * * * * * * * * * * * * * * * * * * * * * * * * * * * * * * * * * * //

dimensions      [0 0 0 0 0 0 0];

internalField   nonuniform List<scalar> 
16000
(
0.9227817
0.9242512
0.9016208
0.9228678
0.9271801
0.902772
0.9243379
0.8782316
0.9016986
0.9230357
0.9314833
0.9050646
0.9272683
0.8792542
0.9028502
0.924507
0.8557182
0.8783022
0.9018506
0.9232821
0.9368535
0.908431
0.9315739
0.8812911
0.9051437
0.9274401
0.8566594
0.8793251
0.903003
0.9247553
0.8344184
0.8557829
0.8784401
0.902074
0.9236051
0.9424029
0.9126349
0.9369481
0.8842847
0.9085117
0.9317504
0.8585335
0.8813627
0.9052982
0.9276923
0.8352947
0.8567243
0.8794636
0.9032276
0.9250807
0.8142893
0.8344782
0.8559095
0.8786431
0.9023671
0.9239242
0.9464929
0.9169949
0.9425028
0.8880279
0.912718
0.9371322
0.8612877
0.8843575
0.9086691
0.9320093
0.837039
0.858599
0.8815025
0.9055253
0.9280229
0.8151101
0.8353548
0.8568514
0.8796675
0.9035222
0.9254021
0.7952365
0.814345
0.8345954
0.8560959
0.8789096
0.9026568
0.9241881
0.949071
0.9202497
0.9465949
0.8919162
0.9170815
0.9426974
0.8647314
0.8881026
0.9128802
0.9374024
0.8396018
0.8613542
0.8844995
0.9089003
0.9323488
0.8167434
0.8370996
0.8587272
0.8817082
0.9058231
0.9283494
0.7960085
0.815166
0.8354724
0.8570386
0.8799351
0.9038133
0.925668
0.7771683
0.7952886
0.8144542
0.8347682
0.8563409
0.8791731
0.9028963
0.9244499
0.9505346
0.9223351
0.9491735
0.8948235
0.9203372
0.9467936
0.8683089
0.8919936
0.9172504
0.9429831
0.8428056
0.8647995
0.8882485
0.9131186
0.9377566
0.8191428
0.8396632
0.8614842
0.8847085
0.9092038
0.932684
0.7975446
0.8167998
0.8372181
0.8589159
0.8819784
0.9061175
0.9286195
0.7778969
0.7960609
0.8152756
0.8356457
0.8572845
0.8801998
0.9040541
0.9259317
0.7600031
0.7772173
0.7953909
0.8146153
0.8349953
0.8565832
0.8793911
0.903134
0.9247098
0.9511934
0.9235382
0.9506373
0.8966903
0.9224227
0.9493731
0.8709849
0.8949016
0.920508
0.9470851
0.8461335
0.8683794
0.8921448
0.9174986
0.9433577
0.8221416
0.8428684
0.8649327
0.888463
0.9134313
0.9381063
0.7998006
0.8191998
0.8397833
0.8616756
0.8849829
0.9095036
0.9329618
0.7793462
0.7975973
0.8169101
0.8373927
0.8591638
0.8822454
0.906361
0.9288877
0.7606925
0.7779461
0.7961635
0.8154372
0.8358736
0.8575278
0.8804187
0.9042931
0.9261935
0.7436679
0.7600492
0.7773135
0.7955418
0.8148271
0.83522
0.8567836
0.8796073
0.9033699
0.9249676
0.9511934
0.9240861
0.9512961
0.8977694
0.9236256
0.950837
0.8727044
0.8967681
0.9225935
0.949666
0.8486232
0.8710558
0.8950541
0.9207591
0.9474673
0.8252563
0.8461984
0.8685172
0.8923674
0.9178244
0.9437278
0.8026198
0.8222
0.8429913
0.8651289
0.8887448
0.9137403
0.9383976
0.7814745
0.7998539
0.8193116
0.8399603
0.8619271
0.8852542
0.909752
0.9332381
0.7620636
0.7793957
0.7977006
0.8170729
0.8376224
0.8594091
0.8824664
0.9066027
0.9291539
0.7443217
0.7607388
0.7780425
0.7963148
0.8156497
0.8360991
0.8577289
0.8806359
0.9045302
0.9264532
0.7280994
0.7437115
0.7601399
0.7774554
0.7957404
0.8150368
0.8354059
0.8569825
0.8798219
0.9036039
0.9262057
0.9505346
0.9240861
0.9512961
0.8982616
0.9241734
0.9514958
0.8736992
0.897847
0.9237961
0.95113
0.8502239
0.872775
0.8969203
0.9228445
0.9500498
0.8275867
0.8486885
0.8711945
0.8952785
0.9210887
0.9478448
0.8055476
0.8253165
0.8463254
0.8687202
0.8926597
0.9181465
0.9440388
0.7841338
0.8026743
0.8223142
0.8431725
0.8653866
0.8890234
0.9139975
0.9386888
0.764077
0.7815246
0.7999585
0.8194764
0.840193
0.8621759
0.885479
0.9099989
0.9335128
0.7456219
0.7621103
0.7794928
0.797853
0.8172869
0.8378496
0.859612
0.8826857
0.9068427
0.9294181
0.7287207
0.7443655
0.7608298
0.7781849
0.7965141
0.8158601
0.8362857
0.8579286
0.8808514
0.9047655
0.9277005
0.7132416
0.7281408
0.7437973
0.7602739
0.7776423
0.7959371
0.8152103
0.8355903
0.8571798
0.8800348
0.9047289
0.9270492
0.949071
0.9235382
0.9506373
0.8982616
0.9241734
0.9514958
0.8741532
0.8983391
0.9243436
0.9517888
0.8511505
0.8737696
0.8979987
0.9240466
0.951514
0.8290854
0.8502889
0.8729133
0.8971442
0.9231739
0.950429
0.8077383
0.8276472
0.8488162
0.8713989
0.8955733
0.9214144
0.9481622
0.7868953
0.8056038
0.8254345
0.8465127
0.8689871
0.8929489
0.9184166
0.9443525
0.7665923
0.7841849
0.8027811
0.8224828
0.8434107
0.8656416
0.8892552
0.9142542
0.9389798
0.7475309
0.7641241
0.7816228
0.8001127
0.8196932
0.8404233
0.862382
0.8857024
0.9102444
0.933786
0.729956
0.745666
0.7622018
0.7796361
0.7980535
0.8174988
0.8380376
0.8598134
0.8829034
0.9070808
0.9306875
0.713833
0.7287622
0.7444515
0.7609641
0.7783723
0.7967113
0.8160341
0.8364707
0.8581266
0.8810652
0.9058963
0.9285539
0.6990449
0.7132809
0.728222
0.743924
0.7604503
0.7778274
0.7960997
0.8153824
0.8357732
0.8573755
0.8810588
0.9054942
0.927684
0.9464929
0.9223351
0.9491735
0.8977694
0.9236256
0.950837
0.8741532
0.8983391
0.9243436
0.9517888
0.8515736
0.8742235
0.8984905
0.9245938
0.9521727
0.8299534
0.8512152
0.8739074
0.8982219
0.9243752
0.9518932
0.8091476
0.8291456
0.8504161
0.873117
0.8974383
0.9234994
0.9507471
0.7889616
0.8077948
0.8277657
0.8490045
0.8716675
0.8958648
0.9216876
0.9484823
0.7692041
0.786948
0.805714
0.8256085
0.846759
0.8692512
0.8931913
0.9186884
0.9446689
0.7499156
0.7666405
0.7842852
0.8029388
0.8227045
0.8436464
0.8658538
0.8894866
0.9145105
0.9392707
0.7317696
0.7475754
0.7642167
0.7817678
0.8003157
0.8199078
0.8406141
0.8625868
0.8859246
0.9104884
0.9351001
0.7150087
0.7299978
0.7457525
0.7623369
0.7798247
0.7982521
0.8176742
0.8382242
0.8600133
0.8831196
0.908226
0.93157
0.6996087
0.7138724
0.7288437
0.7445786
0.761141
0.778558
0.7968745
0.8162068
0.8366544
0.8583232
0.8820938
0.9066682
0.9291991
0.685465
0.6990822
0.7133581
0.7283422
0.7440909
0.7606251
0.7779805
0.7962611
0.8155531
0.8359548
0.8583176
0.8817547
0.9060697
0.9281084
0.9424029
0.9202497
0.9465949
0.8966903
0.9224227
0.9493731
0.8736992
0.897847
0.9237961
0.95113
0.8515736
0.8742235
0.8984905
0.9245938
0.9521727
0.8303498
0.8516382
0.874361
0.8987133
0.924922
0.9525519
0.809964
0.8300133
0.8513419
0.8741103
0.898515
0.9247
0.952211
0.7902911
0.8092038
0.8292636
0.8506036
0.8733847
0.8977291
0.923772
0.9510673
0.7711585
0.7890145
0.8079055
0.8279406
0.8492522
0.8719333
0.8961093
0.9219626
0.9488053
0.7523916
0.7692537
0.7870514
0.8058768
0.8258376
0.8470028
0.8694726
0.8934353
0.9189619
0.9449879
0.7340351
0.7499611
0.766735
0.7844333
0.8031463
0.822924
0.8438426
0.8660656
0.8897177
0.9147664
0.9406761
0.7167346
0.7318118
0.7476629
0.7643534
0.7819586
0.8005167
0.8200856
0.8408037
0.8627905
0.8861453
0.9116631
0.936063
0.7007293
0.7150483
0.7300797
0.7458803
0.7625149
0.7800116
0.7984164
0.8178482
0.8384095
0.8602118
0.8841594
0.9090179
0.9322492
0.6860031
0.6996461
0.7139498
0.7289642
0.744746
0.7613163
0.7787116
0.7970364
0.8163782
0.8368366
0.8592691
0.8827951
0.9072509
0.9296323
0.6724619
0.6855005
0.6991557
0.7134722
0.7285005
0.7442564
0.7607696
0.7781324
0.7964212
0.8157225
0.8368288
0.8589574
0.8822779
0.9064542
0.9283211
0.9368535
0.9169949
0.9425028
0.8948235
0.9203372
0.9467936
0.8727044
0.8967681
0.9225935
0.949666
0.8511505
0.8737696
0.8979987
0.9240466
0.951514
0.8303498
0.8516382
0.874361
0.8987133
0.924922
0.9525519
0.810337
0.8304096
0.8517646
0.8745635
0.8990059
0.9252464
0.9528693
0.7910615
0.8100199
0.8301308
0.8515287
0.8743769
0.8988048
0.9249716
0.9525304
0.7724162
0.7903437
0.8093139
0.8294377
0.8508503
0.8736496
0.8979726
0.9240459
0.9513898
0.7542444
0.7712083
0.7891184
0.8080689
0.8281708
0.8494974
0.8721563
0.8963554
0.9222393
0.949131
0.736387
0.7524385
0.7693512
0.7872042
0.806091
0.8260645
0.8472074
0.8696955
0.8936808
0.9192371
0.9465423
0.7188905
0.7340781
0.7500504
0.7668746
0.7846283
0.8033517
0.8231066
0.8440384
0.866277
0.8899483
0.9160032
0.9418579
0.7023743
0.7167747
0.7318947
0.7477922
0.7645334
0.7821477
0.8006833
0.8202624
0.8409923
0.862993
0.8872091
0.9125119
0.9368503
0.6870726
0.7007669
0.7151262
0.7302009
0.7460487
0.7626913
0.7801662
0.7985796
0.818021
0.8385933
0.8611673
0.8848775
0.9096246
0.9327134
0.6729761
0.6860387
0.6997197
0.7140642
0.7291229
0.7449119
0.7614612
0.7788639
0.797197
0.8165482
0.837714
0.8599136
0.8833244
0.9076416
0.92985
0.6599999
0.6724958
0.6855705
0.6992643
0.7136227
0.7286575
0.7443932
0.760913
0.7782831
0.79658
0.8165384
0.8374221
0.8594384
0.8826275
0.9066468
0.9314833
0.9126349
0.9369481
0.8919162
0.9170815
0.9426974
0.8709849
0.8949016
0.920508
0.9470851
0.8502239
0.872775
0.8969203
0.9228445
0.9500498
0.8299534
0.8512152
0.8739074
0.8982219
0.9243752
0.9518932
0.810337
0.8304096
0.8517646
0.8745635
0.8990059
0.9252464
0.9528693
0.7914134
0.8103927
0.8305268
0.8519509
0.8748295
0.8992951
0.9255175
0.9531882
0.773145
0.7911139
0.8101296
0.8303041
0.8517742
0.8746407
0.8990472
0.9252442
0.9528515
0.7554368
0.7724657
0.7904471
0.8094765
0.8296668
0.8510944
0.8738714
0.8982173
0.9243211
0.9517143
0.738147
0.7542914
0.7713061
0.7892718
0.808284
0.8283987
0.8497031
0.8723808
0.8966031
0.9225179
0.9507173
0.7211285
0.7364314
0.7525305
0.7694951
0.7874054
0.8063032
0.8262547
0.8474132
0.8699197
0.8939278
0.9205775
0.9481703
0.7044289
0.7189313
0.7341627
0.7501823
0.7670584
0.7848215
0.8035227
0.823289
0.844234
0.8664882
0.8910641
0.9170109
0.9429903
0.6886426
0.7024123
0.7168534
0.7320172
0.7479625
0.7647118
0.7823043
0.8008489
0.8204381
0.8411798
0.8639692
0.8879761
0.9131967
0.9374243
0.6739981
0.6871085
0.700841
0.7152413
0.7303606
0.7462157
0.7628372
0.7803197
0.7987415
0.8181925
0.839479
0.8618265
0.8854273
0.9100375
0.9329499
0.6604919
0.6730101
0.6861089
0.6998286
0.7142151
0.7292803
0.7450491
0.7616051
0.7790151
0.7973564
0.817367
0.8383114
0.8603999
0.8836792
0.9078378
0.6480463
0.6600323
0.6725625
0.685674
0.6994076
0.7137719
0.7287873
0.744529
0.7610553
0.7784326
0.7973453
0.817092
0.837868
0.8597598
0.8828026
0.9271801
0.908431
0.9315739
0.8880279
0.912718
0.9371322
0.8683089
0.8919936
0.9172504
0.9429831
0.8486232
0.8710558
0.8950541
0.9207591
0.9474673
0.8290854
0.8502889
0.8729133
0.8971442
0.9231739
0.950429
0.809964
0.8300133
0.8513419
0.8741103
0.898515
0.9247
0.952211
0.7914134
0.8103927
0.8305268
0.8519509
0.8748295
0.8992951
0.9255175
0.9531882
0.773478
0.7914657
0.8105021
0.8306997
0.8521959
0.8750928
0.8995369
0.9257894
0.9535085
0.7561279
0.7731943
0.7912167
0.8102914
0.8305321
0.8520173
0.8748614
0.8992904
0.9255178
0.9531743
0.7392797
0.7554835
0.7725629
0.7905996
0.8096906
0.8298936
0.8512988
0.8740943
0.8984631
0.9245977
0.9532922
0.7228032
0.7381915
0.7543838
0.7714506
0.7894737
0.8084971
0.8285899
0.8499101
0.8726067
0.8968524
0.9238745
0.9523582
0.7065617
0.7211705
0.7365185
0.7526665
0.7696848
0.7876049
0.8064812
0.8264462
0.8476203
0.8701455
0.8951321
0.9219136
0.9501748
0.6906033
0.7044677
0.7190115
0.7342877
0.7503562
0.7672406
0.7849822
0.8036935
0.8234711
0.8444292
0.8675103
0.8919701
0.9179495
0.9439881
0.6754983
0.6886788
0.7024871
0.7169697
0.7321786
0.7481312
0.7648596
0.7824601
0.8010135
0.8206128
0.8420839
0.8646724
0.8885942
0.9136897
0.9377345
0.6614696
0.6740323
0.687179
0.7009505
0.715393
0.730519
0.7463538
0.7629821
0.780472
0.7989022
0.8190188
0.8400899
0.8623313
0.8858012
0.9102471
0.6485174
0.6605244
0.673077
0.6862127
0.6999722
0.7143647
0.7294105
0.7451853
0.7617478
0.7791651
0.7981244
0.8179244
0.8387622
0.8607259
0.8838573
0.6365716
0.6480772
0.6600961
0.6726613
0.6858106
0.6995496
0.7138953
0.7289161
0.7446637
0.7611965
0.7791531
0.7978644
0.8175081
0.838166
0.8599207
0.9242512
0.9050646
0.9272683
0.8842847
0.9085117
0.9317504
0.8647314
0.8881026
0.9128802
0.9374024
0.8461335
0.8683794
0.8921448
0.9174986
0.9433577
0.8275867
0.8486885
0.8711945
0.8952785
0.9210887
0.9478448
0.8091476
0.8291456
0.8504161
0.873117
0.8974383
0.9234994
0.9507471
0.7910615
0.8100199
0.8301308
0.8515287
0.8743769
0.8988048
0.9249716
0.9525304
0.773478
0.7914657
0.8105021
0.8306997
0.8521959
0.8750928
0.8995369
0.9257894
0.9535085
0.7564437
0.7735272
0.7915682
0.8106635
0.8309271
0.8524384
0.8753128
0.8997794
0.926062
0.9538303
0.7399363
0.7561744
0.773291
0.7913685
0.8105044
0.8307579
0.8522206
0.8750828
0.8995345
0.9257923
0.954741
0.723881
0.7393239
0.7555753
0.7727066
0.7908005
0.8099026
0.8300836
0.8515043
0.8743183
0.8987102
0.9259423
0.9548521
0.7081576
0.7228453
0.7382789
0.7545202
0.7716409
0.7896739
0.808676
0.8287824
0.8501186
0.8728341
0.8980678
0.9252137
0.9543055
0.6926387
0.7066016
0.7212532
0.7366474
0.7528459
0.7698728
0.7877721
0.8066604
0.826639
0.8478288
0.8712467
0.896328
0.9235009
0.9527053
0.6773717
0.6906403
0.704544
0.7191303
0.7344525
0.7505285
0.7673922
0.7851428
0.803864
0.823653
0.845375
0.8683398
0.8928121
0.9187557
0.9446706
0.6629045
0.6755328
0.6887501
0.7025978
0.7171231
0.7323387
0.7482711
0.7650066
0.782615
0.8011772
0.8214558
0.842735
0.8652391
0.8890386
0.9139535
0.6494535
0.6615022
0.6740996
0.6872834
0.7010949
0.7155435
0.7306499
0.7464909
0.7631259
0.7806233
0.7996769
0.8195884
0.8405575
0.8626745
0.8859911
0.6370232
0.6485484
0.6605883
0.6731761
0.6863496
0.7001147
0.7144884
0.7295397
0.7453204
0.7618895
0.779888
0.7986469
0.8183449
0.8390644
0.8608896
0.6255487
0.6366013
0.6481382
0.6601905
0.6727917
0.6859461
0.6996671
0.7140178
0.7290439
0.7447974
0.7618769
0.7796416
0.7982545
0.8177861
0.8383151
0.9227817
0.902772
0.9243379
0.8812911
0.9051437
0.9274401
0.8612877
0.8843575
0.9086691
0.9320093
0.8428056
0.8647995
0.8882485
0.9131186
0.9377566
0.8252563
0.8461984
0.8685172
0.8923674
0.9178244
0.9437278
0.8077383
0.8276472
0.8488162
0.8713989
0.8955733
0.9214144
0.9481622
0.7902911
0.8092038
0.8292636
0.8506036
0.8733847
0.8977291
0.923772
0.9510673
0.773145
0.7911139
0.8101296
0.8303041
0.8517742
0.8746407
0.8990472
0.9252442
0.9528515
0.7564437
0.7735272
0.7915682
0.8106635
0.8309271
0.8524384
0.8753128
0.8997794
0.926062
0.9538303
0.7402363
0.7564901
0.7736237
0.7917196
0.810876
0.8311523
0.8526411
0.8755335
0.9000226
0.9263355
0.9553913
0.7245058
0.7399802
0.7562657
0.773434
0.7915684
0.8107154
0.8309467
0.8524246
0.875305
0.8997795
0.9271252
0.9562407
0.7091848
0.7239229
0.7394108
0.755711
0.7728959
0.7909996
0.8100802
0.8302746
0.8517108
0.8745434
0.8999127
0.9272158
0.9566264
0.6941616
0.7081977
0.7229283
0.7384081
0.7547001
0.7718295
0.7898418
0.808856
0.8289763
0.8503284
0.8739437
0.8992646
0.9267513
0.9565776
0.6793164
0.6926767
0.7066803
0.7213756
0.7368173
0.7530236
0.7700306
0.7879405
0.8068408
0.826833
0.8488468
0.8723406
0.8977457
0.9254528
0.9560461
0.6646965
0.677407
0.690713
0.7046569
0.7192868
0.7346159
0.7506719
0.7675437
0.7853031
0.8040343
0.8245341
0.8461424
0.8691108
0.8935339
0.9192955
0.6508275
0.6629375
0.6756008
0.6888555
0.7027438
0.7172752
0.7324713
0.7484102
0.7651527
0.7827689
0.8019672
0.8220627
0.8432597
0.8656465
0.8892762
0.6379204
0.6494847
0.6615665
0.6741992
0.6874211
0.7012382
0.715668
0.73078
0.746627
0.7632687
0.7813523
0.8002108
0.8200245
0.8408755
0.8628488
0.6259818
0.6370529
0.6486095
0.6606829
0.6733068
0.6864854
0.7002325
0.7146112
0.7296679
0.7454545
0.7625721
0.7803798
0.7990411
0.8186268
0.839216
0.6149525
0.625577
0.6366596
0.6482285
0.6603151
0.672921
0.6860581
0.6997837
0.7141392
0.7291707
0.7454415
0.7623381
0.7800089
0.7985152
0.8179253
0.9016208
0.9228678
0.8792542
0.9028502
0.924507
0.8585335
0.8813627
0.9052982
0.9276923
0.8396018
0.8613542
0.8844995
0.9089003
0.9323488
0.8221416
0.8428684
0.8649327
0.888463
0.9134313
0.9381063
0.8055476
0.8253165
0.8463254
0.8687202
0.8926597
0.9181465
0.9440388
0.7889616
0.8077948
0.8277657
0.8490045
0.8716675
0.8958648
0.9216876
0.9484823
0.7724162
0.7903437
0.8093139
0.8294377
0.8508503
0.8736496
0.8979726
0.9240459
0.9513898
0.7561279
0.7731943
0.7912167
0.8102914
0.8305321
0.8520173
0.8748614
0.8992904
0.9255178
0.9531743
0.7402363
0.7564901
0.7736237
0.7917196
0.810876
0.8311523
0.8526411
0.8755335
0.9000226
0.9263355
0.9553913
0.7247914
0.7402802
0.7565812
0.7737663
0.791919
0.8110864
0.8313406
0.8528444
0.8757548
0.9002666
0.9276626
0.9568631
0.7097803
0.7245475
0.7400667
0.7564007
0.7736223
0.7917664
0.8108918
0.8311363
0.8526294
0.8755281
0.9009704
0.9283507
0.9579019
0.6951418
0.7092246
0.7240054
0.7395393
0.7558899
0.7730834
0.7911663
0.8102587
0.8304665
0.8519184
0.8756399
0.9010499
0.9286182
0.9586047
0.6807714
0.6941997
0.7082765
0.723051
0.7385786
0.7548785
0.7719879
0.790011
0.8090373
0.8291714
0.8513529
0.8750371
0.9006376
0.9285011
0.9591809
0.6665565
0.6793526
0.6927516
0.7067966
0.7215369
0.7369858
0.7531728
0.7701893
0.78811
0.8070224
0.8277808
0.8498585
0.8736384
0.8994861
0.9279856
0.9616333
0.6525433
0.6647301
0.6774763
0.6908205
0.7048058
0.719442
0.7347518
0.7508152
0.7676949
0.7854631
0.8048596
0.8252491
0.846856
0.8697718
0.8940164
0.6392371
0.6508591
0.6630024
0.6757014
0.6889947
0.7028885
0.7174012
0.7326032
0.7485484
0.765298
0.7835121
0.8025358
0.8225518
0.8436369
0.8658644
0.6268424
0.6379502
0.6495462
0.6616616
0.6743306
0.6875576
0.7013567
0.7157916
0.7309091
0.7467621
0.763957
0.7818547
0.8006195
0.8203211
0.841037
0.6153682
0.6260102
0.6371114
0.6487001
0.6608078
0.6734364
0.6865977
0.7003493
0.714733
0.729795
0.7461007
0.7630363
0.7807508
0.7993054
0.8187683
0.6047604
0.6149797
0.625633
0.6367461
0.6483477
0.6604387
0.673028
0.6861692
0.6998993
0.7142598
0.7297819
0.7458781
0.7626848
0.7802542
0.7986456
0.8782316
0.9016986
0.9230357
0.8566594
0.8793251
0.903003
0.9247553
0.837039
0.858599
0.8815025
0.9055253
0.9280229
0.8191428
0.8396632
0.8614842
0.8847085
0.9092038
0.932684
0.8026198
0.8222
0.8429913
0.8651289
0.8887448
0.9137403
0.9383976
0.7868953
0.8056038
0.8254345
0.8465127
0.8689871
0.8929489
0.9184166
0.9443525
0.7711585
0.7890145
0.8079055
0.8279406
0.8492522
0.8719333
0.8961093
0.9219626
0.9488053
0.7554368
0.7724657
0.7904471
0.8094765
0.8296668
0.8510944
0.8738714
0.8982173
0.9243211
0.9517143
0.7399363
0.7561744
0.773291
0.7913685
0.8105044
0.8307579
0.8522206
0.8750828
0.8995345
0.9257923
0.954741
0.7247914
0.7402802
0.7565812
0.7737663
0.791919
0.8110864
0.8313406
0.8528444
0.8757548
0.9002666
0.9276626
0.9568631
0.7100525
0.724833
0.7403664
0.7567158
0.7739541
0.7921166
0.8112623
0.8315295
0.8530483
0.8759769
0.9014517
0.928866
0.9584739
0.6957101
0.7098199
0.7246295
0.7401946
0.7565787
0.7738089
0.7919321
0.811069
0.8313265
0.852835
0.8766133
0.9020642
0.9296655
0.9597139
0.6817079
0.6951797
0.709303
0.7241273
0.7397088
0.7560672
0.7732406
0.791334
0.8104381
0.8306594
0.8529301
0.8766778
0.902302
0.9301413
0.9607657
0.6679481
0.6808077
0.6942748
0.7083932
0.7232128
0.7387476
0.7550281
0.7721473
0.7901812
0.8092197
0.8301246
0.8523635
0.8762929
0.9021991
0.9304673
0.9626431
0.6543241
0.6665911
0.679424
0.6928624
0.7069501
0.721697
0.7371272
0.7533229
0.7703492
0.7882807
0.8079097
0.8287235
0.85106
0.8752322
0.9017419
0.9322043
0.9647247
0.6408814
0.6525755
0.6647963
0.6775789
0.6909624
0.7049535
0.7195712
0.7348876
0.7509582
0.7678459
0.7862393
0.8055293
0.8259143
0.847468
0.8702138
0.6281053
0.6392673
0.6509211
0.6630986
0.6758342
0.6891326
0.7030085
0.7175265
0.7327343
0.7486859
0.7659995
0.784047
0.8029941
0.8229036
0.8438388
0.6161943
0.626871
0.6380091
0.6496372
0.6617872
0.674461
0.6876706
0.7014743
0.7159142
0.7310372
0.7474136
0.7644311
0.7822392
0.8008975
0.8204716
0.6051598
0.6153955
0.6260663
0.637198
0.6488195
0.6609317
0.6735436
0.6867091
0.7004653
0.7148539
0.7304081
0.7465401
0.7633866
0.7809995
0.799438
0.5949515
0.6047865
0.6150333
0.6257158
0.6368602
0.648466
0.6605409
0.6731341
0.6862795
0.7000141
0.7148408
0.7301961
0.7462063
0.7629164
0.780377
0.8557182
0.8783022
0.9018506
0.9232821
0.8352947
0.8567243
0.8794636
0.9032276
0.9250807
0.8167434
0.8370996
0.8587272
0.8817082
0.9058231
0.9283494
0.7998006
0.8191998
0.8397833
0.8616756
0.8849829
0.9095036
0.9329618
0.7841338
0.8026743
0.8223142
0.8431725
0.8653866
0.8890234
0.9139975
0.9386888
0.7692041
0.786948
0.805714
0.8256085
0.846759
0.8692512
0.8931913
0.9186884
0.9446689
0.7542444
0.7712083
0.7891184
0.8080689
0.8281708
0.8494974
0.8721563
0.8963554
0.9222393
0.949131
0.7392797
0.7554835
0.7725629
0.7905996
0.8096906
0.8298936
0.8512988
0.8740943
0.8984631
0.9245977
0.9532922
0.7245058
0.7399802
0.7562657
0.773434
0.7915684
0.8107154
0.8309467
0.8524246
0.875305
0.8997795
0.9271252
0.9562407
0.7100525
0.724833
0.7403664
0.7567158
0.7739541
0.7921166
0.8112623
0.8315295
0.8530483
0.8759769
0.9014517
0.928866
0.9584739
0.6959698
0.710092
0.7249148
0.7404939
0.7568933
0.7741402
0.7922817
0.8114388
0.8317189
0.8532529
0.8770565
0.9025255
0.930142
0.9602152
0.6822508
0.6957478
0.7098979
0.7247509
0.7403631
0.756755
0.773965
0.7920984
0.8112468
0.8315175
0.8538357
0.8776109
0.9032382
0.9310613
0.9616606
0.6688438
0.681744
0.6952543
0.709419
0.7242882
0.7398768
0.7562157
0.7733986
0.7915024
0.8106184
0.8316001
0.8538885
0.8778221
0.9036621
0.9317686
0.9635354
0.6556565
0.6679828
0.6808793
0.6943859
0.7085471
0.7233733
0.7388894
0.7551788
0.7723078
0.7903527
0.8101116
0.8310655
0.8535253
0.8777222
0.9039533
0.9330464
0.9651531
0.642588
0.6543572
0.6666593
0.6795298
0.6930086
0.7071024
0.7218312
0.7372695
0.7534741
0.7705101
0.7891148
0.8087926
0.8298438
0.8525365
0.8772986
0.9055037
0.9347049
0.96701
0.6296824
0.6409122
0.6526387
0.6648944
0.6777143
0.6911032
0.7050764
0.7197002
0.7350232
0.751101
0.7685782
0.7868692
0.8061525
0.826485
0.8478775
0.6174067
0.6281342
0.6393267
0.6510131
0.6632254
0.6759659
0.689247
0.7031278
0.7176511
0.7328647
0.7493497
0.7665042
0.7844781
0.8033237
0.8230918
0.6059534
0.6162218
0.6269273
0.6380962
0.6497573
0.6619118
0.6745688
0.6877828
0.7015911
0.716036
0.7316553
0.7478623
0.7647941
0.7825008
0.8010386
0.5953354
0.605186
0.6154493
0.6261493
0.6373124
0.6489381
0.6610342
0.67365
0.6868197
0.7005804
0.7154367
0.730825
0.7468716
0.7636213
0.7811243
0.5855059
0.5949765
0.604838
0.6151128
0.6258252
0.6369735
0.6485638
0.6606424
0.6732394
0.6863889
0.7005673
0.7152345
0.7305075
0.7464255
0.7630323
0.8344184
0.8557829
0.8784401
0.902074
0.9236051
0.8151101
0.8353548
0.8568514
0.8796675
0.9035222
0.9254021
0.7975446
0.8167998
0.8372181
0.8589159
0.8819784
0.9061175
0.9286195
0.7814745
0.7998539
0.8193116
0.8399603
0.8619271
0.8852542
0.909752
0.9332381
0.7665923
0.7841849
0.8027811
0.8224828
0.8434107
0.8656416
0.8892552
0.9142542
0.9389798
0.7523916
0.7692537
0.7870514
0.8058768
0.8258376
0.8470028
0.8694726
0.8934353
0.9189619
0.9449879
0.738147
0.7542914
0.7713061
0.7892718
0.808284
0.8283987
0.8497031
0.8723808
0.8966031
0.9225179
0.9507173
0.723881
0.7393239
0.7555753
0.7727066
0.7908005
0.8099026
0.8300836
0.8515043
0.8743183
0.8987102
0.9259423
0.9548521
0.7097803
0.7245475
0.7400667
0.7564007
0.7736223
0.7917664
0.8108918
0.8311363
0.8526294
0.8755281
0.9009704
0.9283507
0.9579019
0.6959698
0.710092
0.7249148
0.7404939
0.7568933
0.7741402
0.7922817
0.8114388
0.8317189
0.8532529
0.8770565
0.9025255
0.930142
0.9602152
0.682499
0.6960074
0.7101697
0.7250358
0.740662
0.7570692
0.7742958
0.7924474
0.8116159
0.831909
0.8542483
0.8780356
0.9036649
0.931484
0.9620749
0.6693631
0.6822868
0.695822
0.7100132
0.7249109
0.7405302
0.7569026
0.7741217
0.7922654
0.8114253
0.8324478
0.8547566
0.8786832
0.9044852
0.9325256
0.9641373
0.656514
0.6688783
0.6818152
0.6953648
0.709572
0.7244477
0.7400175
0.756365
0.7735574
0.7916718
0.8114982
0.832492
0.8549465
0.8790664
0.9051158
0.9338159
0.9656534
0.6438647
0.6556896
0.6680512
0.6809853
0.6945326
0.7086998
0.7235079
0.7390322
0.7553306
0.7724694
0.7911907
0.8109925
0.8321482
0.8548487
0.879329
0.9062571
0.935102
0.967222
0.6313191
0.6426196
0.6544224
0.6667603
0.6796693
0.6931538
0.7072302
0.7219664
0.7374128
0.7536263
0.7712969
0.7899453
0.8098427
0.8312212
0.8544515
0.8807485
0.9077352
0.9366921
0.9687659
0.6189204
0.6297119
0.6409727
0.6527325
0.6650237
0.6778487
0.6912204
0.7051992
0.719829
0.7351587
0.7517939
0.7691725
0.7874555
0.8066874
0.826867
0.6071179
0.6174344
0.6281912
0.6394147
0.6511344
0.6633513
0.676075
0.6893607
0.7032463
0.7177749
0.7334943
0.7498273
0.7669111
0.7847883
0.8035001
0.5960982
0.6059797
0.6162758
0.6270108
0.6382112
0.6498765
0.6620149
0.6746759
0.6878941
0.701707
0.7166235
0.7320809
0.7482058
0.765041
0.7826336
0.5858752
0.5953605
0.6052376
0.6155289
0.626259
0.637426
0.6490362
0.6611359
0.6737556
0.6869294
0.7011353
0.7158329
0.7311395
0.7470938
0.7637392
0.5764057
0.58553
0.595026
0.6049143
0.6152177
0.6259338
0.6370672
0.6486609
0.660743
0.6733438
0.6869165
0.7009422
0.7155304
0.7307154
0.7465353
0.8142893
0.8344782
0.8559095
0.8786431
0.9023671
0.9239242
0.7960085
0.815166
0.8354724
0.8570386
0.8799351
0.9038133
0.925668
0.7793462
0.7975973
0.8169101
0.8373927
0.8591638
0.8822454
0.906361
0.9288877
0.764077
0.7815246
0.7999585
0.8194764
0.840193
0.8621759
0.885479
0.9099989
0.9335128
0.7499156
0.7666405
0.7842852
0.8029388
0.8227045
0.8436464
0.8658538
0.8894866
0.9145105
0.9392707
0.736387
0.7524385
0.7693512
0.7872042
0.806091
0.8260645
0.8472074
0.8696955
0.8936808
0.9192371
0.9465423
0.7228032
0.7381915
0.7543838
0.7714506
0.7894737
0.8084971
0.8285899
0.8499101
0.8726067
0.8968524
0.9238745
0.9523582
0.7091848
0.7239229
0.7394108
0.755711
0.7728959
0.7909996
0.8100802
0.8302746
0.8517108
0.8745434
0.8999127
0.9272158
0.9566264
0.6957101
0.7098199
0.7246295
0.7401946
0.7565787
0.7738089
0.7919321
0.811069
0.8313265
0.852835
0.8766133
0.9020642
0.9296655
0.9597139
0.682499
0.6960074
0.7101697
0.7250358
0.740662
0.7570692
0.7742958
0.7924474
0.8116159
0.831909
0.8542483
0.8780356
0.9036649
0.931484
0.9620749
0.6696005
0.6825349
0.6960814
0.7102848
0.7251953
0.7408287
0.7572162
0.7744519
0.7926136
0.8117935
0.8328341
0.8551518
0.8790761
0.9048642
0.9328825
0.9644357
0.6570112
0.6693975
0.6823576
0.6959319
0.7101654
0.7250695
0.74067
0.7570507
0.7742791
0.792433
0.8122951
0.8333043
0.8557475
0.8798236
0.9057945
0.9343504
0.9660413
0.6446864
0.656547
0.6689463
0.6819205
0.6955105
0.7097237
0.7245814
0.740159
0.7565151
0.773717
0.7924983
0.8123329
0.8334774
0.8560979
0.8803974
0.9069476
0.9355738
0.9675076
0.6325436
0.6438964
0.655755
0.6681524
0.6811252
0.694678
0.7088279
0.7236436
0.739176
0.7554834
0.7732596
0.792019
0.812007
0.8333825
0.8563374
0.8814413
0.9080964
0.9369258
0.9688889
0.6204914
0.6313494
0.642682
0.654519
0.6668936
0.6798078
0.6932755
0.7073588
0.7221025
0.7375571
0.7543705
0.7720806
0.7909335
0.8111344
0.8330084
0.8576515
0.8827924
0.909515
0.9383148
0.9701273
0.6085719
0.6189486
0.6297699
0.6410625
0.6528562
0.6651521
0.6779605
0.6913374
0.7053218
0.7199577
0.7358157
0.7523562
0.7697259
0.7879588
0.8070455
0.5972175
0.6071445
0.6174889
0.6282755
0.6395309
0.6512548
0.6634556
0.6761836
0.6894737
0.7033642
0.7183733
0.7339473
0.7502124
0.7672038
0.7849543
0.5866088
0.5961234
0.6060315
0.6163559
0.627121
0.6383254
0.6499752
0.6621172
0.6747822
0.6880046
0.7022663
0.717028
0.7324068
0.7484395
0.7651663
0.5767611
0.5858993
0.5954101
0.6053141
0.6156341
0.6263679
0.6375199
0.6491335
0.6612368
0.6738604
0.6874586
0.7015125
0.7161318
0.7313503
0.7472054
0.5676344
0.5764288
0.5855775
0.5950993
0.6050151
0.615322
0.6260237
0.6371602
0.6487572
0.6608428
0.6738476
0.6872739
0.7012239
0.7157281
0.7308196
0.7952365
0.814345
0.8345954
0.8560959
0.8789096
0.9026568
0.9241881
0.7778969
0.7960609
0.8152756
0.8356457
0.8572845
0.8801998
0.9040541
0.9259317
0.7620636
0.7793957
0.7977006
0.8170729
0.8376224
0.8594091
0.8824664
0.9066027
0.9291539
0.7475309
0.7641241
0.7816228
0.8001127
0.8196932
0.8404233
0.862382
0.8857024
0.9102444
0.933786
0.7340351
0.7499611
0.766735
0.7844333
0.8031463
0.822924
0.8438426
0.8660656
0.8897177
0.9147664
0.9406761
0.7211285
0.7364314
0.7525305
0.7694951
0.7874054
0.8063032
0.8262547
0.8474132
0.8699197
0.8939278
0.9205775
0.9481703
0.7081576
0.7228453
0.7382789
0.7545202
0.7716409
0.7896739
0.808676
0.8287824
0.8501186
0.8728341
0.8980678
0.9252137
0.9543055
0.6951418
0.7092246
0.7240054
0.7395393
0.7558899
0.7730834
0.7911663
0.8102587
0.8304665
0.8519184
0.8756399
0.9010499
0.9286182
0.9586047
0.6822508
0.6957478
0.7098979
0.7247509
0.7403631
0.756755
0.773965
0.7920984
0.8112468
0.8315175
0.8538357
0.8776109
0.9032382
0.9310613
0.9616606
0.6696005
0.6825349
0.6960814
0.7102848
0.7251953
0.7408287
0.7572162
0.7744519
0.7926136
0.8117935
0.8328341
0.8551518
0.8790761
0.9048642
0.9328825
0.9644357
0.6572384
0.6696347
0.6826055
0.696191
0.7104365
0.7253536
0.740968
0.7573638
0.7746085
0.7927804
0.8126584
0.8336744
0.8561131
0.8801726
0.9061153
0.9346203
0.9662467
0.6451628
0.657044
0.669465
0.6824624
0.6960768
0.7103163
0.7252023
0.7408104
0.7571994
0.774437
0.79325
0.8130965
0.834227
0.8568024
0.8810223
0.9074292
0.9359471
0.9677506
0.6333316
0.6447179
0.6566119
0.6690469
0.6820596
0.6956551
0.7098509
0.7247157
0.7403012
0.756666
0.7744961
0.7932828
0.8132558
0.8345507
0.8573306
0.8820769
0.908526
0.9372367
0.9690637
0.6216666
0.632574
0.6439589
0.6558518
0.6682861
0.6812641
0.6948002
0.708957
0.7237802
0.7393209
0.7562307
0.774041
0.7929734
0.813164
0.8347714
0.8582958
0.8831271
0.9097336
0.9384824
0.9702105
0.6100808
0.6205204
0.6314092
0.6427744
0.6546465
0.6670259
0.679924
0.6933981
0.7074883
0.7222396
0.7382627
0.7551121
0.7730135
0.7921495
0.8128107
0.8359969
0.8595456
0.8844228
0.9109727
0.9396321
0.9711711
0.5986151
0.608599
0.6190043
0.6298559
0.641181
0.6529791
0.665259
0.6780722
0.6914543
0.7054443
0.7205819
0.736349
0.7528799
0.7702011
0.7882959
0.5876854
0.597243
0.6071968
0.6175698
0.6283868
0.6396462
0.6513546
0.6635593
0.6762915
0.6895861
0.7039338