/*--------------------------------*- C++ -*----------------------------------*\
| =========                 |                                                 |
| \\      /  F ield         | OpenFOAM: The Open Source CFD Toolbox           |
|  \\    /   O peration     | Version:  2306                                  |
|   \\  /    A nd           | Website:  www.openfoam.com                      |
|    \\/     M anipulation  |                                                 |
\*---------------------------------------------------------------------------*/
FoamFile
{
    version     2.0;
    format      ascii;
    arch        "LSB;label=32;scalar=64";
    class       volVectorField;
    location    "1.2/phiEA";
    object      i;
}
// * * * * * * * * * * * * * * * * * * * * * * * * * * * * * * * * * * * * * //

dimensions      [0 -2 0 0 0 1 0];

internalField   nonuniform List<vector> 
20000
(
(-562.3278 2308.812 1914.58)
(-590.8411 7417.574 1950.333)
(-1123.462 2023.679 1751.68)
(-561.6762 2307.382 5658.765)
(-652.962 14011.85 2022.593)
(-1172.663 6511.231 1779.892)
(-590.1593 7413.253 5764.821)
(-1043.038 1816.809 1613.628)
(-1122.258 2022.551 5181.237)
(-560.4176 2304.57 9258.043)
(-758.8064 22791.96 2119.083)
(-1280.145 12332.19 1836.486)
(-652.2176 14005.1 5979.172)
(-1078.811 5850.741 1637.746)
(-1171.412 6507.839 5265.137)
(-588.8424 7404.758 9432.4)
(-889.8448 1665.942 1503.088)
(-1042.043 1815.844 4776.112)
(-1119.932 2020.323 8484.51)
(-558.582 2300.408 12760.56)
(-919.9511 32497.03 2171.692)
(-1464.052 20122.06 1909.534)
(-757.9682 22785.99 6265.026)
(-1157.362 11097.95 1686.025)
(-1278.799 12327.01 5433.479)
(-650.7793 13991.84 9784.841)
(-916.6617 5367.983 1524.516)
(-1077.79 5847.845 4847.933)
(-1168.995 6501.142 8622.86)
(-586.9212 7392.182 13001.97)
(-757.7877 1548.64 1411.484)
(-889.0363 1665.085 4451.456)
(-1040.119 1813.936 7827.483)
(-1116.536 2017.017 11702.61)
(-556.1858 2294.914 14996.71)
(-1131.76 36920.62 2039.024)
(-1745.428 28767.5 1937.064)
(-919.0126 32500.24 6418.174)
(-1292.808 18139.13 1747.465)
(-1462.565 20118.04 5650.607)
(-756.3487 22774.4 10254.23)
(-975.7086 10192.23 1567.377)
(-1156.286 11093.56 4991.748)
(-1276.196 12316.78 8900.564)
(-648.6805 13972.22 13490.12)
(-779.1475 4992.103 1430.945)
(-915.8345 5365.411 4515.326)
(-1075.812 5842.116 7946.108)
(-1165.467 6491.197 11894.62)
(-584.4129 7375.575 15281.51)
(-654.6122 1452.344 1332.886)
(-757.1069 1547.862 4182.23)
(-887.4693 1663.387 7300.485)
(-1037.307 1811.099 10803.37)
(-1112.103 2012.643 13759.63)
(-759.2691 3139.221 19714.97)
(-1339.498 33253.63 1966.699)
(-2116.882 32725.15 1793.814)
(-1130.779 36928.82 6014.42)
(-1501.862 25968.73 1765.694)
(-1743.804 28772.13 5730.81)
(-917.2017 32507.06 10500.55)
(-1077.93 16677.06 1621.473)
(-1291.656 18135.95 5174.678)
(-1459.691 20110.17 9258.528)
(-753.9854 22757.36 14139.87)
(-826.2641 9485.273 1469.863)
(-974.844 10188.35 4643.122)
(-1154.201 11084.88 8183.755)
(-1272.395 12301.58 12280.22)
(-645.9397 13946.32 15857.66)
(-672.4259 4683.219 1350.804)
(-778.4526 4989.768 4240.278)
(-914.2311 5360.316 7406.095)
(-1072.923 5833.594 10968.22)
(-1160.86 6478.037 13986.49)
(-797.8163 10090.62 20114.49)
(-574.4986 1370.503 1263.986)
(-654.0222 1451.628 3951.085)
(-755.7862 1546.318 6863.118)
(-885.1788 1660.861 10081.7)
(-1033.635 1807.342 12707.96)
(-1518.694 2753.749 18089.61)
(-756.2677 3131.329 18295.01)
(-1509.048 25245.34 1947.559)
(-2481.825 29480.74 1708.341)
(-1338.465 33257.28 5793.26)
(-1779.878 29556.65 1627.648)
(-2115.237 32734.3 5298.139)
(-1128.894 36945.62 9815.829)
(-1236.368 23896.8 1634.779)
(-1500.653 25973.52 5227.803)
(-1740.666 28781.6 9387.694)
(-914.5612 32517.77 14475.78)
(-908.043 15532.54 1518.712)
(-1077.015 16674.37 4804.365)
(-1289.423 18129.69 8485.956)
(-1455.492 20098.56 12777.28)
(-750.8984 22734.97 16624.73)
(-711.7751 8903.273 1386.636)
(-825.5411 9481.762 4356.395)
(-973.1672 10180.67 7617.509)
(-1151.154 11071.97 11298.64)
(-1267.43 12281.47 14442.37)
(-881.8551 19088.22 20923.34)
(-589.8193 4420.474 1280.644)
(-671.8247 4681.069 4004.558)
(-777.1044 4985.137 6959.178)
(-911.8868 5352.73 10228.58)
(-1069.148 5822.305 12902.89)
(-1585.306 8864.76 18410.89)
(-794.6662 10066.74 18716.38)
(-511.5954 1299.138 1202.546)
(-573.9773 1369.837 3748.338)
(-652.8767 1450.205 6487.332)
(-753.8543 1544.019 9482.436)
(-882.1856 1657.512 11863.78)
(-1412.193 2473.1 16707.62)
(-1513.14 2747.345 16781.98)
(-753.217 3122.367 18539.12)
(-1626.06 15524.31 1947.198)
(-2780.065 22379.72 1676.753)
(-1507.965 25246.12 5733.176)
(-2053.589 26621.8 1543.539)
(-2480.132 29485.42 5039.942)
(-1336.485 33264.88 9439.058)
(-1447.701 27207.89 1503.325)
(-1778.716 29565.54 4811.701)
(-2112.071 32752.79 8660.268)
(-1126.156 36971.28 13503.2)
(-1035.136 22271.02 1528.958)
(-1235.421 23901.53 4843.149)
(-1498.312 25983.25 8571.588)
(-1736.088 28796.06 12953.74)
(-911.1135 32532.53 17018.19)
(-780.2059 14588.35 1431.435)
(-907.2828 15530.18 4502.118)
(-1075.239 16669.06 7884.24)
(-1286.159 18120.43 11718.95)
(-1450.007 20083.23 15030.4)
(-1025.291 31146.43 21994.77)
(-623.7 8407.473 1313.959)
(-711.1515 8900.048 4111.527)
(-824.1377 9474.799 7151.435)
(-970.7147 10169.22 10522.8)
(-1147.171 11054.85 13293.87)
(-1730.934 16813.47 19057.53)
(-878.3969 19051.17 19570.45)
(-525.0649 4191.205 1218.138)
(-589.2886 4418.476 3798.07)
(-670.6571 4676.801 6575.881)
(-775.1318 4978.235 9616.128)
(-908.8227 5342.672 12037.58)
(-1460.746 7968.216 16984.97)
(-1579.518 8845.448 17126.38)
(-791.4563 10039.6 19013.99)
(-461.1427 1235.808 1147.108)
(-511.1279 1298.514 3567.438)
(-572.9641 1368.514 6157.481)
(-651.1997 1448.086 8967.27)
(-751.3285 1540.971 11162.6)
(-1205.482 2268.218 15598.72)
(-1407.593 2467.547 15494.94)
(-1507.494 2739.973 17001.47)
(-750.1171 3112.335 18782.5)
(-1685.363 5220.131 1949.499)
(-2986.134 13761.16 1667.655)
(-1624.942 15524.23 5730.554)
(-2277.511 20202.25 1510.341)
(-2778.316 22381.35 4944.205)
(-1505.892 25247.85 9333.791)
(-1655.655 24504.41 1422.559)
(-2052.446 26626.49 4558.331)
(-2476.885 29494.9 8226.399)
(-1333.614 33276.57 12967.04)
(-1204.972 25363.77 1403.792)
(-1446.806 27216.38 4447.302)
(-1776.475 29583.43 7873.691)
(-2107.468 32780.75 11927.14)
(-1122.59 37005.97 15848.98)
(-886.7667 20927.51 1439.583)
(-1034.355 22275.61 4531.983)
(-1233.584 23911.08 7946.802)
(-1494.89 25998.02 11836.12)
(-1730.108 28815.61 15237.53)
(-1244.487 44638.36 22497.77)
(-682.7141 13782.63 1355.486)
(-779.553 14586.23 4245.249)
(-905.8065 15525.52 7392.729)
(-1072.642 16661.2 10894.18)
(-1281.891 18108.19 13791.66)
(-1980.562 27520.11 19889.31)
(-1021.382 31116.41 20691.06)
(-554.8799 7974.324 1249.332)
(-623.1507 8404.479 3897.57)
(-709.9398 8893.645 6753.109)
(-822.0835 9464.42 9883.865)
(-967.5081 10154.04 12385.94)
(-1567.444 15135.66 17542.34)
(-1724.666 16784.02 17821.31)
(-874.8585 19009.23 19977.64)
(-473.173 3987.629 1161.783)
(-524.5895 4189.334 3614.01)
(-588.2571 4414.505 6239.879)
(-668.9475 4670.437 9090.574)
(-772.5524 4969.079 11320.87)
(-1241.909 7312.243 15846.77)
(-1456.004 7951.486 15794.56)
(-1573.619 8823.187 17394.22)
(-788.1871 10009.2 19310.85)
(-419.8488 1178.836 1096.598)
(-460.7189 1235.221 3404.126)
(-510.2185 1297.275 5862.971)
(-571.4798 1366.541 8514.829)
(-649.0062 1445.273 10559.63)
(-1026.703 2108.83 14677.96)
(-1201.736 2263.237 14463.14)
(-1402.917 2461.115 15692.93)
(-1501.755 2731.635 17220.32)
(-746.9683 3101.233 27727.83)
(-1685.363 -5220.131 1949.499)
(-3090.662 4627.107 1665.621)
(-1684.227 5220.039 5736.759)
(-2432.379 12418.33 1499.275)
(-2984.342 13761.61 4916.411)
(-1622.804 15524.16 9326.466)
(-1825.541 18591.82 1389.838)
(-2276.363 20204.02 4458.254)
(-2774.965 22384.66 8064.967)
(-1502.89 25250.63 12814.41)
(-1372.015 22843.41 1326.575)
(-1654.788 24508.95 4204.3)
(-2050.246 26635.94 7449.31)
(-2472.173 29509.24 11315.8)
(-1329.88 33292.43 15204.9)
(-1029.365 23839.09 1320.203)
(-1204.24 25371.87 4155.295)
(-1445.076 27233.44 7283.647)
(-1773.21 29610.43 10853.01)
(-2101.471 32818.31 14008.38)
(-1534.346 50802.95 20670.88)
(-774.7582 19779.43 1362.121)
(-886.0993 20931.96 4269.003)
(-1032.839 22284.89 7440.94)
(-1230.898 23925.55 10979.92)
(-1490.417 26017.89 13929.52)
(-2363.977 39547.81 20152.36)
(-1240.145 44668.99 21129.8)
(-606.8794 13077.77 1288.122)
(-682.1409 13780.7 4021.592)
(-778.2838 14582.05 6974.704)
(-903.6447 15518.6 10220.1)
(-1069.244 16650.78 12826.12)
(-1751.783 24816.01 18250.74)
(-1973.605 27498.92 18710.42)
(-1017.368 31084.06 21234.31)
(-499.8231 7589.328 1191.147)
(-554.3887 7971.525 3707.207)
(-622.0827 8398.532 6404.822)
(-708.165 8884.095 9337.516)
(-819.3966 9450.64 11638.03)
(-1322.182 13903.11 16345.01)
(-1562.414 15110.31 16398.5)
(-1718.247 16750.11 18188.42)
(-871.24 18962.36 20384.39)
(-430.7236 3804.402 1110.467)
(-472.7423 3985.868 3447.97)
(-523.6645 4185.615 5940.169)
(-586.7458 4408.582 8629.62)
(-666.7111 4661.991 10705.66)
(-1055.731 6801.214 14904.38)
(-1238.063 7297.241 14732.48)
(-1451.17 7932.073 16036.52)
(-1567.609 8797.97 17661.4)
(-784.8586 9975.526 28586.24)
(-385.3684 1127.06 1050.234)
(-419.4613 1178.281 3255.255)
(-459.894 1234.054 5596.92)
(-508.8856 1295.426 8110.648)
(-569.5376 1363.922 10029.89)
(-886.8601 1977.936 13886.32)
(-1023.544 2104.274 13607.16)
(-1197.931 2257.444 14644.76)
(-1398.166 2453.803 15890.37)
(-1495.925 2722.33 25414.54)
(-356.6972 1486.721 19291.39)
(-1626.06 -15524.31 1947.198)
(-3090.662 -4627.107 1665.621)
(-1684.227 -5220.039 5736.759)
(-2510.993 4174.853 1496.084)
(-3088.848 4627.188 4910.097)
(-1682.056 5219.883 9335.467)
(-1942.876 11426.35 1378.371)
(-2431.222 12418.9 4424.849)
(-2980.911 13762.52 8017.681)
(-1619.707 15524.16 12801.14)
(-1508.329 17330.05 1294.88)
(-1824.679 18593.59 4105.862)
(-2274.158 20207.59 7281.6)
(-2770.107 22389.7 11087.88)
(-1498.986 25254.49 15019.74)
(-1169.589 21470.85 1246.388)
(-1371.31 22847.76 3923.127)
(-1653.115 24518.07 6877.217)
(-2047.049 26650.18 10256.5)
(-2466.043 29528.47 13278.3)
(-1818.388 45681.92 19652.21)
(-898.0698 22535.55 1248.046)
(-1028.742 23846.82 3909.865)
(-1202.823 25388.12 6810.321)
(-1442.552 27259.16 10046.61)
(-1768.953 29646.61 12753.89)
(-2873.263 45063.94 18280.92)
(-1529.992 50864.87 18863.16)
(-688.0877 18773.95 1293.612)
(-774.1743 19783.73 4040.932)
(-884.8024 20940.92 7013.075)
(-1030.62 22298.91 10286.29)
(-1227.385 23944.99 12927.25)
(-2037.461 35711.35 18424.5)
(-2356.426 39582.88 18935.97)
(-1235.712 44711.48 21655.7)
(-546.3533 12450.55 1227.593)
(-606.3679 13076 3823.104)
(-681.0255 13776.89 6610.471)
(-776.424 14575.83 9646.502)
(-900.8158 15509.42 12036.79)
(-1461.425 22819.95 16973.91)
(-1746.36 24798.81 17163.4)
(-1966.452 27475.53 19201.72)
(-1013.251 31049.29 21778.92)
(-454.8303 7242.521 1138.226)
(-499.3787 7586.695 3535.73)
(-553.4325 7965.961 6094.732)
(-620.5172 8389.656 8859.545)
(-705.8425 8871.408 10998.3)
(-1119.817 12940.5 15359.11)
(-1318.135 13880.46 15275.24)
(-1557.26 15080.91 16730.8)
(-1711.678 16711.72 18555.18)
(-867.5416 18910.51 30333.24)
(-395.2904 3637.814 1063.387)
(-430.33 3802.737 3296.703)
(-471.9037 3982.365 5669.625)
(-522.3084 4180.064 8218.233)
(-584.7677 4400.716 10165.88)
(-911.0778 6381.107 14095.63)
(-1052.496 6787.492 13853.96)
(-1234.147 7279.759 14954.74)
(-1446.246 7909.972 16277.91)
(-1561.487 8769.792 26137.37)
(-374.645 4793.77 20018.82)
(-356.0854 1079.615 1007.406)
(-385.0116 1126.534 3118.536)
(-418.7064 1177.178 5354.244)
(-458.684 1232.313 7745.331)
(-507.1405 1292.972 9556.486)
(-778.2408 1866.653 13190.89)
(-884.1174 1973.717 12871.74)
(-1020.338 2098.958 13775.92)
(-1194.068 2250.838 14825.88)
(-1393.339 2445.613 23444.2)
(-716.8755 1307.242 17671.31)
(-322.4155 1311.924 20818.83)
(-1509.048 -25245.34 1947.559)
(-2986.134 -13761.16 1667.655)
(-1624.942 -15524.23 5730.554)
(-2510.993 -4174.853 1496.084)
(-3088.848 -4627.188 4910.097)
(-1682.056 -5219.883 9335.467)
(-2002.383 3840.969 1374.835)
(-2509.829 4174.981 4415.202)
(-3085.376 4627.359 8006.749)
(-1678.912 5219.679 12812.36)
(-1602.377 10649.91 1283.51)
(-1942.013 11426.95 4071.369)
(-2428.999 12420.06 7225.535)
(-2975.939 13763.93 11020.7)
(-1615.682 15524.25 15001.83)
(-1283.944 16288.21 1215.862)
(-1507.633 17331.77 3827.87)
(-1823.019 18597.14 6712.642)
(-2270.954 20212.97 10020.81)
(-2763.79 22396.47 13005.97)
(-2050.059 34640.57 19338.07)
(-1019.327 20297.62 1177.421)
(-1168.992 21475.02 3688.025)
(-1369.95 22856.5 6422.325)
(-1650.68 24531.79 9475.966)
(-2042.887 26669.23 12042.64)
(-3373.062 40524.8 17170.96)
(-1813.91 45711.5 17577.48)
(-796.9828 21393.41 1184.414)
(-897.5266 22542.94 3697.854)
(-1027.535 23862.33 6412.123)
(-1200.754 25412.61 9399.262)
(-1439.261 27293.6 11811.88)
(-2419.781 40712.1 16647.84)
(-2865.925 45127.22 16695.56)
(-1525.676 50945.04 18812.31)
(-619.0981 17878.39 1232.192)
(-687.568 18778.1 3839.107)
(-773.0386 19792.38 6641.735)
(-882.9025 20954.46 9699.276)
(-1027.716 22317.72 12115.07)
(-1678.135 32867.82 17100.45)
(-2031.792 35745.79 17309.37)
(-2348.695 39628.4 19415.68)
(-1231.185 44765.87 22186.86)
(-496.9585 11885.02 1172.626)
(-545.8913 12448.91 3644.662)
(-605.3717 13072.49 6287.01)
(-679.3901 13771.23 9146.447)
(-773.9892 14567.58 11364.92)
(-1231.268 21256.48 15930.51)
(-1457.111 22805.14 15958.68)
(-1740.776 24779.58 17608.89)
(-1959.103 27449.83 19694.3)
(-1009.03 31011.96 32597.27)
(-417.2981 6926.979 1089.719)
(-454.4246 7240.035 3379.688)
(-498.513 7581.46 5815.228)
(-552.0303 7957.651 8433.771)
(-618.4677 8377.859 10438.44)
(-964.6172 12147.74 14516.03)
(-1116.428 12919.83 14351.27)
(-1313.993 13854.06 15581.03)
(-1551.984 15047.42 17062.8)
(-1704.96 16668.8 27605.46)
(-413.9358 9156.631 21516.99)
(-365.2065 3485.104 1019.915)
(-394.9282 3636.235 3157.852)
(-429.5631 3799.424 5422.999)
(-470.6736 3977.135 7846.687)
(-520.5328 4172.69 9683.97)
(-799.0752 6023.643 13386.12)
(-908.2736 6368.399 13100.58)
(-1049.204 6771.449 14060.71)
(-1230.16 7259.791 15176.49)
(-1441.23 7885.176 24081.78)
(-748.028 4221.384 18293.24)
(-337.9568 4256.245 21820.38)
(-330.8353 1035.849 967.6412)
(-355.7551 1079.115 2992.185)
(-384.3161 1125.488 5131.241)
(-417.5986 1175.531 7411.939)
(-457.0992 1230 9128.445)
(-692.9552 1769.591 12569.43)
(-775.8125 1862.713 12226.01)
(-881.3355 1968.782 13029.92)
(-1017.084 2092.883 13944.22)
(-1190.146 2243.419 21868.53)
(-670.9366 1175.196 16289.63)
(-653.3272 1156.511 19055.13)
(-286.1495 1086.101 21753.69)
(-1339.498 -33253.63 1966.699)
(-2780.065 -22379.72 1676.753)
(-1507.965 -25246.12 5733.176)
(-2432.379 -12418.33 1499.275)
(-2984.342 -13761.61 4916.411)
(-1622.804 -15524.16 9326.466)
(-2002.383 -3840.969 1374.835)
(-2509.829 -4174.981 4415.202)
(-3085.376 -4627.359 8006.749)
(-1678.912 -5219.679 12812.36)
(-1650.039 3579.784 1279.903)
(-2001.518 3841.111 4060.737)
(-2507.595 4175.239 7209.317)
(-3080.344 4627.625 11004.98)
(-1674.827 5219.434 15014.21)
(-1362.79 10009.24 1204.772)
(-1601.682 10650.51 3793.722)
(-1940.351 11428.15 6654.991)
(-2425.771 12421.79 9941.946)
(-2969.475 13765.84 12925.43)
(-2209.922 21290.58 19288.92)
(-1118.181 15398.03 1148.078)
(-1283.356 16289.87 3596.335)
(-1506.291 17335.22 6263.261)
(-1820.606 18602.48 9245.098)
(-2266.787 20220.17 11761.83)
(-3781.132 30725.23 16752.42)
(-2045.41 34649.26 17146)
(-904.0715 19269.74 1116.755)
(-1018.808 20301.62 3485.662)
(-1167.839 21483.39 6041.58)
(-1367.968 22869.65 8854.853)
(-1647.508 24550.13 11131.97)
(-2795.607 36603.24 15577.44)
(-3365.703 40557.33 15368.1)
(-1809.55 45750.61 17187.7)
(-716.7196 20375.71 1127.496)
(-796.5006 21400.48 3510.766)
(-896.4734 22557.76 6067.853)
(-1025.772 23885.68 8854.303)
(-1198.054 25445.38 11055.43)
(-1969.04 37482.48 15421.14)
(-2414.553 40772.1 15204.87)
(-2858.63 45206.66 16663.29)
(-1521.396 51043.59 18759.55)
(-562.8808 17070.29 1176.512)
(-618.6297 17882.4 3658.066)
(-686.5562 18786.44 6312.899)
(-771.3736 19805.43 9189.529)
(-880.4154 20972.61 11427.51)
(-1405.194 30635.2 16027.74)
(-1673.684 32900.95 16062.78)
(-2025.968 35789.69 17745.03)
(-2340.783 39684.42 19900.13)
(-1226.565 44832.25 33176.24)
(-455.7886 11370.05 1122.305)
(-496.5373 11883.49 3482.534)
(-544.991 12445.66 5996.03)
(-603.9101 13067.27 8702.136)
(-677.2481 13763.7 10778.99)
(-1057.91 19966.17 15042.58)
(-1227.679 21243.32 14975.15)
(-1452.672 22788.44 16369.22)
(-1735.03 24758.24 18055.56)
(-1951.558 27421.73 29477.35)
(-481.8045 15295.89 23504.5)
(-385.4481 6637.539 1044.964)
(-416.9251 6924.622 3236.59)
(-453.6338 7235.088 5560.725)
(-497.2427 7573.639 8049.795)
(-550.1935 7946.605 9939.55)
(-845.1871 11472.18 13778.3)
(-961.6894 12128.62 13561.78)
(-1112.963 12895.65 14636.13)
(-1309.757 13823.88 15886.55)
(-1546.585 15009.8 25376.36)
(-816.4287 8085.036 19573.58)
(-372.2629 8305.313 23946.36)
(-339.2714 3344.188 979.5657)
(-364.8712 3483.602 3029.584)
(-394.2219 3633.092 5196.48)
(-428.4374 3794.477 7507.816)
(-469.0621 3970.187 9248.576)
(-711.2767 5711.645 12752.7)
(-796.5954 6011.772 12439.99)
(-905.422 6353.505 13294.56)
(-1045.855 6753.083 14266.99)
(-1226.103 7237.332 22446.8)
(-693.8107 3798.238 16841.97)
(-680.4368 3757.771 19924.24)
(-298.7998 3542.758 22996.09)
(-308.7909 995.2545 930.5586)
(-330.5279 1035.372 2874.817)
(-355.1106 1078.12 4925.03)
(-383.2947 1123.925 7105.424)
(-416.1468 1173.343 8737.669)
(-624.5606 1683.439 12007.51)
(-690.7735 1765.888 11649.19)
(-773.3506 1858.094 12375.22)
(-878.5146 1963.131 13187.68)
(-1013.785 2086.048 20564.61)
(-574.1816 1078.5 15186.77)
(-618.3425 1040.828 17547.61)
(-586.0268 959.598 19900.69)
(-248.2953 814.9673 22492.74)
(-1131.76 -36920.62 2039.024)
(-2481.825 -29480.74 1708.341)
(-1338.465 -33257.28 5793.26)
(-2277.511 -20202.25 1510.341)
(-2778.316 -22381.35 4944.205)
(-1505.892 -25247.85 9333.791)
(-1942.876 -11426.35 1378.371)
(-2431.222 -12418.9 4424.849)
(-2980.911 -13762.52 8017.681)
(-1619.707 -15524.16 12801.14)
(-1650.039 -3579.784 1279.903)
(-2001.518 -3841.111 4060.737)
(-2507.595 -4175.239 7209.317)
(-3080.344 -4627.625 11004.98)
(-1674.827 -5219.434 15014.21)
(-1402.731 3364.348 1201.202)
(-1649.344 3579.929 3782.901)
(-1999.854 3841.394 6637.234)
(-2504.351 4175.629 9919.109)
(-3073.803 4627.988 12906.45)
(-2290.946 7157.738 19297.09)
(-1186.315 9462.042 1137.338)
(-1362.206 10009.83 3563.055)
(-1600.343 10651.71 6206.291)
(-1937.936 11429.96 9164.259)
(-2421.573 12424.12 11667.86)
(-4062.998 18881.71 16625.31)
(-2205.138 21292.03 17049.81)
(-991.3602 14618.32 1088.558)
(-1117.672 15399.63 3397.56)
(-1282.222 16293.2 5888.58)
(-1504.337 17340.41 8631.924)
(-1817.464 18609.61 10857.25)
(-3102.664 27741.21 15154.13)
(-3773.605 30736.98 14859.65)
(-2040.913 34661.68 16618.9)
(-812.733 18353.84 1062.594)
(-903.6122 19273.57 3307.529)
(-1017.805 20309.63 5713.552)
(-1166.157 21495.96 8334.6)
(-1365.384 22887.2 10407.07)
(-2254.817 33695.97 14402.77)
(-2790.601 36634.69 13943.26)
(-3358.525 40598.23 15036.87)
(-1805.307 45799.24 16796.27)
(-651.4046 19457.06 1075.991)
(-716.2859 20382.5 3343.316)
(-795.5646 21414.67 5763.812)
(-894.9334 22580.07 8382.845)
(-1023.469 23916.92 10418.39)
(-1639.104 34945.28 14436.02)
(-1964.996 37539.13 14084.25)
(-2409.336 40846.74 15176.2)
(-2851.38 45302.37 16629.21)
(-1517.154 51160.66 27193.71)
(-516.0658 16333.93 1125.614)
(-562.4545 17074.15 3493.862)
(-617.7171 17890.45 6017.732)
(-685.0719 18799.03 8737.883)
(-769.1931 19822.92 10830.24)
(-1203.79 28789.47 15119.77)
(-1401.517 30666.94 15053.44)
(-1669.111 32942.8 16464.56)
(-2019.988 35843.1 18185.01)
(-2332.688 39751.01 29770.4)
(-588.5245 22827.97 24022.51)
(-420.874 10897.34 1075.927)
(-455.4019 11368.61 3334.042)
(-495.716 11880.45 5731.49)
(-543.6692 12440.81 8302.237)
(-601.9949 13060.33 10258.2)
(-925.6638 18864.76 14268.34)
(-1054.822 19954.25 14138.83)
(-1223.989 21228.4 15358.02)
(-1448.107 22769.79 16780.86)
(-1729.122 24734.69 27016.34)
(-935.137 13550.01 21255.76)
(-433.1468 14675.66 27001.67)
(-358.0012 6370.303 1003.451)
(-385.103 6635.298 3104.501)
(-416.1974 6919.931 5327.194)
(-452.4725 7227.695 7699.99)
(-495.5779 7563.238 9489.472)
(-751.8643 10881.85 13120.94)
(-842.6039 11454.35 12871.34)
(-958.6975 12106.21 13829.36)
(-1109.421 12867.94 14920.76)
(-1305.425 13789.88 23621.01)
(-744.3095 7285.541 17979.31)
(-740.4695 7353.413 21771.45)
(-326.9397 7084.112 25753.38)
(-316.6331 3213.444 941.9497)
(-338.9595 3342.755 2910.477)
(-364.217 3480.611 4987.104)
(-393.1846 3628.397 7196.419)
(-426.962 3787.902 8851.329)
(-640.9276 5434.552 12180.4)
(-709.0507 5700.486 11850.49)
(-794.0749 5997.83 12623.1)
(-902.5232 6336.422 13488.1)
(-1042.45 6732.388 21097.95)
(-591.3858 3487.654 15689.88)
(-638.4117 3384.822 18324.51)
(-608.1933 3134.855 20987.8)
(-257.6255 2656.373 23932.63)
(-289.3461 957.4272 895.8469)
(-308.5037 994.7989 2765.319)
(-329.9278 1034.423 4733.373)
(-354.1636 1076.632 6821.852)
(-381.9557 1121.848 8378.267)
(-568.5914 1605.922 11494.48)
(-622.579 1679.941 11127.77)
(-688.5623 1761.539 11790.58)
(-770.8552 1852.797 12524.03)
(-875.6548 1956.765 19446.54)
(-489.3248 1003.153 14275.88)
(-531.6163 955.8182 16347.22)
(-562.6201 864.4363 18312.94)
(-515.697 721.6652 20571.88)
(-209.3149 510.1476 15713)
(-919.9511 -32497.03 2171.692)
(-2116.882 -32725.15 1793.814)
(-1130.779 -36928.82 6014.42)
(-2053.589 -26621.8 1543.539)
(-2480.132 -29485.42 5039.942)
(-1336.485 -33264.88 9439.058)
(-1825.541 -18591.82 1389.838)
(-2276.363 -20204.02 4458.254)
(-2774.965 -22384.66 8064.967)
(-1502.89 -25250.63 12814.41)
(-1602.377 -10649.91 1283.51)
(-1942.013 -11426.95 4071.369)
(-2428.999 -12420.06 7225.535)
(-2975.939 -13763.93 11020.7)
(-1615.682 -15524.25 15001.83)
(-1402.731 -3364.348 1201.202)
(-1649.344 -3579.929 3782.901)
(-1999.854 -3841.394 6637.234)
(-2504.351 -4175.629 9919.109)
(-3073.803 -4627.988 12906.45)
(-2290.946 -7157.738 19297.09)
(-1220.821 3180.38 1133.854)
(-1402.147 3364.491 3552.358)
(-1648.005 3580.217 6188.262)
(-1997.434 3841.821 9139.375)
(-2500.133 4176.152 11640.63)
(-4205.965 6347.499 16593.9)
(-2286.092 7157.755 17041.43)
(-1051.511 8982.849 1078.189)
(-1185.809 9462.611 3365.346)
(-1361.077 10011 5833.112)
(-1598.395 10653.51 8552.156)
(-1934.792 11432.38 10761.11)
(-3314.899 17042.25 15011.85)
(-4055.314 18885.21 14699.62)
(-2200.521 21294.77 16473.98)
(-890.9881 13923.64 1035.488)
(-990.9098 14619.86 3222.89)
(-1116.687 15402.84 5566.607)
(-1280.57 16298.21 8120.292)
(-1501.791 17347.33 10141.96)
(-2487.945 25532.31 13991.95)
(-3097.694 27753.15 13442.88)
(-3766.319 30751.97 14408.83)
(-2036.569 34677.8 16091.15)
(-738.4813 17527.05 1013.655)
(-812.3206 18357.52 3148.393)
(-902.7225 19281.25 5424.553)
(-1016.34 20321.67 7886.067)
(-1163.964 21512.75 9799.639)
(-1868.761 31414.2 13467.59)
(-2251 33725.92 12892.24)
(-2785.704 36673.72 13644.06)
(-3351.528 40647.5 14704.04)
(-1801.181 45857.35 23769.03)
(-597.0546 18619.71 1028.978)
(-651.0106 19463.57 3191.701)
(-715.4433 20396.1 5491.481)
(-794.1951 21436.02 7966.22)
(-892.9211 22609.9 9867.052)
(-1400.254 32846.81 13606.34)
(-1635.786 34998.93 13184.33)
(-1960.958 37609.3 14057.45)
(-2404.13 40936.13 15145.87)
(-2844.175 45414.5 24126.72)
(-736.5056 26293.17 18034.33)
(-476.3895 15657.63 1078.758)
(-515.6748 16337.67 3343.683)
(-561.6233 17081.92 5749.846)
(-616.3774 17902.58 8332.268)
(-683.1272 18815.88 10300.86)
(-1051.703 27211.76 14331.06)
(-1200.64 28819.89 14199.59)
(-1397.742 30706.83 15428.35)
(-1664.417 32993.42 16870.34)
(-2013.849 35906.08 27200.02)
(-1122.868 20280.96 21578.86)
(-535.7931 24267.23 28329.44)
(-390.8015 10460.63 1032.946)
(-420.5166 10895.99 3197.119)
(-454.647 11365.76 5489.058)
(-494.5094 11875.92 7938.494)
(-541.9364 12434.36 9789.303)
(-822.7904 17901.01 13580.19)
(-922.9478 18853.81 13409.97)
(-1051.649 19940.66 14498.79)
(-1220.197 21211.63 15741.93)
(-1443.417 22749.09 25103.14)
(-832.6913 12231.5 19467.93)
(-847.569 13040.36 24419.81)
(-378.5301 13542.66 30265.78)
(-334.0515 6122.238 964.7724)
(-357.6805 6368.168 2981.927)
(-384.4294 6630.837 5111.508)
(-415.1282 6912.919 7378.853)
(-450.95 7217.861 9079.304)
(-677.2137 10357.04 12527.89)
(-749.5495 10865.1 12256.37)
(-839.9654 11433.38 13124.16)
(-955.6415 12080.45 14096.72)
(-1105.804 12836.66 22181.12)
(-629.4764 6696.23 16726.19)
(-683.1105 6633.992 19977.15)
(-657.6604 6286.809 23406.34)
(-278.3816 5397.436 27283.33)
(-296.6676 3091.582 906.748)
(-316.3419 3212.076 2799.39)
(-338.3506 3339.903 4792.573)
(-363.2556 3476.143 6908.452)
(-391.8245 3622.155 8486.16)
(-583.3889 5185.113 11658.22)
(-638.9072 5424.012 11318.03)
(-706.7888 5687.358 12024.12)
(-791.5137 5981.814 12805.81)
(-899.5772 6317.144 19943.67)
(-503.0543 3245.289 14741.36)
(-546.7536 3110.09 17057.76)
(-579.1514 2826.422 19288.24)
(-532.1231 2355.51 21837.84)
(-215.0082 1626.523 16772.29)
(-272.0391 922.0391 863.2468)
(-289.0768 956.9912 2662.78)
(-307.9428 993.8917 4554.472)
(-329.0456 1033.004 6558.172)
(-352.9215 1074.656 8045.652)
(-521.8651 1535.464 11022.6)
(-566.776 1602.606 10651.83)
(-620.5712 1675.828 11262.25)
(-686.3216 1756.546 11931.61)
(-768.3263 1846.823 18466.24)
(-422.6098 941.2053 13496.05)
(-453.637 889.4546 15358.44)
(-486.615 794.2846 17050.55)
(-504.3368 650.7067 18921.7)
(-443.1851 453.2145 14370.82)
(-1529.815 2517.347 49869.48)
(-758.8064 -22791.96 2119.083)
(-1745.428 -28767.5 1937.064)
(-919.0126 -32500.24 6418.174)
(-1779.878 -29556.65 1627.648)
(-2115.237 -32734.3 5298.139)
(-1128.894 -36945.62 9815.829)
(-1655.655 -24504.41 1422.559)
(-2052.446 -26626.49 4558.331)
(-2476.885 -29494.9 8226.399)
(-1333.614 -33276.57 12967.04)
(-1508.329 -17330.05 1294.88)
(-1824.679 -18593.59 4105.862)
(-2274.158 -20207.59 7281.6)
(-2770.107 -22389.7 11087.88)
(-1498.986 -25254.49 15019.74)
(-1362.79 -10009.24 1204.772)
(-1601.682 -10650.51 3793.722)
(-1940.351 -11428.15 6654.991)
(-2425.771 -12421.79 9941.946)
(-2969.475 -13765.84 12925.43)
(-2209.922 -21290.58 19288.92)
(-1220.821 -3180.38 1133.854)
(-1402.147 -3364.491 3552.358)
(-1648.005 -3580.217 6188.262)
(-1997.434 -3841.821 9139.375)
(-2500.133 -4176.152 11640.63)
(-4205.965 -6347.499 16593.9)
(-2286.092 -7157.755 17041.43)
(-1081.968 3019.296 1074.809)
(-1220.315 3180.519 3354.91)
(-1401.019 3364.776 5815.313)
(-1646.057 3580.65 8526.941)
(-1994.285 3842.39 10731.53)
(-3422.608 5728.071 14970.46)
(-4198.194 6348.212 14657.68)
(-2281.411 7158.074 16450.53)
(-944.9077 8555.962 1025.489)
(-1051.063 8983.399 3191.797)
(-1184.83 9463.748 5512.948)
(-1359.432 10012.76 8042.688)
(-1595.857 10655.91 10047.19)
(-2648.85 15682.27 13848.5)
(-3309.907 17046.14 13273.64)
(-4047.893 18889.79 14207.25)
(-2196.071 21298.77 15897.99)
(-809.4506 13296.57 987.5815)
(-890.5842 13925.12 3067.045)
(-990.0381 14622.95 5283.428)
(-1115.251 15407.66 7680.317)
(-1278.416 16304.88 9544.885)
(-2055.891 23800.88 13072.87)
(-2484.197 25543.92 12412.31)
(-3092.875 27767.99 13035.95)
(-3759.274 30770.17 13957.32)
(-2032.378 34697.61 22516.31)
(-676.7296 16773.38 969.0401)
(-738.1071 17530.59 3004.512)
(-811.5209 18364.89 5166.167)
(-901.4227 19292.79 7490.636)
(-1014.429 20337.73 9275.719)
(-1593.095 29528.1 12683.83)
(-1865.651 31442.68 12055.36)
(-2247.265 33762.85 12616)
(-2780.917 36720.3 13343.38)
(-3344.714 40705.11 20824.5)
(-879.5468 23283.38 14786.27)
(-551.0168 17850.42 985.7544)
(-596.6936 18625.97 3053.237)
(-650.2443 19476.63 5244.729)
(-714.2096 20416.56 7592.825)
(-792.4045 21464.56 9379.638)
(-1221.639 31052.22 12888.2)
(-1397.424 32897.79 12426.5)
(-1632.473 35065.2 13159.04)
(-1956.927 37693.08 14029.11)
(-2398.935 41040.41 21975.77)
(-1384.504 23382.94 16032.81)
(-696.575 28691.6 17728)
(-442.2327 15032.5 1035.379)
(-476.0286 15661.23 3205.369)
(-514.9119 16345.16 5504.694)
(-560.4024 17093.62 7963.954)
(-614.6214 17918.82 9825.262)
(-934.0142 25829.72 13632)
(-1048.942 27240.93 13458.18)
(-1197.408 28857.96 14552.23)
(-1393.868 30754.9 15807.01)
(-1659.599 33052.87 25229.56)
(-973.8566 18334.31 19707.75)
(-1029.325 21632.95 25483.44)
(-474.6848 26537.45 34026.98)
(-364.5716 10055.03 992.93)
(-390.4695 10459.35 3070.173)
(-419.8186 10893.31 5265.388)
(-453.5374 11361.51 7604.99)
(-492.927 11869.89 9362.65)
(-740.6907 17043.26 12960.6)
(-820.362 17890.86 12762.41)
(-920.1582 18841.29 13750.32)
(-1048.391 19925.33 14859.73)
(-1216.304 21192.95 23545.2)
(-696.4239 11254.53 18079.76)
(-763.596 11787.11 22344.58)
(-748.8533 12065.21 27372.15)
(-317.4018 11366.22 33654.7)
(-312.9355 5890.919 928.594)
(-333.7521 6120.198 2867.673)
(-357.0539 6363.916 4911.248)
(-383.4392 6624.167 7082.116)
(-413.7259 6903.588 8702.62)
(-616.2172 9884.218 11987.41)
(-675.1156 10341.23 11701.73)
(-747.1859 10845.37 12496.28)
(-837.2716 11409.26 13376.78)
(-952.5216 12051.34 20953.53)
(-533.5084 6235.16 15700.45)
(-580.5696 6101.57 18570.16)
(-616.2579 5677.511 21460.9)
(-568.7706 4799.673 24793.02)
(-227.3273 3195.282 19310.86)
(-278.9001 2977.55 873.6953)
(-296.3946 3090.272 2695.39)
(-315.7728 3209.35 4611.046)
(-337.4553 3335.64 6640.78)
(-361.9945 3470.201 8148.349)
(-535.3683 4958.294 11178.18)
(-581.539 5175.12 10832.31)
(-636.8549 5411.594 11483.24)
(-704.4912 5672.258 12197.36)
(-788.9119 5963.72 18933.06)
(-434.0761 3045.818 13930.99)
(-465.7364 2895.289 16017.75)
(-499.1157 2598.477 17944.53)
(-516.6806 2125.636 20059.83)
(-453.2813 1446.399 15304.13)
(-1556.812 7585.502 53177.47)
(-256.5055 888.8172 832.5424)
(-271.7859 921.6211 2566.441)
(-288.5506 956.1228 4386.853)
(-307.1177 992.5359 6311.931)
(-327.8881 1031.119 7736.262)
(-482.1882 1470.891 10585.86)
(-520.1905 1532.311 10214.15)
(-564.9369 1598.703 10780.09)
(-618.537 1671.101 11396.37)
(-684.0516 1750.909 17591.47)
(-370.7118 888.4901 12813.07)
(-391.7656 834.8242 14513.79)
(-415.9876 739.4293 16012.66)
(-439.605 598.2269 17610.48)
(-444.1639 409.185 13215.34)
(-3293.704 2247.378 45675.24)
(-1416.786 1686.334 29473.56)
(-652.962 -14011.85 2022.593)
(-1464.052 -20122.06 1909.534)
(-757.9682 -22785.99 6265.026)
(-1501.862 -25968.73 1765.694)
(-1743.804 -28772.13 5730.81)
(-917.2017 -32507.06 10500.55)
(-1447.701 -27207.89 1503.325)
(-1778.716 -29565.54 4811.701)