/*--------------------------------*- C++ -*----------------------------------*\
| =========                 |                                                 |
| \\      /  F ield         | OpenFOAM: The Open Source CFD Toolbox           |
|  \\    /   O peration     | Version:  2306                                  |
|   \\  /    A nd           | Website:  www.openfoam.com                      |
|    \\/     M anipulation  |                                                 |
\*---------------------------------------------------------------------------*/
FoamFile
{
    version     2.0;
    format      ascii;
    arch        "LSB;label=32;scalar=64";
    class       volScalarField;
    location    "1.2/phiEA";
    object      phi;
}
// * * * * * * * * * * * * * * * * * * * * * * * * * * * * * * * * * * * * * //

dimensions      [1 2 -3 0 0 -1 0];

internalField   nonuniform List<scalar> 
20000
(
-0.004663739
-0.004795671
-0.004342409
-0.004659363
-0.005087601
-0.004458048
-0.004791214
-0.004021761
-0.004338405
-0.004650805
-0.005596348
-0.00471448
-0.005082978
-0.004125579
-0.00445398
-0.004782495
-0.003746388
-0.004018073
-0.004330566
-0.004638202
-0.006389998
-0.005162745
-0.005591505
-0.004356089
-0.004710282
-0.005073934
-0.003841584
-0.004121835
-0.004446013
-0.004769654
-0.003513278
-0.003742952
-0.004010844
-0.004319012
-0.004621638
-0.007453322
-0.005864312
-0.006385034
-0.004759747
-0.00515838
-0.005582028
-0.00405313
-0.004352235
-0.00470206
-0.005060612
-0.003601772
-0.0038381
-0.004114498
-0.00443427
-0.004752776
-0.003313366
-0.003510052
-0.003736213
-0.004000181
-0.004303818
-0.004603924
-0.008499748
-0.006806602
-0.007448661
-0.005392611
-0.005859884
-0.006375328
-0.004423997
-0.004755753
-0.005149829
-0.005568067
-0.003798541
-0.004049547
-0.004344679
-0.004689938
-0.005043099
-0.003396357
-0.003598501
-0.003831264
-0.004103673
-0.004418826
-0.004734725
-0.003139214
-0.00331032
-0.003503719
-0.003726265
-0.003986151
-0.004287562
-0.00458878
-0.009353529
-0.007734321
-0.008495253
-0.006243675
-0.006802502
-0.007439575
-0.005006105
-0.005388575
-0.005851213
-0.006361033
-0.004143787
-0.004420291
-0.004747919
-0.005137218
-0.005549709
-0.003580979
-0.003795182
-0.004042517
-0.004333529
-0.004673991
-0.005024366
-0.003217528
-0.00339327
-0.00359208
-0.003821172
-0.004089427
-0.004402301
-0.004719252
-0.002985081
-0.003136325
-0.003304335
-0.003494365
-0.003713169
-0.003971134
-0.004273668
-0.004573432
-0.009942339
-0.008491216
-0.009349077
-0.007081562
-0.007730416
-0.008486506
-0.005789529
-0.006239955
-0.006794492
-0.007426225
-0.004686115
-0.005002368
-0.005380662
-0.005838427
-0.006342241
-0.003905116
-0.004140316
-0.004413016
-0.004736357
-0.005120624
-0.005530067
-0.003391813
-0.003577809
-0.003788584
-0.004032136
-0.004318854
-0.004656927
-0.005008227
-0.003059318
-0.003214601
-0.003387204
-0.003582594
-0.003807884
-0.00407418
-0.004388141
-0.004703531
-0.002846874
-0.002982333
-0.003130646
-0.003295491
-0.003482045
-0.003699148
-0.003958305
-0.004259592
-0.004557881
-0.01024063
-0.009013162
-0.009937888
-0.007764921
-0.008487383
-0.009340425
-0.006560841
-0.007078034
-0.007722801
-0.008473678
-0.005416417
-0.005786093
-0.006232677
-0.006782707
-0.00740871
-0.004414599
-0.00468262
-0.004995035
-0.005368983
-0.005821604
-0.006322134
-0.003697956
-0.003901844
-0.004133497
-0.00440227
-0.004721133
-0.005102863
-0.005513051
-0.003224579
-0.003388809
-0.003571581
-0.003778835
-0.004018465
-0.004303143
-0.004642229
-0.004991749
-0.002917491
-0.003056533
-0.003208847
-0.003378239
-0.0035701
-0.003793657
-0.004061119
-0.004373757
-0.004687562
-0.002721571
-0.002844252
-0.002976927
-0.003122251
-0.003283838
-0.00346885
-0.003687171
-0.00394531
-0.004245332
-0.004542128
-0.01024063
-0.009277568
-0.01023618
-0.008235977
-0.00900935
-0.009929241
-0.007189781
-0.007761469
-0.008479915
-0.009327743
-0.006135473
-0.00655759
-0.007071143
-0.007711613
-0.008456867
-0.005100973
-0.005413208
-0.005779364
-0.006221958
-0.00676723
-0.007389999
-0.004179391
-0.004411308
-0.004675756
-0.004984204
-0.005353608
-0.005803598
-0.006304744
-0.003514993
-0.003694857
-0.003895412
-0.004123418
-0.004388115
-0.004704833
-0.005087475
-0.005495582
-0.003074738
-0.003221723
-0.003382904
-0.003562373
-0.003765992
-0.004003825
-0.004289617
-0.004627224
-0.004974931
-0.002788933
-0.002914836
-0.003051057
-0.003200339
-0.003366426
-0.003556718
-0.003781473
-0.004047856
-0.004359151
-0.004671346
-0.00260696
-0.002719065
-0.002839093
-0.002968931
-0.003111184
-0.003271355
-0.003457581
-0.003675043
-0.00393215
-0.004230891
-0.004374599
-0.009942339
-0.009277568
-0.01023618
-0.00847454
-0.009273761
-0.01022752
-0.007623231
-0.00823255
-0.009001924
-0.009916571
-0.006721754
-0.007186604
-0.00775473
-0.008468949
-0.009311135
-0.005776833
-0.006132441
-0.006551231
-0.007061007
-0.007696936
-0.008438924
-0.004828209
-0.005097956
-0.005406919
-0.005769444
-0.00620787
-0.006750688
-0.007374259
-0.00397188
-0.004176278
-0.004404841
-0.004665613
-0.004969938
-0.005337144
-0.005788017
-0.006286918
-0.003351167
-0.003512049
-0.003688763
-0.003885902
-0.004110137
-0.004372953
-0.004690715
-0.005071679
-0.00547766
-0.002938965
-0.003072016
-0.003216105
-0.00337417
-0.003550238
-0.003752234
-0.003991223
-0.004275813
-0.004611914
-0.004957775
-0.002671364
-0.002786395
-0.00290961
-0.003042956
-0.003189122
-0.003353769
-0.003545259
-0.003769103
-0.004034392
-0.004344321
-0.004498493
-0.002501361
-0.00260456
-0.00271413
-0.002831459
-0.002958388
-0.003099325
-0.003260695
-0.003446172
-0.003662763
-0.003918826
-0.004077352
-0.00403615
-0.009353529
-0.009013162
-0.009937888
-0.00847454
-0.009273761
-0.01022752
-0.007842715
-0.00847112
-0.009266345
-0.01021484
-0.007125762
-0.00762008
-0.008225863
-0.008991024
-0.009899981
-0.006327879
-0.006718795
-0.007180396
-0.007744825
-0.008454571
-0.009293412
-0.005467137
-0.005773984
-0.006126506
-0.00654187
-0.0070477
-0.007681262
-0.008424114
-0.00458779
-0.004825356
-0.005092036
-0.005397642
-0.0057564
-0.006192806
-0.006736762
-0.00735856
-0.003786198
-0.003968923
-0.004170155
-0.004395278
-0.004652245
-0.004954656
-0.0053229
-0.005772038
-0.006268651
-0.003202791
-0.003348361
-0.003506255
-0.003679748
-0.003873363
-0.004095906
-0.004359825
-0.004676227
-0.005055472
-0.005459284
-0.002814835
-0.002936364
-0.003066657
-0.003207792
-0.003362653
-0.003537235
-0.003740394
-0.003978366
-0.004261732
-0.004596299
-0.00477408
-0.002563053
-0.002668933
-0.002781398
-0.002901877
-0.003032273
-0.003177102
-0.003342933
-0.003533628
-0.003756548
-0.004020726
-0.004186289
-0.004145477
-0.002403483
-0.002499058
-0.002599832
-0.002706826
-0.002821389
-0.002947088
-0.003089199
-0.003249902
-0.003434622
-0.003650333
-0.003777203
-0.003767471
-0.003680638
-0.008499748
-0.008491216
-0.009349077
-0.008235977
-0.00900935
-0.009929241
-0.007842715
-0.00847112
-0.009266345
-0.01021484
-0.007330321
-0.007839573
-0.008464448
-0.00925546
-0.01019823
-0.006707587
-0.007122828
-0.007613925
-0.008216034
-0.008976734
-0.009882281
-0.005988072
-0.0063251
-0.006713005
-0.007171261
-0.007731826
-0.008439221
-0.009278904
-0.00519436
-0.005464446
-0.005768403
-0.006117762
-0.006529572
-0.007033481
-0.007668318
-0.008409628
-0.00437279
-0.004585083
-0.004819756
-0.005083299
-0.005385435
-0.005742446
-0.006180123
-0.006722862
-0.007342905
-0.003618109
-0.003783382
-0.003963105
-0.004161097
-0.004382671
-0.004637921
-0.004941437
-0.005308295
-0.005755658
-0.00624994
-0.003067191
-0.003200111
-0.003342837
-0.003497679
-0.003667857
-0.003859925
-0.004083586
-0.004346355
-0.004661367
-0.005038855
-0.005261545
-0.002700509
-0.002812345
-0.00293124
-0.003058724
-0.003196828
-0.00335031
-0.003526045
-0.003728315
-0.003965255
-0.004247375
-0.004429134
-0.004390837
-0.002462674
-0.002560722
-0.002664146
-0.002773999
-0.002891675
-0.003020821
-0.003166812
-0.003331935
-0.003521825
-0.003743809
-0.003875136
-0.003863846
-0.003771147
-0.002312312
-0.002401271
-0.002494521
-0.002592831
-0.002697189
-0.002810594
-0.002937439
-0.003078949
-0.003238978
-0.003422931
-0.003518238
-0.003491711
-0.003442181
-0.003311027
-0.007453322
-0.007734321
-0.008495253
-0.007764921
-0.008487383
-0.009340425
-0.007623231
-0.00823255
-0.009001924
-0.009916571
-0.007330321
-0.007839573
-0.008464448
-0.00925546
-0.01019823
-0.006899836
-0.007327396
-0.007833433
-0.008454642
-0.009241191
-0.01018052
-0.006347025
-0.006704833
-0.007117091
-0.007604869
-0.008203138
-0.00896148
-0.009867833
-0.005688918
-0.005985448
-0.006319659
-0.006704479
-0.007159264
-0.007717941
-0.00842665
-0.009264836
-0.004950525
-0.005191808
-0.00545917
-0.005760174
-0.006106267
-0.006516426
-0.007021737
-0.007655649
-0.008395468
-0.004178236
-0.004370213
-0.004579766
-0.004811486
-0.005071798
-0.005372372
-0.005730698
-0.006167464
-0.00670899
-0.007327294
-0.003464552
-0.00361542
-0.003777837
-0.003954493
-0.00414915
-0.004369158
-0.004625532
-0.004927885
-0.005293325
-0.005738871
-0.006048738
-0.002942341
-0.003064626
-0.003194831
-0.003334656
-0.003486364
-0.00365511
-0.003848292
-0.004070947
-0.004332543
-0.004646135
-0.004860042
-0.004837587
-0.002594579
-0.002698121
-0.002807437
-0.002923654
-0.003048257
-0.003185073
-0.00333969
-0.003514632
-0.003716
-0.003951888
-0.004093723
-0.004080618
-0.003975868
-0.002369184
-0.002460435
-0.002556128
-0.002657055
-0.002764237
-0.002880737
-0.003011018
-0.003156369
-0.003320775
-0.00350985
-0.003608113
-0.003578446
-0.003522147
-0.003378941
-0.002227031
-0.002310185
-0.002396912
-0.002487801
-0.002583591
-0.002686854
-0.002801377
-0.002927673
-0.003068574
-0.003227923
-0.003298718
-0.003252185
-0.003192283
-0.003104114
-0.00293088
-0.006389998
-0.006806602
-0.007448661
-0.007081562
-0.007730416
-0.008486506
-0.007189781
-0.007761469
-0.008479915
-0.009327743
-0.007125762
-0.00762008
-0.008225863
-0.008991024
-0.009899981
-0.006899836
-0.007327396
-0.007833433
-0.008454642
-0.009241191
-0.01018052
-0.006528761
-0.00689709
-0.007321674
-0.007824402
-0.008441776
-0.009225959
-0.01016607
-0.006029693
-0.006344425
-0.006699443
-0.007108642
-0.007592978
-0.008189365
-0.008949025
-0.009853864
-0.005421581
-0.00568643
-0.005980307
-0.00631164
-0.006693275
-0.007146444
-0.007706569
-0.008414455
-0.009251206
-0.004729941
-0.004948096
-0.0051868
-0.005451386
-0.005749352
-0.006093974
-0.006505567
-0.007010242
-0.007643256
-0.008381634
-0.004000559
-0.004175777
-0.004365148
-0.004571909
-0.004800596
-0.005059486
-0.005361375
-0.005718972
-0.00615483
-0.006695147
-0.007163877
-0.003323215
-0.003461979
-0.003610123
-0.003769627
-0.003943132
-0.004136342
-0.004357472
-0.004612832
-0.004913996
-0.005277987
-0.005558301
-0.005613809
-0.002826692
-0.002939882
-0.00305957
-0.003187011
-0.00332386
-0.003474231
-0.003644077
-0.00383636
-0.004057989
-0.004318387
-0.004482265
-0.004476631
-0.00436149
-0.002495937
-0.002592286
-0.002693413
-0.002800168
-0.00291364
-0.003037034
-0.00317496
-0.003328858
-0.003502996
-0.003703447
-0.003808876
-0.003773779
-0.003703419
-0.003532391
-0.002281741
-0.00236703
-0.002456022
-0.002549323
-0.002647697
-0.002753768
-0.002871374
-0.00300107
-0.003145774
-0.003309455
-0.003382315
-0.003331837
-0.003264319
-0.003164253
-0.002973393
-0.002146971
-0.002224983
-0.002305991
-0.002390452
-0.002478928
-0.002573681
-0.002678031
-0.002792048
-0.002917788
-0.003058075
-0.003110467
-0.003048697
-0.002973331
-0.00288128
-0.002756451
-0.002679545
-0.005596348
-0.005864312
-0.006385034
-0.006243675
-0.006802502
-0.007439575
-0.006560841
-0.007078034
-0.007722801
-0.008473678
-0.006721754
-0.007186604
-0.00775473
-0.008468949
-0.009311135
-0.006707587
-0.007122828
-0.007613925
-0.008216034
-0.008976734
-0.009882281
-0.006528761
-0.00689709
-0.007321674
-0.007824402
-0.008441776
-0.009225959
-0.01016607
-0.006202224
-0.006526169
-0.006891716
-0.007313251
-0.007812543
-0.008428035
-0.009213534
-0.01015212
-0.005746161
-0.006027228
-0.006339332
-0.006691501
-0.007097543
-0.007580272
-0.008178119
-0.008936981
-0.009840376
-0.005179782
-0.005419214
-0.005681552
-0.005972725
-0.006301098
-0.006681297
-0.007135945
-0.007695536
-0.008402636
-0.009238017
-0.004528536
-0.004727624
-0.004943328
-0.005179409
-0.005441145
-0.005737775
-0.006083821
-0.006494939
-0.006998997
-0.007631142
-0.008239835
-0.003837062
-0.003998207
-0.004170941
-0.004357661
-0.004561557
-0.004788933
-0.005049121
-0.005350398
-0.005707269
-0.006142221
-0.006550122
-0.006859856
-0.00319233
-0.003320749
-0.00345691
-0.003602278
-0.003758792
-0.003930949
-0.004125265
-0.004345492
-0.004599818
-0.004899767
-0.005113015
-0.005167315
-0.005104423
-0.002719026
-0.002824331
-0.002935033
-0.003052079
-0.003176686
-0.003312281
-0.003463731
-0.00363276
-0.003824127
-0.004044711
-0.004166132
-0.004131279
-0.004046048
-0.003828727
-0.002403693
-0.002493732
-0.002587763
-0.002686437
-0.002790571
-0.002902901
-0.003027377
-0.003164646
-0.003317816
-0.003491137
-0.003569159
-0.003511359
-0.003427818
-0.003300407
-0.003066424
-0.002199659
-0.002279668
-0.002362785
-0.002449481
-0.002540337
-0.002637658
-0.002744807
-0.002861874
-0.002990978
-0.003135026
-0.003188901
-0.003122818
-0.003039521
-0.002935505
-0.002794219
-0.002704719
-0.00207158
-0.002144998
-0.002220945
-0.002299775
-0.002381922
-0.002469411
-0.00256522
-0.002669101
-0.002782606
-0.002907787
-0.002946544
-0.002874154
-0.00278677
-0.002683834
-0.00256156
-0.002526564
-0.002539901
-0.005087601
-0.005162745
-0.005591505
-0.005392611
-0.005859884
-0.006375328
-0.005789529
-0.006239955
-0.006794492
-0.007426225
-0.006135473
-0.00655759
-0.007071143
-0.007711613
-0.008456867
-0.006327879
-0.006718795
-0.007180396
-0.007744825
-0.008454571
-0.009293412
-0.006347025
-0.006704833
-0.007117091
-0.007604869
-0.008203138
-0.00896148
-0.009867833
-0.006202224
-0.006526169
-0.006891716
-0.007313251
-0.007812543
-0.008428035
-0.009213534
-0.01015212
-0.005910493
-0.006199767
-0.006521092
-0.006883798
-0.007302184
-0.007799872
-0.008416825
-0.00920153
-0.01013865
-0.005489745
-0.005743817
-0.006022397
-0.006331824
-0.00668106
-0.007085677
-0.007569897
-0.008167242
-0.008925347
-0.009827368
-0.004959038
-0.005177525
-0.00541457
-0.005674354
-0.005962752
-0.006289823
-0.006671487
-0.007125757
-0.007684842
-0.008391193
-0.009104158
-0.004343239
-0.004526321
-0.004723074
-0.004936288
-0.005169679
-0.005430185
-0.005728213
-0.006073882
-0.006484541
-0.006988004
-0.007506879
-0.008004776
-0.003685692
-0.003834809
-0.00399358
-0.004163789
-0.004347793
-0.00455047
-0.004779115
-0.005038775
-0.005339443
-0.00569559
-0.006010124
-0.006279376
-0.006572943
-0.00307051
-0.003189963
-0.003315888
-0.003449397
-0.00359192
-0.003747169
-0.003920412
-0.004113912
-0.004333218
-0.004586487
-0.004746754
-0.004756039
-0.004708853
-0.004479577
-0.002618365
-0.002716756
-0.002819674
-0.002927846
-0.003042188
-0.00316561
-0.003302259
-0.003452961
-0.003621159
-0.003811594
-0.003901911
-0.003840301
-0.003737445
-0.003564226
-0.003239666
-0.002317117
-0.00240157
-0.002489383
-0.00258106
-0.002677226
-0.002780276
-0.002893661
-0.003017531
-0.003154132
-0.003306563
-0.003364285
-0.003289971
-0.00318987
-0.003058416
-0.002876985
-0.0027554
-0.002122369
-0.002197662
-0.00227558
-0.002356491
-0.002440843
-0.002530698
-0.002629066
-0.002735714
-0.002852236
-0.002980741
-0.003020584
-0.002943723
-0.002848389
-0.002733686
-0.002595658
-0.002549038
-0.002556764
-0.002000397
-0.002069677
-0.002141105
-0.002214956
-0.002291564
-0.002372769
-0.002461285
-0.002556657
-0.002660065
-0.002773054
-0.002801541
-0.002722226
-0.002626674
-0.002514942
-0.002386315
-0.002350175
-0.002398222
-0.00238481
-0.004795671
-0.00471448
-0.005082978
-0.004759747
-0.00515838
-0.005582028
-0.005006105
-0.005388575
-0.005851213
-0.006361033
-0.005416417
-0.005786093
-0.006232677
-0.006782707
-0.00740871
-0.005776833
-0.006132441
-0.006551231
-0.007061007
-0.007696936
-0.008438924
-0.005988072
-0.0063251
-0.006713005
-0.007171261
-0.007731826
-0.008439221
-0.009278904
-0.006029693
-0.006344425
-0.006699443
-0.007108642
-0.007592978
-0.008189365
-0.008949025
-0.009853864
-0.005910493
-0.006199767
-0.006521092
-0.006883798
-0.007302184
-0.007799872
-0.008416825
-0.00920153
-0.01013865
-0.005646677
-0.005908156
-0.006194952
-0.006513608
-0.00687339
-0.007290354
-0.007789536
-0.008405994
-0.009189946
-0.01012568
-0.005255677
-0.00548751
-0.005739219
-0.00601527
-0.006321949
-0.006669894
-0.007075989
-0.007559863
-0.008156736
-0.008914123
-0.009695823
-0.004755973
-0.00495688
-0.005173094
-0.005407716
-0.005664882
-0.005952082
-0.006280589
-0.006661968
-0.007115883
-0.007674489
-0.008275005
-0.008894141
-0.004171711
-0.004341117
-0.004521968
-0.00471635
-0.004927016
-0.005159263
-0.005421132
-0.005718852
-0.006064159
-0.006474375
-0.006875222
-0.007300208
-0.007811733
-0.003544834
-0.00368353
-0.003830375
-0.003986734
-0.00415436
-0.00433722
-0.004541135
-0.004769316
-0.00502845
-0.005328511
-0.005573236
-0.005763466
-0.006023124
-0.006323668
-0.002956642
-0.003068236
-0.003185296
-0.003308683
-0.003439477
-0.003580807
-0.003737119
-0.003909613
-0.004102279
-0.004320645
-0.004443138
-0.004415861
-0.004337722
-0.004146117
-0.003664345
-0.002523909
-0.002616181
-0.002712278
-0.00281277
-0.002918354
-0.003031573
-0.003156025
-0.003291981
-0.003441921
-0.003609274
-0.003676816
-0.003596494
-0.003474935
-0.003297033
-0.003031517
-0.002830843
-0.002235607
-0.002315072
-0.002397382
-0.002482933
-0.002572206
-0.002667342
-0.00277142
-0.00288424
-0.003007494
-0.003143419
-0.003186205
-0.003100677
-0.002988433
-0.002846768
-0.002670452
-0.002594314
-0.0025887
-0.002049399
-0.002120444
-0.002193722
-0.002269518
-0.002348177
-0.002431574
-0.002522447
-0.002620349
-0.00272649
-0.00284246
-0.002871747
-0.002787917
-0.002684526
-0.002561369
-0.002417687
-0.002370504
-0.002413302
-0.002395171
-0.001933029
-0.00199856
-0.002065921
-0.002135331
-0.002207045
-0.002282752
-0.002364956
-0.002453062
-0.002547992
-0.002650921
-0.002671581
-0.002587911
-0.002487369
-0.002369905
-0.002235647
-0.002189639
-0.002232125
-0.002255044
-0.002220654
-0.004663739
-0.004458048
-0.004791214
-0.004356089
-0.004710282
-0.005073934
-0.004423997
-0.004755753
-0.005149829
-0.005568067
-0.004686115
-0.005002368
-0.005380662
-0.005838427
-0.006342241
-0.005100973
-0.005413208
-0.005779364
-0.006221958
-0.00676723
-0.007389999
-0.005467137
-0.005773984
-0.006126506
-0.00654187
-0.0070477
-0.007681262
-0.008424114
-0.005688918
-0.005985448
-0.006319659
-0.006704479
-0.007159264
-0.007717941
-0.00842665
-0.009264836
-0.005746161
-0.006027228
-0.006339332
-0.006691501
-0.007097543
-0.007580272
-0.008178119
-0.008936981
-0.009840376
-0.005646677
-0.005908156
-0.006194952
-0.006513608
-0.00687339
-0.007290354
-0.007789536
-0.008405994
-0.009189946
-0.01012568
-0.005405863
-0.005644449
-0.005903574
-0.006187848
-0.006503764
-0.006862259
-0.007280704
-0.007779548
-0.008395543
-0.009178783
-0.009994669
-0.005040371
-0.005253541
-0.005483123
-0.005732433
-0.006005893
-0.006311385
-0.006660777
-0.007066618
-0.007550171
-0.0081466
-0.00880059
-0.009493546
-0.004568017
-0.004753907
-0.004952642
-0.005166549
-0.005398691
-0.005654745
-0.005943343
-0.006271629
-0.006652742
-0.007106322
-0.007569352
-0.008092304
-0.008731801
-0.004012119
-0.004169676
-0.004336947
-0.004515534
-0.004707493
-0.004917088
-0.00515066
-0.00541227
-0.005709694
-0.006054652
-0.006370083
-0.006687554
-0.007129987
-0.007670777
-0.003413195
-0.003542757
-0.003679274
-0.003823811
-0.003977706
-0.004144255
-0.00432832
-0.004531818
-0.004759535
-0.005018146
-0.005213981
-0.005344798
-0.005529987
-0.005799967
-0.006154747
-0.002849816
-0.002954454
-0.003063749
-0.003178376
-0.003299166
-0.003428831
-0.003571198
-0.003726818
-0.003898549
-0.004090364
-0.004185458
-0.00413328
-0.004028336
-0.003824589
-0.003411848
-0.002919871
-0.002434996
-0.002521805
-0.00261187
-0.002705637
-0.002803648
-0.002908166
-0.003022388
-0.003146195
-0.003281447
-0.003430611
-0.003481476
-0.003388671
-0.003254177
-0.003066569
-0.002810333
-0.002661786
-0.002630262
-0.002158662
-0.002233635
-0.002311036
-0.002391171
-0.002474413
-0.002562704
-0.002658839
-0.002762389
-0.002874637
-0.002997267
-0.003028836
-0.002936172
-0.002816063
-0.002666736
-0.002486541
-0.002411483
-0.002441873
-0.002413841
-0.001980344
-0.00204754
-0.002116642
-0.002187877
-0.002261508
-0.002339255
-0.002423641
-0.002514076
-0.002611505
-0.002717135
-0.002738382
-0.002650214
-0.002542009
-0.002413505
-0.002264879
-0.002208363
-0.002245773
-0.002264318
-0.002226579
-0.001869141
-0.001931255
-0.001994934
-0.00206035
-0.002127701
-0.002198553
-0.002275231
-0.002357048
-0.002444741
-0.002539225
-0.002553803
-0.002467593
-0.002364289
-0.002243745
-0.002106129
-0.002051044
-0.002079922
-0.002100287
-0.002102843
-0.002051753
-0.004342409
-0.004659363
-0.004125579
-0.00445398
-0.004782495
-0.00405313
-0.004352235
-0.00470206
-0.005060612
-0.004143787
-0.004420291
-0.004747919
-0.005137218
-0.005549709
-0.004414599
-0.00468262
-0.004995035
-0.005368983
-0.005821604
-0.006322134
-0.004828209
-0.005097956
-0.005406919
-0.005769444
-0.00620787
-0.006750688
-0.007374259
-0.00519436
-0.005464446
-0.005768403
-0.006117762
-0.006529572
-0.007033481
-0.007668318
-0.008409628
-0.005421581
-0.00568643
-0.005980307
-0.00631164
-0.006693275
-0.007146444
-0.007706569
-0.008414455
-0.009251206
-0.005489745
-0.005743817
-0.006022397
-0.006331824
-0.00668106
-0.007085677
-0.007569897
-0.008167242
-0.008925347
-0.009827368
-0.005405863
-0.005644449
-0.005903574
-0.006187848
-0.006503764
-0.006862259
-0.007280704
-0.007779548
-0.008395543
-0.009178783
-0.009994669
-0.00518436
-0.005403734
-0.005640076
-0.005896809
-0.006178501
-0.006493234
-0.006853179
-0.007271379
-0.007769911
-0.008385471
-0.009065996
-0.009794417
-0.004841097
-0.005038326
-0.005249346
-0.005476644
-0.0057235
-0.005995858
-0.006302759
-0.00665196
-0.007057567
-0.00754082
-0.008044064
-0.008625744
-0.009340423
-0.004393154
-0.004566035
-0.004749847
-0.004946381
-0.00515793
-0.005389031
-0.005646442
-0.005934863
-0.006262944
-0.006643809
-0.007009235
-0.007403964
-0.007950806
-0.008620541
-0.003862989
-0.004010164
-0.004165674
-0.00433078
-0.004507056
-0.004698007
-0.004908887
-0.005142238
-0.0054036
-0.005700741
-0.005957124
-0.006196516
-0.006532919
-0.007005398
-0.00759446
-0.003289716
-0.003411197
-0.003538666
-0.003672971
-0.003815152
-0.003968029
-0.004135748
-0.004319436
-0.00452252
-0.004749776
-0.004910202
-0.005000173
-0.005128597
-0.005326654
-0.005648476
-0.002749276
-0.002847708
-0.002950136
-0.003057094
-0.003169233
-0.003288951
-0.003419626
-0.003561349
-0.003716264
-0.003887217
-0.003962256
-0.003893327
-0.003770537
-0.00355323
-0.003155453
-0.002741522
-0.002667079
-0.002351077
-0.002432968
-0.002517652
-0.002605475
-0.002696861
-0.002793856
-0.00289935
-0.003012969
-0.003136119
-0.003270655
-0.003309008
-0.003208335
-0.003065817
-0.002871709
-0.002615448
-0.002472605
-0.002479078
-0.002435939
-0.002085855
-0.002156759
-0.002229742
-0.002305048
-0.002382963
-0.002465267
-0.00255453
-0.002650169
-0.002753185
-0.002864853
-0.002887888
-0.002790863
-0.002666284
-0.002512497
-0.002329061
-0.00224612
-0.002271641
-0.002281031
-0.002236883
-0.00191486
-0.001978549
-0.00204387
-0.002111002
-0.002180152
-0.00225291
-0.002331618
-0.002415592
-0.002505585
-0.002602537
-0.002617538
-0.002526885
-0.002416122
-0.002284934
-0.002133591
-0.002068503
-0.002092497
-0.002108681
-0.002108141
-0.002054793
-0.001808438
-0.001867426
-0.001927752
-0.001989553
-0.002052986
-0.002119511
-0.002191305
-0.002267618
-0.002349047
-0.002436323
-0.00244611
-0.002358603
-0.0022541
-0.002132354
-0.001993506
-0.0019318
-0.001948189
-0.001957427
-0.001959938
-0.001945594
-0.001880872
-0.004021761
-0.004338405
-0.004650805
-0.003841584
-0.004121835
-0.004446013
-0.004769654
-0.003798541
-0.004049547
-0.004344679
-0.004689938
-0.005043099
-0.003905116
-0.004140316
-0.004413016
-0.004736357
-0.005120624
-0.005530067
-0.004179391
-0.004411308
-0.004675756
-0.004984204
-0.005353608
-0.005803598
-0.006304744
-0.00458779
-0.004825356
-0.005092036
-0.005397642
-0.0057564
-0.006192806
-0.006736762
-0.00735856
-0.004950525
-0.005191808
-0.00545917
-0.005760174
-0.006106267
-0.006516426
-0.007021737
-0.007655649
-0.008395468
-0.005179782
-0.005419214
-0.005681552
-0.005972725
-0.006301098
-0.006681297
-0.007135945
-0.007695536
-0.008402636
-0.009238017
-0.005255677
-0.00548751
-0.005739219
-0.00601527
-0.006321949
-0.006669894
-0.007075989
-0.007559863
-0.008156736
-0.008914123
-0.009695823
-0.00518436
-0.005403734
-0.005640076
-0.005896809
-0.006178501
-0.006493234
-0.006853179
-0.007271379
-0.007769911
-0.008385471
-0.009065996
-0.009794417
-0.004979355
-0.005182321
-0.005399552
-0.005633619
-0.005887906
-0.006168499
-0.006484644
-0.006844405
-0.007262381
-0.007760623
-0.008283702
-0.008893393
-0.009643745
-0.004655714
-0.004839135
-0.005034307
-0.005243148
-0.005468113
-0.005713937
-0.005987663
-0.006294416
-0.006643442
-0.007048834
-0.007446221
-0.007886116
-0.00849322
-0.009237504
-0.004229769
-0.004391251
-0.00456214
-0.004743846
-0.004938132
-0.005148701
-0.005381118
-0.005638386
-0.005926644
-0.006254535
-0.006553091
-0.006856486
-0.007275833
-0.007853684
-0.008563757
-0.003723121
-0.00386111
-0.004006319
-0.004159754
-0.00432265
-0.004497973
-0.004690171
-0.004900859
-0.005133999
-0.005395123
-0.005608882
-0.005794801
-0.006053485
-0.006419699
-0.006937824
-0.003173522
-0.003287793
-0.003407261
-0.003532607
-0.003664655
-0.003805869
-0.003959881
-0.004127256
-0.00431057
-0.004513241
-0.004647531
-0.004708699
-0.004797841
-0.004940342
-0.005188625
-0.002654398
-0.002747244
-0.002843548
-0.002943729
-0.0030483
-0.003159418
-0.003280118
-0.003410191
-0.003551259
-0.003705455
-0.003765376
-0.00368548
-0.003551431
-0.003325981
-0.002933982
-0.002544922
-0.002512059
-0.002452653
-0.002271682
-0.00234912
-0.002428962
-0.002511488
-0.002597023
-0.002687439
-0.002785383
-0.00289031
-0.003003314
-0.003125798
-0.003154622
-0.003049162
-0.002902362
-0.002705185
-0.002449308
-0.002302469
-0.002305346
-0.002300821
-0.002248352
-0.002016819
-0.002084017
-0.002153001
-0.002223965
-0.002297134
-0.002374152
-0.0024574
-0.002546195
-0.002641333
-0.002743807
-0.002760213
-0.002660769
-0.002534042
-0.002378479
-0.002193908
-0.002103718
-0.002116334
-0.002123812
-0.002117357
-0.002059954
-0.001852644
-0.001913125
-0.001975003
-0.002038424
-0.002103547
-0.00217186
-0.002245551
-0.002323871
-0.002407428
-0.002496974
-0.002507057
-0.002415183
-0.002303435
-0.002171434
-0.002019458
-0.001948213
-0.001959916
-0.00196516
-0.001964729
-0.001948296
-0.00188195
-0.001750666
-0.00180678
-0.00186404
-0.001922552
-0.001982441
-0.002045079
-0.00211252
-0.002183969
-0.002259916
-0.002340953
-0.002346909
-0.002258981
-0.002154335
-0.002032697
-0.001894148
-0.001828138
-0.001834773
-0.001833424
-0.00182701
-0.001814697
-0.001785891
-0.001709863
-0.003746388
-0.004018073
-0.004330566
-0.004638202
-0.003601772
-0.0038381
-0.004114498
-0.00443427
-0.004752776
-0.003580979
-0.003795182
-0.004042517
-0.004333529
-0.004673991
-0.005024366
-0.003697956
-0.003901844
-0.004133497
-0.00440227
-0.004721133
-0.005102863
-0.005513051
-0.00397188
-0.004176278
-0.004404841
-0.004665613
-0.004969938
-0.005337144
-0.005788017
-0.006286918
-0.00437279
-0.004585083
-0.004819756
-0.005083299
-0.005385435
-0.005742446
-0.006180123
-0.006722862
-0.007342905
-0.004729941
-0.004948096
-0.0051868
-0.005451386
-0.005749352
-0.006093974
-0.006505567
-0.007010242
-0.007643256
-0.008381634
-0.004959038
-0.005177525
-0.00541457
-0.005674354
-0.005962752
-0.006289823
-0.006671487
-0.007125757
-0.007684842
-0.008391193
-0.009104158
-0.005040371
-0.005253541
-0.005483123
-0.005732433
-0.006005893
-0.006311385
-0.006660777
-0.007066618
-0.007550171
-0.0081466
-0.00880059
-0.009493546
-0.004979355
-0.005182321
-0.005399552
-0.005633619
-0.005887906
-0.006168499
-0.006484644
-0.006844405
-0.007262381
-0.007760623
-0.008283702
-0.008893393
-0.009643745
-0.004788646
-0.0049774
-0.005178315
-0.005393375
-0.005625116
-0.005878375
-0.006160339
-0.006476343
-0.006835939
-0.007253709
-0.007666772
-0.008127934
-0.008763396
-0.009543013
-0.004482507
-0.00465383
-0.004835279
-0.005028367
-0.005234983
-0.005458978
-0.005706129
-0.005979738
-0.006286356
-0.006635223
-0.006960487
-0.007300482
-0.007766374
-0.008404062
-0.00918575
-0.004076541
-0.004227939
-0.004387508
-0.004556379
-0.004735937
-0.004929296
-0.005141141
-0.005373441
-0.005630577
-0.005918686
-0.006169137
-0.006410352
-0.006738132
-0.007187862
-0.007804065
-0.003591516
-0.003721311
-0.00385741
-0.004000628
-0.004151947
-0.004313939
-0.00449047
-0.0046825
-0.004893005
-0.005125943
-0.005308157
-0.005455986
-0.00566103
-0.005948754
-0.006358277
-0.003063885
-0.003171668
-0.003284001
-0.003401429
-0.003524609
-0.003655737
-0.003798054
-0.00395175
-0.004118782
-0.004301722
-0.004416034
-0.004456672
-0.004518027
-0.004621687
-0.004812571
-0.002564649
-0.002652438
-0.002743233
-0.002837374
-0.00293526
-0.003038857
-0.003150931
-0.003271066
-0.003400526
-0.003540925
-0.003589242
-0.003502181
-0.003361617
-0.00313253
-0.002746742
-0.002369189
-0.002335246
-0.002315795
-0.00225631
-0.00219641
-0.002269792
-0.002345253
-0.002423016
-0.002503339
-0.002587947
-0.002679286
-0.002776695
-0.002881044
-0.002993424
-0.003014831
-0.002906723
-0.002758135
-0.002560649
-0.002306972
-0.002156295
-0.002147407
-0.002141736
-0.002127619
-0.002065482
-0.001951236
-0.002015043
-0.002080387
-0.002147423
-0.002216328
-0.002288637
-0.002366572
-0.002449379
-0.002537701
-0.00263233
-0.002643515
-0.00254297
-0.0024157
-0.00226021
-0.002076469
-0.001981321
-0.001982152
-0.001979103
-0.001973065
-0.001952884
-0.001883729
-0.001793434
-0.001850966
-0.001909697
-0.001969741
-0.002031224
-0.002095543
-0.002164763
-0.002238086
-0.002316012
-0.002399149
-0.0024053
-0.002313094
-0.00220142
-0.0020699
-0.001918777
-0.001843654
-0.001845799
-0.001840636
-0.001831422
-0.001817131
-0.001786812
-0.001709357
-0.001695606