/*--------------------------------*- C++ -*----------------------------------*\
| =========                 |                                                 |
| \\      /  F ield         | OpenFOAM: The Open Source CFD Toolbox           |
|  \\    /   O peration     | Version:  2306                                  |
|   \\  /    A nd           | Website:  www.openfoam.com                      |
|    \\/     M anipulation  |                                                 |
\*---------------------------------------------------------------------------*/
FoamFile
{
    version     2.0;
    format      ascii;
    arch        "LSB;label=32;scalar=64";
    class       volScalarField;
    location    "1.2/phiEA";
    object      T;
}
// * * * * * * * * * * * * * * * * * * * * * * * * * * * * * * * * * * * * * //

dimensions      [0 0 0 1 0 0 0];

internalField   nonuniform List<scalar> 
20000
(
1119.209
1119.071
1120.837
1119.22
1118.752
1120.824
1119.082
1122.348
1120.844
1119.236
1118.164
1120.792
1118.765
1122.37
1120.831
1119.099
1123.778
1122.352
1120.856
1119.257
1117.181
1120.729
1118.179
1122.42
1120.799
1118.783
1123.812
1122.374
1120.842
1119.12
1125.162
1123.778
1122.359
1120.872
1119.282
1115.747
1120.61
1117.202
1122.504
1120.734
1118.2
1123.888
1122.422
1120.81
1118.805
1125.199
1123.812
1122.381
1120.858
1119.146
1126.506
1125.159
1123.783
1122.371
1120.892
1119.312
1114.126
1120.404
1115.778
1122.627
1120.612
1117.228
1124.02
1122.504
1120.744
1118.225
1125.283
1123.887
1122.429
1120.825
1118.832
1126.544
1125.196
1123.816
1122.393
1120.878
1119.176
1127.811
1126.501
1125.16
1123.791
1122.387
1120.916
1119.342
1112.644
1120.103
1114.171
1122.771
1120.403
1115.814
1124.225
1122.624
1120.62
1117.259
1125.43
1124.017
1122.509
1120.758
1118.256
1126.628
1125.279
1123.89
1122.439
1120.844
1118.865
1127.848
1126.538
1125.197
1123.824
1122.408
1120.902
1119.208
1129.075
1127.804
1126.5
1125.165
1123.802
1122.407
1120.941
1119.373
1111.543
1119.767
1112.704
1122.869
1120.102
1114.221
1124.49
1122.762
1120.407
1115.855
1125.659
1124.218
1122.624
1120.631
1117.296
1126.776
1125.424
1124.018
1122.517
1120.776
1118.292
1127.929
1126.621
1125.279
1123.897
1122.454
1120.868
1118.898
1129.109
1127.84
1126.537
1125.201
1123.835
1122.428
1120.927
1119.239
1130.295
1129.066
1127.8
1126.502
1125.173
1123.818
1122.427
1120.966
1119.404
1110.962
1119.483
1111.614
1122.906
1119.768
1112.768
1124.73
1122.856
1120.105
1114.275
1125.964
1124.476
1122.757
1120.415
1115.901
1127.009
1125.65
1124.215
1122.629
1120.648
1117.338
1128.073
1126.768
1125.422
1124.023
1122.53
1120.799
1118.329
1129.187
1127.921
1126.619
1125.282
1123.907
1122.473
1120.893
1118.932
1130.328
1129.1
1127.836
1126.538
1125.209
1123.85
1122.448
1120.952
1119.271
1131.47
1130.285
1129.061
1127.8
1126.507
1125.186
1123.834
1122.447
1120.992
1119.435
1110.962
1119.321
1111.038
1122.905
1119.487
1111.688
1124.905
1122.891
1119.774
1112.836
1126.254
1124.712
1122.847
1120.112
1114.334
1127.32
1125.948
1124.467
1122.756
1120.428
1115.952
1128.3
1126.998
1125.644
1124.215
1122.638
1120.669
1117.382
1129.325
1128.063
1126.763
1125.423
1124.031
1122.547
1120.823
1118.367
1130.402
1129.178
1127.916
1126.62
1125.289
1123.921
1122.492
1120.917
1118.966
1131.502
1130.318
1129.095
1127.836
1126.543
1125.221
1123.866
1122.468
1120.977
1119.303
1132.601
1131.459
1130.278
1129.058
1127.803
1126.516
1125.198
1123.851
1122.468
1121.017
1119.588
1111.543
1119.321
1111.038
1122.896
1119.327
1111.118
1125.012
1122.89
1119.495
1111.766
1126.48
1124.884
1122.881
1119.783
1112.907
1127.623
1126.234
1124.698
1122.842
1120.124
1114.398
1128.605
1127.304
1125.936
1124.462
1122.759
1120.445
1116.004
1129.543
1128.287
1126.99
1125.642
1124.22
1122.651
1120.69
1117.426
1130.534
1129.314
1128.057
1126.762
1125.428
1124.043
1122.564
1120.846
1118.405
1131.573
1130.391
1129.171
1127.915
1126.624
1125.3
1123.936
1122.511
1120.942
1119
1132.631
1131.491
1130.311
1129.092
1127.838
1126.552
1125.233
1123.882
1122.488
1121.002
1119.46
1133.685
1132.589
1131.451
1130.274
1129.059
1127.81
1126.526
1125.211
1123.867
1122.488
1121.141
1119.879
1112.644
1119.483
1111.614
1122.896
1119.327
1111.118
1125.061
1122.881
1119.337
1111.201
1126.628
1124.99
1122.88
1119.508
1111.848
1127.864
1126.457
1124.868
1122.875
1119.797
1112.984
1128.904
1127.602
1126.217
1124.688
1122.841
1120.141
1114.462
1129.836
1128.587
1127.29
1125.929
1124.46
1122.766
1120.463
1116.056
1130.742
1129.529
1128.278
1126.985
1125.643
1124.228
1122.665
1120.712
1117.471
1131.698
1130.521
1129.306
1128.054
1126.765
1125.437
1124.056
1122.581
1120.87
1118.444
1132.698
1131.561
1130.383
1129.168
1127.917
1126.632
1125.311
1123.951
1122.53
1120.967
1119.169
1133.714
1132.619
1131.482
1130.307
1129.093
1127.845
1126.561
1125.245
1123.898
1122.507
1121.126
1119.766
1134.724
1133.673
1132.58
1131.447
1130.274
1129.064
1127.817
1126.535
1125.223
1123.883
1122.589
1121.366
1120.185
1114.126
1119.767
1112.704
1122.905
1119.487
1111.688
1125.061
1122.881
1119.337
1111.201
1126.7
1125.039
1122.871
1119.352
1111.288
1128.025
1126.603
1124.972
1122.874
1119.524
1111.934
1129.144
1127.84
1126.438
1124.855
1122.873
1119.816
1113.06
1130.125
1128.882
1127.584
1126.205
1124.682
1122.845
1120.158
1114.525
1131.022
1129.818
1128.573
1127.281
1125.924
1124.463
1122.774
1120.481
1116.108
1131.896
1130.727
1129.519
1128.272
1126.984
1125.648
1124.237
1122.678
1120.734
1117.516
1132.818
1131.685
1130.512
1129.302
1128.054
1126.771
1125.446
1124.069
1122.598
1120.894
1118.634
1133.778
1132.686
1131.552
1130.379
1129.168
1127.922
1126.64
1125.322
1123.965
1122.549
1121.089
1119.507
1134.752
1133.701
1132.61
1131.477
1130.306
1129.097
1127.851
1126.57
1125.257
1123.913
1122.607
1121.351
1120.091
1135.718
1134.711
1133.663
1132.574
1131.445
1130.277
1129.069
1127.823
1126.544
1125.235
1123.964
1122.769
1121.594
1120.503
1115.747
1120.103
1114.171
1122.906
1119.768
1112.768
1125.012
1122.89
1119.495
1111.766
1126.7
1125.039
1122.871
1119.352
1111.288
1128.105
1126.675
1125.021
1122.865
1119.37
1111.38
1129.307
1128
1126.583
1124.959
1122.872
1119.546
1112.02
1130.359
1129.12
1127.82
1126.422
1124.847
1122.875
1119.835
1113.136
1131.299
1130.104
1128.864
1127.571
1126.196
1124.68
1122.849
1120.175
1114.589
1132.164
1131.004
1129.804
1128.563
1127.275
1125.924
1124.465
1122.782
1120.499
1116.161
1133.007
1131.881
1130.716
1129.512
1128.269
1126.987
1125.654
1124.245
1122.691
1120.756
1117.738
1133.893
1132.804
1131.675
1130.507
1129.3
1128.058
1126.777
1125.455
1124.081
1122.615
1121.012
1119.029
1134.814
1133.765
1132.676
1131.546
1130.377
1129.171
1127.928
1126.648
1125.333
1123.98
1122.643
1121.314
1119.877
1135.744
1134.739
1133.692
1132.604
1131.475
1130.308
1129.101
1127.857
1126.579
1125.269
1123.992
1122.782
1121.58
1120.433
1136.667
1135.705
1134.701
1133.657
1132.571
1131.446
1130.279
1129.073
1127.83
1126.554
1125.298
1124.105
1122.946
1121.824
1120.831
1117.181
1120.404
1115.778
1122.869
1120.102
1114.221
1124.905
1122.891
1119.774
1112.836
1126.628
1124.99
1122.88
1119.508
1111.848
1128.105
1126.675
1125.021
1122.865
1119.37
1111.38
1129.388
1128.079
1126.654
1125.007
1122.863
1119.393
1111.471
1130.517
1129.281
1127.978
1126.566
1124.949
1122.874
1119.567
1112.106
1131.523
1130.335
1129.1
1127.804
1126.411
1124.842
1122.877
1119.854
1113.211
1132.429
1131.277
1130.086
1128.85
1127.561
1126.191
1124.678
1122.853
1120.193
1114.652
1133.263
1132.146
1130.989
1129.792
1128.556
1127.273
1125.924
1124.468
1122.79
1120.518
1116.413
1134.074
1132.992
1131.869
1130.707
1129.508
1128.27
1126.99
1125.659
1124.254
1122.705
1120.864
1118.2
1134.923
1133.879
1132.794
1131.668
1130.504
1129.302
1128.062
1126.783
1125.464
1124.093
1122.7
1121.236
1119.476
1135.804
1134.8
1133.755
1132.669
1131.544
1130.379
1129.175
1127.933
1126.656
1125.344
1124.053
1122.81
1121.546
1120.274
1136.692
1135.731
1134.729
1133.685
1132.6
1131.476
1130.311
1129.106
1127.864
1126.588
1125.33
1124.128
1122.956
1121.812
1120.786
1137.571
1136.653
1135.694
1134.694
1133.653
1132.571
1131.447
1130.282
1129.078
1127.837
1126.601
1125.407
1124.243
1123.122
1122.055
1121.018
1118.164
1120.61
1117.202
1122.771
1120.403
1115.814
1124.73
1122.856
1120.105
1114.275
1126.48
1124.884
1122.881
1119.783
1112.907
1128.025
1126.603
1124.972
1122.874
1119.524
1111.934
1129.388
1128.079
1126.654
1125.007
1122.863
1119.393
1111.471
1130.597
1129.362
1128.057
1126.637
1124.997
1122.865
1119.417
1111.562
1131.676
1130.492
1129.26
1127.961
1126.553
1124.943
1122.876
1119.589
1112.19
1132.644
1131.5
1130.315
1129.083
1127.791
1126.403
1124.837
1122.88
1119.873
1113.286
1133.517
1132.408
1131.259
1130.071
1128.839
1127.554
1126.186
1124.676
1122.857
1120.21
1114.951
1134.32
1133.245
1132.13
1130.977
1129.785
1128.552
1127.27
1125.923
1124.471
1122.798
1120.608
1116.88
1135.098
1134.059
1132.979
1131.86
1130.702
1129.507
1128.271
1126.992
1125.664
1124.262
1122.771
1121.078
1118.735
1135.909
1134.909
1133.868
1132.786
1131.664
1130.504
1129.304
1128.065
1126.789
1125.472
1124.155
1122.85
1121.474
1119.974
1136.749
1135.79
1134.789
1133.748
1132.666
1131.544
1130.381
1129.178
1127.938
1126.663
1125.399
1124.177
1122.974
1121.784
1120.69
1137.596
1136.679
1135.72
1134.721
1133.681
1132.6
1131.477
1130.313
1129.11
1127.87
1126.633
1125.433
1124.26
1123.127
1122.046
1120.989
1138.432
1137.558
1136.643
1135.687
1134.69
1133.652
1132.571
1131.449
1130.285
1129.082
1127.871
1126.681
1125.511
1124.377
1123.296
1122.185
1121.078
1118.752
1120.729
1118.179
1122.627
1120.612
1117.228
1124.49
1122.762
1120.407
1115.855
1126.254
1124.712
1122.847
1120.112
1114.334
1127.864
1126.457
1124.868
1122.875
1119.797
1112.984
1129.307
1128
1126.583
1124.959
1122.872
1119.546
1112.02
1130.597
1129.362
1128.057
1126.637
1124.997
1122.865
1119.417
1111.562
1131.753
1130.571
1129.339
1128.039
1126.623
1124.991
1122.868
1119.44
1111.651
1132.791
1131.652
1130.471
1129.242
1127.947
1126.544
1124.937
1122.878
1119.61
1112.274
1133.723
1132.621
1131.48
1130.298
1129.07
1127.782
1126.395
1124.833
1122.882
1119.892
1113.637
1134.563
1133.496
1132.39
1131.245
1130.06
1128.832
1127.548
1126.182
1124.674
1122.861
1120.294
1115.455
1135.333
1134.301
1133.229
1132.118
1130.968
1129.78
1128.548
1127.268
1125.923
1124.473
1122.837
1120.782
1117.358
1136.077
1135.082
1134.046
1132.97
1131.854
1130.7
1129.506
1128.271
1126.995
1125.669
1124.304
1122.892
1121.314
1119.369
1136.851
1135.895
1134.898
1133.859
1132.781
1131.663
1130.504
1129.306
1128.069
1126.795
1125.516
1124.258
1122.999
1121.725
1120.517
1137.651
1136.735
1135.779
1134.782
1133.743
1132.665
1131.544
1130.382
1129.181
1127.944
1126.703
1125.489
1124.297
1123.138
1122.027
1120.931
1138.456
1137.582
1136.668
1135.713
1134.717
1133.68
1132.6
1131.478
1130.315
1129.114
1127.902
1126.708
1125.531
1124.388
1123.298
1122.179
1121.053
1139.25
1138.419
1137.547
1136.635
1135.682
1134.688
1133.651
1132.571
1131.45
1130.287
1129.105
1127.927
1126.758
1125.612
1124.51
1123.394
1122.22
1121.15
1119.071
1120.792
1118.765
1122.504
1120.734
1118.2
1124.225
1122.624
1120.62
1117.259
1125.964
1124.476
1122.757
1120.415
1115.901
1127.623
1126.234
1124.698
1122.842
1120.124
1114.398
1129.144
1127.84
1126.438
1124.855
1122.873
1119.816
1113.06
1130.517
1129.281
1127.978
1126.566
1124.949
1122.874
1119.567
1112.106
1131.753
1130.571
1129.339
1128.039
1126.623
1124.991
1122.868
1119.44
1111.651
1132.864
1131.728
1130.549
1129.321
1128.024
1126.614
1124.985
1122.87
1119.463
1111.74
1133.864
1132.767
1131.631
1130.453
1129.227
1127.936
1126.535
1124.932
1122.88
1119.631
1112.667
1134.761
1133.701
1132.602
1131.463
1130.285
1129.06
1127.773
1126.388
1124.828
1122.884
1119.983
1114.201
1135.567
1134.542
1133.478
1132.375
1131.234
1130.052
1128.825
1127.541
1126.177
1124.672
1122.881
1120.45
1115.923
1136.303
1135.315
1134.286
1133.217
1132.11
1130.963
1129.775
1128.545
1127.266
1125.923
1124.487
1122.911
1120.964
1117.839
1137.012
1136.061
1135.069
1134.036
1132.963
1131.851
1130.698
1129.505
1128.272
1126.997
1125.693
1124.374
1123.016
1121.582
1120.146
1137.749
1136.836
1135.883
1134.889
1133.854
1132.779
1131.662
1130.504
1129.307
1128.072
1126.824
1125.585
1124.356
1123.15
1121.99
1120.841
1138.509
1137.637
1136.724
1135.771
1134.777
1133.742
1132.664
1131.544
1130.384
1129.185
1127.97
1126.766
1125.574
1124.412
1123.3
1122.165
1121.005
1139.273
1138.442
1137.571
1136.66
1135.708
1134.715
1133.679
1132.6
1131.479
1130.318
1129.135
1127.953
1126.778
1125.625
1124.515
1123.393
1122.214
1121.13
1140.026
1139.237
1138.408
1137.539
1136.629
1135.68
1134.686
1133.65
1132.571
1131.451
1130.301
1129.142
1127.98
1126.83
1125.711
1124.583
1123.415
1122.259
1121.231
1119.209
1120.824
1119.082
1122.42
1120.799
1118.783
1124.02
1122.504
1120.744
1118.225
1125.659
1124.218
1122.624
1120.631
1117.296
1127.32
1125.948
1124.467
1122.756
1120.428
1115.952
1128.904
1127.602
1126.217
1124.688
1122.841
1120.141
1114.462
1130.359
1129.12
1127.82
1126.422
1124.847
1122.875
1119.835
1113.136
1131.676
1130.492
1129.26
1127.961
1126.553
1124.943
1122.876
1119.589
1112.19
1132.864
1131.728
1130.549
1129.321
1128.024
1126.614
1124.985
1122.87
1119.463
1111.74
1133.935
1132.84
1131.707
1130.531
1129.306
1128.013
1126.604
1124.978
1122.872
1119.485
1112.155
1134.896
1133.841
1132.747
1131.613
1130.439
1129.216
1127.925
1126.526
1124.926
1122.882
1119.734
1113.286
1135.757
1134.739
1133.682
1132.585
1131.45
1130.275
1129.05
1127.764
1126.38
1124.824
1122.897
1120.143
1114.7
1136.528
1135.546
1134.525
1133.464
1132.364
1131.225
1130.044
1128.817
1127.535
1126.172
1124.664
1122.923
1120.606
1116.349
1137.231
1136.285
1135.299
1134.274
1133.208
1132.104
1130.958
1129.771
1128.541
1127.264
1125.921
1124.513
1122.988
1121.149
1118.307
1137.905
1136.997
1136.048
1135.058
1134.029
1132.959
1131.848
1130.696
1129.504
1128.272
1127.008
1125.729
1124.439
1123.147
1121.896
1120.72
1138.604
1137.734
1136.824
1135.874
1134.883
1133.851
1132.777
1131.661
1130.505
1129.309
1128.089
1126.866
1125.646
1124.45
1123.302
1122.145
1120.934
1139.325
1138.495
1137.626
1136.716
1135.765
1134.774
1133.74
1132.663
1131.545
1130.385
1129.201
1128.011
1126.822
1125.653
1124.525
1123.392
1122.203
1121.09
1140.048
1139.259
1138.431
1137.563
1136.654
1135.705
1134.713
1133.677
1132.599
1131.48
1130.329
1129.167
1128
1126.844
1125.717
1124.585
1123.414
1122.255
1121.214
1140.76
1140.013
1139.226
1138.399
1137.533
1136.627
1135.677
1134.685
1133.649
1132.571
1131.457
1130.321
1129.174
1128.029
1126.901
1125.765
1124.597
1123.437
1122.303
1121.318
1120.837
1119.22
1122.37
1120.831
1119.099
1123.888
1122.422
1120.81
1118.805
1125.43
1124.017
1122.509
1120.758
1118.256
1127.009
1125.65
1124.215
1122.629
1120.648
1117.338
1128.605
1127.304
1125.936
1124.462
1122.759
1120.445
1116.004
1130.125
1128.882
1127.584
1126.205
1124.682
1122.845
1120.158
1114.525
1131.523
1130.335
1129.1
1127.804
1126.411
1124.842
1122.877
1119.854
1113.211
1132.791
1131.652
1130.471
1129.242
1127.947
1126.544
1124.937
1122.878
1119.61
1112.274
1133.935
1132.84
1131.707
1130.531
1129.306
1128.013
1126.604
1124.978
1122.872
1119.485
1112.155
1134.964
1133.911
1132.82
1131.689
1130.516
1129.294
1128.002
1126.594
1124.972
1122.875
1119.595
1112.805
1135.887
1134.874
1133.821
1132.729
1131.599
1130.428
1129.205
1127.915
1126.517
1124.921
1122.894
1119.906
1113.822
1136.712
1135.736
1134.72
1133.666
1132.573
1131.44
1130.265
1129.041
1127.755
1126.373
1124.803
1122.924
1120.296
1115.134
1137.448
1136.509
1135.529
1134.511
1133.453
1132.356
1131.217
1130.036
1128.81
1127.529
1126.149
1124.655
1122.968
1120.757
1116.724
1138.116
1137.213
1136.27
1135.287
1134.264
1133.202
1132.098
1130.952
1129.766
1128.537
1127.252
1125.918
1124.538
1123.062
1121.329
1138.755
1137.889
1136.983
1136.037
1135.051
1134.024
1132.955
1131.845
1130.693
1129.502
1128.273
1127.019
1125.756
1124.501
1123.29
1122.115
1120.845
1139.417
1138.589
1137.722
1136.815
1135.867
1134.879
1133.848
1132.775
1131.66
1130.504
1129.316
1128.11
1126.899
1125.701
1124.54
1123.389
1122.187
1121.033
1140.098
1139.311
1138.484
1137.617
1136.71
1135.762
1134.772
1133.738
1132.662
1131.545
1130.393
1129.222
1128.044
1126.874
1125.73
1124.587
1123.413
1122.247
1121.182
1140.782
1140.035
1139.248
1138.423
1137.557
1136.651
1135.702
1134.711
1133.676
1132.599
1131.484
1130.345
1129.194
1128.043
1126.907
1125.767
1124.598
1123.436
1122.299
1121.304
1141.454
1140.747
1140.002
1139.217
1138.393
1137.53
1136.624
1135.675
1134.683
1133.648
1132.571
1131.463
1130.337
1129.204
1128.076
1126.939
1125.774
1124.61
1123.46
1122.348
1121.408
1122.348
1120.844
1119.236
1123.812
1122.374
1120.842
1119.12
1125.283
1123.887
1122.429
1120.825
1118.832
1126.776
1125.424
1124.018
1122.517
1120.776
1118.292
1128.3
1126.998
1125.644
1124.215
1122.638
1120.669
1117.382
1129.836
1128.587
1127.29
1125.929
1124.46
1122.766
1120.463
1116.056
1131.299
1130.104
1128.864
1127.571
1126.196
1124.68
1122.849
1120.175
1114.589
1132.644
1131.5
1130.315
1129.083
1127.791
1126.403
1124.837
1122.88
1119.873
1113.286
1133.864
1132.767
1131.631
1130.453
1129.227
1127.936
1126.535
1124.932
1122.88
1119.631
1112.667
1134.964
1133.911
1132.82
1131.689
1130.516
1129.294
1128.002
1126.594
1124.972
1122.875
1119.595
1112.805
1135.953
1134.941
1133.891
1132.802
1131.674
1130.504
1129.283
1127.991
1126.584
1124.966
1122.887
1119.777
1113.366
1136.838
1135.866
1134.854
1133.804
1132.716
1131.588
1130.416
1129.194
1127.904
1126.508
1124.893
1122.916
1120.067
1114.28
1137.626
1136.691
1135.718
1134.705
1133.653
1132.563
1131.43
1130.255
1129.031
1127.746
1126.336
1124.773
1122.954
1120.441
1115.5
1138.326
1137.429
1136.492
1135.515
1134.499
1133.444
1132.347
1131.209
1130.029
1128.803
1127.497
1126.114
1124.65
1123.014
1120.9
1138.959
1138.099
1137.198
1136.258
1135.278
1134.258
1133.195
1132.091
1130.947
1129.761
1128.518
1127.229
1125.914
1124.561
1123.131
1139.563
1138.739
1137.876
1136.973
1136.029
1135.046
1134.02
1132.951
1131.841
1130.691
1129.495
1128.265
1127.02
1125.776
1124.561
1123.383
1122.168
1120.962
1140.188
1139.402
1138.577
1137.713
1136.808
1135.864
1134.876
1133.845
1132.773
1131.659
1130.503
1129.318
1128.121
1126.925
1125.751
1124.591
1123.41
1122.234
1121.135
1140.831
1140.085
1139.299
1138.475
1137.611
1136.706
1135.759
1134.769
1133.736
1132.661
1131.544
1130.398
1129.236
1128.072
1126.921
1125.771
1124.599
1123.435
1122.293
1121.277
1141.476
1140.769
1140.024
1139.24
1138.416
1137.554
1136.648
1135.7
1134.709
1133.675
1132.597
1131.486
1130.356
1129.217
1128.082
1126.942
1125.775
1124.61
1123.459
1122.346
1121.397
1142.109
1141.441
1140.736
1139.993
1139.211
1138.39
1137.526
1136.621
1135.672
1134.681
1133.642
1132.565
1131.465
1130.35
1129.231
1128.101
1126.944
1125.781
1124.622
1123.483
1122.395
1121.5
1123.778
1122.352
1120.856
1119.257
1125.199
1123.812
1122.381
1120.858
1119.146
1126.628
1125.279
1123.89
1122.439
1120.844
1118.865
1128.073
1126.768
1125.422
1124.023
1122.53
1120.799
1118.329
1129.543
1128.287
1126.99
1125.642
1124.22
1122.651
1120.69
1117.426
1131.022
1129.818
1128.573
1127.281
1125.924
1124.463
1122.774
1120.481
1116.108
1132.429
1131.277
1130.086
1128.85
1127.561
1126.191
1124.678
1122.853
1120.193
1114.652
1133.723
1132.621
1131.48
1130.298
1129.07
1127.782
1126.395
1124.833
1122.882
1119.892
1113.637
1134.896
1133.841
1132.747
1131.613
1130.439
1129.216
1127.925
1126.526
1124.926
1122.882
1119.734
1113.286
1135.953
1134.941
1133.891
1132.802
1131.674
1130.504
1129.283
1127.991
1126.584
1124.966
1122.887
1119.777
1113.366
1136.901
1135.931
1134.922
1133.874
1132.788
1131.663
1130.493
1129.271
1127.98
1126.575
1124.937
1122.909
1119.944
1113.841
1137.747
1136.816
1135.847
1134.838
1133.791
1132.705
1131.577
1130.405
1129.183
1127.894
1126.464
1124.853
1122.941
1120.216
1114.661
1138.498
1137.605
1136.674
1135.702
1134.692
1133.643
1132.552
1131.42
1130.245
1129.021
1127.701
1126.279
1124.749
1122.985
1120.576
1139.163
1138.308
1137.413
1136.478
1135.504
1134.491
1133.436
1132.339
1131.201
1130.021
1128.766
1127.447
1126.083
1124.648
1123.056
1139.761
1138.942
1138.084
1137.186
1136.248
1135.271
1134.251
1133.189
1132.085
1130.941
1129.736
1128.482
1127.206
1125.907
1124.579
1140.33
1139.548
1138.726
1137.865
1136.965
1136.024
1135.041
1134.015
1132.947
1131.838
1130.677
1129.472
1128.246
1127.011
1125.786
1124.593
1123.406
1122.22
1121.074
1140.918
1140.173
1139.39
1138.568
1137.706
1136.804
1135.859
1134.872
1133.842
1132.77
1131.651
1130.491
1129.312
1128.124
1126.944
1125.777
1124.601
1123.433
1122.284
1121.237
1141.523
1140.817
1140.073
1139.29
1138.468
1137.607
1136.703
1135.756
1134.766
1133.734
1132.655
1131.537
1130.397
1129.246
1128.096
1126.946
1125.778
1124.611
1123.458
1122.341
1121.374
1142.129
1141.462
1140.758
1140.015
1139.233
1138.413
1137.55
1136.645
1135.697
1134.706
1133.667
1132.587
1131.483
1130.363
1129.237
1128.104
1126.946
1125.782
1124.623
1123.483
1122.394
1121.491
1142.724
1142.096
1141.431
1140.728
1139.987
1139.207
1138.386
1137.523
1136.618
1135.67
1134.671
1133.627
1132.556
1131.465
1130.361
1129.245
1128.104
1126.948
1125.787
1124.634
1123.507
1122.443
1121.591
1125.162
1123.778
1122.359
1120.872
1119.282
1126.544
1125.196
1123.816
1122.393
1120.878
1119.176
1127.929
1126.621
1125.279
1123.897
1122.454
1120.868
1118.898
1129.325
1128.063
1126.763
1125.423
1124.031
1122.547
1120.823
1118.367
1130.742
1129.529
1128.278
1126.985
1125.643
1124.228
1122.665
1120.712
1117.471
1132.164
1131.004
1129.804
1128.563
1127.275
1125.924
1124.465
1122.782
1120.499
1116.161
1133.517
1132.408
1131.259
1130.071
1128.839
1127.554
1126.186
1124.676
1122.857
1120.21
1114.951
1134.761
1133.701
1132.602
1131.463
1130.285
1129.06
1127.773
1126.388
1124.828
1122.884
1119.983
1114.201
1135.887
1134.874
1133.821
1132.729
1131.599
1130.428
1129.205
1127.915
1126.517
1124.921
1122.894
1119.906
1113.822
1136.901
1135.931
1134.922
1133.874
1132.788
1131.663
1130.493
1129.271
1127.98
1126.575
1124.937
1122.909
1119.944
1113.841
1137.808
1136.88
1135.912
1134.905
1133.86
1132.777
1131.651
1130.481
1129.259
1127.969
1126.527
1124.892
1122.932
1120.098
1114.234
1138.616
1137.726
1136.798
1135.831
1134.825
1133.78
1132.694
1131.566
1130.394
1129.172
1127.842
1126.394
1124.819
1122.966
1120.353
1139.33
1138.478
1137.588
1136.659
1135.69
1134.683
1133.633
1132.542
1131.41
1130.235
1128.973
1127.63
1126.23
1124.731
1123.016
1139.959
1139.145
1138.292
1137.399
1136.467
1135.496
1134.482
1133.427
1132.33
1131.193
1129.981
1128.706
1127.401
1126.057
1124.647
1140.523
1139.745
1138.928
1138.072
1137.177
1136.241
1135.264
1134.244
1133.182
1132.079
1130.912
1129.691
1128.446
1127.181
1125.897
1141.056
1140.315
1139.535
1138.716
1137.857
1136.959
1136.018
1135.035
1134.01
1132.942
1131.818
1130.641
1129.437
1128.215
1126.986
1125.784
1124.603
1123.43
1122.273
1121.185
1141.608
1140.904
1140.161
1139.381
1138.561
1137.701
1136.8
1135.855
1134.868
1133.839
1132.757
1131.627
1130.47
1129.297
1128.12
1126.953
1125.782
1124.612
1123.456
1122.334
1121.341
1142.175
1141.51
1140.806
1140.064
1139.284
1138.464
1137.603
1136.699
1135.752
1134.763
1133.723
1132.636
1131.523
1130.391
1129.251
1128.109
1126.949
1125.784
1124.623
1123.482
1122.39
1121.473
1142.744
1142.116
1141.451
1140.749
1140.009
1139.229
1138.409
1137.546
1136.641
1135.694
1134.695
1133.648
1132.574
1131.477
1130.367
1129.248
1128.106
1126.949
1125.788
1124.635
1123.506
1122.442
1121.585
1143.301
1142.711
1142.085
1141.422
1140.722
1139.983
1139.203
1138.382
1137.52
1136.615
1135.656
1134.648
1133.609
1132.545
1131.462
1130.366
1129.246
1128.105
1126.95
1125.793
1124.646
1123.53
1122.49
1121.681
1126.506
1125.159
1123.783
1122.371
1120.892
1119.312
1127.848
1126.538
1125.197
1123.824
1122.408
1120.902
1119.208
1129.187
1127.921
1126.619
1125.282
1123.907
1122.473
1120.893
1118.932
1130.534
1129.314
1128.057
1126.762
1125.428
1124.043
1122.564
1120.846
1118.405
1131.896
1130.727
1129.519
1128.272
1126.984
1125.648
1124.237
1122.678
1120.734
1117.516
1133.263
1132.146
1130.989
1129.792
1128.556
1127.273
1125.924
1124.468
1122.79
1120.518
1116.413
1134.563
1133.496
1132.39
1131.245
1130.06
1128.832
1127.548
1126.182
1124.674
1122.861
1120.294
1115.455
1135.757
1134.739
1133.682
1132.585
1131.45
1130.275
1129.05
1127.764
1126.38
1124.824
1122.897
1120.143
1114.7
1136.838
1135.866
1134.854
1133.804
1132.716
1131.588
1130.416
1129.194
1127.904
1126.508
1124.893
1122.916
1120.067
1114.28
1137.808
1136.88
1135.912
1134.905
1133.86
1132.777
1131.651
1130.481
1129.259
1127.969
1126.527
1124.892
1122.932
1120.098
1114.234
1138.675
1137.787
1136.861
1135.896
1134.892
1133.849
1132.765
1131.639
1130.469
1129.248
1127.913
1126.453
1124.854
1122.955
1120.238
1139.444
1138.596
1137.709
1136.783
1135.818
1134.814
1133.769
1132.683
1131.554
1130.383
1129.116
1127.759
1126.334
1124.791
1122.991
1140.121
1139.31
1138.462
1137.574
1136.647
1135.681
1134.673
1133.623
1132.532
1131.4
1130.184
1128.895
1127.568
1126.188
1124.717
1140.715
1139.941
1139.129
1138.278
1137.388
1136.459
1135.487
1134.474
1133.418
1132.322
1131.15
1129.915
1128.652
1127.361
1126.033
1141.244
1140.506
1139.73
1138.916
1138.062
1137.17
1136.234
1135.257
1134.237
1133.176
1132.047
1130.859
1129.644
1128.408
1127.153
1141.742
1141.041
1140.302
1139.524
1138.707
1137.851
1136.953
1136.013
1135.03
1134.005
1132.919
1131.773
1130.595
1129.39
1128.166
1126.962
1125.785
1124.613
1123.454
1122.326
1121.296
1142.258
1141.594
1140.892
1140.152
1139.373
1138.556
1137.696
1136.795
1135.851
1134.864
1133.821
1132.724
1131.594
1130.441
1129.275
1128.116
1126.954
1125.786
1124.624
1123.481
1122.385
1121.445
1142.789
1142.162
1141.498
1140.797
1140.057
1139.279
1138.46
1137.599
1136.695
1135.749
1134.748
1133.696
1132.612
1131.504
1130.38
1129.253
1128.109
1126.951
1125.789
1124.635
1123.506
1122.44
1121.571
1143.32
1142.731
1142.105
1141.443
1140.743
1140.004
1139.225
1138.405
1137.543
1136.638
1135.679
1134.668
1133.626
1132.556
1131.468
1130.369
1129.248
1128.106
1126.951
1125.794
1124.646
1123.53
1122.49
1121.676
1143.84
1143.288
1142.701
1142.077
1141.416
1140.717
1139.979
1139.199
1138.379
1137.516
1136.598
1135.627
1134.622
1133.588
1132.531
1131.46
1130.365
1129.245
1128.104
1126.952
1125.798
1124.658
1123.553
1122.536
1121.766
1127.811
1126.501
1125.16
1123.791
1122.387
1120.916
1119.342
1129.109
1127.84
1126.537
1125.201
1123.835
1122.428
1120.927
1119.239
1130.402
1129.178
1127.916
1126.62
1125.289
1123.921
1122.492
1120.917
1118.966
1131.698
1130.521
1129.306
1128.054
1126.765
1125.437
1124.056
1122.581
1120.87
1118.444
1133.007
1131.881
1130.716
1129.512
1128.269
1126.987
1125.654
1124.245
1122.691
1120.756
1117.738
1134.32
1133.245
1132.13
1130.977
1129.785
1128.552
1127.27
1125.923
1124.471
1122.798
1120.608
1116.88
1135.567
1134.542
1133.478
1132.375
1131.234
1130.052
1128.825
1127.541
1126.177
1124.672
1122.881
1120.45
1115.923
1136.712
1135.736
1134.72
1133.666
1132.573
1131.44
1130.265
1129.041
1127.755
1126.373
1124.803
1122.924
1120.296
1115.134
1137.747
1136.816
1135.847
1134.838
1133.791
1132.705
1131.577
1130.405
1129.183
1127.894
1126.464
1124.853
1122.941
1120.216
1114.661
1138.675
1137.787
1136.861
1135.896
1134.892
1133.849
1132.765
1131.639
1130.469
1129.248
1127.913
1126.453
1124.854
1122.955
1120.238
1139.501
1138.655
1137.769
1136.845
1135.883
1134.881
1133.838
1132.753
1131.627
1130.457
1129.189
1127.825
1126.388
1124.823
1122.979
1140.232
1139.424
1138.578
1137.694
1136.77
1135.808
1134.804
1133.758
1132.672
1131.544
1130.326
1129.028
1127.687
1126.283
1124.769
1140.872
1140.102
1139.294
1138.447
1137.562
1136.637
1135.671
1134.663
1133.613
1132.522
1131.349
1130.103
1128.826
1127.514
1126.152
1141.431
1140.697
1139.926
1139.116
1138.268
1137.38
1136.45
1135.479
1134.465
1133.41
1132.279
1131.081
1129.855
1128.603
1127.324
1141.925
1141.227
1140.492
1139.719
1138.907
1138.055
1137.162
1136.227
1135.25
1134.23
1133.141
1131.988
1130.805
1129.597
1128.369
1142.389
1141.728
1141.028
1140.291
1139.516
1138.701
1137.845
1136.947
1136.007
1135.024
1133.978
1132.866
1131.717
1130.534
1129.323
1128.125
1126.959
1125.788
1124.624
1123.479
1122.379
1121.407
1142.87
1142.244
1141.582
1140.882
1140.145
1139.368
1138.551
1137.691
1136.79
1135.847
1134.843
1133.78
1132.681
1131.553
1130.404
1129.26
1128.114
1126.954
1125.791
1124.635
1123.505
1122.437
1121.55
1143.364
1142.776
1142.151
1141.489
1140.79
1140.053
1139.275
1138.455
1137.594
1136.691
1135.731
1134.714
1133.663
1132.582
1131.481
1130.374
1129.251
1128.108
1126.953
1125.794
1124.646
1123.53
1122.489
1121.667
1143.859
1143.308
1142.72
1142.097
1141.436
1140.738
1140
1139.221
1138.401
1137.539
1136.62
1135.647
1134.638
1133.6
1132.537
1131.463
1130.367
1129.246
1128.105
1126.953
1125.799
1124.658
1123.553
1122.537
1121.764
1144.342
1143.827
1143.278
1142.692
1142.07
1141.412
1140.713
1139.974
1139.195
1138.375
1137.497
1136.564
1135.595
1134.594
1133.565
1132.523
1131.458
1130.362
1129.242
1128.103
1126.954
1125.803
1124.669
1123.575
1122.58
1121.884
1129.075
1127.804
1126.5
1125.165
1123.802
1122.407
1120.941
1119.373
1130.328
1129.1
1127.836
1126.538
1125.209
1123.85
1122.448
1120.952
1119.271
1131.573
1130.391
1129.171
1127.915
1126.624
1125.3
1123.936
1122.511
1120.942
1119
1132.818
1131.685
1130.512
1129.302
1128.054
1126.771
1125.446
1124.069
1122.598
1120.894
1118.634
1134.074
1132.992
1131.869
1130.707
1129.508
1128.27
1126.99
1125.659
1124.254
1122.705
1120.864
1118.2
1135.333
1134.301
1133.229
1132.118
1130.968
1129.78
1128.548
1127.268
1125.923
1124.473
1122.837
1120.782
1117.358
1136.528
1135.546
1134.525
1133.464
1132.364
1131.225
1130.044
1128.817
1127.535
1126.172
1124.664
1122.923
1120.606
1116.349
1137.626
1136.691
1135.718
1134.705
1133.653
1132.563
1131.43
1130.255
1129.031
1127.746
1126.336
1124.773
1122.954
1120.441
1115.5
1138.616
1137.726
1136.798
1135.831
1134.825
1133.78
1132.694
1131.566
1130.394
1129.172
1127.842
1126.394
1124.819
1122.966
1120.353
1139.501
1138.655
1137.769