/*--------------------------------*- C++ -*----------------------------------*\
| =========                 |                                                 |
| \\      /  F ield         | OpenFOAM: The Open Source CFD Toolbox           |
|  \\    /   O peration     | Version:  2306                                  |
|   \\  /    A nd           | Website:  www.openfoam.com                      |
|    \\/     M anipulation  |                                                 |
\*---------------------------------------------------------------------------*/
FoamFile
{
    version     2.0;
    format      ascii;
    arch        "LSB;label=32;scalar=64";
    class       volVectorField;
    location    "0.6/phiI";
    object      i;
}
// * * * * * * * * * * * * * * * * * * * * * * * * * * * * * * * * * * * * * //

dimensions      [0 -2 0 0 0 1 0];

internalField   nonuniform List<vector> 
12000
(
(33.82902 -0.6737369 1574.026)
(34.1957 -2.532382 1587.827)
(66.26343 2.993036 1445.612)
(34.34268 -1.225787 4784.099)
(34.84534 -3.022069 1615.706)
(66.80805 7.63076 1454.493)
(34.72904 -4.19958 4825.441)
(58.52785 4.772451 1337.704)
(67.20872 2.637794 4392.304)
(35.3962 -2.327439 8087.154)
(35.52514 1.938204 1657.458)
(67.80014 10.27236 1471.951)
(35.42036 -5.807334 4908.901)
(58.7904 12.83469 1344.484)
(67.78142 6.577194 4418.901)
(35.82186 -7.524471 8156.524)
(47.04702 5.618453 1251.331)
(59.30498 4.501252 4061.746)
(69.15284 1.929144 7421.488)
(37.00535 -4.000592 11472.02)
(35.7562 16.75103 1711.175)
(68.91438 11.04685 1496.745)
(36.168 -1.880573 5033.839)
(59.30693 18.04121 1357.65)
(68.83236 8.582271 4471.171)
(36.59626 -11.35798 8296.5)
(47.17845 15.42157 1256.903)
(59.58075 12.03686 4082.046)
(69.78163 4.476072 7466.112)
(37.49069 -12.57343 11570.86)
(37.98973 6.086724 1179.583)
(47.6795 5.395567 3796.754)
(60.91005 3.960427 6858.424)
(72.12364 0.8528256 10521.9)
(39.19667 -6.280945 14980.27)
(34.90301 39.67697 1769.084)
(69.5292 10.52969 1525.976)
(36.497 12.28601 5194.412)
(59.98423 19.22878 1375.896)
(70.04063 8.885841 4545.447)
(37.47871 -9.482212 8505.974)
(47.45532 22.21072 1267.647)
(60.12415 16.78473 4121.463)
(70.94989 5.210528 7553.801)
(38.39115 -19.78532 11770.28)
(38.05977 16.91771 1184.345)
(47.819 14.7689 3813.436)
(61.21226 10.44597 6892.477)
(72.83761 1.284653 10585.48)
(39.76335 -19.45488 15110.76)
(31.16058 6.318926 1117.935)
(38.52331 5.896255 3576.497)
(48.98802 4.951193 6406.666)
(63.36426 3.139158 9718.221)
(76.16803 -0.614089 13729.34)
(42.00909 -9.21995 16875.51)
(32.92517 58.59995 1814.875)
(68.7707 11.36665 1553.625)
(35.76485 35.52899 5367.141)
(60.63561 15.31422 1396.482)
(70.78797 8.254483 4633.093)
(38.00148 3.418974 8774.947)
(47.85198 24.33364 1282.333)
(60.84188 17.67549 4176.148)
(72.34514 4.569997 7678.498)
(39.4779 -21.01844 12068.72)
(38.21864 24.77654 1193.485)
(48.11198 21.19353 3845.601)
(61.80922 14.27715 6958.602)
(74.18395 0.0868221 10710.45)
(40.83558 -31.27244 15374.07)
(31.19366 17.71069 1122.103)
(38.59898 16.36163 3590.75)
(49.14363 13.46769 6434.642)
(63.70663 8.029757 9766.727)
(76.99815 -3.065774 13813.27)
(42.68065 -28.32537 17022.01)
(25.99793 6.417507 1063.884)
(31.62338 6.15221 3387.206)
(39.62792 5.516608 6031.07)
(50.98892 4.276547 9073.588)
(66.70331 2.020186 12672.5)
(81.35473 -2.504283 15458.37)
(44.8652 -12.14124 17085.99)
(30.51765 61.19474 1845.428)
(66.4339 14.74635 1572.509)
(33.89463 55.54617 5503.272)
(60.9256 8.72406 1414.474)
(70.18914 9.505341 4716.077)
(37.50726 27.32257 9063.656)
(48.31173 19.94334 1298.479)
(61.5456 13.77112 4237.961)
(73.355 3.704503 7825.814)
(40.29353 -10.02127 12451.79)
(38.46183 27.79281 1205.872)
(48.53208 23.10038 3889.617)
(62.60755 14.56889 7050.449)
(75.86273 -1.994659 10888.29)
(42.20042 -36.74249 15768.24)
(31.27849 26.23133 1130.078)
(38.76892 23.91547 3618.11)
(49.46874 19.16348 6488.594)
(64.38498 10.46585 9860.951)
(78.5872 -6.901774 13978.28)
(43.9743 -46.08452 17317.56)
(26.00879 18.09682 1067.596)
(31.66066 17.22497 3399.679)
(39.7148 15.2532 6054.967)
(51.16904 11.49179 9113.426)
(67.10049 4.736778 12736.5)
(82.33463 -8.673177 15552.56)
(45.64118 -37.13682 17231.64)
(21.99227 6.427509 1015.744)
(26.4067 6.269046 3221.215)
(32.58171 5.820004 5708.276)
(41.31687 4.940382 8537.797)
(53.70971 3.357681 11825.58)
(70.97928 0.5790708 14259.2)
(86.63325 -4.381418 15646.89)
(47.7655 -15.04571 17297.58)
(28.48275 45.02952 1863.47)
(63.36638 16.77059 1583.418)
(31.56569 59.25091 5593.697)
(60.58512 4.556728 1425.195)
(67.99262 13.55465 4772.726)
(35.84735 49.5377 9290.452)
(48.69207 10.86172 1311.902)
(61.89249 7.575525 4292.16)
(73.07062 5.781307 7965.504)
(40.15745 14.90877 12862.43)
(38.77619 23.71514 1219.274)
(49.02056 18.76055 3938.123)
(63.41549 10.67371 7154.506)
(77.26973 -3.22577 11098.66)
(43.41396 -28.32951 16274.21)
(31.41763 29.90918 1140.824)
(39.02787 26.76127 3655.231)
(49.93565 20.63278 6562.526)
(65.30577 9.839317 9991.976)
(80.65211 -10.95863 14213.34)
(45.69748 -57.02405 17760.04)
(26.04775 27.01622 1074.681)
(31.75371 25.48246 3423.547)
(39.90686 22.1973 6100.85)
(51.54299 16.07816 9190.287)
(67.88986 5.267185 12860.89)
(84.23669 -15.91627 15737.68)
(47.15507 -60.79331 17525.16)
(21.98853 18.20882 1019.09)
(26.42084 17.66496 3232.32)
(32.62738 16.25704 5729.183)
(41.42081 13.57044 8571.816)
(53.92328 8.799753 11878.12)
(71.4472 0.494209 14330.99)
(87.76224 -14.23811 15740.44)
(48.64545 -45.8921 17442.41)
(18.83535 6.380156 972.4084)
(22.35817 6.293675 3073.351)
(27.25335 5.973302 5425.211)
(34.04682 5.315928 8077.458)
(43.61244 4.155858 11122.14)
(57.19035 2.174936 13297.82)
(75.34552 -0.8512978 14423.57)
(92.00442 -6.2462 15836.35)
(50.71014 -17.93415 17509.24)
(27.3474 16.40715 1871.77)
(60.67722 13.32702 1589.148)
(29.58004 43.97587 5646.849)
(59.78932 3.627891 1430.188)
(65.02734 16.10502 4805.347)
(33.67105 55.45165 9440.455)
(48.81856 3.383625 1319.102)
(61.59875 3.928135 4324.585)
(71.14865 11.17554 8060.846)
(38.81306 40.47421 13184.33)
(39.0958 13.79242 1230.063)
(49.42971 10.03681 3978.629)
(63.87539 5.259081 7246.123)
(77.45927 0.1040617 11298.51)
(43.76295 -1.979076 16816.26)
(31.6145 26.283 1152.33)
(39.36079 22.74748 3695.491)
(50.48161 16.38283 6644.228)
(66.27195 5.94414 10140.75)
(82.59914 -12.70422 14491.83)
(47.42308 -51.94216 18328.13)
(26.11928 31.1529 1084.191)
(31.90435 29.0191 3455.746)
(40.19732 24.69756 6163.192)
(52.0811 16.87503 9295.749)
(68.97772 3.376961 13034.08)
(86.79937 -22.53632 16001.57)
(49.23428 -77.16548 17964.63)
(21.99668 27.33618 1025.464)
(26.4662 26.35243 3253.52)
(32.73685 23.98862 5769.201)
(41.64649 19.58648 8637.162)
(54.3639 11.87055 11979.55)
(72.37992 -1.437121 14470.47)
(89.97555 -24.86239 15924.13)
(50.37844 -75.4044 17734.01)
(18.82221 18.14096 975.4543)
(22.3571 17.82 3083.361)
(27.27406 16.80459 5443.82)
(34.10525 14.78798 8107.211)
(43.73966 11.2786 11166.99)
(57.4471 5.33319 13356.73)
(75.88381 -3.713774 14494.83)
(93.28184 -19.76278 15929.3)
(51.69362 -54.5938 17653.27)
(16.29554 6.296081 933.0461)
(19.16614 6.258319 2940.221)
(23.11624 6.027128 5173.054)
(28.54759 5.52468 7673.872)
(36.03741 4.6299 10518.09)
(46.54687 3.146578 12499.27)
(60.74946 1.001454 13441.05)
(79.80265 -2.271493 14588.79)
(97.46842 -8.099281 16025.88)
(53.69891 -20.80727 17719.9)
(27.3474 -16.40716 1871.77)
(59.14781 5.053601 1591.594)
(28.4681 16.07518 5671.217)
(58.95663 2.8439 1432.132)
(62.40257 12.99995 4822.392)
(31.78058 41.92873 9528.25)
(48.70181 0.4856409 1321.747)
(60.83601 3.350421 4339.743)
(68.38219 14.78398 8115.589)
(36.86516 49.73899 13396.68)
(39.30601 4.654121 1235.417)
(49.57768 2.989854 4000.516)
(63.67396 2.653406 7301.187)
(75.94968 7.551244 11434.94)
(42.84491 28.16783 17240.49)
(31.84003 16.15988 1161.395)
(39.69783 13.14668 3728.062)
(50.94847 8.366007 6712.839)
(66.90315 1.708296 10272.27)
(83.43127 -7.669657 14756.94)
(48.39475 -23.74248 18936.27)
(26.23285 27.93914 1094.298)
(32.1144 25.46017 3490.298)
(40.56749 20.80188 6231.006)
(52.71456 12.74801 9412.61)
(70.15971 -0.5378948 13231.19)
(89.44181 -24.96941 16314.65)
(51.46788 -75.37876 18528.99)
(22.02145 31.7602 1033.996)
(26.54659 30.3682 3282.008)
(32.91052 27.23912 5823.263)
(41.98492 21.55505 8726.073)
(54.99926 11.73985 12118.92)
(73.68347 -4.972808 14664.85)
(93.03284 -34.03743 16186.13)
(52.81147 -97.17711 18170.65)
(18.81006 27.34542 981.2479)
(22.37041 26.73993 3102.434)
(27.3322 25.02871 5479.357)
(34.23969 21.71926 8164.186)
(44.01126 16.02699 11253.18)
(57.97382 6.446388 13470.41)
(76.95897 -8.087277 14633.15)
(95.80473 -33.74424 16111.63)
(53.64459 -89.92298 17943.04)
(16.27653 17.95591 935.8402)
(19.15521 17.78738 2949.332)
(23.12048 17.04552 5189.823)
(28.57829 15.49912 7700.345)
(36.11326 12.78792 10557.29)
(46.70415 8.328881 12549.52)
(61.04915 1.896306 13499.5)
(80.41095 -7.888966 14659.56)
(98.89362 -25.24927 16118.26)
(54.78551 -63.2443 17863.18)
(14.21914 6.190069 897.0537)
(16.59696 6.184315 2819.275)
(19.85166 6.015717 4946.008)
(24.27498 5.622905 7314.424)
(30.30549 4.914359 9988.731)
(38.58046 3.747803 11813.61)
(49.54927 2.145566 12624.27)
(64.38756 -0.1632336 13585.06)
(84.35069 -3.682056 14754.15)
(103.0247 -9.941255 16214.61)
(56.73129 -23.66567 15925.52)
(28.48276 -45.02951 1863.47)
(59.14781 -5.053603 1591.594)
(28.4681 -16.07519 5671.217)
(58.44479 1.113101 1432.733)
(60.90396 4.955744 4829.631)
(30.71374 15.43245 9568.373)
(48.49694 -0.1183403 1322.274)
(60.02412 2.742123 4345.667)
(65.88195 12.35567 8144.052)
(35.11684 38.85916 13520.66)
(39.3755 0.4117038 1236.962)
(49.47472 0.3587637 4008.676)
(62.97601 2.784631 7327.059)
(73.48092 12.77676 11513.16)
(41.20511 41.99844 17519.85)
(32.0209 6.18065 1165.641)
(39.91985 4.378154 3744.377)
(51.1394 2.181738 6750.238)
(66.84118 0.690693 10351.65)
(82.47937 2.58943 14938)
(48.02303 12.33051 19410.81)
(26.37806 17.85635 1102.146)
(32.3517 15.62742 3517.656)
(40.93969 11.83699 6286.214)
(53.26935 5.79642 9511.286)
(71.02428 -3.176806 13406.19)
(91.09956 -17.74299 16613.16)
(53.05537 -45.28625 19132.48)
(22.07452 28.87086 1043.016)
(26.6701 27.22092 3312.35)
(33.14706 23.8066 5881.446)
(42.41192 17.82659 8823.072)
(55.75232 7.761361 12273.8)
(75.14406 -8.940233 14886.55)
(96.36549 -37.16778 16497.44)
(55.54928 -98.65622 18731.59)
(18.80336 31.93125 988.9854)
(22.40227 31.05811 3127.986)
(27.43032 28.79971 5527.172)
(34.44843 24.52931 8241.268)
(44.41524 17.26116 11370.64)
(58.73485 5.105112 13626.78)
(78.4769 -13.26614 14826.07)
(99.35362 -45.4687 16371.88)
(56.42935 -117.0688 18377.01)
(16.25136 27.14764 941.1471)
(19.14733 26.80418 2966.665)
(23.1441 25.55116 5221.787)
(28.65586 23.01835 7750.925)
(36.2818 18.62636 10632.41)
(47.03505 11.44035 12646.09)
(61.6614 1.068491 13612.18)
(81.62769 -14.68658 14796.78)
(101.7245 -42.56574 16299.3)
(56.95338 -104.3539 18151.19)
(14.19668 17.69916 899.6332)
(16.57981 17.63187 2827.632)
(19.84512 17.0832 4961.269)
(24.2873 15.87068 7338.273)
(30.34982 13.72246 10023.6)
(38.67881 10.21506 11857.53)
(49.73645 5.405549 12674.12)
(64.72996 -1.512371 13643.08)
(85.02867 -12.03308 14824.45)
(104.5971 -30.69953 16306.44)
(57.9206 -71.84569 16052.47)
(12.49364 6.07146 863.9558)
(14.4955 6.08689 2708.66)
(17.22178 5.961807 4739.731)
(20.89943 5.647903 6990.825)
(25.84843 5.073189 9517.447)
(32.55014 4.130011 11212.81)
(41.18323 2.873266 11922.73)
(52.62011 1.152436 12749.99)
(68.10468 -1.319578 13729.27)
(88.98911 -5.083492 14918.93)
(108.6723 -11.77266 14577.21)
(59.09214 -25.8852 12215.42)
(30.51765 -61.19471 1845.428)
(60.67722 -13.32702 1589.148)
(29.58005 -43.97585 5646.849)
(58.44479 -1.113103 1432.733)
(60.90396 -4.955746 4829.631)
(30.71374 -15.43246 9568.373)
(48.35287 -0.06477132 1322.207)
(59.52234 1.089069 4347.504)
(64.44266 4.764031 8156.083)
(34.11726 14.47027 13577.22)
(39.36437 -0.6455643 1236.892)
(49.2779 -0.1367403 4010.4)
(62.20459 2.533484 7337.23)
(71.16665 11.38023 11553.72)
(39.64832 34.70711 17682.69)
(32.11895 1.069244 1166.604)
(39.99607 0.3526985 3749.218)
(51.06391 0.09027935 6764.433)
(66.24063 1.908709 10389.14)
(80.41232 10.03262 15041.75)
(46.77756 32.05101 19722.1)
(26.50918 7.443345 1105.667)
(32.5399 5.972296 3530.6)
(41.18567 3.807896 6314.187)
(53.52567 0.9261016 9565.502)
(71.15171 -2.02167 13512.25)
(90.86267 -3.841356 16816.91)
(53.22051 -3.265547 19601.06)
(22.15612 18.92324 1049.946)
(26.82386 17.40161 3336.018)
(33.40821 14.54779 5927.814)
(42.83793 9.819414 8902.538)
(56.42738 2.250335 12405.32)
(76.30961 -9.533907 15083.99)
(98.84037 -27.75993 16794.61)
(57.74626 -66.62559 19330.96)
(18.81434 29.28579 997.1335)
(22.46318 28.23287 3155.055)
(27.57382 25.77872 5578.246)
(34.72544 21.27813 8324.474)
(44.92004 13.74328 11499.19)
(59.64257 1.291972 13800.95)
(80.21453 -17.3035 15046.53)
(103.3716 -49.3083 16681.61)
(59.66781 -121.791 18934.86)
(16.224 31.80297 948.2224)
(19.14645 31.29583 2989.835)
(23.19014 29.65533 5264.665)
(28.78098 26.41261 7819.077)
(36.53851 20.82764 10734.2)
(47.5238 11.71473 12777.82)
(62.54738 -1.481763 13767.31)
(83.35879 -21.50826 14988.33)
(105.7621 -56.83663 16557.92)
(60.08784 -136.8501 18582.65)
(14.16345 26.82011 904.5259)
(16.55825 26.65235 2843.508)
(19.84576 25.72532 4990.311)
(24.32659 23.74624 7383.753)
(30.45393 20.27943 10090.26)
(38.89139 14.64283 11941.66)
(50.12626 6.895015 12769.8)
(65.4272 -4.265847 13754.82)
(86.3862 -21.23822 14960.62)
(107.7344 -51.33058 16486.26)
(60.30433 -118.7017 16307.5)
(12.46915 17.39899 866.3498)
(14.47464 17.40027 2716.374)
(17.20836 16.98659 4753.725)
(20.8996 16.01526 7012.521)
(25.87178 14.27237 9548.843)
(32.61207 11.43813 11251.85)
(41.30395 7.666215 11966.28)
(52.83703 2.50739 12799.46)
(68.48957 -4.894268 13786.89)
(89.73643 -16.14776 14988.79)
(110.3912 -36.11535 14658.6)
(60.36099 -78.52352 12311.62)
(11.04495 5.945222 833.3816)
(12.74833 5.975701 2606.918)
(15.06857 5.881502 4551.056)
(18.17676 5.624539 6696.867)
(22.32189 5.147883 9093.303)
(27.85669 4.367079 10677.96)
(34.8481 3.352688 11307.84)
(43.84615 2.005972 12032.51)
(55.75947 0.1668109 12875.95)
(71.90039 -2.468008 13873.09)
(93.71676 -6.476273 13413.61)
(113.0724 -13.1967 11190.31)
(60.83172 -27.51381 8656.332)
(32.92517 -58.59993 1814.875)
(63.36637 -16.7706 1583.418)
(31.56569 -59.25088 5593.697)
(58.95663 -2.843901 1432.132)
(62.40257 -12.99996 4822.392)
(31.78059 -41.92872 9528.25)
(48.35287 0.06477137 1322.207)
(59.52234 -1.089071 4347.504)
(64.44266 -4.764033 8156.083)
(34.11726 -14.47028 13577.22)
(39.33938 -0.3276815 1236.563)
(49.13755 -0.06208623 4010.264)
(61.72226 1.039612 7340.406)
(69.81583 4.474531 11570.82)
(38.73933 13.17004 17756.9)
(32.15659 -0.4795297 1166.261)
(39.98842 -0.6295935 3749.141)
(50.88305 -0.1818372 6767.632)
(65.5298 2.208266 10404)
(78.34859 10.04937 15095.47)
(45.46575 29.37722 19902.96)
(26.59152 1.768652 1106.295)
(32.64162 1.04444 3533.658)
(41.27558 0.2211444 6322.771)
(53.49187 -0.3370159 9586.429)
(70.68294 0.6906803 13562.64)
(89.30975 6.47826 16933.32)
(52.36022 22.31255 19906.43)
(22.23988 8.315259 1052.951)
(26.95995 7.277385 3346.741)
(33.61144 5.540605 5950.041)
(43.12064 2.915875 8943.242)
(56.77301 -0.8239765 12478.15)
(76.6806 -5.56759 15204.02)
(99.30654 -10.21703 16997.04)
(58.43914 -18.62739 19793.82)
(18.84947 19.50999 1003.343)
(22.55133 18.52586 3175.937)
(27.74494 16.48071 5618.341)
(35.02319 12.88362 8391.23)
(45.41992 7.030176 11605.2)
(60.4733 -2.377636 13949.46)
(81.67907 -15.87565 15243.42)
(106.6558 -37.72697 16977.68)
(62.46848 -87.77545 19530.59)
(16.20647 29.33204 955.6502)
(19.1638 28.7115 3014.278)
(23.26681 26.95281 5310.211)
(28.95504 23.57417 7892.096)
(36.87097 17.80811 10844.44)
(48.12933 8.444287 12922.32)
(63.6092 -5.146098 13940.44)
(85.37206 -25.63416 15207.73)
(110.4609 -61.39968 16866.27)
(63.82365 -144.7994 19137.72)
(14.12276 31.48241 911.04)
(16.53578 31.22285 2864.692)
(19.85653 30.02675 5029.181)
(24.39424 27.52112 7444.849)
(30.61599 23.15288 10180.22)
(39.21012 16.04792 12055.76)
(50.69931 6.21189 12900.41)
(66.43749 -8.025034 13908.78)
(88.32931 -29.70426 15150.92)
(112.258 -68.14744 16743.35)
(63.78654 -156.53 16689.57)
(12.4307 26.40843 870.885)
(14.4445 26.36383 2731.011)
(17.19397 25.66523 4780.322)
(20.91319 24.0877 7053.832)
(25.93247 21.2881 9608.756)
(32.75047 16.75351 11326.47)
(41.56028 10.69713 12049.6)
(53.28539 2.388742 12894.3)
(69.27131 -9.559271 13897.73)
(91.23398 -27.74525 15123.97)
(113.8334 -60.04227 14817.87)
(62.91191 -129.8379 12504.85)
(11.01883 17.06975 835.6137)
(12.72523 17.12183 2614.077)
(15.0509 16.80513 4563.972)
(18.169 16.00822 6716.757)
(22.33119 14.5629 9121.853)
(27.89428 12.21834 10713.1)
(34.92753 9.175981 11346.54)
(43.98912 5.140382 12075.7)
(56.00598 -0.3667928 12925.05)
(72.32757 -8.250764 13930.32)
(94.53314 -20.23453 13475.54)
(114.9049 -40.32587 11252.05)
(62.1589 -83.42305 8723.787)
(9.818501 5.810197 805.0246)
(11.28068 5.855939 2512.907)
(13.27665 5.785105 4377.497)
(15.94444 5.570259 6428.025)
(19.47298 5.166206 8708.123)
(24.13673 4.505916 10196.62)
(29.91317 3.667538 10760.33)
(37.19977 2.582128 11403.47)
(46.56931 1.145603 12142.55)
(58.967 -0.8116758 13001.66)
(75.77376 -3.608931 12473.09)
(97.40562 -7.560794 10304.39)
(116.3164 -14.24199 7933.434)
(61.98373 -28.58338 5198.152)
(34.90301 -39.67697 1769.084)
(66.4339 -14.74636 1572.509)
(33.89463 -55.54615 5503.272)
(59.78933 -3.627891 1430.188)
(65.02733 -16.10503 4805.347)
(33.67105 -55.45162 9440.455)
(48.49694 0.1183403 1322.274)
(60.02412 -2.742124 4345.667)
(65.88195 -12.35568 8144.052)
(35.11684 -38.85914 13520.66)
(39.33938 0.3276814 1236.563)
(49.13755 0.06208628 4010.264)
(61.72226 -1.039614 7340.406)
(69.81583 -4.474533 11570.82)
(38.73933 -13.17005 17756.9)
(32.16566 -0.3146077 1165.827)
(39.9649 -0.3145184 3748.217)
(50.75001 -0.05934513 6767.546)
(65.07648 0.9620327 10408.68)
(77.11682 4.080157 15118.07)
(44.67259 11.502 19985.18)
(26.63206 -0.1784974 1105.826)
(32.68086 -0.4484658 3532.74)
(41.27501 -0.6055384 6322.934)
(53.33509 -0.2612642 9591.428)
(70.05377 1.752122 13582.78)
(87.56629 8.32743 16993.37)
(51.28666 24.18384 20082.84)
(22.29684 2.297979 1053.37)
(27.04446 1.762279 3348.76)
(33.72078 0.9836552 5955.566)
(43.23154 0.002829946 8956.136)
(56.79595 -0.9467559 12506.74)
(76.38067 -0.9127617 15261.2)
(98.25594 2.974034 17112.06)
(57.95503 12.78006 20093.37)
(18.89568 8.850526 1005.964)
(22.63869 8.178268 3185.079)
(27.89127 6.933678 5636.757)
(35.24962 4.862226 8423.646)
(45.75309 1.664002 11660.09)
(60.93431 -3.130741 14032.2)
(82.29055 -9.109854 15363.34)
(107.8136 -16.53967 17178.87)
(63.68031 -33.76199 19987.99)
(16.2088 19.7366 961.2754)
(19.20416 19.15677 3032.976)
(23.36828 17.72228 5345.565)
(29.15286 15.0612 7949.811)
(37.21912 10.58088 10933.52)
(48.72512 3.383474 13042.03)
(64.59524 -6.999718 14088.55)
(87.13382 -22.20619 15404.21)
(114.5474 -47.65042 17161.47)
(67.22274 -108.7506 19730.31)
(14.0857 29.13383 917.8617)
(16.52356 28.80992 2886.968)
(19.88669 27.56012 5070.293)
(24.49499 24.99688 7509.942)
(30.83195 20.54939 10276.93)
(39.61448 13.30518 12179.62)
(51.40536 3.175097 13043.94)
(67.65294 -11.55792 14081)
(90.61697 -33.93851 15369.39)
(117.6335 -73.45043 17050.52)
(68.01662 -167.6973 17181.22)
(12.38071 31.02551 876.9164)
(14.40798 30.94898 2750.513)
(17.18128 30.06458 4815.853)
(20.9417 28.09658 7109.199)
(26.02966 24.60779 9689.371)
(32.9603 18.94561 11427.27)
(41.94072 11.30922 12162.67)
(53.94236 0.749097 13023.85)
(70.40532 -14.52886 14050.6)
(93.38806 -37.85904 15313.1)
(118.8403 -79.4071 15045.67)
(66.66343 -171.7988 12794.29)
(10.97636 25.93566 839.8375)
(12.68945 25.98577 2627.643)
(15.02691 25.45457 4588.489)
(18.16553 24.16723 6754.579)
(22.36246 21.85819 9176.252)
(27.98261 18.12513 10780.15)
(35.09997 13.26275 11420.42)
(44.28893 6.787378 12158.25)
(56.51255 -2.080696 13019.09)
(73.19334 -14.81435 14040.31)
(96.16998 -34.21059 13595.32)
(118.5831 -66.81351 11372.84)
(64.8324 -138.0082 8859.26)
(9.791749 16.71304 807.1148)
(11.25577 16.81152 2519.582)
(13.25632 16.56996 4389.481)
(15.93162 15.90296 6446.377)
(19.47294 14.6781 8734.286)
(24.15783 12.69732 10228.57)
(29.96492 10.18494 10795.14)
(37.29661 6.93519 11441.83)
(46.73444 2.636552 12185.4)
(59.24299 -3.218172 13050.42)
(76.24305 -11.58318 12523.85)
(98.27545 -23.41633 10351.41)
(118.232 -43.4162 7976.717)
(63.34927 -86.64061 5238.098)
(8.77315 5.677701 778.6378)
(10.03748 5.726588 2425.691)
(11.76986 5.678249 4217.105)
(14.08413 5.496341 6180.745)
(17.13306 5.147435 8355.945)
(21.1262 4.578035 9759.523)
(25.99563 3.870148 10267.46)
(32.01825 2.974353 10843.21)
(39.60528 1.818067 11499.36)
(49.35249 0.2918469 12252.45)
(62.24201 -1.783377 11688.73)
(78.79988 -4.498468 9587.5)
(100.128 -8.357412 7307.944)
(118.466 -14.92801 4764.29)
(62.56716 -29.11165 1744.14)
(35.7562 -16.75105 1711.175)
(68.77069 -11.36665 1553.625)
(35.76484 -35.52899 5367.141)
(60.58512 -4.556728 1425.195)
(67.99262 -13.55465 4772.726)
(35.84735 -49.53767 9290.452)
(48.70181 -0.4856407 1321.747)
(60.83601 -3.350422 4339.743)
(68.38219 -14.78399 8115.589)
(36.86515 -49.73896 13396.68)
(39.36437 0.6455642 1236.892)
(49.2779 0.1367404 4010.4)
(62.20459 -2.533485 7337.23)
(71.16665 -11.38023 11553.72)
(39.64832 -34.70709 17682.69)
(32.16566 0.3146078 1165.827)
(39.9649 0.3145183 3748.217)
(50.75001 0.05934518 6767.546)
(65.07648 -0.9620343 10408.68)
(77.11682 -4.080159 15118.07)
(44.67259 -11.50201 19985.18)
(26.64698 -0.2369995 1105.355)
(32.69049 -0.2972533 3531.492)
(41.25447 -0.2907468 6321.524)
(53.21307 -0.05866174 9591.515)
(69.63947 0.8523136 13589.21)
(86.48659 3.570326 17018.56)
(50.60584 9.880976 20162.72)
(22.32718 0.07508758 1052.843)
(27.08573 -0.1408899 3347.439)
(33.7634 -0.3929066 5954.281)
(43.24182 -0.5796907 8956.799)
(56.67183 -0.3852775 12513.97)
(75.8558 1.145601 15284.13)
(96.82389 6.639963 17171.01)
(57.11306 19.12551 20265.37)
(18.92945 2.641676 1006.246)
(22.69703 2.302316 3186.44)
(27.98039 1.740741 5640.476)
(35.3708 0.8748289 8432.118)
(45.89282 -0.321142 11678.03)
(61.0303 -1.769691 14065.03)
(82.15611 -2.513954 15420.46)
(107.2536 -0.4806981 17292.53)
(63.56356 3.45046 20281.81)
(16.22687 9.11503 963.5978)
(19.25309 8.734399 3040.937)
(23.4631 7.895141 5361.258)
(29.31508 6.391989 7976.705)
(37.47758 3.905098 10977.35)
(49.12382 0.002443698 13104.51)
(65.17103 -5.446629 14171.47)
(87.98286 -12.64932 15524.08)
(116.3855 -22.81122 17361.51)
(68.94507 -48.67623 20182.48)
(14.06401 19.71393 923.0024)
(16.53016 19.41869 2903.897)
(19.93764 18.4436 5101.929)
(24.61698 16.484 7560.817)
(31.06659 13.09631 10353.94)
(40.02821 7.567214 12280.15)
(52.09715 -0.2573668 13163.23)
(68.79406 -11.61894 14228.84)
(92.67443 -28.52954 15565.63)
(122.5157 -57.53641 17345.08)
(72.00938 -129.5657 17705.98)
(12.32995 28.74454 883.2209)
(14.37542 28.65533 2770.966)
(17.17972 27.76387 4853.307)
(20.99142 25.80158 7167.932)
(26.16346 22.31408 9775.552)
(33.23061 16.62518 11535.86)
(42.41684 8.832297 12285.58)
(54.74875 -2.068444 13166.52)
(71.77403 -17.94848 14222.04)
(95.949 -42.22268 15530.8)
(124.8886 -85.46881 15318.07)
(71.27625 -185.4556 13166.65)
(10.92063 30.47497 845.4504)
(12.64307 30.53207 2645.699)
(14.99873 29.8842 4621.193)
(18.16773 28.30347 6805.175)
(22.41523 25.46275 9249.276)
(28.11801 20.84929 10870.43)
(35.35731 14.77747 11520.24)
(44.7308 6.608549 12270.34)
(57.25308 -4.677143 13147.66)
(74.45054 -20.9973 14192.18)
(98.53401 -45.97733 13762.98)
(123.9643 -88.15545 11545.57)
(68.78142 -183.0018 9062.203)
(9.748027 25.42647 811.0659)
(11.21563 25.54219 2532.217)
(13.22587 25.14352 4412.204)
(15.91697 24.07502 6481.232)
(19.48438 22.12851 8784.07)
(24.21193 18.99075 10289.42)
(30.08068 14.99497 10861.5)
(37.50288 9.80556 11514.99)
(47.07748 2.911691 12267.21)
(59.80745 -6.515488 13143.69)
(77.19242 -20.03357 12621.34)
(100.0201 -39.24307 10442.35)
(122.0834 -71.78304 8061.394)
(66.10337 -143.3745 5318.307)
(8.74716 16.36501 780.602)
(10.0118 16.47138 2431.941)
(11.74737 16.29736 4228.276)
(14.06802 15.73356 6197.768)
(17.12686 14.67685 8380.074)
(21.13611 12.97033 9788.785)
(26.02845 10.85105 10299.09)
(32.08408 8.171454 10877.72)
(39.71945 4.714904 11537.41)
(49.53968 0.153723 12294.98)
(62.54734 -6.047893 11731.99)
(79.30178 -14.18098 9626.086)
(101.037 -25.75324 7340.93)
(120.4363 -45.44425 4789.895)
(63.95171 -88.22925 1757.347)
(7.876053 5.550295 754.0095)
(8.97721 5.599133 2344.511)
(10.49208 5.56022 4068.284)
(12.51753 5.409095 5952.242)
(15.17978 5.104181 8032.088)
(18.64858 4.605076 9359.873)
(22.81999 3.99574 9819.77)
(27.89895 3.240406 10338.74)
(34.17207 2.287302 10926.37)
(42.06448 1.060237 11595.21)
(52.19513 -0.5556028 11013.96)
(64.8035 -2.541833 8989.061)
(81.03505 -5.152349 6801.417)
(101.9337 -8.880213 4388.146)
(119.5564 -15.26616 1598.283)
(35.52514 -1.938219 1657.458)
(69.52919 -10.52968 1525.976)
(36.49699 -12.28602 5194.412)
(60.9256 -8.724059 1414.474)
(70.18914 -9.505339 4716.077)
(37.50726 -27.32257 9063.656)
(48.81856 -3.383625 1319.102)
(61.59875 -3.928135 4324.585)
(71.14865 -11.17554 8060.846)
(38.81306 -40.47418 13184.33)
(39.3755 -0.4117039 1236.962)
(49.47472 -0.3587635 4008.676)
(62.97601 -2.784631 7327.059)
(73.48092 -12.77677 11513.16)
(41.20511 -41.99841 17519.85)
(32.15659 0.4795298 1166.261)
(39.98842 0.6295934 3749.141)
(50.88305 0.1818373 6767.632)
(65.5298 -2.208267 10404)
(78.3486 -10.04938 15095.47)
(45.46575 -29.3772 19902.96)
(26.64698 0.2369996 1105.355)
(32.69049 0.2972534 3531.492)
(41.25447 0.2907467 6321.524)
(53.21307 0.0586618 9591.515)
(69.63947 -0.8523151 13589.21)
(86.48659 -3.570328 17018.56)
(50.60584 -9.88099 20162.72)
(22.33929 -0.1653412 1052.364)
(27.10084 -0.218161 3346.068)
(33.77425 -0.2646846 5952.309)
(43.22585 -0.2581068 8955)
(56.56472 -0.06283777 12514.38)
(75.49123 0.7049934 15291.48)
(95.89164 3.072768 17195.59)
(56.54114 8.306525 20342.95)
(18.94796 0.2460325 1005.694)
(22.72771 0.1153445 3184.923)
(28.02332 -0.07084116 5638.474)
(35.4187 -0.3181825 8430.683)
(45.91798 -0.5601071 11679.53)
(60.94811 -0.5670003 14073.61)
(81.73284 0.5408226 15443.35)
(106.1243 4.986595 17350.39)
(62.94661 14.20068 20449.48)
(16.24175 2.820871 963.7848)
(19.28779 2.652473 3041.862)
(23.52443 2.304213 5363.819)
(29.41145 1.693598 7982.536)
(37.61518 0.702181 10989.39)
(49.30095 -0.7748195 13125.36)
(65.33931 -2.603082 14204.59)
(88.01058 -4.112921 15581.13)
(116.3049 -3.886532 17473.82)
(69.18701 -5.679412 20470.68)
(14.06085 9.179995 925.0859)
(16.55038 9.014652 2910.939)
(19.99224 8.495118 5115.583)
(24.72339 7.448096 7583.751)
(31.25085 5.624662 10390.37)
(40.32849 2.62759 12330.09)
(52.56151 -1.669114 13225.9)
(69.48408 -7.772059 14311.96)
(93.75819 -16.18679 15685.48)
(125.0236 -29.03353 17544.03)
(74.23409 -63.37694 18105.02)
(12.29275 19.48807 887.9545)
(14.35729 19.42496 2786.428)
(17.19499 18.77778 4881.93)
(21.05869 17.34514 7213.441)
(26.31376 14.7699 9843.424)
(33.51326 10.52358 11622.72)
(42.89636 4.561808 12385.65)
(55.53675 -3.89472 13285.49)
(73.07013 -16.23829 14369.72)
(98.30084 -34.84962 15726.95)
(130.5608 -67.3909 15579.48)
(75.72874 -145.7025 13564.04)
(10.86299 28.25429 851.3085)
(12.59617 28.30301 2664.598)
(14.97518 27.69723 4655.571)
(18.18245 26.16686 6858.663)
(22.4918 23.39044 9327.007)
(28.29469 18.83476 10967.14)
(35.68186 12.73153 11627.91)
(45.27861 4.385971 12392.41)
(58.15973 -7.290437 13289.57)
(75.97222 -24.32263 14362.95)
(101.3673 -50.49264 13956.2)
(130.5336 -94.80252 11752.06)
(73.67499 -198.4872 9323.365)
(9.690771 29.8918 816.3116)
(11.16305 30.01613 2549.019)
(13.18668 29.54732 4442.477)
(15.90148 28.26569 6527.788)
(19.50693 25.90122 8850.776)
(24.29608 22.06638 10371.17)
(30.25405 17.12812 10950.86)
(37.8075 10.64594 11613.89)
(47.58054 1.94294 12378.38)
(60.63124 -10.07026 13271.35)
(78.57233 -27.43429 12756.02)
(102.5467 -52.29404 10569.63)
(127.739 -94.57588 8182.5)
(70.18224 -190.3631 5438.499)
(8.704401 24.92588 784.3102)
(9.970136 25.05859 2443.76)
(11.71189 24.75817 4249.436)
(14.04566 23.86591 6230.064)
(17.12497 22.19813 8425.936)
(21.1668 19.50763 9844.458)
(26.10521 16.15412 10359.3)
(32.22708 11.89627 10943.41)
(39.95935 6.380336 11609.89)
(49.92574 -0.9318104 12376.09)
(63.16942 -10.91778 11814.69)
(80.31588 -24.10128 9700.18)
(102.8606 -42.93904 7404.706)
(124.4013 -75.04483 4839.977)
(66.74572 -146.0243 1783.856)
(7.851025 16.02555 755.8607)
(8.952176 16.13811 2350.383)
(10.46854 15.99031 4078.742)
(12.49872 15.51827 5968.106)
(15.16941 14.59718 8054.462)
(18.65091 13.10332 9386.851)
(22.83981 11.28071 9848.741)
(27.94344 9.023512 10370.08)
(34.25192 6.177183 10960.58)
(42.19591 2.514265 11632.95)
(52.40431 -2.3091 11051.7)
(65.13158 -8.256307 9021.971)
(81.56082 -16.09038 6828.494)
(102.8683 -27.28679 4407.652)
(121.5538 -46.44366 1606.737)
(7.100125 5.427419 730.9664)
(8.066738 5.476246 2268.721)
(9.401034 5.442821 3929.739)
(11.18694 5.308276 5740.237)
(13.53189 5.043683 7732.885)
(16.57637 4.601374 8992.354)
(20.20173 4.068313 9410.329)
(24.55471 3.419184 9880.408)
(29.84685 2.616504 10410.29)
(36.37454 1.606158 11009.55)
(44.57692 0.3083695 10421.68)
(54.4207 -1.217744 8473.775)
(66.69691 -3.099752 6378.304)
(82.51844 -5.581564 4083.281)
(102.8521 -9.137654 1471.524)
(34.84534 3.022061 1615.706)
(68.91438 -11.04684 1496.745)
(36.168 1.880558 5033.839)
(60.63561 -15.31422 1396.482)
(70.78796 -8.254476 4633.093)
(38.00147 -3.41899 8774.947)
(48.69207 -10.86172 1311.902)
(61.89249 -7.575525 4292.16)
(73.07061 -5.781305 7965.504)
(40.15745 -14.90877 12862.43)
(39.30601 -4.654121 1235.417)
(49.57768 -2.989853 4000.516)
(63.67397 -2.653406 7301.187)
(75.94968 -7.551252 11434.94)
(42.8449 -28.1678 17240.49)
(32.11895 -1.069244 1166.604)
(39.99607 -0.3526986 3749.218)
(51.06391 -0.09027921 6764.433)
(66.24063 -1.90871 10389.14)
(80.41232 -10.03263 15041.75)
(46.77756 -32.05098 19722.1)
(26.63206 0.1784975 1105.826)
(32.68086 0.4484659 3532.74)
(41.27501 0.6055383 6322.934)
(53.33509 0.2612643 9591.428)
(70.05377 -1.752123 13582.78)
(87.56629 -8.327434 16993.37)
(51.28666 -24.18382 20082.84)
(22.33929 0.1653414 1052.364)
(27.10084 0.2181611 3346.068)
(33.77425 0.2646847 5952.309)