/*--------------------------------*- C++ -*----------------------------------*\
| =========                 |                                                 |
| \\      /  F ield         | OpenFOAM: The Open Source CFD Toolbox           |
|  \\    /   O peration     | Version:  2306                                  |
|   \\  /    A nd           | Website:  www.openfoam.com                      |
|    \\/     M anipulation  |                                                 |
\*---------------------------------------------------------------------------*/
FoamFile
{
    version     2.0;
    format      ascii;
    arch        "LSB;label=32;scalar=64";
    class       volScalarField;
    location    "0.6/phiI";
    object      J;
}
// * * * * * * * * * * * * * * * * * * * * * * * * * * * * * * * * * * * * * //

dimensions      [0 -3 0 0 0 1 0];

internalField   nonuniform List<scalar> 
12000
(
-7.618961e+08
-7.68912e+08
-7.002466e+08
-7.676431e+08
-7.831319e+08
-7.047791e+08
-7.747701e+08
-6.491478e+08
-7.053137e+08
-7.827764e+08
-8.044334e+08
-7.13729e+08
-7.892128e+08
-6.526157e+08
-7.099212e+08
-7.90172e+08
-6.084738e+08
-6.537057e+08
-7.185292e+08
-8.07747e+08
-8.318487e+08
-7.264334e+08
-8.108373e+08
-6.593853e+08
-7.190212e+08
-8.0516e+08
-6.113278e+08
-6.572316e+08
-7.233111e+08
-8.155816e+08
-5.7477e+08
-6.126488e+08
-6.654554e+08
-7.402459e+08
-8.434565e+08
-8.615927e+08
-7.413643e+08
-8.386238e+08
-6.687649e+08
-7.319465e+08
-8.276015e+08
-6.168628e+08
-6.641165e+08
-7.327592e+08
-8.314635e+08
-5.772117e+08
-6.155503e+08
-6.691134e+08
-7.453088e+08
-8.519244e+08
-5.458372e+08
-5.786375e+08
-6.232956e+08
-6.846804e+08
-7.711745e+08
0
-8.854084e+08
-7.554472e+08
-8.686603e+08
-6.79306e+08
-7.471556e+08
-8.564157e+08
-6.244308e+08
-6.736657e+08
-7.46194e+08
-8.552567e+08
-5.819273e+08
-6.211796e+08
-6.762601e+08
-7.553174e+08
-8.690991e+08
-5.479767e+08
-5.811195e+08
-6.263045e+08
-6.885496e+08
-7.766384e+08
0
-5.204901e+08
-5.494449e+08
-5.884068e+08
-6.406496e+08
-7.119555e+08
0
0
-9.015803e+08
-7.650789e+08
-8.926366e+08
-6.884463e+08
-7.615322e+08
-8.874819e+08
-6.327242e+08
-6.844245e+08
-7.620343e+08
-8.858084e+08
-5.883248e+08
-6.28886e+08
-6.861885e+08
-7.695716e+08
-8.948567e+08
-5.520963e+08
-5.859149e+08
-6.321454e+08
-6.961142e+08
-7.874474e+08
0
-5.223972e+08
-5.516193e+08
-5.909793e+08
-6.438291e+08
-7.161241e+08
0
0
-4.97929e+08
-5.238728e+08
-5.584832e+08
-6.042778e+08
-6.651913e+08
0
0
0
-9.112644e+08
-7.707402e+08
-9.088611e+08
-6.93812e+08
-7.713727e+08
-9.122157e+08
-6.395536e+08
-6.938093e+08
-7.770548e+08
-9.186991e+08
-5.952321e+08
-6.373576e+08
-6.974128e+08
-7.86423e+08
-9.279609e+08
-5.576581e+08
-5.924292e+08
-6.401564e+08
-7.06645e+08
-8.028714e+08
0
-5.260612e+08
-5.55808e+08
-5.959528e+08
-6.500062e+08
-7.24281e+08
0
0
-4.996498e+08
-5.258107e+08
-5.607358e+08
-6.069938e+08
-6.686117e+08
0
0
0
-4.776357e+08
-5.011131e+08
-5.322868e+08
-5.731245e+08
-6.266613e+08
0
0
0
0
-9.157596e+08
-7.737778e+08
-9.185471e+08
-6.963113e+08
-7.771399e+08
-9.289014e+08
-6.43113e+08
-6.993606e+08
-7.873509e+08
-9.448315e+08
-6.00743e+08
-6.443914e+08
-7.072738e+08
-8.024651e+08
-9.635874e+08
-5.636078e+08
-5.994865e+08
-6.489999e+08
-7.185998e+08
-8.211644e+08
0
-5.309918e+08
-5.614703e+08
-6.027222e+08
-6.584983e+08
-7.35664e+08
0
0
-5.029494e+08
-5.295354e+08
-5.650779e+08
-6.12249e+08
-6.752628e+08
0
0
0
-4.792038e+08
-5.028614e+08
-5.342934e+08
-5.755006e+08
-6.29579e+08
0
0
0
0
-4.592159e+08
-4.806426e+08
-5.089836e+08
-5.458826e+08
-5.937255e+08
0
0
0
0
0
-9.157596e+08
-7.750983e+08
-9.23034e+08
-6.97294e+08
-7.802182e+08
-9.38836e+08
-6.443814e+08
-7.019647e+08
-7.933738e+08
-9.624157e+08
-6.033766e+08
-6.481106e+08
-7.131591e+08
-8.134828e+08
-9.918529e+08
-5.682607e+08
-6.051705e+08
-6.564142e+08
-7.291862e+08
-8.386573e+08
0
-5.362352e+08
-5.675487e+08
-6.100896e+08
-6.679197e+08
-7.486463e+08
0
0
-5.073796e+08
-5.34554e+08
-5.709593e+08
-6.194198e+08
-6.844315e+08
0
0
0
-4.822051e+08
-5.062149e+08
-5.381525e+08
-5.800848e+08
-6.3523e+08
0
0
0
0
-4.606557e+08
-4.822353e+08
-5.107929e+08
-5.479975e+08
-5.962748e+08
0
0
0
0
0
-4.423868e+08
-4.62063e+08
-4.880338e+08
-5.216729e+08
-5.649737e+08
0
0
0
0
0
1.001499e+09
-9.112644e+08
-7.750983e+08
-9.23034e+08
-6.976045e+08
-7.815501e+08
-9.434297e+08
-6.446085e+08
-7.029963e+08
-7.965762e+08
-9.728616e+08
-6.040853e+08
-6.494728e+08
-7.159475e+08
-8.199224e+08
-1.010835e+09
-5.703488e+08
-6.079413e+08
-6.603995e+08
-7.355652e+08
-8.506989e+08
0
-5.402835e+08
-5.723501e+08
-6.160901e+08
-6.759027e+08
-7.602386e+08
0
0
-5.12072e+08
-5.399096e+08
-5.773029e+08
-6.272666e+08
-6.946596e+08
0
0
0
-4.862282e+08
-5.107232e+08
-5.433628e+08
-5.863102e+08
-6.429634e+08
0
0
0
0
-4.634068e+08
-4.852851e+08
-5.142658e+08
-5.520685e+08
-6.011983e+08
0
0
0
0
0
-4.437172e+08
-4.635251e+08
-4.896814e+08
-5.235784e+08
-5.6724e+08
0
0
0
0
0
1.009307e+09
-4.269243e+08
-4.450889e+08
-4.690272e+08
-4.99927e+08
-5.39459e+08
0
0
0
0
0
9.122114e+08
9.567333e+08
-9.015803e+08
-7.737778e+08
-9.185471e+08
-6.976045e+08
-7.815501e+08
-9.434298e+08
-6.445586e+08
-7.033247e+08
-7.979565e+08
-9.776846e+08
-6.040039e+08
-6.497464e+08
-7.170666e+08
-8.233372e+08
-1.022092e+09
-5.707706e+08
-6.08732e+08
-6.61908e+08
-7.386236e+08
-8.577364e+08
0
-5.420193e+08
-5.745568e+08
-6.190819e+08
-6.802683e+08
-7.672913e+08
0
0
-5.156628e+08
-5.440867e+08
-5.823743e+08
-6.337363e+08
-7.034217e+08
0
0
0
-4.904771e+08
-5.155143e+08
-5.489495e+08
-5.930629e+08
-6.514765e+08
0
0
0
0
-4.6709e+08
-4.89378e+08
-5.189438e+08
-5.575791e+08
-6.079043e+08
0
0
0
0
0
-4.462552e+08
-4.663201e+08
-4.928381e+08
-5.27239e+08
-5.716071e+08
0
0
0
0
0
1.024953e+09
-4.281601e+08
-4.464397e+08
-4.705389e+08
-5.016607e+08
-5.414987e+08
0
0
0
0
0
9.171773e+08
9.639475e+08
-4.126549e+08
-4.294942e+08
-4.516695e+08
-4.802133e+08
-5.165705e+08
0
0
0
0
0
8.344007e+08
8.738111e+08
9.251217e+08
-8.854084e+08
-7.707402e+08
-9.088611e+08
-6.97294e+08
-7.802182e+08
-9.38836e+08
-6.445586e+08
-7.033247e+08
-7.979565e+08
-9.776846e+08
-6.038173e+08
-6.497149e+08
-7.174285e+08
-8.248049e+08
-1.027283e+09
-5.705551e+08
-6.086921e+08
-6.622507e+08
-7.398715e+08
-8.614625e+08
0
-5.422819e+08
-5.7505e+08
-6.199938e+08
-6.819794e+08
-7.707155e+08
0
0
-5.171497e+08
-5.45926e+08
-5.847693e+08
-6.37039e+08
-7.082954e+08
0
0
0
-4.937082e+08
-5.192182e+08
-5.533612e+08
-5.98533e+08
-6.585846e+08
0
0
0
0
-4.709715e+08
-4.937148e+08
-5.239391e+08
-5.63522e+08
-6.15224e+08
0
0
0
0
0
-4.496497e+08
-4.700661e+08
-4.97083e+08
-5.321829e+08
-5.775366e+08
0
0
0
0
0
1.048465e+09
-4.305141e+08
-4.490176e+08
-4.734305e+08
-5.049857e+08
-5.454214e+08
0
0
0
0
0
9.268678e+08
9.783909e+08
-4.138083e+08
-4.307487e+08
-4.530654e+08
-4.818029e+08
-5.184243e+08
0
0
0
0
0
8.381512e+08
8.784243e+08
9.319411e+08
-3.994332e+08
-4.151035e+08
-4.357279e+08
-4.622227e+08
-4.95845e+08
0
0
0
0
0
7.714192e+08
8.012104e+08
8.464753e+08
9.056206e+08
-8.615927e+08
-7.650789e+08
-8.926366e+08
-6.963113e+08
-7.771399e+08
-9.289014e+08
-6.446085e+08
-7.029963e+08
-7.965762e+08
-9.728616e+08
-6.038173e+08
-6.497149e+08
-7.174285e+08
-8.248049e+08
-1.027283e+09
-5.703168e+08
-6.085222e+08
-6.622455e+08
-7.402833e+08
-8.630611e+08
0
-5.420084e+08
-5.748709e+08
-6.200111e+08
-6.824155e+08
-7.72138e+08
0
0
-5.173153e+08
-5.462511e+08
-5.853656e+08
-6.381143e+08
-7.102718e+08
0
0
0
-4.950098e+08
-5.207963e+08
-5.553639e+08
-6.011909e+08
-6.62298e+08
0
0
0
0
-4.739092e+08
-4.970461e+08
-5.278495e+08
-5.682797e+08
-6.212346e+08
0
0
0
0
0
-4.532211e+08
-4.740266e+08
-5.016021e+08
-5.374926e+08
-5.839722e+08
0
0
0
0
0
1.078933e+09
-4.3366e+08
-4.524691e+08
-4.773137e+08
-5.094684e+08
-5.507353e+08
0
0
0
0
0
9.408093e+08
1.000075e+09
-4.160019e+08
-4.331391e+08
-4.557313e+08
-4.848464e+08
-5.219836e+08
0
0
0
0
0
8.453824e+08
8.874202e+08
9.455897e+08
-4.005145e+08
-4.162741e+08
-4.370237e+08
-4.636895e+08
-4.975429e+08
0
0
0
0
0
7.744724e+08
8.047108e+08
8.508484e+08
9.12221e+08
-3.871431e+08
-4.017702e+08
-4.210219e+08
-4.457105e+08
-4.769507e+08
0
0
0
0
0
7.189591e+08
7.422252e+08
7.774433e+08
8.293909e+08
8.971042e+08
-8.318487e+08
-7.554472e+08
-8.686603e+08
-6.93812e+08
-7.713727e+08
-9.122157e+08
-6.443814e+08
-7.019647e+08
-7.933738e+08
-9.624157e+08
-6.040039e+08
-6.497464e+08
-7.170666e+08
-8.233372e+08
-1.022092e+09
-5.703168e+08
-6.085222e+08
-6.622455e+08
-7.402833e+08
-8.630611e+08
0
-5.417542e+08
-5.746475e+08
-6.19863e+08
-6.824453e+08
-7.726177e+08
0
0
-5.170178e+08
-5.460096e+08
-5.852351e+08
-6.382056e+08
-7.10828e+08
0
0
0
-4.951129e+08
-5.210171e+08
-5.557786e+08
-6.019244e+08
-6.635832e+08
0
0
0
0
-4.750663e+08
-4.984288e+08
-5.295716e+08
-5.7051e+08
-6.242376e+08
0
0
0
0
0
-4.559142e+08
-4.770538e+08
-5.051172e+08
-5.417079e+08
-5.891981e+08
0
0
0
0
0
1.111523e+09
-4.369664e+08
-4.561119e+08
-4.814383e+08
-5.142683e+08
-5.564794e+08
0
0
0
0
0
9.576907e+08
1.028144e+09
-4.189323e+08
-4.363372e+08
-4.593075e+08
-4.889442e+08
-5.267968e+08
0
0
0
0
0
8.555755e+08
9.003551e+08
9.660782e+08
-4.02568e+08
-4.185013e+08
-4.394947e+08
-4.664934e+08
-5.007977e+08
0
0
0
0
0
7.803169e+08
8.114556e+08
8.593733e+08
9.254347e+08
-3.881604e+08
-4.028675e+08
-4.222305e+08
-4.470712e+08
-4.78516e+08
0
0
0
0
0
7.21544e+08
7.450857e+08
7.807709e+08
8.336243e+08
9.036377e+08
-3.756835e+08
-3.893771e+08
-4.074006e+08
-4.304871e+08
-4.596257e+08
0
0
0
0
0
6.73935e+08
6.929403e+08
7.212327e+08
7.624563e+08
8.216824e+08
-8.044334e+08
-7.413643e+08
-8.386238e+08
-6.884463e+08
-7.615322e+08
-8.874819e+08
-6.43113e+08
-6.993606e+08
-7.873509e+08
-9.448315e+08
-6.040853e+08
-6.494728e+08
-7.159475e+08
-8.199224e+08
-1.010835e+09
-5.705551e+08
-6.086921e+08
-6.622507e+08
-7.398715e+08
-8.614625e+08
0
-5.417542e+08
-5.746475e+08
-6.19863e+08
-6.824453e+08
-7.726177e+08
0
0
-5.167625e+08
-5.457685e+08
-5.850301e+08
-6.380847e+08
-7.109021e+08
0
0
0
-4.94808e+08
-5.207479e+08
-5.555792e+08
-6.018554e+08
-6.637669e+08
0
0
0
0
-4.751269e+08
-4.985811e+08
-5.298713e+08
-5.71043e+08
-6.251457e+08
0
0
0
0
0
-4.569553e+08
-4.782836e+08
-5.066282e+08
-5.4363e+08
-5.91726e+08
0
0
0
0
0
1.13559e+09
-4.394533e+08
-4.588856e+08
-4.846307e+08
-5.18055e+08
-5.611066e+08
0
0
0
0
0
9.740631e+08
1.058128e+09
-4.220093e+08
-4.397083e+08
-4.630991e+08
-4.933217e+08
-5.319843e+08
0
0
0
0
0
8.675027e+08
9.160075e+08
9.92605e+08
-4.053089e+08
-4.214794e+08
-4.428067e+08
-4.702645e+08
-5.051933e+08
0
0
0
0
0
7.88448e+08
8.209587e+08
8.716291e+08
9.452849e+08
-3.900886e+08
-4.049518e+08
-4.245317e+08
-4.496684e+08
-4.815118e+08
0
0
0
0
0
7.264686e+08
7.505579e+08
7.871804e+08
8.418766e+08
9.167277e+08
-3.766433e+08
-3.904091e+08
-4.08533e+08
-4.317554e+08
-4.610764e+08
0
0
0
0
0
6.761763e+08
6.953698e+08
7.239588e+08
7.656804e+08
8.258631e+08
-3.64973e+08
-3.77822e+08
-3.947432e+08
-4.163943e+08
-4.43667e+08
0
0
0
0
0
6.345038e+08
6.505263e+08
6.741726e+08
7.079177e+08
7.555623e+08
-7.831319e+08
-7.264334e+08
-8.108373e+08
-6.79306e+08
-7.471556e+08
-8.564157e+08
-6.395536e+08
-6.938093e+08
-7.770548e+08
-9.186991e+08
-6.033766e+08
-6.481106e+08
-7.131591e+08
-8.134828e+08
-9.918529e+08
-5.707706e+08
-6.08732e+08
-6.61908e+08
-7.386236e+08
-8.577364e+08
0
-5.420084e+08
-5.748709e+08
-6.200111e+08
-6.824155e+08
-7.72138e+08
0
0
-5.167625e+08
-5.457685e+08
-5.850301e+08
-6.380847e+08
-7.109021e+08
0
0
0
-4.945582e+08
-5.205043e+08
-5.553541e+08
-6.016729e+08
-6.63679e+08
0
0
0
0
-4.748229e+08
-4.983015e+08
-5.296391e+08
-5.708964e+08
-6.251523e+08
0
0
0
0
0
-4.569866e+08
-4.783885e+08
-5.068508e+08
-5.440336e+08
-5.924087e+08
0
0
0
0
0
1.150293e+09
-4.404002e+08
-4.599925e+08
-4.859758e+08
-5.197441e+08
-5.632899e+08
0
0
0
0
0
9.849197e+08
1.080173e+09
-4.243176e+08
-4.422683e+08
-4.660222e+08
-4.967582e+08
-5.361378e+08
0
0
0
0
0
8.784494e+08
9.311747e+08
1.020954e+09
-4.081839e+08
-4.246158e+08
-4.463136e+08
-4.742856e+08
-5.099196e+08
0
0
0
0
0
7.977484e+08
8.320728e+08
8.864603e+08
9.710255e+08
-3.92661e+08
-4.077369e+08
-4.276146e+08
-4.531584e+08
-4.855532e+08
0
0
0
0
0
7.332564e+08
7.581678e+08
7.962096e+08
8.537447e+08
9.364221e+08
-3.784596e+08
-3.923661e+08
-4.106857e+08
-4.341726e+08
-4.638488e+08
0
0
0
0
0
6.804322e+08
6.999955e+08
7.291717e+08
7.718898e+08
8.340159e+08
-3.65881e+08
-3.787955e+08
-3.958079e+08
-4.175818e+08
-4.450179e+08
0
0
0
0
0
6.36481e+08
6.526388e+08
6.764931e+08
7.105619e+08
7.587436e+08
-3.549397e+08
-3.670229e+08
-3.82945e+08
-4.033055e+08
-4.289053e+08
0
0
0
0
0
5.994244e+08
6.132901e+08
6.335999e+08
6.6222e+08
7.017256e+08
-7.68912e+08
-7.13729e+08
-7.892128e+08
-6.687649e+08
-7.319465e+08
-8.276015e+08
-6.327242e+08
-6.844245e+08
-7.620343e+08
-8.858084e+08
-6.00743e+08
-6.443914e+08
-7.072738e+08
-8.024651e+08
-9.635874e+08
-5.703488e+08
-6.079413e+08
-6.603995e+08
-7.355652e+08
-8.506989e+08
0
-5.422819e+08
-5.7505e+08
-6.199938e+08
-6.819794e+08
-7.707155e+08
0
0
-5.170178e+08
-5.460096e+08
-5.852351e+08
-6.382056e+08
-7.10828e+08
0
0
0
-4.945582e+08
-5.205043e+08
-5.553541e+08
-6.016729e+08
-6.63679e+08
0
0
0
0
-4.745815e+08
-4.98062e+08
-5.294095e+08
-5.706904e+08
-6.249963e+08
0
0
0
0
0
-4.566887e+08
-4.781073e+08
-5.066041e+08
-5.438477e+08
-5.923266e+08
0
0
0
0
0
1.158336e+09
-4.404107e+08
-4.600639e+08
-4.861439e+08
-5.200592e+08
-5.638246e+08
0
0
0
0
0
9.907631e+08
1.093582e+09
-4.25184e+08
-4.432751e+08
-4.672336e+08
-4.982636e+08
-5.380593e+08
0
0
0
0
0
8.851427e+08
9.411996e+08
1.041733e+09
-4.103356e+08
-4.269907e+08
-4.490098e+08
-4.774301e+08
-5.136859e+08
0
0
0
0
0
8.059651e+08
8.422654e+08
9.008314e+08
9.985979e+08
-3.95357e+08
-4.106663e+08
-4.308755e+08
-4.568749e+08
-4.898906e+08
0
0
0
0
0
7.408919e+08
7.668673e+08
8.067685e+08
8.681175e+08
9.620322e+08
-3.808815e+08
-3.949792e+08
-4.135673e+08
-4.37419e+08
-4.675857e+08
0
0
0
0
0
6.86257e+08
7.063686e+08
7.364196e+08
7.806387e+08
8.457494e+08
-3.675966e+08
-3.806386e+08
-3.978282e+08
-4.198416e+08
-4.47596e+08
0
0
0
0
0
6.402269e+08
6.566476e+08
6.809092e+08
7.156175e+08
7.64872e+08
-3.558012e+08
-3.679438e+08
-3.839489e+08
-4.044212e+08
-4.301691e+08
0
0
0
0
0
6.011911e+08
6.151582e+08
6.356214e+08
6.644734e+08
7.043345e+08
-3.455251e+08
-3.569072e+08
-3.719213e+08
-3.911109e+08
-4.152055e+08
0
0
0
0
0
5.678621e+08
5.800896e+08
5.979201e+08
6.227871e+08
6.566243e+08
-7.618961e+08
-7.047791e+08
-7.747701e+08
-6.593853e+08
-7.190212e+08
-8.0516e+08
-6.244308e+08
-6.736657e+08
-7.46194e+08
-8.552567e+08
-5.952321e+08
-6.373576e+08
-6.974128e+08
-7.86423e+08
-9.279609e+08
-5.682607e+08
-6.051705e+08
-6.564142e+08
-7.291862e+08
-8.386573e+08
0
-5.420193e+08
-5.745568e+08
-6.190819e+08
-6.802683e+08
-7.672913e+08
0
0
-5.173153e+08
-5.462511e+08
-5.853656e+08
-6.381143e+08
-7.102718e+08
0
0
0
-4.94808e+08
-5.207479e+08
-5.555792e+08
-6.018554e+08
-6.637669e+08
0
0
0
0
-4.745815e+08
-4.98062e+08
-5.294095e+08
-5.706904e+08
-6.249963e+08
0
0
0
0
0
-4.56457e+08
-4.778751e+08
-5.063772e+08
-5.436348e+08
-5.92143e+08
0
0
0
0
0
1.161843e+09
-4.401207e+08
-4.597865e+08
-4.858923e+08
-5.198537e+08
-5.63695e+08
0
0
0
0
0
9.935875e+08
1.100891e+09
-4.251783e+08
-4.433222e+08
-4.673623e+08
-4.985149e+08
-5.384909e+08
0
0
0
0
0
8.882941e+08
9.465776e+08
1.054335e+09
-4.111328e+08
-4.279118e+08
-4.501119e+08
-4.787867e+08
-5.154e+08
0
0
0
0
0
8.106859e+08
8.484801e+08
9.103015e+08
1.018771e+09
-3.973709e+08
-4.128791e+08
-4.333752e+08
-4.597729e+08
-4.933337e+08
0
0
0
0
0
7.474463e+08
7.74546e+08
8.164486e+08
8.820572e+08
9.895734e+08
-3.834181e+08
-3.977255e+08
-4.166116e+08
-4.408723e+08
-4.715908e+08
0
0
0
0
0
6.927249e+08
7.135331e+08
7.447034e+08
7.908735e+08
8.599789e+08
-3.698833e+08
-3.830983e+08
-4.005308e+08
-4.228742e+08
-4.510689e+08
0
0
0
0
0
6.453253e+08
6.621316e+08
6.869921e+08
7.22647e+08
7.7351e+08
-3.574262e+08
-3.696843e+08
-3.858508e+08
-4.065408e+08
-4.325773e+08
0
0
0
0
0
6.045333e+08
6.186955e+08
6.39456e+08
6.68761e+08
7.093231e+08
-3.463446e+08
-3.577807e+08
-3.728705e+08
-3.921623e+08
-4.163919e+08
0
0
0
0
0
5.694565e+08
5.817626e+08
5.997109e+08
6.247522e+08
6.58848e+08
-3.366766e+08
-3.474157e+08
-3.615977e+08
-3.79722e+08
-4.024506e+08
0
0
0
0
0
5.392086e+08
5.501562e+08
5.660573e+08
5.880785e+08
6.177033e+08
-7.002466e+08
-7.676431e+08
-6.526157e+08
-7.099212e+08
-7.90172e+08
-6.168628e+08
-6.641165e+08
-7.327592e+08
-8.314635e+08
-5.883248e+08
-6.28886e+08
-6.861885e+08
-7.695716e+08
-8.948567e+08
-5.636078e+08
-5.994865e+08
-6.489999e+08
-7.185998e+08
-8.211644e+08
0
-5.402835e+08
-5.723501e+08
-6.160901e+08
-6.759027e+08
-7.602386e+08
0
0
-5.171497e+08
-5.45926e+08
-5.847693e+08
-6.37039e+08
-7.082954e+08
0
0
0
-4.951129e+08
-5.210171e+08
-5.557786e+08
-6.019244e+08
-6.635832e+08
0
0
0
0
-4.748229e+08
-4.983015e+08
-5.296391e+08
-5.708964e+08
-6.251523e+08
0
0
0
0
0
-4.56457e+08
-4.778751e+08
-5.063772e+08
-5.436348e+08
-5.92143e+08
0
0
0
0
0
1.161843e+09
-4.398987e+08
-4.595632e+08
-4.856715e+08
-5.196417e+08
-5.635016e+08
0
0
0
0
0
9.947035e+08
1.104069e+09
-4.248969e+08
-4.430509e+08
-4.671119e+08
-4.983005e+08
-5.383354e+08
0
0
0
0
0
8.895463e+08
9.491692e+08
1.061192e+09
-4.111147e+08
-4.279397e+08
-4.502113e+08
-4.789909e+08
-5.157561e+08
0
0
0
0
0
8.126437e+08
8.51397e+08
9.153694e+08
1.030996e+09
-3.981082e+08
-4.137267e+08
-4.343838e+08
-4.610076e+08
-4.948795e+08
0
0
0
0
0
7.510248e+08
7.78945e+08
8.223323e+08
8.912185e+08
1.009717e+09
-3.853096e+08
-3.997956e+08
-4.189392e+08
-4.43557e+08
-4.747612e+08
0
0
0
0
0
6.981508e+08
7.196761e+08
7.520103e+08
8.002585e+08
8.738033e+08
-3.72277e+08
-3.856815e+08
-4.033834e+08
-4.260958e+08
-4.54787e+08
0
0
0
0
0
6.50928e+08
6.682167e+08
6.938279e+08
7.306822e+08
7.836232e+08
-3.595916e+08
-3.720062e+08
-3.883938e+08
-4.093832e+08
-4.358187e+08
0
0
0
0
0
6.090617e+08
6.235075e+08
6.447004e+08
6.746666e+08
7.162611e+08
-3.478879e+08
-3.59429e+08
-3.74666e+08
-3.941565e+08
-4.186489e+08
0
0
0
0
0
5.724698e+08
5.849257e+08
6.031006e+08
6.284793e+08
6.630795e+08
-3.37458e+08
-3.482465e+08
-3.624977e+08
-3.807156e+08
-4.035677e+08
0
0
0
0
0
5.40659e+08
5.516692e+08
5.676637e+08
5.898213e+08
6.196432e+08
-3.283472e+08
-3.384953e+08
-3.519132e+08
-3.690607e+08
-3.90546e+08
0
0
0
0
0
5.130081e+08
5.229295e+08
5.372877e+08
5.570555e+08
5.834383e+08
-6.491478e+08
-7.053137e+08
-7.827764e+08
-6.113278e+08
-6.572316e+08
-7.233111e+08
-8.155816e+08
-5.819273e+08
-6.211796e+08
-6.762601e+08
-7.553174e+08
-8.690991e+08
-5.576581e+08
-5.924292e+08
-6.401564e+08
-7.06645e+08
-8.028714e+08
0
-5.362352e+08
-5.675487e+08
-6.100896e+08
-6.679197e+08
-7.486463e+08
0
0
-5.156628e+08
-5.440867e+08
-5.823743e+08
-6.337363e+08
-7.034217e+08
0
0
0
-4.950098e+08
-5.207963e+08
-5.553639e+08
-6.011909e+08
-6.62298e+08
0
0
0
0
-4.751269e+08
-4.985811e+08
-5.298713e+08
-5.71043e+08
-6.251457e+08
0
0
0
0
0
-4.566887e+08
-4.781073e+08
-5.066041e+08
-5.438477e+08
-5.923266e+08
0
0
0
0
0
1.158336e+09
-4.398987e+08
-4.595632e+08
-4.856715e+08
-5.196417e+08
-5.635016e+08
0
0
0
0
0
9.947035e+08
1.104069e+09
-4.246843e+08
-4.428366e+08
-4.668989e+08
-4.98093e+08
-5.381407e+08
0
0
0
0
0
8.899401e+08
9.501908e+08
1.06417e+09
-4.108422e+08
-4.276755e+08
-4.499648e+08
-4.787743e+08
-5.155867e+08
0
0
0
0
0
8.132368e+08
8.525518e+08
9.178079e+08
1.037648e+09
-3.980807e+08
-4.137396e+08
-4.344598e+08
-4.611761e+08
-4.951788e+08
0
0
0
0
0
7.523346e+08
7.807622e+08
8.250854e+08
8.961142e+08
1.021937e+09
-3.859949e+08
-4.005796e+08
-4.198675e+08
-4.446874e+08
-4.761685e+08
0
0
0
0
0
7.009862e+08
7.23019e+08
7.561815e+08
8.059434e+08
8.828681e+08
-3.740599e+08
-3.87625e+08
-4.055596e+08
-4.28594e+08
-4.577216e+08
0
0
0
0
0
6.555403e+08
6.733145e+08
6.996834e+08
7.377677e+08
7.929022e+08
-3.618581e+08
-3.744432e+08
-3.910756e+08
-4.123999e+08
-4.392843e+08
0
0
0
0
0
6.139955e+08
6.287912e+08
6.505169e+08
6.81303e+08
7.241953e+08
-3.499444e+08
-3.616273e+08
-3.770655e+08
-3.968294e+08
-4.216846e+08
0
0
0
0
0
5.765375e+08
5.892093e+08
6.077103e+08
6.335762e+08
6.689086e+08
-3.389274e+08
-3.498116e+08
-3.641974e+08
-3.825971e+08
-4.056896e+08
0
0
0
0
0
5.433985e+08
5.545268e+08
5.706997e+08
5.931192e+08
6.233226e+08
-3.290943e+08
-3.392874e+08
-3.527689e+08
-3.700022e+08
-3.916008e+08
0
0
0
0
0
5.143362e+08
5.243084e+08
5.387425e+08
5.586204e+08
5.851594e+08
-3.205046e+08
-3.300987e+08
-3.428132e+08
-3.590633e+08
-3.794087e+08
0
0
0
0
0
4.889078e+08
4.979892e+08
5.110833e+08
5.290201e+08
5.528034e+08
-6.084738e+08
-6.537057e+08
-7.185292e+08
-8.07747e+08
-5.772117e+08
-6.155503e+08
-6.691134e+08
-7.453088e+08
-8.519244e+08
-5.520963e+08
-5.859149e+08
-6.321454e+08
-6.961142e+08
-7.874474e+08
0
-5.309918e+08
-5.614703e+08
-6.027222e+08
-6.584983e+08
-7.35664e+08
0
0
-5.12072e+08
-5.399096e+08
-5.773029e+08
-6.272666e+08
-6.946596e+08
0
0
0
-4.937082e+08
-5.192182e+08
-5.533612e+08
-5.98533e+08
-6.585846e+08
0
0
0
0
-4.750663e+08
-4.984288e+08
-5.295716e+08
-5.7051e+08
-6.242376e+08
0
0
0
0
0
-4.569866e+08
-4.783885e+08
-5.068508e+08
-5.440336e+08
-5.924087e+08
0
0
0
0
0
1.150293e+09
-4.401207e+08
-4.597865e+08
-4.858923e+08
-5.198537e+08
-5.63695e+08
0
0
0
0
0
9.935875e+08
1.100891e+09
-4.246843e+08
-4.428366e+08
-4.668989e+08
-4.98093e+08
-5.381407e+08
0
0
0
0
0
8.899401e+08
9.501908e+08
1.06417e+09
-4.106388e+08
-4.2747e+08
-4.497599e+08
-4.785735e+08
-5.153948e+08
0
0
0
0
0
8.13339e+08
8.529133e+08
9.187682e+08
1.040538e+09
-3.978173e+08
-4.13483e+08
-4.342183e+08
-4.609604e+08
-4.950031e+08
0
0
0
0
0
7.525924e+08
7.813084e+08
8.261722e+08
8.984701e+08
1.0286e+09
-3.859603e+08
-4.005807e+08
-4.199248e+08
-4.448268e+08
-4.764239e+08
0
0
0
0
0
7.018994e+08
7.242355e+08
7.578967e+08
8.085961e+08
8.8771e+08
-3.747012e+08
-3.883537e+08
-4.064184e+08
-4.296345e+08
-4.590103e+08
0
0
0
0
0
6.578598e+08
6.759683e+08
7.028569e+08
7.417959e+08
7.985027e+08
-3.635448e+08
-3.762745e+08
-3.931177e+08
-4.147341e+08
-4.420128e+08
0
0
0
0
0
6.179935e+08
6.331338e+08
6.553835e+08
6.869837e+08
7.311912e+08
-3.520965e+08
-3.639342e+08
-3.795945e+08
-3.996638e+08
-4.249272e+08
0
0
0
0
0
5.809376e+08
5.938722e+08
6.12769e+08
6.392281e+08
6.754607e+08
-3.408849e+08
-3.518989e+08
-3.664683e+08
-3.851177e+08
-4.08542e+08
0
0
0
0
0
5.470854e+08
5.583825e+08
5.748099e+08
5.976037e+08
6.283547e+08
-3.30497e+08
-3.407773e+08
-3.543823e+08
-3.717824e+08
-3.936013e+08
0
0
0
0
0
5.168442e+08
5.269115e+08
5.414896e+08
5.615772e+08
5.884163e+08
-3.212214e+08
-3.308559e+08
-3.436287e+08
-3.599579e+08
-3.804075e+08
0
0
0
0
0
4.901307e+08
4.99254e+08
5.12411e+08
5.304386e+08
5.543493e+08
-3.131131e+08
-3.221931e+08
-3.342492e+08
-3.496726e+08
-3.689707e+08
0
0
0
0
0
4.666269e+08
4.750097e+08
4.870482e+08
5.034632e+08
5.2511e+08
-5.7477e+08
-6.126488e+08
-6.654554e+08
-7.402459e+08
-8.434565e+08
-5.479767e+08
-5.811195e+08
-6.263045e+08
-6.885496e+08
-7.766384e+08
0
-5.260612e+08
-5.55808e+08
-5.959528e+08
-6.500062e+08
-7.24281e+08
0
0
-5.073796e+08
-5.34554e+08
-5.709593e+08
-6.194198e+08
-6.844315e+08
0
0
0
-4.904771e+08
-5.155143e+08
-5.489495e+08
-5.930629e+08
-6.514765e+08
0
0
0
0
-4.739092e+08
-4.970461e+08
-5.278495e+08
-5.682797e+08
-6.212346e+08
0
0
0
0
0
-4.569553e+08
-4.782836e+08
-5.066282e+08
-5.4363e+08
-5.91726e+08
0
0
0
0
0
1.13559e+09
-4.404107e+08
-4.600639e+08
-4.861439e+08
-5.200592e+08
-5.638246e+08
0
0
0
0
0
9.907631e+08
1.093582e+09
-4.248969e+08
-4.430509e+08
-4.671119e+08
-4.983005e+08
-5.383354e+08
0
0
0
0
0
8.895463e+08
9.491692e+08
1.061192e+09
-4.106388e+08
-4.2747e+08
-4.497599e+08
-4.785735e+08
-5.153948e+08
0
0
0
0
0
8.13339e+08
8.529133e+08
9.187682e+08
1.040538e+09
-3.976224e+08
-4.13286e+08
-4.340215e+08
-4.607668e+08
-4.948165e+08
0
0
0
0
0
7.525538e+08
7.814003e+08
8.265114e+08
8.993988e+08
1.031502e+09
-3.857063e+08
-4.003321e+08
-4.196893e+08
-4.446138e+08
-4.762458e+08
0
0
0
0
0
7.019664e+08
7.244696e+08
7.584082e+08
8.096414e+08
8.900444e+08
-3.746626e+08
-3.883458e+08
-4.064608e+08
-4.297505e+08
-4.592297e+08
0
0
0
0
0
6.585135e+08
6.768155e+08
7.040038e+08
7.434443e+08
8.011091e+08
-3.641462e+08
-3.769561e+08
-3.939159e+08
-4.156969e+08
-4.431995e+08
0
0
0
0
0
6.199366e+08
6.35308e+08
6.579052e+08
6.900478e+08
7.3515e+08
-3.536955e+08
-3.65666e+08
-3.815176e+08
-4.018527e+08
-4.274744e+08
0
0
0
0
0
5.84456e+08
5.976438e+08
6.169206e+08
6.439522e+08
6.810662e+08
-3.429324e+08
-3.540888e+08
-3.688612e+08
-3.877889e+08
-4.115863e+08
0
0
0
0
0
5.510493e+08
5.625493e+08
5.792811e+08
6.025238e+08
6.339355e+08
-3.323653e+08
-3.427638e+08
-3.565376e+08
-3.741666e+08
-3.962893e+08
0
0
0
0
0
5.202108e+08
5.304127e+08
5.451946e+08
5.655795e+08
5.928454e+08
-3.225642e+08
-3.322779e+08
-3.45164e+08
-3.616468e+08
-3.82299e+08
0
0
0
0
0
4.924402e+08
5.016413e+08
5.149169e+08
5.331164e+08
5.572705e+08
-3.138009e+08
-3.229194e+08
-3.350285e+08
-3.505247e+08
-3.699191e+08
0
0
0
0
0
4.677582e+08
4.761762e+08
4.882677e+08
5.047589e+08
5.26512e+08
-3.061353e+08
-3.147426e+08
-3.261873e+08
-3.40838e+08
-3.591712e+08
0
0
0
0
0
4.459435e+08
4.537313e+08
4.648754e+08
4.800032e+08
4.998567e+08
-5.458372e+08
-5.786375e+08
-6.232956e+08
-6.846804e+08
-7.711745e+08
0
-5.223972e+08
-5.516193e+08
-5.909793e+08
-6.438291e+08
-7.161241e+08
0
0
-5.029494e+08
-5.295354e+08
-5.650779e+08
-6.12249e+08
-6.752628e+08
0
0
0
-4.862282e+08
-5.107232e+08
-5.433628e+08
-5.863102e+08
-6.429634e+08
0
0
0
0
-4.709715e+08
-4.937148e+08
-5.239391e+08
-5.63522e+08
-6.15224e+08
0
0
0
0
0
-4.559142e+08
-4.770538e+08
-5.051172e+08
-5.417079e+08
-5.891981e+08
0
0
0
0
0
1.111523e+09
-4.404002e+08
-4.599925e+08
-4.859758e+08
-5.197441e+08
-5.632899e+08
0
0
0
0
0
9.849197e+08
1.080173e+09
-4.251783e+08
-4.433222e+08
-4.673623e+08
-4.985149e+08
-5.384909e+08
0
0
0
0
0
8.882941e+08
9.465776e+08
1.054335e+09
-4.108422e+08
-4.276755e+08
-4.499648e+08
-4.787743e+08
-5.155867e+08
0
0
0
0
0
8.132368e+08
8.525518e+08
9.178079e+08
1.037648e+09
-3.976224e+08
-4.13286e+08
-4.340215e+08
-4.607668e+08
-4.948165e+08
0
0
0
0
0
7.525538e+08
7.814003e+08
8.265114e+08
8.993988e+08
1.031502e+09
-3.855199e+08
-4.001432e+08
-4.195003e+08
-4.444274e+08
-4.760652e+08
0
0
0
0
0
7.018527e+08
7.244298e+08
7.584919e+08
8.099673e+08
8.909671e+08
-3.744181e+08
-3.881056e+08
-4.062317e+08
-4.295414e+08
-4.590513e+08
0
0
0
0
0
6.584652e+08
6.768708e+08
7.042189e+08
7.439319e+08
8.021354e+08
-3.641033e+08
-3.769425e+08
-3.939465e+08
-4.157938e+08
-4.433893e+08
0
0
0
0
0
6.204119e+08
6.359129e+08
6.58702e+08
6.911468e+08
7.367615e+08
-3.542609e+08
-3.663053e+08
-3.822642e+08
-4.027476e+08
-4.285726e+08
0
0
0
0
0
5.861147e+08
5.994676e+08
6.189884e+08
6.463871e+08
6.840735e+08
-3.444522e+08
-3.557301e+08
-3.706789e+08
-3.898489e+08
-4.139731e+08
0
0
0
0
0
5.54183e+08
5.658744e+08
5.828916e+08
6.065567e+08
6.385963e+08
-3.343194e+08
-3.448467e+08
-3.588082e+08
-3.766925e+08
-3.991561e+08
0
0
0
0
0
5.238116e+08
5.341734e+08
5.491959e+08
5.699321e+08
5.977047e+08
-3.243516e+08
-3.341734e+08
-3.472145e+08
-3.639085e+08
-3.848397e+08
0
0
0
0
0
4.955332e+08
5.048441e+08
5.18286e+08
5.367276e+08
5.612249e+08
-3.150869e+08
-3.242805e+08
-3.364933e+08
-3.521311e+08
-3.717123e+08
0
0
0
0
0
4.698949e+08
4.783781e+08
4.905688e+08
5.072037e+08
5.291586e+08
-3.067962e+08
-3.154393e+08
-3.269345e+08
-3.416518e+08
-3.600739e+08
0
0
0
0
0
4.469936e+08
4.54812e+08
4.660015e+08
4.811942e+08
5.011378e+08
-2.995324e+08
-3.077092e+08
-3.185906e+08
-3.325237e+08
-3.499564e+08
0
0
0
0
0
4.26673e+08
4.339491e+08
4.443201e+08
4.583444e+08
4.766678e+08
-5.204901e+08
-5.494449e+08
-5.884068e+08
-6.406496e+08
-7.119555e+08
0
0
-4.996498e+08
-5.258107e+08
-5.607358e+08
-6.069938e+08
-6.686117e+08
0
0
0
-4.822051e+08
-5.062149e+08
-5.381525e+08
-5.800848e+08
-6.3523e+08
0
0
0
0
-4.6709e+08
-4.89378e+08
-5.189438e+08
-5.575791e+08
-6.079043e+08
0
0
0
0
0
-4.532211e+08
-4.740266e+08
-5.016021e+08
-5.374926e+08
-5.839722e+08
0
0
0
0
0
1.078933e+09
-4.394533e+08
-4.588856e+08
-4.846307e+08
-5.18055e+08
-5.611066e+08
0
0
0
0
0
9.740631e+08
1.058128e+09
-4.25184e+08
-4.432751e+08
-4.672336e+08
-4.982636e+08
-5.380593e+08
0
0
0
0
0
8.851427e+08
9.411996e+08
1.041733e+09
-4.111147e+08
-4.279397e+08
-4.502113e+08
-4.789909e+08
-5.157561e+08
0
0
0
0
0
8.126437e+08
8.51397e+08
9.153694e+08
1.030996e+09
-3.978173e+08
-4.13483e+08
-4.342183e+08
-4.609604e+08
-4.950031e+08
0
0
0
0
0
7.525924e+08
7.813084e+08
8.261722e+08
8.984701e+08
1.0286e+09
-3.855199e+08
-4.001432e+08
-4.195003e+08
-4.444274e+08
-4.760652e+08
0
0
0
0
0
7.018527e+08
7.244298e+08
7.584919e+08
8.099673e+08
8.909671e+08
-3.742396e+08
-3.879248e+08
-4.060503e+08
-4.293621e+08
-4.58877e+08
0
0
0
0
0
6.583096e+08
6.767601e+08
7.041773e+08
7.440097e+08
8.024556e+08
-3.638672e+08
-3.76711e+08
-3.937245e+08
-4.155893e+08
-4.432123e+08
0
0
0
0
0
6.202914e+08
6.358595e+08
6.587469e+08
6.913473e+08
7.372343e+08
-3.542148e+08
-3.662858e+08
-3.822866e+08
-4.028291e+08
-4.287381e+08
0
0
0
0
0
5.864634e+08
5.999055e+08
6.195552e+08
6.471479e+08
6.85143e+08
-3.449864e+08
-3.56331e+08
-3.71379e+08
-3.906859e+08
-4.149939e+08
0
0
0
0
0
5.556204e+08
5.674332e+08
5.846275e+08
6.085534e+08
6.409841e+08
-3.357691e+08
-3.464061e+08
-3.6053e+08
-3.786382e+08
-4.014007e+08
0
0
0
0
0
5.266306e+08
5.371399e+08
5.52383e+08
5.734418e+08
6.016836e+08
-3.262199e+08
-3.36161e+08
-3.493732e+08
-3.663038e+08
-3.875484e+08
0
0
0
0
0
4.988261e+08
5.082661e+08
5.219021e+08
5.40626e+08
5.655251e+08
-3.167982e+08
-3.260937e+08
-3.384492e+08
-3.542815e+08
-3.741207e+08
0
0
0
0
0
4.727507e+08
4.813254e+08
4.936547e+08
5.104903e+08
5.327278e+08
-3.080299e+08
-3.167426e+08
-3.283361e+08
-3.431836e+08
-3.617783e+08
0
0
0
0
0
4.489781e+08
4.568524e+08
4.681265e+08
4.834412e+08
5.035551e+08
-3.001688e+08
-3.083786e+08
-3.193071e+08
-3.333036e+08
-3.508179e+08
0
0
0
0
0
4.276515e+08
4.349537e+08
4.453646e+08
4.594451e+08
4.778458e+08
-2.932853e+08
-3.01054e+08
-3.114203e+08
-3.246913e+08
-3.412881e+08
0
0
0
0
0
4.086661e+08
4.154923e+08
4.251891e+08
4.382509e+08
4.552522e+08
-4.97929e+08
-5.238728e+08
-5.584832e+08
-6.042778e+08
-6.651913e+08
0
0
0
-4.792038e+08
-5.028614e+08
-5.342934e+08
-5.755006e+08
-6.29579e+08
0
0
0
0
-4.634068e+08
-4.852851e+08
-5.142658e+08
-5.520685e+08
-6.011983e+08
0
0
0