/*--------------------------------*- C++ -*----------------------------------*\
| =========                 |                                                 |
| \\      /  F ield         | OpenFOAM: The Open Source CFD Toolbox           |
|  \\    /   O peration     | Version:  2306                                  |
|   \\  /    A nd           | Website:  www.openfoam.com                      |
|    \\/     M anipulation  |                                                 |
\*---------------------------------------------------------------------------*/
FoamFile
{
    version     2.0;
    format      ascii;
    arch        "LSB;label=32;scalar=64";
    class       volScalarField;
    location    "0.6/phiI";
    object      phi;
}
// * * * * * * * * * * * * * * * * * * * * * * * * * * * * * * * * * * * * * //

dimensions      [1 2 -3 0 0 -1 0];

internalField   nonuniform List<scalar> 
12000
(
1.602837
1.602846
1.598326
1.603676
1.60287
1.598286
1.603693
1.594002
1.599097
1.605388
1.602886
1.598224
1.603732
1.593938
1.599062
1.605419
1.590522
1.594715
1.600669
1.607989
1.602845
1.598149
1.60377
1.59383
1.599009
1.605489
1.590448
1.594655
1.600643
1.608043
1.587729
1.59119
1.596168
1.603055
1.611507
1.602663
1.598077
1.603757
1.593697
1.598948
1.605571
1.590317
1.594555
1.600609
1.608157
1.587647
1.591118
1.596115
1.603044
1.61159
1.585457
1.588358
1.592547
1.598373
1.60628
1.615979
1.602316
1.598009
1.603606
1.593574
1.598891
1.605615
1.590151
1.594431
1.600574
1.608306
1.587503
1.590993
1.596029
1.603038
1.611766
1.585373
1.588279
1.592481
1.598331
1.606289
1.616102
1.583574
1.586053
1.589636
1.594607
1.601351
1.610378
1.620507
1.601881
1.597926
1.603284
1.593493
1.598837
1.605525
1.589992
1.594319
1.600548
1.608437
1.587317
1.590835
1.595925
1.603043
1.612007
1.585221
1.58814
1.592368
1.598266
1.606321
1.616356
1.583488
1.585971
1.589563
1.59455
1.601324
1.610411
1.620669
1.581991
1.584141
1.587264
1.591574
1.597387
1.605132
1.614525
1.625091
1.6015
1.597812
1.602866
1.593458
1.598764
1.605251
1.589885
1.594248
1.600524
1.60844
1.587132
1.590685
1.595834
1.603065
1.612256
1.585023
1.58796
1.592226
1.598191
1.606381
1.616716
1.583333
1.585824
1.589433
1.594453
1.601288
1.610493
1.621002
1.581905
1.584058
1.587186
1.591508
1.597342
1.605124
1.614583
1.625292
1.580642
1.582532
1.585292
1.589098
1.59419
1.600914
1.608956
1.618723
1.629732
1.601281
1.597702
1.602494
1.593432
1.598657
1.604865
1.589848
1.594218
1.600471
1.608238
1.587001
1.590585
1.595782
1.603086
1.612385
1.584822
1.587783
1.592093
1.598135
1.606467
1.617117
1.583128
1.585632
1.589267
1.594335
1.601254
1.610623
1.621479
1.581748
1.583906
1.587047
1.591393
1.597269
1.605125
1.614715
1.625703
1.580557
1.582449
1.585212
1.589027
1.594134
1.600885
1.608967
1.618806
1.629971
1.579479
1.58116
1.58363
1.587035
1.591572
1.597506
1.604479
1.612824
1.622971
1.63443
1.601281
1.597635
1.602279
1.593409
1.59855
1.604511
1.58984
1.594195
1.600375
1.6079
1.586949
1.590551
1.595764
1.603063
1.612282
1.584673
1.587657
1.592007
1.598112
1.60655
1.617409
1.582917
1.585437
1.589103
1.594228
1.601243
1.610794
1.622031
1.581541
1.583706
1.586866
1.591247
1.597184
1.605143
1.614915
1.626297
1.5804
1.582295
1.585068
1.588901
1.594039
1.600843
1.609005
1.618986
1.63046
1.579395
1.581077
1.58355
1.586961
1.59151
1.597464
1.604465
1.612854
1.623079
1.634707
1.578469
1.579977
1.58221
1.585291
1.589385
1.594707
1.600856
1.608082
1.616736
1.62727
1.639183
1.6015
1.597635
1.602279
1.593395
1.598483
1.604306
1.589841
1.594173
1.600274
1.607575
1.586939
1.590545
1.595747
1.602985
1.612009
1.584607
1.587607
1.591981
1.598112
1.60657
1.617433
1.582756
1.585292
1.588989
1.594165
1.601261
1.610956
1.622484
1.581325
1.583501
1.586684
1.591106
1.597113
1.605191
1.615169
1.626999
1.580192
1.582092
1.584879
1.588737
1.59392
1.600799
1.609075
1.619256
1.63117
1.57924
1.580923
1.583403
1.586828
1.591401
1.597395
1.604454
1.612929
1.623308
1.635273
1.578386
1.579895
1.582129
1.585216
1.589319
1.594657
1.600827
1.608084
1.616786
1.627402
1.639498
1.577583
1.578947
1.580983
1.583798
1.587531
1.592362
1.597872
1.604239
1.611724
1.620693
1.631619
1.642923
1.601881
1.597702
1.602494
1.593395
1.598483
1.604306
1.589842
1.594159
1.60021
1.607382
1.586943
1.590546
1.595727
1.602893
1.611722
1.58459
1.587599
1.591978
1.598103
1.606515
1.617244
1.582679
1.585228
1.588946
1.594151
1.601285
1.61103
1.622635
1.581156
1.583343
1.586549
1.59101
1.59708
1.605262
1.61541
1.627613
1.579974
1.581881
1.584684
1.588574
1.593809
1.600775
1.609182
1.619592
1.632021
1.579033
1.580719
1.583209
1.586654
1.591262
1.597312
1.604451
1.61305
1.623646
1.636098
1.578233
1.579742
1.581982
1.58508
1.589202
1.594571
1.600784
1.608102
1.616897
1.627679
1.640141
1.577503
1.578866
1.580904
1.583723
1.587463
1.592307
1.597834
1.604224
1.611742
1.620761
1.631776
1.643268
1.576803
1.578044
1.579913
1.582505
1.585938
1.590367
1.595365
1.601066
1.607656
1.615405
1.624693
1.635044
1.645698
1.602316
1.597812
1.602866
1.593409
1.59855
1.604511
1.589842
1.594159
1.60021
1.607382
1.586947
1.590547
1.595713
1.602833
1.611547
1.584592
1.587603
1.59198
1.598086
1.606436
1.617006
1.582656
1.585212
1.588938
1.594153
1.601288
1.611007
1.622528
1.581072
1.583269
1.58649
1.590975
1.597083
1.605318
1.615539
1.627887
1.579801
1.581716
1.584535
1.588454
1.593737
1.600782
1.609306
1.619913
1.632794
1.578816
1.580506
1.583007
1.586476
1.591123
1.597239
1.604473
1.613216
1.624065
1.637098
1.578029
1.579539
1.581786
1.5849
1.589049
1.594462
1.600735
1.608141
1.617069
1.628087
1.641081
1.577352
1.578715
1.580757
1.583585
1.587341
1.59221
1.59777
1.604206
1.611789
1.620908
1.6321
1.64397
1.576724
1.577965
1.579835
1.58243
1.58587
1.590309
1.59532
1.601039
1.607654
1.615437
1.62478
1.63522
1.646065
1.576111
1.577248
1.578974
1.581375
1.584555
1.588648
1.593226
1.598393
1.60429
1.611106
1.619123
1.627847
1.637587
1.64754
1.602663
1.597926
1.603284
1.593432
1.598657
1.604865
1.589841
1.594173
1.600274
1.607575
1.586947
1.590547
1.595713
1.602833
1.611547
1.584597
1.587607
1.591981
1.598074
1.606381
1.616853
1.582656
1.585215
1.588943
1.594156
1.601276
1.610944
1.622337
1.581045
1.583246
1.586475
1.590971
1.597091
1.605336
1.615547
1.627861
1.579714
1.581634
1.584464
1.588402
1.593715
1.600806
1.609394
1.620095
1.633191
1.578642
1.580337
1.582849
1.58634
1.591024
1.597199
1.60452
1.613392
1.624465
1.638029
1.577813
1.579326
1.581582
1.584713
1.588893
1.594357
1.600701
1.608209
1.617293
1.628588
1.642228
1.57715
1.578515
1.580561
1.583402
1.587179
1.592084
1.597691
1.604192
1.611869
1.621131
1.632576
1.645
1.576575
1.577816
1.579689
1.582291
1.585744
1.590205
1.595242
1.600998
1.607661
1.615515
1.624963
1.635582
1.64681
1.576033
1.577169
1.578897
1.5813
1.584486
1.588588
1.593177
1.598358
1.604274
1.611117
1.619171
1.627948
1.637777
1.647921
1.575494
1.57654
1.578143
1.580379
1.583342
1.587149
1.591376
1.596106
1.601447
1.607542
1.61459
1.622057
1.630189
1.639275
1.64847
1.602845
1.598009
1.603606
1.593458
1.598764
1.605251
1.58984
1.594195
1.600375
1.6079
1.586943
1.590546
1.595727
1.602893
1.611722
1.584597
1.587607
1.591981
1.598074
1.606381
1.616853
1.582659
1.585218
1.588947
1.594156
1.601264
1.610896
1.622205
1.581042
1.583245
1.586477
1.590975
1.597095
1.605331
1.615499
1.627717
1.579683
1.581607
1.584442
1.588389
1.593715
1.600823
1.609427
1.620134
1.633244
1.578553
1.58025
1.582771
1.586275
1.590982
1.597194
1.604567
1.613512
1.624701
1.638548
1.57764
1.579155
1.581419
1.584567
1.588775
1.594285
1.600693
1.608295
1.617521
1.629066
1.643317
1.576938
1.578303
1.580356
1.58321
1.587013
1.591957
1.597619
1.604196
1.611983
1.621413
1.633159
1.646261
1.576378
1.577618
1.579496
1.582108
1.585578
1.590068
1.595143
1.600949
1.607681
1.615635
1.625236
1.636111
1.647905
1.575888
1.577023
1.578753
1.581162
1.584359
1.588479
1.59309
1.5983
1.604254
1.611149
1.619278
1.628159
1.638166
1.648695
1.575418
1.576464
1.578068
1.580306
1.583273
1.587088
1.591325
1.596067
1.601422
1.607538
1.614614
1.622117
1.6303
1.639474
1.648858
1.574941
1.575909
1.577405
1.579497
1.58227
1.585831
1.58976
1.594124
1.599009
1.604526
1.610824
1.61734
1.624236
1.631744
1.640128
1.602886
1.598077
1.603757
1.593493
1.598837
1.605525
1.589848
1.594218
1.600471
1.608238
1.586939
1.590545
1.595747
1.602985
1.612009
1.584592
1.587603
1.59198
1.598086
1.606436
1.617006
1.582659
1.585218
1.588947
1.594156
1.601264
1.610896
1.622205
1.581044
1.583248
1.58648
1.590978
1.597096
1.605321
1.615458
1.627606
1.579679
1.581603
1.584441
1.58839
1.59372
1.60083
1.609427
1.620102
1.633145
1.578521
1.58022
1.582744
1.586255
1.590972
1.597199
1.604592
1.613561
1.624769
1.638678
1.57755
1.579067
1.581336
1.584493
1.588718
1.594256
1.600704
1.608364
1.617673
1.629355
1.643955
1.576767
1.578133
1.580191
1.583058
1.586882
1.591862
1.597574
1.604219
1.612109
1.621694
1.633716
1.647472
1.576169
1.577409
1.579291
1.581914
1.585404
1.589927
1.595045
1.60091
1.607723
1.615794
1.625576
1.636757
1.64925
1.575694
1.576829
1.578561
1.580979
1.584191
1.588335
1.592977
1.598228
1.604235
1.611204
1.619438
1.628471
1.638734
1.649833
1.575276
1.576321
1.577926
1.580169
1.583146
1.586976
1.591232
1.595997
1.601384
1.60754
1.614671
1.622246
1.630532
1.639881
1.649647
1.574867
1.575835
1.57733
1.579425
1.582202
1.58577
1.589706
1.594081
1.598978
1.604512
1.610832
1.617374
1.624305
1.631863
1.640331
1.574444
1.575343
1.576744
1.57871
1.581318
1.584663
1.588334
1.592386
1.59689
1.601934
1.607631
1.613416
1.619384
1.625684
1.632529
1.60287
1.598149
1.60377
1.593574
1.598891
1.605615
1.589885
1.594248
1.600524
1.60844
1.586949
1.590551
1.595764
1.603063
1.612282
1.58459
1.587599
1.591978
1.598103
1.606515
1.617244
1.582656
1.585215
1.588943
1.594156
1.601276
1.610944
1.622337
1.581044
1.583248
1.58648
1.590978
1.597096
1.605321
1.615458
1.627606
1.57968
1.581605
1.584443
1.588393
1.593723
1.600831
1.60942
1.620067
1.633055
1.578515
1.580215
1.58274
1.586253
1.590973
1.597204
1.604601
1.613567
1.624753
1.638623
1.577518
1.579035
1.581306
1.584467
1.5887
1.59425
1.600715
1.608399
1.617737
1.629453
1.644162
1.576678
1.578044
1.580105
1.582979
1.586816
1.591817
1.597558
1.604248
1.6122
1.621878
1.634058
1.648204
1.576001
1.577241
1.579126
1.581759
1.585266
1.589816
1.594973
1.600891
1.607779
1.615959
1.625909
1.637375
1.650551
1.575489
1.576623
1.578359
1.580786
1.584014
1.588184
1.592862
1.598159
1.604229
1.611283
1.619643
1.628856
1.639427
1.651233
1.575086
1.57613
1.577737
1.579987
1.582977
1.586828
1.591109
1.595908
1.601337
1.607551
1.614759
1.622438
1.630873
1.640475
1.650805
1.574727
1.575694
1.577191
1.57929
1.582076
1.585656
1.589609
1.594004
1.598927
1.604492
1.610855
1.61745
1.624451
1.632108
1.640747
1.574371
1.57527
1.576672
1.578639
1.581251
1.584601
1.588279
1.592341
1.596855
1.601912
1.607627
1.613433
1.619426
1.625759
1.632651
1.573994
1.574834
1.576151
1.578005
1.580466
1.583621
1.587066
1.59085
1.595029
1.599676
1.604881
1.610084
1.615344
1.620742
1.626414
1.602846
1.598224
1.603732
1.593697
1.598948
1.605571
1.589992
1.594319
1.600548
1.608437
1.587001
1.590585
1.595782
1.603086
1.612385
1.584607
1.587607
1.591981
1.598112
1.60657
1.617433
1.582656
1.585212
1.588938
1.594153
1.601288
1.611007
1.622528
1.581042
1.583245
1.586477
1.590975
1.597095
1.605331
1.615499
1.627717
1.57968
1.581605
1.584443
1.588393
1.593723
1.600831
1.60942
1.620067
1.633055
1.578516
1.580216
1.582742
1.586254
1.590975
1.597206
1.604603
1.613561
1.624724
1.638553
1.577512
1.579029
1.5813
1.584463
1.588697
1.59425
1.600721
1.60841
1.61775
1.629451
1.64415
1.576646
1.578011
1.580074
1.582949
1.586791
1.591801
1.597556
1.604264
1.612243
1.621957
1.634185
1.648469
1.575913
1.577153
1.57904
1.581677
1.585193
1.58976
1.594939
1.600889
1.607824
1.616073
1.626125
1.637758
1.651351
1.575325
1.576458
1.578196
1.580629
1.583871
1.588064
1.592772
1.59811
1.604236
1.611371
1.619848
1.62923
1.640089
1.652593
1.574885
1.575928
1.577538
1.579795
1.582799
1.586672
1.590982
1.595818
1.601296
1.607576
1.614877
1.622679
1.631291
1.641199
1.652233
1.574541
1.575507
1.577006
1.57911
1.581907
1.585506
1.589481
1.593903
1.598861
1.604472
1.610895
1.617565
1.624666
1.632468
1.641353
1.574234
1.575132
1.576535
1.578506
1.581125
1.584488
1.58818
1.592258
1.596794
1.601878
1.607626
1.613473
1.619516
1.625916
1.632903
1.573924
1.574762
1.57608
1.577936
1.5804
1.58356
1.587011
1.590803
1.594991
1.599649
1.604868
1.610088
1.615366
1.620788
1.626491
1.573587
1.574373
1.575616
1.57737
1.579701
1.582686
1.585933
1.589481
1.59338
1.597688
1.602481
1.60721
1.611909
1.616624
1.621426
1.602837
1.598286
1.603693
1.59383
1.599009
1.605489
1.590151
1.594431
1.600574
1.608306
1.587132
1.590685
1.595834
1.603065
1.612256
1.584673
1.587657
1.592007
1.598112
1.60655
1.617409
1.582679
1.585228
1.588946
1.594151
1.601285
1.61103
1.622635
1.581045
1.583246
1.586475
1.590971
1.597091
1.605336
1.615547
1.627861
1.579679
1.581603
1.584441
1.58839
1.59372
1.60083
1.609427
1.620102
1.633145
1.578516
1.580216
1.582742
1.586254
1.590975
1.597206
1.604603
1.613561
1.624724
1.638553
1.577513
1.57903
1.581301
1.584463
1.588698
1.594252
1.600723
1.608412
1.617746
1.629429
1.644099
1.57664
1.578005
1.580067
1.582943
1.586785
1.591797
1.597556
1.60427
1.612257
1.621975
1.634198
1.648491
1.575882
1.577121
1.579008
1.581646
1.585165
1.589737
1.594926
1.60089
1.607846
1.616125
1.626219
1.637908
1.65166
1.575239
1.576371
1.57811
1.580546
1.583795
1.588
1.592724
1.598086
1.604248
1.611432
1.619983
1.629471
1.640502
1.653438
1.574724
1.575765
1.577377
1.57964
1.582654
1.586546
1.59088
1.595748
1.60127
1.60761
1.614995
1.622913
1.631695
1.64189
1.653622
1.574345
1.575309
1.57681
1.57892
1.581729
1.585347
1.589346
1.593798
1.598796
1.604459
1.610952
1.617712
1.624933
1.632908
1.642092
1.574052
1.574949
1.576353
1.57833
1.580958
1.584336
1.588047
1.592149
1.596715
1.601835
1.607632
1.613536
1.619651
1.626146
1.633272
1.573789
1.574627
1.575946
1.577805
1.580276
1.583446
1.58691
1.590716
1.594923
1.599604
1.604851
1.610102
1.615419
1.620888
1.626654
1.573518
1.574303
1.575546
1.577302
1.579635
1.582626
1.585878
1.589433
1.593339
1.597658
1.602462
1.607205
1.611918
1.616651
1.621475
1.573217
1.573955
1.575131
1.576796
1.579009
1.581843
1.584913
1.588253
1.591906
1.595923
1.600364
1.604699
1.608943
1.613121
1.617268
1.598326
1.603676
1.593938
1.599062
1.605419
1.590317
1.594555
1.600609
1.608157
1.587317
1.590835
1.595925
1.603043
1.612007
1.584822
1.587783
1.592093
1.598135
1.606467
1.617117
1.582756
1.585292
1.588989
1.594165
1.601261
1.610956
1.622484
1.581072
1.583269
1.58649
1.590975
1.597083
1.605318
1.615539
1.627887
1.579683
1.581607
1.584442
1.588389
1.593715
1.600823
1.609427
1.620134
1.633244
1.578515
1.580215
1.58274
1.586253
1.590973
1.597204
1.604601
1.613567
1.624753
1.638623
1.577513
1.57903
1.581301
1.584463
1.588698
1.594252
1.600723
1.608412
1.617746
1.629429
1.644099
1.576642
1.578006
1.580068
1.582943
1.586785
1.591797
1.597556
1.604272
1.612259
1.621973
1.634182
1.648454
1.575877
1.577115
1.579001
1.581638
1.585158
1.58973
1.594922
1.60089
1.607853
1.616141
1.626244
1.637933
1.651705
1.575208
1.576339
1.578078
1.580514
1.583764
1.587973
1.592704
1.598076
1.604253
1.61146
1.620045
1.629577
1.640669
1.653775
1.57464
1.57568
1.577292
1.579557
1.582576
1.586477
1.590824
1.59571
1.601258
1.607635
1.615074
1.623066
1.631954
1.642323
1.654489
1.574187
1.575149
1.576652
1.578767
1.581584
1.585217
1.589236
1.593715
1.598746
1.604456
1.611013
1.617855
1.62519
1.633331
1.642798
1.57386
1.574755
1.576161
1.578142
1.580781
1.584176
1.587908
1.592035
1.596633
1.601795
1.607647
1.613618
1.619819
1.62643
1.633723
1.573611
1.574447
1.575767
1.577631
1.58011
1.583295
1.586776
1.590602
1.594834
1.599545
1.604831
1.610128
1.615498
1.621035
1.626892
1.573386
1.57417
1.575415
1.577174
1.579513
1.582513
1.585776
1.589344
1.593266
1.597604
1.602432
1.607201
1.611944
1.616711
1.621579
1.573149
1.573886
1.575063
1.576729
1.578945
1.581784
1.584858
1.588204
1.591865
1.59589
1.600341
1.604687
1.608943
1.613134
1.617297
1.572879
1.573574
1.57469
1.576274
1.578382
1.58108
1.583991
1.587146
1.590583
1.594343
1.59848
1.60248
1.606349
1.610094
1.61373
1.594002
1.599097
1.605388
1.590448
1.594655
1.600643
1.608043
1.587503
1.590993
1.596029
1.603038
1.611766
1.585023
1.58796
1.592226
1.598191
1.606381
1.616716
1.582917
1.585437
1.589103
1.594228
1.601243
1.610794
1.622031
1.581156
1.583343
1.586549
1.59101
1.59708
1.605262
1.61541
1.627613
1.579714
1.581634
1.584464
1.588402
1.593715
1.600806
1.609394
1.620095
1.633191
1.578521
1.58022
1.582744
1.586255
1.590972
1.597199
1.604592
1.613561
1.624769
1.638678
1.577512
1.579029
1.5813
1.584463
1.588697
1.59425
1.600721
1.60841
1.61775
1.629451
1.64415
1.576642
1.578006
1.580068
1.582943
1.586785
1.591797
1.597556
1.604272
1.612259
1.621973
1.634182
1.648454
1.575878
1.577116
1.579001
1.581638
1.585157
1.589729
1.59492
1.60089
1.607854
1.616144
1.626244
1.637921
1.65168
1.575204
1.576334
1.578071
1.580507
1.583756
1.587964
1.592696
1.598071
1.604253
1.611468
1.620064
1.629606
1.640702
1.653837
1.574611
1.57565
1.577261
1.579525
1.582544
1.586448
1.590799
1.595692
1.601251
1.607644
1.615108
1.623135
1.632068
1.642501
1.65484
1.574105
1.575066
1.576568
1.578684
1.581506
1.585146
1.589175
1.593667
1.598718
1.604455
1.611051
1.617947
1.625356
1.633602
1.643241
1.573706
1.574599
1.576005
1.577991
1.580637
1.584045
1.587793
1.591942
1.596567
1.601766
1.607666
1.613699
1.61998
1.626702
1.634156
1.573423
1.574257
1.575578
1.577447
1.579935
1.583134
1.586633
1.590481
1.59474
1.599486
1.604816
1.610165
1.615599
1.621217
1.627184
1.573212
1.573994
1.575239
1.577002
1.57935
1.582362
1.58564
1.589226
1.59317
1.597534
1.602394
1.607199
1.611984
1.616802
1.621733
1.57302
1.573756
1.574934
1.576603
1.578824
1.581672
1.584756
1.588114
1.591788
1.59583
1.600301
1.604669
1.608949
1.613167
1.617362
1.572812
1.573507
1.574624
1.576209
1.578319
1.581021
1.583937
1.587097
1.59054
1.594308
1.598454
1.602463
1.606342
1.610097
1.613746
1.57257
1.573226
1.574289
1.575799
1.577811
1.580385
1.583153
1.586143
1.589386
1.592921
1.596791
1.600503
1.604055
1.607445
1.610673
1.590522
1.594715
1.600669
1.607989
1.587647
1.591118
1.596115
1.603044
1.61159
1.585221
1.58814
1.592368
1.598266
1.606321
1.616356
1.583128
1.585632
1.589267
1.594335
1.601254
1.610623
1.621479
1.581325
1.583501
1.586684
1.591106
1.597113
1.605191
1.615169
1.626999
1.579801
1.581716
1.584535
1.588454
1.593737
1.600782
1.609306
1.619913
1.632794
1.578553
1.58025
1.582771
1.586275
1.590982
1.597194
1.604567
1.613512
1.624701
1.638548
1.577518
1.579035
1.581306
1.584467
1.5887
1.59425
1.600715
1.608399
1.617737
1.629453
1.644162
1.57664
1.578005
1.580067
1.582943
1.586785
1.591797
1.597556
1.60427
1.612257
1.621975
1.634198
1.648491
1.575878
1.577116
1.579001
1.581638
1.585157
1.589729
1.59492
1.60089
1.607854
1.616144
1.626244
1.637921
1.65168
1.575205
1.576335
1.578072
1.580507
1.583755
1.587962
1.592694
1.598069
1.604251
1.611469
1.620066
1.629608
1.640694
1.653818
1.574607
1.575645
1.577255
1.579518
1.582536
1.586438
1.590789
1.595683
1.601245
1.607644
1.615117
1.623156
1.632101
1.64254
1.65491
1.574078
1.575037
1.576538
1.578653
1.581474
1.585115
1.589146
1.593643
1.598701
1.60445
1.611064
1.617986
1.62543
1.633722
1.643425
1.573627
1.574518
1.575924
1.57791
1.580559
1.583972
1.587728
1.591887
1.596527
1.601747
1.607676
1.613748
1.620082
1.626876
1.634433
1.573273
1.574105
1.575426
1.577298
1.579793
1.583003
1.586516
1.590382
1.594663
1.599438
1.604807
1.610202
1.615695
1.621391
1.627463
1.573028
1.573808
1.575054
1.576821
1.579177
1.582203
1.585496
1.589101
1.593068
1.597461
1.602358
1.607204
1.612037
1.616915
1.621922
1.572849
1.573584
1.574762
1.576434
1.578663
1.581522
1.58462
1.587994
1.591687
1.595751
1.60025
1.604647
1.608961
1.613217
1.617458
1.572686
1.57338
1.574497
1.576085
1.5782
1.58091
1.583835
1.587006
1.590461
1.594244
1.598407
1.602435
1.606332
1.61011
1.613782
1.572506
1.573161
1.574223
1.575735
1.577749
1.580327
1.5831
1.586094
1.589343
1.592884
1.596762
1.600483
1.604042
1.607441
1.610678
1.572288
1.572909
1.573921
1.575365
1.577289
1.579751
1.58239
1.58523
1.5883
1.591633
1.595268
1.598729
1.602009
1.605101
1.607996
1.587729
1.59119
1.596168
1.603055
1.611507
1.585373
1.588279
1.592481
1.598331
1.606289
1.616102
1.583333
1.585824
1.589433
1.594453
1.601288
1.610493
1.621002
1.581541
1.583706
1.586866
1.591247
1.597184
1.605143
1.614915
1.626297
1.579974
1.581881
1.584684
1.588574
1.593809
1.600775
1.609182
1.619592
1.632021
1.578642
1.580337
1.582849
1.58634
1.591024
1.597199
1.60452
1.613392
1.624465
1.638029
1.57755
1.579067
1.581336
1.584493
1.588718
1.594256
1.600704
1.608364
1.617673
1.629355
1.643955
1.576646
1.578011
1.580074
1.582949
1.586791
1.591801
1.597556
1.604264
1.612243
1.621957
1.634185
1.648469
1.575877
1.577115
1.579001
1.581638
1.585158
1.58973
1.594922
1.60089
1.607853
1.616141
1.626244
1.637933
1.651705
1.575205
1.576335
1.578072
1.580507
1.583755
1.587962
1.592694
1.598069
1.604251
1.611469
1.620066
1.629608
1.640694
1.653818
1.574609
1.575646
1.577255
1.579518
1.582535
1.586436
1.590786
1.59568
1.601242
1.607642
1.615117
1.623159
1.632104
1.642534
1.654894
1.574074
1.575033
1.576532
1.578646
1.581466
1.585105
1.589136
1.593632
1.598692
1.604444
1.611064
1.617995
1.625452
1.633757
1.643466
1.573601
1.57449
1.575895
1.57788
1.580528
1.583942
1.587698
1.59186
1.596505
1.601732
1.607675
1.613764
1.620124
1.626953
1.634556
1.573196
1.574026
1.575347
1.577218
1.579716
1.582931
1.586449
1.590323
1.594616
1.599406
1.604797
1.610221
1.615752
1.621499
1.627642
1.572882
1.57366
1.574906
1.576675
1.579036
1.582072
1.585378
1.588997
1.592983
1.5974
1.602327
1.60721
1.612087
1.617021
1.622101
1.572669
1.573402
1.57458
1.576257
1.578492
1.581364
1.584476
1.587866
1.591579
1.595668
1.600197
1.604628
1.608979
1.613281
1.617577
1.572518
1.573211
1.574328
1.575919
1.578041
1.580762
1.583699
1.586884
1.590356
1.594158
1.598345
1.602398
1.606323
1.61013
1.613837
1.572382
1.573036
1.574099
1.575613
1.577631
1.580217
1.582998
1.586002
1.589262
1.592816
1.59671
1.600446
1.604022
1.607437
1.610693
1.572225
1.572845
1.573857
1.575302
1.577228
1.579694
1.582336
1.585181
1.588256
1.591595
1.595237
1.598705
1.601992
1.605091
1.607993
1.572028
1.572618
1.573584
1.574967
1.576811
1.57917
1.58169
1.584395
1.587309
1.590461
1.593886
1.597126
1.600171
1.603009
1.605626
1.585457
1.588358
1.592547
1.598373
1.60628
1.615979
1.583488
1.585971
1.589563
1.59455
1.601324
1.610411
1.620669
1.581748
1.583906
1.587047
1.591393
1.597269
1.605125
1.614715
1.625703
1.580192
1.582092
1.584879
1.588737
1.59392
1.600799
1.609075
1.619256
1.63117
1.578816
1.580506
1.583007
1.586476
1.591123
1.597239
1.604473
1.613216
1.624065
1.637098
1.57764
1.579155
1.581419
1.584567
1.588775
1.594285
1.600693
1.608295
1.617521
1.629066
1.643317
1.576678
1.578044
1.580105
1.582979
1.586816
1.591817
1.597558
1.604248
1.6122
1.621878
1.634058
1.648204
1.575882
1.577121
1.579008
1.581646
1.585165
1.589737
1.594926
1.60089
1.607846
1.616125
1.626219
1.637908
1.65166
1.575204
1.576334
1.578071
1.580507
1.583756
1.587964
1.592696
1.598071
1.604253
1.611468
1.620064
1.629606
1.640702
1.653837
1.574609
1.575646
1.577255
1.579518
1.582535
1.586436
1.590786
1.59568
1.601242
1.607642
1.615117
1.623159
1.632104
1.642534
1.654894
1.574077
1.575035
1.576534
1.578647
1.581465
1.585103
1.589132
1.593628
1.598687
1.60444
1.611061
1.617995
1.625455
1.633761
1.643461
1.573598
1.574487
1.57589
1.577873
1.58052
1.583932
1.587687
1.591848
1.596493
1.601722
1.607668
1.613764
1.620134
1.626977
1.634592
1.573172
1.574
1.575319
1.577189
1.579686
1.5829
1.586419
1.590294
1.59459
1.599385
1.604784
1.610221
1.615771
1.621543
1.627721
1.572807
1.573584
1.574829
1.576598
1.57896
1.582
1.58531
1.588936
1.592931
1.597359
1.602303
1.607207
1.612113
1.617083
1.622212
1.572527
1.573257
1.574436
1.576114
1.578354
1.581234
1.584357
1.58776
1.591489
1.595597
1.600152
1.604611
1.608997
1.613339
1.617688
1.572343
1.573033
1.574151
1.575745
1.577873
1.580605
1.583555
1.586755
1.590244
1.594068
1.598281
1.602361
1.606317
1.610159
1.613906
1.572218
1.57287
1.573934
1.575451
1.577475
1.580071
1.582863
1.58588
1.589155
1.592727
1.596641
1.600398
1.603997
1.607436
1.610718
1.572103
1.572723
1.573735
1.575182
1.577113
1.579585
1.582235
1.585089
1.588175
1.591525
1.595181
1.598662
1.601963
1.605076
1.607993
1.571966
1.572555
1.573522
1.574905
1.576751
1.579113
1.581638
1.584346
1.587265
1.590423
1.593854
1.5971
1.600151
1.602995
1.605618
1.571786
1.57235
1.573276
1.574602
1.576371
1.578636
1.581048
1.583629
1.586401
1.58939
1.592627
1.595671
1.59851
1.601129
1.603511
1.583574
1.586053
1.589636
1.594607
1.601351
1.610378
1.620507
1.581905
1.584058
1.587186
1.591508
1.597342
1.605124
1.614583
1.625292
1.5804
1.582295
1.585068
1.588901
1.594039
1.600843
1.609005
1.618986
1.63046
1.579033
1.580719
1.583209
1.586654
1.591262
1.597312
1.604451
1.61305
1.623646
1.636098
1.577813
1.579326
1.581582
1.584713
1.588893
1.594357
1.600701
1.608209
1.617293
1.628588
1.642228
1.576767
1.578133
1.580191
1.583058
1.586882
1.591862
1.597574
1.604219
1.612109
1.621694
1.633716
1.647472
1.575913
1.577153
1.57904
1.581677
1.585193
1.58976
1.594939
1.600889
1.607824
1.616073
1.626125
1.637758
1.651351
1.575208
1.576339
1.578078
1.580514
1.583764
1.587973
1.592704
1.598076
1.604253
1.61146
1.620045
1.629577
1.640669
1.653775
1.574607
1.575645
1.577255
1.579518
1.582536
1.586438
1.590789
1.595683
1.601245
1.607644
1.615117
1.623156
1.632101
1.64254
1.65491
1.574077
1.575035
1.576534
1.578647
1.581465
1.585103
1.589132
1.593628
1.598687
1.60444
1.611061
1.617995
1.625455
1.633761
1.643461
1.573601
1.574489
1.575891
1.577874
1.580519
1.58393
1.587684
1.591844
1.596488
1.601716
1.607663
1.613761
1.620133
1.626979
1.634596
1.57317
1.573998
1.575315
1.577184
1.579678
1.582891
1.586408
1.590282
1.594577
1.599372
1.604773
1.610214
1.615771
1.621553
1.627744
1.572784
1.573559
1.574802
1.57657
1.578931
1.58197
1.585281
1.588907
1.592903
1.597334
1.602284
1.607196
1.612115
1.617103
1.622258
1.572455
1.573184
1.574361
1.576039
1.57828
1.581163
1.58429
1.587698
1.591434
1.595551
1.600118
1.604594
1.609
1.613369
1.617752
1.572204
1.572892
1.57401
1.575605
1.577738
1.580477
1.583437
1.586648
1.590151
1.593991
1.598224
1.602328
1.60631
1.610183
1.613969
1.572046
1.572697
1.57376
1.57528
1.57731
1.579916
1.58272
1.58575
1.589041
1.592631
1.596567
1.600348
1.603971
1.607438
1.610751
1.571942
1.57256
1.573573
1.575023
1.576959
1.57944
1.582101
1.584967
1.588066
1.591432
1.595106
1.598606
1.601926
1.605058
1.607995
1.571847
1.572435
1.573403
1.574787
1.576637
1.579006
1.581537
1.584254
1.587182
1.590351
1.593795
1.597052
1.600115
1.602971
1.605605
1.571725
1.572289
1.573215
1.574541
1.576312
1.57858
1.580996
1.583581
1.586357
1.589351
1.592594
1.595643
1.598487
1.601111
1.603498
1.571561
1.572101
1.572991
1.574266
1.575967
1.578143
1.580456
1.582924
1.585566
1.588408
1.591475
1.594343
1.596999
1.599428
1.601609
1.581991
1.584141
1.587264
1.591574
1.597387
1.605132
1.614525
1.625091
1.580557
1.582449
1.585212
1.589027
1.594134
1.600885
1.608967
1.618806
1.629971
1.57924
1.580923
1.583403
1.586828
1.591401
1.597395
1.604454
1.612929
1.623308
1.635273
1.578029
1.579539
1.581786
1.5849
1.589049
1.594462
1.600735
1.608141
1.617069
1.628087
1.641081
1.576938
1.578303
1.580356
1.58321
1.587013
1.591957
1.597619
1.604196
1.611983
1.621413
1.633159
1.646261
1.576001
1.577241
1.579126
1.581759
1.585266
1.589816
1.594973
1.600891
1.607779
1.615959
1.625909
1.637375
1.650551
1.575239
1.576371
1.57811
1.580546
1.583795
1.588
1.592724
1.598086
1.604248
1.611432
1.619983
1.629471
1.640502
1.653438
1.574611
1.57565
1.577261
1.579525
1.582544
1.586448
1.590799
1.595692
1.601251
1.607644
1.615108
1.623135
1.632068
1.642501
1.65484
1.574074
1.575033
1.576532
1.578646
1.581466
1.585105
1.589136
1.593632
1.598692
1.604444
1.611064
1.617995
1.625452
1.633757
1.643466
1.573601
1.574489
1.575891
1.577874
1.580519
1.58393
1.587684
1.591844
1.596488
1.601716
1.607663
1.613761
1.620133
1.626979
1.634596
1.573174
1.574001
1.575317
1.577185
1.579678
1.58289
1.586405
1.590278
1.594571
1.599366
1.604767
1.610209
1.615767
1.621553
1.627747
1.572784
1.573558
1.5748
1.576565
1.578925
1.581962
1.58527
1.588895
1.592889
1.59732
1.60227
1.607185
1.612107
1.617103
1.622268
1.572434
1.573161
1.574336
1.576012
1.578253
1.581135
1.584261
1.587669
1.591405
1.595524
1.600095
1.604576
1.60899
1.613372
1.617773
1.572135
1.572821
1.573937
1.575533
1.577666
1.580407
1.58337
1.586586
1.590094
1.593941
1.598185
1.6023
1.606297
1.61019
1.614
1.571911
1.572559
1.573622
1.575144
1.577178
1.57979
1.582602
1.585643
1.588945
1.59255
1.596504
1.600303
1.603947
1.607438
1.610779
1.571774
1.57239
1.573403
1.574856
1.576797
1.579288
1.581959
1.584836
1.58795
1.591333
1.595026
1.598546
1.601886
1.60504
1.608001
1.571689
1.572276
1.573244
1.574631
1.576486
1.578863
1.581404
1.584132
1.587072
1.590255
1.593715
1.596989
1.600068
1.60294
1.605591
1.571608
1.572171
1.573097
1.574426
1.576201
1.578474
1.580897
1.583489
1.586274
1.589278
1.592532
1.595592
1.598446
1.60108
1.603476
1.571501
1.57204
1.572931
1.574207
1.575909
1.578088
1.580405
1.582876
1.585523
1.588369
1.591441
1.594314
1.596975
1.599408
1.601592
1.571351
1.571868
1.572726
1.573955
1.575594
1.577689
1.579909
1.582273
1.584797
1.587503
1.590416
1.593126
1.59562
1.597881
1.599888
1.580642
1.582532
1.585292
1.589098
1.59419
1.600914
1.608956
1.618723
1.629732
1.579395
1.581077
1.58355
1.586961
1.59151
1.597464
1.604465
1.612854
1.623079
1.634707
1.578233
1.579742
1.581982
1.58508
1.589202
1.594571
1.600784
1.608102
1.616897
1.627679
1.640141
1.57715
1.578515
1.580561
1.583402
1.587179
1.592084
1.597691
1.604192
1.611869
1.621131
1.632576
1.645
1.576169
1.577409
1.579291
1.581914
1.585404
1.589927
1.595045
1.60091
1.607723
1.615794
1.625576
1.636757
1.64925
1.575325
1.576458
1.578196
1.580629
1.583871
1.588064
1.592772
1.59811
1.604236
1.611371
1.619848
1.62923