/*--------------------------------*- C++ -*----------------------------------*\
| =========                 |                                                 |
| \\      /  F ield         | OpenFOAM: The Open Source CFD Toolbox           |
|  \\    /   O peration     | Version:  2306                                  |
|   \\  /    A nd           | Website:  www.openfoam.com                      |
|    \\/     M anipulation  |                                                 |
\*---------------------------------------------------------------------------*/
FoamFile
{
    version     2.0;
    format      ascii;
    arch        "LSB;label=32;scalar=64";
    class       volScalarField;
    location    "0.6/phiI";
    object      T;
}
// * * * * * * * * * * * * * * * * * * * * * * * * * * * * * * * * * * * * * //

dimensions      [0 0 0 1 0 0 0];

internalField   nonuniform List<scalar> 
12000
(
1166.843
1166.694
1168.644
1166.911
1166.348
1168.635
1166.763
1170.29
1168.703
1166.966
1165.697
1168.613
1166.418
1170.319
1168.694
1166.818
1171.817
1170.34
1168.749
1167.006
1164.575
1168.569
1165.769
1170.384
1168.672
1166.474
1171.856
1170.369
1168.74
1166.858
1173.277
1171.86
1170.378
1168.782
1167.03
1162.879
1168.488
1164.657
1170.499
1168.627
1165.828
1171.945
1170.433
1168.717
1166.514
1173.318
1171.899
1170.407
1168.772
1166.882
1174.687
1173.313
1171.891
1170.404
1168.8
1167.037
1160.928
1168.34
1162.985
1170.686
1168.543
1164.724
1172.104
1170.547
1168.671
1165.871
1173.41
1171.987
1170.471
1168.749
1166.539
1174.727
1173.354
1171.93
1170.432
1168.79
1166.889
1176.054
1174.719
1173.339
1171.911
1170.417
1168.803
1167.044
1159.14
1168.061
1161.063
1170.938
1168.391
1163.074
1172.365
1170.73
1168.584
1164.776
1173.577
1172.145
1170.583
1168.701
1165.898
1174.817
1173.446
1172.018
1170.495
1168.766
1166.547
1176.092
1174.759
1173.38
1171.95
1170.445
1168.793
1166.896
1177.377
1176.081
1174.74
1173.354
1171.919
1170.416
1168.806
1167.05
1157.815
1167.717
1159.303
1171.124
1168.112
1161.181
1172.728
1170.973
1168.427
1163.146
1173.852
1172.401
1170.761
1168.612
1164.812
1174.981
1173.612
1172.174
1170.606
1168.717
1165.908
1176.178
1174.849
1173.472
1172.036
1170.507
1168.768
1166.553
1177.413
1176.119
1174.78
1173.395
1171.957
1170.444
1168.796
1166.902
1178.656
1177.4
1176.098
1174.751
1173.357
1171.914
1170.415
1168.808
1167.056
1157.117
1167.414
1157.997
1171.22
1167.772
1159.447
1173.054
1171.154
1168.149
1161.281
1174.236
1172.755
1170.995
1168.449
1163.202
1175.248
1173.882
1172.426
1170.779
1168.624
1164.828
1176.333
1175.01
1173.636
1172.191
1170.615
1168.717
1165.916
1177.495
1176.205
1174.869
1173.486
1172.043
1170.505
1168.77
1166.56
1178.69
1177.436
1176.136
1174.79
1173.398
1171.952
1170.442
1168.798
1166.908
1179.89
1178.676
1177.415
1176.106
1174.751
1173.35
1171.91
1170.413
1168.81
1167.062
1157.117
1167.239
1157.308
1171.253
1167.474
1158.16
1173.289
1171.248
1167.813
1159.573
1174.595
1173.074
1171.17
1168.171
1161.363
1175.623
1174.258
1172.77
1171.004
1168.457
1163.234
1176.588
1175.274
1173.902
1172.438
1170.784
1168.621
1164.842
1177.642
1176.359
1175.03
1173.648
1172.195
1170.611
1168.717
1165.925
1178.768
1177.518
1176.222
1174.879
1173.488
1172.037
1170.502
1168.771
1166.567
1179.922
1178.711
1177.451
1176.144
1174.79
1173.39
1171.948
1170.441
1168.799
1166.915
1181.078
1179.908
1178.688
1177.42
1176.103
1174.741
1173.343
1171.906
1170.412
1168.812
1167.068
1157.815
1167.239
1157.308
1171.26
1167.302
1157.481
1173.432
1171.281
1167.519
1158.304
1174.868
1173.305
1171.262
1167.839
1159.679
1175.979
1174.61
1173.083
1171.174
1168.178
1161.418
1176.945
1175.642
1174.269
1172.774
1171
1168.449
1163.262
1177.883
1176.611
1175.29
1173.91
1172.438
1170.775
1168.618
1164.857
1178.908
1177.665
1176.375
1175.039
1173.649
1172.187
1170.607
1168.717
1165.934
1179.996
1178.788
1177.532
1176.229
1174.879
1173.479
1172.032
1170.5
1168.772
1166.574
1181.11
1179.941
1178.723
1177.456
1176.141
1174.78
1173.383
1171.943
1170.439
1168.801
1166.921
1182.222
1181.095
1179.918
1178.691
1177.415
1176.092
1174.732
1173.336
1171.901
1170.41
1168.814
1167.079
1159.14
1167.414
1157.997
1171.26
1167.302
1157.481
1173.499
1171.287
1167.35
1157.635
1175.045
1173.448
1171.295
1167.55
1158.428
1176.256
1174.88
1173.31
1171.263
1167.849
1159.755
1177.287
1175.992
1174.615
1173.079
1171.163
1168.17
1161.465
1178.22
1176.961
1175.65
1174.269
1172.764
1170.983
1168.442
1163.29
1179.136
1177.903
1176.624
1175.295
1173.906
1172.425
1170.767
1168.615
1164.872
1180.13
1178.927
1177.678
1176.381
1175.036
1173.639
1172.18
1170.602
1168.717
1165.944
1181.181
1180.015
1178.8
1177.536
1176.225
1174.868
1173.472
1172.026
1170.497
1168.773
1166.581
1182.252
1181.126
1179.951
1178.725
1177.451
1176.129
1174.771
1173.376
1171.938
1170.437
1168.802
1166.932
1183.32
1182.236
1181.103
1179.919
1178.685
1177.402
1176.081
1174.723
1173.329
1171.896
1170.408
1168.82
1167.096
1160.928
1167.717
1159.303
1171.253
1167.474
1158.16
1173.499
1171.287
1167.35
1157.635
1175.131
1173.514
1171.302
1167.383
1157.768
1176.438
1175.055
1173.451
1171.296
1167.564
1158.519
1177.554
1176.265
1174.88
1173.303
1171.251
1167.844
1159.82
1178.545
1177.297
1175.994
1174.608
1173.062
1171.141
1168.162
1161.511
1179.455
1178.234
1176.967
1175.647
1174.256
1172.744
1170.968
1168.435
1163.318
1180.347
1179.153
1177.913
1176.626
1175.289
1173.892
1172.415
1170.759
1168.612
1164.888
1181.308
1180.147
1178.938
1177.681
1176.376
1175.024
1173.629
1172.173
1170.598
1168.716
1165.953
1182.32
1181.197
1180.024
1178.802
1177.531
1176.213
1174.858
1173.464
1172.021
1170.494
1168.774
1166.594
1183.349
1182.266
1181.134
1179.952
1178.719
1177.437
1176.118
1174.762
1173.368
1171.933
1170.434
1168.808
1166.949
1184.372
1183.333
1182.243
1181.103
1179.911
1178.67
1177.39
1176.071
1174.714
1173.322
1171.891
1170.41
1168.831
1167.117
1162.879
1168.061
1161.063
1171.22
1167.772
1159.447
1173.432
1171.281
1167.519
1158.304
1175.131
1173.514
1171.302
1167.383
1157.768
1176.528
1175.14
1173.517
1171.303
1167.4
1157.867
1177.732
1176.445
1175.053
1173.442
1171.284
1167.562
1158.597
1178.801
1177.562
1176.263
1174.87
1173.283
1171.227
1167.839
1159.883
1179.763
1178.554
1177.298
1175.986
1174.589
1173.036
1171.122
1168.155
1161.556
1180.65
1179.467
1178.239
1176.963
1175.634
1174.235
1172.726
1170.953
1168.428
1163.345
1181.515
1180.362
1179.162
1177.914
1176.618
1175.273
1173.879
1172.403
1170.75
1168.609
1164.904
1182.442
1181.324
1180.156
1178.94
1177.674
1176.362
1175.013
1173.62
1172.166
1170.593
1168.716
1165.969
1183.414
1182.334
1181.205
1180.025
1178.795
1177.517
1176.202
1174.848
1173.456
1172.015
1170.491
1168.779
1166.613
1184.4
1183.362
1182.273
1181.134
1179.944
1178.704
1177.426
1176.108
1174.753
1173.361
1171.927
1170.436
1168.819
1166.972
1185.38
1184.384
1183.338
1182.242
1181.094
1179.896
1178.658
1177.379
1176.06
1174.705
1173.314
1171.89
1170.417
1168.847
1167.144
1164.575
1168.34
1162.985
1171.124
1168.112
1161.181
1173.289
1171.248
1167.813
1159.573
1175.045
1173.448
1171.295
1167.55
1158.428
1176.528
1175.14
1173.517
1171.303
1167.4
1157.867
1177.82
1176.534
1175.138
1173.507
1171.291
1167.401
1157.951
1178.971
1177.738
1176.442
1175.041
1173.42
1171.259
1167.56
1158.673
1180.007
1178.807
1177.559
1176.251
1174.847
1173.253
1171.206
1167.833
1159.945
1180.943
1179.771
1178.554
1177.288
1175.966
1174.562
1173.013
1171.103
1168.147
1161.6
1181.804
1180.661
1179.47
1178.233
1176.948
1175.611
1174.216
1172.708
1170.938
1168.421
1163.373
1182.641
1181.529
1180.369
1179.161
1177.904
1176.601
1175.259
1173.866
1172.392
1170.741
1168.605
1164.926
1183.532
1182.456
1181.331
1180.156
1178.931
1177.659
1176.35
1175.002
1173.61
1172.158
1170.587
1168.72
1165.991
1184.464
1183.427
1182.341
1181.204
1180.017
1178.78
1177.505
1176.19
1174.838
1173.447
1172.008
1170.492
1168.79
1166.636
1185.408
1184.412
1183.367
1182.272
1181.125
1179.928
1178.692
1177.414
1176.097
1174.743
1173.352
1171.926
1170.442
1168.835
1166.999
1186.344
1185.391
1184.389
1183.336
1182.232
1181.078
1179.883
1178.645
1177.367
1176.049
1174.695
1173.31
1171.893
1170.428
1168.868
1165.697
1168.488
1164.657
1170.938
1168.391
1163.074
1173.054
1171.154
1168.149
1161.281
1174.868
1173.305
1171.262
1167.839
1159.679
1176.438
1175.055
1173.451
1171.296
1167.564
1158.519
1177.82
1176.534
1175.138
1173.507
1171.291
1167.401
1157.951
1179.056
1177.825
1176.53
1175.124
1173.485
1171.267
1167.401
1158.034
1180.17
1178.976
1177.734
1176.428
1175.016
1173.389
1171.238
1167.558
1158.747
1181.175
1180.012
1178.804
1177.546
1176.228
1174.816
1173.227
1171.185
1167.828
1160.006
1182.084
1180.95
1179.77
1178.544
1177.269
1175.938
1174.538
1172.991
1171.084
1168.139
1161.644
1182.917
1181.814
1180.662
1179.464
1178.218
1176.925
1175.592
1174.197
1172.691
1170.923
1168.413
1163.406
1183.723
1182.653
1181.534
1180.367
1179.15
1177.886
1176.586
1175.244
1173.853
1172.38
1170.732
1168.607
1164.953
1184.577
1183.545
1182.462
1181.33
1180.147
1178.915
1177.646
1176.337
1174.99
1173.6
1172.149
1170.586
1168.729
1166.018
1185.469
1184.476
1183.433
1182.339
1181.195
1180.001
1178.767
1177.492
1176.179
1174.828
1173.438
1172.005
1170.497
1168.805
1166.665
1186.371
1185.419
1184.417
1183.365
1182.262
1181.109
1179.915
1178.679
1177.402
1176.086
1174.732
1173.348
1171.928
1170.453
1168.856
1187.264
1186.354
1185.395
1184.386
1183.326
1182.216
1181.065
1179.87
1178.632
1177.355
1176.037
1174.688
1173.309
1171.9
1170.444
1166.348
1168.569
1165.769
1170.686
1168.543
1164.724
1172.728
1170.973
1168.427
1163.146
1174.595
1173.074
1171.17
1168.171
1161.363
1176.256
1174.88
1173.31
1171.263
1167.849
1159.755
1177.732
1176.445
1175.053
1173.442
1171.284
1167.562
1158.597
1179.056
1177.825
1176.53
1175.124
1173.485
1171.267
1167.401
1158.034
1180.251
1179.06
1177.82
1176.515
1175.099
1173.453
1171.246
1167.4
1158.115
1181.332
1180.174
1178.971
1177.719
1176.403
1174.984
1173.362
1171.217
1167.555
1158.82
1182.307
1181.18
1180.008
1178.791
1177.523
1176.197
1174.79
1173.202
1171.164
1167.822
1160.065
1183.186
1182.09
1180.948
1179.76
1178.524
1177.241
1175.915
1174.514
1172.968
1171.064
1168.131
1161.693
1183.989
1182.926
1181.815
1180.656
1179.448
1178.195
1176.905
1175.572
1174.178
1172.672
1170.907
1168.411
1163.445
1184.762
1183.734
1182.657
1181.531
1180.355
1179.131
1177.871
1176.571
1175.23
1173.839
1172.368
1170.727
1168.614
1164.987
1185.579
1184.589
1183.549
1182.46
1181.319
1180.13
1178.901
1177.632
1176.325
1174.978
1173.589
1172.144
1170.59
1168.743
1166.05
1186.43
1185.48
1184.48
1183.43
1182.329
1181.179
1179.987
1178.754
1177.48
1176.167
1174.817
1173.432
1172.007
1170.507
1168.825
1187.29
1186.381
1185.422
1184.414
1183.355
1182.246
1181.095
1179.902
1178.666
1177.389
1176.074
1174.725
1173.347
1171.935
1170.468
1188.142
1187.274
1186.358
1185.392
1184.376
1183.31
1182.202
1181.051
1179.856
1178.62
1177.342
1176.029
1174.685
1173.313
1171.911
1166.694
1168.613
1166.418
1170.499
1168.627
1165.828
1172.365
1170.73
1168.584
1164.776
1174.236
1172.755
1170.995
1168.449
1163.202
1175.979
1174.61
1173.083
1171.174
1168.178
1161.418
1177.554
1176.265
1174.88
1173.303
1171.251
1167.844
1159.82
1178.971
1177.738
1176.442
1175.041
1173.42
1171.259
1167.56
1158.673
1180.251
1179.06
1177.82
1176.515
1175.099
1173.453
1171.246
1167.4
1158.115
1181.409
1180.254
1179.055
1177.805
1176.49
1175.066
1173.426
1171.224
1167.399
1158.194
1182.457
1181.335
1180.169
1178.957
1177.695
1176.371
1174.956
1173.335
1171.195
1167.551
1158.892
1183.4
1182.311
1181.176
1179.996
1178.768
1177.493
1176.171
1174.763
1173.176
1171.142
1167.815
1160.13
1184.247
1183.191
1182.088
1180.938
1179.74
1178.497
1177.218
1175.891
1174.49
1172.945
1171.044
1168.127
1161.747
1185.018
1183.996
1182.926
1181.807
1180.639
1179.425
1178.175
1176.886
1175.552
1174.158
1172.653
1170.896
1168.414
1163.489
1185.758
1184.772
1183.737
1182.653
1181.519
1180.336
1179.115
1177.855
1176.555
1175.215
1173.824
1172.359
1170.726
1168.625
1165.027
1186.537
1185.59
1184.593
1183.546
1182.449
1181.302
1180.116
1178.887
1177.619
1176.311
1174.965
1173.581
1172.144
1170.598
1168.762
1187.348
1186.44
1185.484
1184.477
1183.42
1182.313
1181.165
1179.973
1178.74
1177.467
1176.154
1174.809
1173.431
1172.013
1170.521
1188.167
1187.3
1186.384
1185.419
1184.403
1183.339
1182.232
1181.081
1179.888
1178.653
1177.376
1176.065
1174.722
1173.35
1171.946
1188.976
1188.15
1187.277
1186.354
1185.381
1184.359
1183.296
1182.188
1181.037
1179.843
1178.605
1177.331
1176.024
1174.686
1173.321
1166.843
1168.635
1166.763
1170.384
1168.672
1166.474
1172.104
1170.547
1168.671
1165.871
1173.852
1172.401
1170.761
1168.612
1164.812
1175.623
1174.258
1172.77
1171.004
1168.457
1163.234
1177.287
1175.992
1174.615
1173.079
1171.163
1168.17
1161.465
1178.801
1177.562
1176.263
1174.87
1173.283
1171.227
1167.839
1159.883
1180.17
1178.976
1177.734
1176.428
1175.016
1173.389
1171.238
1167.558
1158.747
1181.409
1180.254
1179.055
1177.805
1176.49
1175.066
1173.426
1171.224
1167.399
1158.194
1182.531
1181.412
1180.249
1179.04
1177.78
1176.457
1175.037
1173.399
1171.203
1167.397
1158.272
1183.544
1182.46
1181.33
1180.155
1178.933
1177.663
1176.343
1174.927
1173.308
1171.173
1167.548
1158.968
1184.454
1183.403
1182.307
1181.163
1179.973
1178.739
1177.467
1176.144
1174.736
1173.15
1171.12
1167.814
1160.199
1185.268
1184.252
1183.189
1182.077
1180.918
1179.713
1178.474
1177.194
1175.867
1174.466
1172.921
1171.028
1168.129
1161.806
1186.006
1185.025
1183.996
1182.918
1181.791
1180.617
1179.405
1178.155
1176.866
1175.532
1174.138
1172.638
1170.889
1168.421
1163.539
1186.711
1185.767
1184.775
1183.733
1182.641
1181.5
1180.32
1179.099
1177.838
1176.539
1175.199
1173.813
1172.354
1170.73
1168.642
1187.453
1186.547
1185.593
1184.589
1183.535
1182.432
1181.288
1180.101
1178.873
1177.605
1176.297
1174.956
1173.578
1172.147
1170.61
1188.223
1187.358
1186.444
1185.48
1184.466
1183.403
1182.298
1181.15
1179.959
1178.727
1177.453
1176.145
1174.805
1173.433
1172.022
1189.001
1188.176
1187.302
1186.38
1185.408
1184.387
1183.324
1182.218
1181.067
1179.874
1178.638
1177.365
1176.059
1174.723
1173.358
1189.769
1188.985
1188.153
1187.272
1186.343
1185.365
1184.345
1183.281
1182.174
1181.023
1179.828
1178.594
1177.325
1176.022
1174.691
1168.644
1166.911
1170.319
1168.694
1166.818
1171.945
1170.433
1168.717
1166.514
1173.577
1172.145
1170.583
1168.701
1165.898
1175.248
1173.882
1172.426
1170.779
1168.624
1164.828
1176.945
1175.642
1174.269
1172.774
1171
1168.449
1163.262
1178.545
1177.297
1175.994
1174.608
1173.062
1171.141
1168.162
1161.511
1180.007
1178.807
1177.559
1176.251
1174.847
1173.253
1171.206
1167.833
1159.945
1181.332
1180.174
1178.971
1177.719
1176.403
1174.984
1173.362
1171.217
1167.555
1158.82
1182.531
1181.412
1180.249
1179.04
1177.78
1176.457
1175.037
1173.399
1171.203
1167.397
1158.272
1183.616
1182.534
1181.407
1180.234
1179.015
1177.748
1176.428
1175.008
1173.371
1171.181
1167.395
1158.355
1184.593
1183.547
1182.455
1181.316
1180.131
1178.902
1177.636
1176.315
1174.899
1173.281
1171.151
1167.549
1159.049
1185.468
1184.457
1183.399
1182.294
1181.142
1179.945
1178.713
1177.441
1176.118
1174.709
1173.123
1171.102
1167.817
1160.273
1186.248
1185.272
1184.249
1183.178
1182.058
1180.892
1179.69
1178.45
1177.17
1175.843
1174.441
1172.9
1171.017
1168.136
1161.87
1186.951
1186.012
1185.024
1183.988
1182.902
1181.769
1180.597
1179.386
1178.135
1176.845
1175.511
1174.12
1172.627
1170.887
1168.434
1187.621
1186.719
1185.769
1184.77
1183.72
1182.622
1181.483
1180.303
1179.082
1177.822
1176.522
1175.186
1173.806
1172.354
1170.738
1188.325
1187.462
1186.55
1185.589
1184.578
1183.518
1182.417
1181.272
1180.086
1178.858
1177.589
1176.286
1174.95
1173.578
1172.155
1189.056
1188.232
1187.36
1186.44
1185.469
1184.449
1183.388
1182.284
1181.136
1179.945
1178.712
1177.442
1176.139
1174.805
1173.44
1189.793
1189.009
1188.178
1187.298
1186.369
1185.392
1184.373
1183.31
1182.203
1181.053
1179.859
1178.627
1177.358
1176.058
1174.727
1190.521
1189.777
1188.986
1188.148
1187.261
1186.326
1185.35
1184.331
1183.267
1182.16
1181.008
1179.815
1178.586
1177.321
1176.025
1170.29
1168.703
1166.966
1171.856
1170.369
1168.74
1166.858
1173.41
1171.987
1170.471
1168.749
1166.539
1174.981
1173.612
1172.174
1170.606
1168.717
1165.908
1176.588
1175.274
1173.902
1172.438
1170.784
1168.621
1164.842
1178.22
1176.961
1175.65
1174.269
1172.764
1170.983
1168.442
1163.29
1179.763
1178.554
1177.298
1175.986
1174.589
1173.036
1171.122
1168.155
1161.556
1181.175
1180.012
1178.804
1177.546
1176.228
1174.816
1173.227
1171.185
1167.828
1160.006
1182.457
1181.335
1180.169
1178.957
1177.695
1176.371
1174.956
1173.335
1171.195
1167.551
1158.892
1183.616
1182.534
1181.407
1180.234
1179.015
1177.748
1176.428
1175.008
1173.371
1171.181
1167.395
1158.355
1184.663
1183.619
1182.528
1181.392
1180.21
1178.984
1177.72
1176.4
1174.98
1173.344
1171.159
1167.398
1158.441
1185.603
1184.596
1183.542
1182.441
1181.293
1180.102
1178.876
1177.609
1176.287
1174.871
1173.253
1171.132
1167.554
1159.134
1186.441
1185.471
1184.452
1183.387
1182.273
1181.114
1179.92
1178.688
1177.415
1176.091
1174.681
1173.1
1171.089
1167.825
1160.351
1187.186
1186.252
1185.269
1184.239
1183.159
1182.033
1180.87
1179.668
1178.427
1177.146
1175.817
1174.419
1172.884
1171.01
1168.147
1187.855
1186.957
1186.011
1185.016
1183.972
1182.88
1181.749
1180.577
1179.366
1178.115
1176.824
1175.493
1174.107
1172.621
1170.889
1188.49
1187.629
1186.721
1185.764
1184.757
1183.701
1182.605
1181.467
1180.286
1179.066
1177.804
1176.508
1175.177
1173.803
1172.358
1189.156
1188.334
1187.464
1186.545
1185.577
1184.561
1183.503
1182.401
1181.257
1180.071
1178.842
1177.577
1176.278
1174.948
1173.583
1189.847
1189.064
1188.234
1187.356
1186.428
1185.452
1184.435
1183.374
1182.269
1181.121
1179.93
1178.699
1177.434
1176.136
1174.808
1190.544
1189.801
1189.011
1188.173
1187.287
1186.353
1185.377
1184.358
1183.295
1182.189
1181.038
1179.847
1178.618
1177.355
1176.06
1191.231
1190.528
1189.778
1188.982
1188.137
1187.245
1186.312
1185.336
1184.316
1183.253
1182.144
1180.994
1179.806
1178.581
1177.322
1171.817
1170.34
1168.749
1167.006
1173.318
1171.899
1170.407
1168.772
1166.882
1174.817
1173.446
1172.018
1170.495
1168.766
1166.547
1176.333
1175.01
1173.636
1172.191
1170.615
1168.717
1165.916
1177.883
1176.611
1175.29
1173.91
1172.438
1170.775
1168.618
1164.857
1179.455
1178.234
1176.967
1175.647
1174.256
1172.744
1170.968
1168.435
1163.318
1180.943
1179.771
1178.554
1177.288
1175.966
1174.562
1173.013
1171.103
1168.147
1161.6
1182.307
1181.18
1180.008
1178.791
1177.523
1176.197
1174.79
1173.202
1171.164
1167.822
1160.065
1183.544
1182.46
1181.33
1180.155
1178.933
1177.663
1176.343
1174.927
1173.308
1171.173
1167.548
1158.968
1184.663
1183.619
1182.528
1181.392
1180.21
1178.984
1177.72
1176.4
1174.98
1173.344
1171.159
1167.398
1158.441
1185.67
1184.665
1183.613
1182.514
1181.369
1180.18
1178.957
1177.692
1176.371
1174.951
1173.315
1171.14
1167.405
1158.532
1186.573
1185.605
1184.59
1183.528
1182.419
1181.265
1180.076
1178.849
1177.581
1176.259
1174.841
1173.228
1171.118
1167.565
1159.223
1187.375
1186.444
1185.466
1184.44
1183.366
1182.246
1181.09
1179.896
1178.663
1177.389
1176.063
1174.656
1173.081
1171.08
1167.838
1188.084
1187.19
1186.248
1185.259
1184.22
1183.134
1182.011
1180.847
1179.645
1178.404
1177.121
1175.794
1174.401
1172.873
1171.008
1188.718
1187.86
1186.956
1186.003
1185
1183.95
1182.861
1181.729
1180.557
1179.345
1178.093
1176.805
1175.478
1174.099
1172.618
1189.317
1188.497
1187.63
1186.715
1185.751
1184.738
1183.684
1182.588
1181.45
1180.269
1179.047
1177.789
1176.497
1175.171
1173.804
1189.945
1189.164
1188.336
1187.459
1186.534
1185.56
1184.545
1183.487
1182.386
1181.242
1180.054
1178.828
1177.568
1176.274
1174.95
1190.597
1189.855
1189.066
1188.23
1187.345
1186.412
1185.438
1184.42
1183.359
1182.254
1181.105
1179.916
1178.69
1177.43
1176.137
1191.254
1190.552
1189.802
1189.006
1188.162
1187.271
1186.338
1185.363
1184.344
1183.281
1182.173
1181.024
1179.837
1178.613
1177.355
1191.902
1191.238
1190.529
1189.774
1188.971
1188.121
1187.231
1186.298
1185.322
1184.302
1183.237
1182.13
1180.985
1179.801
1178.58
1173.277
1171.86
1170.378
1168.782
1167.03
1174.727
1173.354
1171.93
1170.432
1168.79
1166.889
1176.178
1174.849
1173.472
1172.036
1170.507
1168.768
1166.553
1177.642
1176.359
1175.03
1173.648
1172.195
1170.611
1168.717
1165.925
1179.136
1177.903
1176.624
1175.295
1173.906
1172.425
1170.767
1168.615
1164.872
1180.65
1179.467
1178.239
1176.963
1175.634
1174.235
1172.726
1170.953
1168.428
1163.345
1182.084
1180.95
1179.77
1178.544
1177.269
1175.938
1174.538
1172.991
1171.084
1168.139
1161.644
1183.4
1182.311
1181.176
1179.996
1178.768
1177.493
1176.171
1174.763
1173.176
1171.142
1167.815
1160.13
1184.593
1183.547
1182.455
1181.316
1180.131
1178.902
1177.636
1176.315
1174.899
1173.281
1171.151
1167.549
1159.049
1185.67
1184.665
1183.613
1182.514
1181.369
1180.18
1178.957
1177.692
1176.371
1174.951
1173.315
1171.14
1167.405
1158.532
1186.638
1185.672
1184.659
1183.599
1182.492
1181.34
1180.154
1178.93
1177.664
1176.342
1174.92
1173.289
1171.126
1167.418
1158.627
1187.503
1186.575
1185.6
1184.577
1183.507
1182.391
1181.24
1180.051
1178.823
1177.554
1176.229
1174.814
1173.207
1171.109
1167.58
1188.268
1187.377
1186.44
1185.454
1184.42
1183.34
1182.223
1181.066
1179.871
1178.637
1177.361
1176.037
1174.635
1173.066
1171.076
1188.941
1188.087
1187.187
1186.238
1185.24
1184.196
1183.113
1181.989
1180.825
1179.622
1178.379
1177.098
1175.776
1174.387
1172.866
1189.539
1188.723
1187.859
1186.947
1185.987
1184.979
1183.931
1182.841
1181.71
1180.537
1179.324
1178.074
1176.79
1175.468
1174.094
1190.102
1189.324
1188.498
1187.625
1186.702
1185.732
1184.721
1183.668
1182.571
1181.433
1180.251
1179.031
1177.777
1176.49
1175.17
1190.693
1189.952
1189.165
1188.331
1187.447
1186.516
1185.545
1184.53
1183.472
1182.37
1181.225
1180.04
1178.818
1177.562
1176.274
1191.307
1190.605
1189.857
1189.062
1188.218
1187.328
1186.397
1185.423
1184.405
1183.344
1182.238
1181.091
1179.906
1178.685
1177.429
1191.925
1191.262
1190.553
1189.798
1188.995
1188.146
1187.256
1186.324
1185.348
1184.329
1183.265
1182.159
1181.014
1179.831
1178.612
1192.533
1191.909
1191.24
1190.525
1189.763
1188.955
1188.107
1187.217
1186.284
1185.307
1184.286
1183.223
1182.12
1180.978
1179.798
1174.687
1173.313
1171.891
1170.404
1168.8
1167.037
1176.092
1174.759
1173.38
1171.95
1170.445
1168.793
1166.896
1177.495
1176.205
1174.869
1173.486
1172.043
1170.505
1168.77
1166.56
1178.908
1177.665
1176.375
1175.039
1173.649
1172.187
1170.607
1168.717
1165.934
1180.347
1179.153
1177.913
1176.626
1175.289
1173.892
1172.415
1170.759
1168.612
1164.888
1181.804
1180.661
1179.47
1178.233
1176.948
1175.611
1174.216
1172.708
1170.938
1168.421
1163.373
1183.186
1182.09
1180.948
1179.76
1178.524
1177.241
1175.915
1174.514
1172.968
1171.064
1168.131
1161.693
1184.454
1183.403
1182.307
1181.163
1179.973
1178.739
1177.467
1176.144
1174.736
1173.15
1171.12
1167.814
1160.199
1185.603
1184.596
1183.542
1182.441
1181.293
1180.102
1178.876
1177.609
1176.287
1174.871
1173.253
1171.132
1167.554
1159.134
1186.638
1185.672
1184.659
1183.599
1182.492
1181.34
1180.154
1178.93
1177.664
1176.342
1174.92
1173.289
1171.126
1167.418
1158.627
1187.567
1186.64
1185.667
1184.646
1183.577
1182.464
1181.315
1180.128
1178.903
1177.636
1176.312
1174.893
1173.268
1171.117
1167.434
1188.393
1187.505
1186.57
1185.587
1184.556
1183.48
1182.367
1181.215
1180.025
1178.797
1177.525
1176.202
1174.792
1173.192
1171.105
1189.121
1188.27
1187.373
1186.428
1185.434
1184.395
1183.317
1182.2
1181.042
1179.846
1178.61
1177.336
1176.016
1174.619
1173.056
1189.758
1188.944
1188.084
1187.176
1186.22
1185.217
1184.175
1183.092
1181.967
1180.803
1179.597
1178.356
1177.079
1175.761
1174.378
1190.32
1189.544
1188.721
1187.851
1186.932
1185.966
1184.96
1183.912
1182.822
1181.69
1180.516
1179.304
1178.058
1176.778
1175.462
1190.847
1190.109
1189.324
1188.492
1187.611
1186.684
1185.716
1184.705
1183.651
1182.554
1181.414
1180.234
1179.019
1177.769
1176.487
1191.401
1190.7
1189.954
1189.16
1188.319
1187.43
1186.501
1185.53
1184.515
1183.456
1182.353
1181.21
1180.029
1178.811
1177.56
1191.976
1191.314
1190.606
1189.852
1189.05
1188.202
1187.314
1186.382
1185.408
1184.39
1183.328
1182.224
1181.081
1179.9
1178.683
1192.555
1191.931
1191.263
1190.548
1189.787
1188.979
1188.132
1187.242
1186.31
1185.334
1184.313
1183.25
1182.148
1181.007
1179.828
1193.124
1192.539
1191.91
1191.235
1190.514
1189.747
1188.941
1188.093
1187.203
1186.269
1185.291
1184.271
1183.212
1182.112
1180.974
1176.054
1174.719
1173.339
1171.911
1170.417
1168.803
1167.044
1177.413
1176.119
1174.78
1173.395
1171.957
1170.444
1168.796
1166.902
1178.768
1177.518
1176.222
1174.879
1173.488
1172.037
1170.502
1168.771
1166.567
1180.13
1178.927
1177.678
1176.381
1175.036
1173.639
1172.18
1170.602
1168.717
1165.944
1181.515
1180.362
1179.162
1177.914
1176.618
1175.273
1173.879
1172.403
1170.75
1168.609
1164.904
1182.917
1181.814
1180.662
1179.464
1178.218
1176.925
1175.592
1174.197
1172.691
1170.923
1168.413
1163.406
1184.247
1183.191
1182.088
1180.938
1179.74
1178.497
1177.218
1175.891
1174.49
1172.945
1171.044
1168.127
1161.747
1185.468
1184.457
1183.399
1182.294
1181.142
1179.945
1178.713
1177.441
1176.118
1174.709
1173.123
1171.102
1167.817
1160.273
1186.573
1185.605
1184.59
1183.528
1182.419
1181.265
1180.076
1178.849
1177.581
1176.259
1174.841
1173.228
1171.118
1167.565
1159.223
1187.567
1186.64
1185.667
1184.646
1183.577
1182.464
1181.315
1180.128
1178.903
1177.636
1176.312
1174.893
1173.268
1171.117
1167.434
1188.456
1187.569
1186.635
1185.654
1184.625
1183.55
1182.439
1181.29
1180.102
1178.876
1177.607
1176.284
1174.87
1173.252
1171.112
1189.243
1188.395
1187.5
1186.557
1185.567
1184.53
1183.457
1182.343
1181.19
1180
1178.768
1177.498
1176.179
1174.774
1173.18
1189.934
1189.123
1188.266
1187.361
1186.409
1185.41
1184.373
1183.295
1182.176
1181.018
1179.82
1178.586
1177.315
1175.999
1174.606
1190.534
1189.761
1188.941
1188.074
1187.159
1186.197
1185.196
1184.154
1183.07
1181.946
1180.779
1179.575
1178.337
1177.065
1175.751
1191.061
1190.325
1189.542
1188.713
1187.835
1186.911
1185.948
1184.942
1183.893
1182.803
1181.669
1180.496
1179.288
1178.046
1176.771
1191.552
1190.854
1190.109
1189.318
1188.479
1187.593
1186.668
1185.699
1184.688
1183.634
1182.536
1181.397
1180.221
1179.01
1177.765
1192.068
1191.408
1190.701
1189.949
1189.148
1188.302
1187.415
1186.486
1185.514
1184.499
1183.439
1182.338
1181.198
1180.021
1178.808
1192.606
1191.983
1191.315
1190.601
1189.841
1189.034
1188.188
1187.299
1186.368
1185.393
1184.374
1183.313
1182.212
1181.073
1179.896
1193.146
1192.561
1191.932
1191.258
1190.537
1189.771
1188.965
1188.118
1187.228
1186.295
1185.318
1184.298
1183.239
1182.141
1181.003
1193.676
1193.13
1192.54
1191.905
1191.224
1190.498
1189.733
1188.927
1188.079
1187.188
1186.253
1185.277
1184.26
1183.204
1182.108
1177.377
1176.081
1174.74
1173.354
1171.919
1170.416
1168.806
1167.05
1178.69
1177.436
1176.136
1174.79
1173.398
1171.952
1170.442
1168.798
1166.908
1179.996
1178.788
1177.532
1176.229
1174.879
1173.479
1172.032
1170.5
1168.772
1166.574
1181.308
1180.147
1178.938
1177.681
1176.376
1175.024
1173.629
1172.173
1170.598
1168.716
1165.953
1182.641
1181.529
1180.369
1179.161
1177.904
1176.601
1175.259
1173.866
1172.392
1170.741
1168.605
1164.926
1183.989
1182.926
1181.815
1180.656
1179.448
1178.195
1176.905
1175.572
1174.178
1172.672
1170.907
1168.411
1163.445
1185.268
1184.252
1183.189
1182.077
1180.918
1179.713
1178.474
1177.194
1175.867
1174.466
1172.921
1171.028
1168.129
1161.806
1186.441
1185.471
1184.452
1183.387
1182.273
1181.114
1179.92
1178.688
1177.415
1176.091
1174.681
1173.1
1171.089
1167.825
1160.351
1187.503
1186.575
1185.6
1184.577
1183.507
1182.391
1181.24
1180.051
1178.823
1177.554
1176.229
1174.814
1173.207
1171.109
1167.58
1188.456
1187.569
1186.635
1185.654
1184.625
1183.55
1182.439
1181.29
1180.102
1178.876
1177.607
1176.284
1174.87
1173.252
1171.112
1189.304
1188.457
1187.563
1186.622
1185.633
1184.598
1183.527
1182.415
1181.265
1180.076
1178.848
1177.58
1176.261
1174.851
1173.24
1190.054
1189.245
1188.39
1187.487
1186.537
1185.541
1184.508
1183.433
1182.319
1181.166
1179.972
1178.742
1177.476
1176.161
1174.76
1190.707
1189.936
1189.119
1188.255
1187.342
1186.385
1185.388
1184.351
1183.272
1182.153
1180.993
1179.796
1178.565
1177.298
1175.986
1191.271
1190.537
1189.757
1188.931
1188.057
1187.136
1186.177
1185.176
1184.133
1183.049
1181.922
1180.757
1179.556
1178.322
1177.054
1191.762
1191.065
1190.323
1189.534
1188.698
1187.815
1186.893
1185.929
1184.923
1183.874
1182.782
1181.649
1180.48
1179.276
1178.038
1192.218
1191.559
1190.854
1190.103
1189.305
1188.461
1187.578
1186.651
1185.683
1184.671
1183.615
1182.518
1181.383
1180.211
1179.004
1192.697
1192.075
1191.408
1190.696
1189.937
1189.132
1188.287
1187.4
1186.471
1185.499
1184.482
1183.423
1182.326
1181.19
1180.016
1193.196
1192.612
1191.984
1191.31
1190.59
1189.825
1189.02
1188.173
1187.285
1186.353
1185.377
1184.359
1183.301
1182.204
1181.069
1193.698
1193.152
1192.562
1191.928
1191.247
1190.522
1189.757
1188.951
1188.104
1187.213
1186.279
1185.303
1184.287
1183.231
1182.136
1194.19
1193.682
1193.131
1192.535
1191.894
1191.209
1190.485
1189.72
1188.913
1188.065
1187.173
1186.239
1185.265
1184.252
1183.199
1178.656
1177.4
1176.098
1174.751
1173.357
1171.914
1170.415
1168.808
1167.056
1179.922
1178.711
1177.451
1176.144
1174.79
1173.39
1171.948
1170.441
1168.799
1166.915
1181.181
1180.015
1178.8
1177.536
1176.225
1174.868
1173.472
1172.026
1170.497
1168.773
1166.581
1182.442
1181.324
1180.156
1178.94
1177.674
1176.362
1175.013
1173.62
1172.166
1170.593
1168.716
1165.969
1183.723
1182.653
1181.534
1180.367
1179.15
1177.886
1176.586
1175.244
1173.853
1172.38
1170.732
1168.607
1164.953
1185.018
1183.996
1182.926
1181.807
1180.639
1179.425
1178.175
1176.886
1175.552
1174.158
1172.653
1170.896
1168.414
1163.489
1186.248
1185.272
1184.249