/*--------------------------------*- C++ -*----------------------------------*\
| =========                 |                                                 |
| \\      /  F ield         | OpenFOAM: The Open Source CFD Toolbox           |
|  \\    /   O peration     | Version:  2306                                  |
|   \\  /    A nd           | Website:  www.openfoam.com                      |
|    \\/     M anipulation  |                                                 |
\*---------------------------------------------------------------------------*/
FoamFile
{
    version     2.0;
    format      ascii;
    arch        "LSB;label=32;scalar=64";
    class       volVectorField;
    location    "1.5/phiEA";
    object      i;
}
// * * * * * * * * * * * * * * * * * * * * * * * * * * * * * * * * * * * * * //

dimensions      [0 -2 0 0 0 1 0];

internalField   nonuniform List<vector> 
20000
(
(-597.5674 2374.768 1957.284)
(-628.0263 7630.031 1993.88)
(-1191.477 2070.178 1785.468)
(-596.8801 2373.304 5793.026)
(-694.3965 14414.76 2067.898)
(-1243.73 6661.739 1814.057)
(-627.307 7625.606 5901.673)
(-1102.112 1852.237 1640.043)
(-1190.208 2069.035 5288.563)
(-595.5495 2370.422 9494.186)
(-807.5001 23450.01 2166.786)
(-1357.902 12620.02 1871.425)
(-693.6106 14407.84 6121.424)
(-1139.64 5965.774 1664.371)
(-1242.412 6658.301 5373.649)
(-625.9142 7616.895 9672.979)
(-937.8046 1694.893 1523.901)
(-1101.066 1851.264 4861.116)
(-1187.749 2066.775 8675.438)
(-593.6051 2366.152 13105.26)
(-979.7254 33438.98 2220.616)
(-1553.297 20596.72 1945.374)
(-806.6145 23443.9 6414.652)
(-1222.074 11319.09 1713.089)
(-1356.483 12614.77 5544.429)
(-692.0886 14394.24 10034.66)
(-965.7392 5462.122 1545.479)
(-1138.566 5962.853 4933.618)
(-1239.857 6651.504 8815.879)
(-623.8786 7603.987 13353.01)
(-797.7472 1572.892 1427.713)
(-936.9553 1694.03 4519.449)
(-1099.035 1849.337 7980.846)
(-1184.154 2063.417 11983.73)
(-591.0634 2360.512 15418.55)
(-1206.17 37997.12 2084.085)
(-1852.316 29452.28 1972.514)
(-978.733 33442.29 6571.686)
(-1364.28 18505.88 1774.986)
(-1551.729 20592.68 5764.428)
(-804.8992 23432 10516.68)
(-1027.28 10373.62 1588.662)
(-1220.943 11314.66 5078.846)
(-1353.732 12604.39 9097.869)
(-689.8635 14374.09 13854.33)
(-819.9625 5071.025 1447.292)
(-964.8709 5459.531 4583.812)
(-1136.481 5957.065 8100.705)
(-1236.122 6641.404 12178.79)
(-621.2173 7586.932 15710.98)
(-688.7702 1472.74 1345.268)
(-797.0327 1572.108 4236.275)
(-935.3053 1692.318 7425.106)
(-1096.064 1846.47 11031.57)
(-1179.454 2058.973 14105.78)
(-806.8855 3228.967 20278.91)
(-1428.524 34231.47 2010.265)
(-2247.181 33509.14 1824.726)
(-1205.133 38005.54 6156.535)
(-1583.884 26500.14 1792.597)
(-1850.604 29457.11 5843.667)
(-976.8133 33449.31 10769.9)
(-1133.895 16978.62 1643.093)
(-1363.071 18502.7 5263.293)
(-1548.691 20584.75 9460.948)
(-802.3916 23414.49 14522.13)
(-868.9962 9637.534 1486.469)
(-1026.373 10369.71 4712.653)
(-1218.746 11305.9 8340.901)
(-1349.708 12588.96 12570.64)
(-686.9538 14347.47 16302.97)
(-707.3085 4749.632 1363.279)
(-819.2337 5068.675 4294.711)
(-963.1836 5454.393 7531.62)
(-1133.429 5948.45 11198.25)
(-1231.238 6628.028 14336.36)
(-848.0642 10379.81 20689.27)
(-604.2929 1387.508 1273.048)
(-688.1515 1472.019 3993.393)
(-795.643 1570.554 6964.112)
(-932.8884 1689.769 10269.26)
(-1092.177 1842.67 12990.98)
(-1610.666 2817.18 18553.31)
(-803.6988 3220.859 18818.12)
(-1610.279 25994.16 1991.523)
(-2635.442 30190.38 1736.581)
(-1427.43 34235.17 5930.999)
(-1876.052 30165.87 1650.659)
(-2245.447 33518.57 5397.574)
(-1203.134 38022.75 10066.51)
(-1299.269 24334.57 1655.87)
(-1582.617 26505.11 5314.732)
(-1847.288 29466.96 9588.912)
(-974.009 33460.3 14868.12)
(-954.1729 15785.98 1535.602)
(-1132.937 16975.93 4875.019)
(-1360.723 18496.44 8645.91)
(-1544.246 20573.04 13075.22)
(-799.1116 23391.45 17091.76)
(-748.284 9031.516 1399.325)
(-868.2388 9634.002 4411.675)
(-1024.611 10361.97 7744.94)
(-1215.531 11292.86 11532.45)
(-1344.444 12568.53 14799.85)
(-937.8528 19637.3 21520.6)
(-620.2564 4475.887 1289.777)
(-706.6784 4747.469 4047.179)
(-817.816 5064.009 7060.892)
(-960.7116 5446.738 10417.5)
(-1129.436 5937.03 13188.18)
(-1681.414 9070.136 18880.14)
(-844.7186 10355.27 19251.04)
(-537.9123 1313.105 1208.715)
(-603.7467 1386.839 3780.502)
(-686.9471 1470.588 6568.392)
(-793.6058 1568.237 9636.52)
(-929.7251 1686.389 12098.21)
(-1492.161 2521.483 17087.78)
(-1604.773 2810.661 17211.6)
(-800.4594 3211.649 19069)
(-1735.894 15987.97 1992.061)
(-2953.064 22920.46 1703.995)
(-1609.129 25994.89 5872.131)
(-2163.764 27172.64 1564.18)
(-2633.657 30195.21 5131.49)
(-1425.326 34242.85 9682.628)
(-1519.978 27710.34 1521.235)
(-1874.838 30175 4887.104)
(-2242.103 33537.62 8839.466)
(-1200.224 38049.03 13869.65)
(-1086.66 22639.3 1545.441)
(-1298.281 24339.45 4912.349)
(-1580.159 26515.19 8729.07)
(-1842.44 29481.97 13250.44)
(-970.3426 33475.41 17497.5)
(-819.6035 14801.98 1444.372)
(-953.378 15783.62 4558.346)
(-1131.075 16970.63 8013.776)
(-1357.283 18487.17 11957.01)
(-1538.431 20557.56 15397.11)
(-1091.126 32045.78 22622.64)
(-655.5801 8514.584 1323.264)
(-747.6312 9028.272 4154.849)
(-866.765 9626.989 7254.697)
(-1022.028 10350.43 10714.57)
(-1211.322 11275.55 13583.84)
(-1836.112 17206.68 19538.12)
(-934.1781 19599.2 20129.02)
(-551.9605 4236.76 1224.36)
(-619.7007 4473.878 3830.478)
(-705.4516 4743.174 6657.525)
(-815.7373 5057.052 9771.3)
(-957.4758 5436.581 12273.7)
(-1543.102 8125.352 17368.65)
(-1675.273 9050.475 17562.34)
(-841.3093 10327.37 19557.01)
(-484.6032 1247.026 1150.732)
(-537.423 1312.48 3590.75)
(-602.6824 1385.509 6221.272)
(-685.1801 1468.454 9093.043)
(-790.9381 1565.163 11356.93)
(-1270.426 2307.771 15914.59)
(-1487.288 2515.856 15846.9)
(-1598.781 2803.151 17436.17)
(-797.1675 3201.339 19319.13)
(-1799.619 5376.629 1994.967)
(-3172.74 14094.57 1694.638)
(-1734.704 15987.84 5872.19)
(-2399.188 20621.17 1529.982)
(-2951.218 22922.14 5032.833)
(-1606.922 25996.51 9579.412)
(-1737.16 24959.02 1438.576)
(-2162.572 27177.46 4626.726)
(-2630.224 30204.97 8392.703)
(-1422.27 34254.66 13323.66)
(-1263.812 25786.96 1417.701)
(-1519.046 27719.03 4507.074)
(-1872.49 30193.39 8012.244)
(-2237.23 33566.42 12193.33)
(-1196.429 38084.53 16297.54)
(-930.7591 21238.18 1452.223)
(-1085.845 22644.02 4587.101)
(-1296.359 24349.29 8074.185)
(-1576.559 26530.46 12071.1)
(-1836.1 29502.23 15603.13)
(-1325.392 45931.98 23141.61)
(-717.1579 13961.23 1365.003)
(-818.9211 14799.87 4289.399)
(-951.8304 15778.96 7497.767)
(-1128.345 16962.76 11089.16)
(-1352.779 18474.9 14086.94)
(-2101.34 28170.39 20383.72)
(-1086.969 32014.86 21281.73)
(-583.0745 8062.501 1255.684)
(-655.0055 8511.575 3930.545)
(-746.3595 9021.827 6836.04)
(-864.6032 9616.527 10041.36)
(-1018.647 10335.1 12625.61)
(-1655.086 15438.04 17933.23)
(-1829.46 17176.7 18270.23)
(-930.4177 19556.07 20547.76)
(-497.1578 4024.265 1165.439)
(-551.4632 4234.882 3637.503)
(-618.6177 4469.885 6304.133)
(-703.6514 4736.764 9217.235)
(-813.0149 5047.815 11516.56)
(-1308.377 7440.88 16165.32)
(-1538.081 8108.394 16150.75)
(-1669.013 9027.79 17836.47)
(-837.8365 10296.12 19862.19)
(-440.8996 1187.559 1097.967)
(-484.1602 1246.438 3419.631)
(-536.4688 1311.235 5911.659)
(-601.1198 1383.525 8616.029)
(-682.8651 1465.621 10719.98)
(-1080.813 2141.969 14940.77)
(-1266.463 2302.733 14755.52)
(-1482.337 2509.33 16048.83)
(-1592.692 2794.649 17660.1)
(-793.8233 3189.927 28519.71)
(-1799.619 -5376.629 1994.967)
(-3284.244 4739.376 1692.567)
(-1798.41 5376.513 5880.189)
(-2562.041 12676.17 1518.553)
(-3170.846 14095.03 5004.292)
(-1732.422 15987.65 9576.507)
(-1914.556 18937.69 1405.094)
(-2397.992 20623 4523.705)
(-2947.671 22925.55 8226.539)
(-1603.718 25999.13 13173.89)
(-1438.044 23226.86 1339.011)
(-1736.259 24963.66 4258.463)
(-2160.272 27187.17 7576.38)
(-2625.232 30219.73 11564.2)
(-1418.288 34270.68 15641.78)
(-1079.597 24196.5 1330.772)
(-1263.051 25795.22 4202.774)
(-1517.241 27736.49 7395.53)
(-1869.062 30221.11 11061.76)
(-2230.872 33605.07 14337.88)
(-1635.272 52283.33 21266.13)
(-813.2798 20039.37 1371.422)
(-930.063 21242.72 4312.349)
(-1084.26 22653.53 7544.348)
(-1293.542 24364.18 11172.2)
(-1571.846 26551 14221.45)
(-2508.804 40490.52 20645.39)
(-1320.771 45963.39 21734.51)
(-637.3811 13224.98 1294.647)
(-716.559 13959.3 4055.272)
(-817.5913 14795.68 7059.181)
(-949.5596 15772.03 10380.31)
(-1124.768 16952.33 13069.83)
(-1848.649 25318.86 18649.99)
(-2093.957 28148.94 19175.25)
(-1082.7 31981.56 21840.5)
(-524.9847 7660.378 1194.895)
(-582.561 8059.689 3731.139)
(-653.8853 8505.592 6470.125)
(-744.4929 9012.206 9466.116)
(-861.7711 9602.628 11836.62)
(-1392.054 14151.2 16669.11)
(-1649.766 15412.36 16763.35)
(-1822.649 17142.16 18646.14)
(-926.5717 19507.86 20966.05)
(-452.251 3832.945 1111.85)
(-496.7078 4022.498 3463.595)
(-550.493 4231.145 5989.206)
(-617.0274 4463.924 8731.53)
(-701.2925 4728.251 10867.12)
(-1111.009 6909.071 15169.35)
(-1304.312 7425.702 15028.14)
(-1532.965 8088.694 16397.6)
(-1662.635 9002.077 18109.95)
(-834.3004 10261.5 29402.16)
(-404.3518 1133.511 1049.592)
(-440.495 1187.004 3263.83)
(-483.2955 1245.267 5632.256)
(-535.067 1309.378 8190.312)
(-599.0714 1380.889 10160.71)
(-933.1134 2005.808 14104.13)
(-1077.473 2137.366 13850.44)
(-1262.44 2296.866 14940.35)
(-1477.305 2501.905 16250.19)
(-1586.505 2785.157 26062.72)
(-379.0813 1529.276 19841.82)
(-1735.894 -15987.97 1992.061)
(-3284.244 -4739.376 1692.567)
(-1798.41 -5376.513 5880.189)
(-2644.719 4261.585 1515.248)
(-3282.326 4739.459 4997.881)
(-1796.09 5376.309 9588.455)
(-2037.058 11639.26 1393.373)
(-2560.836 12676.76 4489.236)
(-3167.208 14095.97 8178.069)
(-1729.111 15987.47 13166.72)
(-1580.19 17622.18 1306.785)
(-1913.663 18939.5 4157.772)
(-2395.688 20626.67 7403.871)
(-2942.516 22930.72 11329.79)
(-1599.546 26002.79 15459.93)
(-1225.957 21795.24 1255.832)
(-1437.313 23231.3 3966.237)
(-1734.518 24972.99 6979.887)
(-2156.921 27201.8 10449.39)
(-2618.727 30239.51 13586.8)
(-1939.268 47023.76 20227.06)
(-942.1298 22834.99 1255.7)
(-1078.949 24204.35 3947.066)
(-1261.572 25811.8 6901.159)
(-1514.602 27762.8 10217.39)
(-1864.586 30258.25 13014.8)
(-3050.193 46144.56 18720.58)
(-1630.635 52346.8 19406.34)
(-722.2573 18988.46 1299.985)
(-812.6708 20043.74 4074.044)
(-928.7069 21251.87 7096.396)
(-1081.934 22667.88 10444.47)
(-1289.852 24384.16 13168.01)
(-2148.779 36443.44 18819.46)
(-2500.791 40526.73 19399.37)
(-1316.051 46006.99 22275.48)
(-573.604 12569.4 1231.474)
(-636.8469 13223.21 3847.616)
(-715.3908 13955.49 6677.093)
(-815.6385 14789.45 9777.455)
(-946.5836 15762.84 12238.79)
(-1537.306 23233.46 17304.46)
(-1842.922 25301.55 17538.48)
(-2086.367 28125.22 19678.5)
(-1078.321 31945.75 22400.67)
(-477.4271 7298.039 1139.664)
(-524.5207 7657.737 3551.672)
(-581.559 8054.096 6144.595)
(-652.2397 8496.656 8963.044)
(-742.0462 8999.418 11162.19)
(-1177.714 13148.76 15628.65)
(-1387.783 14128.29 15577.69)
(-1644.316 15382.53 17102.52)
(-1815.679 17103.02 19021.68)
(-922.6402 19454.53 31198.66)
(-414.7082 3658.989 1062.742)
(-451.8402 3831.277 3305.341)
(-495.8292 4018.983 5705.205)
(-549.0675 4225.564 8298.443)
(-614.9425 4456.004 10297.59)
(-958.3207 6471.875 14315.23)
(-1107.592 6895.203 14099.92)
(-1300.174 7407.993 15254.41)
(-1527.753 8066.247 16643.87)
(-1656.14 8973.327 26800.34)
(-398.2546 4931.272 20589.81)
(-373.2756 1083.994 1004.965)
(-403.9798 1132.985 3120.921)
(-439.7047 1185.899 5377.701)
(-482.0244 1243.52 7805.922)
(-533.2284 1306.91 9661.372)
(-818.5856 1889.896 13369.56)
(-930.2159 2001.55 13073.39)
(-1074.085 2131.989 14021.88)
(-1258.356 2290.17 15124.68)
(-1472.195 2493.582 23974.15)
(-760.2646 1337.544 18120.68)
(-342.6543 1349.513 21412.03)
(-1610.279 -25994.16 1991.523)
(-3172.74 -14094.57 1694.638)
(-1734.704 -15987.84 5872.19)
(-2644.719 -4261.585 1515.248)
(-3282.326 -4739.459 4997.881)
(-1796.09 -5376.309 9588.455)
(-2099.179 3912.595 1389.765)
(-2643.508 4261.718 4479.254)
(-3278.641 4739.632 8166.997)
(-1792.724 5376.035 13182.01)
(-1678.238 10829.94 1295.282)
(-2036.165 11639.87 4122.529)
(-2558.514 12677.95 7346.08)
(-3161.924 14097.41 11261.01)
(-1724.8 15987.33 15449.18)
(-1345.292 16535.75 1224.963)
(-1579.47 17623.93 3869.405)
(-1911.938 18943.13 6811.624)
(-2392.333 20632.21 10207.09)
(-2935.803 22937.68 13306.86)
(-2187.573 35666.52 19914.99)
(-1068.84 20569.91 1184.233)
(-1225.337 21799.47 3721.883)
(-1435.898 23240.2 6505.976)
(-1731.977 24987.02 9634.003)
(-2152.551 27221.36 12284.84)
(-3581.903 41500.75 17579.52)
(-1934.491 47053.83 18091.53)
(-836.1337 21640.9 1189.499)
(-941.5647 22842.48 3726.075)
(-1077.69 24220.12 6485.329)
(-1259.41 25836.76 9540.002)
(-1511.154 27798.02 12027.21)
(-2550.609 41552.33 16997.39)
(-3042.406 46209.59 17097.49)
(-1626.036 52429.04 19354.02)
(-649.6685 18051.85 1235.969)
(-721.7155 18992.66 3863.228)
(-811.4833 20052.54 6707.564)
(-926.7159 21265.68 9828.822)
(-1078.886 22687.14 12314.87)
(-1763.541 33470.92 17427.22)
(-2142.802 36478.9 17680.42)
(-2492.587 40573.63 19890.92)
(-1311.232 46062.85 22821.85)
(-521.4529 11978.15 1174.156)
(-573.122 12567.76 3661.056)
(-635.8042 13219.7 6337.965)
(-713.6741 13949.8 9251.958)
(-813.0779 14781.17 11531.77)
(-1293.816 21603.98 16205.5)
(-1532.761 23218.58 16269.18)
(-1837.025 25282.17 17993.35)
(-2078.569 28099.14 20183.06)
(-1073.83 31907.32 33527.9)
(-437.6903 6968.359 1089.093)
(-477.0039 7295.547 3388.528)
(-523.6143 7652.48 5851.42)
(-580.0862 8045.739 8515.244)
(-650.0818 8484.775 10572.15)
(-1014.082 12323.14 14739.46)
(-1174.139 13127.87 14602.85)
(-1383.412 14101.56 15889.12)
(-1638.738 15348.53 17441.38)
(-1808.55 17059.24 28298.77)
(-440.2327 9420.095 22130.7)
(-382.7933 3499.56 1017.455)
(-414.3307 3657.409 3160.247)
(-451.0376 3827.957 5446.601)
(-494.5374 4013.732 7907.671)
(-547.1976 4218.147 9789.554)
(-840.2978 6099.383 13566.24)
(-955.3601 6459.045 13304.46)
(-1104.115 6878.974 14310.02)
(-1295.962 7387.751 15480.16)
(-1522.446 8041.047 24622.29)
(-793.3538 4319.759 18755.97)
(-359.2565 4378.405 22442.13)
(-346.462 1038.334 963.5819)
(-372.9316 1083.495 2989.022)
(-403.2525 1131.938 5144.067)
(-438.5422 1184.248 7455.53)
(-480.3564 1241.197 9210.335)
(-728.5927 1788.686 12713.71)
(-816.022 1885.924 12391.46)
(-927.2775 1996.565 13233.83)
(-1070.647 2125.84 14192.85)
(-1254.211 2282.647 22308.5)
(-708.8545 1198.384 16656.45)
(-692.8279 1183.491 19537.68)
(-304.1071 1117.238 22372.86)
(-1428.524 -34231.47 2010.265)
(-2953.064 -22920.46 1703.995)
(-1609.129 -25994.89 5872.131)
(-2562.041 -12676.17 1518.553)
(-3170.846 -14095.03 5004.292)
(-1732.422 -15987.65 9576.507)
(-2099.179 -3912.595 1389.765)
(-2643.508 -4261.717 4479.254)
(-3278.641 -4739.632 8166.997)
(-1792.724 -5376.035 13182.01)
(-1727.919 3640.376 1291.657)
(-2098.285 3912.739 4111.686)
(-2641.174 4261.985 7329.324)
(-3273.289 4739.901 11245.11)
(-1788.342 5375.697 15466.32)
(-1427.556 10161.97 1213.836)
(-1677.52 10830.54 3834.859)
(-2034.441 11641.1 6752.745)
(-2555.135 12679.74 10125.86)
(-3155.045 14099.36 13224.45)
(-2359.147 21925.33 19874.25)
(-1172.127 15606.19 1154.693)
(-1344.684 16537.43 3629.171)
(-1578.076 17627.44 6344.321)
(-1909.425 18948.58 9398.042)
(-2387.961 20639.61 11996.27)
(-4016.45 31467.73 17149.54)
(-2182.601 35675.08 17657.34)
(-948.1319 19495.27 1121.233)
(-1068.301 20573.95 3511.38)
(-1224.137 21807.95 6109.278)
(-1433.831 23253.57 8985.635)
(-1728.663 25005.76 11332.27)
(-2945.695 37361.2 15899.67)
(-3574.088 41534.17 15734.04)
(-1929.839 47093.72 17690.24)
(-751.7973 20576.24 1130.295)
(-835.632 21648.05 3531.066)
(-940.4658 22857.5 6125.632)
(-1075.847 24243.84 8969.815)
(-1256.582 25870.15 11234.61)
(-2067.403 38175.4 15710.66)
(-2545.107 41613.83 15524.42)
(-3034.666 46291.17 17064.81)
(-1621.478 52530.2 19299.73)
(-590.3895 17206.52 1177.975)
(-649.1805 18055.89 3674.205)
(-720.658 19001.12 6363.336)
(-809.7386 20065.8 9294.109)
(-924.1054 21284.18 11592.87)
(-1475.155 31142.47 16299.94)
(-1758.862 33504.89 16369.74)
(-2136.661 36524.01 18125.41)
(-2484.191 40631.28 20387.33)
(-1306.313 46131.03 34125.77)
(-477.9092 11439.78 1121.733)
(-521.0139 11976.61 3491.699)
(-572.1803 12564.5 6033.087)
(-634.2709 13214.46 8785.284)
(-711.4221 13942.25 10915.23)
(-1111.329 20259.05 15270.72)
(-1290.037 21590.75 15233.53)
(-1528.086 23201.78 16687.45)
(-1830.958 25260.64 18449.44)
(-2070.562 28070.6 30208.49)
(-512.7515 15737.36 24175.55)
(-403.9242 6666.03 1042.49)
(-437.3016 6966 3239.078)
(-476.1767 7290.585 5584.74)
(-522.2812 7644.622 8111.732)
(-578.1538 8034.622 10046.73)
(-888.3811 11618.67 13961.59)
(-1010.995 12303.84 13770.39)
(-1170.484 13103.42 14892.46)
(-1378.942 14070.97 16200.29)
(-1633.031 15310.31 25938.58)
(-866.0181 8275.126 20064.04)
(-395.9072 8544.29 24629.04)
(-355.261 3352.503 975.4723)
(-382.4442 3498.059 3026.381)
(-413.5924 3654.263 5209.358)
(-449.8568 3822.995 7551.657)
(-492.842 4006.751 9330.976)
(-747.7043 5773.92 12898.12)
(-837.6813 6087.411 12607.27)
(-952.3501 6443.995 13501.27)
(-1100.579 6860.38 14519.65)
(-1291.677 7364.969 22895.2)
(-732.8613 3873.737 17218.58)
(-721.6249 3845.875 20426.28)
(-317.6205 3644.471 23650.8)
(-323.0375 996.0044 925.0378)
(-346.1423 1037.859 2866.655)
(-372.2585 1082.5 4928.305)
(-402.1822 1130.374 7133.772)
(-437.0161 1182.054 8799.032)
(-656.3314 1698.78 12121.27)
(-726.2915 1784.957 11782.82)
(-813.4233 1881.264 12542.54)
(-924.2985 1990.853 13393.84)
(-1067.161 2118.917 20930.75)
(-605.0267 1097.476 15491.15)
(-653.2061 1061.544 17940.6)
(-621.4074 982.1038 20403.09)
(-263.8632 838.3373 23132.37)
(-1206.17 -37997.12 2084.085)
(-2635.442 -30190.38 1736.581)
(-1427.43 -34235.17 5930.999)
(-2399.188 -20621.17 1529.982)
(-2951.218 -22922.14 5032.833)
(-1606.922 -25996.51 9579.412)
(-2037.058 -11639.26 1393.373)
(-2560.836 -12676.76 4489.236)
(-3167.208 -14095.97 8178.069)
(-1729.111 -15987.47 13166.72)
(-1727.919 -3640.376 1291.657)
(-2098.285 -3912.739 4111.686)
(-2641.174 -4261.985 7329.324)
(-3273.289 -4739.901 11245.11)
(-1788.342 -5375.697 15466.32)
(-1469.221 3415.787 1210.292)
(-1727.201 3640.521 3823.982)
(-2096.558 3913.028 6734.642)
(-2637.778 4262.388 10102.29)
(-3266.322 4740.268 13205.27)
(-2446.189 7371.908 19888.28)
(-1243.306 9590.645 1143.99)
(-1426.951 10162.56 3595.779)
(-1676.131 10831.75 6286.693)
(-2031.928 11642.95 9315.51)
(-2550.732 12682.14 11899.52)
(-4316.881 19339.16 17019.45)
(-2354.02 21926.54 17566.95)
(-1039.417 14791.08 1092.956)
(-1171.599 15607.8 3422.689)
(-1343.505 16540.79 5954.589)
(-1576.041 17632.7 8759.118)
(-1906.147 18955.87 11051.55)
(-3268.541 28316.74 15465.08)
(-4008.445 31479.79 15212.04)
(-2177.792 35687.5 17114.34)
(-852.2565 18537.07 1064.985)
(-947.6549 19499.13 3326.026)
(-1067.256 20582.04 5767.205)
(-1222.382 21820.7 8442.474)
(-1431.131 23271.43 10574.5)
(-2365.901 34321.43 14670.26)
(-2940.433 37393.44 14231.91)
(-3566.465 41576.17 15395.19)
(-1925.311 47143.42 17287.24)
(-683.0047 19615.02 1076.747)
(-751.3463 20583.08 3356.558)
(-834.6556 21662.39 5807.965)
(-938.8552 22880.09 8476.258)
(-1073.435 24275.57 10567.15)
(-1719.181 35528.74 14677.88)
(-2063.161 38233.28 14348.9)
(-2539.615 41690.27 15495.44)
(-3026.972 46389.42 17030.28)
(-1616.959 52650.43 27976.71)
(-540.9306 16436.33 1125.003)
(-589.9456 17210.42 3502.877)
(-648.2271 18064.03 6054.48)
(-719.1032 19013.86 8820.461)
(-807.4499 20083.57 10965.53)
(-1263.523 29217.27 15346.03)
(-1471.291 31174.9 15309.2)
(-1754.057 33547.73 16779.21)
(-2130.355 36578.82 18574.82)
(-2475.599 40699.74 30499.42)
(-626.7948 23488.64 24710.06)
(-440.9274 10945.74 1073.469)
(-477.5064 11438.34 3336.734)
(-520.1556 11973.57 5756.149)
(-570.7947 12559.63 8365.515)
(-632.2584 13207.49 10367.5)
(-972.3662 19109.58 14455.64)
(-1108.079 20247.06 14353.28)
(-1286.152 21575.73 15622.9)
(-1523.279 23182.98 17106.84)
(-1824.72 25236.84 27605.13)
(-992.1489 13871.74 21782.32)
(-460.9558 15098.89 27772.57)
(-374.8045 6387.018 999.3134)
(-403.5651 6663.789 3101.289)
(-436.5413 6961.3 5340.297)
(-474.9594 7283.165 7744.495)
(-520.5313 7634.166 9573.089)
(-790.0663 11002.45 13268.92)
(-885.6585 11600.69 13042.54)
(-1007.841 12281.18 14041.96)
(-1166.75 13075.36 15181.82)
(-1374.374 14036.49 24086.85)
(-785.8787 7432.145 18376.34)
(-785.4023 7527.298 22315.27)
(-347.6818 7287.918 26487.28)
(-331.2125 3216.134 936.3808)
(-354.9367 3351.074 2902.228)
(-381.7612 3495.069 4990.344)
(-412.5056 3649.56 7224.883)
(-448.3064 3816.398 8913.028)
(-673.4143 5484.647 12295.02)
(-745.3575 5762.68 11985.58)
(-835.0223 6073.339 12792.73)
(-949.2909 6426.72 13697.63)
(-1096.985 6839.415 21471.09)
(-622.9592 3549.517 16002.18)
(-674.2764 3452.661 18732.15)
(-644.9546 3208.723 21515.13)
(-273.8294 2732.639 24613.53)
(-302.3565 956.5848 889.0034)
(-322.7392 995.5507 2752.634)
(-345.5164 1036.912 4728.022)
(-371.2674 1081.013 6836.48)
(-400.7763 1128.294 8421.199)
(-597.1004 1617.858 11580.97)
(-654.2435 1695.263 11233.16)
(-723.9595 1780.576 11925.76)
(-810.7897 1875.916 12693.23)
(-921.279 1984.413 19750.17)
(-515.0254 1019.058 14529.22)
(-560.0808 972.7885 16673.11)
(-594.2721 881.7659 18721.43)
(-546.7704 738.6748 21090.11)
(-222.4164 524.7758 16159.57)
(-979.7254 -33438.98 2220.616)
(-2247.181 -33509.14 1824.726)
(-1205.133 -38005.54 6156.535)
(-2163.764 -27172.64 1564.18)
(-2633.657 -30195.21 5131.49)
(-1425.326 -34242.85 9682.628)
(-1914.556 -18937.69 1405.094)
(-2397.992 -20623 4523.705)
(-2947.671 -22925.55 8226.539)
(-1603.718 -25999.13 13173.89)
(-1678.238 -10829.94 1295.282)
(-2036.165 -11639.87 4122.529)
(-2558.514 -12677.95 7346.08)
(-3161.924 -14097.41 11261.01)
(-1724.8 -15987.33 15449.18)
(-1469.221 -3415.787 1210.292)
(-1727.201 -3640.521 3823.982)
(-2096.558 -3913.028 6734.642)
(-2637.778 -4262.388 10102.29)
(-3266.322 -4740.268 13205.27)
(-2446.189 -7371.908 19888.28)
(-1279.349 3223.724 1140.561)
(-1468.617 3415.929 3585.152)
(-1725.813 3640.811 6268.57)
(-2094.042 3913.463 9290.148)
(-2633.354 4262.927 11871.43)
(-4469.362 6501.489 16987.61)
(-2440.981 7371.824 17563.25)
(-1102.317 9089.744 1082.677)
(-1242.781 9591.21 3390.578)
(-1425.779 10163.73 5898.927)
(-1674.105 10833.57 8678.433)
(-2028.651 11645.42 10953.42)
(-3491.726 17396.21 15318.78)
(-4308.697 19342.74 15048.18)
(-2349.072 21929.09 16973.42)
(-934.1346 14064.34 1037.893)
(-1038.95 14792.63 3241.142)
(-1170.574 15611.02 5619.281)
(-1341.784 16545.84 8225.818)
(-1573.387 17639.73 10305.16)
(-2609.362 26007.41 14250.65)
(-3263.322 28328.99 13718.83)
(-4000.696 31495.16 14750.67)
(-2173.146 35703.75 16570.67)
(-774.1193 17671.9 1014.176)
(-851.8283 18540.77 3160.424)
(-946.7281 19506.87 5465.732)
(-1065.727 20594.2 7973.756)
(-1220.09 21837.71 9939.382)
(-1958.755 31941.6 13692.07)
(-2361.907 34352.02 13131.83)
(-2935.286 37433.42 13926.74)
(-3559.034 41626.74 15054.69)
(-1920.908 47202.89 24463.63)
(-625.6435 18738.94 1027.901)
(-682.5951 19621.57 3198.63)
(-750.4676 20596.79 5523.474)
(-833.2234 21683.95 8040.087)
(-936.7468 22910.31 9989.138)
(-1468.614 33339.4 13808.07)
(-1715.702 35583.38 13405.42)
(-2058.927 38304.92 14321.81)
(-2534.135 41781.77 15464.75)
(-3019.326 46504.48 24709.22)
(-784.9644 27057.43 18553.45)
(-498.9464 15729.18 1076.285)
(-540.5238 16440.08 3346.307)
(-589.0779 17218.25 5774.357)
(-646.8246 18076.28 8395.249)
(-717.0625 19030.93 10409.62)
(-1104.008 27569.62 14517.2)
(-1260.214 29248.23 14412.27)
(-1467.325 31215.59 15690.58)
(-1749.123 33599.51 17192.75)
(-2123.882 36643.39 27783.06)
(-1191.657 20766.52 22107.52)
(-570.6238 24968.16 29140.24)
(-409.0474 10489.55 1028.788)
(-440.5556 10944.39 3193.994)
(-476.7184 11435.49 5502.591)
(-518.8919 11969.03 7984.017)
(-568.9752 12553.16 9874.627)
(-864.1488 18102.79 13731.53)
(-969.5078 19098.57 13586.13)
(-1104.74 20233.38 14718.72)
(-1282.162 21558.83 16013.33)
(-1518.341 23162.08 25590.38)
(-878.7145 12480.97 19891.3)
(-899.2008 13351.73 25023.65)
(-402.7948 13932.88 31129.86)
(-349.3768 6128.165 959.1304)
(-374.471 6384.886 2973.574)
(-402.8622 6659.325 5114.796)
(-435.4218 6954.27 7407.71)
(-473.3606 7273.29 9141.869)
(-711.3076 10454.23 12644.48)
(-787.6282 10985.57 12394.64)
(-882.8781 11579.52 13298.69)
(-1004.62 12255.14 14313.32)
(-1162.937 13043.67 22568.82)
(-662.6832 6816.594 17055.03)
(-721.2212 6768.531 20416.31)
(-697.509 6436.175 23989.62)
(-296.001 5552.666 28060.54)
(-309.9835 3089.11 899.8433)
(-330.91 3214.771 2786.574)
(-354.3017 3348.227 4787.109)
(-380.7552 3490.599 6923.071)
(-411.0781 3643.305 8529.266)
(-612.5485 5224.158 11745.31)
(-671.2864 5474.044 11424.54)
(-742.9733 5749.447 12161.15)
(-832.3208 6057.165 12977.79)
(-946.1826 6407.216 20253.17)
(-529.3145 3297.172 15001.3)
(-575.8669 3165.725 17395.58)
(-611.6333 2883.455 19715.69)
(-564.2202 2411.261 22385.45)
(-228.4972 1673.206 17249.24)
(-283.9339 919.7335 855.2062)
(-302.0771 956.1512 2645.993)
(-322.1549 994.6468 4541.3)
(-344.5942 1035.495 6560.388)
(-369.965 1079.036 8071.971)
(-547.5757 1544.299 11084.6)
(-595.1897 1614.528 10731.99)
(-652.1281 1691.125 11368.87)
(-721.5968 1775.542 12068.32)
(-808.1212 1869.881 18715.48)
(-444.5752 954.5854 13706.21)
(-477.3646 903.6824 15629.75)
(-512.5924 808.4917 17389.12)
(-532.6475 663.8397 19342.61)
(-469.8167 463.9683 14732.44)
(-1625.408 2589.506 51281.48)
(-807.5001 -23450.01 2166.786)
(-1852.316 -29452.28 1972.514)
(-978.733 -33442.29 6571.686)
(-1876.052 -30165.87 1650.659)
(-2245.447 -33518.57 5397.574)
(-1203.134 -38022.75 10066.51)
(-1737.16 -24959.02 1438.576)
(-2162.572 -27177.46 4626.726)
(-2630.224 -30204.97 8392.703)
(-1422.27 -34254.66 13323.66)
(-1580.19 -17622.18 1306.785)
(-1913.663 -18939.5 4157.772)
(-2395.688 -20626.67 7403.871)
(-2942.516 -22930.72 11329.79)
(-1599.546 -26002.79 15459.93)
(-1427.556 -10161.97 1213.836)
(-1677.52 -10830.54 3834.859)
(-2034.441 -11641.1 6752.745)
(-2555.135 -12679.74 10125.86)
(-3155.045 -14099.36 13224.45)
(-2359.147 -21925.33 19874.25)
(-1279.349 -3223.724 1140.561)
(-1468.617 -3415.929 3585.152)
(-1725.813 -3640.811 6268.57)
(-2094.042 -3913.463 9290.148)
(-2633.354 -4262.927 11871.43)
(-4469.362 -6501.489 16987.61)
(-2440.981 -7371.824 17563.25)
(-1134.164 3055.353 1079.374)
(-1278.826 3223.861 3380.302)
(-1467.447 3416.212 5881.237)
(-1723.787 3641.246 8653.083)
(-2090.761 3914.043 10923.28)
(-3605.006 5847.101 15276.13)
(-4461.078 6502.213 15005.49)
(-2435.958 7372.056 16953.98)
(-990.5484 8643.178 1028.025)
(-1101.853 9090.288 3210.311)
(-1241.764 9592.34 5565.778)
(-1424.067 10165.49 8147.935)
(-1671.461 10835.99 10209.3)
(-2777.372 15974.52 14104.25)
(-3486.486 17400.21 13545.08)
(-4300.793 19347.43 14544.19)
(-2344.303 21932.96 16379.74)
(-848.3819 13408.17 988.1927)
(-933.7156 14065.82 3079.11)
(-1038.043 14795.71 5324.194)
(-1169.077 15615.86 7766.638)
(-1339.535 16552.57 9681.853)
(-2153.914 24202.03 13291.01)
(-2605.447 26019.26 12641.87)
(-3258.261 28344.21 13303.67)
(-3993.202 31513.83 14288.58)
(-2168.663 35723.8 23187)
(-708.9955 16883.3 967.8762)
(-773.7309 17675.44 3010.74)
(-850.9954 18548.17 5196.164)
(-945.3708 19518.48 7560.376)
(-1063.728 20610.43 9391.043)
(-1669.918 29974.1 12872.07)
(-1955.502 31970.58 12256.42)
(-2357.999 34389.71 12850.6)
(-2930.254 37481.11 13620.05)
(-3551.796 41685.84 21321.56)
(-937.9985 23964.78 15218.01)
(-576.9705 17934.37 983.0279)
(-625.2686 18745.23 3054.488)
(-681.7964 19634.7 5265.824)
(-749.1778 20617.41 7649.222)
(-831.3475 21712.79 9478.096)
(-1281.599 31464.78 13054.71)
(-1465.647 33391.17 12610.93)
(-1712.229 35650.85 13379.9)
(-2054.699 38390.42 14293.14)
(-2528.666 41888.46 22438.9)
(-1469.774 23945.4 16420.77)
(-742.4118 29522.94 18237.95)
(-462.7679 15075.9 1031.225)
(-498.5712 15732.8 3202.24)
(-539.728 16447.62 5518.204)
(-587.8005 17230.03 8009.389)
(-644.9828 18092.68 9910.355)
(-980.4102 26124.95 13782.69)
(-1101.106 27599.22 13633.23)
(-1256.819 29286.96 14770.38)
(-1463.255 31264.62 16075.77)
(-1744.06 33660.28 25711.75)
(-1027.076 18712.39 20130.1)
(-1092.355 22153.6 26107.99)
(-505.5047 27302.49 35000.91)
(-381.2193 10066.11 987.2343)
(-408.7025 10488.28 3061.797)
(-439.8277 10941.71 5268.905)
(-475.5575 11431.22 7634.555)
(-517.2318 11962.98 9426.526)
(-777.6423 17206.14 13079.91)
(-861.5943 18092.58 12904.83)
(-966.5724 19085.95 13931.06)
(-1101.311 20217.92 15085.15)
(-1278.066 21539.97 23950.95)
(-732.5541 11459.77 18430.01)
(-805.7959 12029.37 22829.01)
(-794.4065 12354.65 28047.98)
(-337.6806 11693.44 34615.53)
(-326.9363 5886.95 921.5895)
(-349.0659 6126.131 2854.664)
(-373.818 6380.636 4905.668)
(-401.8266 6652.647 7096.876)
(-433.9509 6944.913 8746.263)
(-646.8372 9960.172 12075.94)
(-709.0996 10438.32 11810.74)
(-785.1391 10965.68 12637.31)
(-880.0399 11555.15 13554.65)
(-1001.332 12225.68 21275.28)
(-561.0289 6336.196 15974.25)
(-611.1514 6212.103 18933.71)
(-650.6163 5793.399 21931.11)
(-603.1555 4914.154 25409.86)
(-241.6547 3287.117 19860.78)
(-291.0755 2970.336 865.5815)
(-309.7003 3087.807 2678.433)
(-330.3173 3212.053 4597.686)
(-353.366 3343.968 6642.873)
(-379.4332 3484.653 8174.693)
(-561.6717 4987.279 11240.53)
(-610.6023 5214.119 10913.27)
(-669.1251 5461.543 11591.32)
(-740.5518 5734.218 12336.33)
(-829.5771 6038.883 19187.17)
(-456.5159 3089.482 14146.7)
(-489.964 2941.955 16299.04)
(-525.6348 2645.28 18298.59)
(-545.6149 2168.788 20503.23)
(-480.5425 1480.823 15687.52)
(-1654.236 7803.039 54684.37)
(-267.396 885.168 823.4173)
(-283.6715 919.3185 2545.934)
(-301.5297 955.2872 4366.575)
(-321.2934 993.2952 6302.874)
(-343.382 1033.612 7747.534)
(-505.4712 1476.898 10625.76)
(-545.8153 1541.138 10271.63)
(-593.2543 1610.606 10861.2)
(-649.9853 1686.365 11504.23)
(-719.2035 1769.855 17792.91)
(-389.8689 899.6509 12985.67)
(-412.0409 846.7941 14738.98)
(-437.66 751.3421 16294.57)
(-463.0065 609.0003 17959.23)
(-469.037 417.5183 13508.91)
(-3491.162 2301.223 46821.08)
(-1505.171 1734.654 30297.25)
(-694.3965 -14414.76 2067.898)
(-1553.297 -20596.72 1945.374)
(-806.6145 -23443.9 6414.652)
(-1583.884 -26500.14 1792.597)
(-1850.604 -29457.11 5843.667)
(-976.8133 -33449.31 10769.9)
(-1519.978 -27710.34 1521.235)