/*--------------------------------*- C++ -*----------------------------------*\
| =========                 |                                                 |
| \\      /  F ield         | OpenFOAM: The Open Source CFD Toolbox           |
|  \\    /   O peration     | Version:  2306                                  |
|   \\  /    A nd           | Website:  www.openfoam.com                      |
|    \\/     M anipulation  |                                                 |
\*---------------------------------------------------------------------------*/
FoamFile
{
    version     2.0;
    format      ascii;
    arch        "LSB;label=32;scalar=64";
    class       volScalarField;
    location    "1.5/phiEA";
    object      J;
}
// * * * * * * * * * * * * * * * * * * * * * * * * * * * * * * * * * * * * * //

dimensions      [0 -3 0 0 0 1 0];

internalField   nonuniform List<scalar> 
20000
(
-9.323419e+08
-9.405862e+08
-8.513233e+08
-8.929565e+08
-9.572532e+08
-8.56576e+08
-9.00631e+08
-7.828052e+08
-8.174254e+08
-8.651337e+08
-9.823877e+08
-8.669126e+08
-9.161363e+08
-7.867759e+08
-8.223391e+08
-8.724277e+08
-7.278953e+08
-7.533188e+08
-7.932821e+08
-8.480488e+08
-1.015109e+09
-8.817675e+08
-9.394965e+08
-7.944942e+08
-8.320038e+08
-8.871616e+08
-7.311286e+08
-7.570484e+08
-7.979638e+08
-8.551316e+08
-6.822759e+08
-7.01786e+08
-7.321924e+08
-7.782485e+08
-8.407245e+08
-1.050451e+09
-8.997275e+08
-9.698728e+08
-8.053431e+08
-8.458836e+08
-9.093555e+08
-7.373679e+08
-7.642951e+08
-8.071705e+08
-8.694425e+08
-6.85014e+08
-7.048332e+08
-7.357547e+08
-7.827948e+08
-8.477425e+08
-6.43084e+08
-6.588594e+08
-6.830018e+08
-7.189114e+08
-7.715618e+08
0
-1.077307e+09
-9.17211e+08
-1.002639e+09
-8.179862e+08
-8.626508e+08
-9.382174e+08
-7.460238e+08
-7.744749e+08
-8.203891e+08
-8.910125e+08
-6.902722e+08
-7.107109e+08
-7.426747e+08
-7.917356e+08
-8.619325e+08
-6.454587e+08
-6.61447e+08
-6.859185e+08
-7.223732e+08
-7.760565e+08
0
-6.086997e+08
-6.218937e+08
-6.419604e+08
-6.71119e+08
-7.128722e+08
0
0
-1.094412e+09
-9.290441e+08
-1.02745e+09
-8.295929e+08
-8.78957e+08
-9.693598e+08
-7.558859e+08
-7.863293e+08
-8.363549e+08
-9.191e+08
-6.975042e+08
-7.188603e+08
-7.523927e+08
-8.045752e+08
-8.833486e+08
-6.500034e+08
-6.664145e+08
-6.915433e+08
-7.290976e+08
-7.848989e+08
0
-6.10795e+08
-6.241434e+08
-6.44442e+08
-6.73956e+08
-7.16292e+08
0
0
-5.780366e+08
-5.893928e+08
-6.06564e+08
-6.312228e+08
-6.656458e+08
0
0
0
-1.104197e+09
-9.356638e+08
-1.043205e+09
-8.367791e+08
-8.899637e+08
-9.928809e+08
-7.646044e+08
-7.972009e+08
-8.51879e+08
-9.494663e+08
-7.05619e+08
-7.281381e+08
-7.637056e+08
-8.200913e+08
-9.113046e+08
-6.562156e+08
-6.732426e+08
-6.993394e+08
-7.385412e+08
-7.976046e+08
0
-6.147945e+08
-6.284474e+08
-6.492047e+08
-6.794267e+08
-7.22936e+08
0
0
-5.799085e+08
-5.913822e+08
-6.087253e+08
-6.33639e+08
-6.684481e+08
0
0
0
-5.503776e+08
-5.603517e+08
-5.753978e+08
-5.967912e+08
-6.262369e+08
0
0
0
0
-1.108615e+09
-9.390371e+08
-1.052199e+09
-8.402582e+08
-8.961074e+08
-1.007789e+09
-7.696742e+08
-8.039145e+08
-8.623317e+08
-9.723675e+08
-7.126082e+08
-7.363307e+08
-7.740752e+08
-8.351891e+08
-9.416333e+08
-6.631089e+08
-6.808979e+08
-7.082108e+08
-7.495363e+08
-8.129771e+08
0
-6.20236e+08
-6.343272e+08
-6.55749e+08
-6.870087e+08
-7.322694e+08
0
0
-5.834741e+08
-5.951782e+08
-6.128589e+08
-6.382756e+08
-6.738523e+08
0
0
0
-5.520663e+08
-5.621324e+08
-5.773119e+08
-5.988975e+08
-6.286239e+08
0
0
0
0
-5.251926e+08
-5.341071e+08
-5.475108e+08
-5.664528e+08
-5.922284e+08
0
0
0
0
0
-1.108615e+09
-9.40441e+08
-1.056255e+09
-8.417134e+08
-8.992335e+08
-1.016291e+09
-7.718374e+08
-8.071562e+08
-8.681565e+08
-9.868734e+08
-7.164927e+08
-7.410814e+08
-7.804604e+08
-8.453318e+08
-9.644976e+08
-6.689324e+08
-6.874828e+08
-7.160382e+08
-7.596152e+08
-8.27957e+08
0
-6.262228e+08
-6.40846e+08
-6.630823e+08
-6.95636e+08
-7.431428e+08
0
0
-5.883074e+08
-6.003398e+08
-6.185039e+08
-6.446459e+08
-6.813432e+08
0
0
0
-5.552777e+08
-5.655234e+08
-5.809634e+08
-6.029256e+08
-6.332047e+08
0
0
0
0
-5.267278e+08
-5.357166e+08
-5.492267e+08
-5.683199e+08
-5.943099e+08
0
0
0
0
0
-5.020924e+08
-5.101684e+08
-5.222763e+08
-5.392864e+08
-5.622602e+08
0
0
0
0
0
0
-1.104197e+09
-9.40441e+08
-1.056255e+09
-8.422065e+08
-9.005335e+08
-1.020123e+09
-7.72541e+08
-8.085082e+08
-8.711186e+08
-9.951475e+08
-7.179818e+08
-7.431008e+08
-7.835355e+08
-8.509782e+08
-9.78989e+08
-6.720594e+08
-6.911314e+08
-7.205621e+08
-7.658025e+08
-8.380007e+08
0
-6.312055e+08
-6.463452e+08
-6.693833e+08
-7.032447e+08
-7.531149e+08
0
0
-5.935887e+08
-6.060138e+08
-6.247587e+08
-6.517827e+08
-6.898695e+08
0
0
0
-5.596176e+08
-5.701173e+08
-5.859267e+08
-6.084255e+08
-6.394988e+08
0
0
0
0
-5.296436e+08
-5.387763e+08
-5.524933e+08
-5.718814e+08
-5.982906e+08
0
0
0
0
0
-5.034972e+08
-5.116342e+08
-5.238292e+08
-5.409616e+08
-5.64106e+08
0
0
0
0
0
0
-4.80774e+08
-4.881754e+08
-4.992302e+08
-5.146858e+08
-5.354207e+08
0
0
0
0
0
0
0
-1.094412e+09
-9.390371e+08
-1.052199e+09
-8.422065e+08
-9.005335e+08
-1.020123e+09
-7.726922e+08
-8.089652e+08
-8.723506e+08
-9.988787e+08
-7.183338e+08
-7.437532e+08
-7.848153e+08
-8.538512e+08
-9.872659e+08
-6.731512e+08
-6.925228e+08
-7.224771e+08
-7.687751e+08
-8.435901e+08
0
-6.338086e+08
-6.492882e+08
-6.728617e+08
-7.076258e+08
-7.592172e+08
0
0
-5.979311e+08
-6.107286e+08
-6.300286e+08
-6.579104e+08
-6.973881e+08
0
0
0
-5.643329e+08
-5.751324e+08
-5.913791e+08
-6.145178e+08
-6.465511e+08
0
0
0
0
-5.335737e+08
-5.429088e+08
-5.56917e+08
-5.767214e+08
-6.037258e+08
0
0
0
0
0
-5.061622e+08
-5.144169e+08
-5.267807e+08
-5.441505e+08
-5.676267e+08
0
0
0
0
0
0
-4.820664e+08
-4.895188e+08
-5.006462e+08
-5.162032e+08
-5.370774e+08
0
0
0
0
0
0
0
-4.609993e+08
-4.678473e+08
-4.780322e+08
-4.922023e+08
-5.111106e+08
0
0
0
0
0
0
0
0
-1.077307e+09
-9.356638e+08
-1.043205e+09
-8.417134e+08
-8.992335e+08
-1.016291e+09
-7.726922e+08
-8.089652e+08
-8.723506e+08
-9.988787e+08
-7.183355e+08
-7.438911e+08
-7.852471e+08
-8.550473e+08
-9.910029e+08
-6.733158e+08
-6.928465e+08
-7.230915e+08
-7.700107e+08
-8.464383e+08
0
-6.346448e+08
-6.503087e+08
-6.741802e+08
-7.094722e+08
-7.621423e+08
0
0
-6.001482e+08
-6.131829e+08
-6.328375e+08
-6.612788e+08
-7.016994e+08
0
0
0
-5.681709e+08
-5.792492e+08
-5.959035e+08
-6.196458e+08
-6.52603e+08
0
0
0
0
-5.378232e+08
-5.473946e+08
-5.617431e+08
-5.820366e+08
-6.097467e+08
0
0
0
0
0
-5.097464e+08
-5.181656e+08
-5.307654e+08
-5.48468e+08
-5.724113e+08
0
0
0
0
0
0
-4.845159e+08
-4.920662e+08
-5.033338e+08
-5.190867e+08
-5.402308e+08
0
0
0
0
0
0
0
-4.621939e+08
-4.69085e+08
-4.793314e+08
-4.93587e+08
-5.126117e+08
0
0
0
0
0
0
0
0
-4.425769e+08
-4.489634e+08
-4.584166e+08
-4.715071e+08
-4.88887e+08
0
0
0
0
0
0
0
0
0
-1.050451e+09
-9.290441e+08
-1.02745e+09
-8.402582e+08
-8.961074e+08
-1.007789e+09
-7.72541e+08
-8.085082e+08
-8.711186e+08
-9.951475e+08
-7.183355e+08
-7.438911e+08
-7.852471e+08
-8.550473e+08
-9.910029e+08
-6.732448e+08
-6.928442e+08
-7.232193e+08
-7.704274e+08
-8.476265e+08
0
-6.347008e+08
-6.504566e+08
-6.744816e+08
-7.100608e+08
-7.633575e+08
0
0
-6.008072e+08
-6.139646e+08
-6.338038e+08
-6.625473e+08
-7.035079e+08
0
0
0
-5.70092e+08
-5.81343e+08
-5.982486e+08
-6.223663e+08
-6.559139e+08
0
0
0
0
-5.412523e+08
-5.510395e+08
-5.656988e+08
-5.864422e+08
-6.148107e+08
0
0
0
0
0
-5.136057e+08
-5.22215e+08
-5.350877e+08
-5.531765e+08
-5.776655e+08
0
0
0
0
0
0
-4.878039e+08
-4.954903e+08
-5.069529e+08
-5.229789e+08
-5.445003e+08
0
0
0
0
0
0
0
-4.64456e+08
-4.714299e+08
-4.817946e+08
-4.962147e+08
-5.154642e+08
0
0
0
0
0
0
0
0
-4.436854e+08
-4.501089e+08
-4.59615e+08
-4.727785e+08
-4.902573e+08
0
0
0
0
0
0
0
0
0
-4.253505e+08
-4.313462e+08
-4.401749e+08
-4.523437e+08
-4.684255e+08
0
0
0
0
0
0
0
0
0
0
-1.015109e+09
-9.17211e+08
-1.002639e+09
-8.367791e+08
-8.899637e+08
-9.928809e+08
-7.718374e+08
-8.071562e+08
-8.681565e+08
-9.868734e+08
-7.183338e+08
-7.437532e+08
-7.848153e+08
-8.538512e+08
-9.872659e+08
-6.732448e+08
-6.928442e+08
-7.232193e+08
-7.704274e+08
-8.476265e+08
0
-6.345923e+08
-6.503858e+08
-6.744755e+08
-7.101814e+08
-7.637677e+08
0
0
-6.007955e+08
-6.140105e+08
-6.339377e+08
-6.628319e+08
-7.040807e+08
0
0
0
-5.706223e+08
-5.819589e+08
-5.989881e+08
-6.232942e+08
-6.571519e+08
0
0
0
0
-5.429388e+08
-5.528566e+08
-5.677016e+08
-5.887145e+08
-6.174833e+08
0
0
0
0
0
-5.166967e+08
-5.254769e+08
-5.385944e+08
-5.570311e+08
-5.820165e+08
0
0
0
0
0
0
-4.913312e+08
-4.991737e+08
-5.108597e+08
-5.271993e+08
-5.491562e+08
0
0
0
0
0
0
0
-4.674874e+08
-4.745756e+08
-4.851042e+08
-4.997526e+08
-5.193145e+08
0
0
0
0
0
0
0
0
-4.457833e+08
-4.522775e+08
-4.618848e+08
-4.751886e+08
-4.928576e+08
0
0
0
0
0
0
0
0
0
-4.263829e+08
-4.324106e+08
-4.412852e+08
-4.535171e+08
-4.69684e+08
0
0
0
0
0
0
0
0
0
0
-4.09191e+08
-4.148507e+08
-4.231392e+08
-4.345104e+08
-4.494731e+08
0
0
0
0
0
0
0
0
0
0
0
-9.823877e+08
-8.997275e+08
-9.698728e+08
-8.295929e+08
-8.78957e+08
-9.693598e+08
-7.696742e+08
-8.039145e+08
-8.623317e+08
-9.723675e+08
-7.179818e+08
-7.431008e+08
-7.835355e+08
-8.509782e+08
-9.78989e+08
-6.733158e+08
-6.928465e+08
-7.230915e+08
-7.700107e+08
-8.464383e+08
0
-6.345923e+08
-6.503858e+08
-6.744755e+08
-7.101814e+08
-7.637677e+08
0
0
-6.006667e+08
-6.139042e+08
-6.33866e+08
-6.628223e+08
-7.041965e+08
0
0
0
-5.705664e+08
-5.81941e+08
-5.990248e+08
-6.234166e+08
-6.574243e+08
0
0
0
0
-5.433719e+08
-5.533518e+08
-5.682837e+08
-5.894234e+08
-6.183863e+08
0
0
0
0
0
-5.18193e+08
-5.270743e+08
-5.403343e+08
-5.589727e+08
-5.842483e+08
0
0
0
0
0
0
-4.941378e+08
-5.021184e+08
-5.140015e+08
-5.306189e+08
-5.529638e+08
0
0
0
0
0
0
0
-4.707289e+08
-4.779471e+08
-4.886619e+08
-5.035701e+08
-5.234891e+08
0
0
0
0
0
0
0
0
-4.485903e+08
-4.551818e+08
-4.649286e+08
-4.784263e+08
-4.963586e+08
0
0
0
0
0
0
0
0
0
-4.283357e+08
-4.344242e+08
-4.433864e+08
-4.557396e+08
-4.720698e+08
0
0
0
0
0
0
0
0
0
0
-4.101555e+08
-4.158432e+08
-4.241718e+08
-4.355984e+08
-4.506351e+08
0
0
0
0
0
0
0
0
0
0
0
-3.939896e+08
-3.993571e+08
-4.071724e+08
-4.178454e+08
-4.318314e+08
0
0
0
0
0
0
0
0
0
0
0
0
-9.572532e+08
-8.817675e+08
-9.394965e+08
-8.179862e+08
-8.626508e+08
-9.382174e+08
-7.646044e+08
-7.972009e+08
-8.51879e+08
-9.494663e+08
-7.164927e+08
-7.410814e+08
-7.804604e+08
-8.453318e+08
-9.644976e+08
-6.731512e+08
-6.925228e+08
-7.224771e+08
-7.687751e+08
-8.435901e+08
0
-6.347008e+08
-6.504566e+08
-6.744816e+08
-7.100608e+08
-7.633575e+08
0
0
-6.006667e+08
-6.139042e+08
-6.33866e+08
-6.628223e+08
-7.041965e+08
0
0
0
-5.70427e+08
-5.818154e+08
-5.989192e+08
-6.233433e+08
-6.574111e+08
0
0
0
0
-5.432863e+08
-5.532923e+08
-5.682596e+08
-5.894518e+08
-6.18499e+08
0
0
0
0
0
-5.185508e+08
-5.274784e+08
-5.408018e+08
-5.595297e+08
-5.849365e+08
0
0
0
0
0
0
-4.95477e+08
-5.035376e+08
-5.155326e+08
-5.323065e+08
-5.548708e+08
0
0
0
0
0
0
0
-4.732932e+08
-4.806246e+08
-4.915014e+08
-5.066361e+08
-5.268678e+08
0
0
0
0
0
0
0
0
-4.515833e+08
-4.582843e+08
-4.681886e+08
-4.819052e+08
-5.001359e+08
0
0
0
0
0
0
0
0
0
-4.309451e+08
-4.371171e+08
-4.461996e+08
-4.587193e+08
-4.752748e+08
0
0
0
0
0
0
0
0
0
0
-4.119792e+08
-4.177199e+08
-4.261249e+08
-4.376571e+08
-4.528358e+08
0
0
0
0
0
0
0
0
0
0
0
-3.948933e+08
-4.002854e+08
-4.081361e+08
-4.188579e+08
-4.32909e+08
0
0
0
0
0
0
0
0
0
0
0
0
-3.796542e+08
-3.847643e+08
-3.921611e+08
-4.022163e+08
-4.153407e+08
0
0
0
0
0
0
0
0
0
0
0
0
0
-9.405862e+08
-8.669126e+08
-9.161363e+08
-8.053431e+08
-8.458836e+08
-9.093555e+08
-7.558859e+08
-7.863293e+08
-8.363549e+08
-9.191e+08
-7.126082e+08
-7.363307e+08
-7.740752e+08
-8.351891e+08
-9.416333e+08
-6.720594e+08
-6.911314e+08
-7.205621e+08
-7.658025e+08
-8.380007e+08
0
-6.346448e+08
-6.503087e+08
-6.741802e+08
-7.094722e+08
-7.621423e+08
0
0
-6.007955e+08
-6.140105e+08
-6.339377e+08
-6.628319e+08
-7.040807e+08
0
0
0
-5.70427e+08
-5.818154e+08
-5.989192e+08
-6.233433e+08
-6.574111e+08
0
0
0
0
-5.431416e+08
-5.531565e+08
-5.681355e+08
-5.893455e+08
-6.18423e+08
0
0
0
0
0
-5.184451e+08
-5.27391e+08
-5.407382e+08
-5.594995e+08
-5.849572e+08
0
0
0
0
0
0
-4.957753e+08
-5.038711e+08
-5.159136e+08
-5.327532e+08
-5.554104e+08
0
0
0
0
0
0
0
-4.745009e+08
-4.818964e+08
-4.92863e+08
-5.08122e+08
-5.285256e+08
0
0
0
0
0
0
0
0
-4.53939e+08
-4.607341e+08
-4.707733e+08
-4.846782e+08
-5.031662e+08
0
0
0
0
0
0
0
0
0
-4.337201e+08
-4.399855e+08
-4.492026e+08
-4.619093e+08
-4.787183e+08
0
0
0
0
0
0
0
0
0
0
-4.144132e+08
-4.202262e+08
-4.287358e+08
-4.404128e+08
-4.557865e+08
0
0
0
0
0
0
0
0
0
0
0
-3.966014e+08
-4.020401e+08
-4.099581e+08
-4.207727e+08
-4.349483e+08
0
0
0
0
0
0
0
0
0
0
0
0
-3.805031e+08
-3.85635e+08
-3.930633e+08
-4.031618e+08
-4.163439e+08
0
0
0
0
0
0
0
0
0
0
0
0
0
-3.661059e+08
-3.709869e+08
-3.780098e+08
-3.875137e+08
-3.998709e+08
0
0
0
0
0
0
0
0
0
0
0
0
0
0
-9.323419e+08
-8.56576e+08
-9.00631e+08
-7.944942e+08
-8.320038e+08
-8.871616e+08
-7.460238e+08
-7.744749e+08
-8.203891e+08
-8.910125e+08
-7.05619e+08
-7.281381e+08
-7.637056e+08
-8.200913e+08
-9.113046e+08
-6.689324e+08
-6.874828e+08
-7.160382e+08
-7.596152e+08
-8.27957e+08
0
-6.338086e+08
-6.492882e+08
-6.728617e+08
-7.076258e+08
-7.592172e+08
0
0
-6.008072e+08
-6.139646e+08
-6.338038e+08
-6.625473e+08
-7.035079e+08
0
0
0
-5.705664e+08
-5.81941e+08
-5.990248e+08
-6.234166e+08
-6.574243e+08
0
0
0
0
-5.431416e+08
-5.531565e+08
-5.681355e+08
-5.893455e+08
-6.18423e+08
0
0
0
0
0
-5.182984e+08
-5.272501e+08
-5.406043e+08
-5.593755e+08
-5.848488e+08
0
0
0
0
0
0
-4.956559e+08
-5.037647e+08
-5.158234e+08
-5.32685e+08
-5.553739e+08
0
0
0
0
0
0
0
-4.747517e+08
-4.821741e+08
-4.93177e+08
-5.084855e+08
-5.289576e+08
0
0
0
0
0
0
0
0
-4.550353e+08
-4.618824e+08
-4.719946e+08
-4.860004e+08
-5.046262e+08
0
0
0
0
0
0
0
0
0
-4.358944e+08
-4.422389e+08
-4.515697e+08
-4.644351e+08
-4.814599e+08
0
0
0
0
0
0
0
0
0
0
-4.169957e+08
-4.228891e+08
-4.315149e+08
-4.433534e+08
-4.58945e+08
0
0
0
0
0
0
0
0
0
0
0
-3.988788e+08
-4.043807e+08
-4.123903e+08
-4.233319e+08
-4.376779e+08
0
0
0
0
0
0
0
0
0
0
0
0
-3.821073e+08
-3.872804e+08
-3.947683e+08
-4.049491e+08
-4.182412e+08
0
0
0
0
0
0
0
0
0
0
0
0
0
-3.66905e+08
-3.718056e+08
-3.788567e+08
-3.883993e+08
-4.00808e+08
0
0
0
0
0
0
0
0
0
0
0
0
0
0
-3.532764e+08
-3.579512e+08
-3.646375e+08
-3.736453e+08
-3.853142e+08
0
0
0
0
0
0
0
0
0
0
0
0
0
0
0
-8.513233e+08
-8.929565e+08
-7.867759e+08
-8.223391e+08
-8.724277e+08
-7.373679e+08
-7.642951e+08
-8.071705e+08
-8.694425e+08
-6.975042e+08
-7.188603e+08
-7.523927e+08
-8.045752e+08
-8.833486e+08
-6.631089e+08
-6.808979e+08
-7.082108e+08
-7.495363e+08
-8.129771e+08
0
-6.312055e+08
-6.463452e+08
-6.693833e+08
-7.032447e+08
-7.531149e+08
0
0
-6.001482e+08
-6.131829e+08
-6.328375e+08
-6.612788e+08
-7.016994e+08
0
0
0
-5.706223e+08
-5.819589e+08
-5.989881e+08
-6.232942e+08
-6.571519e+08
0
0
0
0
-5.432863e+08
-5.532923e+08
-5.682596e+08
-5.894518e+08
-6.18499e+08
0
0
0
0
0
-5.182984e+08
-5.272501e+08
-5.406043e+08
-5.593755e+08
-5.848488e+08
0
0
0
0
0
0
-4.955095e+08
-5.036218e+08
-5.156846e+08
-5.325515e+08
-5.552483e+08
0
0
0
0
0
0
0
-4.746233e+08
-4.820548e+08
-4.930688e+08
-5.083917e+08
-5.288841e+08
0
0
0
0
0
0
0
0
-4.552475e+08
-4.621154e+08
-4.722556e+08
-4.862993e+08
-5.04977e+08
0
0
0
0
0
0
0
0
0
-4.368953e+08
-4.432824e+08
-4.526734e+08
-4.656218e+08
-4.827593e+08
0
0
0
0
0
0
0
0
0
0
-4.19011e+08
-4.249714e+08
-4.336943e+08
-4.45668e+08
-4.61443e+08
0
0
0
0
0
0
0
0
0
0
-4.012901e+08
-4.068617e+08
-4.149727e+08
-4.260549e+08
-4.405904e+08
0
0
0
0
0
0
0
0
0
0
0
0
-3.842439e+08
-3.894728e+08
-3.970417e+08
-4.073346e+08
-4.207769e+08
0
0
0
0
0
0
0
0
0
0
0
0
0
-3.684153e+08
-3.733525e+08
-3.804568e+08
-3.900728e+08
-4.025794e+08
0
0
0
0
0
0
0
0
0
0
0
0
0
0
-3.540304e+08
-3.587229e+08
-3.654344e+08
-3.744771e+08
-3.861922e+08
0
0
0
0
0
0
0
0
0
0
0
0
0
0
0
-3.411067e+08
-3.455941e+08
-3.519746e+08
-3.60533e+08
-3.715798e+08
0
0
0
0
0
0
0
0
0
0
0
0
0
0
0
0
-7.828052e+08
-8.174254e+08
-8.651337e+08
-7.311286e+08
-7.570484e+08
-7.979638e+08
-8.551316e+08
-6.902722e+08
-7.107109e+08
-7.426747e+08
-7.917356e+08
-8.619325e+08
-6.562156e+08
-6.732426e+08
-6.993394e+08
-7.385412e+08
-7.976046e+08
0
-6.262228e+08
-6.40846e+08
-6.630823e+08
-6.95636e+08
-7.431428e+08
0
0
-5.979311e+08
-6.107286e+08
-6.300286e+08
-6.579104e+08
-6.973881e+08
0
0
0
-5.70092e+08
-5.81343e+08
-5.982486e+08
-6.223663e+08
-6.559139e+08
0
0
0
0
-5.433719e+08
-5.533518e+08
-5.682837e+08
-5.894234e+08
-6.183863e+08
0
0
0
0
0
-5.184451e+08
-5.27391e+08
-5.407382e+08
-5.594995e+08
-5.849572e+08
0
0
0
0
0
0
-4.955095e+08
-5.036218e+08
-5.156846e+08
-5.325515e+08
-5.552483e+08
0
0
0
0
0
0
0
-4.744785e+08
-4.819121e+08
-4.929281e+08
-5.082535e+08
-5.287494e+08
0
0
0
0
0
0
0
0
-4.551135e+08
-4.619876e+08
-4.721351e+08
-4.861883e+08
-5.048789e+08
0
0
0
0
0
0
0
0
0
-4.370761e+08
-4.434793e+08
-4.52892e+08
-4.658697e+08
-4.830472e+08
0
0
0
0
0
0
0
0
0
0
-4.199295e+08
-4.259253e+08
-4.346982e+08
-4.46741e+08
-4.626095e+08
0
0
0
0
0
0
0
0
0
0
-4.031649e+08
-4.08794e+08
-4.169886e+08
-4.281873e+08
-4.428803e+08
0
0
0
0
0
0
0
0
0
0
-3.86502e+08
-3.917919e+08
-3.994498e+08
-4.098663e+08
-4.234747e+08
0
0
0
0
0
0
0
0
0
0
0
0
0
-3.70425e+08
-3.754116e+08
-3.82588e+08
-3.923037e+08
-4.049437e+08
0
0
0
0
0
0
0
0
0
0
0
0
0
0
-3.554554e+08
-3.601806e+08
-3.669399e+08
-3.760484e+08
-3.878512e+08
0
0
0
0
0
0
0
0
0
0
0
0
0
0
0
-3.418195e+08
-3.463228e+08
-3.527263e+08
-3.613161e+08
-3.724046e+08
0
0
0
0
0
0
0
0
0
0
0
0
0
0
0
0
-3.295436e+08
-3.338604e+08
-3.399611e+08
-3.481096e+08
-3.585908e+08
0
0
0
0
0
0
0
0
0
0
0
0
0
0
0
0
0
-7.278953e+08
-7.533188e+08
-7.932821e+08
-8.480488e+08
-6.85014e+08
-7.048332e+08
-7.357547e+08
-7.827948e+08
-8.477425e+08
-6.500034e+08
-6.664145e+08
-6.915433e+08
-7.290976e+08
-7.848989e+08
0
-6.20236e+08
-6.343272e+08
-6.55749e+08
-6.870087e+08
-7.322694e+08
0
0
-5.935887e+08
-6.060138e+08
-6.247587e+08
-6.517827e+08
-6.898695e+08
0
0
0
-5.681709e+08
-5.792492e+08
-5.959035e+08
-6.196458e+08
-6.52603e+08
0
0
0
0
-5.429388e+08
-5.528566e+08
-5.677016e+08
-5.887145e+08
-6.174833e+08
0
0
0
0
0
-5.185508e+08
-5.274784e+08
-5.408018e+08
-5.595297e+08
-5.849365e+08
0
0
0
0
0
0
-4.956559e+08
-5.037647e+08
-5.158234e+08
-5.32685e+08
-5.553739e+08
0
0
0
0
0
0
0
-4.744785e+08
-4.819121e+08
-4.929281e+08
-5.082535e+08
-5.287494e+08
0
0
0
0
0
0
0
0
-4.549713e+08
-4.618464e+08
-4.719946e+08
-4.860485e+08
-5.047397e+08
0
0
0
0
0
0
0
0
0
-4.369389e+08
-4.433462e+08
-4.527636e+08
-4.657471e+08
-4.829325e+08
0
0
0
0
0
0
0
0
0
0
-4.200844e+08
-4.260926e+08
-4.348825e+08
-4.469483e+08
-4.628478e+08
0
0
0
0
0
0
0
0
0
0
-4.040117e+08
-4.096703e+08
-4.179069e+08
-4.291639e+08
-4.439355e+08
0
0
0
0
0
0
0
0
0
0
-3.882521e+08
-3.935915e+08
-4.013221e+08
-4.1184e+08
-4.255851e+08
0
0
0
0
0
0
0
0
0
0
-3.725453e+08
-3.775857e+08
-3.848408e+08
-3.94666e+08
-4.074527e+08
0
0
0
0
0
0
0
0
0
0
0
0
0
0
-3.573501e+08
-3.621193e+08
-3.689432e+08
-3.78141e+08
-3.900629e+08
0
0
0
0
0
0
0
0
0
0
0
0
0
0
0
-3.431667e+08
-3.476995e+08
-3.54146e+08
-3.627953e+08
-3.739628e+08
0
0
0
0
0
0
0
0
0
0
0
0
0
0
0
0
-3.302187e+08
-3.3455e+08
-3.406716e+08
-3.488486e+08
-3.593676e+08
0
0
0
0
0
0
0
0
0
0
0
0
0
0
0
0
0
-3.18542e+08
-3.227007e+08
-3.285451e+08
-3.363173e+08
-3.462812e+08
0
0
0
0
0
0
0
0
0
0
0
0
0
0
0
0
0
0
-6.822759e+08
-7.01786e+08
-7.321924e+08
-7.782485e+08
-8.407245e+08
-6.454587e+08
-6.61447e+08
-6.859185e+08
-7.223732e+08
-7.760565e+08
0
-6.147945e+08
-6.284474e+08
-6.492047e+08
-6.794267e+08
-7.22936e+08
0
0
-5.883074e+08
-6.003398e+08
-6.185039e+08
-6.446459e+08
-6.813432e+08
0
0
0
-5.643329e+08
-5.751324e+08
-5.913791e+08
-6.145178e+08
-6.465511e+08
0
0
0
0
-5.412523e+08
-5.510395e+08
-5.656988e+08
-5.864422e+08
-6.148107e+08
0
0
0
0
0
-5.18193e+08
-5.270743e+08
-5.403343e+08
-5.589727e+08
-5.842483e+08
0
0
0
0
0
0
-4.957753e+08
-5.038711e+08
-5.159136e+08
-5.327532e+08
-5.554104e+08
0
0
0
0
0
0
0
-4.746233e+08
-4.820548e+08
-4.930688e+08
-5.083917e+08
-5.288841e+08
0
0
0
0
0
0
0
0
-4.549713e+08
-4.618464e+08
-4.719946e+08
-4.860485e+08
-5.047397e+08
0
0
0
0
0
0
0
0
0
-4.368e+08
-4.432075e+08
-4.526246e+08
-4.656075e+08
-4.827919e+08
0
0
0
0
0
0
0
0
0
0
-4.199458e+08
-4.259565e+08
-4.347491e+08
-4.468181e+08
-4.627221e+08
0
0
0
0
0
0
0
0
0
0
-4.041449e+08
-4.098132e+08
-4.180631e+08
-4.293381e+08
-4.441341e+08
0
0
0
0
0
0
0
0
0
0
-3.890361e+08
-3.944002e+08
-4.021664e+08
-4.127338e+08
-4.265456e+08
0
0
0
0
0
0
0
0
0
0
-3.741841e+08
-3.792673e+08
-3.865861e+08
-3.965001e+08
-4.094066e+08
0
0
0
0
0
0
0
0
0
0
-3.593461e+08
-3.641628e+08
-3.710568e+08
-3.803522e+08
-3.924047e+08
0
0
0
0
0
0
0
0
0
0
0
0
0
0
0
-3.449568e+08
-3.495292e+08
-3.560336e+08
-3.647633e+08
-3.760379e+08
0
0
0
0
0
0
0
0
0
0
0
0
0
0
0
0
-3.314948e+08
-3.358528e+08
-3.420134e+08
-3.502443e+08
-3.608348e+08
0
0
0
0
0
0
0
0
0
0
0
0
0
0
0
0
0
-3.191825e+08
-3.233542e+08
-3.292177e+08
-3.37016e+08
-3.470144e+08
0
0
0
0
0
0
0
0
0
0
0
0
0
0
0
0
0
0
-3.080618e+08
-3.120727e+08
-3.176793e+08
-3.251057e+08
-3.345941e+08
0
0
0
0
0
0
0
0
0
0
0
0
0
0
0
0
0
0
0
-6.43084e+08
-6.588594e+08
-6.830018e+08
-7.189114e+08
-7.715618e+08
0
-6.10795e+08
-6.241434e+08
-6.44442e+08
-6.73956e+08
-7.16292e+08
0
0
-5.834741e+08
-5.951782e+08
-6.128589e+08
-6.382756e+08
-6.738523e+08
0
0
0
-5.596176e+08
-5.701173e+08
-5.859267e+08
-6.084255e+08
-6.394988e+08
0
0
0
0
-5.378232e+08
-5.473946e+08
-5.617431e+08
-5.820366e+08
-6.097467e+08
0
0
0
0
0
-5.166967e+08
-5.254769e+08
-5.385944e+08
-5.570311e+08
-5.820165e+08
0
0
0
0
0
0
-4.95477e+08
-5.035376e+08
-5.155326e+08
-5.323065e+08
-5.548708e+08
0
0
0
0
0
0
0
-4.747517e+08
-4.821741e+08
-4.93177e+08
-5.084855e+08
-5.289576e+08
0
0
0
0
0
0
0
0
-4.551135e+08
-4.619876e+08
-4.721351e+08
-4.861883e+08
-5.048789e+08
0
0
0
0
0
0
0
0
0
-4.368e+08
-4.432075e+08
-4.526246e+08
-4.656075e+08
-4.827919e+08
0
0
0
0
0
0
0
0
0
0
-4.198105e+08
-4.258209e+08
-4.346125e+08
-4.4668e+08
-4.625819e+08
0
0
0
0
0
0
0
0
0
0
-4.040063e+08
-4.096759e+08
-4.17927e+08
-4.292034e+08
-4.440013e+08
0
0
0
0
0
0
0
0
0
0
-3.891514e+08
-3.945228e+08
-4.022995e+08
-4.128811e+08
-4.267122e+08
0
0
0
0
0
0
0
0
0
0
-3.749128e+08
-3.800167e+08
-3.873658e+08
-3.973223e+08
-4.10286e+08
0
0
0
0
0
0
0
0
0
0
-3.608849e+08
-3.657391e+08
-3.726889e+08
-3.820628e+08
-3.94221e+08
0
0
0
0
0
0
0
0
0
0
-3.468399e+08
-3.514547e+08
-3.580218e+08
-3.668389e+08
-3.782305e+08
0
0
0
0
0
0
0
0
0
0
0
0
0
0
0
0
-3.331893e+08
-3.375829e+08
-3.43796e+08
-3.520995e+08
-3.627868e+08
0
0
0
0
0
0
0
0
0
0
0
0
0
0
0
0
0
-3.203936e+08
-3.245893e+08
-3.304884e+08
-3.383357e+08
-3.48399e+08
0
0
0
0
0
0
0
0
0
0
0
0
0
0
0
0
0
0
-3.086707e+08
-3.126934e+08
-3.183173e+08
-3.257676e+08
-3.352874e+08
0
0
0
0
0
0
0
0
0
0
0
0
0
0
0
0
0
0
0
-2.980695e+08
-3.019393e+08
-3.073239e+08
-3.144294e+08
-3.234799e+08
0
0
0
0
0
0
0
0
0
0
0
0
0
0
0
0
0
0
0
0
-6.086997e+08
-6.218937e+08
-6.419604e+08
-6.71119e+08
-7.128722e+08
0
0
-5.799085e+08
-5.913822e+08
-6.087253e+08
-6.33639e+08
-6.684481e+08
0
0
0
-5.552777e+08
-5.655234e+08
-5.809634e+08
-6.029256e+08
-6.332047e+08
0
0
0
0
-5.335737e+08
-5.429088e+08
-5.56917e+08
-5.767214e+08
-6.037258e+08
0
0
0
0
0
-5.136057e+08
-5.22215e+08
-5.350877e+08
-5.531765e+08
-5.776655e+08
0
0
0
0
0
0
-4.941378e+08
-5.021184e+08
-5.140015e+08
-5.306189e+08
-5.529638e+08
0
0
0
0
0
0
0
-4.745009e+08
-4.818964e+08
-4.92863e+08
-5.08122e+08
-5.285256e+08
0
0
0
0
0
0
0
0
-4.552475e+08
-4.621154e+08
-4.722556e+08
-4.862993e+08
-5.04977e+08
0
0
0
0
0
0
0
0
0
-4.369389e+08
-4.433462e+08
-4.527636e+08
-4.657471e+08
-4.829325e+08
0
0
0
0
0
0
0
0
0
0
-4.198105e+08
-4.258209e+08
-4.346125e+08
-4.4668e+08
-4.625819e+08
0
0
0
0
0
0
0
0
0
0
-4.038749e+08
-4.095437e+08
-4.177934e+08
-4.290677e+08
-4.438627e+08
0
0
0
0
0
0
0
0
0
0
-3.890139e+08
-3.943856e+08
-4.021624e+08
-4.127439e+08
-4.265751e+08
0
0
0
0
0
0
0
0
0
0
-3.750132e+08
-3.801226e+08
-3.874797e+08
-3.974475e+08
-4.104265e+08
0
0
0
0
0
0
0
0
0
0
-3.615646e+08
-3.664363e+08
-3.734121e+08
-3.828225e+08
-3.950301e+08
0
0
0
0
0
0
0
0
0
0
-3.482885e+08
-3.529363e+08
-3.595529e+08
-3.684395e+08
-3.799249e+08
0
0
0
0
0
0
0
0
0
0
-3.349698e+08
-3.394012e+08
-3.456708e+08
-3.540529e+08
-3.648455e+08
0
0
0
0
0
0
0
0
0
0
0
0
0
0
0
0
0
-3.22001e+08
-3.262286e+08
-3.321752e+08
-3.400886e+08
-3.502397e+08
0
0
0
0
0
0
0
0
0
0
0
0
0
0
0
0
0
0
-3.09822e+08
-3.138665e+08
-3.195227e+08
-3.270178e+08
-3.36597e+08
0
0
0
0
0
0
0
0
0
0
0
0
0
0
0
0
0
0
0
-2.98649e+08
-3.025297e+08
-3.079302e+08
-3.150575e+08
-3.241368e+08
0
0
0
0
0
0
0
0
0
0
0
0
0
0
0
0
0
0
0
0
-2.885315e+08
-2.922693e+08
-2.974438e+08
-3.042499e+08
-3.128939e+08
0
0
0
0
0
0
0
0
0
0
0
0
0
0
0
0
0
0
0
0
0
-5.780366e+08
-5.893928e+08
-6.06564e+08
-6.312228e+08
-6.656458e+08
0
0
0
-5.520663e+08
-5.621324e+08
-5.773119e+08
-5.988975e+08
-6.286239e+08
0
0
0
0
-5.296436e+08
-5.387763e+08
-5.524933e+08
-5.718814e+08
-5.982906e+08
0
0
0
0
0
-5.097464e+08
-5.181656e+08
-5.307654e+08
-5.48468e+08
-5.724113e+08
0
0
0
0
0
0
-4.913312e+08
-4.991737e+08
-5.108597e+08
-5.271993e+08
-5.491562e+08
0
0
0
0
0
0
0
-4.732932e+08
-4.806246e+08
-4.915014e+08
-5.066361e+08
-5.268678e+08
0
0
0
0
0
0
0
0
-4.550353e+08
-4.618824e+08
-4.719946e+08
-4.860004e+08
-5.046262e+08
0
0
0
0
0
0
0
0
0
-4.370761e+08
-4.434793e+08
-4.52892e+08
-4.658697e+08
-4.830472e+08
0
0
0
0
0
0
0
0
0
0
-4.199458e+08
-4.259565e+08
-4.347491e+08
-4.468181e+08
-4.627221e+08
0
0
0
0
0
0
0
0
0
0
-4.038749e+08
-4.095437e+08
-4.177934e+08
-4.290677e+08
-4.438627e+08
0
0
0
0
0
0
0
0
0
0
-3.888864e+08
-3.942571e+08
-4.020321e+08
-4.126112e+08
-4.26439e+08
0
0
0
0
0
0
0
0
0
0
-3.748775e+08
-3.799864e+08
-3.873427e+08
-3.973095e+08
-4.102872e+08
0
0
0
0
0
0
0
0
0
0
-3.616524e+08
-3.665282e+08
-3.735101e+08
-3.829293e+08
-3.951492e+08
0
0
0
0
0
0
0
0
0
0
-3.489246e+08
-3.535872e+08
-3.602262e+08
-3.691445e+08
-3.806728e+08
0
0
0
0
0
0
0
0
0
0
-3.36337e+08
-3.407973e+08
-3.471109e+08
-3.555552e+08
-3.664314e+08
0
0
0
0
0
0
0
0
0
0
-3.236881e+08
-3.279494e+08
-3.339469e+08
-3.419315e+08
-3.521777e+08
0
0
0
0
0
0
0
0
0
0
0
0
0
0
0
0
0
0
-3.113495e+08
-3.154228e+08
-3.21122e+08
-3.286773e+08
-3.383365e+08
0
0
0
0
0
0
0
0
0
0
0
0
0
0
0
0
0
0
0
-2.997454e+08
-3.03646e+08
-3.090759e+08
-3.16244e+08
-3.253777e+08
0
0
0
0
0
0
0
0
0
0
0
0
0
0
0
0
0
0
0
0
-2.890839e+08
-2.928317e+08
-2.980208e+08
-3.04847e+08
-3.135174e+08
0
0
0
0
0
0
0
0
0
0
0
0
0
0
0
0
0
0
0
0
0
-2.794199e+08
-2.830311e+08
-2.880091e+08
-2.945332e+08
-3.027983e+08
0
0
0
0
0
0
0
0
0
0
0
0
0
0
0
0
0
0
0
0
0
0
-5.503776e+08
-5.603517e+08
-5.753978e+08
-5.967912e+08
-6.262369e+08
0
0
0
0
-5.267278e+08
-5.357166e+08
-5.492267e+08
-5.683199e+08
-5.943099e+08
0
0
0
0
0
-5.061622e+08
-5.144169e+08
-5.267807e+08
-5.441505e+08
-5.676267e+08
0
0
0
0
0
0
-4.878039e+08
-4.954903e+08
-5.069529e+08
-5.229789e+08
-5.445003e+08
0
0
0
0
0
0
0
-4.707289e+08
-4.779471e+08
-4.886619e+08
-5.035701e+08
-5.234891e+08
0
0
0
0
0
0
0
0
-4.53939e+08
-4.607341e+08
-4.707733e+08
-4.846782e+08
-5.031662e+08
0
0
0
0
0
0
0
0
0
-4.368953e+08
-4.432824e+08
-4.526734e+08
-4.656218e+08
-4.827593e+08
0
0
0
0
0
0
0
0
0
0
-4.200844e+08
-4.260926e+08
-4.348825e+08
-4.469483e+08
-4.628478e+08
0
0
0
0
0
0
0
0
0
0
-4.040063e+08
-4.096759e+08
-4.17927e+08
-4.292034e+08
-4.440013e+08
0
0
0
0
0
0
0
0
0
0
-3.888864e+08
-3.942571e+08
-4.020321e+08
-4.126112e+08
-4.26439e+08
0
0
0
0
0
0
0
0
0
0
-3.747542e+08
-3.798618e+08
-3.87216e+08
-3.971801e+08
-4.101541e+08
0
0
0
0
0
0
0
0
0
0
-3.615191e+08
-3.663939e+08
-3.733743e+08
-3.827915e+08
-3.950093e+08
0
0
0
0
0
0
0
0
0
0
-3.490018e+08
-3.536674e+08
-3.60311e+08
-3.69236e+08
-3.80774e+08
0
0
0
0
0
0
0
0
0
0
-3.369343e+08
-3.41407e+08
-3.477401e+08
-3.562119e+08
-3.671256e+08
0
0
0
0
0
0
0
0
0
0
-3.249815e+08
-3.292681e+08
-3.353049e+08
-3.433452e+08
-3.536665e+08
0
0
0
0
0
0
0
0
0
0
-3.129511e+08
-3.170547e+08
-3.227998e+08
-3.304196e+08
-3.401653e+08
0
0
0
0
0
0
0
0
0
0
0
0
0
0
0
0
0
0
0
-3.011992e+08
-3.05126e+08
-3.105952e+08
-3.17818e+08
-3.270249e+08
0
0
0
0
0
0
0
0
0
0
0
0
0
0
0
0
0
0
0
0
-2.901294e+08
-2.938954e+08
-2.991116e+08
-3.059752e+08
-3.146953e+08
0
0
0
0
0
0
0
0
0
0
0
0
0
0
0
0
0
0
0
0
0
-2.799472e+08
-2.835676e+08
-2.885591e+08
-2.951017e+08
-3.033911e+08
0
0
0
0
0
0
0
0
0
0
0
0
0
0
0
0
0
0
0
0
0
0
-2.707083e+08
-2.741989e+08
-2.789902e+08
-2.852507e+08
-2.931596e+08
0
0
0
0
0
0
0
0
0
0
0
0
0
0
0
0
0
0
0
0
0
0
0
-5.251926e+08
-5.341071e+08
-5.475108e+08
-5.664528e+08
-5.922284e+08
0
0
0
0
0
-5.034972e+08
-5.116342e+08
-5.238292e+08
-5.409616e+08
-5.64106e+08
0
0
0
0
0
0
-4.845159e+08
-4.920662e+08
-5.033338e+08
-5.190867e+08
-5.402308e+08
0
0
0
0
0
0
0
-4.674874e+08
-4.745756e+08
-4.851042e+08
-4.997526e+08
-5.193145e+08
0
0
0
0
0
0
0
0
-4.515833e+08
-4.582843e+08
-4.681886e+08
-4.819052e+08
-5.001359e+08
0
0
0
0
0
0
0
0
0
-4.358944e+08
-4.422389e+08
-4.515697e+08
-4.644351e+08
-4.814599e+08
0
0
0
0
0
0
0
0
0
0
-4.199295e+08
-4.259253e+08
-4.346982e+08
-4.46741e+08
-4.626095e+08
0
0
0
0
0
0
0
0
0
0
-4.041449e+08
-4.098132e+08
-4.180631e+08
-4.293381e+08
-4.441341e+08
0
0
0
0
0
0
0
0
0
0
-3.890139e+08
-3.943856e+08
-4.021624e+08
-4.127439e+08
-4.265751e+08
0
0
0
0
0
0
0
0
0
0
-3.747542e+08
-3.798618e+08
-3.87216e+08
-3.971801e+08
-4.101541e+08
0
0
0
0
0
0
0
0
0
0
-3.613999e+08
-3.662732e+08
-3.732514e+08
-3.826656e+08
-3.948796e+08
0
0
0
0
0
0
0
0
0
0
-3.488713e+08
-3.535354e+08
-3.601771e+08
-3.690996e+08
-3.806346e+08
0
0
0
0
0
0
0
0
0
0
-3.370027e+08
-3.414772e+08
-3.478137e+08
-3.562908e+08
-3.672121e+08
0
0
0
0
0
0
0
0
0
0
-3.255441e+08
-3.298411e+08
-3.358945e+08
-3.439591e+08
-3.543134e+08
0
0
0
0
0
0
0
0
0
0
-3.141774e+08
-3.183035e+08
-3.240834e+08
-3.317533e+08
-3.415668e+08
0
0
0
0
0
0
0
0
0
0
-3.027224e+08
-3.066766e+08
-3.121873e+08
-3.194687e+08
-3.287542e+08
0
0
0
0
0
0
0
0
0
0
0
0
0
0
0
0
0
0
0
0
-2.915153e+08
-2.953052e+08
-3.005573e+08
-3.074711e+08
-3.16258e+08
0
0
0
0
0
0
0
0
0
0
0
0
0
0
0
0
0
0
0
0
0
-2.809457e+08
-2.845827e+08
-2.895992e+08
-2.961762e+08
-3.045114e+08
0
0
0
0
0
0
0
0
0
0
0
0
0
0
0
0
0
0
0
0
0
0
-2.712123e+08
-2.747114e+08
-2.795151e+08
-2.857927e+08
-2.937241e+08
0
0
0
0
0
0
0
0
0
0
0
0
0
0
0
0
0
0
0
0
0
0
0
-2.62379e+08
-2.65748e+08
-2.703624e+08
-2.763735e+08