/*--------------------------------*- C++ -*----------------------------------*\
| =========                 |                                                 |
| \\      /  F ield         | OpenFOAM: The Open Source CFD Toolbox           |
|  \\    /   O peration     | Version:  2306                                  |
|   \\  /    A nd           | Website:  www.openfoam.com                      |
|    \\/     M anipulation  |                                                 |
\*---------------------------------------------------------------------------*/
FoamFile
{
    version     2.0;
    format      ascii;
    arch        "LSB;label=32;scalar=64";
    class       volScalarField;
    location    "1.5/phiEA";
    object      phi;
}
// * * * * * * * * * * * * * * * * * * * * * * * * * * * * * * * * * * * * * //

dimensions      [1 2 -3 0 0 -1 0];

internalField   nonuniform List<scalar> 
20000
(
-0.004791823
-0.004927524
-0.004450356
-0.004787349
-0.005227824
-0.004568651
-0.004922966
-0.004110979
-0.004446274
-0.004778581
-0.005751224
-0.004831026
-0.005223098
-0.004216821
-0.004564505
-0.004914034
-0.003820577
-0.00410723
-0.004438267
-0.004765648
-0.006567825
-0.005289795
-0.005746271
-0.00445188
-0.004826749
-0.005213833
-0.003917428
-0.004213017
-0.004556369
-0.004900856
-0.00357509
-0.003817094
-0.004099868
-0.004426445
-0.004748627
-0.007662023
-0.006007982
-0.006562749
-0.004863626
-0.005285349
-0.005736562
-0.004132699
-0.004447965
-0.004818353
-0.005200161
-0.00366497
-0.003913896
-0.004205544
-0.004544354
-0.004883513
-0.003364722
-0.003571827
-0.003810247
-0.004088988
-0.004410876
-0.004730405
-0.008739089
-0.006972783
-0.00765726
-0.005509359
-0.006003473
-0.006552804
-0.004510207
-0.004859569
-0.00527662
-0.005722233
-0.003864863
-0.004129067
-0.004440271
-0.004805954
-0.005182165
-0.003448878
-0.003661662
-0.003906951
-0.004194501
-0.004528532
-0.004864946
-0.003181508
-0.003361647
-0.003565408
-0.003800122
-0.004074653
-0.004394203
-0.004714828
-0.009618107
-0.00792279
-0.008734494
-0.00637792
-0.006968612
-0.007647951
-0.005102905
-0.005505262
-0.005994625
-0.006538132
-0.004215686
-0.004506451
-0.004851596
-0.005263724
-0.005703369
-0.003636129
-0.003861466
-0.004121927
-0.0044289
-0.00478962
-0.005162897
-0.003260794
-0.003445762
-0.003655154
-0.003896681
-0.004179948
-0.004511586
-0.004849031
-0.003019412
-0.003178598
-0.003355594
-0.003555909
-0.003786775
-0.004059295
-0.004379954
-0.004699042
-0.01022447
-0.008697948
-0.009613555
-0.007233123
-0.00791882
-0.008725533
-0.005900754
-0.006374147
-0.006960446
-0.00763425
-0.004766919
-0.005099121
-0.005497211
-0.005981556
-0.00651882
-0.003964965
-0.004212176
-0.004499064
-0.004839807
-0.005246733
-0.005683166
-0.003437272
-0.003632931
-0.00385478
-0.004111365
-0.004413912
-0.004772125
-0.005146298
-0.003094446
-0.003257846
-0.003439628
-0.003645523
-0.00388314
-0.004164356
-0.004497065
-0.004832861
-0.002874129
-0.003016649
-0.003172866
-0.003346633
-0.003543381
-0.003772469
-0.004046173
-0.004365517
-0.004683047
-0.01053171
-0.00923253
-0.01021992
-0.007930642
-0.008694053
-0.009604685
-0.006686353
-0.007229547
-0.007911061
-0.008712363
-0.005509361
-0.005897277
-0.006366749
-0.006948408
-0.007616249
-0.004481957
-0.004763387
-0.005091677
-0.005485309
-0.005964338
-0.006498138
-0.003747341
-0.003961664
-0.004205267
-0.004488134
-0.004824265
-0.00522853
-0.005665664
-0.003261512
-0.003434248
-0.003626633
-0.003844884
-0.004097436
-0.004397851
-0.004757057
-0.005129349
-0.002945388
-0.003091648
-0.003252038
-0.003430545
-0.003632819
-0.003868627
-0.004151
-0.004482315
-0.004816436
-0.002742495
-0.002871499
-0.003011204
-0.003164378
-0.00333481
-0.00352995
-0.00376025
-0.004032883
-0.004350894
-0.004666843
-0.01053171
-0.009503352
-0.01052715
-0.008411475
-0.009228657
-0.01021105
-0.007326983
-0.007927145
-0.008686444
-0.009591659
-0.00624046
-0.006683065
-0.007222547
-0.007899637
-0.008695079
-0.005178575
-0.00550612
-0.005890452
-0.006355833
-0.006932575
-0.007596999
-0.004235057
-0.004478637
-0.004756434
-0.005080665
-0.00546962
-0.005945892
-0.00648025
-0.00355516
-0.003744221
-0.003955161
-0.004195039
-0.004473717
-0.004807608
-0.005212761
-0.005647697
-0.003104087
-0.003258642
-0.003428288
-0.003617306
-0.003831828
-0.004082506
-0.004384023
-0.004741675
-0.005112052
-0.002810356
-0.002942724
-0.003086132
-0.003243436
-0.00341856
-0.003619199
-0.003856197
-0.004137438
-0.004467337
-0.004799757
-0.002622186
-0.002739986
-0.002866313
-0.003003136
-0.003153173
-0.003322131
-0.00351848
-0.003747877
-0.004019425
-0.004336084
-0.004494531
-0.01022447
-0.009503352
-0.01052715
-0.008654995
-0.009499483
-0.01051827
-0.007768507
-0.008408004
-0.009221092
-0.01019803
-0.00683661
-0.007323771
-0.007920302
-0.008675249
-0.009574573
-0.005864614
-0.006237399
-0.00667662
-0.00721223
-0.007884628
-0.00867661
-0.004892448
-0.005175533
-0.005499754
-0.005880372
-0.006341465
-0.006915636
-0.007580805
-0.004017226
-0.004231922
-0.0044721
-0.004746143
-0.005066141
-0.005452803
-0.005929929
-0.006461914
-0.003383124
-0.003552201
-0.003738072
-0.003945528
-0.004181541
-0.00445826
-0.004793182
-0.005196572
-0.005629263
-0.002961521
-0.003101356
-0.003252984
-0.003419459
-0.003604996
-0.003817828
-0.004069655
-0.004369912
-0.00472598
-0.005094406
-0.002686959
-0.002807815
-0.002937471
-0.003077958
-0.003232081
-0.003405706
-0.003607537
-0.00384358
-0.004123671
-0.004452132
-0.004621971
-0.002511437
-0.002619787
-0.002735035
-0.002858625
-0.002992483
-0.003141153
-0.003311303
-0.003506866
-0.00373535
-0.004005799
-0.00417863
-0.004146432
-0.009618107
-0.00923253
-0.01021992
-0.008654995
-0.009499483
-0.01051827
-0.007992084
-0.008651531
-0.009491928
-0.01050523
-0.007247442
-0.007765322
-0.008401214
-0.009209964
-0.01018095
-0.006424017
-0.006833623
-0.00731748
-0.007910222
-0.008660547
-0.009556322
-0.005539913
-0.005861743
-0.006231394
-0.006667111
-0.007198663
-0.007868581
-0.008661367
-0.004640215
-0.004889578
-0.005169553
-0.005490346
-0.005867098
-0.006326085
-0.006901374
-0.007564655
-0.003822338
-0.004014254
-0.004225745
-0.004462417
-0.004732561
-0.005050567
-0.005438254
-0.005913559
-0.006443125
-0.003227387
-0.003380309
-0.003546366
-0.003728959
-0.003932812
-0.004167064
-0.004444876
-0.004778377
-0.005179963
-0.005610362
-0.002831272
-0.002958916
-0.003095969
-0.003244597
-0.003407801
-0.003591792
-0.00380578
-0.004056543
-0.004355519
-0.004709972
-0.00490547
-0.00257338
-0.002684529
-0.002802801
-0.002929683
-0.003067164
-0.003219899
-0.003394701
-0.003595699
-0.003830773
-0.004109699
-0.004290092
-0.004258892
-0.002408886
-0.00250914
-0.002615053
-0.002727694
-0.002848471
-0.002981053
-0.00313089
-0.003300342
-0.00349511
-0.003722669
-0.003860977
-0.003860887
-0.003780797
-0.008739089
-0.008697948
-0.009613555
-0.008411475
-0.009228657
-0.01021105
-0.007992084
-0.008651531
-0.009491928
-0.01050523
-0.007455463
-0.007988907
-0.008644756
-0.009480816
-0.01048813
-0.006809514
-0.007244481
-0.007759084
-0.008391213
-0.009195352
-0.01016271
-0.006067872
-0.006421217
-0.006827766
-0.007308202
-0.007896971
-0.008644834
-0.009541382
-0.005253848
-0.005537207
-0.005856107
-0.006222529
-0.006654599
-0.00718415
-0.007855329
-0.008646457
-0.004414658
-0.004637496
-0.004883932
-0.00516071
-0.005477949
-0.005852882
-0.006313136
-0.00688714
-0.007548549
-0.003645986
-0.003819513
-0.004008395
-0.004216591
-0.004449634
-0.004717994
-0.005037095
-0.005423336
-0.005896778
-0.006423878
-0.003085151
-0.003224703
-0.003374755
-0.003537714
-0.003716925
-0.00391917
-0.004154532
-0.004431145
-0.004763193
-0.005162933
-0.005406979
-0.002711412
-0.002828782
-0.002953776
-0.003087981
-0.00323352
-0.003395294
-0.00358043
-0.00379349
-0.004043173
-0.004340843
-0.00453861
-0.004511299
-0.00246822
-0.002571054
-0.002679735
-0.002795365
-0.002919396
-0.003055582
-0.00320947
-0.003383532
-0.003583687
-0.003817779
-0.003960842
-0.003959511
-0.0038739
-0.002313459
-0.002406684
-0.002504605
-0.00260803
-0.002717994
-0.002837573
-0.002971294
-0.003120501
-0.003289247
-0.003483212
-0.003587918
-0.003569076
-0.003527374
-0.00340067
-0.007662023
-0.00792279
-0.008734494
-0.007930642
-0.008694053
-0.009604685
-0.007768507
-0.008408004
-0.009221092
-0.01019803
-0.007455463
-0.007988907
-0.008644756
-0.009480816
-0.01048813
-0.007004701
-0.007452511
-0.007982686
-0.008634778
-0.009466225
-0.01046988
-0.006431696
-0.006806739
-0.007238677
-0.007749887
-0.008378069
-0.009179737
-0.01014783
-0.005754231
-0.006065232
-0.006415722
-0.006819122
-0.007295998
-0.007882801
-0.008631965
-0.009526893
-0.004998124
-0.005251285
-0.005531887
-0.005847779
-0.006210856
-0.006641209
-0.007172164
-0.007842358
-0.008631883
-0.004210617
-0.004412074
-0.004632144
-0.004875577
-0.005149051
-0.005464667
-0.005840913
-0.006300211
-0.006872933
-0.007532489
-0.003484973
-0.003643294
-0.00381394
-0.003999709
-0.004204501
-0.004435919
-0.004705395
-0.005023284
-0.005408045
-0.00587958
-0.006216917
-0.002954296
-0.003082587
-0.003219406
-0.003366519
-0.003526285
-0.00370401
-0.003907361
-0.004141675
-0.004417064
-0.004747628
-0.004979686
-0.004970916
-0.002600458
-0.002709029
-0.002823868
-0.002946151
-0.003077428
-0.003221633
-0.003384532
-0.003568841
-0.003780959
-0.004029543
-0.004183789
-0.004181376
-0.004084502
-0.002370374
-0.00246599
-0.002566462
-0.002672622
-0.00278554
-0.002908355
-0.003045667
-0.003198887
-0.003372199
-0.0035715
-0.003679374
-0.003657537
-0.003609216
-0.003470531
-0.002224293
-0.002311345
-0.002402334
-0.002497876
-0.002598747
-0.002707582
-0.002828269
-0.002961415
-0.003109986
-0.003278019
-0.003356788
-0.003316548
-0.003262957
-0.003180784
-0.003009717
-0.006567825
-0.006972783
-0.00765726
-0.007233123
-0.00791882
-0.008725533
-0.007326983
-0.007927145
-0.008686444
-0.009591659
-0.007247442
-0.007765322
-0.008401214
-0.009209964
-0.01018095
-0.007004701
-0.007452511
-0.007982686
-0.008634778
-0.009466225
-0.01046988
-0.006615908
-0.007001935
-0.007446723
-0.007973514
-0.008621665
-0.009450632
-0.01045499
-0.006099053
-0.006429081
-0.006801295
-0.007230112
-0.007737791
-0.008364014
-0.009166987
-0.01013344
-0.005473919
-0.005751733
-0.006060048
-0.006407607
-0.006807745
-0.007282941
-0.007871196
-0.00861948
-0.009512858
-0.004766845
-0.00499569
-0.005246246
-0.005524024
-0.00583681
-0.006198358
-0.006630149
-0.00716043
-0.00782967
-0.008617645
-0.004024369
-0.004208156
-0.004406986
-0.004624221
-0.004864557
-0.005136556
-0.005453486
-0.005828967
-0.00628731
-0.006858756
-0.007364366
-0.003336883
-0.003482402
-0.00363798
-0.003805675
-0.003988234
-0.004191527
-0.004424057
-0.004692479
-0.00500913
-0.005392378
-0.005694588
-0.00576954
-0.002833192
-0.002951842
-0.003077524
-0.003211546
-0.003355634
-0.003514017
-0.003692832
-0.003895248
-0.004128493
-0.004402633
-0.004580188
-0.004586786
-0.004481226
-0.002497238
-0.002598174
-0.002704323
-0.002816576
-0.002936074
-0.0030661
-0.003211406
-0.003373557
-0.003557027
-0.003768187
-0.003883711
-0.003856797
-0.003794768
-0.00362839
-0.002278955
-0.002368233
-0.002461586
-0.002559648
-0.002663221
-0.002774993
-0.002898905
-0.003035606
-0.003188149
-0.003360702
-0.00344171
-0.003397614
-0.003336438
-0.00324234
-0.003053449
-0.002140684
-0.002222261
-0.002307167
-0.002395877
-0.002488979
-0.002588781
-0.002698692
-0.002818851
-0.002951418
-0.003099345
-0.00315873
-0.003102342
-0.003032147
-0.002945028
-0.00282437
-0.002751243
-0.005751224
-0.006007982
-0.006562749
-0.00637792
-0.006968612
-0.007647951
-0.006686353
-0.007229547
-0.007911061
-0.008712363
-0.00683661
-0.007323771
-0.007920302
-0.008675249
-0.009574573
-0.006809514
-0.007244481
-0.007759084
-0.008391213
-0.009195352
-0.01016271
-0.006615908
-0.007001935
-0.007446723
-0.007973514
-0.008621665
-0.009450632
-0.01045499
-0.006273645
-0.006613301
-0.006996507
-0.007438183
-0.007961451
-0.008607644
-0.009437912
-0.01044061
-0.0058018
-0.006096578
-0.006423946
-0.006793256
-0.00721884
-0.007724851
-0.008352538
-0.009154656
-0.01011954
-0.005220439
-0.005471547
-0.005746822
-0.006052388
-0.00639692
-0.006795567
-0.007272247
-0.007859937
-0.00860738
-0.009499276
-0.00455577
-0.004764526
-0.0049909
-0.005238792
-0.005513662
-0.005825061
-0.006188036
-0.006619322
-0.007148952
-0.007817267
-0.008471703
-0.003853106
-0.00402202
-0.004203306
-0.004399449
-0.004613767
-0.004852744
-0.005126037
-0.005442325
-0.005817044
-0.006274436
-0.006710229
-0.007051596
-0.003199861
-0.003334423
-0.003477324
-0.003630095
-0.003794751
-0.003975916
-0.004180306
-0.004411899
-0.004679244
-0.004994629
-0.00522387
-0.00529402
-0.005245576
-0.002720554
-0.00283084
-0.002946995
-0.003070009
-0.003201157
-0.003343948
-0.003503399
-0.003681367
-0.00388283
-0.004114986
-0.004247424
-0.004221582
-0.004145564
-0.003933254
-0.002400814
-0.002495046
-0.002593661
-0.002697338
-0.002806936
-0.002925255
-0.003056354
-0.003200976
-0.003362368
-0.003544986
-0.003631553
-0.003580359
-0.003503245
-0.003381722
-0.003149151
-0.00219324
-0.002276898
-0.002364004
-0.002455048
-0.002550638
-0.002653127
-0.002765964
-0.002889315
-0.003025399
-0.003177257
-0.003238279
-0.003177648
-0.003099522
-0.003000348
-0.002863034
-0.002777138
-0.002062045
-0.002138729
-0.002218245
-0.002300965
-0.002387339
-0.002479425
-0.002580273
-0.002689695
-0.00280932
-0.002941301
-0.002986309
-0.002918745
-0.002835797
-0.002736911
-0.002618203
-0.002588702
-0.002607677
-0.005227824
-0.005289795
-0.005746271
-0.005509359
-0.006003473
-0.006552804
-0.005900754
-0.006374147
-0.006960446
-0.00763425
-0.00624046
-0.006683065
-0.007222547
-0.007899637
-0.008695079
-0.006424017
-0.006833623
-0.00731748
-0.007910222
-0.008660547
-0.009556322
-0.006431696
-0.006806739
-0.007238677
-0.007749887
-0.008378069
-0.009179737
-0.01014783
-0.006273645
-0.006613301
-0.006996507
-0.007438183
-0.007961451
-0.008607644
-0.009437912
-0.01044061
-0.005967815
-0.006271178
-0.006608182
-0.006988492
-0.007426944
-0.007948546
-0.008596205
-0.009425623
-0.01042673
-0.005533025
-0.005799451
-0.006091715
-0.006416359
-0.006782671
-0.007206776
-0.007714284
-0.008341439
-0.009142746
-0.01010614
-0.004989129
-0.005218181
-0.005466881
-0.005739563
-0.006042296
-0.006385477
-0.006785593
-0.007261872
-0.007849023
-0.008595666
-0.00936143
-0.004361704
-0.004553558
-0.004759963
-0.004983813
-0.005228965
-0.005502559
-0.005815356
-0.006177931
-0.006608731
-0.00713773
-0.007690038
-0.008229786
-0.003694672
-0.003850859
-0.004017388
-0.004196119
-0.004389502
-0.004602557
-0.004842799
-0.005115538
-0.005431186
-0.005805145
-0.006139554
-0.006432919
-0.006756434
-0.003072444
-0.003197504
-0.003329564
-0.003469789
-0.003619673
-0.003783022
-0.003965263
-0.004168805
-0.00439944
-0.004665686
-0.004838691
-0.004859245
-0.004824322
-0.004602843
-0.002615352
-0.002718298
-0.002826194
-0.002939799
-0.003060073
-0.00319
-0.003333834
-0.003492509
-0.003669614
-0.003870106
-0.003969726
-0.003915289
-0.003819221
-0.003651853
-0.003327375
-0.002310417
-0.002398707
-0.002490713
-0.002586961
-0.002688102
-0.002796584
-0.002915947
-0.003046415
-0.003190343
-0.003350965
-0.003416187
-0.003347504
-0.003252587
-0.00312576
-0.002947772
-0.002829273
-0.002112626
-0.002191262
-0.002272833
-0.002357724
-0.002446402
-0.002540963
-0.002644487
-0.002756804
-0.002879586
-0.003015045
-0.00306128
-0.002989311
-0.002898409
-0.002787661
-0.002652997
-0.002611714
-0.002625024
-0.001987886
-0.002060163
-0.002134865
-0.002212281
-0.002292761
-0.002378168
-0.002471269
-0.002571662
-0.00268059
-0.002799677
-0.002833839
-0.002758974
-0.002667431
-0.002559189
-0.002433506
-0.002402127
-0.00245716
-0.00244827
-0.004927524
-0.004831026
-0.005223098
-0.004863626
-0.005285349
-0.005736562
-0.005102905
-0.005505262
-0.005994625
-0.006538132
-0.005509361
-0.005897277
-0.006366749
-0.006948408
-0.007616249
-0.005864614
-0.006237399
-0.00667662
-0.00721223
-0.007884628
-0.00867661
-0.006067872
-0.006421217
-0.006827766
-0.007308202
-0.007896971
-0.008644834
-0.009541382
-0.006099053
-0.006429081
-0.006801295
-0.007230112
-0.007737791
-0.008364014
-0.009166987
-0.01013344
-0.005967815
-0.006271178
-0.006608182
-0.006988492
-0.007426944
-0.007948546
-0.008596205
-0.009425623
-0.01042673
-0.005691296
-0.005965472
-0.006266329
-0.006600619
-0.00697794
-0.007414916
-0.007938018
-0.008585153
-0.009413765
-0.01041336
-0.005287773
-0.005530788
-0.00579483
-0.006084526
-0.006406364
-0.006771337
-0.007196925
-0.007704065
-0.008330718
-0.009131257
-0.00997061
-0.004776478
-0.004986974
-0.005213736
-0.005459979
-0.005729994
-0.006031486
-0.006376104
-0.006775916
-0.007251815
-0.007838457
-0.008476719
-0.009145171
-0.004182198
-0.004359589
-0.0045492
-0.004753207
-0.004974465
-0.005218433
-0.005493388
-0.005805856
-0.006168045
-0.006598376
-0.007022608
-0.007478414
-0.008031119
-0.003547369
-0.00369252
-0.003846427
-0.004010521
-0.004186631
-0.004378832
-0.004593119
-0.004832873
-0.005105059
-0.00542007
-0.005680485
-0.005887678
-0.006170437
-0.006499998
-0.002953462
-0.003070183
-0.003192846
-0.003322349
-0.003459824
-0.003608479
-0.00377288
-0.003954344
-0.00415702
-0.004386679
-0.004519899
-0.004501476
-0.004431973
-0.004247799
-0.003764269
-0.002516744
-0.002613185
-0.002713837
-0.002819292
-0.002930281
-0.003049401
-0.003180344
-0.003323462
-0.003481346
-0.003657572
-0.003733283
-0.003659055
-0.003542874
-0.003369296
-0.003106014
-0.002906883
-0.002225411
-0.002308391
-0.002394543
-0.002484278
-0.002578099
-0.002678182
-0.002787679
-0.002906456
-0.003036285
-0.003179509
-0.003229006
-0.00314854
-0.003040731
-0.002902798
-0.002729323
-0.002658078
-0.002657875
-0.002036609
-0.002110722
-0.00218735
-0.002266795
-0.002349418
-0.002437116
-0.002532681
-0.00263572
-0.002747511
-0.002869718
-0.00290481
-0.002825497
-0.002726118
-0.002606369
-0.002465448
-0.002422875
-0.002472603
-0.002458929
-0.001917788
-0.001986073
-0.002056441
-0.002129123
-0.00220439
-0.002283948
-0.00237034
-0.002463015
-0.002562948
-0.002671378
-0.002697245
-0.002617768
-0.002520966
-0.002406692
-0.002274993
-0.002232944
-0.002281476
-0.002310427
-0.002279583
-0.004791823
-0.004568651
-0.004922966
-0.00445188
-0.004826749
-0.005213833
-0.004510207
-0.004859569
-0.00527662
-0.005722233
-0.004766919
-0.005099121
-0.005497211
-0.005981556
-0.00651882
-0.005178575
-0.00550612
-0.005890452
-0.006355833
-0.006932575
-0.007596999
-0.005539913
-0.005861743
-0.006231394
-0.006667111
-0.007198663
-0.007868581
-0.008661367
-0.005754231
-0.006065232
-0.006415722
-0.006819122
-0.007295998
-0.007882801
-0.008631965
-0.009526893
-0.0058018
-0.006096578
-0.006423946
-0.006793256
-0.00721884
-0.007724851
-0.008352538
-0.009154656
-0.01011954
-0.005691296
-0.005965472
-0.006266329
-0.006600619
-0.00697794
-0.007414916
-0.007938018
-0.008585153
-0.009413765
-0.01041336
-0.005438986
-0.005689066
-0.005960866
-0.006259163
-0.006590655
-0.006966641
-0.007405104
-0.007927847
-0.008574489
-0.009402337
-0.01027834
-0.005062317
-0.005285639
-0.005526387
-0.005787996
-0.006075051
-0.006395659
-0.006762083
-0.007187398
-0.007694193
-0.008320375
-0.00901503
-0.009762223
-0.004579795
-0.004774417
-0.004982731
-0.005207158
-0.005450879
-0.005719742
-0.006022631
-0.006367011
-0.006766536
-0.007242077
-0.007731158
-0.008289669
-0.008978014
-0.004015322
-0.004180172
-0.004355421
-0.004542747
-0.004744293
-0.004964443
-0.005209733
-0.005484411
-0.005796563
-0.00615838
-0.006492141
-0.006831028
-0.007304101
-0.007886063
-0.003409837
-0.003545305
-0.003688273
-0.003839856
-0.004001453
-0.004176452
-0.00436985
-0.004583699
-0.004822966
-0.005094602
-0.005303614
-0.005447729
-0.005649246
-0.005941843
-0.006326229
-0.002841955
-0.00295129
-0.003065713
-0.003185929
-0.003312807
-0.00344912
-0.003598799
-0.003762484
-0.003943157
-0.00414495
-0.004249461
-0.004204764
-0.004106552
-0.003907872
-0.003495557
-0.002998468
-0.00242403
-0.002514659
-0.002608898
-0.00270721
-0.002810163
-0.002920057
-0.003040166
-0.003170442
-0.00331283
-0.00346991
-0.003528092
-0.003440766
-0.003310857
-0.003126645
-0.0028721
-0.002727176
-0.00270063
-0.002145261
-0.002223461
-0.002304385
-0.002388356
-0.002475765
-0.002568579
-0.002669648
-0.002778598
-0.002896782
-0.003025962
-0.003063632
-0.002975651
-0.002859572
-0.00271346
-0.002535562
-0.002464703
-0.002501861
-0.002478134
-0.001964759
-0.002034774
-0.002106954
-0.002181538
-0.002258806
-0.002340494
-0.002429167
-0.002524279
-0.002626828
-0.002738086
-0.00276466
-0.002680756
-0.002576303
-0.002450926
-0.002304702
-0.002252013
-0.002295407
-0.002319924
-0.002285678
-0.001851394
-0.00191604
-0.001982485
-0.00205091
-0.002121527
-0.002195912
-0.002276425
-0.002362417
-0.002454663
-0.002554132
-0.00257353
-0.002491329
-0.002391596
-0.002274077
-0.002138843
-0.002087152
-0.002121074
-0.002146742
-0.002154456
-0.002106052
-0.004450356
-0.004787349
-0.004216821
-0.004564505
-0.004914034
-0.004132699
-0.004447965
-0.004818353
-0.005200161
-0.004215686
-0.004506451
-0.004851596
-0.005263724
-0.005703369
-0.004481957
-0.004763387
-0.005091677
-0.005485309
-0.005964338
-0.006498138
-0.004892448
-0.005175533
-0.005499754
-0.005880372
-0.006341465
-0.006915636
-0.007580805
-0.005253848
-0.005537207
-0.005856107
-0.006222529
-0.006654599
-0.00718415
-0.007855329
-0.008646457
-0.005473919
-0.005751733
-0.006060048
-0.006407607
-0.006807745
-0.007282941
-0.007871196
-0.00861948
-0.009512858
-0.005533025
-0.005799451
-0.006091715
-0.006416359
-0.006782671
-0.007206776
-0.007714284
-0.008341439
-0.009142746
-0.01010614
-0.005438986
-0.005689066
-0.005960866
-0.006259163
-0.006590655
-0.006966641
-0.007405104
-0.007927847
-0.008574489
-0.009402337
-0.01027834
-0.005207046
-0.005436858
-0.005684678
-0.005954054
-0.006249718
-0.006579984
-0.006957423
-0.007395623
-0.007918031
-0.008564211
-0.009286872
-0.01007199
-0.0048538
-0.005060276
-0.005281437
-0.005519874
-0.005778986
-0.0060649
-0.006386918
-0.006753133
-0.007178195
-0.00768467
-0.00821574
-0.008836031
-0.009604483
-0.004396965
-0.004577822
-0.004770359
-0.004976448
-0.005198482
-0.005441125
-0.005711344
-0.00601404
-0.006358196
-0.006757453
-0.007143192
-0.007562362
-0.008144798
-0.008863458
-0.003859531
-0.00401338
-0.004176179
-0.004349246
-0.004534229
-0.004734734
-0.004956165
-0.005201217
-0.005475628
-0.005787476
-0.006059222
-0.006315331
-0.006673161
-0.007176511
-0.007807529
-0.003280964
-0.003407855
-0.00354123
-0.003681974
-0.003831174
-0.003991722
-0.004167882
-0.004360884
-0.004574298
-0.00481308
-0.004985051
-0.005086196
-0.005227432
-0.005441593
-0.005786657
-0.002737131
-0.002839867
-0.002946995
-0.003059072
-0.003176778
-0.003302555
-0.003439864
-0.003588878
-0.003751833
-0.003931699
-0.004015169
-0.003952932
-0.003835842
-0.003622388
-0.00322446
-0.00280884
-0.002738503
-0.002336624
-0.002422023
-0.002510535
-0.002602528
-0.002698442
-0.002800353
-0.002911209
-0.003030695
-0.003160292
-0.003301938
-0.003346944
-0.003251347
-0.003113013
-0.002921827
-0.002666853
-0.002527096
-0.002539964
-0.002500866
-0.002069513
-0.002143382
-0.002219603
-0.002298431
-0.00238017
-0.002466619
-0.00256039
-0.002660946
-0.002769343
-0.002886925
-0.002915561
-0.002822967
-0.002702177
-0.002551367
-0.002369941
-0.002290467
-0.002321812
-0.00233704
-0.002296277
-0.001896708
-0.001962989
-0.002031143
-0.002101356
-0.002173847
-0.002250222
-0.002332857
-0.002421103
-0.002515756
-0.002617809
-0.002637743
-0.002551171
-0.002444001
-0.002315794
-0.002166708
-0.0021049
-0.002133881
-0.002155309
-0.002159882
-0.002109181
-0.001788392
-0.001849706
-0.001912579
-0.001977153
-0.002043591
-0.002113363
-0.002188675
-0.002268811
-0.0023544
-0.002446212
-0.002460491
-0.002376859
-0.002275819
-0.002157017
-0.002020488
-0.001961825
-0.001982503
-0.00199618
-0.002003309
-0.001993319
-0.001930521
-0.004110979
-0.004446274
-0.004778581
-0.003917428
-0.004213017
-0.004556369
-0.004900856
-0.003864863
-0.004129067
-0.004440271
-0.004805954
-0.005182165
-0.003964965
-0.004212176
-0.004499064
-0.004839807
-0.005246733
-0.005683166
-0.004235057
-0.004478637
-0.004756434
-0.005080665
-0.00546962
-0.005945892
-0.00648025
-0.004640215
-0.004889578
-0.005169553
-0.005490346
-0.005867098
-0.006326085
-0.006901374
-0.007564655
-0.004998124
-0.005251285
-0.005531887
-0.005847779
-0.006210856
-0.006641209
-0.007172164
-0.007842358
-0.008631883
-0.005220439
-0.005471547
-0.005746822
-0.006052388
-0.00639692
-0.006795567
-0.007272247
-0.007859937
-0.00860738
-0.009499276
-0.005287773
-0.005530788
-0.00579483
-0.006084526
-0.006406365
-0.006771337
-0.007196925
-0.007704065
-0.008330718
-0.009131257
-0.00997061
-0.005207046
-0.005436858
-0.005684678
-0.005954054
-0.006249718
-0.006579984
-0.006957423
-0.007395623
-0.007918031
-0.008564211
-0.009286872
-0.01007199
-0.004992539
-0.005205012
-0.005432669
-0.005678186
-0.005945073
-0.006239599
-0.006571278
-0.006948517
-0.007386473
-0.007908572
-0.008460363
-0.009110169
-0.009916734
-0.004659977
-0.004851847
-0.005056258
-0.005275217
-0.005511284
-0.005769329
-0.00605661
-0.006378464
-0.006744486
-0.007169316
-0.007588322
-0.008054555
-0.008700356
-0.009498465
-0.004226289
-0.004395073
-0.004573935
-0.004764348
-0.004968158
-0.005189179
-0.005433136
-0.005703196
-0.006005713
-0.006349661
-0.006665221
-0.00698761
-0.007431585
-0.008045356
-0.008804993
-0.003713562
-0.003857666
-0.004009549
-0.004170261
-0.004341092
-0.004525093
-0.004726838
-0.004948062
-0.005192886
-0.005467041
-0.005694251
-0.005894179
-0.006169621
-0.006557568
-0.007107306
-0.003159828
-0.003279059
-0.00340394
-0.003535184
-0.003673649
-0.003821855
-0.003983529
-0.004159328
-0.004351936
-0.004564916
-0.004709507
-0.004780535
-0.004880441
-0.005035606
-0.005300628
-0.002638322
-0.002735121
-0.002835736
-0.002940613
-0.003050285
-0.003166944
-0.003293689
-0.003430378
-0.003578714
-0.003740923
-0.003808501
-0.00373476
-0.003605878
-0.003383716
-0.002991353
-0.002600926
-0.002573742
-0.002518059
-0.00225403
-0.002334691
-0.002418053
-0.002504406
-0.002594097
-0.002689019
-0.002791864
-0.002902135
-0.003020987
-0.003149895
-0.003184828
-0.003084174
-0.002941331
-0.00274691
-0.002492186
-0.002347862
-0.002356219
-0.002357308
-0.002308076
-0.001997776
-0.002067701
-0.002139664
-0.002213868
-0.002290551
-0.002371373
-0.002458751
-0.00255204
-0.002652077
-0.002759913
-0.002781507
-0.002686313
-0.002563237
-0.002410549
-0.002227913
-0.0021407
-0.00215816
-0.002170755
-0.00216932
-0.002114491
-0.001832138
-0.001895
-0.001959487
-0.002025745
-0.002093946
-0.002165582
-0.002242875
-0.002325108
-0.002412923
-0.002507112
-0.002521793
-0.002433869
-0.002325615
-0.002196531
-0.002046774
-0.00197848
-0.001994425
-0.002004055
-0.002008199
-0.001996086
-0.001931632
-0.001728511
-0.001786763
-0.001846366
-0.001907435
-0.001970094
-0.002035724
-0.002106395
-0.002181351
-0.002261107
-0.002346289
-0.002356459
-0.002272305
-0.002171052
-0.002052323
-0.001916096
-0.001852906
-0.001863306
-0.001865739
-0.001863208
-0.001854875
-0.001829673
-0.001754887
-0.003820577
-0.00410723
-0.004438267
-0.004765648
-0.00366497
-0.003913896
-0.004205544
-0.004544354
-0.004883513
-0.003636129
-0.003861466
-0.004121927
-0.0044289
-0.00478962
-0.005162897
-0.003747341
-0.003961664
-0.004205267
-0.004488134
-0.004824265
-0.00522853
-0.005665664
-0.004017226
-0.004231922
-0.0044721
-0.004746143
-0.005066141
-0.005452803
-0.005929929
-0.006461914
-0.004414658
-0.004637496
-0.004883932
-0.00516071
-0.005477949
-0.005852882
-0.006313136
-0.00688714
-0.007548549
-0.004766845
-0.00499569
-0.005246246
-0.005524024
-0.00583681
-0.006198358
-0.006630149
-0.00716043
-0.00782967
-0.008617645
-0.004989129
-0.005218181
-0.005466881
-0.005739563
-0.006042296
-0.006385477
-0.006785593
-0.007261872
-0.007849024
-0.008595666
-0.00936143
-0.005062317
-0.005285639
-0.005526387
-0.005787996
-0.006075051
-0.006395659
-0.006762083
-0.007187398
-0.007694193
-0.008320375
-0.00901503
-0.009762223
-0.004992539
-0.005205012
-0.005432669
-0.005678186
-0.005945073
-0.006239599
-0.006571278
-0.006948517
-0.007386473
-0.007908572
-0.008460363
-0.009110169
-0.009916734
-0.00479315
-0.004990591
-0.005201007
-0.005426469
-0.005669624
-0.005935447
-0.006231344
-0.006562867
-0.006939923
-0.007377656
-0.007812988
-0.008301409
-0.008977084
-0.009812943
-0.004479047
-0.004658104
-0.004847998
-0.005050307
-0.00526701
-0.005502075
-0.005761444
-0.006048593
-0.006370297
-0.006736145
-0.007079491
-0.007439888
-0.007932357
-0.008609076
-0.009445155
-0.004066383
-0.004224473
-0.004391344
-0.004568174
-0.004756413
-0.004959268
-0.00518156
-0.005425385
-0.005695298
-0.00599765
-0.006262986
-0.006520094
-0.006867057
-0.007341794
-0.007994551
-0.003576368
-0.00371177
-0.003853987
-0.004003869
-0.004162445
-0.004332345
-0.004517546
-0.004719109
-0.004940134
-0.005184739
-0.005378941
-0.005539076
-0.005758161
-0.006062924
-0.006494857
-0.003045657
-0.003157995
-0.003275295
-0.003398131
-0.003527193
-0.003664713
-0.00381401
-0.003975352
-0.004150791
-0.004343006
-0.004466629
-0.004516157
-0.004587003
-0.004701301
-0.004905409
-0.002544963
-0.002636386
-0.002731144
-0.002829596
-0.002932165
-0.003040841
-0.00315844
-0.003284603
-0.003420659
-0.003568303
-0.003623634
-0.003542351
-0.003406633
-0.003180653
-0.002794622
-0.002415828
-0.002386744
-0.002372644
-0.002316263
-0.002175818
-0.002252166
-0.002330865
-0.00241215
-0.002496292
-0.002585036
-0.002680865
-0.002783159
-0.002892835
-0.003011042
-0.003038105
-0.002934611
-0.002789861
-0.0025951
-0.002342657
-0.002194154
-0.00218981
-0.002189052
-0.002179829
-0.002120179
-0.001929714
-0.001996028
-0.002064115
-0.002134136
-0.002206277
-0.002282082
-0.002363805
-0.002450729
-0.002543529
-0.002643041
-0.002659062
-0.002562637
-0.00243894
-0.002286302
-0.002104526
-0.00201208
-0.002017031
-0.002018257
-0.002016708
-0.002000785
-0.001933465
-0.001770768
-0.001830489
-0.00189162
-0.00195428
-0.002018601
-0.002085981
-0.002158509
-0.002235422
-0.002317248
-0.002404628
-0.002415093
-0.002326737
-0.002218497
-0.002089876
-0.001941
-0.001868624
-0.001874495
-0.001873071
-0.001867702
-0.001857359
-0.001830615
-0.00175437
-0.001671516
-0.001726937
-0.001783537