/*--------------------------------*- C++ -*----------------------------------*\
| =========                 |                                                 |
| \\      /  F ield         | OpenFOAM: The Open Source CFD Toolbox           |
|  \\    /   O peration     | Version:  2306                                  |
|   \\  /    A nd           | Website:  www.openfoam.com                      |
|    \\/     M anipulation  |                                                 |
\*---------------------------------------------------------------------------*/
FoamFile
{
    version     2.0;
    format      ascii;
    arch        "LSB;label=32;scalar=64";
    class       volScalarField;
    location    "1.5/phiEA";
    object      T;
}
// * * * * * * * * * * * * * * * * * * * * * * * * * * * * * * * * * * * * * //

dimensions      [0 0 0 1 0 0 0];

internalField   nonuniform List<scalar> 
20000
(
1220.322
1220.152
1222.359
1220.338
1219.76
1222.347
1220.168
1224.197
1222.369
1220.358
1219.036
1222.318
1219.777
1224.229
1222.357
1220.189
1225.89
1224.202
1222.383
1220.384
1217.828
1222.259
1219.057
1224.299
1222.327
1219.8
1225.933
1224.233
1222.371
1220.215
1227.5
1225.89
1224.212
1222.402
1220.414
1216.069
1222.146
1217.857
1224.419
1222.266
1219.084
1226.029
1224.302
1222.34
1219.828
1227.546
1225.933
1224.242
1222.389
1220.247
1229.053
1227.498
1225.895
1224.225
1222.426
1220.45
1214.08
1221.947
1216.111
1224.6
1222.15
1217.891
1226.199
1224.42
1222.278
1219.116
1227.647
1226.029
1224.31
1222.358
1219.861
1229.097
1227.542
1225.937
1224.255
1222.413
1220.284
1230.553
1229.047
1227.499
1225.904
1224.243
1222.454
1220.487
1212.261
1221.644
1214.14
1224.826
1221.946
1216.159
1226.464
1224.597
1222.159
1217.931
1227.826
1226.196
1224.425
1222.294
1219.153
1229.196
1227.643
1226.032
1224.322
1222.381
1219.901
1230.595
1229.091
1227.543
1225.946
1224.273
1222.441
1220.321
1232.002
1230.545
1229.045
1227.504
1225.917
1224.266
1222.483
1220.524
1210.908
1221.3
1212.34
1225.009
1221.643
1214.206
1226.814
1224.815
1221.951
1216.211
1228.108
1226.456
1224.597
1222.173
1217.977
1229.371
1227.82
1226.197
1224.434
1222.316
1219.197
1230.689
1229.189
1227.642
1226.039
1224.338
1222.409
1219.941
1232.042
1230.587
1229.089
1227.548
1225.959
1224.295
1222.47
1220.359
1233.398
1231.992
1230.541
1229.047
1227.513
1225.935
1224.289
1222.513
1220.561
1210.193
1221.005
1211.001
1225.118
1221.3
1212.424
1227.143
1224.992
1221.646
1214.276
1228.485
1226.798
1224.808
1221.96
1216.269
1229.648
1228.097
1226.452
1224.602
1222.192
1218.029
1230.856
1229.362
1227.817
1226.202
1224.448
1222.343
1219.242
1232.131
1230.68
1229.186
1227.646
1226.051
1224.359
1222.437
1219.981
1233.435
1232.031
1230.582
1229.09
1227.556
1225.976
1224.318
1222.499
1220.397
1234.74
1233.386
1231.986
1230.54
1229.053
1227.526
1225.953
1224.312
1222.542
1220.598
1210.193
1220.837
1210.293
1225.169
1221.008
1211.098
1227.396
1225.099
1221.306
1212.511
1228.851
1227.121
1224.98
1221.654
1214.351
1230.019
1228.467
1226.786
1224.806
1221.974
1216.333
1231.12
1229.634
1228.09
1226.452
1224.612
1222.216
1218.083
1232.289
1230.845
1229.357
1227.818
1226.211
1224.467
1222.37
1219.288
1233.52
1232.12
1230.674
1229.186
1227.654
1226.067
1224.38
1222.466
1220.022
1234.776
1233.424
1232.025
1230.581
1229.096
1227.569
1225.993
1224.34
1222.528
1220.436
1236.028
1234.728
1233.379
1231.983
1230.543
1229.063
1227.54
1225.971
1224.335
1222.571
1220.78
1210.908
1220.837
1210.293
1225.186
1220.842
1210.398
1227.558
1225.149
1221.016
1211.199
1229.143
1227.37
1225.085
1221.315
1212.603
1230.384
1228.827
1227.104
1224.973
1221.667
1214.432
1231.476
1230
1228.453
1226.779
1224.808
1221.994
1216.398
1232.539
1231.106
1229.625
1228.087
1226.457
1224.626
1222.24
1218.137
1233.669
1232.276
1230.838
1229.355
1227.824
1226.224
1224.486
1222.397
1219.334
1234.856
1233.507
1232.112
1230.673
1229.19
1227.665
1226.083
1224.402
1222.494
1220.064
1236.062
1234.763
1233.416
1232.022
1230.584
1229.105
1227.583
1226.011
1224.363
1222.557
1220.623
1237.262
1236.015
1234.719
1233.374
1231.984
1230.55
1229.073
1227.554
1225.989
1224.358
1222.714
1221.126
1212.261
1221.005
1211.001
1225.186
1220.842
1210.398
1227.637
1225.166
1220.852
1210.506
1229.338
1227.531
1225.134
1221.029
1211.304
1230.679
1229.115
1227.349
1225.075
1221.33
1212.701
1231.827
1230.36
1228.808
1227.091
1224.97
1221.685
1214.512
1232.876
1231.456
1229.984
1228.443
1226.777
1224.815
1222.014
1216.463
1233.906
1232.523
1231.095
1229.62
1228.088
1226.466
1224.64
1222.265
1218.192
1234.997
1233.655
1232.267
1230.834
1229.357
1227.833
1226.238
1224.505
1222.425
1219.382
1236.138
1234.842
1233.498
1232.108
1230.674
1229.199
1227.677
1226.099
1224.423
1222.523
1220.265
1237.294
1236.048
1234.754
1233.411
1232.022
1230.59
1229.115
1227.596
1226.028
1224.385
1222.699
1220.987
1238.441
1237.248
1236.005
1234.713
1233.373
1231.988
1230.557
1229.083
1227.567
1226.006
1224.471
1222.973
1221.491
1214.08
1221.3
1212.34
1225.169
1221.008
1211.098
1227.637
1225.166
1220.852
1210.506
1229.435
1227.609
1225.151
1220.866
1210.618
1230.878
1229.309
1227.508
1225.123
1221.047
1211.414
1232.112
1230.651
1229.092
1227.332
1225.069
1221.35
1212.798
1233.211
1231.803
1230.339
1228.793
1227.082
1224.972
1221.703
1214.593
1234.226
1232.856
1231.44
1229.973
1228.438
1226.778
1224.823
1222.034
1216.528
1235.222
1233.89
1232.511
1231.088
1229.618
1228.093
1226.474
1224.654
1222.29
1218.248
1236.273
1234.983
1233.645
1232.261
1230.834
1229.364
1227.843
1226.251
1224.524
1222.452
1219.61
1237.367
1236.124
1234.832
1233.493
1232.108
1230.68
1229.207
1227.689
1226.115
1224.444
1222.663
1220.67
1238.472
1237.28
1236.038
1234.748
1233.41
1232.026
1230.597
1229.124
1227.609
1226.045
1224.496
1222.958
1221.376
1239.567
1238.427
1237.237
1235.998
1234.71
1233.376
1231.993
1230.564
1229.093
1227.581
1226.095
1224.672
1223.235
1221.871
1216.069
1221.644
1214.14
1225.118
1221.3
1212.424
1227.558
1225.149
1221.016
1211.199
1229.435
1227.609
1225.151
1220.866
1210.618
1230.978
1229.405
1227.585
1225.14
1220.886
1210.735
1232.306
1230.849
1229.284
1227.49
1225.117
1221.069
1211.524
1233.483
1232.085
1230.627
1229.073
1227.32
1225.069
1221.37
1212.894
1234.544
1233.186
1231.782
1230.323
1228.782
1227.078
1224.974
1221.722
1214.672
1235.526
1234.205
1232.839
1231.427
1229.966
1228.436
1226.78
1224.83
1222.054
1216.593
1236.487
1235.205
1233.877
1232.503
1231.084
1229.621
1228.098
1226.483
1224.669
1222.315
1218.517
1237.495
1236.258
1234.971
1233.638
1232.26
1230.838
1229.37
1227.852
1226.265
1224.543
1222.587
1220.086
1238.541
1237.352
1236.113
1234.825
1233.491
1232.111
1230.686
1229.216
1227.701
1226.131
1224.549
1222.921
1221.114
1239.597
1238.458
1237.269
1236.031
1234.745
1233.412
1232.031
1230.604
1229.134
1227.622
1226.131
1224.692
1223.22
1221.785
1240.64
1239.553
1238.416
1237.229
1235.994
1234.711
1233.378
1231.998
1230.571
1229.103
1227.649
1226.25
1224.869
1223.498
1222.262
1217.828
1221.947
1216.111
1225.009
1221.643
1214.206
1227.396
1225.099
1221.306
1212.511
1229.338
1227.531
1225.134
1221.029
1211.304
1230.978
1229.405
1227.585
1225.14
1220.886
1210.735
1232.404
1230.948
1229.379
1227.566
1225.134
1220.91
1210.851
1233.669
1232.277
1230.823
1229.263
1227.476
1225.116
1221.092
1211.632
1234.803
1233.456
1232.061
1230.608
1229.059
1227.313
1225.068
1221.39
1212.989
1235.828
1234.52
1233.166
1231.766
1230.311
1228.775
1227.074
1224.976
1221.741
1214.752
1236.777
1235.506
1234.188
1232.826
1231.419
1229.963
1228.435
1226.781
1224.837
1222.075
1216.905
1237.7
1236.47
1235.192
1233.867
1232.498
1231.085
1229.623
1228.103
1226.492
1224.683
1222.437
1219.078
1238.665
1237.48
1236.246
1234.963
1233.635
1232.261
1230.841
1229.376
1227.861
1226.278
1224.636
1222.841
1220.624
1239.663
1238.526
1237.34
1236.105
1234.822
1233.492
1232.115
1230.691
1229.224
1227.713
1226.21
1224.733
1223.185
1221.59
1240.669
1239.582
1238.446
1237.261
1236.027
1234.745
1233.414
1232.035
1230.61
1229.143
1227.687
1226.28
1224.884
1223.486
1222.208
1241.662
1240.626
1239.541
1238.407
1237.225
1235.994
1234.712
1233.381
1232.002
1230.578
1229.153
1227.766
1226.4
1225.064
1223.763
1222.487
1219.036
1222.146
1217.857
1224.826
1221.946
1216.159
1227.143
1224.992
1221.646
1214.276
1229.143
1227.37
1225.085
1221.315
1212.603
1230.878
1229.309
1227.508
1225.123
1221.047
1211.414
1232.404
1230.948
1229.379
1227.566
1225.134
1220.91
1210.851
1233.762
1232.374
1230.922
1229.357
1227.552
1225.133
1220.934
1210.966
1234.98
1233.64
1232.252
1230.802
1229.247
1227.466
1225.115
1221.114
1211.74
1236.075
1234.776
1233.433
1232.042
1230.593
1229.049
1227.305
1225.068
1221.41
1213.083
1237.065
1235.805
1234.499
1233.149
1231.753
1230.303
1228.768
1227.07
1224.978
1221.759
1215.126
1237.976
1236.756
1235.488
1234.175
1232.817
1231.414
1229.959
1228.433
1226.783
1224.845
1222.174
1217.481
1238.86
1237.682
1236.455
1235.181
1233.861
1232.496
1231.085
1229.625
1228.108
1226.5
1224.753
1222.677
1219.727
1239.782
1238.649
1237.467
1236.237
1234.959
1233.635
1232.263
1230.845
1229.382
1227.87
1226.343
1224.797
1223.11
1221.224
1240.733
1239.648
1238.514
1237.332
1236.101
1234.822
1233.494
1232.118
1230.697
1229.232
1227.771
1226.344
1224.913
1223.457
1222.09
1241.689
1240.654
1239.57
1238.438
1237.256
1236.027
1234.746
1233.416
1232.039
1230.617
1229.191
1227.797
1226.423
1225.073
1223.754
1222.452
1242.632
1241.647
1240.614
1239.532
1238.402
1237.224
1235.994
1234.713
1233.383
1232.007
1230.614
1229.238
1227.877
1226.546
1225.258
1223.914
1222.56
1219.76
1222.259
1219.057
1224.6
1222.15
1217.891
1226.814
1224.815
1221.951
1216.211
1228.851
1227.121
1224.98
1221.654
1214.351
1230.679
1229.115
1227.349
1225.075
1221.33
1212.701
1232.306
1230.849
1229.284
1227.49
1225.117
1221.069
1211.524
1233.762
1232.374
1230.922
1229.357
1227.552
1225.133
1220.934
1210.966
1235.069
1233.733
1232.348
1230.9
1229.34
1227.541
1225.131
1220.958
1211.08
1236.244
1234.952
1233.616
1232.231
1230.785
1229.234
1227.457
1225.113
1221.136
1211.846
1237.3
1236.049
1234.754
1233.414
1232.026
1230.581
1229.038
1227.297
1225.067
1221.43
1213.525
1238.252
1237.041
1235.785
1234.483
1233.136
1231.744
1230.295
1228.761
1227.066
1224.98
1221.85
1215.757
1239.125
1237.956
1236.739
1235.475
1234.165
1232.811
1231.41
1229.956
1228.432
1226.785
1224.881
1222.367
1218.071
1239.969
1238.843
1237.668
1236.444
1235.174
1233.858
1232.495
1231.085
1229.627
1228.113
1226.542
1224.878
1222.943
1220.493
1240.846
1239.765
1238.636
1237.457
1236.231
1234.957
1233.634
1232.264
1230.848
1229.388
1227.916
1226.451
1224.957
1223.395
1221.879
1241.75
1240.717
1239.636
1238.505
1237.326
1236.099
1234.822
1233.495
1232.121
1230.702
1229.274
1227.867
1226.471
1225.091
1223.734
1222.38
1242.658
1241.674
1240.642
1239.561
1238.432
1237.255
1236.026
1234.747
1233.418
1232.043
1230.65
1229.27
1227.902
1226.561
1225.261
1223.906
1222.531
1243.552
1242.617
1241.635
1240.605
1239.526
1238.4
1237.222
1235.993
1234.714
1233.386
1232.03
1230.672
1229.318
1227.985
1226.69
1225.366
1223.954
1222.649
1220.152
1222.318
1219.777
1224.419
1222.266
1219.084
1226.464
1224.597
1222.159
1217.931
1228.485
1226.798
1224.808
1221.96
1216.269
1230.384
1228.827
1227.104
1224.973
1221.667
1214.432
1232.112
1230.651
1229.092
1227.332
1225.069
1221.35
1212.798
1233.669
1232.277
1230.823
1229.263
1227.476
1225.116
1221.092
1211.632
1235.069
1233.733
1232.348
1230.9
1229.34
1227.541
1225.131
1220.958
1211.08
1236.329
1235.041
1233.708
1232.327
1230.882
1229.327
1227.531
1225.13
1220.982
1211.192
1237.461
1236.217
1234.928
1233.595
1232.214
1230.772
1229.222
1227.447
1225.112
1221.159
1212.342
1238.477
1237.275
1236.027
1234.735
1233.398
1232.015
1230.57
1229.028
1227.29
1225.067
1221.526
1214.237
1239.389
1238.229
1237.022
1235.768
1234.47
1233.127
1231.735
1230.286
1228.754
1227.062
1224.992
1222.019
1216.344
1240.224
1239.105
1237.939
1236.725
1235.465
1234.159
1232.805
1231.405
1229.952
1228.431
1226.793
1224.951
1222.569
1218.663
1241.027
1239.952
1238.828
1237.656
1236.437
1235.17
1233.855
1232.493
1231.084
1229.629
1228.136
1226.609
1225.004
1223.242
1221.43
1241.86
1240.83
1239.752
1238.626
1237.451
1236.228
1234.956
1233.634
1232.265
1230.852
1229.417
1227.986
1226.551
1225.115
1223.694
1222.27
1242.718
1241.735
1240.705
1239.626
1238.499
1237.324
1236.098
1234.822
1233.496
1232.124
1230.729
1229.339
1227.955
1226.593
1225.267
1223.891
1222.472
1243.578
1242.643
1241.662
1240.632
1239.555
1238.43
1237.253
1236.025
1234.747
1233.42
1232.064
1230.702
1229.343
1228.001
1226.697
1225.366
1223.948
1222.625
1244.424
1243.537
1242.605
1241.625
1240.598
1239.523
1238.397
1237.22
1235.993
1234.715
1233.398
1232.066
1230.726
1229.394
1228.09
1226.77
1225.39
1224
1222.748
1220.322
1222.347
1220.168
1224.299
1222.327
1219.8
1226.199
1224.42
1222.278
1219.116
1228.108
1226.456
1224.597
1222.173
1217.977
1230.019
1228.467
1226.786
1224.806
1221.974
1216.333
1231.827
1230.36
1228.808
1227.091
1224.97
1221.685
1214.512
1233.483
1232.085
1230.627
1229.073
1227.32
1225.069
1221.37
1212.894
1234.98
1233.64
1232.252
1230.802
1229.247
1227.466
1225.115
1221.114
1211.74
1236.329
1235.041
1233.708
1232.327
1230.882
1229.327
1227.531
1225.13
1220.982
1211.192
1237.543
1236.302
1235.017
1233.687
1232.309
1230.868
1229.313
1227.521
1225.128
1221.006
1211.718
1238.632
1237.436
1236.194
1234.908
1233.579
1232.201
1230.758
1229.209
1227.438
1225.111
1221.266
1213.125
1239.606
1238.453
1237.254
1236.009
1234.72
1233.386
1232.003
1230.558
1229.017
1227.282
1225.067
1221.696
1214.869
1240.478
1239.367
1238.21
1237.005
1235.755
1234.46
1233.117
1231.726
1230.278
1228.748
1227.043
1225.021
1222.189
1216.881
1241.272
1240.204
1239.088
1237.925
1236.714
1235.458
1234.152
1232.8
1231.4
1229.949
1228.423
1226.809
1225.022
1222.775
1219.241
1242.034
1241.009
1239.937
1238.816
1237.648
1236.432
1235.166
1233.852
1232.491
1231.084
1229.638
1228.166
1226.668
1225.134
1223.591
1222.121
1242.823
1241.844
1240.817
1239.742
1238.619
1237.448
1236.226
1234.954
1233.633
1232.266
1230.868
1229.458
1228.045
1226.644
1225.275
1223.868
1222.385
1243.635
1242.702
1241.722
1240.695
1239.62
1238.496
1237.322
1236.096
1234.821
1233.497
1232.139
1230.769
1229.396
1228.037
1226.711
1225.366
1223.936
1222.577
1244.448
1243.563
1242.631
1241.652
1240.626
1239.552
1238.427
1237.251
1236.024
1234.748
1233.431
1232.094
1230.749
1229.411
1228.098
1226.772
1225.389
1223.995
1222.728
1245.247
1244.409
1243.525
1242.595
1241.619
1240.595
1239.52
1238.395
1237.219
1235.992
1234.719
1233.416
1232.097
1230.775
1229.468
1228.148
1226.784
1225.414
1224.051
1222.855
1222.359
1220.338
1224.229
1222.357
1220.189
1226.029
1224.302
1222.34
1219.828
1227.826
1226.196
1224.425
1222.294
1219.153
1229.648
1228.097
1226.452
1224.602
1222.192
1218.029
1231.476
1230
1228.453
1226.779
1224.808
1221.994
1216.398
1233.211
1231.803
1230.339
1228.793
1227.082
1224.972
1221.703
1214.593
1234.803
1233.456
1232.061
1230.608
1229.059
1227.313
1225.068
1221.39
1212.989
1236.244
1234.952
1233.616
1232.231
1230.785
1229.234
1227.457
1225.113
1221.136
1211.846
1237.543
1236.302
1235.017
1233.687
1232.309
1230.868
1229.313
1227.521
1225.128
1221.006
1211.718
1238.71
1237.516
1236.278
1234.996
1233.67
1232.295
1230.853
1229.3
1227.511
1225.127
1221.121
1212.542
1239.754
1238.606
1237.413
1236.175
1234.892
1233.565
1232.187
1230.745
1229.197
1227.429
1225.106
1221.447
1213.809
1240.685
1239.582
1238.432
1237.236
1235.994
1234.708
1233.374
1231.991
1230.547
1229.007
1227.246
1225.073
1221.861
1215.422
1241.516
1240.456
1239.348
1238.193
1236.992
1235.745
1234.45
1233.108
1231.717
1230.27
1228.715
1227.017
1225.054
1222.355
1217.355
1242.27
1241.252
1240.187
1239.074
1237.914
1236.707
1235.45
1234.145
1232.794
1231.395
1229.931
1228.409
1226.823
1225.091
1222.976
1242.992
1242.017
1240.995
1239.925
1238.808
1237.642
1236.427
1235.162
1233.849
1232.489
1231.082
1229.642
1228.186
1226.721
1225.273
1223.835
1222.276
1243.737
1242.807
1241.83
1240.806
1239.734
1238.614
1237.444
1236.223
1234.952
1233.633
1232.272
1230.884
1229.487
1228.096
1226.733
1225.365
1223.918
1222.508
1244.504
1243.62
1242.689
1241.712
1240.688
1239.616
1238.493
1237.319
1236.095
1234.821
1233.503
1232.158
1230.8
1229.446
1228.114
1226.776
1225.389
1223.986
1222.689
1245.271
1244.433
1243.55
1242.621
1241.645
1240.622
1239.549
1238.424
1237.249
1236.023
1234.749
1233.443
1232.119
1230.791
1229.476
1228.151
1226.786
1225.413
1224.047
1222.838
1246.024
1245.233
1244.397
1243.515
1242.588
1241.615
1240.591
1239.517
1238.393
1237.217
1235.989
1234.721
1233.429
1232.125
1230.823
1229.508
1228.157
1226.798
1225.439
1224.104
1222.965
1224.197
1222.369
1220.358
1225.933
1224.233
1222.371
1220.215
1227.647
1226.029
1224.31
1222.358
1219.861
1229.371
1227.82
1226.197
1224.434
1222.316
1219.197
1231.12
1229.634
1228.09
1226.452
1224.612
1222.216
1218.083
1232.876
1231.456
1229.984
1228.443
1226.777
1224.815
1222.014
1216.463
1234.544
1233.186
1231.782
1230.323
1228.782
1227.078
1224.974
1221.722
1214.672
1236.075
1234.776
1233.433
1232.042
1230.593
1229.049
1227.305
1225.068
1221.41
1213.083
1237.461
1236.217
1234.928
1233.595
1232.214
1230.772
1229.222
1227.447
1225.112
1221.159
1212.342
1238.71
1237.516
1236.278
1234.996
1233.67
1232.295
1230.853
1229.3
1227.511
1225.127
1221.121
1212.542
1239.829
1238.684
1237.494
1236.258
1234.979
1233.656
1232.28
1230.839
1229.287
1227.501
1225.121
1221.312
1213.256
1240.828
1239.73
1238.585
1237.394
1236.159
1234.879
1233.552
1232.174
1230.732
1229.185
1227.384
1225.103
1221.618
1214.396
1241.717
1240.662
1239.561
1238.414
1237.221
1235.983
1234.696
1233.362
1231.979
1230.536
1228.957
1227.192
1225.085
1222.018
1215.894
1242.506
1241.495
1240.437
1239.332
1238.181
1236.983
1235.735
1234.44
1233.098
1231.708
1230.23
1228.663
1226.996
1225.089
1222.513
1243.22
1242.251
1241.236
1240.173
1239.063
1237.906
1236.699
1235.443
1234.139
1232.788
1231.37
1229.899
1228.394
1226.835
1225.154
1243.9
1242.974
1242.002
1240.983
1239.916
1238.802
1237.637
1236.422
1235.158
1233.845
1232.478
1231.066
1229.634
1228.194
1226.766
1225.361
1223.895
1222.421
1244.603
1243.721
1242.794
1241.82
1240.798
1239.73
1238.61
1237.44
1236.22
1234.95
1233.629
1232.269
1230.89
1229.508
1228.141
1226.782
1225.387
1223.972
1222.632
1245.325
1244.489
1243.607
1242.679
1241.705
1240.684
1239.612
1238.49
1237.317
1236.093
1234.818
1233.504
1232.169
1230.826
1229.492
1228.156
1226.789
1225.413
1224.04
1222.806
1246.047
1245.256
1244.421
1243.541
1242.614
1241.641
1240.618
1239.545
1238.421
1237.247
1236.018
1234.747
1233.45
1232.14
1230.83
1229.511
1228.159
1226.799
1225.438
1224.101
1222.951
1246.755
1246.01
1245.221
1244.387
1243.509
1242.584
1241.611
1240.587
1239.514
1238.39
1237.208
1235.978
1234.719
1233.439
1232.15
1230.848
1229.513
1228.164
1226.81
1225.464
1224.16
1223.076
1225.89
1224.202
1222.383
1220.384
1227.546
1225.933
1224.242
1222.389
1220.247
1229.196
1227.643
1226.032
1224.322
1222.381
1219.901
1230.856
1229.362
1227.817
1226.202
1224.448
1222.343
1219.242
1232.539
1231.106
1229.625
1228.087
1226.457
1224.626
1222.24
1218.137
1234.226
1232.856
1231.44
1229.973
1228.438
1226.778
1224.823
1222.034
1216.528
1235.828
1234.52
1233.166
1231.766
1230.311
1228.775
1227.074
1224.976
1221.741
1214.752
1237.3
1236.049
1234.754
1233.414
1232.026
1230.581
1229.038
1227.297
1225.067
1221.43
1213.525
1238.632
1237.436
1236.194
1234.908
1233.579
1232.201
1230.758
1229.209
1227.438
1225.111
1221.266
1213.125
1239.829
1238.684
1237.494
1236.258
1234.979
1233.656
1232.28
1230.839
1229.287
1227.501
1225.121
1221.312
1213.256
1240.9
1239.804
1238.662
1237.474
1236.242
1234.966
1233.642
1232.266
1230.825
1229.274
1227.452
1225.115
1221.489
1213.867
1241.854
1240.804
1239.708
1238.566
1237.379
1236.146
1234.866
1233.538
1232.16
1230.719
1229.125
1227.314
1225.105
1221.779
1214.891
1242.7
1241.694
1240.642
1239.544
1238.4
1237.21
1235.971
1234.684
1233.351
1231.968
1230.479
1228.878
1227.147
1225.101
1222.166
1243.448
1242.485
1241.477
1240.421
1239.32
1238.171
1236.972
1235.725
1234.431
1233.089
1231.663
1230.164
1228.617
1226.979
1225.122
1244.121
1243.201
1242.235
1241.222
1240.162
1239.055
1237.898
1236.691
1235.436
1234.132
1232.757
1231.324
1229.864
1228.375
1226.841
1244.761
1243.883
1242.96
1241.99
1240.973
1239.91
1238.795
1237.631
1236.417
1235.153
1233.827
1232.446
1231.038
1229.613
1228.188
1226.788
1225.384
1223.956
1222.56
1245.421
1244.587
1243.708
1242.783
1241.812
1240.793
1239.725
1238.606
1237.436
1236.217
1234.939
1233.611
1232.256
1230.886
1229.521
1228.164
1226.792
1225.411
1224.029
1222.758
1246.1
1245.31
1244.476
1243.597
1242.672
1241.701
1240.679
1239.608
1238.486
1237.314
1236.084
1234.805
1233.497
1232.173
1230.847
1229.517
1228.163
1226.8
1225.438
1224.096
1222.925
1246.778
1246.033
1245.244
1244.411
1243.533
1242.61
1241.637
1240.614
1239.542
1238.419
1237.236
1236.003
1234.739
1233.453
1232.158
1230.851
1229.515
1228.165
1226.811
1225.464
1224.158
1223.066
1247.441
1246.741
1245.998
1245.211
1244.38
1243.504
1242.58
1241.606
1240.584
1239.511
1238.376
1237.187
1235.964
1234.713
1233.446
1232.164
1230.85
1229.516
1228.17
1226.822
1225.49
1224.215
1223.187
1227.5
1225.89
1224.212
1222.402
1220.414
1229.097
1227.542
1225.937
1224.255
1222.413
1220.284
1230.689
1229.189
1227.642
1226.039
1224.338
1222.409
1219.941
1232.289
1230.845
1229.357
1227.818
1226.211
1224.467
1222.37
1219.288
1233.906
1232.523
1231.095
1229.62
1228.088
1226.466
1224.64
1222.265
1218.192
1235.526
1234.205
1232.839
1231.427
1229.966
1228.436
1226.78
1224.83
1222.054
1216.593
1237.065
1235.805
1234.499
1233.149
1231.753
1230.303
1228.768
1227.07
1224.978
1221.759
1215.126
1238.477
1237.275
1236.027
1234.735
1233.398
1232.015
1230.57
1229.028
1227.29
1225.067
1221.526
1214.237
1239.754
1238.606
1237.413
1236.175
1234.892
1233.565
1232.187
1230.745
1229.197
1227.429
1225.106
1221.447
1213.809
1240.9
1239.804
1238.662
1237.474
1236.242
1234.966
1233.642
1232.266
1230.825
1229.274
1227.452
1225.115
1221.489
1213.867
1241.924
1240.876
1239.783
1238.643
1237.458
1236.229
1234.952
1233.627
1232.252
1230.812
1229.21
1227.376
1225.114
1221.653
1214.379
1242.833
1241.831
1240.784
1239.691
1238.551
1237.366
1236.133
1234.853
1233.525
1232.147
1230.654
1229.03
1227.256
1225.112
1221.927
1243.635
1242.678
1241.675
1240.626
1239.531
1238.389
1237.198
1235.959
1234.672
1233.339
1231.909
1230.39
1228.81
1227.11
1225.119
1244.342
1243.427
1242.468
1241.461
1240.409
1239.31
1238.161
1236.962
1235.716
1234.421
1233.042
1231.59
1230.105
1228.576
1226.964
1244.975
1244.102
1243.185
1242.221
1241.211
1240.154
1239.047
1237.89
1236.684
1235.428
1234.097
1232.701
1231.277
1229.827
1228.353
1245.574
1244.744
1243.868
1242.948
1241.981
1240.967
1239.903
1238.789
1237.625
1236.411
1235.129
1233.783
1232.402
1230.994
1229.573
1228.173
1226.795
1225.409
1224.017
1222.696
1246.193
1245.406
1244.574
1243.697
1242.775
1241.806
1240.788
1239.719
1238.601
1237.432
1236.199
1234.907
1233.582
1232.233
1230.875
1229.526
1228.168
1226.802
1225.436
1224.088
1222.885
1246.829
1246.085
1245.297
1244.466
1243.589
1242.667
1241.696
1240.675
1239.604
1238.483
1237.299
1236.059
1234.784
1233.485
1232.173
1230.857
1229.519
1228.168
1226.812
1225.463
1224.154
1223.044
1247.463
1246.763
1246.021
1245.234
1244.404
1243.529
1242.605
1241.632
1240.61
1239.538
1238.403
1237.211
1235.983
1234.727
1233.453
1232.167
1230.852
1229.517
1228.171
1226.823
1225.49
1224.214
1223.179
1248.084
1247.427
1246.729
1245.988
1245.204
1244.375
1243.499
1242.575
1241.602
1240.58
1239.493
1238.347
1237.163
1235.946
1234.706
1233.449
1232.163
1230.85
1229.517
1228.175
1226.834
1225.516
1224.271
1223.295
1229.053
1227.498
1225.895
1224.225
1222.426
1220.45
1230.595
1229.091
1227.543
1225.946
1224.273
1222.441
1220.321
1232.131
1230.68
1229.186
1227.646
1226.051
1224.359
1222.437
1219.981
1233.669
1232.276
1230.838
1229.355
1227.824
1226.224
1224.486
1222.397
1219.334
1235.222
1233.89
1232.511
1231.088
1229.618
1228.093
1226.474
1224.654
1222.29
1218.248
1236.777
1235.506
1234.188
1232.826
1231.419
1229.963
1228.435
1226.781
1224.837
1222.075
1216.905
1238.252
1237.041
1235.785
1234.483
1233.136
1231.744
1230.295
1228.761
1227.066
1224.98
1221.85
1215.757
1239.606
1238.453
1237.254
1236.009
1234.72
1233.386
1232.003
1230.558
1229.017
1227.282
1225.067
1221.696
1214.869
1240.828
1239.73
1238.585
1237.394
1236.159
1234.879
1233.552
1232.174
1230.732
1229.185
1227.384
1225.103
1221.618
1214.396
1241.924
1240.876
1239.783
1238.643
1237.458
1236.229
1234.952
1233.627
1232.252
1230.812
1229.21
1227.376
1225.114
1221.653
1214.379
1242.9
1241.901
1240.855
1239.764
1238.628
1237.446
1236.215
1234.938
1233.614
1232.238
1230.742
1229.108
1227.311
1225.117
1221.805
1243.764
1242.81
1241.811
1240.767
1239.676
1238.539
1237.354
1236.12
1234.84
1233.512
1232.08
1230.55
1228.948
1227.206
1225.122
1244.523
1243.614
1242.659
1241.659
1240.612
1239.519
1238.377
1237.186
1235.947
1234.661
1233.279
1231.815
1230.312
1228.751
1227.079
1245.189
1244.322
1243.41
1242.453
1241.449
1240.399
1239.3
1238.151
1236.953
1235.706
1234.372
1232.963
1231.523
1230.052
1228.539
1245.782
1244.957
1244.087
1243.171
1242.21
1241.203
1240.146
1239.039
1237.882
1236.676
1235.39
1234.034
1232.644
1231.227
1229.789
1246.342
1245.558
1244.729
1243.857
1242.938
1241.974
1240.96
1239.896
1238.783
1237.619
1236.383
1235.074
1233.725
1232.341
1230.93
1229.536
1228.173
1226.804
1225.435
1224.079
1222.832
1246.92
1246.178
1245.392
1244.563
1243.689
1242.769
1241.8
1240.782
1239.714
1238.596
1237.41
1236.158
1234.866
1233.543
1232.201
1230.866
1229.525
1228.171
1226.813
1225.462
1224.148
1223.012
1247.513
1246.814
1246.072
1245.287
1244.458
1243.584
1242.662
1241.691
1240.67
1239.6
1238.463
1237.264
1236.027
1234.758
1233.468
1232.173
1230.857
1229.52
1228.172
1226.823
1225.489
1224.212
1223.163
1248.105
1247.449
1246.751
1246.011
1245.227
1244.399
1243.524
1242.6
1241.628
1240.606
1239.519
1238.37
1237.181
1235.959
1234.713
1233.452
1232.166
1230.852
1229.518
1228.175
1226.834
1225.516
1224.27
1223.29
1248.683
1248.07
1247.416
1246.72
1245.981
1245.199
1244.37
1243.494
1242.571
1241.598
1240.559
1239.457
1238.314
1237.135
1235.926
1234.701
1233.447
1232.161
1230.849
1229.518
1228.179
1226.846
1225.541
1224.325
1223.397
1230.553
1229.047
1227.499
1225.904
1224.243
1222.454
1220.487
1232.042
1230.587
1229.089
1227.548
1225.959
1224.295
1222.47
1220.359
1233.52
1232.12
1230.674
1229.186
1227.654
1226.067
1224.38
1222.466
1220.022
1234.997
1233.655
1232.267
1230.834
1229.357
1227.833
1226.238
1224.505
1222.425
1219.382
1236.487
1235.205
1233.877
1232.503
1231.084
1229.621
1228.098
1226.483
1224.669
1222.315
1218.517
1237.976
1236.756
1235.488
1234.175
1232.817
1231.414
1229.959
1228.433
1226.783
1224.845
1222.174
1217.481
1239.389
1238.229
1237.022
1235.768
1234.47
1233.127
1231.735
1230.286
1228.754
1227.062
1224.992
1222.019
1216.344
1240.685
1239.582
1238.432
1237.236
1235.994
1234.708
1233.374
1231.991
1230.547
1229.007
1227.246
1225.073
1221.861
1215.422
1241.854
1240.804
1239.708
1238.566
1237.379
1236.146
1234.866
1233.538
1232.16
1230.719
1229.125
1227.314
1225.105
1221.779
1214.891
1242.9
1241.901
1240.855
1239.764
1238.628
1237.446
1236.215
1234.938
1233.614
1232.238
1230.742
1229.108
1227.311
1225.117
1221.805
1243.829
1242.877
1241.88
1240.838
1239.75
1238.615
1237.432
1236.202
1234.924
1233.6
1232.168
1230.631
1229.019
1227.256
1225.124
1244.648
1243.742
1242.791
1241.795
1240.753
1239.664
1238.527
1237.341
1236.108
1234.827
1233.445
1231.973
1230.458
1228.877
1227.165
1245.365
1244.503
1243.595
1242.643
1241.645
1240.602
1239.508
1238.366
1237.175
1235.936
1234.601
1233.183
1231.731
1230.243
1228.7
1245.99
1245.17
1244.305
1243.395
1242.441
1241.44
1240.389
1239.29
1238.141
1236.943
1235.655
1234.289
1232.89
1231.462
1230.004
1246.544
1245.764
1244.941
1244.073
1243.161
1242.202
1241.194
1240.137
1239.031
1237.874
1236.635
1235.321
1233.969
1232.586
1231.178
1247.064
1246.326
1245.544
1244.718
1243.847
1242.931
1241.967
1240.953
1239.889
1238.776
1237.587
1236.319
1235.006
1233.651
1232.258
1230.877
1229.531
1228.174
1226.814
1225.461
1224.142
1222.968
1247.602
1246.904
1246.165
1245.382
1244.555
1243.683
1242.763
1241.794
1240.777
1239.709
1238.57
1237.36
1236.105
1234.814
1233.496
1232.181
1230.862
1229.524
1228.174
1226.824
1225.489
1224.208
1223.139
1248.154
1247.499
1246.802
1246.062
1245.28
1244.453
1243.579
1242.657
1241.686
1240.665
1239.577
1238.421
1237.223
1235.989
1234.728
1233.458
1232.17
1230.855
1229.52
1228.176
1226.835
1225.516
1224.27
1223.28
1248.704
1248.091
1247.437
1246.742
1246.004
1245.222
1244.394
1243.519
1242.595
1241.623
1240.584
1239.479
1238.332
1237.148
1235.933
1234.704
1233.45
1232.163
1230.85
1229.519
1228.18
1226.846
1225.541
1224.325
1223.395
1249.24
1248.67
1248.058
1247.406
1246.712
1245.976
1245.194
1244.365
1243.49
1242.566
1241.575
1240.518
1239.417
1238.278
1237.105
1235.915
1234.698
1233.444
1232.158
1230.847
1229.519
1228.184
1226.857
1225.566
1224.376
1223.54
1232.002
1230.545
1229.045
1227.504
1225.917
1224.266
1222.483
1220.524
1233.435
1232.031
1230.582
1229.09
1227.556
1225.976
1224.318
1222.499
1220.397
1234.856
1233.507
1232.112
1230.673
1229.19
1227.665
1226.083
1224.402
1222.494
1220.064
1236.273
1234.983
1233.645
1232.261
1230.834
1229.364
1227.843
1226.251
1224.524
1222.452
1219.61
1237.7
1236.47
1235.192
1233.867
1232.498
1231.085
1229.623
1228.103
1226.492
1224.683
1222.437
1219.078
1239.125
1237.956
1236.739
1235.475
1234.165
1232.811
1231.41
1229.956
1228.432
1226.785
1224.881
1222.367
1218.071
1240.478
1239.367
1238.21
1237.005
1235.755
1234.46
1233.117
1231.726
1230.278
1228.748
1227.043
1225.021
1222.189
1216.881
1241.717
1240.662
1239.561
1238.414
1237.221
1235.983
1234.696
1233.362
1231.979
1230.536
1228.957
1227.192
1225.085
1222.018
1215.894
1242.833
1241.831
1240.784
1239.691
1238.551
1237.366
1236.133
1234.853
1233.525
1232.147
1230.654
1229.03
1227.256
1225.112
1221.927
1243.829
1242.877
1241.88