/*--------------------------------*- C++ -*----------------------------------*\
| =========                 |                                                 |
| \\      /  F ield         | OpenFOAM: The Open Source CFD Toolbox           |
|  \\    /   O peration     | Version:  2306                                  |
|   \\  /    A nd           | Website:  www.openfoam.com                      |
|    \\/     M anipulation  |                                                 |
\*---------------------------------------------------------------------------*/
FoamFile
{
    version     2.0;
    format      ascii;
    arch        "LSB;label=32;scalar=64";
    class       volVectorField;
    location    "0.6/phiEC";
    object      i;
}
// * * * * * * * * * * * * * * * * * * * * * * * * * * * * * * * * * * * * * //

dimensions      [0 -2 0 0 0 1 0];

internalField   nonuniform List<vector> 
20000
(
(35.79098 80.75912 17503.47)
(35.40528 236.1688 17329.66)
(85.56318 76.90213 16775.58)
(109.7881 266.8658 18227.84)
(34.66262 372.8509 16993.45)
(84.67887 224.8852 16610.11)
(108.5052 783.8683 18008.02)
(99.20082 71.91602 15767.3)
(261.6722 254.0363 17448.67)
(191.6248 520.4028 19862.66)
(33.62271 477.4722 16519.48)
(82.97651 355.0251 16290.05)
(106.0173 1247.509 17572.66)
(98.23162 210.3021 15612.58)
(258.7377 746.1604 17239.56)
(189.0956 1546.524 19579.25)
(93.47088 67.21013 14768.3)
(302.254 237.5208 16385.8)
(453.9713 495.1112 18969.53)
(288.4142 833.6896 22666.85)
(32.37817 537.0992 15948.06)
(80.59345 454.6277 15838.88)
(102.4976 1613.307 16936.47)
(96.36631 331.9967 15313.32)
(253.0493 1187.433 16825.47)
(184.0999 2515.937 18985.08)
(92.59244 196.5401 14623.71)
(299.047 697.6391 16190.37)
(448.2091 1471.275 18700.19)
(284.3154 2539.022 22428.65)
(82.12154 63.13169 13879.19)
(284.1511 221.9663 15342.26)
(520.4825 462.7807 17785.26)
(677.1526 792.7012 21579.36)
(409.1227 996.8033 26467.34)
(31.05152 542.2494 15335.81)
(77.74228 511.3874 15294.98)
(98.23869 1830.234 16137.53)
(93.75606 425.1298 14891.49)
(245.0052 1535.521 16220.44)
(176.8285 3347.742 18033.15)
(90.90203 310.2695 14344.06)
(292.8329 1110.184 15803.37)
(436.8347 2393.266 18135.65)
(275.9037 4339.703 21862.55)
(81.36521 184.6137 13743.37)
(281.2487 651.9497 15159.65)
(514.215 1375.158 17533.67)
(667.8534 2413.917 21353.18)
(404.1903 3155.127 26632.68)
(71.00569 59.64677 13110.79)
(249.3806 208.4969 14417.61)
(487.1077 432.4367 16641.92)
(767.7762 740.6978 20189.43)
(949.4553 947.4802 25106.03)
(522.7883 626.4664 29221.52)
(29.78184 490.8405 14749.93)
(74.70345 516.2861 14712.23)
(93.66471 1854.023 15255.3)
(90.63406 478.1992 14382.97)
(235.2763 1741.905 15460.73)
(167.7371 3899.449 16687.18)
(88.53693 397.3052 13949.85)
(284.0504 1435.578 15237.97)
(420.2943 3184.115 17231.4)
(262.847 6209.117 20738.06)
(79.90982 291.4416 13480.68)
(275.626 1037.467 14798.04)
(501.8528 2236.79 17006.36)
(648.7927 4125.02 20815.83)
(393.4442 5897.128 27015.46)
(70.35692 174.423 12982.47)
(246.883 612.3878 14246.08)
(481.4492 1284.978 16406.86)
(757.713 2255.422 19978.24)
(938.2913 2998.343 25262.8)
(519.7663 1870.88 29706.48)
(61.70302 56.64405 12446.46)
(215.5396 196.9905 13619.9)
(426.5929 406.1958 15637.09)
(713.7837 692.0693 18876.24)
(1061.107 885.1642 23435.3)
(1200.034 596.2471 27638.93)
(605.2706 388.3962 30349.19)
(28.70181 389.1615 14253.12)
(71.79506 467.3435 14154.57)
(89.28892 1674.542 14417.42)
(87.30721 482.7773 13838.14)
(224.8305 1764.525 14621.9)
(157.7317 3982.457 15022.72)
(85.70861 446.8989 13474.64)
(273.4343 1628.487 14528.07)
(399.6337 3708.481 15953.19)
(245.035 7851.099 18540.14)
(77.87368 373.1956 13110.39)
(267.6814 1341.535 14269.75)
(483.8956 2975.732 16161.88)
(619.2591 5900.43 19748.91)
(374.6582 9992.57 27776.23)
(69.10855 275.3542 12734.28)
(242.0449 974.5106 13906.42)
(470.2922 2090.072 15914.23)
(737.1158 3853.76 19476.6)
(914.0245 5601.806 25625.99)
(513.7087 3013.732 30831.38)
(61.1403 165.6423 12324.6)
(213.3975 578.5921 13457.83)
(421.728 1207.004 15416.3)
(704.7216 2107.312 18678.95)
(1049.061 2800.82 23581.57)
(1193.128 1780.084 28098.49)
(603.5145 1117.186 30777.15)
(54.24956 54.01963 11865.85)
(187.2859 187.0763 12930.55)
(368.4183 383.7878 14772.96)
(623.1711 650.0766 17734.1)
(978.1731 827.0197 21892.88)
(1323.082 557.4071 25755.99)
(1379.535 370.8351 28638.35)
(693.8718 198.504 31066)
(27.91967 249.2053 13894.68)
(69.32074 370.5398 13681.69)
(85.58529 1321.338 13722.53)
(84.1231 437.0135 13316.77)
(214.8363 1593.748 13825.19)
(148.2286 3556.371 13536.65)
(82.69499 451.1765 12965.5)
(262.0393 1649.623 13744.27)
(376.909 3787.372 14372.84)
(223.6407 8155.068 14102.54)
(75.4389 419.7797 12664.02)
(258.0808 1521.794 13606.45)
(461.4905 3465.596 14968.31)
(579.049 7459.035 17664.3)
(342.9044 17170.48 29386.83)
(67.36206 352.5959 12384.43)
(235.2096 1260.126 13410.18)
(454.0943 2780.491 15125.31)
(705.2687 5511.68 18480.8)
(871.7461 9487.172 26348.32)
(504.9865 3597.914 32990.86)
(60.05751 261.4929 12088.9)
(209.2481 920.7321 13136.91)
(412.1371 1963.241 14953.56)
(686.186 3600.577 18210.35)
(1022.948 5231.676 23920.58)
(1179.333 2865.933 29165.03)
(600.1674 1651.615 31661.71)
(53.75453 157.9679 11749.63)
(185.428 549.4733 12776.63)
(364.2468 1140.421 14564.34)
(615.3873 1979.445 17548.78)
(967.3418 2616.75 22029.47)
(1315.549 1663.863 26184.66)
(1375.419 1066.155 29042.77)
(693.2048 558.3631 31408.57)
(48.28796 51.69374 11351.87)
(164.6691 178.4109 12328.04)
(320.0752 364.4814 14026.84)
(537.5894 614.2314 16755.78)
(850.6833 776.8511 20565.87)
(1210.296 520.9217 24047.03)
(1507.622 347.2378 26653.4)
(1569.613 191.8341 29236.11)
(788.26 45.8272 31458.55)
(27.50986 85.70318 13707.38)
(67.52853 237.2857 13340.49)
(82.91892 842.2762 13232.26)
(81.41373 346.4961 12874.64)
(206.3748 1257.638 13164.37)
(140.3349 2759.49 12395.82)
(79.81064 408.4087 12478.28)
(251.136 1489.986 12999.81)
(355.3171 3382.404 12961.57)
(204.3053 6928.345 11297.99)
(72.84469 423.7975 12185.78)
(247.7774 1541.542 12874.11)
(436.8638 3539.291 13492.74)
(530.8248 7747.771 13456.61)
(286.9175 18466.74 6675.997)
(65.27366 396.609 11962.69)
(226.9502 1429.446 12787.13)
(433.8953 3238.163 14010.31)
(662.0105 6966.756 16535.49)
(800.5627 16293.07 27877.84)
(495.8507 1828.596 37002.3)
(58.54266 334.8467 11756.65)
(203.3861 1190.588 12668.04)
(398.2156 2611.763 14212.51)
(657.5552 5149.378 17280.21)
(977.6353 8857.951 24595.02)
(1159.563 3419.334 31213.48)
(595.8395 1690.096 33004.67)
(52.80198 249.3779 11524.85)
(181.8289 874.3961 12471.84)
(356.0233 1854.948 14127.11)
(599.4703 3382.096 17108.6)
(943.8915 4887.546 22346.08)
(1300.56 2678.073 27179.76)
(1367.623 1574.865 29879.43)
(691.9358 786.2152 32051.45)
(47.84677 151.1664 11240.65)
(163.0346 524.022 12181.25)
(316.457 1083.054 13828.71)
(530.9167 1870.304 16580.66)
(841.3848 2458.004 20694.15)
(1203.491 1554.87 24447.31)
(1503.009 998.0632 27030.1)
(1567.834 539.0038 29557.57)
(788.6149 131.7407 31758.2)
(43.45089 49.60771 10891.49)
(146.5837 170.7307 11794.57)
(281.4457 347.6054 13374.65)
(466.9489 583.3487 15911.92)
(732.8541 734.0351 19433.72)
(1048.923 489.3592 22588.11)
(1372.335 324.7025 24875.08)
(1699.409 180.7081 27172.05)
(1768.931 49.37616 29514.75)
(888.2518 -101.1441 31570.88)
(27.50986 -85.70318 13707.38)
(66.58933 81.60505 13162.19)
(81.52793 288.8905 12980)
(79.45084 221.8912 12555.63)
(200.281 801.7027 12698.08)
(134.7557 1734.267 11639.13)
(77.35613 323.8171 12065.11)
(241.9013 1175.784 12382.29)
(337.3686 2624.761 11877.88)
(189.1723 5116.393 9553.216)
(70.36176 383.6249 11728.13)
(237.918 1392.368 12178.53)
(413.4546 3160.968 12174.92)
(487.1826 6583.661 10796.13)
(248.602 12655.02 4840.342)
(63.04854 400.4051 11510.84)
(218.0868 1447.995 12099.24)
(411.7008 3307.013 12631.92)
(610.2236 7236.404 12609.46)
(675.5242 17523.71 6359.612)
(56.73127 376.6445 11356.14)
(196.303 1350.567 12079.35)
(380.8586 3041.66 13165.17)
(618.709 6508.583 15463.27)
(901.6962 15208.26 26023.29)
(1138.959 1737.239 35019.52)
(592.1651 767.2706 34515.24)
(51.46933 319.3335 11207.99)
(176.7444 1130.674 12026.56)
(344.0872 2467.706 13426.89)
(574.8934 4836.911 16234.89)
(903.276 8274.653 22976.08)
(1279.197 3194.176 29091.48)
(1357.624 1610.073 31151.15)
(690.3379 744.3845 32869.4)
(46.99781 238.6408 11025.55)
(159.8682 833.8959 11890.57)
(309.3241 1761.645 13413.44)
(517.2724 3195.638 16164.72)
(821.2626 4591.017 20991.5)
(1189.974 2502.412 25376.61)
(1494.327 1473.659 27809.8)
(1564.523 757.5465 30161.66)
(789.1461 190.7843 32285.01)
(43.05339 145.0664 10784.76)
(145.1268 501.4644 11654.09)
(278.2623 1032.909 13185.68)
(461.1609 1776.275 15745.59)
(724.8836 2322.543 19554.91)
(1043.071 1460.643 22964.04)
(1368.12 933.2071 25226.65)
(1697.161 507.4616 27470.44)
(1769.232 140.6019 29792.1)
(889.8147 -268.1005 31900.31)
(39.44966 47.71871 10475.06)
(131.9093 163.8423 11316.63)
(250.5704 332.6469 12796.96)
(410.6459 556.3514 15174.16)
(636.4011 697.1459 18458.09)
(902.5729 462.398 21346.81)
(1186.785 305.0863 23365.44)
(1539.092 169.3544 25348.87)
(1896.345 48.8434 27389.89)
(1976.479 -85.51439 29517.85)
(993.5634 -283.6035 31374.32)
(27.91967 -249.2053 13894.68)
(66.58933 -81.60505 13162.19)
(81.52793 -288.8905 12980)
(78.42202 76.31125 12388.93)
(197.1011 274.9806 12458.14)
(131.8814 590.2147 11264.47)
(75.57768 207.3686 11766.99)
(235.248 749.5392 11946.53)
(324.6732 1649.732 11158.94)
(178.9566 3104.96 8537.057)
(68.24879 304.1666 11340.03)
(229.5661 1098.758 11601.54)
(393.9782 2453.051 11162.85)
(452.9669 4862.906 9140.278)
(222.9226 8281.364 3812.66)
(60.91887 362.4497 11078.44)
(209.6052 1307.873 11445.87)
(390.5991 2953.548 11400.84)
(563.2817 6149.766 10126.52)
(589.6129 12015.07 4618.859)
(54.80128 380.2496 10927.03)
(188.7019 1368.092 11429.39)
(361.7893 3106.329 11870.42)
(572.243 6760.483 11796.44)
(768.8981 16357.24 5952.5)
(49.87579 359.1952 10826.03)
(170.6007 1282.604 11467.47)
(329.2063 2873.9 12437.26)
(541.5609 6113.633 14528.19)
(835.3556 14205.7 24310.31)
(1257.061 1622.558 32643.89)
(1349.202 730.5265 32582.96)
(689.0779 318.0285 33558.06)
(45.81009 305.5848 10722.33)
(155.395 1078.306 11465.9)
(298.9709 2343.592 12748.41)
(496.2068 4570.283 15339.11)
(786.4349 7772.592 21583.22)
(1170.755 2984.348 27162.13)
(1483.291 1505.892 28995.62)
(1560.468 715.8054 30931.76)
(789.6039 183.484 32882.81)
(42.2885 229.011 10578.34)
(142.3047 798.0002 11375.92)
(271.9864 1680.086 12789.62)
(449.3259 3034.998 15350.53)
(707.6372 4338.047 19835.85)
(1031.453 2350.718 23836.85)
(1360.209 1377.69 25954.47)
(1693.057 712.5531 28031.58)
(1769.609 200.6745 30280.29)
(892.4081 -338.4017 32467.64)
(39.08838 139.5425 10372.4)
(130.5966 481.2321 11181.82)
(247.7328 988.4613 12616.12)
(405.5529 1694.074 15015.51)
(629.4871 2205.835 18573.18)
(897.5532 1380.17 21702.01)
(1183.144 876.8079 23695.56)
(1536.944 475.4822 25627)
(1896.065 138.5265 27645.6)
(1979.093 -226.5375 29817.58)
(996.8878 -765.0125 31825.36)
(36.07645 45.99491 10095.4)
(119.769 157.6042 10884.24)
(225.5169 319.2293 12279.19)
(365.6747 532.4191 14520.33)
(559.7646 664.895 17604.88)
(783.6378 439.162 20277.74)
(1020.464 288.2934 22083.35)
(1328.095 159.2364 23810.37)
(1708.502 46.57504 25541.69)
(2096.715 -75.00023 27349.26)
(2191.093 -250.3595 29222.37)
(1103.447 -552.1932 30748.22)
(28.70181 -389.1615 14253.12)
(67.52853 -237.2857 13340.49)
(82.91892 -842.2762 13232.26)
(78.42202 -76.31125 12388.93)
(197.1011 -274.9806 12458.14)
(131.8814 -590.2147 11264.47)
(74.64546 71.31686 11611.21)
(231.7752 257.0919 11722.3)
(318.1294 561.4714 10802.92)
(173.8381 1038.196 8068.795)
(66.71775 194.7846 11060)
(223.5476 700.4408 11194.38)
(380.19 1541.875 10491.35)
(429.8354 2951.618 8175.585)
(207.05 4703.109 3257.856)
(59.10651 287.377 10711.77)
(202.42 1032.08 10903.9)
(373.0351 2292.115 10455.37)
(526.4042 4542.921 8580.844)
(531.8431 7865.845 3643.908)
(52.95409 344.2046 10516.39)
(181.4282 1235.701 10812.05)
(343.6576 2774.312 10714.05)
(530.0926 5745.467 9477.285)
(677.2231 11218.21 4328.19)
(48.17792 362.6333 10416.8)
(164.0077 1299.248 10850.2)
(312.8578 2935.003 11213.84)
(501.7022 6350.24 11083.84)
(716.8251 15278.98 5566.24)
(44.38984 343.7304 10356.81)
(149.9899 1223.2 10932.69)
(286.0634 2729.366 11808.49)
(467.6393 5776.671 13726.37)
(728.2388 13343.75 22836.47)
(1150.894 1515.884 30480.24)
(1474.079 683.059 30331.36)
(1557.346 305.4286 31581.41)
(789.8297 78.61323 33309.31)
(41.21838 293.2538 10287.36)
(138.3177 1031.891 10969.52)
(262.8771 2235.1 12155.35)
(431.0534 4340.579 14566.36)
(677.7925 7344.415 20394.93)
(1014.95 2803.382 25513.92)
(1350.191 1407.59 27061.63)
(1688.149 672.6168 28747.62)
(1769.802 190.32 30835.27)
(895.092 -279.9142 33088)
(38.39319 220.2907 10173.84)
(128.0538 765.8044 10914.87)
(242.1387 1607.793 12237.09)
(395.1389 2894.563 14638.71)
(614.5269 4120.107 18839.99)
(887.5905 2221.211 22526.69)
(1176.318 1294.374 24379.04)
(1533.05 667.423 26150.17)
(1895.476 196.4769 28095.98)
(1983.426 -285.6295 30333.92)
(1002.517 -996.9041 32618.55)
(35.74579 134.5016 9996.442)
(118.5759 462.9101 10754.56)
(222.9599 948.5918 12105.64)
(361.1346 1621.205 14368.5)
(553.6803 2103.8 17714.64)
(779.2827 1310.819 20615.08)
(1017.337 828.5416 22395.25)
(1326.21 447.0466 24071.42)
(1708.022 131.9089 25779.43)
(2098.427 -198.6307 27623.28)
(2196.936 -675.4713 29627.59)
(1109.593 -1512.337 31430.26)
(33.18478 44.41211 9747.019)
(109.5327 151.9115 10489.96)
(204.7845 307.0778 11810.61)
(329.1792 510.9503 13934.01)
(498.6004 636.3032 16848.31)
(689.3923 418.8464 19342.57)
(885.9039 273.8102 20979.51)
(1141.166 150.5042 22506.22)
(1471.05 44.03531 23991.91)
(1878.89 -68.38542 25493.79)
(2298.751 -225.1749 27031.48)
(2410.763 -490.7312 28522.06)
(1216.179 -965.6396 29462.35)
(29.78184 -490.8405 14749.93)
(69.32074 -370.5398 13681.69)
(85.58529 -1321.338 13722.53)
(79.45084 -221.8912 12555.63)
(200.281 -801.7027 12698.08)
(134.7557 -1734.267 11639.13)
(74.64546 -71.31686 11611.21)
(231.7752 -257.0919 11722.3)
(318.1294 -561.4714 10802.92)
(173.8381 -1038.196 8068.795)
(65.91519 66.98905 10913.67)
(220.4057 240.252 10984.86)
(373.0786 524.7764 10158.81)
(418.2344 987.0109 7730.943)
(199.4519 1526.738 3013.585)
(57.79328 184.0326 10447.19)
(197.2419 657.9345 10521.44)
(360.5956 1440.735 9828.029)
(501.4297 2757.634 7680.19)
(496.0467 4468.402 3117.389)
(51.38212 272.9107 10168.17)
(175.2663 975.1252 10299.97)
(328.5634 2153.017 9825.948)
(496.9473 4244.386 8033.501)
(615.3336 7345.703 3418.279)
(46.55288 328.258 10025.18)
(157.6988 1173.517 10263.9)
(297.313 2621.289 10121.19)
(465.5359 5396.809 8905.41)
(634.8201 10479.42 4049.152)
(42.8766 347.0206 9965.193)
(144.1895 1239.073 10343.98)
(271.883 2787.397 10646.52)
(433.4812 6000.232 10471.62)
(626.7526 14351.89 5229.589)
(39.93876 329.8603 9936.583)
(133.5001 1170.55 10459.25)
(251.5202 2603.022 11258.89)
(406.2738 5486.377 13034.56)
(627.9326 12608.88 21579.1)
(997.9127 1423.948 28630.64)
(1341.861 638.405 28309.03)
(1684.455 286.8172 29352.27)
(1769.781 80.87128 31232.05)
(896.8044 -108.4689 33507.83)
(37.42058 282.0874 9893.934)
(124.4614 990.2594 10524.85)
(234.0187 2138.93 11630.08)
(379.0599 4139.762 13890.77)
(588.6384 6975.546 19370.96)
(873.4427 2648.946 24111.33)
(1167.686 1322.407 25418.84)
(1528.433 629.7863 26818.01)
(1894.666 185.2011 28608.47)
(1987.902 -235.9515 30898.79)
(1008.525 -856.7099 33515.62)
(35.10951 212.333 9805.05)
(116.2648 736.6483 10497.77)
(217.9192 1542.946 11741.89)
(351.8508 2770.068 14007.89)
(540.5151 3929.56 17969.1)
(770.6393 2109.613 21398.32)
(1011.475 1223.113 23041)
(1322.8 627.4426 24562.52)
(1707.116 186.6824 26198.27)
(2101.259 -250.3171 28095.42)
(2206.831 -880.5291 30340.07)
(1120.256 -2028.656 32688.38)
(32.88043 129.8731 9651.471)
(108.4407 446.1898 10364.96)
(202.4603 912.4843 11643.66)
(325.0879 1555.835 13788.29)
(493.1761 2013.34 16953.35)
(685.5597 1250.185 19664.31)
(883.1891 786.9184 21275.72)
(1139.537 422.5238 22752.82)
(1470.562 124.6603 24214.86)
(1880.018 -181.0977 25747.75)
(2303.049 -607.628 27399.65)
(2421.665 -1344.242 29130.62)
(1226.852 -2705.169 30482.06)
(30.67001 42.95141 9425.688)
(100.7567 146.6843 10128.13)
(187.2985 295.9882 11383.21)
(298.9665 491.5059 13403.14)
(448.9556 610.6526 16169.45)
(614.2218 400.8361 18512.95)
(779.4526 261.1457 20013.7)
(990.6036 142.9527 21383.69)
(1263.132 41.69187 22680.67)
(1614.198 -63.7221 23948.1)
(2048.619 -207.385 25188.83)
(2500.069 -443.1723 26342.05)
(2631.71 -858.9152 27212.74)
(1328.408 -1571.903 27179.27)
(31.05152 -542.2494 15335.81)
(71.79506 -467.3435 14154.57)
(89.28892 -1674.542 14417.42)
(81.41373 -346.4961 12874.64)
(206.3748 -1257.638 13164.37)
(140.3349 -2759.49 12395.82)
(75.57768 -207.3686 11766.99)
(235.248 -749.5392 11946.53)
(324.6732 -1649.732 11158.94)
(178.9566 -3104.96 8537.057)
(65.91519 -66.98905 10913.67)
(220.4057 -240.252 10984.86)
(373.0786 -524.7764 10158.81)
(418.2344 -987.0109 7730.943)
(199.4519 -1526.738 3013.585)
(57.10489 63.29125 10308.94)
(194.5385 225.6722 10324.64)
(354.1779 490.3568 9517.347)
(488.8902 922.186 7265.018)
(478.8849 1450.756 2885.516)
(50.24307 174.7683 9916.91)
(170.8255 621.6256 9938.612)
(317.8715 1353.303 9236.682)
(474.4819 2576.478 7192.18)
(576.8712 4173.527 2926.8)
(45.16997 260.2668 9693.086)
(152.3542 926.0528 9777.572)
(284.3718 2034.255 9282.033)
(437.0865 3986.815 7549.237)
(579.3564 6862.326 3199.261)
(41.42828 314.1252 9590.432)
(138.6391 1119.165 9784.823)
(258.3997 2489.452 9608.764)
(402.4855 5099.311 8413.143)
(556.486 9843.52 3804.553)
(38.57535 333.0177 9560.763)
(128.3301 1185.74 9895.869)
(239.0432 2658.366 10150.65)
(376.6447 5698.702 9943.135)
(540.9992 13561.46 4940.987)
(36.25756 317.3001 9556.516)
(120.1206 1123.325 10035.16)
(223.8952 2491.028 10772.17)
(357.2542 5232.584 12429.75)
(545.388 11975.82 20495.61)
(858.8403 1345.507 27056.35)
(1160.519 599.7545 26590.42)
(1524.988 268.4911 27382.17)
(1894.003 78.40724 28975.25)
(1990.752 -91.34502 31281.25)
(1012.488 -341.2149 34148.44)
(34.21933 271.8974 9535.255)
(112.9996 952.5584 10122.6)
(210.6023 2052.665 11159.35)
(337.5165 3961.732 13292.09)
(517.7318 6653.026 18475.49)
(758.3656 2515.88 22903.35)
(1004.066 1249.594 24023.45)
(1318.769 591.9938 25189.49)
(1706.004 175.5906 26675.04)
(2104.172 -206.6517 28612.09)
(2217.393 -757.0047 31145.68)
(1132.085 -1809.804 34231.18)
(32.29478 205.0262 9466.664)
(106.3254 710.041 10117.44)
(197.8785 1484.216 11293.75)
(316.7217 2658.382 13442.21)
(481.4387 3760.622 17196.85)
(677.9533 2012.04 20411.31)
(878.1019 1161.67 21889.01)
(1136.593 593.0069 23216.75)
(1469.66 176.3005 24607.7)
(1881.879 -228.1872 26185.37)
(2310.331 -792.3311 28047.03)
(2440.579 -1803.729 30253.25)
(1246.03 -3797.828 32497.87)
(30.38858 125.6016 9333.282)
(99.75156 430.8368 10007.43)
(185.1712 879.5317 11222.28)
(295.2475 1496.629 13262.96)
(444.0672 1932.184 16270.24)
(610.805 1196.43 18820.85)
(777.0634 750.5219 20296.2)
(989.1878 401.322 21617.88)
(1262.691 118.0095 22891.23)
(1615.031 -168.7472 24186.02)
(2051.747 -559.6751 25529.26)
(2508.26 -1214.177 26893.25)
(2650.636 -2406.657 28118.95)
(1345.904 -4547.855 28561.4)
(28.45542 41.59784 9128.05)
(93.12373 141.8603 9794.364)
(172.3033 285.805 10990.9)
(273.4738 473.7597 12918.75)
(407.836 587.4194 15554.49)
(553.1972 384.679 17768.2)
(694.578 249.9184 19156.57)
(871.6863 136.3456 20401.23)
(1096.403 39.62156 21552.29)
(1385.128 -60.057 22642.72)
(1756.157 -193.8886 23663.96)
(2215.642 -408.8214 24540.25)
(2696.932 -776.3777 25097.63)
(2847.235 -1396.945 24995.85)
(1434.52 -2347.771 45883.24)
(32.37817 -537.0992 15948.06)
(74.70345 -516.2861 14712.23)
(93.66471 -1854.023 15255.3)
(84.1231 -437.0135 13316.77)
(214.8363 -1593.748 13825.19)
(148.2286 -3556.371 13536.65)
(77.35613 -323.8171 12065.11)
(241.9013 -1175.784 12382.29)
(337.3686 -2624.761 11877.88)
(189.1723 -5116.393 9553.216)
(66.71775 -194.7846 11060)
(223.5476 -700.4408 11194.38)
(380.19 -1541.875 10491.35)
(429.8354 -2951.618 8175.585)
(207.05 -4703.109 3257.856)
(57.10489 -63.29124 10308.94)
(194.5385 -225.6722 10324.64)
(354.1779 -490.3568 9517.347)
(488.8902 -922.186 7265.018)
(478.8849 -1450.756 2885.516)
(49.64599 60.10512 9785.614)
(168.507 213.218 9752.663)
(312.3548 460.599 8944.855)
(463.1961 861.6157 6804.347)
(558.3977 1355.12 2710.333)
(44.16793 166.6713 9453.465)
(148.5024 590.3418 9434.387)
(275.2047 1278.649 8725.248)
(417.7982 2420.122 6758.971)
(544.8394 3899.042 2740.182)
(40.19576 249.0611 9272.634)
(133.937 883.1607 9321.007)
(247.1749 1931.934 8811.772)
(378.1016 3767.01 7131.666)
(508.9303 6445.895 3006.234)
(37.27043 301.4496 9201.123)
(123.383 1070.992 9360.765)
(227.1796 2374.208 9160.889)
(349.759 4843.014 7987.985)
(480.798 9301.202 3594.401)
(35.01838 320.3373 9195.004)
(115.4623 1137.902 9494.5)
(212.773 2543.991 9711.566)
(331.1804 5435.085 9481.148)
(469.978 12880.54 4691.998)
(33.15487 305.8383 9210.025)
(109.0541 1080.559 9651.545)
(201.4798 2390.565 10336.01)
(318.0762 5007.582 11893.82)
(479.6668 11422.27 19548.13)
(745.6982 1277.924 25700.48)
(997.9171 566.7292 25130.46)
(1315.77 252.3614 25719.21)
(1705.167 74.2421 27016.4)
(2106.019 -79.96506 28962.03)
(2224.361 -301.5875 31713.83)
(1140.265 -741.2918 35446.22)
(31.47543 262.5409 9206.153)
(103.3368 918.1531 9755.817)
(191.2276 1974.537 10733.37)
(303.8038 3802.016 12755.24)
(461.1253 6367.063 17681.46)
(667.1519 2399.535 21846.75)
(871.6721 1186.824 22822.09)
(1133.118 559.4866 23809.07)
(1468.579 165.7116 25054.93)
(1883.788 -188.3457 26664.35)
(2318.109 -681.4159 28779.04)
(2461.56 -1609.71 31630.01)
(1268.642 -3614.557 35300.51)
(29.84704 198.283 9154.554)
(97.80448 685.6094 9768.43)
(180.9774 1430.618 10885)
(287.6424 2557.226 12930.04)
(433.489 3609.052 16503.92)
(604.0238 1925.535 19535.73)
(772.5863 1107.943 20881.11)
(986.6285 563.2467 22058.47)
(1261.88 166.8577 23262.23)
(1616.404 -212.622 24596.04)
(2057.054 -729.9222 26127.91)
(2522.475 -1629.705 27910.26)
(2684.643 -3379.926 29911.36)
(1378.906 -6847.11 31546.39)
(28.19421 121.6434 9038.556)
(92.1943 416.6679 9677.636)
(170.3452 849.2727 10835.51)
(270.0696 1442.594 12783.63)
(403.3922 1858.675 15651.45)
(550.1181 1148.205 18063.68)
(692.4481 718.2556 19426.92)
(870.4399 382.7728 20624.57)
(1096.014 112.144 21752.23)
(1385.801 -159.0434 22867.34)
(1758.603 -523.2785 23982.66)
(2221.718 -1120.18 25049.33)
(2711.177 -2175.84 25917.1)
(2878.16 -4042.869 26219.47)
(1461.044 -7072.288 48979.13)
(26.48501 40.33934 8851.405)
(86.40132 137.39 9485.186)
(159.2588 276.4069 10628.97)
(251.6045 457.4634 12474.02)
(373.1212 566.2144 14993.16)
(502.6275 370.045 17093.32)
(625.6662 239.847 18386.87)
(776.9044 130.4886 19528.97)
(964.9251 37.80202 20564.32)
(1202.238 -56.99135 21519.53)
(1505.988 -182.9275 22378.34)
(1895.247 -382.4173 23058.74)
(2376.949 -716.4625 23379.4)
(2883.403 -1262.65 23029.76)
(3046.661 -2082.537 41969.59)
(196.1036 -476.6147 14444.56)
(33.62271 -477.4722 16519.48)
(77.74228 -511.3874 15294.98)
(98.23869 -1830.234 16137.53)
(87.30721 -482.7773 13838.14)
(224.8305 -1764.525 14621.9)
(157.7317 -3982.457 15022.72)
(79.81064 -408.4087 12478.28)
(251.136 -1489.986 12999.81)
(355.3171 -3382.404 12961.57)
(204.3053 -6928.345 11297.99)
(68.24879 -304.1666 11340.03)
(229.5661 -1098.758 11601.54)
(393.9782 -2453.051 11162.85)
(452.9669 -4862.906 9140.278)
(222.9226 -8281.364 3812.66)
(57.79328 -184.0326 10447.19)
(197.2419 -657.9345 10521.44)
(360.5956 -1440.735 9828.029)
(501.4297 -2757.634 7680.19)
(496.0467 -4468.402 3117.389)
(49.64599 -60.10512 9785.614)
(168.507 -213.218 9752.663)
(312.3548 -460.599 8944.855)
(463.1961 -861.6157 6804.347)
(558.3977 -1355.12 2710.333)
(43.64266 57.32041 9328.251)
(146.4914 202.4875 9257.79)
(270.4746 435.1897 8449.507)
(408.1066 809.3274 6394.675)
(528.2466 1266.021 2537.979)
(39.30269 159.4952 9043.329)
(130.5483 562.9981 8993.71)
(239.2236 1214.331 8282.968)
(361.5685 2286.678 6384.936)
(479.3203 3662.429 2575.012)
(36.15995 239.0109 8896.147)
(119.192 845.145 8916.904)
(217.3034 1842.493 8400.761)
(328.6086 3577.644 6770.854)
(440.0485 6090.668 2840.042)
(33.83236 289.9712 8849.056)
(111.0048 1027.783 8980.975)
(202.1978 2272.054 8764.352)
(307.5215 4618.949 7616.353)
(417.7578 8834.012 3412.99)
(32.0207 308.7658 8861.571)
(104.8201 1094.581 9131.458)
(191.4574 2441.393 9318.153)
(294.8302 5201.374 9071.882)
(413.2937 12285.15 4474.321)
(30.49566 295.3139 8892.113)
(99.72565 1041.531 9301.773)
(182.9355 2299.579 9941.353)
(286.2838 4805.72 11413.3)
(427.1846 10931.44 18707.97)
(656.0036 1218.833 24514.57)
(866.3363 538.2623 23873.48)
(1130.534 238.4994 24309.54)
(1467.781 70.03612 25375.19)
(1884.994 -72.87075 26988.83)
(2323.245 -271.538 29295.3)
(2476.067 -659.4918 32714.4)
(1285.67 -1556.258 37986.37)
(29.0894 253.9061 8902.61)
(95.05365 886.5611 9419.246)
(174.8897 1903.235 10344.85)
(275.8994 3657.354 12269.19)
(415.1811 6110.486 16968.99)
(594.3937 2296.382 20909.46)
(766.9276 1131.938 21771.02)
(983.6082 531.4051 22621)
(1260.916 156.8021 23684.63)
(1617.81 -175.4936 25044.84)
(2062.729 -627.861 26804.89)
(2538.251 -1454.922 29157.83)
(2724.728 -3218.16 32405.43)
(1421.594 -7298.304 36515.59)
(27.69158 192.0343 8865.46)
(90.39385 663.062 9446.492)
(166.4848 1381.401 10509.84)
(263.1082 2464.902 12462.72)
(393.7758 3471.76 15876.23)
(544.0068 1847.926 18749.75)
(688.4569 1060.312 19986.67)
(868.187 537.2116 21044.76)
(1095.301 158.5525 22104.54)
(1386.91 -200.3993 23254.44)
(1762.753 -682.5141 24543.11)
(2232.27 -1503.816 25988.77)
(2736.779 -3056.91 27538.72)
(2936.494 -6090.208 28865.69)
(1514.1 -11752.02 56384.64)
(26.24182 117.9632 8764.618)
(85.53866 403.538 9372.136)
(157.448 821.3465 10478.69)
(248.4708 1392.973 12343.55)
(369.0534 1791.581 15086.61)
(499.8284 1104.525 17377.55)
(623.747 689.3107 18646.31)
(775.7934 366.329 19742.7)
(964.5818 106.991 20754.99)
(1202.811 -150.9272 21732.8)
(1508.012 -493.7108 22679.13)
(1900.044 -1047.896 23535.1)
(2387.562 -2008.191 24135.74)
(2906.581 -3655.265 24134.62)
(3093.314 -6276.491 44685.88)
(201.7168 -1518.74 15437.17)
(24.7181 39.16594 8593.527)
(80.41966 133.2337 9197.8)
(147.7682 267.6978 10293.65)
(232.5745 442.423 12063.63)
(343.3267 546.7413 14477.64)
(459.9126 356.6887 16477.11)
(568.5422 230.7255 17689.18)
(699.9366 125.2356 18745.37)
(860.1637 36.18931 19686.75)
(1058.24 -54.32849 20535.63)
(1307.112 -173.6471 21272.12)
(1624.312 -360.8529 21811.36)
(2029.046 -670.2534 21974.81)
(2527.924 -1165.163 21459.06)
(3050.611 -1881.238 38662.53)
(409.5014 -420.4827 13195.97)
(232.3548 -762.2998 20670.34)
(34.66262 -372.8509 16993.45)
(80.59345 -454.6277 15838.88)
(102.4976 -1613.307 16936.47)
(90.63406 -478.1992 14382.97)
(235.2763 -1741.905 15460.73)
(167.7371 -3899.449 16687.18)
(82.69499 -451.1765 12965.5)
(262.0393 -1649.623 13744.27)
(376.909 -3787.372 14372.84)
(223.6407 -8155.068 14102.54)
(70.36176 -383.6249 11728.13)
(237.918 -1392.368 12178.53)
(413.4546 -3160.968 12174.92)
(487.1826 -6583.661 10796.13)
(248.602 -12655.02 4840.342)
(59.10651 -287.377 10711.77)
(202.42 -1032.08 10903.9)
(373.0351 -2292.115 10455.37)
(526.4042 -4542.921 8580.844)
(531.8431 -7865.845 3643.908)
(50.24307 -174.7683 9916.91)
(170.8255 -621.6256 9938.612)
(317.8715 -1353.303 9236.682)
(474.4819 -2576.478 7192.18)
(576.8712 -4173.527 2926.8)
(43.64266 -57.32041 9328.251)
(146.4914 -202.4875 9257.79)
(270.4746 -435.1897 8449.507)
(408.1066 -809.3274 6394.675)
(528.2466 -1266.021 2537.979)
(38.83455 54.85245 8923.505)
(128.7791 193.1084 8825.289)
(235.1208 413.298 8021.086)
(353.2608 764.6991 6040.712)
(465.0819 1189.192 2385.08)
(35.35531 153.0591 8676.094)
(116.1716 538.7632 8603.689)
(210.3075 1158.109 7896.42)
(314.268 2171.714 6061.629)
(414.6732 3460.558 2432.571)
(32.82307 229.9099 8555.692)
(107.2285 811.0475 8555.015)
(193.3942 1763.213 8036.907)
(288.91 3412.099 6455.485)
(382.4112 5784.647 2696.499)
(30.9352 279.4965 8528.118)
(100.7685 988.6538 8637.477)
(181.9279 2180.419 8409.115)
(273.7377 4420.31 7287.208)
(367.335 8425.534 3254.407)
(29.45173 298.1406 8555.649)
(95.85034 1055.047 8800.466)
(173.8252 2348.472 8962.209)
(265.3337 4991.7 8705.018)
(367.9991 11757.22 4281.432)
(28.18341 285.6012 8598.898)
(91.7297 1005.694 8980.821)
(167.2997 2216.542 9581.421)
(259.9727 4622.881 10978.27)
(384.5895 10491.01 17954.12)
(584.4538 1166.441 23462.62)
(762.2317 513.3711 22773.8)
(981.3639 226.5279 23096.31)
(1260.208 66.26208 23987.13)
(1618.697 -67.89677 25348.89)
(2066.481 -250.2289 27282.38)
(2549.164 -596.2215 30140.76)
(2754.907 -1385.977 34797.78)
(1459.124 -3427.145 43244.25)
(26.98837 245.9046 8621.455)
(87.85015 857.4053 9108.789)
(160.8812 1837.76 9988.259)
(252.359 3525.32 11825.72)
(377.1319 5878.068 16323.6)
(535.3278 2203.835 20068.11)
(683.4121 1083.278 20838.32)
(865.5284 506.8406 21581.26)
(1094.454 148.9869 22505.66)
(1388.045 -165.4087 23678.18)
(1767.197 -587.1398 25176.96)
(2243.995 -1342.819 27141.46)
(2766.965 -2911.92 29796.69)
(3011.942 -6496.128 33279.7)
(1592.231 -15312.42 72571.12)
(25.77386 186.2246 8596.758)
(83.86754 642.1679 9148.274)
(153.8782 1335.978 10163.71)
(242.0627 2380.12 12033.67)
(360.2505 3346.448 15303.28)
(494.2729 1777.631 18037.51)
(620.1502 1017.583 19183.49)
(773.7852 514.1314 20144.8)
(963.953 151.2604 21090.97)
(1203.755 -190.1777 22100.35)
(1511.449 -643.9826 23208.14)
(1908.381 -1406.927 24414.29)
(2406.651 -2822.051 25632.9)
(2950.321 -5509.292 26526.14)
(3186.668 -10440.15 51204.66)
(213.8476 -2979.957 17812.04)
(24.49108 114.5319 8509.265)
(79.61649 391.3301 9088.169)
(146.0876 795.4675 10148.1)
(229.6767 1347.176 11937.45)
(339.5821 1729.968 14567.88)
(457.3504 1064.659 16751.08)
(566.7976 663.0956 17938.74)
(698.9357 351.5811 18950.47)
(859.858 102.4237 19869.21)
(1058.742 -143.8772 20738.99)
(1308.849 -468.6732 21557.69)
(1628.298 -988.8445 22260.9)
(2037.446 -1878.828 22682.33)
(2545.195 -3373.687 22478.04)
(3085.321 -5672.217 41105.86)
(419.2602 -1341.3 14063.73)
(241.5737 -2482.839 22020.75)
(23.12307 38.06915 8352.537)
(75.0555 129.3583 8929.9)
(137.5423 259.6002 9981.937)
(215.8073 428.4849 11683.36)
(317.3912 528.7684 14001.81)