/*--------------------------------*- C++ -*----------------------------------*\
| =========                 |                                                 |
| \\      /  F ield         | OpenFOAM: The Open Source CFD Toolbox           |
|  \\    /   O peration     | Version:  2306                                  |
|   \\  /    A nd           | Website:  www.openfoam.com                      |
|    \\/     M anipulation  |                                                 |
\*---------------------------------------------------------------------------*/
FoamFile
{
    version     2.0;
    format      ascii;
    arch        "LSB;label=32;scalar=64";
    class       volScalarField;
    location    "0.9/air";
    object      diffSp.O2;
}
// * * * * * * * * * * * * * * * * * * * * * * * * * * * * * * * * * * * * * //

dimensions      [0 2 -1 0 0 0 0];

internalField   nonuniform List<scalar> 
16000
(
0.0002484326
0.0002437212
0.0002539742
0.0002436348
0.0002410981
0.0002529247
0.0002323011
0.0002553835
0.000252906
0.0002409367
0.000239601
0.0002520172
0.0002253039
0.0002550088
0.000249821
0.0002251862
0.0002565073
0.0002550298
0.0002519788
0.0002393507
0.000238905
0.0002513501
0.0002211351
0.0002546748
0.0002471273
0.0002148442
0.0002563459
0.0002539371
0.0002470851
0.0002208228
0.0002574917
0.000256381
0.0002547117
0.0002512839
0.0002385347
0.000238905
0.0002509968
0.0002191651
0.0002544204
0.0002451369
0.0002084474
0.0002562075
0.0002529455
0.0002427539
0.0002081911
0.0002574054
0.0002559333
0.0002529604
0.0002450174
0.0002185493
0.0002583865
0.0002574427
0.000256271
0.000254472
0.0002508941
0.0002383711
0.0001470293
0.000239601
0.0002509968
0.0002191651
0.0002542823
0.0002440807
0.0002053631
0.0002561038
0.0002521823
0.0002395221
0.0002001788
0.0002573358
0.0002555348
0.0002513464
0.0002394126
0.0002046563
0.0002583288
0.00025722
0.0002555703
0.0002522086
0.0002438466
0.0002181145
0.0002592088
0.0002583641
0.0002574037
0.0002561972
0.0002543516
0.0002508553
0.0002388493
0.0001470114
0.000147666
0.0001474093
0.0002410981
0.0002513501
0.0002211351
0.0002542823
0.0002440807
0.0002053631
0.0002560479
0.0002517658
0.0002377984
0.0001962608
0.0002572856
0.0002552311
0.00025009
0.000235196
0.0001957223
0.0002582848
0.0002570297
0.0002549336
0.0002500975
0.0002375049
0.0002039755
0.000259163
0.0002582247
0.0002570695
0.0002553109
0.0002518084
0.0002437119
0.0002194975
0.0002599718
0.0002591952
0.0002583493
0.0002573862
0.0002561773
0.0002543793
0.0002511826
0.0002400559
0.0001469726
0.0001476627
0.000147384
0.0001482779
0.0001480125
0.0001477922
0.0002437212
0.0002520172
0.0002253039
0.0002544204
0.0002451369
0.0002084474
0.0002560479
0.0002517658
0.0002377984
0.0001962608
0.0002572592
0.0002550658
0.0002494004
0.0002329359
0.0001913188
0.0002582544
0.0002568891
0.0002544409
0.0002484393
0.0002327091
0.0001948548
0.0002591292
0.0002581106
0.0002567764
0.0002544928
0.0002494172
0.0002372705
0.0002061314
0.0002599319
0.0002590885
0.0002581489
0.0002569808
0.0002552086
0.0002518476
0.000244654
0.0002228891
0.0002606823
0.000259961
0.0002591881
0.00025835
0.000257399
0.0002562251
0.0002545669
0.0002518645
0.0002422576
0.0001468975
0.0001476569
0.0001473246
0.0001482778
0.0001480094
0.0001477608
0.0001488342
0.0001485812
0.0001483593
0.0001481803
0.0002484326
0.0002529247
0.0002323011
0.0002546748
0.0002471273
0.0002148442
0.0002561038
0.0002521823
0.0002395221
0.0002001788
0.0002572592
0.0002550658
0.0002494004
0.0002329359
0.0001913188
0.0002582388
0.0002568141
0.0002541707
0.0002475242
0.0002301303
0.0001903509
0.0002591065
0.0002580295
0.0002565562
0.0002538521
0.0002475269
0.0002323908
0.0001975692
0.000259903
0.0002590038
0.0002579805
0.0002566188
0.0002543033
0.0002494541
0.000238772
0.0002113304
0.0002606461
0.0002598694
0.0002590389
0.0002581182
0.0002569789
0.0002553036
0.0002523559
0.0002466187
0.0002288246
0.0002613466
0.0002606724
0.0002599561
0.0002591938
0.0002583718
0.0002574494
0.0002563491
0.0002549145
0.0002528843
0.0002462259
0.0001466971
0.000147651
0.0001471977
0.0001482791
0.0001480046
0.0001476859
0.000148835
0.0001485833
0.0001483563
0.0001481448
0.0001493401
0.000149098
0.000148884
0.0001487077
0.0001485707
0.0002539742
0.0002436348
0.0002550088
0.000249821
0.0002251862
0.0002562075
0.0002529455
0.0002427539
0.0002081911
0.0002572856
0.0002552311
0.00025009
0.000235196
0.0001957223
0.0002582388
0.0002568141
0.0002541707
0.0002475242
0.0002301303
0.0001903509
0.000259095
0.0002579872
0.0002564375
0.0002534981
0.0002464799
0.0002297642
0.0001933576
0.0002598837
0.0002589451
0.0002578585
0.0002563426
0.0002535871
0.000247554
0.000234321
0.0002040458
0.0002606199
0.0002597977
0.0002589174
0.0002579198
0.0002565973
0.0002544309
0.0002502502
0.0002418923
0.0002201269
0.0002613132
0.0002605893
0.0002598295
0.0002590267
0.0002581468
0.0002570838
0.0002556158
0.0002533095
0.0002494735
0.0002385967
0.0002619693
0.000261337
0.0002606679
0.0002599626
0.0002592165
0.0002584193
0.0002575442
0.0002565579
0.0002554351
0.0002542972
0.0001453014
0.00014767
0.0001468753
0.0001482868
0.0001480026
0.0001475276
0.000148838
0.0001485907
0.0001483517
0.0001480604
0.0001493411
0.0001491014
0.0001488879
0.0001487047
0.000148533
0.0001498074
0.0001495704
0.0001493612
0.0001491873
0.0001490541
6.30839e-05
0.0002553835
0.000252906
0.0002409367
0.0002563459
0.0002539371
0.0002470851
0.0002208228
0.0002573358
0.0002555348
0.0002513464
0.0002394126
0.0002046563
0.0002582544
0.0002568891
0.0002544409
0.0002484393
0.0002327091
0.0001948548
0.000259095
0.0002579872
0.0002564375
0.0002534981
0.0002464799
0.0002297642
0.0001933576
0.0002598741
0.0002589152
0.0002577943
0.0002561923
0.0002531889
0.0002464992
0.0002319268
0.0002004948
0.0002606026
0.0002597487
0.000258832
0.000257774
0.0002563019
0.0002537333
0.0002485708
0.00023832
0.0002147618
0.000261289
0.0002605245
0.0002597278
0.0002588886
0.0002579509
0.0002567432
0.0002549014
0.0002517403
0.0002463411
0.0002337672
0.0002619381
0.00026126
0.0002605532
0.0002598225
0.0002590619
0.0002582472
0.0002573108
0.0002561495
0.0002546557
0.0002530379
0.0001436449
0.0002625542
0.0002619598
0.0002613325
0.0002606738
0.0002599839
0.0002592599
0.0002584984
0.0002576947
0.0002568824
0.0002562505
0.0001479837
0.000145796
0.0001483424
0.0001480307
0.0001471711
0.0001488487
0.0001486143
0.0001483495
0.0001478891
0.0001493443
0.0001491116
0.0001488995
0.0001486994
0.000148445
0.0001498083
0.0001495739
0.0001493667
0.0001491923
0.000149051
6.306755e-05
0.0001502408
0.0001500096
0.0001497999
0.0001496243
0.0001494874
6.328229e-05
6.309446e-05
0.0002565073
0.0002550298
0.0002519788
0.0002393507
0.0002574054
0.0002559333
0.0002529604
0.0002450174
0.0002185493
0.0002582848
0.0002570297
0.0002549336
0.0002500975
0.0002375049
0.0002039755
0.0002591065
0.0002580295
0.0002565562
0.0002538521
0.0002475269
0.0002323908
0.0001975692
0.0002598741
0.0002589152
0.0002577943
0.0002561923
0.0002531889
0.0002464992
0.0002319268
0.0002004948
0.0002605939
0.0002597238
0.0002587879
0.0002576965
0.0002561397
0.0002533432
0.0002476363
0.0002364001
0.0002121745
0.000261273
0.0002604805
0.0002596575
0.0002587904
0.0002578045
0.0002564739
0.000254319
0.0002504711
0.0002439547
0.0002307864
0.0002619155
0.0002611999
0.0002604618
0.0002597089
0.0002589325
0.0002580919
0.0002570746
0.0002556998
0.0002537742
0.0002516756
0.0001423318
0.000262525
0.0002618877
0.000261226
0.0002605473
0.0002598569
0.000259154
0.0002584319
0.0002576743
0.0002569123
0.0002563706
0.0001478415
0.0001444909
0.0002631045
0.0002625449
0.0002619552
0.0002613376
0.0002606931
0.0002600231
0.0002593289
0.0002586204
0.0002579353
0.0002574605
0.0001489085
0.000148192
0.0001463218
0.0001489095
0.0001487056
0.0001483692
0.0001475442
0.000149355
0.0001491403
0.0001489308
0.0001486944
0.0001482744
0.0001498114
0.0001495843
0.000149382
0.0001492061
0.0001490447
6.302967e-05
0.0001502416
0.000150013
0.0001498056
0.0001496313
0.000149493
6.328089e-05
6.307812e-05
0.0001506455
0.0001504196
0.000150211
0.0001500293
0.0001498841
6.345909e-05
6.329158e-05
6.310491e-05
0.0002574917
0.000256381
0.0002547117
0.0002512839
0.0002385347
0.0002583288
0.00025722
0.0002555703
0.0002522086
0.0002438466
0.0002181145
0.0002591292
0.0002581106
0.0002567764
0.0002544928
0.0002494172
0.0002372705
0.0002061314
0.0002598837
0.0002589451
0.0002578585
0.0002563426
0.0002535871
0.000247554
0.000234321
0.0002040458
0.0002605939
0.0002597238
0.0002587879
0.0002576965
0.0002561397
0.0002533432
0.0002476363
0.0002364001
0.0002121745
0.000261265
0.0002604583
0.0002596217
0.0002587394
0.0002577259
0.0002563242
0.0002539899
0.0002497604
0.0002426679
0.0002293455
0.0002619005
0.0002611592
0.0002603989
0.0002596296
0.0002588393
0.000257972
0.0002568768
0.0002553088
0.0002530183
0.0002505786
0.0001414493
0.0002625038
0.0002618314
0.0002611412
0.0002604455
0.000259753
0.0002590622
0.0002583572
0.0002575972
0.0002567855
0.0002561748
0.0001475749
0.0001433992
0.0002630771
0.0002624771
0.0002618552
0.0002612199
0.0002605788
0.0002599403
0.0002593136
0.0002587179
0.0002582028
0.0002579521
0.0001490975
0.0001480943
0.0001452967
0.000263623
0.0002630955
0.0002625402
0.0002619595
0.0002613551
0.0002607287
0.0002600848
0.0002594343
0.0002588184
0.0002583985
0.000149495
0.0001490719
0.0001484422
0.0001468758
0.0001494125
0.0001492414
0.0001490236
0.0001487003
0.0001479637
0.0001498212
0.0001496124
0.0001494202
0.0001492387
0.0001490354
6.295796e-05
0.0001502444
0.0001500227
0.000149821
0.0001496496
0.0001495073
6.327794e-05
6.304031e-05
0.0001506462
0.0001504227
0.0001502165
0.0001500365
0.000149892
6.346159e-05
6.329018e-05
6.308858e-05
0.0001510243
0.0001508047
0.0001505976
0.0001504124
0.0001502555
6.362177e-05
6.346714e-05
6.330073e-05
6.311549e-05
0.0002583865
0.0002574427
0.000256271
0.000254472
0.0002508941
0.0002383711
0.000259163
0.0002582247
0.0002570695
0.0002553109
0.0002518084
0.0002437119
0.0002194975
0.000259903
0.0002590038
0.0002579805
0.0002566188
0.0002543033
0.0002494541
0.000238772
0.0002113304
0.0002606026
0.0002597487
0.000258832
0.000257774
0.0002563019
0.0002537333
0.0002485708
0.00023832
0.0002147618
0.000261265
0.0002604583
0.0002596217
0.0002587394
0.0002577259
0.0002563242
0.0002539899
0.0002497604
0.0002426679
0.0002293455
0.0002618931
0.0002611387
0.000260367
0.000259589
0.0002587904
0.0002579063
0.0002567636
0.0002550814
0.000252585
0.0002499744
0.0001410081
0.0002624897
0.0002617933
0.0002610831
0.000260375
0.0002596798
0.0002589937
0.0002582905
0.0002575059
0.0002566194
0.0002559245
0.0001473312
0.000142647
0.0002630571
0.0002624242
0.0002617757
0.0002611254
0.0002604861
0.0002598707
0.0002592898
0.0002587588
0.0002583121
0.000258116
0.0001491383
0.000147892
0.0001444064
0.0002635972
0.0002630316
0.0002624461
0.0002618488
0.0002612482
0.0002606544
0.0002600826
0.0002595576
0.000259138
0.0002589627
0.0001497611
0.0001492426
0.0001483657
0.0001460791
0.0002641119
0.0002636143
0.0002630908
0.0002625439
0.0002619753
0.0002613874
0.0002607845
0.0002601786
0.0002596064
0.0002592136
0.0001499578
0.0001496325
0.0001492652
0.0001487206
0.0001474452
0.0001498735
0.0001497088
0.0001495258
0.0001493182
0.0001490266
6.283339e-05
0.0001502532
0.0001500487
0.0001498587
0.0001496904
0.0001495368
6.327287e-05
6.296889e-05
0.0001506487
0.0001504316
0.000150231
0.000150055
0.0001499112
6.346761e-05
6.328721e-05
6.305085e-05
0.0001510249
0.0001508076
0.0001506027
0.0001504193
0.0001502636
6.362524e-05
6.346965e-05
6.329933e-05
6.30992e-05
0.0001513801
0.0001511671
0.0001509632
0.0001507756
0.0001506106
6.377505e-05
6.362877e-05
6.347506e-05
6.331e-05
6.312581e-05
0.0002592088
0.0002583641
0.0002574037
0.0002561972
0.0002543516
0.0002508553
0.0002388493
0.0002599319
0.0002590885
0.0002581489
0.0002569808
0.0002552086
0.0002518476
0.000244654
0.0002228891
0.0002606199
0.0002597977
0.0002589174
0.0002579198
0.0002565973
0.0002544309
0.0002502502
0.0002418923
0.0002201269
0.000261273
0.0002604805
0.0002596575
0.0002587904
0.0002578045
0.0002564739
0.000254319
0.0002504711
0.0002439547
0.0002307864
0.0002618931
0.0002611387
0.000260367
0.000259589
0.0002587904
0.0002579063
0.0002567636
0.0002550814
0.000252585
0.0002499744
0.0001410081
0.0002624827
0.0002617741
0.0002610536
0.000260339
0.000259642
0.0002589569
0.000258251
0.0002574465
0.0002565101
0.0002557647
0.0001471907
0.0001422669
0.0002630439
0.0002623883
0.0002617211
0.0002610602
0.0002604214
0.0002598201
0.0002592653
0.0002587651
0.0002583384
0.0002581503
0.0001491251
0.000147701
0.0001437792
0.0002635784
0.0002629817
0.0002623711
0.0002617599
0.000261162
0.0002605929
0.000260073
0.0002596289
0.0002593109
0.0002592224
0.0001498886
0.0001492944
0.0001482111
0.0001453694
0.0002640877
0.0002635541
0.000263002
0.0002624393
0.0002618742
0.0002613172
0.0002607831
0.0002602991
0.0002599178
0.0002597594
0.0001502272
0.0001498647
0.0001494056
0.0001486541
0.0001468413
0.0002645733
0.0002641037
0.0002636097
0.000263094
0.0002625583
0.0002620049
0.0002614384
0.0002608694
0.0002603323
0.0002599546
0.0001503668
0.0001500771
0.0001497938
0.0001494773
0.000149012
6.263859e-05
0.0001503003
0.0001501371
0.0001499605
0.0001497845
0.0001495972
6.326588e-05
6.284545e-05
0.0001506566
0.0001504554
0.0001502662
0.0001500958
0.0001499499
6.347919e-05
6.328204e-05
6.297974e-05
0.0001510272
0.0001508158
0.0001506162
0.0001504368
0.0001502832
6.363348e-05
6.347565e-05
6.329635e-05
6.306156e-05
0.0001513806
0.0001511697
0.0001509679
0.000150782
0.0001506184
6.377863e-05
6.363225e-05
6.347757e-05
6.33086e-05
6.310955e-05
0.0001517147
0.000151509
0.0001513092
0.0001511217
0.0001509506
6.392265e-05
6.378118e-05
6.363564e-05
6.348308e-05
6.3319e-05
4.119387e-05
0.0002599718
0.0002591952
0.0002583493
0.0002573862
0.0002561773
0.0002543793
0.0002511826
0.0002400559
0.0002606461
0.0002598694
0.0002590389
0.0002581182
0.0002569789
0.0002553036
0.0002523559
0.0002466187
0.0002288246
0.000261289
0.0002605245
0.0002597278
0.0002588886
0.0002579509
0.0002567432
0.0002549014
0.0002517403
0.0002463411
0.0002337672
0.0002619005
0.0002611592
0.0002603989
0.0002596296
0.0002588393
0.000257972
0.0002568768
0.0002553088
0.0002530183
0.0002505786
0.0001414493
0.0002624827
0.0002617741
0.0002610536
0.000260339
0.000259642
0.0002589569
0.000258251
0.0002574465
0.0002565101
0.0002557647
0.0001471907
0.0001422669
0.0002630373
0.0002623702
0.0002616935
0.000261027
0.0002603883
0.0002597934
0.00025925
0.0002587611
0.0002583374
0.0002581473
0.0001491073
0.0001475894
0.0001434586
0.000263566
0.0002629479
0.0002623197
0.0002616985
0.000261102
0.0002605488
0.000260061
0.0002596626
0.000259394
0.0002593408
0.0001499469
0.0001492959
0.0001480629
0.0001448598
0.00026407
0.0002635071
0.0002629312
0.0002623553
0.0002617927
0.0002612593
0.0002607758
0.0002603729
0.0002600966
0.0002600302
0.0001503718
0.0001499867
0.0001494585
0.0001485349
0.0001462941
0.0002645505
0.0002640469
0.0002635259
0.0002629951
0.0002624624
0.0002619374
0.0002614348
0.0002609792
0.0002606195
0.0002604572
0.0001506184
0.0001503107
0.0001499843
0.0001495843
0.0001489504
6.241556e-05
0.0002650089
0.0002645655
0.0002640992
0.0002636125
0.0002631072
0.0002625856
0.0002620518
0.000261516
0.0002610087
0.0002606444
0.0001507435
0.0001504719
0.0001502163
0.0001499696
0.0001496956
6.325338e-05
6.265386e-05
0.0001506991
0.0001505354
0.0001503601
0.0001501878
0.0001500257
6.350064e-05
6.327473e-05
6.285746e-05
0.0001510342
0.0001508374
0.0001506485
0.0001504751
0.0001503224
6.364914e-05
6.34871e-05
6.329108e-05
6.29908e-05
0.0001513826
0.0001511773
0.0001509804
0.0001507984
0.0001506371
6.378711e-05
6.364047e-05
6.348355e-05
6.33056e-05
6.307202e-05
0.0001517152
0.0001515115
0.0001513136
0.0001511277
0.0001509579
6.392609e-05
6.378477e-05
6.363913e-05
6.348559e-05
6.33176e-05
4.118332e-05
0.0001520301
0.000151832
0.0001516374
0.0001514513
0.0001512773
6.40648e-05
6.392806e-05
6.378719e-05
6.364261e-05
6.349084e-05
4.13186e-05
4.120313e-05
0.0002606823
0.000259961
0.0002591881
0.00025835
0.000257399
0.0002562251
0.0002545669
0.0002518645
0.0002422576
0.0002613132
0.0002605893
0.0002598295
0.0002590267
0.0002581468
0.0002570838
0.0002556158
0.0002533095
0.0002494735
0.0002385967
0.0002619155
0.0002611999
0.0002604618
0.0002597089
0.0002589325
0.0002580919
0.0002570746
0.0002556998
0.0002537742
0.0002516756
0.0001423318
0.0002624897
0.0002617933
0.0002610831
0.000260375
0.0002596798
0.0002589937
0.0002582905
0.0002575059
0.0002566194
0.0002559245
0.0001473312
0.000142647
0.0002630373
0.0002623702
0.0002616935
0.000261027
0.0002603883
0.0002597934
0.00025925
0.0002587611
0.0002583374
0.0002581473
0.0001491073
0.0001475894
0.0001434586
0.0002635598
0.0002629308
0.0002622936
0.0002616673
0.0002610713
0.0002605258
0.000260053
0.0002596748
0.0002594261
0.0002593864
0.0001499689
0.0001492871
0.0001479754
0.0001445966
0.0002640583
0.0002634751
0.0002628827
0.0002622973
0.000261736
0.0002612181
0.0002607665
0.0002604113
0.0002601902
0.0002601664
0.0001504479
0.0001500464
0.0001494686
0.0001484212
0.0001458944
0.0002645338
0.0002640025
0.0002634591
0.0002629156
0.0002623849
0.0002618819
0.0002614266
0.0002610471
0.0002607874
0.0002607128
0.0001507587
0.0001504454
0.0001500939
0.0001496318
0.0001488583
6.221229e-05
0.0002649874
0.000264512
0.0002640201
0.0002635191
0.0002630162
0.0002625207
0.0002620458
0.0002616144
0.0002612696
0.0002611014
0.0001509731
0.00015069
0.0001504083
0.000150118
0.0001497703
6.322724e-05
6.243493e-05
0.0002654201
0.0002650016
0.0002645613
0.0002641018
0.0002636248
0.0002631325
0.000262629
0.0002621234
0.0002616435
0.0002612915
0.0001510982
0.0001508373
0.0001505942
0.0001503675
0.000150149
6.353183e-05
6.326162e-05
6.2669e-05
0.0001510727
0.00015091
0.000150734
0.0001505608
0.0001503984
6.367742e-05
6.350805e-05
6.328345e-05
6.28697e-05
0.000151389
0.0001511971
0.00015101
0.0001508338
0.0001506744
6.380317e-05
6.365601e-05
6.349486e-05
6.330024e-05
6.300163e-05
0.000151717
0.0001515185
0.0001513252
0.0001511429
0.0001509755
6.393424e-05
6.379325e-05
6.364734e-05
6.349155e-05
6.331459e-05
4.115901e-05
0.0001520305
0.0001518343
0.0001516414
0.000151457
0.0001512841
6.406805e-05
6.393152e-05
6.379079e-05
6.36461e-05
6.349336e-05
4.13177e-05
4.119265e-05
0.0001523276
0.0001521374
0.0001519487
0.0001517657
0.0001515907
6.420209e-05
6.406961e-05
6.393336e-05
6.379329e-05
6.364934e-05
4.142952e-05
4.132682e-05
4.12091e-05
0.0002613466
0.0002606724
0.0002599561
0.0002591938
0.0002583718
0.0002574494
0.0002563491
0.0002549145
0.0002528843
0.0002462259
0.0002619381
0.00026126
0.0002605532
0.0002598225
0.0002590619
0.0002582472
0.0002573108
0.0002561495
0.0002546557
0.0002530379
0.0001436449
0.0002625038
0.0002618314
0.0002611412
0.0002604455
0.000259753
0.0002590622
0.0002583572
0.0002575972
0.0002567855
0.0002561748
0.0001475749
0.0001433992
0.0002630439
0.0002623883
0.0002617211
0.0002610602
0.0002604214
0.0002598201
0.0002592653
0.0002587651
0.0002583384
0.0002581503
0.0001491251
0.000147701
0.0001437792
0.0002635598
0.0002629308
0.0002622936
0.0002616673
0.0002610713
0.0002605258
0.000260053
0.0002596748
0.0002594261
0.0002593864
0.0001499689
0.0001492871
0.0001479754
0.0001445966
0.0002640524
0.000263459
0.0002628581
0.0002622678
0.000261707
0.0002611966
0.0002607603
0.0002604269
0.0002602297
0.000260224
0.0001504808
0.0001500703
0.0001494661
0.0001483539
0.0001456858
0.0002645228
0.0002639724
0.0002634132
0.0002628608
0.0002623311
0.0002618424
0.0002614172
0.0002610832
0.0002608774
0.0002608453
0.0001508355
0.000150519
0.0001501512
0.0001496458
0.0001487731
6.206265e-05
0.0002649717
0.0002644701
0.0002639571
0.0002634439
0.0002629427
0.0002624672
0.000262036
0.0002616751
0.0002614229
0.0002613361
0.0001511032
0.0001508198
0.0001505278
0.0001502111
0.0001498084
6.319234e-05
6.223526e-05
0.0002653998
0.0002649511
0.0002644867
0.0002640135
0.0002635386
0.0002630703
0.0002626211
0.0002622115
0.0002618806
0.0002617069
0.0001513069
0.0001510365
0.000150774
0.0001505185
0.0001502581
6.355721e-05
6.323554e-05
6.245409e-05
0.0002658081
0.0002654132
0.0002649976
0.0002645637
0.0002641132
0.0002636484
0.0002631729
0.0002626953
0.0002622408
0.0002619019
0.000151434
0.0001511826
0.0001509461
0.000150727
0.0001505213
6.371912e-05
6.353805e-05
6.326973e-05
6.268431e-05
0.0001514241
0.0001512632
0.0001510879
0.0001509125
0.0001507461
6.383196e-05
6.36838e-05
6.351531e-05
6.32923e-05
6.288171e-05
0.0001517228
0.0001515367
0.0001513524
0.0001511756
0.0001510103
6.394962e-05
6.38092e-05
6.366275e-05
6.350272e-05
6.330913e-05
4.111351e-05
0.0001520322
0.0001518407
0.0001516522
0.0001514711
0.0001513006
6.407571e-05
6.393966e-05
6.379926e-05
6.365429e-05
6.349929e-05
4.131574e-05
4.116848e-05
0.000152328
0.0001521396
0.0001519525
0.000151771
0.0001515971
6.420514e-05
6.407287e-05
6.393683e-05
6.37969e-05
6.365283e-05
4.143116e-05
4.132594e-05
4.119865e-05
0.0001526087
0.0001524265
0.0001522442
0.0001520653
0.0001518914
6.433436e-05
6.420641e-05
6.407433e-05
6.393875e-05
6.379917e-05
4.153189e-05
4.143681e-05
4.133201e-05
4.121381e-05
0.0002619693
0.000261337
0.0002606679
0.0002599626
0.0002592165
0.0002584193
0.0002575442
0.0002565579
0.0002554351
0.0002542972
0.0001453014
0.000262525
0.0002618877
0.000261226
0.0002605473
0.0002598569
0.000259154
0.0002584319
0.0002576743
0.0002569123
0.0002563706
0.0001478415
0.0001444909
0.0002630571
0.0002624242
0.0002617757
0.0002611254
0.0002604861
0.0002598707
0.0002592898
0.0002587588
0.0002583121
0.000258116
0.0001491383
0.000147892
0.0001444064
0.000263566
0.0002629479
0.0002623197
0.0002616985
0.000261102
0.0002605488
0.000260061
0.0002596626
0.000259394
0.0002593408
0.0001499469
0.0001492959
0.0001480629
0.0001448598
0.0002640524
0.000263459
0.0002628581
0.0002622678
0.000261707
0.0002611966
0.0002607603
0.0002604269
0.0002602297
0.000260224
0.0001504808
0.0001500703
0.0001494661
0.0001483539
0.0001456858
0.0002645172
0.0002639572
0.00026339
0.0002628329
0.0002623036
0.0002618219
0.0002614111
0.0002610982
0.0002609163
0.0002609027
0.0001508697
0.0001505514
0.0001501752
0.0001496472
0.0001487229
6.198411e-05
0.0002649612
0.0002644417
0.0002639138
0.0002633921
0.0002628916
0.0002624293
0.0002620259
0.0002617073
0.0002615056
0.0002614592
0.0001511755
0.0001508931
0.0001505958
0.0001502628
0.0001498232
6.316095e-05
6.208813e-05
0.000265385
0.0002649117
0.0002644272
0.0002639426
0.0002634689
0.0002630191
0.0002626101
0.0002622656
0.0002620199
0.0002619212
0.0001514261
0.0001511567
0.000150889
0.0001506196
0.0001503325
6.357126e-05
6.320115e-05
6.225796e-05
0.000265789
0.0002653657
0.0002649273
0.0002644804
0.0002640317
0.0002635891
0.0002631639
0.0002627749
0.0002624572
0.0002622812
0.0001516242
0.0001513639
0.0001511108
0.0001508693
0.0001506342
6.375803e-05
6.356269e-05
6.324369e-05
6.247335e-05
0.000266174
0.0002658018
0.0002654096
0.0002649999
0.0002645745
0.0002641354
0.0002636862
0.0002632347
0.0002628042
0.0002624785
0.0001517532
0.0001515105
0.0001512802
0.0001510641
0.0001508615
6.387443e-05
6.372429e-05
6.354416e-05
6.327799e-05
6.269933e-05
0.000151755
0.0001515973
0.0001514238
0.0001512478
0.0001510768
6.397708e-05
6.383755e-05
6.369004e-05
6.352267e-05
6.330087e-05
4.10363e-05
0.0001520375
0.0001518576
0.0001516775
0.0001515014
0.000151333
6.409016e-05
6.395496e-05
6.38151e-05
6.366957e-05
6.351031e-05
4.131214e-05
4.11233e-05
0.0001523295
0.0001521456
0.0001519626
0.0001517842
0.0001516126
6.421233e-05
6.408054e-05
6.394496e-05
6.380535e-05
6.3661e-05
4.1435e-05
4.132402e-05
4.117458e-05
0.000152609
0.0001524285
0.0001522478
0.0001520703
0.0001518975
6.433723e-05
6.420947e-05
6.407759e-05
6.394222e-05
6.380278e-05
4.153417e-05
4.143846e-05
4.133114e-05
4.120338e-05
0.0001528743
0.0001527003
0.0001525248
0.000152351
0.0001521795
6.446171e-05
6.433825e-05
6.421063e-05
6.407911e-05
6.394392e-05
4.162875e-05
4.153841e-05
4.144129e-05
4.133604e-05
4.121649e-05
0.0001466971
0.0002625542
0.0002619598
0.0002613325
0.0002606738
0.0002599839
0.0002592599
0.0002584984
0.0002576947
0.0002568824
0.0002562505
0.0001479837
0.000145796
0.0002630771
0.0002624771
0.0002618552
0.0002612199
0.0002605788
0.0002599403
0.0002593136
0.0002587179
0.0002582028
0.0002579521
0.0001490975
0.0001480943
0.0001452967
0.0002635784
0.0002629817
0.0002623711
0.0002617599
0.000261162
0.0002605929
0.000260073
0.0002596289
0.0002593109
0.0002592224
0.0001498886
0.0001492944
0.0001482111
0.0001453694
0.0002640583
0.0002634751
0.0002628827
0.0002622973
0.000261736
0.0002612181
0.0002607665
0.0002604113
0.0002601902
0.0002601664
0.0001504479
0.0001500464
0.0001494686
0.0001484212
0.0001458944
0.0002645172
0.0002639572
0.00026339
0.0002628329
0.0002623036
0.0002618219
0.0002614111
0.0002610982
0.0002609163
0.0002609027
0.0001508697
0.0001505514
0.0001501752
0.0001496472
0.0001487229
6.198411e-05
0.000264956
0.0002644274
0.0002638918
0.0002633657
0.0002628655
0.0002624096
0.0002620196
0.0002617207
0.0002615415
0.000261513
0.0001512081
0.0001509263
0.0001506265
0.0001502854
0.000149827
6.314265e-05
6.201086e-05
0.0002653751
0.0002648849
0.0002643864
0.0002638935
0.0002634204
0.0002629827
0.0002625995
0.000262294
0.0002620951
0.0002620342
0.0001514929
0.0001512256
0.0001509564
0.0001506798
0.0001503768
6.357741e-05
6.317036e-05
6.211331e-05
0.000265775
0.0002653286
0.0002648713
0.0002644135
0.0002639658
0.0002635402
0.0002631523
0.0002628234
0.0002625843
0.0002624774
0.0001517335
0.0001514742
0.0001512176
0.0001509669
0.0001507156
6.378594e-05
6.357646e-05
6.320982e-05
6.228071e-05
0.000266156
0.0002657571
0.0002653434
0.0002649215
0.0002644976
0.0002640791
0.0002636767
0.0002633074
0.0002630032
0.000262827
0.0001519275
0.000151676
0.0001514307
0.0001511953
0.0001509693
6.39154e-05
6.376231e-05
6.356805e-05
6.3252e-05
6.249223e-05
0.0002665189
0.0002661683
0.0002657985
0.0002654119
0.0002650101
0.0002645953
0.0002641709
0.0002637441
0.0002633362
0.0002630242
0.0001520567
0.0001518231
0.0001515988
0.0001513861
0.0001511834
6.40175e-05
6.387891e-05
6.372934e-05
6.355038e-05
6.328598e-05
4.091954e-05
0.0001520672
0.0001519135
0.0001517432
0.0001515679
0.0001513947
6.411585e-05
6.398202e-05
6.3843e-05
6.369636e-05
6.352975e-05
4.13066e-05
4.104689e-05
0.0001523344
0.0001521614
0.0001519861
0.0001518125
0.0001516429
6.422586e-05
6.409491e-05
6.396017e-05
6.382108e-05
6.367614e-05
4.144208e-05
4.132042e-05
4.112966e-05
0.0001526104
0.0001524342
0.0001522573
0.0001520828
0.000151912
6.434399e-05
6.421666e-05
6.408525e-05
6.395034e-05
6.381121e-05
4.153947e-05
4.144232e-05
4.13292e-05
4.117939e-05
0.0001528746
0.0001527022
0.0001525283
0.0001523557
0.0001521853
6.446442e-05
6.434113e-05
6.421369e-05
6.408238e-05
6.394739e-05
4.16311e-05
4.15407e-05
4.144294e-05
4.133516e-05
4.120608e-05
0.0001531254
0.0001529596
0.0001527914
0.0001526232
0.0001524554
6.458408e-05
6.446525e-05
6.434205e-05
6.421492e-05
6.40837e-05
4.172239e-05
4.163463e-05
4.154231e-05
4.144469e-05
4.133821e-05
0.0001468975
0.00014767
0.0001468753
0.0002631045
0.0002625449
0.0002619552
0.0002613376
0.0002606931
0.0002600231
0.0002593289
0.0002586204
0.0002579353
0.0002574605
0.0001489085
0.000148192
0.0001463218
0.0002635972
0.0002630316
0.0002624461
0.0002618488
0.0002612482
0.0002606544
0.0002600826
0.0002595576
0.000259138
0.0002589627
0.0001497611
0.0001492426
0.0001483657
0.0001460791
0.00026407
0.0002635071
0.0002629312
0.0002623553
0.0002617927
0.0002612593
0.0002607758
0.0002603729
0.0002600966
0.0002600302
0.0001503718
0.0001499867
0.0001494585
0.0001485349
0.0001462941
0.0002645228
0.0002639724
0.0002634132
0.0002628608
0.0002623311
0.0002618424
0.0002614172
0.0002610832
0.0002608774
0.0002608453
0.0001508355
0.000150519
0.0001501512
0.0001496458
0.0001487731
6.206265e-05
0.000264956
0.0002644274
0.0002638918
0.0002633657
0.0002628655
0.0002624096
0.0002620196
0.0002617207
0.0002615415
0.000261513
0.0001512081
0.0001509263
0.0001506265
0.0001502854
0.000149827
6.314265e-05
6.201086e-05
0.0002653702
0.0002648714
0.0002643657
0.0002638686
0.0002633957
0.0002629639
0.0002625929
0.0002623058
0.0002621278
0.0002620837
0.0001515231
0.000151257
0.0001509874
0.0001507077
0.000150397
6.357932e-05
6.315242e-05
6.203729e-05
0.0002657657
0.0002653034
0.0002648328
0.0002643672
0.00026392
0.0002635055
0.0002631414
0.0002628487
0.0002626529
0.0002625811
0.000151795
0.0001515379
0.0001512809
0.0001510265
0.0001507667
6.380324e-05
6.358257e-05
6.31796e-05
6.213851e-05
0.0002661429
0.0002657221
0.0002652907
0.0002648585
0.0002644354
0.0002640328
0.000263665
0.0002633515
0.0002631199
0.0002630076
0.0001520282
0.0001517774
0.0001515289
0.0001512863
0.0001510486
6.394619e-05
6.378974e-05
6.358154e-05
6.321862e-05
6.230303e-05
0.0002665019
0.0002661263
0.0002657363
0.0002653382
0.0002649378
0.0002645424
0.0002641616
0.0002638113
0.0002635206
0.0002633464
0.0001522176
0.0001519751
0.0001517367
0.0001515066
0.0001512839
6.405702e-05
6.391901e-05
6.376647e-05
6.357354e-05
6.326002e-05
4.078721e-05
0.0002668434
0.0002665137
0.0002661653
0.0002658007
0.0002654216
0.0002650299
0.0002646288
0.0002642253
0.0002638391
0.000263541
0.0001523457
0.000152121
0.0001519036
0.0001516946
0.0001514929
6.415356e-05
6.402145e-05
6.388326e-05
6.373449e-05
6.355634e-05
4.129658e-05
4.093188e-05
0.000152362
0.0001522133
0.000152047
0.0001518741
0.0001517002
6.424985e-05
6.412027e-05
6.398684e-05
6.384852e-05
6.370242e-05
4.145443e-05
4.131477e-05
4.105395e-05
0.000152615
0.000152449
0.0001522794
0.0001521093
0.0001519404
6.435669e-05
6.423013e-05
6.409955e-05
6.396545e-05
6.382681e-05
4.154922e-05
4.144935e-05
4.132556e-05
4.113471e-05
0.0001528759
0.0001527076
0.0001525373
0.0001523675
0.000152199
6.44708e-05
6.43479e-05
6.422089e-05
6.409004e-05
6.39555e-05
4.163657e-05
4.1546e-05
4.144678e-05
4.13332e-05
4.118215e-05
0.0001531257
0.0001529614
0.0001527946
0.0001526277
0.0001524608
6.458665e-05
6.446797e-05
6.434494e-05
6.421799e-05
6.408697e-05
4.172465e-05
4.163699e-05
4.154459e-05
4.144634e-05
4.133731e-05
0.0001533628
0.0001532053
0.0001530445
0.0001528825
0.0001527192
6.470155e-05
6.458732e-05
6.44687e-05
6.434593e-05