/*--------------------------------*- C++ -*----------------------------------*\
| =========                 |                                                 |
| \\      /  F ield         | OpenFOAM: The Open Source CFD Toolbox           |
|  \\    /   O peration     | Version:  2306                                  |
|   \\  /    A nd           | Website:  www.openfoam.com                      |
|    \\/     M anipulation  |                                                 |
\*---------------------------------------------------------------------------*/
FoamFile
{
    version     2.0;
    format      ascii;
    arch        "LSB;label=32;scalar=64";
    class       volScalarField;
    location    "0.9/air";
    object      N2;
}
// * * * * * * * * * * * * * * * * * * * * * * * * * * * * * * * * * * * * * //

dimensions      [0 0 0 0 0 0 0];

internalField   nonuniform List<scalar> 
16000
(
0.7704269
0.7704174
0.7721556
0.7704725
0.7704058
0.7720525
0.7704571
0.7750649
0.7722898
0.7705835
0.7703965
0.771915
0.7704398
0.7749517
0.7721544
0.7705538
0.7779974
0.7752142
0.7726322
0.770798
0.7703915
0.7717954
0.770427
0.7747967
0.7719817
0.7705211
0.7778865
0.7750674
0.7724571
0.770743
0.7808182
0.7781456
0.7755847
0.7732472
0.7711842
0.7703915
0.7717273
0.7704204
0.7746591
0.7718354
0.7704973
0.7777344
0.7748752
0.7722355
0.77068
0.7807126
0.7780025
0.775399
0.7730359
0.771094
0.7834977
0.780959
0.7785118
0.7762385
0.7741846
0.7718386
0.8093585
0.7703965
0.7717273
0.7704204
0.7745799
0.7717535
0.7704851
0.777599
0.7747087
0.7720491
0.770633
0.7805679
0.7778147
0.7751589
0.772765
0.7709819
0.7833982
0.780823
0.7783324
0.7760185
0.7739435
0.7717167
0.7860388
0.7836309
0.7813068
0.7791543
0.7772241
0.7754864
0.7728676
0.808045
0.8110488
0.809566
0.7704058
0.7717954
0.770427
0.7745799
0.7717535
0.7704851
0.7775208
0.7746141
0.7719453
0.7706089
0.7804392
0.7776516
0.774953
0.7725348
0.7708947
0.7832618
0.7806447
0.7781002
0.775733
0.7736313
0.7715547
0.7859447
0.7835028
0.7811369
0.7789446
0.7769767
0.7752107
0.7727076
0.788455
0.7861646
0.7839599
0.7819159
0.780116
0.7785768
0.7772067
0.7744148
0.8053915
0.8098748
0.8082573
0.8118316
0.8112382
0.8099804
0.7704174
0.771915
0.7704398
0.7746591
0.7718354
0.7704973
0.7775208
0.7746141
0.7719453
0.7706089
0.780365
0.7775587
0.7748367
0.7724057
0.7708491
0.7831405
0.7804899
0.7779006
0.7754881
0.7733609
0.7714158
0.7858157
0.7833347
0.7809173
0.7786724
0.776653
0.7748515
0.7724853
0.7883657
0.7860434
0.7837998
0.7817182
0.7798839
0.7783063
0.776888
0.7741796
0.7907595
0.7885743
0.7864753
0.7845357
0.7828254
0.7814243
0.7803221
0.7794025
0.776701
0.8013004
0.8075089
0.8056208
0.8107446
0.8100678
0.8086801
0.8124968
0.8120058
0.8116163
0.8106002
0.7704269
0.7720525
0.7704571
0.7747967
0.7719817
0.7705211
0.777599
0.7747087
0.7720491
0.770633
0.780365
0.7775587
0.7748367
0.7724057
0.7708491
0.7830705
0.7804019
0.7777876
0.7753498
0.7732075
0.7713377
0.785701
0.7831889
0.7807288
0.7784384
0.7763738
0.7745429
0.7722889
0.7882434
0.7858845
0.7835931
0.7814622
0.7795802
0.7779487
0.7764708
0.7738552
0.7906746
0.7884593
0.7863239
0.7843496
0.7826077
0.7811748
0.7800234
0.779009
0.7762631
0.7929647
0.790873
0.788869
0.7870192
0.7853951
0.7840595
0.7830955
0.7824852
0.7821527
0.7801414
0.7953876
0.8038776
0.8015936
0.8085546
0.8077151
0.8060716
0.8114832
0.8109219
0.8104522
0.8093102
0.8132346
0.812659
0.8123536
0.8121822
0.811424
0.7721556
0.7704725
0.7749517
0.7721544
0.7705538
0.7777344
0.7748752
0.7722355
0.77068
0.7804392
0.7776516
0.774953
0.7725348
0.7708947
0.7830705
0.7804019
0.7777876
0.7753498
0.7732075
0.7713377
0.7856349
0.783106
0.7806223
0.778306
0.7762158
0.7743684
0.7721765
0.7881347
0.7857467
0.7834157
0.7812425
0.7793178
0.7776386
0.7761129
0.7735749
0.7905582
0.7883086
0.7861284
0.7841089
0.7823235
0.7808446
0.7796254
0.7785013
0.7757333
0.7928836
0.7907635
0.7887254
0.7868431
0.7851903
0.7838262
0.7828233
0.7821266
0.7815778
0.779098
0.7950809
0.7930731
0.7911534
0.7893851
0.7878311
0.7865606
0.7856321
0.7851451
0.7851157
0.7856266
0.7857528
0.7986727
0.7959928
0.8051957
0.8041363
0.8021396
0.8094414
0.8087437
0.8081213
0.8067332
0.8122823
0.8116481
0.8112751
0.8110255
0.8101444
0.8140972
0.8133868
0.8129828
0.8128743
0.8129347
0.8126101
0.7750649
0.7722898
0.7705835
0.7778865
0.7750674
0.7724571
0.770743
0.7805679
0.7778147
0.7751589
0.772765
0.7709819
0.7831405
0.7804899
0.7779006
0.7754881
0.7733609
0.7714158
0.7856349
0.783106
0.7806223
0.778306
0.7762158
0.7743684
0.7721765
0.788072
0.7856683
0.7833154
0.7811183
0.7791689
0.7774626
0.775911
0.7734168
0.7904547
0.788178
0.7859608
0.7839023
0.7820784
0.7805576
0.77928
0.7780726
0.7753139
0.7927725
0.7906201
0.78854
0.7866154
0.7849232
0.7835184
0.7824598
0.7816565
0.780897
0.7781634
0.7950032
0.7929685
0.7910166
0.7892179
0.7876372
0.7863412
0.7853778
0.7848188
0.7845929
0.7845303
0.7827668
0.7971162
0.7951846
0.7933408
0.7916445
0.7901558
0.7889326
0.788045
0.7875574
0.7876145
0.7883588
0.7903255
0.7885576
0.8003858
0.7991921
0.7968947
0.8063109
0.8054323
0.8046196
0.8028961
0.8103644
0.8096171
0.8091162
0.8087184
0.8075956
0.813198
0.8124371
0.8119767
0.811802
0.8117851
0.8113411
0.8150442
0.814241
0.8136908
0.8134675
0.8135669
0.8140186
0.8128545
0.7779974
0.7752142
0.7726322
0.770798
0.7807126
0.7780025
0.775399
0.7730359
0.771094
0.7832618
0.7806447
0.7781002
0.775733
0.7736313
0.7715547
0.785701
0.7831889
0.7807288
0.7784384
0.7763738
0.7745429
0.7722889
0.788072
0.7856683
0.7833154
0.7811183
0.7791689
0.7774626
0.775911
0.7734168
0.790395
0.7881037
0.7858661
0.7837856
0.7819396
0.7803942
0.7790842
0.7778334
0.7750886
0.7926737
0.7904957
0.788381
0.7864202
0.784693
0.7832513
0.7821433
0.7812555
0.7803535
0.7775255
0.7948968
0.7928316
0.79084
0.7890018
0.7873844
0.7860519
0.7850392
0.7843898
0.7839687
0.7835105
0.7811827
0.7970416
0.7950844
0.7932101
0.7914852
0.7899715
0.7887246
0.7878056
0.787252
0.7871342
0.7873512
0.78758
0.7850475
0.7990778
0.7972157
0.7954408
0.7938098
0.7923781
0.7912018
0.7903363
0.7898616
0.7898749
0.7906388
0.792684
0.7926896
0.7907391
0.8018306
0.8008615
0.7999711
0.7979439
0.8074243
0.8065305
0.8058745
0.8052923
0.8038313
0.8113872
0.8105292
0.8099632
0.8096638
0.8094983
0.8088162
0.814191
0.8133442
0.8127455
0.812467
0.8125003
0.8128756
0.8115877
0.8160571
0.8151807
0.8145282
0.814146
0.8141124
0.8145645
0.814242
0.813101
0.7808182
0.7781456
0.7755847
0.7732472
0.7711842
0.7833982
0.780823
0.7783324
0.7760185
0.7739435
0.7717167
0.7858157
0.7833347
0.7809173
0.7786724
0.776653
0.7748515
0.7724853
0.7881347
0.7857467
0.7834157
0.7812425
0.7793178
0.7776386
0.7761129
0.7735749
0.790395
0.7881037
0.7858661
0.7837856
0.7819396
0.7803942
0.7790842
0.7778334
0.7750886
0.7926167
0.790425
0.7882911
0.78631
0.7845626
0.7830997
0.7819633
0.7810308
0.7800596
0.7772066
0.7948021
0.7927128
0.7906886
0.7888166
0.7871667
0.785801
0.7847451
0.7840228
0.7834674
0.7827872
0.780265
0.7969395
0.7949533
0.7930414
0.7912792
0.7897314
0.7884505
0.787487
0.7868515
0.78656
0.7864123
0.7860282
0.7831277
0.7990061
0.7971195
0.7953156
0.7936575
0.7922023
0.7910039
0.7901089
0.7895737
0.7894242
0.7897037
0.7901474
0.7894985
0.7870682
0.8009719
0.7991735
0.7974615
0.7958899
0.7945106
0.7933743
0.7925356
0.7920555
0.7920478
0.7927126
0.7946609
0.7948566
0.794539
0.7925244
0.8032175
0.8022719
0.8015741
0.8008842
0.7990685
0.8086113
0.80763
0.8069408
0.8064898
0.8061277
0.805097
0.8124728
0.8115427
0.8108538
0.8104722
0.8103792
0.8106039
0.8090675
0.8152447
0.8143298
0.8136355
0.8132057
0.8131168
0.813503
0.8131003
0.8118363
0.8171102
0.8161871
0.8154533
0.8149582
0.8147516
0.8150414
0.8147701
0.8144672
0.8133496
0.7834977
0.780959
0.7785118
0.7762385
0.7741846
0.7718386
0.7859447
0.7835028
0.7811369
0.7789446
0.7769767
0.7752107
0.7727076
0.7882434
0.7858845
0.7835931
0.7814622
0.7795802
0.7779487
0.7764708
0.7738552
0.7904547
0.788178
0.7859608
0.7839023
0.7820784
0.7805576
0.77928
0.7780726
0.7753139
0.7926167
0.790425
0.7882911
0.78631
0.7845626
0.7830997
0.7819633
0.7810308
0.7800596
0.7772066
0.7947476
0.7926453
0.7906031
0.7887119
0.7870435
0.7856586
0.7845782
0.7838168
0.7831955
0.7824173
0.7798352
0.7968486
0.7948395
0.7928968
0.7911027
0.7895246
0.788213
0.7872104
0.7865098
0.7860985
0.7857448
0.7850865
0.7820446
0.7989078
0.7969936
0.795154
0.7934606
0.7919732
0.7907431
0.7898066
0.7891961
0.7888864
0.7888331
0.7887117
0.7876689
0.7849303
0.8009028
0.799081
0.7973413
0.7957439
0.7943424
0.7931852
0.7923189
0.7917817
0.7916221
0.7918341
0.7922988
0.7919049
0.791207
0.7888383
0.8028037
0.801064
0.7994099
0.7978926
0.7965611
0.7954627
0.7946453
0.7941701
0.7941264
0.7947249
0.7964865
0.7966798
0.7965521
0.7960635
0.7940318
0.8046401
0.8036309
0.8029328
0.802408
0.8018707
0.8004198
0.8098391
0.8088054
0.8080145
0.8075118
0.8072539
0.807263
0.8053572
0.8136085
0.8126203
0.8118491
0.8113312
0.8111372
0.8113937
0.8108316
0.8093208
0.816334
0.8153768
0.8146061
0.8140701
0.8138157
0.81405
0.8137096
0.8133269
0.812087
0.818191
0.8172344
0.8164468
0.8158614
0.8155304
0.8156241
0.8152328
0.8149774
0.8146944
0.8136003
0.7860388
0.7836309
0.7813068
0.7791543
0.7772241
0.7754864
0.7728676
0.7883657
0.7860434
0.7837998
0.7817182
0.7798839
0.7783063
0.776888
0.7741796
0.7905582
0.7883086
0.7861284
0.7841089
0.7823235
0.7808446
0.7796254
0.7785013
0.7757333
0.7926737
0.7904957
0.788381
0.7864202
0.784693
0.7832513
0.7821433
0.7812555
0.7803535
0.7775255
0.7947476
0.7926453
0.7906031
0.7887119
0.7870435
0.7856586
0.7845782
0.7838168
0.7831955
0.7824173
0.7798352
0.7967963
0.7947749
0.7928151
0.7910031
0.7894075
0.7880782
0.7870534
0.7863183
0.785848
0.785403
0.7846329
0.7815469
0.7988205
0.7968845
0.7950155
0.793292
0.791776
0.7905172
0.7895444
0.788874
0.788455
0.7882145
0.7878391
0.7865946
0.7837211
0.8008081
0.7989599
0.7971862
0.7955552
0.7941233
0.7929362
0.792031
0.7914229
0.7911142
0.7910169
0.7909626
0.7902096
0.789194
0.7865763
0.802737
0.8009749
0.7992942
0.7977523
0.7963997
0.7952816
0.7944381
0.7939089
0.7937216
0.7938948
0.7942673
0.7939295
0.7934664
0.7927111
0.7903753
0.8045779
0.8028927
0.8012918
0.7998244
0.7985369
0.7974732
0.796678
0.796204
0.79614
0.7966646
0.798286
0.79838
0.7982538
0.7979457
0.7973616
0.7955174
0.8060714
0.8050298
0.8042499
0.803706
0.8033081
0.8030656
0.8006963
0.8111007
0.8100231
0.809168
0.8085496
0.808221
0.8082922
0.8074964
0.805619
0.814771
0.813749
0.8129109
0.8122997
0.811955
0.8120803
0.8116025
0.8110611
0.8095761
0.8174476
0.8164602
0.81564
0.8150185
0.8146463
0.8146918
0.8142423
0.8139179
0.8135554
0.8123398
0.8192875
0.81831
0.8174825
0.8168355
0.8164044
0.8163546
0.8158038
0.8154259
0.8151865
0.8149235
0.8139062
0.788455
0.7861646
0.7839599
0.7819159
0.780116
0.7785768
0.7772067
0.7744148
0.7906746
0.7884593
0.7863239
0.7843496
0.7826077
0.7811748
0.7800234
0.779009
0.7762631
0.7927725
0.7906201
0.78854
0.7866154
0.7849232
0.7835184
0.7824598
0.7816565
0.780897
0.7781634
0.7948021
0.7927128
0.7906886
0.7888166
0.7871667
0.785801
0.7847451
0.7840228
0.7834674
0.7827872
0.780265
0.7967963
0.7947749
0.7928151
0.7910031
0.7894075
0.7880782
0.7870534
0.7863183
0.785848
0.785403
0.7846329
0.7815469
0.7987701
0.7968224
0.7949372
0.7931967
0.7916645
0.7903891
0.7893957
0.7886934
0.7882212
0.7878976
0.7874183
0.7860881
0.7831694
0.8007239
0.7988549
0.7970532
0.7953935
0.7939347
0.7927205
0.7917811
0.7911171
0.7907068
0.7904369
0.7901509
0.7892126
0.7880162
0.7852836
0.8026456
0.8008582
0.799145
0.7975711
0.7961895
0.7950432
0.7941627
0.7935668
0.7932388
0.7931225
0.7930119
0.7923499
0.7915988
0.7905901
0.78806
0.8045134
0.8028066
0.8011803
0.7996894
0.7983818
0.7972993
0.7964793
0.7959539
0.7957539
0.7958759
0.7961897
0.7957958
0.7953771
0.7948373
0.7940238
0.7918985
0.8062986
0.8046639
0.8031125
0.8016913
0.8004443
0.7994129
0.798638
0.7981691
0.798084
0.7985558
0.8000426
0.8000725
0.7998553
0.799546
0.7991285
0.7986533
0.7958189
0.8075131
0.8064408
0.8056134
0.8049741
0.80454
0.8043966
0.8033101
0.8009732
0.8123753
0.8112757
0.8103669
0.8096728
0.8092142
0.8091847
0.8085057
0.8077313
0.8058823
0.8159506
0.8149051
0.8140257
0.8133384
0.8128886
0.8128397
0.8122744
0.8118131
0.8112924
0.8098333
0.8185739
0.8175685
0.8167117
0.8160328
0.8155653
0.8154738
0.8148723
0.8144362
0.814128
0.8137857
0.8126482
0.8203927
0.8194017
0.8185476
0.8178539
0.8173529
0.8171868
0.8165245
0.8159851
0.8156206
0.8153973
0.815203
0.8142191
0.7907595
0.7885743
0.7864753
0.7845357
0.7828254
0.7814243
0.7803221
0.7794025
0.776701
0.7928836
0.7907635
0.7887254
0.7868431
0.7851903
0.7838262
0.7828233
0.7821266
0.7815778
0.779098
0.7948968
0.7928316
0.79084
0.7890018
0.7873844
0.7860519
0.7850392
0.7843898
0.7839687
0.7835105
0.7811827
0.7968486
0.7948395
0.7928968
0.7911027
0.7895246
0.788213
0.7872104
0.7865098
0.7860985
0.7857448
0.7850865
0.7820446
0.7987701
0.7968224
0.7949372
0.7931967
0.7916645
0.7903891
0.7893957
0.7886934
0.7882212
0.7878976
0.7874183
0.7860881
0.7831694
0.8006754
0.7987952
0.7969781
0.7953023
0.793828
0.7925982
0.7916395
0.7909458
0.790486
0.7901401
0.7897595
0.7887419
0.7874662
0.7846946
0.8025644
0.8007571
0.7990171
0.7974158
0.7960086
0.7948367
0.7939239
0.7932752
0.7928518
0.7925743
0.7922497
0.7914212
0.7905041
0.7893413
0.7867256
0.8044251
0.802694
0.8010365
0.799515
0.7981798
0.7970704
0.7962154
0.7956265
0.7952934
0.795142
0.7950033
0.7943114
0.7936356
0.7928668
0.791851
0.7895864
0.8062362
0.8045807
0.8030048
0.8015611
0.8002949
0.7992456
0.7984471
0.7979292
0.7977144
0.797804
0.7980523
0.7976313
0.7971521
0.7966467
0.7960296
0.7953313
0.7922076
0.8079694
0.8063818
0.8048763
0.803498
0.8022887
0.8012871
0.8005318
0.8000679
0.7999684
0.8003908
0.801772
0.8017369
0.8014639
0.8010659
0.8006415
0.8003007
0.7989154
0.7961184
0.8089482
0.8078645
0.806994
0.8062961
0.8057551
0.8055483
0.8046193
0.803555
0.8012505
0.8136561
0.8125424
0.8116029
0.8108454
0.8102997
0.8101173
0.8093828
0.8087205
0.8079676
0.8061473
0.8171368
0.8160791
0.8151694
0.8144327
0.813897
0.8137238
0.8130218
0.8124702
0.8120253
0.8115254
0.810147
0.8197063
0.81869
0.8178094
0.8170869
0.8165536
0.8163505
0.8156442
0.8150543
0.8146316
0.8143397
0.8140668
0.8129636
0.821501
0.8205025
0.8196299
0.8189034
0.8183482
0.8180981
0.817348
0.8166958
0.816168
0.8158169
0.8156546
0.8154888
0.8144568
0.7929647
0.790873
0.788869
0.7870192
0.7853951
0.7840595
0.7830955
0.7824852
0.7821527
0.7801414
0.7950032
0.7929685
0.7910166
0.7892179
0.7876372
0.7863412
0.7853778
0.7848188
0.7845929
0.7845303
0.7827668
0.7969395
0.7949533
0.7930414
0.7912792
0.7897314
0.7884505
0.787487
0.7868515
0.78656
0.7864123
0.7860282
0.7831277
0.7988205
0.7968845
0.7950155
0.793292
0.791776
0.7905172
0.7895444
0.788874
0.788455
0.7882145
0.7878391
0.7865946
0.7837211
0.8006754
0.7987952
0.7969781
0.7953023
0.793828
0.7925982
0.7916395
0.7909458
0.790486
0.7901401
0.7897595
0.7887419
0.7874662
0.7846946
0.8025176
0.8006995
0.7989448
0.7973282
0.7959063
0.7947196
0.7937886
0.7931118
0.7926422
0.7922938
0.7918824
0.7909828
0.7899923
0.7887599
0.7861172
0.8043466
0.8025963
0.8009132
0.7993656
0.798006
0.7968722
0.7959865
0.7953476
0.7949242
0.7946213
0.7942829
0.7934388
0.7926149
0.7917045
0.7905633
0.7882505
0.8061507
0.8044718
0.802866
0.801393
0.8001004
0.7990254
0.7981935
0.7976152
0.7972737
0.7971041
0.7969254
0.7962284
0.7955151
0.794808
0.7940079
0.793149
0.7898966
0.8079088
0.8063013
0.8047723
0.8033723
0.8021446
0.801126
0.800348
0.7998372
0.7996139
0.7996718
0.7998756
0.7994192
0.79891
0.7983407
0.7977493
0.7972112
0.7955966
0.7925146
0.8095935
0.8080499
0.8065874
0.805249
0.8040747
0.8031012
0.8023642
0.801906
0.8017941
0.8021773
0.8034632
0.8033849
0.8030561
0.8026052
0.8020914
0.8017255
0.8005386
0.799176
0.7964159
0.8103737
0.8092836
0.8083909
0.807641
0.8070324
0.8066989
0.8057547
0.8048424
0.8038004
0.8015282
0.8149342
0.8138161
0.8128548
0.8120584
0.8114398
0.8111517
0.810303
0.8095821
0.8089366
0.8082054
0.8064699
0.818324
0.8172601
0.8163321
0.8155581
0.8149646
0.8146892
0.8138957
0.8132054
0.8126674
0.8122391
0.8118097
0.8104679
0.8208395
0.8198179
0.8189212
0.8181688
0.8175845
0.8173015
0.8165123
0.8158161
0.8152378
0.8148287
0.8145982
0.8143541
0.8132033
0.8226086
0.8216068
0.820722
0.8199715
0.819377
0.8190603
0.8182517
0.8175106
0.8168685
0.8163523
0.8160565
0.8159175
0.8157057
0.8146179
0.7950809
0.7930731
0.7911534
0.7893851
0.7878311
0.7865606
0.7856321
0.7851451
0.7851157
0.7856266
0.7857528
0.7970416
0.7950844
0.7932101
0.7914852
0.7899715
0.7887246
0.7878056
0.787252
0.7871342
0.7873512
0.78758
0.7850475
0.7989078
0.7969936
0.795154
0.7934606
0.7919732
0.7907431
0.7898066
0.7891961
0.7888864
0.7888331
0.7887117
0.7876689
0.7849303
0.8007239
0.7988549
0.7970532
0.7953935
0.7939347
0.7927205
0.7917811
0.7911171
0.7907068
0.7904369
0.7901509
0.7892126
0.7880162
0.7852836
0.8025176
0.8006995
0.7989448
0.7973282
0.7959063
0.7947196
0.7937886
0.7931118
0.7926422
0.7922938
0.7918824
0.7909828
0.7899923
0.7887599
0.7861172
0.8043014
0.8025408
0.8008436
0.7992813
0.7979076
0.7967598
0.7958568
0.7951914
0.7947242
0.7943548
0.7939356
0.7930271
0.7921376
0.7911626
0.789964
0.7876412
0.8060747
0.8043775
0.802747
0.8012489
0.799933
0.7988348
0.7979737
0.7973477
0.7969205
0.7966075
0.7962411
0.7954036
0.7945557
0.7937233
0.7928073
0.7918521
0.7885607
0.807826
0.8061959
0.804638
0.8032099
0.8019569
0.8009138
0.8001039
0.7995354
0.7991912
0.7990024
0.7988015
0.7980869
0.7973629
0.7966121
0.7958618
0.7951767
0.7934128
0.7902053
0.8095347
0.8079719
0.8064866
0.8051274
0.8039354
0.8029456
0.802187
0.8016838
0.8014534
0.801488
0.8016505
0.8011768
0.8006315
0.8000304
0.7993723
0.7988401
0.7974509
0.7958602
0.7928196
0.8111739
0.8096716
0.8082492
0.8069481
0.8058065
0.8048591
0.8041397
0.8036873
0.8035657
0.8039142
0.8051199
0.8050037
0.8046405
0.804138
0.8035717
0.8031052
0.8019454
0.800775
0.799435
0.7967116
0.8117832
0.8106949
0.8097861
0.8090065
0.8083388
0.8079222
0.8068921
0.8059613
0.8050659
0.8040463
0.8018648
0.8162053
0.8150877
0.8141152
0.8132897
0.8126241
0.8122476
0.8113268
0.8104898
0.8097827
0.8091541
0.8084949
0.8067999
0.8195076
0.8184425
0.817503
0.8167044
0.8160662
0.8157188
0.8148523
0.814069
0.8133905
0.8128662
0.8124999
0.8121003
0.8107118
0.8219703
0.8209471
0.8200403
0.8192662
0.8186454
0.818299
0.8174555
0.8166754
0.8159895
0.8154228
0.8150693
0.8148622
0.8145722
0.8133658
0.8237128
0.8227108
0.8218183
0.8210506
0.8204262
0.8200591
0.819207
0.8184065
0.8176745
0.8170427
0.8165773
0.8163012
0.816117
0.8158526
0.8147002
0.7953876
0.7971162
0.7951846
0.7933408
0.7916445
0.7901558
0.7889326
0.788045
0.7875574
0.7876145
0.7883588
0.7903255
0.7885576
0.7990061
0.7971195
0.7953156
0.7936575
0.7922023
0.7910039
0.7901089
0.7895737
0.7894242
0.7897037
0.7901474
0.7894985
0.7870682
0.8008081
0.7989599
0.7971862
0.7955552
0.7941233
0.7929362
0.792031
0.7914229
0.7911142
0.7910169
0.7909626
0.7902096
0.789194
0.7865763
0.8025644
0.8007571
0.7990171
0.7974158
0.7960086
0.7948367
0.7939239
0.7932752
0.7928518
0.7925743
0.7922497
0.7914212
0.7905041
0.7893413
0.7867256
0.8043014
0.8025408
0.8008436
0.7992813
0.7979076
0.7967598
0.7958568
0.7951914
0.7947242
0.7943548
0.7939356
0.7930271
0.7921376
0.7911626
0.789964
0.7876412
0.8060309
0.8043238
0.8026797
0.8011676
0.7998384
0.7987267
0.7978491
0.7971979
0.7967291
0.7963533
0.7959112
0.7950144
0.7941072
0.7932176
0.7922478
0.7912484
0.7879514
0.8077524
0.8061045
0.804523
0.8030708
0.8017955
0.8007302
0.7998923
0.7992783
0.7988524
0.7985273
0.7981491
0.7973035
0.7964561
0.7955922
0.7947406
0.7939649
0.7921143
0.7888699
0.8094544
0.8078697
0.8063566
0.8049704
0.8037542
0.8027408
0.8019516
0.8013932
0.801047
0.8008461
0.8006235
0.799907
0.7991623
0.7983966
0.7975973
0.7969392
0.7954141
0.7936753
0.7905125
0.8111169
0.8095959
0.8081515
0.8068303
0.8056718
0.8047087
0.8039685
0.803473
0.8032375
0.8032519
0.8033829
0.8028932
0.8023305
0.8016934
0.8010024
0.8003917
0.7990614
0.797689
0.7961222
0.7931227
0.8127134
0.8112498
0.809865
0.8085988
0.8074878
0.806565
0.8058621
0.8054159
0.805286
0.8056046
0.806739
0.8065952
0.8062028
0.80567
0.8050539
0.8045268
0.8033109
0.802164
0.8010099
0.7996925
0.7970672
0.8131743
0.8120913
0.8111759
0.8103738
0.8096705
0.8091819
0.8081042
0.8070855
0.8061683
0.8052898
0.8043443
0.8022092
0.817466
0.8163529
0.8153747
0.8145315
0.8138299
0.8133929
0.8124136
0.8115031
0.8106778
0.8099845
0.8094188
0.808791
0.8070508
0.8206848
0.8196218
0.8186761
0.8178603
0.8171909
0.8167866
0.8158741
0.8150167
0.8142437
0.8135769
0.8131086
0.8127664
0.812321
0.8108772
0.8230958
0.8220741
0.8211614
0.8203722
0.8197237
0.8193297
0.8184462
0.8176109
0.8168399
0.8161642
0.8156486
0.8153149
0.8150626
0.81472
0.8134488
0.8248115
0.8238116
0.8229149
0.822135
0.821488
0.8210811
0.8201997
0.819355
0.8185627
0.8178398
0.8172553
0.8168071
0.8164868
0.816252
0.8159275
0.8013004
0.7986727
0.7959928
0.7990778
0.7972157
0.7954408
0.7938098
0.7923781
0.7912018
0.7903363
0.7898616
0.7898749
0.7906388
0.792684
0.7926896
0.7907391
0.8009028
0.799081
0.7973413
0.7957439
0.7943424
0.7931852
0.7923189
0.7917817
0.7916221
0.7918341
0.7922988
0.7919049
0.791207
0.7888383
0.8026456
0.8008582
0.799145
0.7975711
0.7961895
0.7950432
0.7941627
0.7935668
0.7932388
0.7931225
0.7930119
0.7923499
0.7915988
0.7905901
0.78806
0.8043466
0.8025963
0.8009132
0.7993656
0.798006
0.7968722
0.7959865
0.7953476
0.7949242
0.7946213
0.7942829
0.7934388
0.7926149
0.7917045
0.7905633
0.7882505
0.8060309
0.8043238
0.8026797
0.8011676
0.7998384
0.7987267
0.7978491
0.7971979
0.7967291
0.7963533
0.7959112
0.7950144
0.7941072
0.7932176
0.7922478
0.7912484
0.7879514
0.8077099
0.8060526
0.804458
0.8029923
0.8017042
0.800626
0.7997725
0.7991343
0.7986689
0.7982842
0.7978346
0.7969337
0.7960321
0.7951168
0.794218
0.7933999
0.7915098
0.7882608
0.8093829
0.8077812
0.8062453
0.8048359
0.8035983
0.8025636
0.8017476
0.8011456
0.8007213
0.8003905
0.7999995
0.7991601
0.7983009
0.7974325
0.7965429
0.7958066
0.7942004
0.7923756
0.7891779
0.8110388
0.8094968
0.8080255
0.8066783
0.8054964
0.8045108
0.8037412
0.8031926
0.8028461
0.8026351
0.8023984
0.8016792
0.8009303
0.8001419
0.7993246
0.7986035
0.797158
0.7956504
0.7939365
0.7908182
0.8126579
0.8111763
0.8097702
0.8084846
0.8073573
0.8064194
0.8056966
0.8052089
0.8049694
0.8049671
0.8050708
0.8045729
0.8039949
0.8033409
0.8026144
0.8019624
0.8005985
0.7992812
0.7979256
0.7963824
0.7934871
0.8142144
0.8127872
0.8114376
0.8102041
0.8091219
0.8082222
0.807535
0.807095
0.8069583
0.8072505
0.8083219
0.8081552
0.8077433
0.8071857
0.8065414
0.8059586
0.8047206
0.8035153
0.8023811
0.8012433
0.8000022
0.797431
0.8145454
0.8134706
0.8125528
0.8117384
0.8110076
0.8104726
0.8093544
0.8082866
0.8072793
0.8063757
0.8055612
0.8046491
0.8024711
0.8187144
0.8176082
0.8166289
0.8157742
0.8150488
0.814564
0.813551
0.8125807
0.8116804
0.8108669
0.8102303
0.8096894
0.8090158
0.807221
0.8218533
0.820795
0.8198469
0.8190197
0.8183273
0.8178808
0.8169349
0.8160307
0.8151824
0.8144197
0.8138044
0.8133563
0.8129686
0.8124704
0.8109616
0.8242144
0.8231961
0.8222809
0.8214812
0.8208123
0.8203807
0.8194707
0.8185946
0.8177675
0.8170057
0.8163775
0.8158792
0.8155012
0.8151982
0.8147953
0.8259033
0.8249071
0.8240089
0.8232206
0.8225565
0.822118
0.821216
0.8203414
0.8195042
0.8187202
0.8180416
0.8174723
0.8169813
0.8166124
0.8163207
0.8053915
0.8038776
0.8015936
0.8003858
0.7991921
0.7968947
0.8009719
0.7991735
0.7974615
0.7958899
0.7945106
0.7933743
0.7925356
0.7920555
0.7920478
0.7927126
0.7946609
0.7948566
0.794539
0.7925244
0.802737
0.8009749
0.7992942
0.7977523
0.7963997
0.7952816
0.7944381
0.7939089
0.7937216
0.7938948
0.7942673
0.7939295
0.7934664
0.7927111
0.7903753
0.8044251
0.802694
0.8010365
0.799515
0.7981798
0.7970704
0.7962154
0.7956265
0.7952934
0.795142
0.7950033
0.7943114
0.7936356
0.7928668
0.791851
0.7895864
0.8060747
0.8043775
0.802747
0.8012489
0.799933
0.7988348
0.7979737
0.7973477
0.7969205
0.7966075
0.7962411
0.7954036
0.7945557
0.7937233
0.7928073
0.7918521
0.7885607
0.8077099
0.8060526
0.804458
0.8029923
0.8017042
0.800626
0.7997725
0.7991343
0.7986689
0.7982842
0.7978346
0.7969337
0.7960321
0.7951168
0.794218
0.7933999
0.7915098
0.7882608
0.8093417
0.8077309
0.8061824
0.80476
0.8035101
0.8024631
0.8016321
0.801007
0.8005449
0.8001574
0.7996988
0.7988076
0.7978982
0.796983
0.7960514
0.7952784
0.7936344
0.7917704
0.7885693
0.8109694
0.8094109
0.8079176
0.8065481
0.8053456
0.8043396
0.8035443
0.8029539
0.8025325
0.8021973
0.8018003
0.8009651
0.8001092
0.7992262
0.7983278
0.797538
0.7960234
0.7944349
0.7926358
0.7894849
0.812582
0.81108
0.8096479
0.8083372
0.8071874
0.8062279
0.8054768
0.804938
0.8045919
0.8043732
0.8041251
0.8034093
0.8026563
0.8018623
0.801021
0.8002719
0.7988079
0.7973758
0.7958854
0.7941963
0.7911865
0.8141604
0.8127157
0.8113455
0.8100933
0.8089953
0.8080811
0.8073747
0.8068947
0.8066525
0.8066358
0.8067166
0.8062131
0.8056278
0.8049596
0.804217
0.8035235
0.8021571
0.8008039
0.7994995
0.7981605
0.7966954
0.7938599
0.8156791
0.8142862
0.8129698
0.8117671
0.8107117
0.8098338
0.8091616
0.8087277
0.8085854
0.8088543
0.8098691
0.8096841
0.8092572
0.8086843
0.8080175
0.8074019
0.8061422
0.8049132
0.8037183
0.8025969
0.8015241
0.8003189
0.7977076
0.8158955
0.8148307
0.8139143
0.8130926
0.8123451
0.8117733
0.8106367
0.8095272
0.8084693
0.8074734
0.8066271
0.8058386
0.8048806
0.8026487
0.8199488
0.8188516
0.8178741
0.817013
0.8162706
0.8157515
0.8147149
0.81371
0.8127488
0.8118588
0.8110972
0.8104813
0.8098948
0.8091682
0.8073079
0.8230118
0.8219598
0.8210122
0.8201779
0.8194689
0.8189895
0.8180229
0.8170845
0.8161884
0.8153494
0.8146344
0.8140366
0.8135441
0.8131055
0.8125466
0.8253246
0.8243115
0.823396
0.8225896
0.8219053
0.8214442
0.820516
0.8196129
0.8187443
0.8179255
0.8172081
0.8165952
0.816054
0.8156273
0.8152672
0.8269871
0.8259959
0.8250981
0.8243043
0.8236274
0.8231635
0.8222477
0.8213521
0.8204843
0.8196547
0.8189124
0.8182475
0.8176367
0.817099
0.8166762
0.808045
0.8075089
0.8056208
0.8051957
0.8041363
0.8021396
0.8018306
0.8008615
0.7999711
0.7979439
0.8028037
0.801064
0.7994099
0.7978926
0.7965611
0.7954627
0.7946453
0.7941701
0.7941264
0.7947249
0.7964865
0.7966798
0.7965521
0.7960635
0.7940318
0.8045134
0.8028066
0.8011803
0.7996894
0.7983818
0.7972993
0.7964793
0.7959539
0.7957539
0.7958759
0.7961897
0.7957958
0.7953771
0.7948373
0.7940238
0.7918985
0.8061507
0.8044718
0.802866
0.801393
0.8001004
0.7990254
0.7981935
0.7976152
0.7972737
0.7971041
0.7969254
0.7962284
0.7955151
0.794808
0.7940079
0.793149
0.7898966
0.8077524
0.8061045
0.804523
0.8030708
0.8017955
0.8007302
0.7998923
0.7992783
0.7988524
0.7985273
0.7981491
0.7973035
0.7964561
0.7955922
0.7947406
0.7939649
0.7921143
0.7888699
0.8093417
0.8077309
0.8061824
0.80476
0.8035101
0.8024631
0.8016321
0.801007
0.8005449
0.8001574
0.7996988
0.7988076
0.7978982
0.796983
0.7960514
0.7952784
0.7936344
0.7917704
0.7885693
0.8109294
0.809362
0.8078566
0.8064746
0.8052603
0.8042424
0.8034327
0.8028202
0.8023627
0.8019733
0.8015119
0.800628
0.7997253
0.7987992
0.7978631
0.7970411
0.7954942
0.793868
0.7920302
0.7888768
0.8125145
0.8109966
0.8095432
0.8082109
0.8070413
0.8060621
0.8052863
0.8047073
0.8042894
0.8039517
0.8035504
0.8027248
0.8018713
0.8009895
0.8000742
0.7992645
0.7977404
0.7962394
0.7946684
0.7928951
0.7898552
0.8140865
0.812622
0.8112267
0.8099502
0.8088306
0.8078954
0.8071619
0.8066326
0.8062878
0.806063
0.8058063
0.8050954
0.8043449
0.8035461
0.8026985
0.801918
0.8004644
0.7990113
0.7975923
0.7961192
0.7945093
0.7915633
0.8156265
0.8142166
0.8128802
0.8116594
0.8105888
0.8096969
0.8090061
0.8085336
0.8082895
0.8082605
0.8083216
0.8078152
0.8072255
0.8065513
0.8057959
0.8050817
0.8037079
0.8023505
0.8010078
0.7997163
0.7984429
0.7970155
0.7941434
0.8171098
0.8157491
0.8144639
0.8132901
0.8122602
0.8114027
0.8107446
0.8103168
0.8101698
0.8104178
0.8113817
0.8111816
0.8107438
0.8101602
0.8094806
0.8088388
0.8075766
0.8063246
0.8051045
0.8039201
0.8028564
0.801811
0.8005594
0.7978953
0.8172242
0.8161708
0.8152582
0.8144334
0.8136747
0.8130779
0.8119299
0.8108011
0.8097003
0.8086522
0.8077087
0.8068839
0.8060492
0.8050375
0.8027395
0.8211686
0.8200814
0.8191081
0.8182441
0.8174903
0.8169449
0.815896
0.8148667
0.81387
0.812918
0.812076
0.8113324
0.8106718
0.8100339
0.8092458
0.8241593
0.8231149
0.8221697
0.8213317
0.8206107
0.8201057
0.8191258
0.8181661
0.8172351
0.8163474
0.815553
0.8148536
0.8142127
0.8136712
0.8131752
0.8264257
0.8254187
0.8245049
0.8236944
0.8229989
0.8225142
0.8215743
0.8206525
0.8197562
0.8188951
0.8181182
0.8174146
0.8167602
0.8161721
0.8156914
0.8280622
0.827077
0.826181
0.8253841
0.8246975
0.8242133
0.8232886
0.8223786
0.8214893
0.8206285
0.8198383
0.8191085
0.8184035
0.8177479
0.8171589
0.8093585
0.8098748
0.8082573
0.8085546
0.8077151
0.8060716
0.8063109
0.8054323
0.8046196
0.8028961
0.8032175
0.8022719
0.8015741
0.8008842
0.7990685
0.8045779
0.8028927
0.8012918
0.7998244
0.7985369
0.7974732
0.796678
0.796204
0.79614
0.7966646
0.798286
0.79838
0.7982538
0.7979457
0.7973616
0.7955174
0.8062362
0.8045807
0.8030048
0.8015611
0.8002949
0.7992456
0.7984471
0.7979292
0.7977144
0.797804
0.7980523
0.7976313
0.7971521
0.7966467
0.7960296
0.7953313
0.7922076
0.807826
0.8061959
0.804638
0.8032099
0.8019569
0.8009138
0.8001039
0.7995354
0.7991912
0.7990024
0.7988015
0.7980869
0.7973629
0.7966121
0.7958618
0.7951767
0.7934128
0.7902053
0.8093829
0.8077812
0.8062453
0.8048359
0.8035983
0.8025636
0.8017476
0.8011456
0.8007213
0.8003905
0.7999995
0.7991601
0.7983009
0.7974325
0.7965429
0.7958066
0.7942004
0.7923756
0.7891779
0.8109294
0.809362
0.8078566
0.8064746
0.8052603
0.8042424
0.8034327
0.8028202
0.8023627
0.8019733
0.8015119
0.800628
0.7997253
0.7987992
0.7978631
0.7970411
0.7954942
0.793868
0.7920302
0.7888768
0.8124756
0.8109491
0.809484
0.8081397
0.8069587
0.8059681
0.8051784
0.8045782
0.8041256
0.803736
0.8032733
0.8024016
0.8015042
0.8005825
0.7996328
0.7987946
0.7972425
0.7957092
0.7941008
0.7922891
0.789248
0.8140208
0.8125409
0.811125
0.8098277
0.8086889
0.8077348
0.8069775
0.8064095