/*--------------------------------*- C++ -*----------------------------------*\
| =========                 |                                                 |
| \\      /  F ield         | OpenFOAM: The Open Source CFD Toolbox           |
|  \\    /   O peration     | Version:  2306                                  |
|   \\  /    A nd           | Website:  www.openfoam.com                      |
|    \\/     M anipulation  |                                                 |
\*---------------------------------------------------------------------------*/
FoamFile
{
    version     2.0;
    format      ascii;
    arch        "LSB;label=32;scalar=64";
    class       volScalarField;
    location    "0.9/air";
    object      T;
}
// * * * * * * * * * * * * * * * * * * * * * * * * * * * * * * * * * * * * * //

dimensions      [0 0 0 1 0 0 0];

internalField   nonuniform List<scalar> 
16000
(
1227.711
1214.349
1243.248
1214.104
1206.862
1240.31
1181.496
1247.172
1240.257
1206.401
1202.573
1237.765
1161.024
1246.126
1231.588
1160.678
1250.277
1246.185
1237.656
1201.856
1200.575
1235.891
1148.697
1245.193
1223.982
1129.907
1249.827
1243.131
1223.862
1147.771
1252.997
1249.925
1245.296
1235.704
1199.514
1200.575
1234.898
1142.837
1244.482
1218.339
1110.555
1249.442
1240.354
1211.556
1109.775
1252.757
1248.677
1240.396
1217.998
1141.003
1255.459
1252.861
1249.619
1244.626
1234.608
1199.044
1242.732
1202.573
1234.898
1142.837
1244.096
1215.336
1101.134
1249.153
1238.214
1202.312
1085.161
1252.564
1247.566
1235.867
1201.997
1098.968
1255.299
1252.242
1247.665
1238.288
1214.668
1139.706
1257.719
1255.397
1252.753
1249.413
1244.29
1234.498
1200.418
1242.652
1245.893
1244.631
1206.862
1235.891
1148.697
1244.096
1215.336
1101.134
1248.997
1237.045
1197.359
1072.971
1252.424
1246.718
1232.333
1189.853
1071.289
1255.177
1251.712
1245.888
1232.354
1196.513
1096.878
1257.592
1255.01
1251.823
1246.941
1237.165
1214.284
1143.831
1259.81
1257.682
1255.356
1252.704
1249.358
1244.367
1235.418
1203.881
1242.476
1245.885
1244.513
1248.946
1247.621
1246.542
1214.349
1237.765
1161.024
1244.482
1218.339
1110.555
1248.997
1237.045
1197.359
1072.971
1252.351
1246.257
1230.39
1183.305
1057.447
1255.093
1251.321
1244.511
1227.678
1182.646
1068.573
1257.499
1254.693
1251.007
1244.656
1230.437
1195.838
1103.489
1259.7
1257.386
1254.8
1251.576
1246.656
1237.275
1216.964
1153.899
1261.754
1259.781
1257.662
1255.358
1252.74
1249.491
1244.891
1237.334
1210.179
1242.131
1245.872
1244.234
1248.954
1247.614
1246.395
1251.702
1250.457
1249.35
1248.471
1227.711
1240.31
1181.496
1245.193
1223.982
1129.907
1249.153
1238.214
1202.312
1085.161
1252.351
1246.257
1230.39
1183.305
1057.447
1255.049
1251.112
1243.756
1225.092
1175.138
1054.386
1257.436
1254.468
1250.394
1242.865
1225.1
1181.721
1077.056
1259.62
1257.151
1254.332
1250.568
1244.127
1230.541
1200.157
1119.311
1261.654
1259.527
1257.248
1254.714
1251.571
1246.921
1238.701
1222.54
1171.362
1263.568
1261.727
1259.767
1257.678
1255.418
1252.88
1249.836
1245.862
1240.194
1221.47
1241.161
1245.871
1243.63
1248.975
1247.606
1246.038
1251.713
1250.475
1249.343
1248.303
1254.209
1253.014
1251.964
1251.079
1250.423
1243.248
1214.104
1246.126
1231.588
1160.678
1249.442
1240.354
1211.556
1109.775
1252.424
1246.718
1232.333
1189.853
1071.289
1255.049
1251.112
1243.756
1225.092
1175.138
1054.386
1257.404
1254.35
1250.063
1241.874
1222.136
1174.069
1063.873
1259.567
1256.988
1253.993
1249.799
1242.123
1225.176
1187.32
1097.095
1261.582
1259.328
1256.911
1254.163
1250.509
1244.483
1232.784
1209.095
1145.705
1263.476
1261.497
1259.416
1257.215
1254.794
1251.863
1247.792
1241.374
1230.607
1199.694
1265.265
1263.541
1261.715
1259.785
1257.741
1255.55
1253.144
1250.418
1247.316
1244.149
1234.254
1245.996
1242.05
1249.04
1247.624
1245.277
1251.743
1250.527
1249.336
1247.9
1254.221
1253.038
1251.991
1251.072
1250.244
1256.515
1255.353
1254.322
1253.466
1252.809
1251.467
1247.172
1240.257
1206.401
1249.827
1243.131
1223.862
1147.771
1252.564
1247.566
1235.867
1201.997
1098.968
1255.093
1251.321
1244.511
1227.678
1182.646
1068.573
1257.404
1254.35
1250.063
1241.874
1222.136
1174.069
1063.873
1259.54
1256.905
1253.814
1249.38
1241.008
1222.19
1180.372
1086.142
1261.534
1259.192
1256.674
1253.758
1249.686
1242.532
1228.049
1198.858
1129.662
1263.409
1261.318
1259.135
1256.832
1254.25
1250.915
1245.798
1236.973
1221.753
1185.755
1265.179
1263.329
1261.397
1259.397
1257.312
1255.073
1252.494
1249.28
1245.14
1240.625
1225.908
1266.855
1265.239
1263.529
1261.731
1259.844
1257.861
1255.77
1253.562
1251.321
1249.59
1247.647
1236.706
1249.346
1247.793
1243.526
1251.82
1250.67
1249.352
1247.074
1254.251
1253.103
1252.064
1251.062
1249.823
1256.526
1255.377
1254.357
1253.5
1252.801
1251.288
1258.652
1257.518
1256.492
1255.624
1254.963
1253.723
1251.579
1250.277
1246.185
1237.656
1201.856
1252.757
1248.677
1240.396
1217.998
1141.003
1255.177
1251.712
1245.888
1232.354
1196.513
1096.878
1257.436
1254.468
1250.394
1242.865
1225.1
1181.721
1077.056
1259.54
1256.905
1253.814
1249.38
1241.008
1222.19
1180.372
1086.142
1261.51
1259.124
1256.552
1253.543
1249.234
1241.44
1225.409
1193.329
1121.864
1263.364
1261.196
1258.94
1256.559
1253.843
1250.165
1244.171
1233.406
1214.975
1177.09
1265.116
1263.163
1261.145
1259.082
1256.953
1254.641
1251.837
1248.027
1242.675
1236.804
1219.266
1266.775
1265.039
1263.235
1261.381
1259.492
1257.568
1255.586
1253.505
1251.405
1249.925
1246.938
1230.152
1268.349
1266.83
1265.226
1263.543
1261.785
1259.953
1258.053
1256.109
1254.23
1252.93
1252.246
1248.659
1239.332
1252.149
1251.153
1249.479
1245.381
1254.327
1253.27
1252.245
1251.063
1249.001
1256.554
1255.442
1254.447
1253.583
1252.786
1250.87
1258.662
1257.541
1256.527
1255.666
1255
1253.716
1251.401
1260.642
1259.538
1258.517
1257.625
1256.919
1255.752
1253.822
1251.692
1252.997
1249.925
1245.296
1235.704
1199.514
1255.299
1252.242
1247.665
1238.288
1214.668
1139.706
1257.499
1254.693
1251.007
1244.656
1230.437
1195.838
1103.489
1259.567
1256.988
1253.993
1249.799
1242.123
1225.176
1187.32
1097.095
1261.51
1259.124
1256.552
1253.543
1249.234
1241.44
1225.409
1193.329
1121.864
1263.342
1261.135
1258.841
1256.418
1253.624
1249.748
1243.251
1231.405
1211.309
1172.884
1265.075
1263.05
1260.971
1258.863
1256.695
1254.308
1251.287
1246.936
1240.558
1233.72
1214.788
1266.716
1264.884
1263
1261.099
1259.205
1257.313
1255.378
1253.291
1251.052
1249.379
1245.606
1224.65
1268.274
1266.643
1264.95
1263.218
1261.468
1259.723
1258.01
1256.38
1254.974
1254.297
1253.188
1248.18
1234.197
1269.754
1268.324
1266.817
1265.238
1263.591
1261.883
1260.123
1258.345
1256.658
1255.517
1255.136
1253.033
1249.895
1242.088
1254.638
1253.798
1252.733
1251.12
1247.481
1256.625
1255.604
1254.66
1253.769
1252.765
1250.074
1258.688
1257.602
1256.617
1255.77
1255.085
1253.698
1250.984
1260.651
1259.559
1258.55
1257.668
1256.965
1255.788
1253.814
1251.514
1262.502
1261.43
1260.419
1259.51
1258.752
1257.599
1255.836
1253.921
1251.806
1255.459
1252.861
1249.619
1244.626
1234.608
1199.044
1257.592
1255.01
1251.823
1246.941
1237.165
1214.284
1143.831
1259.62
1257.151
1254.332
1250.568
1244.127
1230.541
1200.157
1119.311
1261.534
1259.192
1256.674
1253.758
1249.686
1242.532
1228.049
1198.858
1129.662
1263.342
1261.135
1258.841
1256.418
1253.624
1249.748
1243.251
1231.405
1211.309
1172.884
1265.054
1262.993
1260.882
1258.75
1256.559
1254.126
1250.972
1246.301
1239.344
1232.019
1212.546
1266.678
1264.779
1262.84
1260.904
1259.002
1257.123
1255.193
1253.037
1250.59
1248.682
1244.388
1220.848
1268.219
1266.497
1264.73
1262.957
1261.212
1259.531
1257.944
1256.493
1255.278
1254.752
1253.391
1247.176
1229.724
1269.683
1268.148
1266.557
1264.932
1263.296
1261.677
1260.117
1258.687
1257.545
1257.084
1256.46
1253.891
1249.525
1238.11
1271.076
1269.73
1268.311
1266.827
1265.281
1263.681
1262.037
1260.383
1258.822
1257.754
1257.417
1255.795
1253.985
1251.266
1244.938
1256.908
1256.108
1255.21
1254.191
1252.749
1248.672
1258.753
1257.753
1256.826
1255.996
1255.256
1253.665
1250.191
1260.675
1259.616
1258.635
1257.773
1257.074
1255.872
1253.796
1251.098
1262.511
1261.45
1260.451
1259.551
1258.799
1257.646
1255.873
1253.913
1251.628
1264.244
1263.207
1262.214
1261.296
1260.497
1259.343
1257.672
1255.921
1254.02
1251.919
1257.719
1255.397
1252.753
1249.413
1244.29
1234.498
1200.418
1259.7
1257.386
1254.8
1251.576
1246.656
1237.275
1216.964
1153.899
1261.582
1259.328
1256.911
1254.163
1250.509
1244.483
1232.784
1209.095
1145.705
1263.364
1261.196
1258.94
1256.559
1253.843
1250.165
1244.171
1233.406
1214.975
1177.09
1265.054
1262.993
1260.882
1258.75
1256.559
1254.126
1250.972
1246.301
1239.344
1232.019
1212.546
1266.658
1264.726
1262.758
1260.805
1258.897
1257.021
1255.084
1252.872
1250.285
1248.236
1243.685
1218.923
1268.182
1266.398
1264.58
1262.776
1261.033
1259.391
1257.877
1256.511
1255.351
1254.848
1253.325
1246.224
1226.564
1269.631
1268.011
1266.35
1264.687
1263.058
1261.507
1260.091
1258.884
1258.025
1257.804
1257.093
1254.155
1248.762
1234.556
1271.01
1269.564
1268.067
1266.539
1265.002
1263.487
1262.033
1260.717
1259.684
1259.267
1258.755
1256.957
1254.694
1250.948
1241.932
1272.322
1271.053
1269.717
1268.32
1266.867
1265.363
1263.821
1262.272
1260.808
1259.786
1259.423
1257.986
1256.587
1255.024
1252.718
1246.475
1259.009
1258.214
1257.355
1256.487
1255.582
1253.612
1248.801
1260.734
1259.754
1258.83
1257.997
1257.288
1256.028
1253.762
1250.308
1262.533
1261.502
1260.53
1259.65
1258.909
1257.754
1255.956
1253.894
1251.212
1264.253
1263.226
1262.243
1261.334
1260.542
1259.391
1257.719
1255.958
1254.012
1251.742
1265.881
1264.881
1263.91
1262.993
1262.166
1261.014
1259.407
1257.746
1256.006
1254.118
1252.026
1259.81
1257.682
1255.356
1252.704
1249.358
1244.367
1235.418
1203.881
1261.654
1259.527
1257.248
1254.714
1251.571
1246.921
1238.701
1222.54
1171.362
1263.409
1261.318
1259.135
1256.832
1254.25
1250.915
1245.798
1236.973
1221.753
1185.755
1265.075
1263.05
1260.971
1258.863
1256.695
1254.308
1251.287
1246.936
1240.558
1233.72
1214.788
1266.658
1264.726
1262.758
1260.805
1258.897
1257.021
1255.084
1252.872
1250.285
1248.236
1243.685
1218.923
1268.164
1266.348
1264.504
1262.685
1260.941
1259.317
1257.834
1256.5
1255.348
1254.839
1253.236
1245.667
1224.947
1269.597
1267.918
1266.209
1264.517
1262.892
1261.385
1260.058
1258.978
1258.255
1258.132
1257.383
1254.164
1248.025
1231.996
1270.961
1269.435
1267.872
1266.307
1264.777
1263.327
1262.013
1260.921
1260.18
1260.017
1259.473
1257.568
1254.964
1250.363
1239.201
1272.259
1270.897
1269.487
1268.048
1266.602
1265.177
1263.812
1262.576
1261.603
1261.178
1260.671
1259.153
1257.543
1255.569
1252.426
1243.919
1273.495
1272.3
1271.041
1269.725
1268.357
1266.942
1265.492
1264.036
1262.657
1261.672
1261.269
1259.922
1258.668
1257.446
1256.11
1253.511
1246.642
1260.966
1260.173
1259.318
1258.476
1257.689
1256.3
1253.705
1248.932
1262.587
1261.629
1260.709
1259.86
1259.125
1257.956
1256.111
1253.859
1250.427
1264.273
1263.275
1262.316
1261.427
1260.647
1259.501
1257.827
1256.041
1253.993
1251.327
1265.889
1264.899
1263.937
1263.029
1262.209
1261.06
1259.455
1257.793
1256.043
1254.11
1251.849
1267.421
1266.46
1265.515
1264.608
1263.767
1262.623
1261.07
1259.47
1257.819
1256.091
1254.211
1252.109
1261.754
1259.781
1257.662
1255.358
1252.74
1249.491
1244.891
1237.334
1210.179
1263.476
1261.497
1259.416
1257.215
1254.794
1251.863
1247.792
1241.374
1230.607
1199.694
1265.116
1263.163
1261.145
1259.082
1256.953
1254.641
1251.837
1248.027
1242.675
1236.804
1219.266
1266.678
1264.779
1262.84
1260.904
1259.002
1257.123
1255.193
1253.037
1250.59
1248.682
1244.388
1220.848
1268.164
1266.348
1264.504
1262.685
1260.941
1259.317
1257.834
1256.5
1255.348
1254.839
1253.236
1245.667
1224.947
1269.58
1267.871
1266.137
1264.431
1262.807
1261.322
1260.036
1259.012
1258.344
1258.259
1257.492
1254.121
1247.589
1230.673
1270.929
1269.347
1267.738
1266.147
1264.621
1263.213
1261.988
1261.027
1260.439
1260.395
1259.85
1257.867
1255.017
1249.8
1237.2
1272.213
1270.775
1269.303
1267.829
1266.389
1265.024
1263.789
1262.764
1262.068
1261.885
1261.367
1259.826
1258.095
1255.814
1251.977
1241.583
1273.436
1272.153
1270.824
1269.468
1268.106
1266.763
1265.476
1264.308
1263.378
1262.936
1262.408
1261.011
1259.63
1258.195
1256.495
1253.225
1244.133
1274.601
1273.475
1272.289
1271.048
1269.759
1268.426
1267.062
1265.69
1264.388
1263.439
1263.003
1261.713
1260.52
1259.405
1258.338
1256.696
1253.597
1246.808
1262.798
1262.009
1261.154
1260.307
1259.524
1258.303
1256.377
1253.799
1249.064
1264.323
1263.391
1262.482
1261.622
1260.852
1259.706
1258.027
1256.194
1253.956
1250.546
1265.908
1264.944
1264.005
1263.115
1262.308
1261.165
1259.565
1257.9
1256.126
1254.091
1251.436
1267.428
1266.476
1265.541
1264.641
1263.807
1262.666
1261.116
1259.518
1257.866
1256.128
1254.203
1251.932
1268.871
1267.95
1267.035
1266.144
1265.3
1264.172
1262.672
1261.125
1259.534
1257.892
1256.171
1254.282
1252.176
1263.568
1261.727
1259.767
1257.678
1255.418
1252.88
1249.836
1245.862
1240.194
1221.47
1265.179
1263.329
1261.397
1259.397
1257.312
1255.073
1252.494
1249.28
1245.14
1240.625
1225.908
1266.716
1264.884
1263
1261.099
1259.205
1257.313
1255.378
1253.291
1251.052
1249.379
1245.606
1224.65
1268.182
1266.398
1264.58
1262.776
1261.033
1259.391
1257.877
1256.511
1255.351
1254.848
1253.325
1246.224
1226.564
1269.58
1267.871
1266.137
1264.431
1262.807
1261.322
1260.036
1259.012
1258.344
1258.259
1257.492
1254.121
1247.589
1230.673
1270.912
1269.303
1267.67
1266.066
1264.541
1263.154
1261.97
1261.071
1260.548
1260.554
1260.013
1257.986
1255.006
1249.466
1236.155
1272.183
1270.692
1269.177
1267.678
1266.24
1264.915
1263.763
1262.863
1262.317
1262.252
1261.747
1260.193
1258.381
1255.887
1251.557
1239.857
1273.393
1272.038
1270.65
1269.261
1267.903
1266.616
1265.449
1264.476
1263.802
1263.585
1263.052
1261.659
1260.229
1258.665
1256.694
1252.834
1241.838
1274.545
1273.336
1272.084
1270.806
1269.522
1268.255
1267.04
1265.933
1265.043
1264.586
1264.037
1262.707
1261.42
1260.165
1258.892
1257.001
1253.312
1244.346
1275.642
1274.582
1273.464
1272.295
1271.08
1269.824
1268.538
1267.244
1266.014
1265.101
1264.643
1263.401
1262.244
1261.165
1260.168
1258.817
1256.76
1253.683
1246.975
1264.516
1263.738
1262.888
1262.032
1261.229
1260.057
1258.369
1256.454
1253.892
1249.196
1265.954
1265.052
1264.158
1263.296
1262.499
1261.361
1259.768
1258.099
1256.277
1254.054
1250.659
1267.446
1266.518
1265.604
1264.722
1263.899
1262.765
1261.221
1259.628
1257.973
1256.21
1254.184
1251.521
1268.878
1267.965
1267.059
1266.176
1265.338
1264.213
1262.715
1261.172
1259.582
1257.939
1256.207
1254.274
1251.999
1270.238
1269.358
1268.476
1267.607
1266.769
1265.663
1264.216
1262.721
1261.181
1259.597
1257.96
1256.231
1254.338
1252.226
1265.265
1263.541
1261.715
1259.785
1257.741
1255.55
1253.144
1250.418
1247.316
1244.149
1234.254
1266.775
1265.039
1263.235
1261.381
1259.492
1257.568
1255.586
1253.505
1251.405
1249.925
1246.938
1230.152
1268.219
1266.497
1264.73
1262.957
1261.212
1259.531
1257.944
1256.493
1255.278
1254.752
1253.391
1247.176
1229.724
1269.597
1267.918
1266.209
1264.517
1262.892
1261.385
1260.058
1258.978
1258.255
1258.132
1257.383
1254.164
1248.025
1231.996
1270.912
1269.303
1267.67
1266.066
1264.541
1263.154
1261.97
1261.071
1260.548
1260.554
1260.013
1257.986
1255.006
1249.466
1236.155
1272.167
1270.651
1269.113
1267.601
1266.165
1264.858
1263.746
1262.905
1262.424
1262.41
1261.917
1260.354
1258.501
1255.895
1251.309
1238.95
1273.364
1271.96
1270.531
1269.118
1267.763
1266.511
1265.421
1264.564
1264.03
1263.925
1263.41
1262.024
1260.569
1258.925
1256.771
1252.478
1240.141
1274.505
1273.228
1271.92
1270.61
1269.33
1268.114
1267.01
1266.082
1265.427
1265.178
1264.627
1263.307
1261.996
1260.674
1259.27
1257.171
1252.927
1242.092
1275.59
1274.452
1273.271
1272.066
1270.856
1269.661
1268.513
1267.464
1266.611
1266.148
1265.584
1264.305
1263.068
1261.881
1260.74
1259.275
1257.056
1253.398
1244.559
1276.623
1275.625
1274.572
1273.471
1272.325
1271.141
1269.928
1268.708
1267.544
1266.67
1266.199
1265.003
1263.876
1262.816
1261.833
1260.577
1258.869
1256.823
1253.769
1247.143
1266.132
1265.371
1264.531
1263.673
1262.849
1261.696
1260.115
1258.435
1256.531
1253.986
1249.322
1267.489
1266.619
1265.747
1264.89
1264.078
1262.949
1261.416
1259.83
1258.17
1256.36
1254.145
1250.747
1268.895
1268.005
1267.119
1266.252
1265.425
1264.306
1262.815
1261.277
1259.691
1258.046
1256.289
1254.255
1251.589
1270.245
1269.373
1268.499
1267.637
1266.804
1265.702
1264.257
1262.765
1261.227
1259.645
1258.008
1256.267
1254.33
1252.049
1271.528
1270.689
1269.842
1268.999
1268.174
1267.096
1265.702
1264.26
1262.77
1261.237
1259.657
1258.011
1256.277
1254.379
1252.258
1241.161
1266.855
1265.239
1263.529
1261.731
1259.844
1257.861
1255.77
1253.562
1251.321
1249.59
1247.647
1236.706
1268.274
1266.643
1264.95
1263.218
1261.468
1259.723
1258.01
1256.38
1254.974
1254.297
1253.188
1248.18
1234.197
1269.631
1268.011
1266.35
1264.687
1263.058
1261.507
1260.091
1258.884
1258.025
1257.804
1257.093
1254.155
1248.762
1234.556
1270.929
1269.347
1267.738
1266.147
1264.621
1263.213
1261.988
1261.027
1260.439
1260.395
1259.85
1257.867
1255.017
1249.8
1237.2
1272.167
1270.651
1269.113
1267.601
1266.165
1264.858
1263.746
1262.905
1262.424
1262.41
1261.917
1260.354
1258.501
1255.895
1251.309
1238.95
1273.35
1271.921
1270.471
1269.046
1267.691
1266.457
1265.404
1264.602
1264.13
1264.073
1263.571
1262.188
1260.722
1259.038
1256.791
1252.27
1239.249
1274.478
1273.155
1271.808
1270.476
1269.196
1268.014
1266.98
1266.161
1265.635
1265.49
1264.957
1263.649
1262.332
1260.976
1259.493
1257.245
1252.577
1240.424
1275.552
1274.35
1273.117
1271.882
1270.674
1269.526
1268.481
1267.598
1266.962
1266.69
1266.125
1264.855
1263.603
1262.372
1261.152
1259.603
1257.223
1253.019
1242.345
1276.573
1275.502
1274.391
1273.255
1272.114
1270.986
1269.902
1268.908
1268.093
1267.63
1267.061
1265.827
1264.629
1263.476
1262.378
1261.058
1259.316
1257.111
1253.485
1244.771
1277.544
1276.607
1275.616
1274.578
1273.499
1272.382
1271.238
1270.087
1268.987
1268.151
1267.676
1266.526
1265.432
1264.389
1263.408
1262.19
1260.622
1258.921
1256.887
1253.856
1247.3
1267.654
1266.914
1266.09
1265.238
1264.403
1263.263
1261.746
1260.172
1258.5
1256.608
1254.074
1249.422
1268.935
1268.099
1267.252
1266.408
1265.592
1264.479
1262.998
1261.47
1259.892
1258.241
1256.437
1254.215
1250.819
1270.261
1269.41
1268.556
1267.708
1266.886
1265.79
1264.35
1262.864
1261.332
1259.755
1258.114
1256.349
1254.31
1251.639
1271.534
1270.703
1269.864
1269.027
1268.207
1267.132
1265.741
1264.301
1262.814
1261.283
1259.705
1258.058
1256.313
1254.37
1252.082
1272.745
1271.947
1271.137
1270.323
1269.517
1268.47
1267.131
1265.741
1264.303
1262.819
1261.289
1259.7
1258.049
1256.309
1254.403
1242.131
1245.996
1242.05
1268.349
1266.83
1265.226
1263.543
1261.785
1259.953
1258.053
1256.109
1254.23
1252.93
1252.246
1248.659
1239.332
1269.683
1268.148
1266.557
1264.932
1263.296
1261.677
1260.117
1258.687
1257.545
1257.084
1256.46
1253.891
1249.525
1238.11
1270.961
1269.435
1267.872
1266.307
1264.777
1263.327
1262.013
1260.921
1260.18
1260.017
1259.473
1257.568
1254.964
1250.363
1239.201
1272.183
1270.692
1269.177
1267.678
1266.24
1264.915
1263.763
1262.863
1262.317
1262.252
1261.747
1260.193
1258.381
1255.887
1251.557
1239.857
1273.35
1271.921
1270.471
1269.046
1267.691
1266.457
1265.404
1264.602
1264.13
1264.073
1263.571
1262.188
1260.722
1259.038
1256.791
1252.27
1239.249
1274.464
1273.118
1271.751
1270.407
1269.128
1267.962
1266.962
1266.193
1265.725
1265.627
1265.107
1263.805
1262.487
1261.115
1259.595
1257.269
1252.373
1239.547
1275.526
1274.281
1273.012
1271.755
1270.548
1269.431
1268.451
1267.667
1267.151
1266.976
1266.429
1265.171
1263.918
1262.67
1261.409
1259.804
1257.297
1252.676
1240.706
1276.537
1275.407
1274.246
1273.082
1271.943
1270.859
1269.87
1269.03
1268.415
1268.128
1267.558
1266.332
1265.121
1263.934
1262.779
1261.418
1259.639
1257.275
1253.112
1242.598
1277.498
1276.492
1275.445
1274.376
1273.3
1272.237
1271.213
1270.272
1269.495
1269.038
1268.471
1267.283
1266.121
1264.995
1263.916
1262.653
1261.092
1259.358
1257.166
1253.572
1244.969
1278.41
1277.53
1276.599
1275.622
1274.605
1273.553
1272.474
1271.388
1270.349
1269.551
1269.08
1267.976
1266.916
1265.894
1264.918
1263.724
1262.229
1260.666
1258.973
1256.951
1253.938
1247.428
1269.089
1268.373
1267.571
1266.731
1265.894
1264.772
1263.307
1261.796
1260.228
1258.566
1256.68
1254.14
1249.505
1270.299
1269.499
1268.68
1267.855
1267.043
1265.952
1264.522
1263.046
1261.525
1259.954
1258.308
1256.495
1254.268
1250.873
1271.549
1270.739
1269.918
1269.095
1268.285
1267.215
1265.829
1264.394
1262.913
1261.388
1259.814
1258.165
1256.394
1254.349
1251.672
1272.751
1271.961
1271.158
1270.35
1269.548
1268.505
1267.168
1265.78
1264.344
1262.863
1261.335
1259.748
1258.096
1256.345
1254.394
1273.894
1273.138
1272.365
1271.582
1270.799
1269.788
1268.502
1267.166
1265.78
1264.347
1262.865
1261.326
1259.731
1258.074
1256.326
1242.476
1245.871
1243.63
1249.346
1247.793
1243.526
1269.754
1268.324
1266.817
1265.238
1263.591
1261.883
1260.123
1258.345
1256.658
1255.517
1255.136
1253.033
1249.895
1242.088
1271.01
1269.564
1268.067
1266.539
1265.002
1263.487
1262.033
1260.717
1259.684
1259.267
1258.755
1256.957
1254.694
1250.948
1241.932
1272.213
1270.775
1269.303
1267.829
1266.389
1265.024
1263.789
1262.764
1262.068
1261.885
1261.367
1259.826
1258.095
1255.814
1251.977
1241.583
1273.364
1271.96
1270.531
1269.118
1267.763
1266.511
1265.421
1264.564
1264.03
1263.925
1263.41
1262.024
1260.569
1258.925
1256.771
1252.478
1240.141
1274.464
1273.118
1271.751
1270.407
1269.128
1267.962
1266.962
1266.193
1265.725
1265.627
1265.107
1263.805
1262.487
1261.115
1259.595
1257.269
1252.373
1239.547
1275.513
1274.246
1272.958
1271.691
1270.484
1269.381
1268.433
1267.696
1267.233
1267.101
1266.567
1265.316
1264.064
1262.81
1261.531
1259.898
1257.32
1252.476
1239.843
1276.513
1275.342
1274.146
1272.962
1271.824
1270.768
1269.84
1269.092
1268.588
1268.392
1267.839
1266.624
1265.413
1264.214
1263.033
1261.649
1259.838
1257.348
1252.775
1240.986
1277.464
1276.402
1275.31
1274.213
1273.139
1272.117
1271.182
1270.384
1269.793
1269.499
1268.931
1267.749
1266.574
1265.418
1264.293
1263.006
1261.447
1259.675
1257.327
1253.205
1242.833
1278.366
1277.422
1276.439
1275.433
1274.419
1273.417
1272.45
1271.561
1270.822
1270.376
1269.817
1268.675
1267.551
1266.453
1265.39
1264.159
1262.683
1261.127
1259.4
1257.222
1253.654
1245.135
1279.221
1278.397
1277.523
1276.605
1275.648
1274.657
1273.64
1272.616
1271.634
1270.876
1270.414
1269.357
1268.334
1267.337
1266.372
1265.201
1263.759
1262.268
1260.71
1259.025
1257.011
1253.998
1247.538
1270.443
1269.755
1268.978
1268.156
1267.326
1266.226
1264.811
1263.352
1261.846
1260.285
1258.627
1256.732
1254.19
1249.57
1271.586
1270.823
1270.036
1269.234
1268.433
1267.368
1265.99
1264.565
1263.094
1261.579
1260.012
1258.356
1256.538
1254.306
1250.909
1272.766
1271.995
1271.209
1270.414
1269.623
1268.584
1267.251
1265.868
1264.437
1262.962
1261.44
1259.857
1258.202
1256.425
1254.372
1273.9
1273.151
1272.385
1271.608
1270.83
1269.821
1268.537
1267.203
1265.819
1264.388
1262.909
1261.372
1259.779
1258.12
1256.361
1274.978
1274.263
1273.528
1272.779
1272.023
1271.048
1269.817
1268.534
1267.201
1265.819
1264.388
1262.897
1261.351
1259.75
1258.085
1242.652
1245.872
1244.234
1249.04
1247.624
1245.277
1252.149
1251.153
1249.479
1245.381
1271.076
1269.73
1268.311
1266.827
1265.281
1263.681
1262.037
1260.383
1258.822
1257.754
1257.417
1255.795
1253.985
1251.266
1244.938
1272.259
1270.897
1269.487
1268.048
1266.602
1265.177
1263.812
1262.576
1261.603
1261.178
1260.671
1259.153
1257.543
1255.569
1252.426
1243.919
1273.393
1272.038
1270.65
1269.261
1267.903
1266.616
1265.449
1264.476
1263.802
1263.585
1263.052
1261.659
1260.229
1258.665
1256.694
1252.834
1241.838
1274.478
1273.155
1271.808
1270.476
1269.196
1268.014
1266.98
1266.161
1265.635
1265.49
1264.957
1263.649
1262.332
1260.976
1259.493
1257.245
1252.577
1240.424
1275.513
1274.246
1272.958
1271.691
1270.484
1269.381
1268.433
1267.696
1267.233
1267.101
1266.567
1265.316
1264.064
1262.81
1261.531
1259.898
1257.32
1252.476
1239.843
1276.501
1275.309
1274.096
1272.902
1271.763
1270.721
1269.822
1269.118
1268.664
1268.508
1267.967
1266.759
1265.549
1264.347
1263.156
1261.761
1259.931
1257.372
1252.579
1240.138
1277.442
1276.341
1275.216
1274.101
1273.028
1272.031
1271.153
1270.441
1269.953
1269.744
1269.192
1268.019
1266.845
1265.68
1264.534
1263.237
1261.675
1259.872
1257.399
1252.874
1241.248
1278.334
1277.338
1276.312
1275.28
1274.269
1273.304
1272.421
1271.665
1271.1
1270.806
1270.245
1269.107
1267.97
1266.845
1265.742
1264.494
1263.031
1261.476
1259.712
1257.379
1253.292
1243.032
1279.18
1278.296
1277.374
1276.428
1275.474
1274.53
1273.619
1272.779
1272.079
1271.648
1271.101
1270.006
1268.922
1267.854
1266.81
1265.608
1264.186
1262.713
1261.161
1259.442
1257.274
1253.714
1245.28
1279.98
1279.21
1278.391
1277.53
1276.63
1275.697
1274.74
1273.774
1272.847
1272.129
1271.681
1270.671
1269.686
1268.718
1267.771
1266.627
1265.232
1263.793
1262.306
1260.755
1259.074
1257.053
1254.042
1247.629
1271.722
1271.064
1270.315
1269.516
1268.699
1267.627
1266.262
1264.851
1263.396
1261.896
1260.338
1258.67
1256.77
1254.224
1249.616
1272.8
1272.075
1271.321
1270.546
1269.763
1268.729
1267.403
1266.029
1264.607
1263.142
1261.629
1260.053
1258.392
1256.567
1254.327
1273.914
1273.184
1272.434
1271.67
1270.9
1269.896
1268.616
1267.286
1265.907
1264.481
1263.007
1261.476
1259.887
1258.225
1256.44
1274.984
1274.276
1273.548
1272.804
1272.052
1271.08
1269.85
1268.569
1267.238
1265.858
1264.429
1262.941
1261.397
1259.798
1258.131
1276
1275.327
1274.631
1273.916
1273.189
1272.253
1271.075
1269.846
1268.566
1267.237
1265.856
1264.415
1262.918
1261.365
1259.756
1242.732
1245.885
1244.513
1248.975
1247.606
1246.038
1251.82
1250.67
1249.352
1247.074
1254.638
1253.798
1252.733
1251.12
1247.481
1272.322
1271.053
1269.717
1268.32
1266.867
1265.363
1263.821
1262.272
1260.808
1259.786
1259.423
1257.986
1256.587
1255.024
1252.718
1246.475
1273.436
1272.153
1270.824
1269.468
1268.106
1266.763
1265.476
1264.308
1263.378
1262.936
1262.408
1261.011
1259.63
1258.195
1256.495
1253.225
1244.133
1274.505
1273.228
1271.92
1270.61
1269.33
1268.114
1267.01
1266.082
1265.427
1265.178
1264.627
1263.307
1261.996
1260.674
1259.27
1257.171
1252.927
1242.092
1275.526
1274.281
1273.012
1271.755
1270.548
1269.431
1268.451
1267.667
1267.151
1266.976
1266.429
1265.171
1263.918
1262.67
1261.409
1259.804
1257.297
1252.676
1240.706
1276.501
1275.309
1274.096
1272.902
1271.763
1270.721
1269.822
1269.118
1268.664
1268.508
1267.967
1266.759
1265.549
1264.347
1263.156
1261.761
1259.931
1257.372
1252.579
1240.138
1277.43
1276.31
1275.169
1274.044
1272.971
1271.987
1271.136
1270.465
1270.023
1269.852
1269.311
1268.144
1266.971
1265.804
1264.652
1263.349
1261.786
1259.964
1257.424
1252.682
1240.412
1278.313
1277.281
1276.224
1275.175
1274.164
1273.224
1272.395
1271.719
1271.249
1271.034
1270.489
1269.359
1268.222
1267.088
1265.969
1264.714
1263.259
1261.702
1259.906
1257.451
1252.967
1241.47
1279.151
1278.217
1277.254
1276.285
1275.334
1274.426
1273.593
1272.878
1272.339
1272.05
1271.503
1270.409
1269.312
1268.219
1267.139
1265.923
1264.516
1263.056
1261.505
1259.749
1257.428
1253.356
1243.21
1279.942
1279.116
1278.252
1277.364
1276.468
1275.58
1274.723
1273.931
1273.268
1272.855
1272.326
1271.278
1270.234
1269.2
1268.181
1267.009
1265.632
1264.212
1262.743
1261.196
1259.482
1257.308
1253.758
1245.405
1280.689
1279.971
1279.205
1278.398
1277.554
1276.677
1275.776
1274.867
1273.993
1273.315
1272.885
1271.921
1270.976
1270.041
1269.116
1268.003
1266.655
1265.263
1263.827
1262.345
1260.796
1259.106
1257.079
1254.069
1247.7
1272.929
1272.303
1271.584
1270.812
1270.015
1268.973
1267.659
1266.297
1264.89
1263.439
1261.942
1260.374
1258.7
1256.792
1254.24
1273.947
1273.26
1272.541
1271.795
1271.035
1270.034
1268.761
1267.438
1266.067
1264.65
1263.186
1261.665
1260.082
1258.413
1256.58
1274.997
1274.308
1273.595
1272.863
1272.12
1271.152
1269.925
1268.648
1267.321
1265.946
1264.522
1263.039
1261.501
1259.905
1258.235
1276.006
1275.339
1274.649
1273.94
1273.217
1272.283
1271.107
1269.879
1268.601
1267.273
1265.895
1264.456
1262.962
1261.411
1259.803
1276.964
1276.332
1275.674
1274.995
1274.299
1273.403
1272.278
1271.102
1269.875
1268.598
1267.269
1265.88
1264.433
1262.928
1261.367
1245.893
1244.631
1248.954
1247.614
1246.395
1251.743
1250.527
1249.336
1247.9
1254.327
1253.27
1252.245
1251.063
1249.001
1256.908
1256.108
1255.21
1254.191
1252.749
1248.672
1273.495
1272.3
1271.041
1269.725
1268.357
1266.942
1265.492
1264.036
1262.657
1261.672
1261.269
1259.922
1258.668
1257.446
1256.11
1253.511
1246.642
1274.545
1273.336
1272.084
1270.806
1269.522
1268.255
1267.04
1265.933
1265.043
1264.586
1264.037
1262.707
1261.42
1260.165
1258.892
1257.001
1253.312
1244.346
1275.552
1274.35
1273.117
1271.882
1270.674
1269.526
1268.481
1267.598
1266.962
1266.69
1266.125
1264.855
1263.603
1262.372
1261.152
1259.603
1257.223
1253.019
1242.345
1276.513
1275.342
1274.146
1272.962
1271.824
1270.768
1269.84
1269.092
1268.588
1268.392
1267.839
1266.624
1265.413
1264.214
1263.033
1261.649
1259.838
1257.348
1252.775
1240.986
1277.43
1276.31
1275.169
1274.044
1272.971
1271.987
1271.136
1270.465
1270.023
1269.852
1269.311
1268.144
1266.971
1265.804
1264.652
1263.349
1261.786
1259.964
1257.424
1252.682
1240.412
1278.303
1277.252
1276.18
1275.121
1274.11
1273.183
1272.379
1271.741
1271.314
1271.135
1270.601
1269.475
1268.34
1267.205
1266.079
1264.822
1263.37
1261.812
1259.997
1257.476
1252.778
1240.647
1279.131
1278.164
1277.173
1276.187
1275.236
1274.351
1273.568
1272.929
1272.48
1272.265
1271.732
1270.645
1269.547
1268.447
1267.352
1266.131
1264.734
1263.281
1261.728
1259.94
1257.5
1253.037
1241.672
1279.914
1279.043
1278.141
1277.232
1276.338
1275.484
1274.7
1274.026