/*--------------------------------*- C++ -*----------------------------------*\
| =========                 |                                                 |
| \\      /  F ield         | OpenFOAM: The Open Source CFD Toolbox           |
|  \\    /   O peration     | Version:  2306                                  |
|   \\  /    A nd           | Website:  www.openfoam.com                      |
|    \\/     M anipulation  |                                                 |
\*---------------------------------------------------------------------------*/
FoamFile
{
    version     2.0;
    format      ascii;
    arch        "LSB;label=32;scalar=64";
    class       volVectorField;
    location    "0.9/air";
    object      U;
}
// * * * * * * * * * * * * * * * * * * * * * * * * * * * * * * * * * * * * * //

dimensions      [0 1 -1 0 0 0 0];

internalField   nonuniform List<vector> 
16000
(
(0.3570997 0.05449291 -0.05457778)
(0.6389698 0.1034905 -0.08418736)
(0.3858355 0.003755982 -0.003641018)
(0.6391811 0.08382738 -0.104732)
(0.7675557 0.08862718 -0.08402001)
(0.760429 0.009117191 -0.006737207)
(1.284943 0.1744291 -0.1779019)
(0.294335 -0.001271805 0.001283311)
(0.7606288 0.006854845 -0.008760741)
(0.7683115 0.08342491 -0.09210078)
(0.830273 0.05522927 -0.08171108)
(0.9654445 0.00953748 -0.007039339)
(1.621989 0.1649022 -0.1972385)
(0.6065704 -0.001767557 0.002168385)
(1.681495 0.01736923 -0.01713173)
(1.623332 0.1919827 -0.1736442)
(0.333886 0.0008191608 -0.0008090026)
(0.6067913 -0.00218253 0.001711418)
(0.9663762 0.00711844 -0.009109835)
(0.8320363 0.08089141 -0.06172142)
(0.8558453 0.01869631 -0.08052395)
(1.075303 0.006702235 -0.006643975)
(1.80137 0.1088881 -0.1973793)
(0.7907922 -0.001600193 0.00238738)
(2.233421 0.0195632 -0.01973925)
(2.097948 0.1896758 -0.2023694)
(0.681341 0.001382804 -0.001456709)
(1.391762 -0.003276738 0.00300202)
(2.235249 0.01953628 -0.01965956)
(1.805681 0.1906699 -0.1242988)
(0.3112749 -0.0004165254 0.0004278741)
(0.6815505 0.001429637 -0.00147805)
(0.7918738 -0.002432316 0.001343185)
(1.077855 0.00664701 -0.006477284)
(0.8593228 0.07938805 -0.02886635)
(0.8558453 -0.01869631 -0.08052395)
(1.124219 0.002306489 -0.006240718)
(1.875133 0.03775833 -0.1953773)
(0.8979295 -0.0009410422 0.002440609)
(2.537147 0.01523098 -0.02179971)
(2.333727 0.1313185 -0.2096033)
(0.8840105 0.001342722 -0.001596586)
(1.895912 -0.003109989 0.003700898)
(3.037059 0.02393917 -0.02501253)
(2.337794 0.1937747 -0.1533754)
(0.6394514 -0.0007443171 0.0007213416)
(1.549836 0.002322218 -0.002710903)
(1.898024 -0.004212326 0.002337082)
(2.543489 0.0209474 -0.01624422)
(1.884718 0.1870259 -0.06078757)
(0.3240199 0.0002891579 -0.0002783381)
(0.6396539 -0.0007435562 0.0006676833)
(0.885071 0.001531795 -0.001708792)
(0.9009067 -0.002524084 0.0003474541)
(1.129746 0.006105539 -0.002629432)
(0.8621807 0.07887869 0.004077994)
(0.0003044577 -0.001295536 -0.0006259478)
(0.830273 -0.05522927 -0.08171108)
(1.124219 -0.002306489 -0.006240718)
(1.875133 -0.03775833 -0.1953773)
(0.947673 -0.0003084223 0.002484831)
(2.675836 0.005536624 -0.02184392)
(2.434503 0.04630394 -0.2090542)
(1.000595 0.0008627168 -0.001601985)
(2.198029 -0.001929603 0.004333628)
(3.515318 0.01780625 -0.02579808)
(2.617676 0.1352033 -0.1616463)
(0.8331368 -0.0007421837 0.000763788)
(2.100072 0.002327366 -0.003068997)
(2.640196 -0.004446869 0.003224546)
(3.52174 0.02374051 -0.01995707)
(2.446354 0.1905069 -0.07807864)
(0.6632883 0.0004858456 -0.0005254228)
(1.463762 -0.001429121 0.001088876)
(2.102195 0.002407046 -0.003378776)
(2.205297 -0.005123414 0.0004420513)
(2.690731 0.02020033 -0.007866462)
(1.893456 0.1850187 0.006657816)
(0.3163968 -0.0001180225 0.0001291013)
(0.6634939 0.0005007397 -0.0005697657)
(0.8341628 -0.000821055 0.0004280546)
(1.003563 0.001498348 -0.001647382)
(0.9539764 -0.002637146 -0.0008038623)
(1.13471 0.005865455 0.0009275516)
(0.841422 0.07934658 0.0354728)
(0.0003185146 -0.003750651 -0.0006469941)
(0.0003148271 -0.001157987 -0.0005721628)
(0.0003060422 -0.001298302 -0.001216552)
(0.7675557 -0.08862718 -0.08402001)
(1.075303 -0.006702235 -0.006643976)
(1.80137 -0.1088881 -0.1973793)
(0.947673 0.0003084223 0.002484831)
(2.675836 -0.005536624 -0.02184392)
(2.434503 -0.04630394 -0.2090542)
(1.054439 0.0002911756 -0.001594621)
(2.339872 -0.0006456749 0.004716802)
(3.73293 0.006632419 -0.02608943)
(2.73669 0.04809831 -0.1626725)
(0.9455528 -0.0004976877 0.0007623745)
(2.427112 0.001542314 -0.003073736)
(3.095491 -0.003035442 0.004132728)
(4.102258 0.01879811 -0.02215833)
(2.745927 0.1332249 -0.08479572)
(0.8623235 0.0004787437 -0.0005983951)
(1.991383 -0.00152678 0.001182679)
(2.908361 0.002385725 -0.003972728)
(3.102588 -0.005800145 0.000958544)
(3.752381 0.02285209 -0.0102005)
(2.459429 0.187972 0.005532745)
(0.6490481 -0.0002123256 0.000194283)
(1.513244 0.0007877602 -0.001148589)
(1.993439 -0.001774754 0.0005933306)
(2.43449 0.002150117 -0.003494335)
(2.356491 -0.005917316 -0.001798626)
(2.705107 0.01915088 0.001395262)
(1.833811 0.1849047 0.07031947)
(0.3202923 0.0001150808 -0.0001048616)
(0.6492517 -0.0002150942 0.0001415147)
(0.8633627 0.0005374797 -0.0008122031)
(0.9484237 -0.0008556073 -0.0001875803)
(1.060788 0.001429172 -0.001661998)
(0.9591243 -0.002778991 -0.002258248)
(1.093665 0.005852015 0.003578152)
(0.7873247 0.0812668 0.06384411)
(0.0003442125 -0.006764445 -0.000694792)
(0.0003364683 -0.003353055 -0.0005892704)
(0.0003201083 -0.003765036 -0.001266828)
(0.0002357374 -0.001081912 -0.0005275877)
(0.0003145403 -0.001161203 -0.001111758)
(0.0003034447 -0.001290786 -0.003324607)
(0.6389698 -0.1034905 -0.08418736)
(0.9654445 -0.00953748 -0.007039339)
(1.621989 -0.1649022 -0.1972385)
(0.8979295 0.0009410422 0.002440609)
(2.537147 -0.01523098 -0.02179971)
(2.333727 -0.1313185 -0.2096033)
(1.054439 -0.0002911757 -0.001594621)
(2.339872 0.0006456749 0.004716802)
(3.73293 -0.006632419 -0.02608943)
(2.73669 -0.04809831 -0.1626725)
(0.9977514 -0.0001731537 0.0007617186)
(2.580056 0.0005277951 -0.003013119)
(3.311437 -0.001039871 0.004690899)
(4.370162 0.007033665 -0.02279173)
(2.873741 0.04753443 -0.08669868)
(0.97735 0.0003118429 -0.0006171695)
(2.307525 -0.001081477 0.001209771)
(3.398882 0.001561361 -0.004037881)
(3.660901 -0.004045417 0.001525254)
(4.385417 0.01823909 -0.01160841)
(2.762369 0.1312395 0.002917854)
(0.8449125 -0.0002065395 0.0001862145)
(2.054414 0.000796827 -0.001412071)
(2.768676 -0.001987207 0.0005560983)
(3.406142 0.002015509 -0.004262822)
(3.332386 -0.00693086 -0.002010267)
(3.774624 0.02150509 0.001446741)
(2.379106 0.1869292 0.0839799)
(0.6562641 0.0001935357 -0.0002170299)
(1.483713 -0.0004466385 0.0001262921)
(2.056493 0.0007911215 -0.001779394)
(2.314668 -0.00204167 -0.0006605821)
(2.597007 0.001745711 -0.00359786)
(2.371057 -0.006581547 -0.004400152)
(2.589157 0.01773963 0.008905996)
(1.67747 0.1837914 0.1221824)
(0.3176495 -2.460643e-05 3.45181e-05)
(0.6564685 0.0001958054 -0.0002656122)
(0.8459389 -0.0002403935 -8.74127e-05)
(0.9802561 0.0005204918 -0.001029264)
(1.003893 -0.0009114052 -0.001033299)
(1.066124 0.001304069 -0.001941939)
(0.9169317 -0.003020728 -0.004228653)
(0.996021 0.005740269 0.004042747)
(0.6759991 0.08221316 0.07032659)
(0.0003914771 -0.008876087 -0.001064552)
(0.0003762015 -0.006023519 -0.0006285711)
(0.0003457927 -0.006671799 -0.00136735)
(0.0002512827 -0.003132518 -0.0005428759)
(0.0003361843 -0.003368204 -0.001153245)
(0.0003173264 -0.003730899 -0.003398829)
(0.0003673997 -0.001004209 -0.0004921743)
(0.0002353027 -0.001085339 -0.001025288)
(0.00031066 -0.001155342 -0.003040053)
(0.0002949192 -0.001262372 -0.001136788)
(0.3570997 -0.05449291 -0.05457778)
(0.760429 -0.009117191 -0.006737207)
(1.284943 -0.1744291 -0.1779019)
(0.7907922 0.001600193 0.00238738)
(2.233421 -0.0195632 -0.01973925)
(2.097948 -0.1896758 -0.2023694)
(1.000595 -0.0008627168 -0.001601985)
(2.198029 0.001929603 0.004333628)
(3.515318 -0.01780625 -0.02579808)
(2.617676 -0.1352033 -0.1616463)
(0.9977514 0.0001731536 0.0007617187)
(2.580056 -0.0005277952 -0.003013119)
(3.311437 0.001039871 0.004690899)
(4.370162 -0.007033665 -0.02279173)
(2.873741 -0.04753443 -0.08669868)
(1.030634 0.0001060226 -0.0006230116)
(2.456106 -0.0003855941 0.001223578)
(3.630837 0.0005308574 -0.003971859)
(3.927622 -0.001412986 0.001926717)
(4.67869 0.006828511 -0.0121209)
(2.8918 0.04679793 0.001130372)
(0.9584105 -0.0001371527 0.0001740377)
(2.377418 0.0005296816 -0.00151295)
(3.243967 -0.001458344 0.0005311863)
(4.006307 0.001251041 -0.004429638)
(3.943873 -0.004926523 -0.001876569)
(4.41231 0.01715024 0.001441078)
(2.670102 0.1299088 0.08511112)
(0.8536839 0.000194874 -0.0002612543)
(2.016842 -0.0004742068 4.191117e-05)
(2.850392 0.0007842003 -0.002284774)
(3.250998 -0.002366394 -0.0009855404)
(3.65228 0.001470979 -0.004451524)
(3.354339 -0.007739706 -0.005223584)
(3.592229 0.01975439 0.0111959)
(2.172963 0.1814975 0.1426263)
(0.6513016 -5.156529e-05 3.107425e-05)
(1.498527 0.0002836724 -0.0006012565)
(2.018895 -0.0006014711 -0.00040715)
(2.384643 0.0006519646 -0.002351113)
(2.472527 -0.002366256 -0.002355274)
(2.612175 0.001195412 -0.003935302)
(2.250501 -0.007247383 -0.007440202)
(2.320073 0.01393504 0.01104692)
(1.384228 0.1661094 0.127208)
(0.31879 5.459902e-05 -4.580781e-05)
(0.6515052 -5.04166e-05 -1.425627e-05)
(0.8547123 0.0002075491 -0.0004872918)
(0.9612788 -0.0002617931 -0.0005049441)
(1.036849 0.0004721424 -0.00135115)
(1.009022 -0.001026963 -0.002150651)
(1.020261 0.001053014 -0.002657932)
(0.8205647 -0.003336544 -0.00678071)
(0.8102657 0.00579225 -0.0003920423)
(0.4293862 0.05616765 -0.002427511)
(0.0004423983 -0.0176559 -0.001419932)
(0.0004488528 -0.007898654 -0.0009454999)
(0.0003916839 -0.008685593 -0.002049885)
(0.0002798792 -0.005620661 -0.0005781909)
(0.0003758815 -0.005947375 -0.001236254)
(0.0003426376 -0.006523146 -0.003542976)
(0.000381359 -0.002907241 -0.0005060429)
(0.0002508871 -0.003147836 -0.001062681)
(0.0003320325 -0.003339947 -0.003098219)
(0.0003083491 -0.003673736 -0.001177733)
(0.000363942 -0.0009470362 -0.0004629078)
(0.0003691313 -0.001007613 -0.0009564466)
(0.0002321998 -0.001080204 -0.002803653)
(0.0002935161 -0.001132402 -0.001038886)
(0.0002959724 -0.001263566 -0.01136243)
(0.3858355 -0.003755982 -0.003641018)
(0.6391811 -0.08382738 -0.104732)
(0.6065704 0.001767557 0.002168385)
(1.681495 -0.01736923 -0.01713173)
(1.623332 -0.1919827 -0.1736442)
(0.8840105 -0.001342722 -0.001596586)
(1.895912 0.003109989 0.003700898)
(3.037059 -0.02393917 -0.02501253)
(2.337794 -0.1937747 -0.1533754)
(0.9455528 0.0004976876 0.0007623747)
(2.427112 -0.001542314 -0.003073736)
(3.095491 0.003035442 0.004132728)
(4.102258 -0.01879811 -0.02215833)
(2.745927 -0.1332249 -0.08479572)
(1.030634 -0.0001060226 -0.0006230116)
(2.456106 0.0003855941 0.001223578)
(3.630837 -0.0005308574 -0.003971859)
(3.927622 0.001412986 0.001926717)
(4.67869 -0.006828511 -0.0121209)
(2.8918 -0.04679793 0.001130372)
(1.01107 -4.771067e-05 0.0001688405)
(2.528903 0.0001813618 -0.001542532)
(3.469769 -0.0005290225 0.0005323419)
(4.29233 0.000412007 -0.00440301)
(4.23703 -0.001743106 -0.001704529)
(4.707811 0.00642255 0.001281514)
(2.794022 0.04615802 0.08356911)
(0.9679157 0.0001281801 -0.0002774798)
(2.33582 -0.0003370387 -1.729391e-05)
(3.335347 0.0005082195 -0.002501355)
(3.833624 -0.001781413 -0.001116053)
(4.308947 0.0008089213 -0.004682482)
(3.970696 -0.00554418 -0.00543848)
(4.186371 0.01577966 0.01265738)
(2.431954 0.1246337 0.1450587)
(0.8475954 -4.932438e-05 1.111356e-05)
(2.035553 0.0002880721 -0.0007911629)
(2.801706 -0.0006796539 -0.0006781316)
(3.342459 0.0005893272 -0.003067242)
(3.490578 -0.002801686 -0.00301122)
(3.675165 0.0008177142 -0.00468757)
(3.170412 -0.00825286 -0.008502053)
(3.168438 0.01720374 0.01578339)
(1.770136 0.156838 0.1439432)
(0.6532891 9.275278e-05 -0.0001096985)
(1.488176 -0.000152151 -0.0001424477)
(2.037608 0.0002406067 -0.001157195)
(2.342951 -0.0007664454 -0.001307397)
(2.545498 0.0003825248 -0.003020622)
(2.487126 -0.00286845 -0.004365998)
(2.481744 0.0003640417 -0.004611418)
(1.977898 -0.008037806 -0.01075559)
(1.814826 0.011051 0.006793022)
(0.8036896 0.1089883 0.02258508)
(0.3175531 1.219859e-05 -2.797718e-06)
(0.6534921 8.984934e-05 -0.0001602412)
(0.848618 -6.094804e-05 -0.0002215144)
(0.9707878 0.0001914721 -0.0007618283)
(1.017202 -0.0003077967 -0.001078479)
(1.042065 0.0003632681 -0.00189878)
(0.9644477 -0.001268061 -0.003638853)
(0.9153667 0.0007272988 -0.003845859)
(0.6525087 -0.003237568 -0.01084139)
(0.474253 -0.001689284 -0.02656188)
(0.002127942 -0.01297528 -0.01144599)
(0.0005260518 -0.0155353 -0.001269317)
(0.0004398276 -0.01385323 -0.002693069)
(0.0003305949 -0.007365837 -0.0008704008)
(0.0004462422 -0.007736869 -0.001821228)
(0.0003867978 -0.00844257 -0.004191537)
(0.0004064361 -0.005213847 -0.0005381385)
(0.0002795276 -0.005552089 -0.001137474)
(0.0003711785 -0.005820416 -0.003209957)
(0.0003327455 -0.006343862 -0.00126363)
(0.0003754692 -0.002741711 -0.0004757557)
(0.0003831486 -0.002922152 -0.0009905141)
(0.0002476257 -0.003122561 -0.00285449)
(0.000314207 -0.003297008 -0.001072224)
(0.000309403 -0.003638425 -0.01148461)
(0.0004202803 -0.0008939536 -0.0004379185)
(0.0003660774 -0.0009504247 -0.0008996521)
(0.0003665392 -0.001003087 -0.002615549)
(0.0002182699 -0.001060097 -0.0009582814)
(0.0003005261 -0.001132512 -0.01039787)
(3.028397e-05 -0.0001375404 -0.004342934)
(0.294335 0.001271805 0.00128331)
(0.7606288 -0.006854845 -0.008760741)
(0.7683115 -0.08342491 -0.09210078)
(0.681341 -0.001382804 -0.001456709)
(1.391762 0.003276738 0.00300202)
(2.235249 -0.01953628 -0.01965956)
(1.805681 -0.1906699 -0.1242988)
(0.8331368 0.0007421837 0.000763788)
(2.100072 -0.002327366 -0.003068997)
(2.640196 0.004446869 0.003224546)
(3.52174 -0.02374051 -0.01995707)
(2.446354 -0.1905069 -0.07807864)
(0.97735 -0.000311843 -0.0006171694)
(2.307525 0.001081478 0.001209771)
(3.398882 -0.001561361 -0.004037881)
(3.660901 0.004045417 0.001525254)
(4.385417 -0.01823909 -0.01160841)
(2.762369 -0.1312395 0.002917853)
(1.01107 4.77106e-05 0.0001688405)
(2.528903 -0.0001813619 -0.001542532)
(3.469769 0.0005290225 0.0005323419)
(4.29233 -0.000412007 -0.00440301)
(4.23703 0.001743106 -0.001704529)
(4.707811 -0.006422549 0.001281514)
(2.794022 -0.04615802 0.08356911)
(1.020871 4.363061e-05 -0.0002834402)
(2.485632 -0.0001207127 -4.283293e-05)
(3.565298 0.0001711711 -0.002572324)
(4.112539 -0.00065421 -0.001143186)
(4.623151 0.0002449645 -0.004691488)
(4.266207 -0.001972769 -0.005456901)
(4.461139 0.005934224 0.01286865)
(2.540028 0.04394808 0.1434627)
(0.9612777 -3.41498e-05 -1.247415e-06)
(2.356435 0.0001897344 -0.0008814686)
(3.28098 -0.000505756 -0.0008327274)
(3.936363 0.0003434758 -0.003377476)
(4.12872 -0.002138253 -0.003234835)
(4.336962 0.000318782 -0.004846876)
(3.743494 -0.00585153 -0.008795355)
(3.666166 0.01385505 0.01810209)
(1.966097 0.1051273 0.1455806)
(0.849892 9.627005e-05 -0.0001420746)
(2.022333 -0.0001685369 -0.000258402)
(2.825724 0.0002248202 -0.001558244)
(3.288 -0.0009087764 -0.001816421)
(3.586307 0.0002375528 -0.00386189)
(3.51265 -0.003393831 -0.005216277)
(3.477062 1.65458e-06 -0.004925026)
(2.758596 -0.008478685 -0.01123777)
(2.418769 0.01509994 0.01374583)
(0.9845339 0.09695888 0.03297411)
(0.6510697 2.353428e-05 -3.341862e-05)
(1.491944 0.0001102752 -0.0004010426)
(2.024375 -0.000254808 -0.0006403917)
(2.363572 0.0001146251 -0.001805688)
(2.502015 -0.001022686 -0.002456443)
(2.560339 -8.902174e-05 -0.00388665)
(2.360103 -0.003685962 -0.006576225)
(2.186651 -0.0008643964 -0.005527288)
(1.514626 -0.008378825 -0.01359742)
(0.9737296 0.004478574 -0.01698343)
(0.0034329 0.0005162065 -0.007956769)
(0.3177048 2.807866e-05 -1.952413e-05)
(0.6512726 1.591264e-05 -8.339141e-05)
(0.8509103 9.290328e-05 -0.0003651301)
(0.964132 -7.921467e-05 -0.0005559308)
(1.027011 0.0001485108 -0.001148326)
(1.022339 -0.0004111904 -0.001879107)
(0.9965748 0.0001309607 -0.002813275)
(0.8631043 -0.00157725 -0.005444466)
(0.730816 0.0006081058 -0.007066028)
(0.3686002 -0.007345686 -0.02739246)
(0.00244778 -0.01165024 -0.009965087)
(0.0005609163 -0.01066517 -0.01568105)
(0.0003858517 -0.01444742 -0.001170415)
(0.0005197826 -0.0122432 -0.002374498)
(0.0004332805 -0.01242179 -0.00482269)
(0.0004505383 -0.006829287 -0.0008078406)
(0.0003289214 -0.007218303 -0.001676633)
(0.0004389654 -0.007527263 -0.003750492)
(0.0003744112 -0.008161679 -0.001711146)
(0.0003959333 -0.004914863 -0.0005055756)
(0.000408296 -0.005151551 -0.00105858)
(0.0002759385 -0.005435892 -0.002951808)
(0.0003520085 -0.005676613 -0.001142378)
(0.0003338242 -0.006236753 -0.0117119)
(0.0004306049 -0.00258794 -0.0004498955)
(0.0003776596 -0.002756279 -0.0009313259)
(0.0003804325 -0.002899372 -0.002661096)
(0.0002333329 -0.003086132 -0.0009881827)
(0.0003212287 -0.003261499 -0.01048191)
(3.163893e-05 -0.0003945098 -0.00438232)
(0.0004282047 -0.0008501871 -0.0004161017)
(0.0004234015 -0.0008972736 -0.0008510948)
(0.0003639038 -0.0009463179 -0.002460255)
(0.0003551719 -0.0009850178 -0.0008939819)
(0.0002242637 -0.001059525 -0.009590945)
(2.874036e-05 -0.0001239221 -0.003974337)
(2.681012e-05 -0.0001238792 -0.005145725)
(0.333886 -0.0008191607 -0.0008090027)
(0.6067913 0.00218253 0.001711418)
(0.9663762 -0.00711844 -0.009109835)
(0.8320363 -0.08089141 -0.06172142)
(0.6394514 0.0007443171 0.0007213416)
(1.549836 -0.002322218 -0.002710903)
(1.898024 0.004212326 0.002337082)
(2.543489 -0.0209474 -0.01624422)
(1.884718 -0.1870259 -0.06078757)
(0.8623235 -0.0004787437 -0.0005983951)
(1.991383 0.00152678 0.001182679)
(2.908361 -0.002385725 -0.003972728)
(3.102588 0.005800145 0.000958544)
(3.752381 -0.02285209 -0.0102005)
(2.459429 -0.187972 0.005532744)
(0.9584105 0.0001371527 0.0001740377)
(2.377418 -0.0005296815 -0.00151295)
(3.243967 0.001458344 0.0005311863)
(4.006307 -0.00125104 -0.004429638)
(3.943873 0.004926523 -0.001876569)
(4.41231 -0.01715024 0.001441078)
(2.670102 -0.1299088 0.08511112)
(1.020871 -4.363056e-05 -0.0002834402)
(2.485632 0.0001207126 -4.283293e-05)
(3.565298 -0.000171171 -0.002572324)
(4.112539 0.0006542099 -0.001143186)
(4.623151 -0.0002449645 -0.004691488)
(4.266207 0.001972769 -0.005456901)
(4.461139 -0.005934224 0.01286865)
(2.540028 -0.04394808 0.1434627)
(1.014007 -1.239945e-05 -6.17712e-06)
(2.50703 6.430662e-05 -0.0009148349)
(3.508538 -0.000185057 -0.0008952113)
(4.220174 0.0001077089 -0.003478454)
(4.435407 -0.0007899391 -0.003276106)
(4.653689 6.648495e-05 -0.004831254)
(4.017349 -0.002076782 -0.008866941)
(3.896351 0.005247117 0.01840208)
(2.041615 0.03677749 0.1448147)
(0.9636712 6.415258e-05 -0.0001563243)
(2.341762 -0.0001264747 -0.0003250199)
(3.307642 0.0001333504 -0.00175583)
(3.87528 -0.0006986566 -0.002065465)
(4.236478 6.079732e-05 -0.004187387)
(4.155794 -0.002580323 -0.005411152)
(4.092794 -0.0002067806 -0.004787492)
(3.238512 -0.005816997 -0.01117895)
(2.765349 0.01187474 0.01570658)
(1.071884 0.06269034 0.03434622)
(0.8472675 2.943974e-05 -5.826716e-05)
(2.026775 0.000110683 -0.0005535597)
(2.808521 -0.0003066895 -0.000937493)
(3.314669 5.128166e-05 -0.002410579)
(3.529299 -0.001244262 -0.003171501)
(3.608738 -0.0003173633 -0.004670871)
(3.319348 -0.004210404 -0.007254111)
(3.033459 -0.0009856676 -0.00489541)
(2.073527 -0.007968353 -0.0117161)
(1.255205 0.006597049 -0.0085043)
(0.004059685 0.0004398223 -0.005629227)
(0.6512286 4.148797e-05 -6.002114e-05)
(1.487576 -7.095121e-06 -0.0002637463)
(2.028808 5.265533e-05 -0.0009027233)
(2.348853 -0.0003927548 -0.001381305)
(2.523425 -0.0001216568 -0.002588312)
(2.516643 -0.001469811 -0.003834335)
(2.430871 -0.000891882 -0.004991743)
(2.074308 -0.004835527 -0.008629967)
(1.682197 -0.002161208 -0.007399245)
(0.7890144 -0.007006094 -0.02023757)
(0.004196942 -7.312531e-05 -0.006941648)
(0.0005746801 -0.002121329 -0.0113462)
(0.3172751 1.873133e-05 -1.056302e-05)
(0.6514311 4.265464e-05 -0.000100769)
(0.8482838 1.264376e-05 -0.0002780351)
(0.9665129 7.796886e-05 -0.0006435875)
(1.020108 -0.0001209502 -0.001020894)
(1.032165 5.009244e-05 -0.001741804)
(0.9773427 -0.0006313759 -0.003019245)
(0.8929494 -0.0001727568 -0.004104744)
(0.6864099 -0.001617084 -0.008670894)
(0.4161043 -0.004291318 -0.02439194)
(0.001850789 -0.01085214 -0.009227129)
(0.0006961172 -0.009469943 -0.01360116)
(0.0005270642 -0.009749148 -0.0110688)
(0.0004988763 -0.01338378 -0.001082798)
(0.0003816351 -0.01139697 -0.002185091)
(0.000510109 -0.01099822 -0.004267953)
(0.0004180289 -0.01109337 -0.002134677)
(0.00043187 -0.006436885 -0.0007587035)
(0.0004513221 -0.00669453 -0.001556091)
(0.0003237475 -0.007025905 -0.003443391)
(0.0004161242 -0.007300878 -0.001523026)
(0.0003749264 -0.008001137 -0.01214927)
(0.0004485836 -0.004637908 -0.0004777375)
(0.0003981912 -0.004857178 -0.0009946442)
(0.0004053234 -0.005045015 -0.002748036)
(0.0002609516 -0.005308263 -0.001051144)
(0.0003590586 -0.005575123 -0.01063098)
(3.414567e-05 -0.0006765343 -0.004462146)
(0.0004372792 -0.00246123 -0.0004273728)
(0.0004337829 -0.00260206 -0.0008806946)
(0.0003753893 -0.002735285 -0.002502056)
(0.0003688115 -0.002867461 -0.0009211327)
(0.0002392739 -0.00305133 -0.009658072)
(3.084878e-05 -0.0003556403 -0.003999917)
(2.80101e-05 -0.000358665 -0.005193156)
(0.0004543498 -0.0008099891 -0.0003967568)
(0.0004316678 -0.0008534444 -0.0008087304)
(0.0004215033 -0.0008935244 -0.002327494)
(0.0003543634 -0.0009297432 -0.0008409988)
(0.0003581577 -0.0009843259 -0.008949198)
(2.112583e-05 -0.0001162252 -0.003665933)
(2.432036e-05 -0.0001118949 -0.004708897)
(2.573876e-05 -0.0001236515 -0.005076001)
(0.3112749 0.0004165255 0.0004278741)
(0.6815505 -0.001429637 -0.00147805)
(0.7918738 0.002432316 0.001343185)
(1.077855 -0.00664701 -0.006477284)
(0.8593228 -0.07938805 -0.02886635)
(0.6632883 -0.0004858457 -0.0005254229)
(1.463762 0.001429121 0.001088876)
(2.102195 -0.002407046 -0.003378776)
(2.205297 0.005123414 0.0004420512)
(2.690731 -0.02020033 -0.007866462)
(1.893456 -0.1850187 0.006657816)
(0.8449125 0.0002065396 0.0001862145)
(2.054414 -0.0007968268 -0.001412071)
(2.768676 0.001987207 0.0005560983)
(3.406142 -0.002015509 -0.004262822)
(3.332386 0.00693086 -0.002010267)
(3.774624 -0.02150509 0.001446741)
(2.379106 -0.1869292 0.0839799)
(0.9679157 -0.00012818 -0.0002774798)
(2.33582 0.0003370386 -1.729397e-05)
(3.335347 -0.0005082195 -0.002501355)
(3.833624 0.001781413 -0.001116053)
(4.308947 -0.0008089211 -0.004682482)
(3.970696 0.00554418 -0.00543848)
(4.186371 -0.01577966 0.01265738)
(2.431954 -0.1246337 0.1450587)
(1.014007 1.239964e-05 -6.177056e-06)
(2.50703 -6.430654e-05 -0.0009148349)
(3.508538 0.0001850569 -0.0008952113)
(4.220174 -0.0001077089 -0.003478454)
(4.435407 0.0007899391 -0.003276106)
(4.653689 -6.648484e-05 -0.004831254)
(4.017349 0.002076782 -0.008866941)
(3.896351 -0.005247117 0.01840208)
(2.041615 -0.03677749 0.1448147)
(1.016423 2.18574e-05 -0.000161864)
(2.491747 -4.684229e-05 -0.0003520425)
(3.536301 4.199084e-05 -0.001830672)
(4.156276 -0.0002593616 -0.002155697)
(4.548426 1.419195e-06 -0.00427648)
(4.464936 -0.0009505112 -0.005405516)
(4.386426 -0.0001103569 -0.004649111)
(3.466344 -0.002043174 -0.01111977)
(2.92907 0.004289725 0.01518677)
(1.106286 0.02150164 0.03441321)
(0.9608863 2.102953e-05 -7.119924e-05)
(2.346395 7.004942e-05 -0.0006316127)
(3.288382 -0.0002413371 -0.001097105)
(3.904992 -1.193347e-05 -0.002694379)
(4.172414 -0.0009692286 -0.003456111)
(4.263989 -0.0003526722 -0.004864183)
(3.917152 -0.00311037 -0.007190589)
(3.550146 -0.000719548 -0.004240089)
(2.409991 -0.005132652 -0.01085243)
(1.41074 0.005041722 -0.006967239)
(0.004361931 0.0002780153 -0.004934452)
(0.8473575 4.179679e-05 -8.464543e-05)
(2.021458 -6.198696e-06 -0.0003968028)
(2.813731 3.019504e-05 -0.001239894)
(3.295365 -0.0004971938 -0.001885485)
(3.557074 -0.0002554259 -0.003328185)
(3.551431 -0.001770346 -0.004599596)
(3.411967 -0.00113813 -0.005395689)
(2.888766 -0.00513686 -0.008533631)
(2.291258 -0.001755808 -0.004785632)
(1.042742 -0.005326313 -0.01224275)
(0.005181568 4.830028e-06 -0.004886717)
(0.0005829964 -0.001090435 -0.008385933)
(0.6503825 2.93277e-05 -4.359621e-05)
(1.487604 2.127931e-05 -0.0002834019)
(2.023486 -7.615962e-05 -0.0007391205)
(2.353454 -6.420701e-05 -0.001539114)
(2.508042 -0.000622606 -0.002314276)
(2.538098 -0.000547303 -0.003558156)
(2.388497 -0.002232098 -0.005411775)
(2.139074 -0.002074871 -0.006180832)
(1.589781 -0.005732232 -0.01051543)
(0.8822311 -0.002926033 -0.01711717)
(0.003336678 -0.0001271924 -0.006408698)
(0.0007179182 -0.002036813 -0.009849524)
(0.00053808 -0.002809691 -0.009257404)
(0.3170813 2.273989e-05 -1.491358e-05)
(0.6505842 2.67891e-05 -8.680049e-05)
(0.8483708 4.039917e-05 -0.0002833831)
(0.9637214 -2.676045e-06 -0.0005638487)
(1.022499 3.904126e-05 -0.001029503)
(1.025227 -0.0002151085 -0.001690189)
(0.9869113 -0.0001605782 -0.002664738)
(0.87503 -0.0009169026 -0.004478717)
(0.711555 -0.0002660054 -0.007024966)
(0.3885963 -0.00554497 -0.02355941)
(0.002109851 -0.01003707 -0.008540966)
(0.0005012603 -0.008815011 -0.01258682)
(0.0006512607 -0.008677253 -0.009640876)
(0.0004952374 -0.008879581 -0.006204466)
(0.0004713006 -0.0126012 -0.001017609)
(0.0004972077 -0.01056118 -0.002023156)
(0.0003748901 -0.01024485 -0.00390992)
(0.000483254 -0.009868593 -0.001879188)
(0.0004181974 -0.01050297 -0.01266269)
(0.0004800759 -0.00607297 -0.0007159549)
(0.0004332668 -0.006311163 -0.001461571)
(0.0004470389 -0.00651802 -0.003198482)
(0.0003067286 -0.006823947 -0.00140085)
(0.0004223128 -0.007149248 -0.01093022)
(3.839491e-05 -0.0008669324 -0.004586924)
(0.000452857 -0.004409732 -0.0004536221)
(0.0004518274 -0.004584188 -0.0009398621)
(0.0003957216 -0.004757698 -0.002581795)
(0.0003932251 -0.004929877 -0.0009783295)
(0.0002667697 -0.005211037 -0.009774194)
(3.476043e-05 -0.0006082869 -0.00405075)
(3.022708e-05 -0.0006150237 -0.005287933)
(0.000462634 -0.002344817 -0.0004074061)
(0.0004407965 -0.002474946 -0.0008366464)
(0.0004318032 -0.002582603 -0.002366192)
(0.0003656592 -0.002706517 -0.0008661909)
(0.0003717063 -0.002834502 -0.00900611)
(2.268513e-05 -0.0003336146 -0.003685536)
(2.619144e-05 -0.0003242621 -0.004739902)
(2.690124e-05 -0.0003542268 -0.005122276)
(0.0004637773 -0.0007748252 -0.0003794062)
(0.0004583218 -0.0008131671 -0.000771141)
(0.0004299993 -0.0008499721 -0.002211637)
(0.0004132351 -0.0008781735 -0.000795646)
(0.0003563063 -0.000928924 -0.008418721)
(3.665615e-05 -0.0001081234 -0.003420675)
(1.770543e-05 -0.0001050976 -0.004343393)
(2.27126e-05 -0.0001119193 -0.004645166)
(2.495683e-05 -0.0001203506 -0.004577672)
(0.3240199 -0.000289158 -0.0002783381)
(0.6396539 0.0007435561 0.0006676833)
(0.885071 -0.001531795 -0.001708792)
(0.9009067 0.002524084 0.0003474542)
(1.129746 -0.006105539 -0.002629432)
(0.8621807 -0.07887869 0.004077994)
(0.6490481 0.0002123256 0.000194283)
(1.513244 -0.0007877602 -0.001148589)
(1.993439 0.001774754 0.0005933305)
(2.43449 -0.002150117 -0.003494335)
(2.356491 0.005917316 -0.001798626)
(2.705107 -0.01915088 0.001395262)
(1.833811 -0.1849047 0.07031947)
(0.8536839 -0.0001948739 -0.0002612543)
(2.016842 0.0004742067 4.191124e-05)
(2.850392 -0.0007842004 -0.002284775)
(3.250998 0.002366394 -0.0009855405)
(3.65228 -0.001470979 -0.004451523)
(3.354339 0.007739706 -0.005223584)
(3.592229 -0.01975439 0.0111959)
(2.172963 -0.1814975 0.1426263)
(0.9612777 3.414998e-05 -1.247404e-06)
(2.356435 -0.0001897343 -0.0008814686)
(3.28098 0.0005057559 -0.0008327273)
(3.936363 -0.0003434757 -0.003377476)
(4.12872 0.002138253 -0.003234835)
(4.336962 -0.000318782 -0.004846876)
(3.743494 0.00585153 -0.008795355)
(3.666166 -0.01385505 0.01810209)
(1.966097 -0.1051273 0.1455806)
(1.016423 -2.185763e-05 -0.000161864)
(2.491747 4.684204e-05 -0.0003520425)
(3.536301 -4.199074e-05 -0.001830672)
(4.156276 0.0002593615 -0.002155697)
(4.548426 -1.419251e-06 -0.004276481)
(4.464936 0.0009505113 -0.005405516)
(4.386426 0.0001103569 -0.004649111)
(3.466344 0.002043174 -0.01111977)
(2.92907 -0.004289725 0.01518677)
(1.106286 -0.02150164 0.03441321)
(1.013584 7.215272e-06 -7.628363e-05)
(2.496411 2.288708e-05 -0.0006620135)
(3.516166 -9.0904e-05 -0.001160414)
(4.187269 -1.375235e-05 -0.002795932)
(4.481347 -0.0003613999 -0.003536797)
(4.578436 -0.0001484474 -0.0048685)
(4.203476 -0.001129197 -0.007043531)
(3.794755 -0.0002613461 -0.003910398)
(2.568281 -0.001773493 -0.01058513)
(1.481673 0.001757741 -0.006570892)
(0.004480434 9.280851e-05 -0.004630833)
(0.9609075 2.586663e-05 -9.586551e-05)
(2.340699 -7.430409e-06 -0.0004696362)
(3.293762 9.844042e-07 -0.001411429)
(3.883286 -0.0004010912 -0.00212894)
(4.20341 -0.0002575102 -0.003624019)
(4.199583 -0.001361229 -0.004785814)
(4.021289 -0.0008988566 -0.005251469)
(3.389487 -0.003584371 -0.007976196)
(2.654901 -0.0009496202 -0.003546951)
(1.19158 -0.0029525 -0.01034715)
(0.005725868 1.463966e-05 -0.004253068)
(0.0005843029 -0.0003407064 -0.007377071)
(0.8462709 3.117033e-05 -6.640434e-05)
(2.021241 1.234186e-05 -0.0004083322)
(2.807198 -9.904865e-05 -0.001048943)
(3.300715 -0.0001311957 -0.002063234)
(3.536825 -0.0007967093 -0.002981915)
(3.579281 -0.0007560799 -0.004269694)
(3.356561 -0.002549024 -0.005908677)
(2.972947 -0.002155578 -0.005733718)
(2.173957 -0.005475706 -0.008478375)
(1.16105 -0.00144665 -0.009588755)
(0.004232544 -4.454643e-05 -0.004489897)
(0.0007321723 -0.001065318 -0.007241431)
(0.000545606 -0.001503492 -0.007989135)
(0.6499632 3.730278e-05 -5.027359e-05)
(1.485736 3.243838e-06 -0.0002561236)
(2.023262 -4.688775e-05 -0.0007306662)
(2.347742 -0.0001924555 -0.001382721)
(2.512636 -0.0002782442 -0.002314693)
(2.522623 -0.001029843 -0.003446155)
(2.409278 -0.001280058 -0.004736884)
(2.100172 -0.003330933 -0.006953984)
(1.642575 -0.003207459 -0.007863029)
(0.829273 -0.005157263 -0.01710256)
(0.003758308 -9.780851e-05 -0.00592173)
(0.0005256999 -0.001914058 -0.009089894)
(0.0006700221 -0.002633608 -0.008042917)
(0.0005092207 -0.003363018 -0.005020376)
(0.3167484 1.89883e-05 -1.144259e-05)
(0.6501644 3.39784e-05 -9.300271e-05)
(0.8472795 2.374813e-05 -0.0002644397)
(0.9637333 2.463854e-05 -0.0005506906)