/*--------------------------------*- C++ -*----------------------------------*\
| =========                 |                                                 |
| \\      /  F ield         | OpenFOAM: The Open Source CFD Toolbox           |
|  \\    /   O peration     | Version:  2306                                  |
|   \\  /    A nd           | Website:  www.openfoam.com                      |
|    \\/     M anipulation  |                                                 |
\*---------------------------------------------------------------------------*/
FoamFile
{
    version     2.0;
    format      ascii;
    arch        "LSB;label=32;scalar=64";
    class       volScalarField;
    location    "0.9/air";
    object      X.O2;
}
// * * * * * * * * * * * * * * * * * * * * * * * * * * * * * * * * * * * * * //

dimensions      [0 0 0 0 0 0 0];

internalField   nonuniform List<scalar> 
16000
(
0.2068959
0.2069047
0.2052925
0.2068536
0.2069155
0.2053881
0.2068679
0.2025955
0.205168
0.2067506
0.2069241
0.2055155
0.2068839
0.2027005
0.2052936
0.2067782
0.1998792
0.2024573
0.2048505
0.2065517
0.2069288
0.2056265
0.2068958
0.2028441
0.2054538
0.2068085
0.1999819
0.2025933
0.2050129
0.2066027
0.1972682
0.199742
0.2021139
0.2042803
0.2061934
0.2069288
0.2056897
0.2069019
0.2029716
0.2055894
0.2068306
0.2001227
0.2027714
0.2052184
0.2066611
0.1973659
0.1998745
0.202286
0.2044762
0.206277
0.1947898
0.1971379
0.1994029
0.2015082
0.2034114
0.2055865
0.1709566
0.2069241
0.2056897
0.2069019
0.203045
0.2056654
0.2068419
0.2002481
0.2029256
0.2053912
0.2067047
0.1974998
0.2000484
0.2025085
0.2047274
0.206381
0.1948818
0.1972638
0.199569
0.2017121
0.2036348
0.2056995
0.1924409
0.1946666
0.1968162
0.1988081
0.2005953
0.202205
0.2046322
0.1721634
0.1694043
0.170766
0.2069155
0.2056265
0.2068958
0.203045
0.2056654
0.2068419
0.2003205
0.2030133
0.2054875
0.206727
0.1976189
0.2001994
0.2026993
0.2049408
0.206462
0.1950079
0.1974288
0.199784
0.2019765
0.2039243
0.2058497
0.1925279
0.1947851
0.1969733
0.1990023
0.2008244
0.2024605
0.2047806
0.190209
0.1923247
0.1943625
0.1962527
0.197918
0.1993428
0.2006114
0.203198
0.1746023
0.1704824
0.1719682
0.1686856
0.1692304
0.1703854
0.2069047
0.2055155
0.2068839
0.2029716
0.2055894
0.2068306
0.2003205
0.2030133
0.2054875
0.206727
0.1976876
0.2002855
0.202807
0.2050605
0.2065042
0.1951201
0.197572
0.1999688
0.2022035
0.2041749
0.2059786
0.1926471
0.1949405
0.1971765
0.1992542
0.2011242
0.2027933
0.2049868
0.1902914
0.1924367
0.1945104
0.1964356
0.1981328
0.1995932
0.2009066
0.203416
0.1880814
0.1900988
0.1920376
0.1938301
0.1954115
0.1967074
0.1977272
0.1985784
0.2010798
0.178366
0.172656
0.1743916
0.1696836
0.1703051
0.1715798
0.168075
0.1685257
0.1688833
0.1698162
0.2068959
0.2053881
0.2068679
0.2028441
0.2054538
0.2068085
0.2002481
0.2029256
0.2053912
0.2067047
0.1976876
0.2002855
0.202807
0.2050605
0.2065042
0.1951848
0.1976535
0.2000734
0.2023316
0.2043171
0.206051
0.1927531
0.1950753
0.1973509
0.1994709
0.2013829
0.2030793
0.2051689
0.1904043
0.1925835
0.1947016
0.1966724
0.1984139
0.1999243
0.201293
0.2037167
0.1881598
0.190205
0.1921775
0.1940021
0.1956129
0.1969383
0.1980037
0.1989426
0.2014854
0.1860467
0.1879767
0.1898267
0.1915351
0.1930358
0.1942704
0.1951617
0.1957261
0.1960337
0.1978946
0.1838126
0.1759946
0.1780961
0.1716951
0.1724665
0.1739771
0.1690055
0.1695208
0.1699521
0.171001
0.167398
0.1679262
0.1682065
0.1683638
0.1690598
0.2052925
0.2068536
0.2027005
0.2052936
0.2067782
0.2001227
0.2027714
0.2052184
0.2066611
0.1976189
0.2001994
0.2026993
0.2049408
0.206462
0.1951848
0.1976535
0.2000734
0.2023316
0.2043171
0.206051
0.1928142
0.195152
0.1974495
0.1995935
0.2015293
0.203241
0.2052731
0.1905048
0.1927109
0.1948656
0.1968757
0.1986568
0.2002114
0.2016246
0.2039765
0.1882673
0.1903441
0.1923581
0.1942247
0.1958757
0.1972438
0.198372
0.1994127
0.2019762
0.1861216
0.1880777
0.1899593
0.1916978
0.1932251
0.194486
0.1954135
0.1960578
0.1965654
0.1988603
0.1840953
0.1859468
0.1877179
0.1893501
0.1907851
0.1919588
0.1928168
0.1932668
0.193294
0.1928219
0.1927052
0.1807855
0.1832547
0.1747824
0.1757567
0.1775937
0.1708804
0.1715214
0.1720932
0.1733689
0.1682719
0.1688541
0.1691965
0.1694257
0.1702348
0.1666065
0.1672583
0.1676291
0.1677286
0.1676732
0.1679711
0.2025955
0.205168
0.2067506
0.1999819
0.2025933
0.2050129
0.2066027
0.1974998
0.2000484
0.2025085
0.2047274
0.206381
0.1951201
0.197572
0.1999688
0.2022035
0.2041749
0.2059786
0.1928142
0.195152
0.1974495
0.1995935
0.2015293
0.203241
0.2052731
0.1905626
0.1927833
0.1949583
0.1969906
0.1987946
0.2003744
0.2018116
0.2041231
0.1883628
0.1904648
0.192513
0.1944157
0.1961024
0.1975094
0.1986918
0.1998096
0.2023648
0.1862241
0.1882101
0.1901305
0.1919081
0.1934719
0.1947707
0.1957496
0.1964926
0.1971954
0.1997255
0.1841669
0.1860432
0.1878442
0.1895045
0.1909643
0.1921615
0.1930518
0.1935684
0.1937772
0.1938352
0.1954656
0.1822194
0.1839997
0.1856999
0.1872647
0.1886386
0.1897679
0.1905876
0.1910379
0.1909852
0.1902978
0.188482
0.1901142
0.1792079
0.1803072
0.1824235
0.1737571
0.1745649
0.1753122
0.1768976
0.1700327
0.170719
0.1711792
0.1715446
0.1725763
0.1674315
0.1681299
0.1685524
0.1687128
0.1687284
0.1691359
0.1657377
0.1664746
0.1669793
0.1671842
0.1670931
0.1666786
0.1677467
0.1998792
0.2024573
0.2048505
0.2065517
0.1973659
0.1998745
0.202286
0.2044762
0.206277
0.1950079
0.1974288
0.199784
0.2019765
0.2039243
0.2058497
0.1927531
0.1950753
0.1973509
0.1994709
0.2013829
0.2030793
0.2051689
0.1905626
0.1927833
0.1949583
0.1969906
0.1987946
0.2003744
0.2018116
0.2041231
0.1884178
0.1905334
0.1926006
0.1945236
0.1962308
0.1976605
0.1988731
0.2000311
0.2025736
0.1863152
0.1883249
0.1902773
0.1920885
0.1936847
0.1950176
0.1960424
0.1968636
0.1976982
0.2003162
0.184265
0.1861696
0.1880071
0.189704
0.1911977
0.1924289
0.1933647
0.193965
0.1943543
0.194778
0.196931
0.1822882
0.184092
0.1858205
0.1874118
0.1888088
0.18996
0.1908087
0.19132
0.1914289
0.1912285
0.1910171
0.1933571
0.1804124
0.1821278
0.1837635
0.1852673
0.1865879
0.1876732
0.1884721
0.1889102
0.188898
0.1881928
0.1863057
0.1863006
0.1881003
0.177878
0.1787701
0.1795898
0.1814569
0.1727337
0.1735552
0.1741583
0.1746936
0.1760373
0.1690937
0.1698814
0.1704012
0.1706762
0.1708282
0.1714548
0.1665204
0.1672974
0.1678468
0.1681024
0.1680719
0.1677274
0.1689096
0.1648088
0.1656126
0.1662111
0.1665617
0.1665926
0.1661778
0.1664737
0.1675205
0.1972682
0.199742
0.2021139
0.2042803
0.2061934
0.1948818
0.1972638
0.199569
0.2017121
0.2036348
0.2056995
0.1926471
0.1949405
0.1971765
0.1992542
0.2011242
0.2027933
0.2049868
0.1905048
0.1927109
0.1948656
0.1968757
0.1986568
0.2002114
0.2016246
0.2039765
0.1884178
0.1905334
0.1926006
0.1945236
0.1962308
0.1976605
0.1988731
0.2000311
0.2025736
0.1863678
0.1883902
0.1903603
0.1921904
0.1938053
0.1951578
0.1962088
0.1970715
0.1979703
0.2006115
0.1843523
0.1862791
0.1881469
0.1898751
0.1913988
0.1926607
0.1936366
0.1943043
0.1948178
0.1954468
0.1977801
0.1823823
0.184213
0.185976
0.1876018
0.1890305
0.1902132
0.191103
0.19169
0.1919594
0.1920959
0.1924507
0.1951319
0.1804785
0.1822163
0.1838789
0.1854078
0.1867501
0.1878559
0.1886819
0.189176
0.1893141
0.189056
0.1886464
0.1892454
0.1914898
0.1786684
0.1803243
0.1819012
0.1833496
0.1846211
0.1856689
0.1864426
0.1868855
0.1868926
0.1862793
0.1844825
0.1843021
0.1845949
0.1864529
0.1766019
0.1774719
0.1781142
0.1787492
0.1804209
0.171643
0.1725447
0.1731781
0.1735926
0.1739255
0.1748732
0.1680971
0.1689509
0.1695833
0.1699337
0.1700191
0.1698128
0.1712239
0.1655539
0.1663931
0.1670301
0.1674245
0.167506
0.1671517
0.1675212
0.1686813
0.1638433
0.1646896
0.1653626
0.1658166
0.1660062
0.1657403
0.1659892
0.166267
0.1672924
0.1947898
0.1971379
0.1994029
0.2015082
0.2034114
0.2055865
0.1925279
0.1947851
0.1969733
0.1990023
0.2008244
0.2024605
0.2047806
0.1904043
0.1925835
0.1947016
0.1966724
0.1984139
0.1999243
0.201293
0.2037167
0.1883628
0.1904648
0.192513
0.1944157
0.1961024
0.1975094
0.1986918
0.1998096
0.2023648
0.1863678
0.1883902
0.1903603
0.1921904
0.1938053
0.1951578
0.1962088
0.1970715
0.1979703
0.2006115
0.1844026
0.1863414
0.1882258
0.1899717
0.1915126
0.1927923
0.1937908
0.1944948
0.1950692
0.1957889
0.1981779
0.182466
0.1843178
0.1861094
0.1877647
0.1892214
0.1904325
0.1913585
0.1920057
0.1923858
0.1927126
0.193321
0.1961336
0.1805689
0.1823324
0.1840279
0.1855893
0.1869614
0.1880965
0.188961
0.1895246
0.1898106
0.1898598
0.1899719
0.1909349
0.1934654
0.1787321
0.1804095
0.182012
0.1834842
0.1847762
0.1858434
0.1866425
0.1871382
0.1872854
0.1870898
0.186661
0.1870245
0.1876685
0.189855
0.1769826
0.1785836
0.1801066
0.1815041
0.182731
0.1837433
0.1844969
0.1849351
0.1849754
0.1844235
0.1827997
0.1826215
0.1827392
0.1831895
0.1850626
0.1752933
0.1762216
0.1768638
0.1773467
0.1778411
0.1791766
0.1705151
0.1714647
0.1721913
0.1726533
0.1728903
0.172882
0.1746339
0.1670548
0.1679617
0.1686696
0.169145
0.1693231
0.1690877
0.1696037
0.1709913
0.1645549
0.1654327
0.1661396
0.1666313
0.1668647
0.1666498
0.1669621
0.1673133
0.1684512
0.1628526
0.1637295
0.1644515
0.1649883
0.1652919
0.165206
0.1655647
0.165799
0.1660586
0.1670624
0.1924409
0.1946666
0.1968162
0.1988081
0.2005953
0.202205
0.2046322
0.1902914
0.1924367
0.1945104
0.1964356
0.1981328
0.1995932
0.2009066
0.203416
0.1882673
0.1903441
0.1923581
0.1942247
0.1958757
0.1972438
0.198372
0.1994127
0.2019762
0.1863152
0.1883249
0.1902773
0.1920885
0.1936847
0.1950176
0.1960424
0.1968636
0.1976982
0.2003162
0.1844026
0.1863414
0.1882258
0.1899717
0.1915126
0.1927923
0.1937908
0.1944948
0.1950692
0.1957889
0.1981779
0.1825142
0.1843774
0.1861847
0.1878566
0.1893294
0.1905569
0.1915035
0.1921827
0.1926173
0.1930285
0.1937403
0.196594
0.1806494
0.1824329
0.1841556
0.1857449
0.1871434
0.188305
0.1892031
0.189822
0.1902089
0.1904311
0.1907778
0.1919274
0.1945833
0.1788192
0.180521
0.1821549
0.1836581
0.1849782
0.1860731
0.1869082
0.1874692
0.1877541
0.1878439
0.187894
0.188589
0.1895266
0.1919443
0.177044
0.1786656
0.1802131
0.1816334
0.1828797
0.1839102
0.184688
0.185176
0.1853487
0.1851889
0.1848455
0.1851569
0.185584
0.1862807
0.188436
0.1753505
0.1769007
0.1783739
0.1797248
0.1809106
0.1818905
0.1826232
0.1830601
0.183119
0.1826356
0.1811417
0.1810551
0.1811714
0.1814552
0.1819933
0.1836929
0.1739772
0.174935
0.1756522
0.1761525
0.1765186
0.1767417
0.1789221
0.1693567
0.1703462
0.1711316
0.1716997
0.1720016
0.1719362
0.1726674
0.1743932
0.1659884
0.166926
0.167695
0.1682559
0.1685723
0.1684574
0.1688959
0.169393
0.1707568
0.163534
0.1644392
0.1651913
0.1657613
0.1661028
0.166061
0.1664734
0.166771
0.1671036
0.1682192
0.1618478
0.1627436
0.163502
0.1640951
0.1644903
0.164536
0.1650411
0.1653877
0.1656073
0.1658485
0.1667817
0.190209
0.1923247
0.1943625
0.1962527
0.197918
0.1993428
0.2006114
0.203198
0.1881598
0.190205
0.1921775
0.1940021
0.1956129
0.1969383
0.1980037
0.1989426
0.2014854
0.1862241
0.1882101
0.1901305
0.1919081
0.1934719
0.1947707
0.1957496
0.1964926
0.1971954
0.1997255
0.1843523
0.1862791
0.1881469
0.1898751
0.1913988
0.1926607
0.1936366
0.1943043
0.1948178
0.1954468
0.1977801
0.1825142
0.1843774
0.1861847
0.1878566
0.1893294
0.1905569
0.1915035
0.1921827
0.1926173
0.1930285
0.1937403
0.196594
0.1806958
0.1824901
0.1842277
0.1858327
0.1872463
0.1884233
0.1893404
0.1899888
0.1904248
0.1907237
0.1911665
0.1923954
0.1950934
0.1788967
0.1806177
0.1822775
0.1838071
0.1851521
0.186272
0.1871387
0.1877514
0.18813
0.1883792
0.1886432
0.1895094
0.1906142
0.1931388
0.177128
0.1787731
0.1803505
0.1818003
0.1830734
0.1841301
0.1849419
0.1854915
0.1857939
0.1859012
0.1860032
0.1866139
0.1873069
0.1882378
0.1905738
0.1754098
0.1769799
0.1784766
0.1798492
0.1810535
0.1820507
0.1828063
0.1832905
0.1834749
0.1833624
0.1830732
0.1834363
0.1838222
0.1843199
0.18507
0.1870303
0.1737684
0.1752715
0.1766985
0.1780063
0.1791541
0.1801038
0.1808175
0.1812494
0.1813278
0.1808932
0.1795239
0.1794965
0.1796964
0.1799812
0.1803657
0.1808034
0.183415
0.1726521
0.1736377
0.1743983
0.1749862
0.1753853
0.1755173
0.1765167
0.1786673
0.1681866
0.169196
0.1700305
0.1706679
0.1710891
0.1711163
0.17174
0.1724516
0.1741511
0.1649065
0.1658653
0.1666721
0.1673027
0.1677155
0.1677604
0.1682792
0.1687027
0.1691807
0.1705205
0.1625017
0.1634232
0.1642086
0.1648311
0.1652598
0.1653438
0.1658955
0.1662955
0.1665783
0.1668923
0.1679361
0.1608354
0.1617432
0.1625258
0.1631616
0.1636208
0.1637731
0.1643803
0.1648748
0.1652091
0.1654139
0.1655921
0.1664947
0.1880814
0.1900988
0.1920376
0.1938301
0.1954115
0.1967074
0.1977272
0.1985784
0.2010798
0.1861216
0.1880777
0.1899593
0.1916978
0.1932251
0.194486
0.1954135
0.1960578
0.1965654
0.1988603
0.184265
0.1861696
0.1880071
0.189704
0.1911977
0.1924289
0.1933647
0.193965
0.1943543
0.194778
0.196931
0.182466
0.1843178
0.1861094
0.1877647
0.1892214
0.1904325
0.1913585
0.1920057
0.1923858
0.1927126
0.193321
0.1961336
0.1806958
0.1824901
0.1842277
0.1858327
0.1872463
0.1884233
0.1893404
0.1899888
0.1904248
0.1907237
0.1911665
0.1923954
0.1950934
0.1789413
0.1806727
0.1823467
0.1838912
0.1852505
0.1863848
0.1872693
0.1879095
0.1883338
0.1886531
0.1890045
0.189944
0.1911222
0.1936833
0.1772028
0.1788662
0.1804683
0.1819433
0.1832401
0.1843204
0.1851621
0.1857604
0.1861509
0.1864069
0.1867064
0.1874708
0.1883171
0.1893906
0.1918063
0.175491
0.1770835
0.178609
0.1800098
0.1812395
0.1822616
0.1830496
0.1835923
0.1838994
0.1840389
0.1841668
0.1848048
0.185428
0.186137
0.1870742
0.1891643
0.1738258
0.1753479
0.1767975
0.1781261
0.1792917
0.1802579
0.1809933
0.1814704
0.1816683
0.1815858
0.181357
0.1817449
0.1821864
0.1826521
0.1832208
0.1838645
0.1867452
0.1722328
0.1736919
0.1750761
0.1763438
0.1774565
0.1783782
0.1790735
0.1795007
0.1795923
0.1792033
0.177932
0.1779643
0.1782156
0.1785819
0.1789726
0.1792863
0.1805619
0.183139
0.1713336
0.1723292
0.1731292
0.1737707
0.1742681
0.1744582
0.1753125
0.1762913
0.178412
0.1670112
0.1680332
0.1688956
0.169591
0.1700921
0.1702596
0.1709343
0.1715427
0.1722345
0.1739075
0.1638189
0.1647887
0.1656229
0.1662987
0.1667901
0.1669491
0.1675932
0.1680995
0.1685079
0.1689667
0.1702324
0.1614642
0.1623954
0.1632024
0.1638646
0.1643536
0.1645398
0.1651875
0.1657285
0.1661162
0.166384
0.1666344
0.1676466
0.1598204
0.1607348
0.1615341
0.1621997
0.1627085
0.1629377
0.1636253
0.1642232
0.1647072
0.1650291
0.1651779
0.16533
0.1662766
0.1860467
0.1879767
0.1898267
0.1915351
0.1930358
0.1942704
0.1951617
0.1957261
0.1960337
0.1978946
0.1841669
0.1860432
0.1878442
0.1895045
0.1909643
0.1921615
0.1930518
0.1935684
0.1937772
0.1938352
0.1954656
0.1823823
0.184213
0.185976
0.1876018
0.1890305
0.1902132
0.191103
0.19169
0.1919594
0.1920959
0.1924507
0.1951319
0.1806494
0.1824329
0.1841556
0.1857449
0.1871434
0.188305
0.1892031
0.189822
0.1902089
0.1904311
0.1907778
0.1919274
0.1945833
0.1789413
0.1806727
0.1823467
0.1838912
0.1852505
0.1863848
0.1872693
0.1879095
0.1883338
0.1886531
0.1890045
0.189944
0.1911222
0.1936833
0.1772458
0.1789191
0.1805349
0.1820241
0.1833344
0.1844284
0.1852869
0.1859111
0.1863443
0.1866657
0.1870452
0.1878753
0.1887896
0.1899274
0.1923685
0.1755632
0.1771734
0.1787224
0.1801473
0.1813996
0.1824442
0.1832605
0.1838494
0.1842398
0.1845191
0.1848311
0.1856095
0.1863695
0.1872094
0.1882626
0.1903979
0.1739044
0.1754481
0.1769253
0.1782808
0.1794707
0.1804607
0.1812269
0.1817597
0.1820743
0.1822305
0.1823952
0.1830375
0.183695
0.1843468
0.1850847
0.1858768
0.188878
0.1722884
0.1737659
0.1751718
0.1764595
0.1775891
0.1785266
0.1792427
0.1797131
0.1799187
0.1798654
0.1796777
0.1800979
0.1805669
0.1810913
0.1816361
0.1821319
0.1836199
0.186462
0.1707408
0.1721588
0.1735029
0.1747334
0.1758134
0.1767089
0.177387
0.1778087
0.1779116
0.177559
0.1763759
0.1764479
0.1767503
0.1771653
0.1776381
0.1779748
0.1790673
0.1803219
0.1828647
0.1700242
0.1710254
0.1718455
0.1725346
0.1730939
0.1734004
0.1742685
0.1751073
0.1760656
0.1781564
0.1658387
0.1668644
0.1677465
0.1684775
0.1690453
0.1693098
0.1700891
0.1707512
0.1713442
0.172016
0.173611
0.1627308
0.1637059
0.1645566
0.1652664
0.1658108
0.1660634
0.1667913
0.1674247
0.1679185
0.1683116
0.1687058
0.1699377
0.1604261
0.1613619
0.1621835
0.162873
0.1634085
0.163668
0.1643915
0.1650298
0.1655602
0.1659354
0.1661469
0.1663708
0.1674267
0.1588062
0.1597234
0.1605337
0.1612212
0.1617658
0.162056
0.162797
0.1634763
0.1640649
0.1645381
0.1648094
0.1649368
0.1651311
0.1661288
0.1840953
0.1859468
0.1877179
0.1893501
0.1907851
0.1919588
0.1928168
0.1932668
0.193294
0.1928219
0.1927052
0.1822882
0.184092
0.1858205
0.1874118
0.1888088
0.18996
0.1908087
0.19132
0.1914289
0.1912285
0.1910171
0.1933571
0.1805689
0.1823324
0.1840279
0.1855893
0.1869614
0.1880965
0.188961
0.1895246
0.1898106
0.1898598
0.1899719
0.1909349
0.1934654
0.1788967
0.1806177
0.1822775
0.1838071
0.1851521
0.186272
0.1871387
0.1877514
0.18813
0.1883792
0.1886432
0.1895094
0.1906142
0.1931388
0.1772458
0.1789191
0.1805349
0.1820241
0.1833344
0.1844284
0.1852869
0.1859111
0.1863443
0.1866657
0.1870452
0.1878753
0.1887896
0.1899274
0.1923685
0.1756049
0.1772245
0.1787865
0.180225
0.1814902
0.1825478
0.18338
0.1839934
0.1844242
0.1847647
0.1851513
0.1859892
0.1868097
0.1877094
0.1888157
0.1909606
0.1739742
0.1755349
0.1770348
0.1784134
0.1796248
0.1806362
0.1814294
0.1820061
0.1823998
0.1826882
0.1830259
0.1837978
0.1845795
0.1853471
0.1861919
0.1870732
0.1901113
0.1723646
0.1738628
0.1752953
0.1766089
0.1777618
0.1787219
0.1794675
0.179991
0.180308
0.1804818
0.1806669
0.1813251
0.1819921
0.1826839
0.1833755
0.184007
0.1856335
0.188593
0.1707947
0.1722305
0.1735956
0.1748452
0.1759414
0.1768521
0.1775501
0.1780131
0.1782252
0.1781934
0.1780438
0.1784798
0.1789817
0.1795352
0.1801412
0.1806313
0.181911
0.1833769
0.1861806
0.1692894
0.170669
0.1719757
0.1731714
0.1742208
0.1750919
0.1757536
0.1761697
0.1762816
0.175961
0.1748521
0.174959
0.1752929
0.1757552
0.176276
0.1767052
0.1777724
0.1788496
0.1800834
0.1825922
0.1687301
0.1697293
0.1705639
0.1712799
0.1718934
0.1722762
0.1732229
0.1740785
0.1749017
0.1758395
0.1778466
0.164673
0.1656979
0.16659
0.1673474
0.1679582
0.1683038
0.169149
0.1699176
0.170567
0.1711444
0.1717499
0.1733076
0.1616462
0.1626221
0.1634832
0.1642153
0.1648005
0.165119
0.1659138
0.1666323
0.1672549
0.1677361
0.1680722
0.168439
0.1697137
0.1593906
0.1603276
0.1611582
0.1618673
0.1624362
0.1627536
0.1635267
0.1642419
0.1648709
0.1653905
0.1657148
0.1659047
0.1661707
0.1672775
0.1577955
0.1587126
0.1595298
0.1602328
0.1608047
0.1611409
0.1619216
0.1626551
0.163326
0.1639052
0.1643318
0.164585
0.1647539
0.1649963
0.1660534
0.1838126
0.1822194
0.1839997
0.1856999
0.1872647
0.1886386
0.1897679
0.1905876
0.1910379
0.1909852
0.1902978
0.188482
0.1901142
0.1804785
0.1822163
0.1838789
0.1854078
0.1867501
0.1878559
0.1886819
0.189176
0.1893141
0.189056
0.1886464
0.1892454
0.1914898
0.1788192
0.180521
0.1821549
0.1836581
0.1849782
0.1860731
0.1869082
0.1874692
0.1877541
0.1878439
0.187894
0.188589
0.1895266
0.1919443
0.1772028
0.1788662
0.1804683
0.1819433
0.1832401
0.1843204
0.1851621
0.1857604
0.1861509
0.1864069
0.1867064
0.1874708
0.1883171
0.1893906
0.1918063
0.1756049
0.1772245
0.1787865
0.180225
0.1814902
0.1825478
0.18338
0.1839934
0.1844242
0.1847647
0.1851513
0.1859892
0.1868097
0.1877094
0.1888157
0.1909606
0.1740145
0.1755842
0.1770966
0.1784882
0.179712
0.1807357
0.1815442
0.1821441
0.1825761
0.1829224
0.1833299
0.1841566
0.1849931
0.1858135
0.1867081
0.1876303
0.190674
0.1724323
0.1739468
0.1754011
0.1767368
0.1779103
0.1788909
0.1796623
0.1802278
0.18062
0.1809194
0.1812678
0.1820469
0.1828278
0.1836239
0.184409
0.1851243
0.1868312
0.1898259
0.1708686
0.1723244
0.173715
0.1749896
0.1761082
0.1770405
0.1777667
0.1782807
0.1785993
0.1787842
0.1789892
0.1796488
0.1803346
0.1810398
0.1817762
0.1823826
0.1837881
0.1853914
0.1883094
0.1693418
0.1707385
0.1720655
0.1732796
0.1743447
0.1752302
0.175911
0.1763668
0.1765835
0.1765702
0.1764497
0.1769003
0.177418
0.1780043
0.1786404
0.1792025
0.1804275
0.1816916
0.1831355
0.1859011
0.1678763
0.1692197
0.1704914
0.1716545
0.1726754
0.1735235
0.1741697
0.1745799
0.1746994
0.1744064
0.1733635
0.1734958
0.1738565
0.1743463
0.1749128
0.1753975
0.176516
0.1775712
0.1786334
0.1798463
0.1822645
0.1674533
0.1684473
0.1692877
0.1700241
0.1706701
0.1711188
0.1721089
0.1730451
0.1738881
0.1746959
0.1755653
0.1775296
0.1635171
0.1645376
0.1654346
0.166208
0.1668517
0.1672527
0.1681514
0.1689872
0.169745
0.1703816
0.1709012
0.171478
0.173077
0.1605678
0.1615415
0.162408
0.1631557
0.1637693
0.16414
0.1649766
0.165763
0.1664721
0.1670838
0.1675136
0.1678277
0.1682365
0.1695619
0.1583602
0.1592956
0.1601313
0.1608542
0.1614481
0.1618091
0.1626188
0.1633843
0.1640911
0.1647106
0.1651834
0.1654895
0.1657209
0.1660352
0.1672014
0.1567901
0.1577051
0.1585258
0.1592398
0.1598322
0.1602049
0.1610122
0.161786
0.162512
0.1631745
0.1637103
0.1641212
0.1644148
0.1646302
0.1649277
0.178366
0.1807855
0.1832547
0.1804124
0.1821278
0.1837635
0.1852673
0.1865879
0.1876732
0.1884721
0.1889102
0.188898
0.1881928
0.1863057
0.1863006
0.1881003
0.1787321
0.1804095
0.182012
0.1834842
0.1847762
0.1858434
0.1866425
0.1871382
0.1872854
0.1870898
0.186661
0.1870245
0.1876685
0.189855
0.177128
0.1787731
0.1803505
0.1818003
0.1830734
0.1841301
0.1849419
0.1854915
0.1857939
0.1859012
0.1860032
0.1866139
0.1873069
0.1882378
0.1905738
0.1755632
0.1771734
0.1787224
0.1801473
0.1813996
0.1824442
0.1832605
0.1838494
0.1842398
0.1845191
0.1848311
0.1856095
0.1863695
0.1872094
0.1882626
0.1903979
0.1740145
0.1755842
0.1770966
0.1784882
0.179712
0.1807357
0.1815442
0.1821441
0.1825761
0.1829224
0.1833299
0.1841566
0.1849931
0.1858135
0.1867081
0.1876303
0.190674
0.1724712
0.1739946
0.1754608
0.176809
0.1779944
0.1789868
0.1797727
0.1803604
0.180789
0.1811433
0.1815576
0.1823875
0.1832185
0.1840622
0.1848909
0.1856454
0.187389
0.1903883
0.1709342
0.1724057
0.1738174
0.1751133
0.1762516
0.1772035
0.1779544
0.1785085
0.1788991
0.1792036
0.1795636
0.1803366
0.1811279
0.181928
0.1827477
0.1834263
0.1849071
0.1865902
0.1895414
0.1694135
0.1708296
0.1721812
0.1734194
0.1745059
0.1754122
0.1761201
0.1766247
0.1769436
0.1771377
0.1773555
0.1780174
0.1787067
0.1794326
0.1801851
0.1808492
0.1821809
0.1835703
0.1851505
0.1880272
0.1679272
0.1692873
0.1705785
0.1717594
0.1727953
0.1736573
0.1743219
0.1747703
0.1749905
0.1749926
0.1748972
0.1753551
0.1758867
0.1764884
0.1771568
0.1777568
0.1790122
0.1802251
0.1814737
0.1828956
0.185565
0.166499
0.1678086
0.1690473
0.1701799
0.171174
0.1720005
0.172632
0.1730364
0.173162
0.1728934
0.1719089
0.1720621
0.1724406
0.172953
0.1735452
0.1740809
0.1752193
0.176328
0.1773714
0.1784185
0.1795611
0.1819293
0.1661953
0.1671814
0.1680237
0.1687712
0.1694421
0.1699334
0.1709604
0.1719414
0.172867
0.1736975
0.1744463
0.1752851
0.1772887
0.162373
0.1633868
0.1642846
0.1650682
0.1657336
0.1661783
0.1671077
0.1679981
0.1688245
0.1695713
0.170156
0.1706526
0.1712714
0.1729206
0.1594977
0.1604669
0.1613354
0.1620932
0.1627277
0.1631369
0.164004
0.1648331
0.165611
0.1663106
0.1668752
0.1672863
0.1676421
0.1680993
0.1694844
0.1573365
0.1582684
0.1591062
0.1598385
0.1604511
0.1608463
0.16168
0.1624827
0.1632407
0.1639391
0.1645151
0.164972
0.1653186
0.1655965
0.1659661
0.1557913
0.1567026
0.1575245
0.158246
0.1588539
0.1592554
0.1600813
0.1608823
0.1616493
0.1623677
0.1629896
0.1635114
0.1639615
0.1642997
0.1645671
0.1746023
0.1759946
0.1780961
0.1792079
0.1803072
0.1824235
0.1786684
0.1803243
0.1819012
0.1833496
0.1846211
0.1856689
0.1864426
0.1868855
0.1868926
0.1862793
0.1844825
0.1843021
0.1845949
0.1864529
0.177044
0.1786656
0.1802131
0.1816334
0.1828797
0.1839102
0.184688
0.185176
0.1853487
0.1851889
0.1848455
0.1851569
0.185584
0.1862807
0.188436
0.175491
0.1770835
0.178609
0.1800098
0.1812395
0.1822616
0.1830496
0.1835923
0.1838994
0.1840389
0.1841668
0.1848048
0.185428
0.186137
0.1870742
0.1891643
0.1739742
0.1755349
0.1770348
0.1784134
0.1796248
0.1806362
0.1814294
0.1820061
0.1823998
0.1826882
0.1830259
0.1837978
0.1845795
0.1853471
0.1861919
0.1870732
0.1901113
0.1724712
0.1739946
0.1754608
0.176809
0.1779944
0.1789868
0.1797727
0.1803604
0.180789
0.1811433
0.1815576
0.1823875
0.1832185
0.1840622
0.1848909
0.1856454
0.187389
0.1903883
0.170972
0.172452
0.1738752
0.1751831
0.1763327
0.177296
0.1780608
0.1786361
0.1790615
0.1794182
0.1798405
0.1806612
0.1814989
0.1823421
0.1832007
0.1839132
0.1854291
0.1871485
0.1901034
0.1694772
0.1709085
0.1722804
0.1735391
0.1746446
0.1755697
0.1763013
0.1768444
0.1772321
0.1775406
0.177906
0.1786747
0.1794626
0.1802758
0.1811032
0.1818307
0.1832265
0.1846909
0.1863501
0.189258
0.1679969
0.1693757
0.1706908
0.1718949
0.1729514
0.1738334
0.174524
0.1750194
0.1753377
0.1755388
0.175767
0.1764254
0.1771182
0.1778489
0.1786232
0.1793128
0.1806609
0.1819802
0.1833537
0.1849109
0.1876874
0.1665485
0.1678742
0.1691319
0.1702817
0.1712903
0.1721302
0.1727793
0.1732205
0.1734431
0.1734585
0.1733841
0.173847
0.1743851
0.1749995
0.1756824
0.1763203
0.1775776
0.1788231
0.1800241
0.1812573
0.1826072
0.1852211
0.1651555
0.1664331
0.167641
0.1687449
0.1697138
0.17052
0.1711375
0.1715361
0.1716668
0.1714198
0.1704876
0.1706575
0.1710497
0.171576
0.1721886
0.1727543
0.1739122
0.1750422
0.1761411
0.1771729
0.1781601
0.1792696
0.1816745
0.164957
0.1659336
0.1667742
0.1675282
0.1682143
0.1687392
0.1697827
0.1708017
0.1717735
0.1726886
0.1734664
0.1741913
0.1750721
0.1771252
0.161242
0.1622473
0.1631431
0.1639324
0.1646131
0.1650891
0.1660399
0.1669618
0.1678438
0.1686607
0.1693599
0.1699254
0.170464
0.1711315
0.1728407
0.1584371
0.1594002
0.160268
0.1610321
0.1616816
0.1621209
0.1630067
0.1638669
0.1646884
0.1654579
0.1661136
0.1666621
0.167114
0.1675164
0.1680293
0.1563207
0.1572476
0.1580854
0.1588236
0.1594501
0.1598724
0.1607224
0.1615497
0.1623456
0.163096
0.1637536
0.1643155
0.1648117
0.165203
0.1655332
0.1548001
0.1557066
0.1565279
0.1572542
0.1578737
0.1582982
0.1591366
0.1599567
0.1607514
0.1615114
0.1621916
0.1628008
0.1633606
0.1638535
0.1642411
0.1721634
0.172656
0.1743916
0.1747824
0.1757567
0.1775937
0.177878
0.1787701
0.1795898
0.1814569
0.1769826
0.1785836
0.1801066
0.1815041
0.182731
0.1837433
0.1844969
0.1849351
0.1849754
0.1844235
0.1827997
0.1826215
0.1827392
0.1831895
0.1850626
0.1754098
0.1769799
0.1784766
0.1798492
0.1810535
0.1820507
0.1828063
0.1832905
0.1834749
0.1833624
0.1830732
0.1834363
0.1838222
0.1843199
0.18507
0.1870303
0.1739044
0.1754481
0.1769253
0.1782808
0.1794707
0.1804607
0.1812269
0.1817597
0.1820743
0.1822305
0.1823952
0.1830375
0.183695
0.1843468
0.1850847
0.1858768
0.188878
0.1724323
0.1739468
0.1754011
0.1767368
0.1779103
0.1788909
0.1796623
0.1802278
0.18062
0.1809194
0.1812678
0.1820469
0.1828278
0.1836239
0.184409
0.1851243
0.1868312
0.1898259
0.170972
0.172452
0.1738752
0.1751831
0.1763327
0.177296
0.1780608
0.1786361
0.1790615
0.1794182
0.1798405
0.1806612
0.1814989
0.1823421
0.1832007
0.1839132
0.1854291
0.1871485
0.1901034
0.169514
0.1709534
0.1723364
0.1736066
0.174723
0.1756591
0.1764039
0.1769674
0.1773884
0.1777468
0.1781713
0.178985
0.1798161
0.180669
0.1815313
0.1822886
0.1837143
0.1852137
0.1869089
0.1898194
0.1680588
0.1694523
0.170787
0.1720109
0.1730857
0.1739858
0.1746991
0.1752315
0.1756159
0.1759265
0.1762956
0.1770552
0.1778406
0.1786522
0.1794949
0.1802404
0.1816443
0.1830275
0.1844756
0.186111
0.1889162
0.1666163
0.1679601
0.169241
0.1704131
0.1714416
0.1723008
0.1729749
0.1734614
0.1737783
0.1739849
0.174221
0.1748747
0.1755649
0.1762996
0.1770793
0.1777976
0.1791356
0.1804737
0.1817807
0.1831382
0.1846223
0.1873397
0.1652037
0.166497
0.1677232
0.1688437
0.1698267
0.1706458
0.1712803
0.1717144
0.1719387
0.1719653
0.1719092
0.1723745
0.1729164
0.1735361
0.1742305
0.1748873
0.1761507
0.1773996
0.1786353
0.1798244
0.1809971
0.1823123
0.1849597
0.1638437
0.1650913
0.1662701
0.167347
0.1682922
0.1690794
0.1696836
0.1700765
0.1702114
0.1699837
0.1690987
0.1692824
0.1696843
0.1702203
0.1708445
0.171434
0.1725938
0.1737445
0.1748663
0.1759555
0.1769341
0.1778961
0.1790481
0.1815016
0.1637388
0.1647046
0.1655415
0.1662981
0.1669941
0.1675417
0.1685954
0.1696318
0.1706427
0.1716054
0.1724723
0.1732303
0.1739977
0.1749279
0.1770417
0.1601248
0.1611205
0.1620122
0.1628039
0.1634949
0.1639948
0.1649566
0.1659006
0.166815
0.1676885
0.1684613
0.1691439
0.1697505
0.1703363
0.1710601
0.1573869
0.1583427
0.159208
0.1599754
0.1606357
0.1610982
0.161996
0.1628755
0.1637288
0.1645426
0.1652711
0.1659126
0.1665005
0.1669974
0.1674525
0.1553135
0.1562346
0.1570706
0.1578124
0.158449
0.1588927
0.1597532
0.1605974
0.1614184
0.1622073
0.1629193
0.1635642
0.1641642
0.1647034
0.1651442
0.1538171
0.1547179
0.1555373
0.1562663
0.1568944
0.1573375
0.1581837
0.1590167
0.1598311
0.1606194
0.1613432
0.1620119
0.1626578
0.1632588
0.1637987
0.1709566
0.1704824
0.1719682
0.1716951
0.1724665
0.1739771
0.1737571
0.1745649
0.1753122
0.1768976
0.1766019
0.1774719
0.1781142
0.1787492
0.1804209
0.1753505
0.1769007
0.1783739
0.1797248
0.1809106
0.1818905
0.1826232
0.1830601
0.183119
0.1826356
0.1811417
0.1810551
0.1811714
0.1814552
0.1819933
0.1836929
0.1738258
0.1753479
0.1767975
0.1781261
0.1792917
0.1802579
0.1809933
0.1814704
0.1816683
0.1815858
0.181357
0.1817449
0.1821864
0.1826521
0.1832208
0.1838645
0.1867452
0.1723646
0.1738628
0.1752953
0.1766089
0.1777618
0.1787219
0.1794675
0.179991
0.180308
0.1804818
0.1806669
0.1813251
0.1819921
0.1826839
0.1833755
0.184007
0.1856335
0.188593
0.1709342
0.1724057
0.1738174
0.1751133
0.1762516
0.1772035
0.1779544
0.1785085
0.1788991
0.1792036
0.1795636
0.1803366
0.1811279
0.181928
0.1827477
0.1834263
0.1849071
0.1865902
0.1895414
0.169514
0.1709534
0.1723364
0.1736066
0.174723
0.1756591
0.1764039
0.1769674
0.1773884
0.1777468
0.1781713
0.178985
0.1798161
0.180669
0.1815313
0.1822886
0.1837143
0.1852137
0.1869089
0.1898194
0.1680945
0.1694959
0.1708413
0.1720763
0.1731616
0.1740722
0.1747983
0.1753502
0.1757666
0.1761249
0.1765505
0.1773525
0.1781785
0.1790269
0.1799013
0.1806732
0.182103
0.1835161
0.184999
0.18667
0.1894767
0.1666766
0.1680346
0.1693344
0.1705256
0.1715717
0.1724483