/*--------------------------------*- C++ -*----------------------------------*\
| =========                 |                                                 |
| \\      /  F ield         | OpenFOAM: The Open Source CFD Toolbox           |
|  \\    /   O peration     | Version:  2306                                  |
|   \\  /    A nd           | Website:  www.openfoam.com                      |
|    \\/     M anipulation  |                                                 |
\*---------------------------------------------------------------------------*/
FoamFile
{
    version     2.0;
    format      ascii;
    arch        "LSB;label=32;scalar=64";
    class       volScalarField;
    location    "1.5/interconnect";
    object      T;
}
// * * * * * * * * * * * * * * * * * * * * * * * * * * * * * * * * * * * * * //

dimensions      [0 0 0 1 0 0 0];

internalField   nonuniform List<scalar> 
16000
(
1115.001
1114.999
1116.567
1114.946
1114.995
1116.566
1114.943
1118.689
1116.548
1114.837
1114.99
1116.564
1114.938
1118.689
1116.547
1114.833
1120.927
1118.688
1116.512
1114.678
1114.984
1116.562
1114.931
1118.687
1116.545
1114.824
1120.927
1118.687
1116.51
1114.671
1123.111
1120.933
1118.686
1116.462
1114.479
1114.978
1116.559
1114.923
1118.685
1116.542
1114.813
1120.925
1118.685
1116.507
1114.656
1123.11
1120.932
1118.684
1116.459
1114.465
1125.178
1123.118
1120.944
1118.686
1116.405
1114.315
1114.972
1116.557
1114.914
1118.683
1116.538
1114.799
1120.923
1118.682
1116.503
1114.636
1123.109
1120.93
1118.681
1116.455
1114.437
1125.177
1123.117
1120.942
1118.684
1116.4
1114.291
1127.113
1125.186
1123.134
1120.964
1118.693
1116.363
1114.21
1114.966
1116.554
1114.905
1118.681
1116.534
1114.784
1120.921
1118.679
1116.497
1114.613
1123.107
1120.927
1118.677
1116.448
1114.4
1125.176
1123.115
1120.939
1118.679
1116.393
1114.243
1127.112
1125.185
1123.132
1120.962
1118.69
1116.357
1114.179
1128.916
1127.12
1125.202
1123.16
1120.996
1118.708
1116.339
1114.114
1114.963
1116.551
1114.897
1118.678
1116.531
1114.769
1120.919
1118.676
1116.491
1114.587
1123.105
1120.924
1118.672
1116.44
1114.361
1125.174
1123.113
1120.935
1118.673
1116.382
1114.172
1127.111
1125.183
1123.13
1120.957
1118.684
1116.344
1114.115
1128.916
1127.119
1125.201
1123.158
1120.993
1118.704
1116.331
1114.077
1130.597
1128.923
1127.136
1125.23
1123.2
1121.032
1118.722
1116.322
1114.035
1114.961
1116.55
1114.892
1118.676
1116.527
1114.755
1120.916
1118.672
1116.485
1114.559
1123.102
1120.921
1118.666
1116.43
1114.331
1125.172
1123.11
1120.93
1118.664
1116.371
1114.081
1127.11
1125.181
1123.126
1120.95
1118.674
1116.326
1114.017
1128.915
1127.118
1125.198
1123.154
1120.987
1118.697
1116.313
1114
1130.596
1128.923
1127.135
1125.228
1123.197
1121.029
1118.717
1116.311
1113.992
1132.164
1130.603
1128.938
1127.162
1125.27
1123.242
1121.06
1118.74
1116.313
1113.975
1114.961
1116.549
1114.889
1118.675
1116.525
1114.745
1120.914
1118.669
1116.479
1114.531
1123.1
1120.917
1118.661
1116.419
1114.268
1125.17
1123.107
1120.924
1118.654
1116.362
1127.108
1125.178
1123.121
1120.941
1118.66
1116.307
1113.881
1128.913
1127.116
1125.195
1123.147
1120.977
1118.687
1116.288
1113.879
1130.595
1128.921
1127.133
1125.224
1123.192
1121.024
1118.709
1116.289
1113.905
1132.163
1130.602
1128.937
1127.16
1125.268
1123.24
1121.057
1118.735
1116.3
1113.929
1133.627
1132.17
1130.616
1128.962
1127.2
1125.312
1123.274
1121.091
1118.764
1116.314
1113.937
1114.963
1116.549
1114.889
1118.674
1116.523
1114.739
1120.913
1118.667
1116.475
1114.51
1123.098
1120.914
1118.656
1116.408
1114.206
1125.168
1123.104
1120.919
1118.643
1116.339
1127.106
1125.175
1123.115
1120.93
1118.64
1128.912
1127.113
1125.19
1123.138
1120.962
1118.676
1116.256
1113.708
1130.594
1128.919
1127.129
1125.217
1123.182
1121.017
1118.697
1116.256
1113.768
1132.162
1130.601
1128.935
1127.157
1125.263
1123.236
1121.052
1118.725
1116.274
1113.835
1133.627
1132.169
1130.615
1128.96
1127.198
1125.31
1123.272
1121.089
1118.759
1116.301
1113.89
1134.997
1133.633
1132.182
1130.638
1128.997
1127.24
1125.343
1123.308
1121.127
1118.795
1116.328
1113.923
1114.966
1116.55
1114.892
1118.674
1116.523
1114.739
1120.912
1118.666
1116.472
1114.498
1123.097
1120.912
1118.652
1116.399
1114.16
1125.167
1123.101
1120.914
1118.633
1116.314
1127.104
1125.172
1123.11
1120.919
1118.619
1128.91
1127.111
1125.185
1123.127
1120.937
1130.592
1128.917
1127.125
1125.209
1123.167
1121.009
1118.681
1116.21
1113.574
1132.161
1130.599
1128.932
1127.151
1125.254
1123.23
1121.045
1118.71
1116.234
1113.689
1133.626
1132.168
1130.614
1128.957
1127.194
1125.307
1123.268
1121.083
1118.747
1116.273
1113.793
1134.996
1133.632
1132.181
1130.637
1128.995
1127.238
1125.341
1123.307
1121.124
1118.789
1116.315
1113.876
1136.279
1135.001
1133.644
1132.202
1130.671
1129.033
1127.269
1125.377
1123.346
1121.167
1118.832
1116.355
1113.932
1114.972
1116.551
1114.897
1118.675
1116.525
1114.745
1120.912
1118.666
1116.472
1114.498
1123.096
1120.911
1118.65
1116.394
1114.136
1125.165
1123.099
1120.91
1118.626
1116.293
1127.102
1125.17
1123.105
1120.91
1118.6
1128.908
1127.108
1125.18
1123.118
1120.917
1130.591
1128.915
1127.12
1125.199
1123.142
1132.16
1130.597
1128.928
1127.144
1125.24
1123.223
1121.036
1118.689
1116.179
1113.483
1133.625
1132.166
1130.611
1128.952
1127.186
1125.302
1123.263
1121.075
1118.73
1116.229
1113.644
1134.996
1133.631
1132.179
1130.634
1128.991
1127.235
1125.339
1123.303
1121.119
1118.777
1116.286
1113.78
1136.279
1135.001
1133.643
1132.2
1130.669
1129.032
1127.267
1125.376
1123.345
1121.164
1118.826
1116.342
1113.886
1137.482
1136.284
1135.012
1133.662
1132.231
1130.703
1129.06
1127.3
1125.413
1123.387
1121.211
1118.876
1116.394
1113.964
1114.978
1116.554
1114.905
1118.676
1116.527
1114.755
1120.913
1118.667
1116.475
1114.51
1123.096
1120.911
1118.65
1116.394
1114.136
1125.165
1123.098
1120.908
1118.622
1116.281
1127.101
1125.168
1123.102
1120.904
1118.585
1128.907
1127.106
1125.176
1123.109
1120.9
1130.589
1128.912
1127.116
1125.19
1123.123
1132.159
1130.595
1128.924
1127.135
1125.217
1133.624
1132.164
1130.607
1128.945
1127.173
1125.296
1123.258
1121.065
1118.705
1116.167
1113.435
1134.995
1133.63
1132.177
1130.629
1128.984
1127.231
1125.335
1123.299
1121.11
1118.758
1116.242
1113.632
1136.278
1135
1133.642
1132.198
1130.665
1129.029
1127.265
1125.373
1123.342
1121.159
1118.815
1116.315
1113.792
1137.482
1136.283
1135.011
1133.661
1132.23
1130.702
1129.059
1127.299
1125.412
1123.386
1121.208
1118.871
1116.382
1113.918
1138.611
1137.486
1136.293
1135.028
1133.689
1132.261
1130.728
1129.089
1127.334
1125.452
1123.431
1121.258
1118.925
1116.444
1114.016
1114.984
1116.557
1114.914
1118.678
1116.531
1114.769
1120.914
1118.669
1116.479
1114.531
1123.097
1120.912
1118.652
1116.399
1114.16
1125.165
1123.098
1120.908
1118.622
1116.281
1127.101
1125.167
1123.1
1120.901
1118.577
1128.906
1127.104
1125.173
1123.104
1120.889
1130.588
1128.91
1127.112
1125.183
1123.109
1132.157
1130.593
1128.92
1127.126
1125.199
1133.623
1132.162
1130.604
1128.937
1127.152
1134.993
1133.628
1132.174
1130.623
1128.973
1127.226
1125.331
1123.292
1121.098
1118.731
1116.18
1113.428
1136.277
1134.999
1133.639
1132.194
1130.659
1129.025
1127.262
1125.37
1123.337
1121.15
1118.797
1116.274
1113.65
1137.481
1136.282
1135.01
1133.658
1132.226
1130.7
1129.057
1127.298
1125.41
1123.383
1121.204
1118.861
1116.359
1113.826
1138.611
1137.486
1136.292
1135.027
1133.688
1132.26
1130.727
1129.088
1127.333
1125.451
1123.43
1121.257
1118.922
1116.434
1113.97
1139.671
1138.615
1137.495
1136.309
1135.053
1133.716
1132.283
1130.754
1129.119
1127.37
1125.493
1123.477
1121.309
1118.98
1116.504
1114.99
1116.559
1114.923
1118.681
1116.534
1114.784
1120.916
1118.672
1116.485
1114.559
1123.098
1120.914
1118.656
1116.408
1114.206
1125.165
1123.099
1120.91
1118.626
1116.293
1127.101
1125.167
1123.1
1120.901
1118.577
1128.905
1127.104
1125.172
1123.101
1120.883
1130.587
1128.909
1127.11
1125.178
1123.099
1132.156
1130.591
1128.916
1127.12
1125.186
1133.621
1132.16
1130.6
1128.93
1127.136
1134.992
1133.626
1132.17
1130.616
1128.953
1136.276
1134.997
1133.636
1132.188
1130.648
1129.021
1127.259
1125.366
1123.33
1121.137
1118.769
1116.216
1113.459
1137.48
1136.281
1135.007
1133.655
1132.22
1130.696
1129.054
1127.295
1125.408
1123.379
1121.196
1118.845
1116.324
1113.692
1138.61
1137.485
1136.291
1135.025
1133.684
1132.258
1130.725
1129.086
1127.332
1125.45
1123.428
1121.254
1118.915
1116.414
1113.879
1139.671
1138.615
1137.494
1136.308
1135.052
1133.715
1132.282
1130.753
1129.119
1127.369
1125.493
1123.477
1121.309
1118.978
1116.495
1140.667
1139.675
1138.623
1137.509
1136.331
1135.078
1133.736
1132.307
1130.782
1129.152
1127.407
1125.535
1123.524
1121.362
1119.038
1114.995
1116.562
1114.931
1118.683
1116.538
1114.799
1120.919
1118.676
1116.491
1114.587
1123.1
1120.917
1118.661
1116.419
1114.268
1125.167
1123.101
1120.914
1118.633
1116.314
1127.101
1125.168
1123.102
1120.904
1118.585
1128.905
1127.104
1125.172
1123.101
1120.883
1130.587
1128.908
1127.108
1125.175
1123.094
1132.155
1130.59
1128.914
1127.115
1125.178
1133.62
1132.159
1130.597
1128.924
1127.124
1134.991
1133.624
1132.167
1130.609
1128.939
1136.275
1134.996
1133.633
1132.181
1130.63
1137.479
1136.28
1135.005
1133.65
1132.211
1130.693
1129.051
1127.292
1125.403
1123.372
1121.183
1118.822
1116.276
1113.517
1138.609
1137.484
1136.289
1135.022
1133.679
1132.255
1130.723
1129.084
1127.33
1125.448
1123.424
1121.248
1118.904
1116.387
1113.745
1139.671
1138.614
1137.493
1136.305
1135.049
1133.713
1132.281
1130.752
1129.118
1127.368
1125.492
1123.476
1121.308
1118.974
1116.478
1140.667
1139.675
1138.622
1137.508
1136.33
1135.077
1133.736
1132.306
1130.781
1129.152
1127.407
1125.536
1123.525
1121.363
1119.038
1141.603
1140.671
1139.683
1138.636
1137.53
1136.354
1135.097
1133.758
1132.332
1130.811
1129.186
1127.446
1125.579
1123.573
1121.415
1114.999
1116.564
1114.938
1118.685
1116.542
1114.813
1120.921
1118.679
1116.497
1114.613
1123.102
1120.921
1118.666
1116.43
1114.331
1125.168
1123.104
1120.919
1118.643
1116.339
1127.102
1125.17
1123.105
1120.91
1118.6
1128.906
1127.104
1125.173
1123.104
1120.889
1130.587
1128.908
1127.108
1125.175
1123.094
1132.155
1130.589
1128.913
1127.113
1125.174
1133.62
1132.158
1130.595
1128.92
1127.117
1134.99
1133.623
1132.164
1130.604
1128.928
1136.274
1134.994
1133.63
1132.175
1130.617
1137.478
1136.278
1135.002
1133.644
1132.195
1138.609
1137.483
1136.287
1135.017
1133.67
1132.251
1130.72
1129.082
1127.327
1125.444
1123.419
1121.238
1118.887
1116.353
1113.582
1139.67
1138.613
1137.491
1136.302
1135.044
1133.71
1132.279
1130.75
1129.116
1127.367
1125.49
1123.474
1121.305
1118.969
1116.457
1140.667
1139.674
1138.621
1137.506
1136.327
1135.075
1133.734
1132.305
1130.78
1129.151
1127.407
1125.536
1123.527
1121.365
1119.037
1141.603
1140.67
1139.682
1138.635
1137.529
1136.353
1135.096
1133.758
1132.332
1130.811
1129.186
1127.446
1125.58
1123.575
1121.418
1142.481
1141.606
1140.678
1139.695
1138.656
1137.552
1136.371
1135.117
1133.781
1132.359
1130.842
1129.221
1127.485
1125.623
1123.621
1115.001
1116.566
1114.943
1118.687
1116.545
1114.824
1120.923
1118.682
1116.503
1114.636
1123.105
1120.924
1118.672
1116.44
1114.361
1125.17
1123.107
1120.924
1118.654
1116.362
1127.104
1125.172
1123.11
1120.919
1118.619
1128.907
1127.106
1125.176
1123.109
1120.9
1130.587
1128.909
1127.11
1125.178
1123.099
1132.155
1130.589
1128.913
1127.113
1125.174
1133.619
1132.157
1130.594
1128.917
1127.113
1134.989
1133.622
1132.162
1130.6
1128.922
1136.273
1134.993
1133.628
1132.17
1130.608
1137.477
1136.277
1134.999
1133.638
1132.183
1138.608
1137.481
1136.284
1135.011
1133.656
1139.669
1138.611
1137.489
1136.298
1135.036
1133.707
1132.276
1130.748
1129.114
1127.364
1125.488
1123.471
1121.3
1118.962
1116.438
1140.666
1139.673
1138.62
1137.503
1136.323
1135.073
1133.732
1132.304
1130.779
1129.15
1127.406
1125.536
1123.528
1121.367
1119.039
1141.602
1140.67
1139.681
1138.634
1137.527
1136.352
1135.095
1133.757
1132.331
1130.811
1129.186
1127.447
1125.582
1123.579
1121.422
1142.481
1141.606
1140.677
1139.694
1138.655
1137.551
1136.371
1135.116
1133.781
1132.359
1130.842
1129.221
1127.486
1125.625
1123.624
1143.306
1142.485
1141.613
1140.69
1139.713
1138.676
1137.567
1136.39
1135.138
1133.806
1132.387
1130.874
1129.256
1127.525
1125.666
1116.567
1114.946
1118.689
1116.547
1114.833
1120.925
1118.685
1116.507
1114.656
1123.107
1120.927
1118.677
1116.448
1114.4
1125.172
1123.11
1120.93
1118.664
1116.371
1114.081
1127.106
1125.175
1123.115
1120.93
1118.64
1128.908
1127.108
1125.18
1123.118
1120.917
1130.588
1128.91
1127.112
1125.183
1123.109
1132.155
1130.59
1128.914
1127.115
1125.178
1133.619
1132.157
1130.594
1128.917
1127.113
1134.989
1133.621
1132.161
1130.598
1128.919
1136.273
1134.992
1133.626
1132.167
1130.602
1137.476
1136.275
1134.997
1133.633
1132.175
1138.607
1137.48
1136.282
1135.006
1133.645
1139.668
1138.61
1137.487
1136.293
1135.022
1140.665
1139.672
1138.618
1137.499
1136.316
1135.07
1133.73
1132.302
1130.777
1129.148
1127.405
1125.535
1123.528
1121.37
1119.046
1141.602
1140.669
1139.679
1138.631
1137.523
1136.349
1135.093
1133.755
1132.33
1130.81
1129.186
1127.448
1125.585
1123.584
1121.431
1142.481
1141.605
1140.676
1139.692
1138.653
1137.549
1136.37
1135.115
1133.78
1132.359
1130.842
1129.222
1127.489
1125.63
1123.631
1143.306
1142.484
1141.612
1140.689
1139.712
1138.675
1137.567
1136.389
1135.138
1133.806
1132.387
1130.874
1129.258
1127.527
1125.669
1144.079
1143.309
1142.491
1141.624
1140.707
1139.732
1138.691
1137.585
1136.41
1135.16
1133.831
1132.416
1130.906
1129.292
1127.563
1118.689
1116.548
1114.837
1120.927
1118.687
1116.51
1114.671
1123.109
1120.93
1118.681
1116.455
1114.437
1125.174
1123.113
1120.935
1118.673
1116.382
1114.172
1127.108
1125.178
1123.121
1120.941
1118.66
1116.307
1113.881
1128.91
1127.111
1125.185
1123.127
1120.937
1130.589
1128.912
1127.116
1125.19
1123.123
1132.156
1130.591
1128.916
1127.12
1125.186
1133.62
1132.158
1130.595
1128.92
1127.117
1134.989
1133.621
1132.161
1130.598
1128.919
1136.272
1134.991
1133.625
1132.165
1130.6
1137.476
1136.275
1134.995
1133.63
1132.169
1138.606
1137.479
1136.279
1135.002
1133.637
1139.667
1138.609
1137.484
1136.288
1135.013
1140.664
1139.67
1138.615
1137.495
1136.303
1141.601
1140.668
1139.677
1138.627
1137.516
1136.347
1135.091
1133.754
1132.328
1130.808
1129.185
1127.448
1125.587
1123.591
1121.446
1142.48
1141.604
1140.675
1139.69
1138.649
1137.547
1136.368
1135.114
1133.779
1132.358
1130.842
1129.223
1127.492
1125.636
1123.642
1143.305
1142.484
1141.611
1140.687
1139.71
1138.674
1137.566
1136.389
1135.137
1133.805
1132.387
1130.875
1129.26
1127.531
1125.676
1144.079
1143.309
1142.491
1141.623
1140.706
1139.731
1138.69
1137.584
1136.409
1135.16
1133.832
1132.416
1130.907
1129.294
1127.566
1144.803
1144.082
1143.315
1142.501
1141.64
1140.724
1139.746
1138.707
1137.603
1136.43
1135.184
1133.858
1132.445
1130.938
1129.326
1120.927
1118.688
1116.512
1114.678
1123.11
1120.932
1118.684
1116.459
1114.465
1125.176
1123.115
1120.939
1118.679
1116.393
1114.243
1127.11
1125.181
1123.126
1120.95
1118.674
1116.326
1114.017
1128.912
1127.113
1125.19
1123.138
1120.962
1118.676
1116.256
1113.708
1130.591
1128.915
1127.12
1125.199
1123.142
1132.157
1130.593
1128.92
1127.126
1125.199
1133.62
1132.159
1130.597
1128.924
1127.124
1134.989
1133.622
1132.162
1130.6
1128.922
1136.272
1134.991
1133.625
1132.165
1130.6
1137.476
1136.274
1134.994
1133.629
1132.167
1138.605
1137.478
1136.278
1134.999
1133.632
1139.666
1138.608
1137.482
1136.284
1135.006
1140.663
1139.669
1138.613
1137.49
1136.294
1141.6
1140.667
1139.675
1138.623
1137.504
1142.48
1141.603
1140.673
1139.686
1138.642
1137.545
1136.366
1135.112
1133.778
1132.357
1130.841
1129.224
1127.494
1125.643
1123.659
1143.305
1142.483
1141.61
1140.685
1139.707
1138.672
1137.564
1136.387
1135.136
1133.805
1132.387
1130.876
1129.263
1127.538
1125.688
1144.078
1143.308
1142.49
1141.622
1140.704
1139.73
1138.689
1137.583
1136.409
1135.16
1133.832
1132.417
1130.909
1129.298
1127.573
1144.802
1144.081
1143.315
1142.501
1141.639
1140.724
1139.745
1138.706
1137.603
1136.43
1135.184
1133.858
1132.446
1130.94
1129.329
1145.479
1144.805
1144.088
1143.325
1142.517
1141.657
1140.737
1139.761
1138.723
1137.622
1136.452
1135.208
1133.884
1132.474
1130.969
1123.111
1120.933
1118.686
1116.462
1114.479
1125.177
1123.117
1120.942
1118.684
1116.4
1114.291
1127.111
1125.183
1123.13
1120.957
1118.684
1116.344
1114.115
1128.913
1127.116
1125.195
1123.147
1120.977
1118.687
1116.288
1113.879
1130.592
1128.917
1127.125
1125.209
1123.167
1121.009
1118.681
1116.21
1113.574
1132.159
1130.595
1128.924
1127.135
1125.217
1133.621
1132.16
1130.6
1128.93
1127.136
1134.99
1133.623
1132.164
1130.604
1128.928
1136.273
1134.992
1133.626
1132.167
1130.602
1137.476
1136.274
1134.994
1133.629
1132.167
1138.605
1137.477
1136.277
1134.998
1133.63
1139.666
1138.607
1137.481
1136.282
1135.001
1140.663
1139.668
1138.611
1137.487
1136.287
1141.599
1140.665
1139.673
1138.619
1137.496
1142.479
1141.602
1140.671
1139.682
1138.632
1143.304
1142.482
1141.608
1140.682
1139.701
1138.669
1137.563
1136.386
1135.135
1133.804
1132.387
1130.877
1129.266
1127.545
1125.705
1144.078
1143.307
1142.488
1141.619
1140.7
1139.728
1138.688
1137.582
1136.408
1135.159
1133.832
1132.418
1130.912
1129.304
1127.584
1144.802
1144.081
1143.314
1142.499
1141.637
1140.722
1139.744
1138.705
1137.602
1136.43
1135.184
1133.859
1132.448
1130.944
1129.336
1145.479
1144.805
1144.087
1143.324
1142.516
1141.656
1140.737
1139.76
1138.723
1137.622
1136.452
1135.208
1133.885
1132.476
1130.972
1146.11
1145.482
1144.811
1144.097
1143.34
1142.533
1141.669
1140.751
1139.777
1138.741
1137.642
1136.474
1135.232
1133.911
1132.502
1125.178
1123.118
1120.944
1118.686
1116.405
1114.315
1127.112
1125.185
1123.132
1120.962
1118.69
1116.357
1114.179
1128.915
1127.118
1125.198
1123.154
1120.987
1118.697
1116.313
1114
1130.594
1128.919
1127.129
1125.217
1123.182
1121.017
1118.697
1116.256
1113.768
1132.16
1130.597
1128.928
1127.144
1125.24
1123.223
1121.036
1118.689
1116.179
1113.483
1133.623
1132.162
1130.604
1128.937
1127.152
1134.991
1133.624
1132.167
1130.609
1128.939
1136.273
1134.993
1133.628
1132.17
1130.608
1137.476
1136.275
1134.995
1133.63
1132.169
1138.605
1137.477
1136.277
1134.998
1133.63
1139.666
1138.607
1137.48
1136.28
1134.999
1140.662
1139.668
1138.61
1137.484
1136.283
1141.599
1140.664
1139.671
1138.615
1137.49
1142.478
1141.601
1140.669
1139.678
1138.624
1143.303
1142.481
1141.606
1140.678
1139.69
1144.077
1143.306
1142.487
1141.616
1140.695
1139.726
1138.686
1137.581
1136.406
1135.158
1133.831
1132.419
1130.915
1129.311
1127.6
1144.802
1144.08
1143.312
1142.497
1141.634
1140.721
1139.743
1138.704
1137.601
1136.429
1135.184
1133.86
1132.451
1130.949
1129.346
1145.479
1144.805
1144.086
1143.323
1142.514
1141.655
1140.736
1139.76
1138.723
1137.622
1136.452
1135.209
1133.887
1132.48
1130.978
1146.11
1145.481
1144.81
1144.096
1143.339
1142.532
1141.669
1140.751
1139.776
1138.741
1137.642
1136.475
1135.233
1133.913
1132.505
1146.697
1146.113
1145.487
1144.82
1144.111
1143.355
1142.544
1141.682
1140.766
1139.793
1138.76
1137.663
1136.497
1135.257
1133.937
1127.113
1125.186
1123.134
1120.964
1118.693
1116.363
1114.21
1128.916
1127.119
1125.201
1123.158
1120.993
1118.704
1116.331
1114.077
1130.595
1128.921
1127.133
1125.224
1123.192
1121.024
1118.709
1116.289
1113.905
1132.161
1130.599
1128.932
1127.151
1125.254
1123.23
1121.045
1118.71
1116.234
1113.689
1133.624
1132.164
1130.607
1128.945
1127.173
1125.296
1123.258
1121.065
1118.705
1116.167
1113.435
1134.992
1133.626
1132.17
1130.616
1128.953
1136.274
1134.994
1133.63
1132.175
1130.617
1137.476
1136.275
1134.997
1133.633
1132.175
1138.605
1137.478
1136.278
1134.999
1133.632
1139.666
1138.607
1137.48
1136.28
1134.999
1140.662
1139.667
1138.609
1137.483
1136.281
1141.598
1140.664
1139.67
1138.613
1137.486
1142.477
1141.6
1140.667
1139.675
1138.618
1143.303
1142.48
1141.605
1140.674
1139.683
1144.076
1143.305
1142.485
1141.613
1140.685
1144.801
1144.079
1143.311
1142.494
1141.629
1140.719
1139.742
1138.703
1137.6
1136.428
1135.184
1133.861
1132.453
1130.956
1129.361
1145.478
1144.804
1144.085
1143.321
1142.511
1141.653
1140.735
1139.759
1138.722
1137.621
1136.452
1135.21
1133.89
1132.485
1130.987
1146.11
1145.481
1144.81
1144.095
1143.337
1142.531
1141.668
1140.75
1139.776
1138.741
1137.642
1136.475
1135.235
1133.916
1132.51
1146.697
1146.112
1145.487
1144.819
1144.11
1143.354
1142.544
1141.682
1140.766
1139.793
1138.76
1137.663
1136.498
1135.258
1133.939
1147.242
1146.7
1146.118
1145.496
1144.833
1144.125
1143.366
1142.557
1141.696
1140.782
1139.811
1138.779
1137.684
1136.519
1135.28
1128.916
1127.12
1125.202
1123.16
1120.996
1118.708
1116.339
1114.114
1130.596
1128.923
1127.135
1125.228
1123.197
1121.029
1118.717
1116.311
1113.992
1132.162
1130.601
1128.935
1127.157
1125.263
1123.236
1121.052
1118.725
1116.274
1113.835
1133.625
1132.166
1130.611
1128.952
1127.186
1125.302
1123.263
1121.075
1118.73
1116.229
1113.644
1134.993
1133.628
1132.174
1130.623
1128.973
1127.226
1125.331
1123.292
1121.098
1118.731
1116.18
1113.428
1136.275
1134.996
1133.633
1132.181
1130.63
1137.477
1136.277
1134.999
1133.638
1132.183
1138.606
1137.479
1136.279
1135.002
1133.637
1139.666
1138.607
1137.481
1136.282
1135.001
1140.662
1139.667
1138.609
1137.483
1136.281
1141.598
1140.663
1139.67
1138.612
1137.484
1142.477
1141.6
1140.666
1139.673
1138.615
1143.302
1142.479
1141.603
1140.671
1139.678
1144.076
1143.304
1142.483
1141.609
1140.678
1144.8
1144.078
1143.309
1142.491
1141.62
1145.478
1144.803
1144.084
1143.318
1142.506
1141.651
1140.733
1139.757
1138.721
1137.62
1136.452
1135.211
1133.892
1132.491
1131.001
1146.109
1145.48
1144.809
1144.093
1143.334
1142.529
1141.667
1140.749
1139.775
1138.741
1137.642
1136.476
1135.238
1133.921
1132.519
1146.697
1146.112
1145.486
1144.818
1144.109
1143.353
1142.543
1141.681
1140.766
1139.793
1138.76
1137.664
1136.499
1135.261
1133.944
1147.242
1146.7
1146.117
1145.495
1144.833
1144.125
1143.365
1142.556
1141.696
1140.782
1139.811
1138.78
1137.684
1136.521
1135.282
1147.746
1147.244
1146.705
1146.126
1145.509
1144.847
1144.136
1143.377
1142.57
1141.711
1140.798
1139.829
1138.799
1137.704
1136.541
1130.597
1128.923
1127.136
1125.23
1123.2
1121.032
1118.722
1116.322
1114.035
1132.163
1130.602
1128.937
1127.16
1125.268
1123.24
1121.057
1118.735
1116.3
1113.929
1133.626
1132.168
1130.614
1128.957
1127.194
1125.307
1123.268
1121.083
1118.747
1116.273
1113.793
1134.995
1133.63
1132.177
1130.629
1128.984
1127.231
1125.335
1123.299
1121.11
1118.758
1116.242
1113.632
1136.276
1134.997
1133.636
1132.188
1130.648
1129.021
1127.259
1125.366
1123.33
1121.137
1118.769
1116.216
1113.459
1137.478
1136.278
1135.002
1133.644
1132.195
1138.607
1137.48
1136.282
1135.006
1133.645
1139.666
1138.608
1137.482
1136.284
1135.006
1140.662
1139.668
1138.61
1137.484
1136.283
1141.598
1140.663
1139.67
1138.612
1137.484
1142.477
1141.599
1140.666
1139.672
1138.613
1143.302
1142.478
1141.602
1140.669
1139.675
1144.075
1143.304
1142.482
1141.607
1140.674
1144.8
1144.077
1143.308
1142.487
1141.613
1145.477
1144.802
1144.082
1143.315
1142.498
1146.109
1145.479
1144.807
1144.09
1143.329
1142.527
1141.665
1140.748
1139.774
1138.74
1137.642
1136.477
1135.24
1133.926
1132.532
1146.696
1146.111
1145.485
1144.816
1144.106
1143.351
1142.542
1141.68
1140.765
1139.793
1138.76
1137.665
1136.501
1135.266
1133.952
1147.242
1146.699
1146.117
1145.494
1144.831
1144.124
1143.364
1142.556
1141.696
1140.782
1139.811
1138.78
1137.686
1136.523
1135.287
1147.746
1147.244
1146.704
1146.126
1145.508
1144.847
1144.135
1143.377
1142.57
1141.711
1140.799
1139.829
1138.8
1137.706
1136.543
1148.209
1147.748
1147.249
1146.713
1146.139
1145.522
1144.857
1144.147
1143.39
1142.584
1141.727
1140.815
1139.847
1138.818
1137.724
1132.164
1130.603
1128.938
1127.162
1125.27
1123.242
1121.06
1118.74
1116.313
1113.975
1133.627
1132.169
1130.615
1128.96
1127.198
1125.31
1123.272
1121.089
1118.759
1116.301
1113.89
1134.996
1133.631
1132.179
1130.634
1128.991
1127.235
1125.339
1123.303
1121.119
1118.777
1116.286
1113.78
1136.277
1134.999
1133.639
1132.194
1130.659
1129.025
1127.262
1125.37
1123.337
1121.15
1118.797
1116.274
1113.65
1137.479
1136.28
1135.005
1133.65
1132.211
1130.693
1129.051
1127.292
1125.403
1123.372
1121.183
1118.822
1116.276
1113.517
1138.608
1137.481
1136.284
1135.011
1133.656
1139.667
1138.609
1137.484
1136.288
1135.013
1140.663
1139.668
1138.611
1137.487
1136.287
1141.598
1140.664
1139.67
1138.613
1137.486
1142.477
1141.599
1140.666
1139.672
1138.613
1143.301
1142.478
1141.601
1140.668
1139.673
1144.075
1143.303
1142.481
1141.605
1140.67
1144.799
1144.077
1143.306
1142.485
1141.609
1145.476
1144.801
1144.08
1143.312
1142.491
1146.108
1145.479
1144.806
1144.087
1143.321
1146.696
1146.111
1145.483
1144.814
1144.101
1143.35
1142.541
1141.679
1140.764
1139.792
1138.76
1137.665
1136.503
1135.271
1133.964
1147.241
1146.698
1146.116
1145.492
1144.828
1144.122
1143.363
1142.555
1141.695
1140.781
1139.811
1138.781
1137.688
1136.528
1135.295
1147.745
1147.244
1146.704
1146.125
1145.507
1144.846
1144.135
1143.377
1142.569
1141.711
1140.799
1139.83
1138.801
1137.708
1136.547
1148.209
1147.748
1147.249
1146.712
1146.138
1145.521
1144.857
1144.147
1143.39
1142.584
1141.727
1140.816
1139.848
1138.819
1137.726
1148.634
1148.212
1147.753
1147.257
1146.725
1146.151
1145.531
1144.868
1144.159
1143.404
1142.599
1141.743
1140.832
1139.865
1138.837
1133.627
1132.17
1130.616
1128.962
1127.2
1125.312
1123.274
1121.091
1118.764
1116.314
1113.937
1134.996
1133.632
1132.181
1130.637
1128.995
1127.238
1125.341
1123.307
1121.124
1118.789
1116.315
1113.876
1136.278
1135
1133.642
1132.198
1130.665
1129.029
1127.265
1125.373
1123.342
1121.159
1118.815
1116.315
1113.792
1137.48
1136.281
1135.007
1133.655
1132.22
1130.696
1129.054
1127.295
1125.408
1123.379
1121.196
1118.845
1116.324
1113.692
1138.609
1137.483
1136.287
1135.017
1133.67
1132.251
1130.72
1129.082
1127.327
1125.444
1123.419
1121.238
1118.887
1116.353
1113.582
1139.668
1138.61
1137.487
1136.293
1135.022
1140.663
1139.669
1138.613
1137.49
1136.294
1141.599
1140.664
1139.671
1138.615
1137.49
1142.477
1141.6
1140.666
1139.673
1138.615
1143.301
1142.478
1141.601
1140.668
1139.673
1144.075
1143.303
1142.48
1141.604
1140.669
1144.799
1144.076
1143.305
1142.483
1141.606
1145.476
1144.8
1144.079
1143.309
1142.487
1146.107
1145.478
1144.804
1144.084
1143.315
1146.695
1146.11
1145.482
1144.811
1144.094
1147.241
1146.698
1146.114
1145.49
1144.824
1144.121
1143.362
1142.554
1141.694
1140.781
1139.811
1138.781
1137.69
1136.532
1135.305
1147.745
1147.243
1146.703
1146.123
1145.504
1144.844
1144.134
1143.376
1142.569
1141.711
1140.799
1139.83
1138.803
1137.712
1136.554
1148.209
1147.747
1147.248
1146.711
1146.137
1145.52
1144.856
1144.146
1143.39
1142.584
1141.727
1140.816
1139.849
1138.822
1137.73
1148.634
1148.211
1147.752
1147.257
1146.724
1146.151
1145.531
1144.868
1144.159
1143.403
1142.599
1141.743
1140.833
1139.866
1138.839
1149.02
1148.636
1148.216
1147.76
1147.269
1146.737
1146.161
1145.542
1144.88
1144.172
1143.417
1142.614
1141.759
1140.849
1139.883
1134.997
1133.633
1132.182
1130.638
1128.997
1127.24
1125.343
1123.308
1121.127
1118.795
1116.328
1113.923
1136.279
1135.001
1133.643
1132.2
1130.669
1129.032
1127.267
1125.376
1123.345
1121.164
1118.826
1116.342
1113.886
1137.481
1136.282
1135.01
1133.658
1132.226
1130.7
1129.057
1127.298
1125.41
1123.383
1121.204
1118.861
1116.359
1113.826
1138.609
1137.484
1136.289
1135.022
1133.679
1132.255
1130.723
1129.084
1127.33
1125.448
1123.424
1121.248
1118.904
1116.387
1113.745
1139.669
1138.611
1137.489
1136.298
1135.036
1133.707
1132.276
1130.748
1129.114
1127.364
1125.488
1123.471
1121.3
1118.962
1116.438
1140.664
1139.67
1138.615
1137.495
1136.303
1141.599
1140.665
1139.673
1138.619
1137.496
1142.477
1141.6
1140.667
1139.675
1138.618
1143.302
1142.478
1141.602
1140.669
1139.675
1144.075
1143.303
1142.48
1141.604
1140.669
1144.799
1144.076
1143.305
1142.482
1141.604
1145.475
1144.8
1144.078
1143.308
1142.484
1146.107
1145.477
1144.803
1144.082
1143.311
1146.695
1146.109
1145.481
1144.808
1144.088
1147.24
1146.697
1146.113
1145.487
1144.817
1147.744
1147.243
1146.701
1146.121
1145.5
1144.843
1144.133
1143.375
1142.568
1141.71
1140.798
1139.831
1138.805
1137.717
1136.564
1148.208
1147.747
1147.247
1146.71
1146.134
1145.519
1144.855
1144.146
1143.389
1142.584
1141.727
1140.817
1139.851
1138.826
1137.737
1148.633
1148.211
1147.752
1147.256
1146.723
1146.15
1145.53
1144.867
1144.159
1143.403
1142.599
1141.744
1140.835
1139.869
1138.842
1149.02
1148.636
1148.216
1147.76
1147.268
1146.737
1146.16
1145.542
1144.879
1144.172
1143.418
1142.614
1141.759
1140.851
1139.884
1149.369
1149.022
1148.64
1148.223
1147.772
1147.28
1146.746
1146.171
1145.553
1144.892
1144.185
1143.432
1142.629
1141.775
1140.866
1136.279
1135.001
1133.644
1132.202
1130.671
1129.033
1127.269
1125.377
1123.346
1121.167
1118.832
1116.355
1113.932
1137.482
1136.283
1135.011
1133.661
1132.23
1130.702
1129.059
1127.299
1125.412
1123.386
1121.208
1118.871
1116.382
1113.918
1138.61
1137.485
1136.291
1135.025
1133.684
1132.258
1130.725
1129.086
1127.332
1125.45
1123.428
1121.254
1118.915
1116.414
1113.879
1139.67
1138.613
1137.491
1136.302
1135.044
1133.71
1132.279
1130.75
1129.116
1127.367
1125.49
1123.474
1121.305
1118.969
1116.457
1140.665
1139.672
1138.618
1137.499
1136.316
1135.07
1133.73
1132.302
1130.777
1129.148
1127.405
1125.535
1123.528
1121.37
1119.046
1141.6
1140.667
1139.675
1138.623
1137.504
1142.478
1141.601
1140.669
1139.678
1138.624
1143.302
1142.479
1141.603
1140.671
1139.678
1144.075
1143.303
1142.481
1141.605
1140.67
1144.799
1144.076
1143.305
1142.482
1141.604
1145.475
1144.8
1144.078
1143.307
1142.483
1146.107
1145.477
1144.802
1144.08
1143.309
1146.694
1146.108
1145.479
1144.806
1144.084
1147.24
1146.696
1146.112
1145.484
1144.811
1147.744
1147.242
1146.7
1146.118
1145.493
1148.208
1147.746
1147.246