/*--------------------------------*- C++ -*----------------------------------*\
| =========                 |                                                 |
| \\      /  F ield         | OpenFOAM: The Open Source CFD Toolbox           |
|  \\    /   O peration     | Version:  2306                                  |
|   \\  /    A nd           | Website:  www.openfoam.com                      |
|    \\/     M anipulation  |                                                 |
\*---------------------------------------------------------------------------*/
FoamFile
{
    version     2.0;
    format      ascii;
    arch        "LSB;label=32;scalar=64";
    class       volScalarField;
    location    "1.5/air";
    object      diffSp.O2;
}
// * * * * * * * * * * * * * * * * * * * * * * * * * * * * * * * * * * * * * //

dimensions      [0 2 -1 0 0 0 0];

internalField   nonuniform List<scalar> 
16000
(
0.0002054797
0.0002018284
0.0002097903
0.0002017687
0.0001998612
0.0002087704
0.0001930886
0.0002108668
0.0002087562
0.0001997493
0.0001987652
0.0002078943
0.0001878473
0.000210406
0.0002057614
0.0001877656
0.0002117593
0.0002104195
0.0002078622
0.0001985897
0.0001982601
0.0002072531
0.0001847713
0.0002099933
0.0002031621
0.0001800296
0.0002115232
0.0002090642
0.0002031202
0.0001845539
0.0002125489
0.0002115484
0.0002100148
0.0002071933
0.0001980006
0.0001982601
0.0002069148
0.0001833315
0.0002096782
0.0002012499
0.0001752998
0.0002113153
0.0002078315
0.0001989463
0.0001751172
0.0002124128
0.0002108707
0.0002078338
0.0002011292
0.000182897
0.0002132693
0.0002124411
0.0002113599
0.000209704
0.0002068169
0.0001978852
0.0001223181
0.0001987652
0.0002069148
0.0001833315
0.000209507
0.000200239
0.0001730364
0.0002111574
0.0002068817
0.0001958489
0.0001691867
0.0002122973
0.0002102589
0.000205821
0.0001957376
0.0001725275
0.0002131813
0.0002120644
0.0002102808
0.000206874
0.0001999993
0.0001825837
0.0002139298
0.0002132091
0.0002123483
0.000211221
0.0002095363
0.0002067738
0.0001982365
0.0001223051
0.0001227765
0.0001226261
0.0001998612
0.0002072531
0.0001847713
0.000209507
0.000200239
0.0001730364
0.0002110717
0.0002063638
0.0001942026
0.0001663045
0.0002122114
0.0002097877
0.0002042548
0.0001917053
0.000165912
0.0002131095
0.0002117326
0.000209289
0.0002042339
0.0001939016
0.0001720315
0.0002138654
0.0002129752
0.0002117613
0.0002098329
0.0002063393
0.0001998552
0.000183601
0.0002145416
0.0002138914
0.0002131601
0.0002122862
0.0002111574
0.0002095456
0.0002070779
0.0001991305
0.0001222768
0.0001227737
0.0001226075
0.0001232332
0.0001230616
0.0001229362
0.0002018284
0.0002078943
0.0001878473
0.0002096782
0.0002012499
0.0001752998
0.0002110717
0.0002063638
0.0001942026
0.0001663045
0.0002121654
0.0002095299
0.000203396
0.0001895524
0.0001626687
0.0002130577
0.0002114817
0.000208515
0.0002021624
0.0001893191
0.0001652757
0.0002138147
0.0002127752
0.0002112334
0.0002085395
0.000203336
0.0001936544
0.000173621
0.0002144896
0.0002137258
0.0002128048
0.0002115461
0.0002096071
0.0002063333
0.0002007349
0.0001861212
0.0002151099
0.0002145134
0.0002138621
0.0002131324
0.0002122685
0.0002111879
0.0002097433
0.000207719
0.000200804
0.0001222222
0.0001227687
0.0001225641
0.0001232329
0.0001230589
0.0001229131
0.0001236657
0.0001234866
0.000123347
0.0001232501
0.0002054797
0.0002087704
0.0001930886
0.0002099933
0.0002031621
0.0001800296
0.0002111574
0.0002068817
0.0001958489
0.0001691867
0.0002121654
0.0002095299
0.000203396
0.0001895524
0.0001626687
0.0002130303
0.000211346
0.0002080883
0.0002010209
0.0001868654
0.0001619563
0.000213779
0.0002126276
0.0002108284
0.0002075192
0.0002009665
0.0001889868
0.0001672788
0.0002144497
0.0002135884
0.0002124942
0.0002108703
0.0002081488
0.0002033043
0.0001950556
0.0001774926
0.000215065
0.0002143829
0.0002136166
0.0002126957
0.0002114602
0.000209661
0.0002068864
0.0002025917
0.0001906168
0.0002156402
0.0002150867
0.0002144932
0.0002138494
0.0002131341
0.0002123054
0.0002113208
0.0002101222
0.0002086768
0.0002039306
0.0001220771
0.0001227633
0.0001224715
0.0001232332
0.0001230542
0.0001228581
0.0001236662
0.0001234878
0.0001233442
0.0001232239
0.0001240668
0.0001238888
0.0001237397
0.0001236336
0.0001235658
0.0002097903
0.0002017687
0.000210406
0.0002057614
0.0001877656
0.0002113153
0.0002078315
0.0001989463
0.0001751172
0.0002122114
0.0002097877
0.0002042548
0.0001917053
0.000165912
0.0002130303
0.000211346
0.0002080883
0.0002010209
0.0001868654
0.0001619563
0.0002137605
0.000212549
0.0002106073
0.0002069531
0.0001996567
0.0001864851
0.000164175
0.0002144221
0.0002134896
0.0002122613
0.0002103453
0.0002069894
0.0002009076
0.000190785
0.0001721045
0.0002150311
0.0002142769
0.0002134083
0.0002123076
0.0002107136
0.0002082144
0.0002041838
0.0001980043
0.0001841427
0.0002156
0.0002149755
0.000214303
0.0002135551
0.000212671
0.0002115343
0.0002100148
0.0002079574
0.0002052997
0.000198194
0.000216136
0.0002156198
0.0002150708
0.0002144869
0.0002138585
0.0002131713
0.0002124033
0.0002115575
0.000210678
0.0002099864
0.0001210697
0.0001227752
0.0001222374
0.0001232382
0.0001230508
0.0001227423
0.0001236683
0.0001234925
0.0001233394
0.0001231617
0.0001240676
0.0001238913
0.0001237421
0.0001236307
0.0001235379
0.0001244416
0.0001242633
0.0001241114
0.0001239931
0.0001239189
5.225831e-05
0.0002108668
0.0002087562
0.0001997493
0.0002115232
0.0002090642
0.0002031202
0.0001845539
0.0002122973
0.0002102589
0.000205821
0.0001957376
0.0001725275
0.0002130577
0.0002114817
0.000208515
0.0002021624
0.0001893191
0.0001652757
0.0002137605
0.000212549
0.0002106073
0.0002069531
0.0001996567
0.0001864851
0.000164175
0.0002144081
0.0002134378
0.000212136
0.0002100565
0.0002063431
0.0001995808
0.0001884977
0.0001694919
0.000215008
0.0002142022
0.0002132563
0.0002120129
0.0002101277
0.000207058
0.0002020418
0.000194561
0.000180192
0.0002155697
0.0002148864
0.0002141453
0.0002133017
0.0002122541
0.0002108137
0.0002087644
0.000205884
0.0002022383
0.0001946458
0.0002160992
0.0002155206
0.0002149104
0.0002142632
0.0002135559
0.0002127486
0.0002117827
0.000210654
0.0002094567
0.000208686
0.0001198638
0.0002166007
0.0002161173
0.000215606
0.0002150671
0.0002144984
0.0002138938
0.0002132493
0.0002125682
0.0002119127
0.0002114896
0.0001230012
0.0001214559
0.0001232789
0.0001230672
0.0001224825
0.0001236764
0.0001235088
0.0001233351
0.0001230359
0.0001240702
0.0001238989
0.0001237498
0.0001236252
0.0001234728
0.0001244424
0.0001242662
0.0001241155
0.0001239963
0.0001239158
5.224628e-05
0.0001247904
0.0001246153
0.0001244593
0.000124334
0.0001242443
5.240268e-05
5.226663e-05
0.0002117593
0.0002104195
0.0002078622
0.0001985897
0.0002124128
0.0002108707
0.0002078338
0.0002011292
0.000182897
0.0002131095
0.0002117326
0.000209289
0.0002042339
0.0001939016
0.0001720315
0.000213779
0.0002126276
0.0002108284
0.0002075192
0.0002009665
0.0001889868
0.0001672788
0.0002144081
0.0002134378
0.000212136
0.0002100565
0.0002063431
0.0001995808
0.0001884977
0.0001694919
0.0002149963
0.0002141637
0.0002131759
0.0002118531
0.0002098035
0.0002064114
0.000200855
0.0001927192
0.0001782979
0.0002155493
0.0002148245
0.0002140328
0.0002131143
0.0002119339
0.0002102429
0.0002077579
0.000204231
0.000199929
0.0001924826
0.0002160716
0.0002154417
0.0002147794
0.0002140753
0.0002132918
0.0002123619
0.0002111889
0.0002097549
0.0002082026
0.0002073456
0.0001189133
0.0002165666
0.0002160265
0.0002154636
0.0002148805
0.0002142737
0.0002136305
0.0002129398
0.0002122071
0.000211551
0.0002113082
0.0001228378
0.0001205059
0.000217037
0.0002165833
0.0002161047
0.0002156033
0.0002150788
0.000214531
0.0002139596
0.0002133758
0.0002128229
0.0002124874
0.0001237066
0.0001231749
0.0001218655
0.0001237238
0.0001235749
0.0001233439
0.0001227834
0.0001240789
0.0001239208
0.0001237714
0.0001236182
0.0001233469
0.0001244451
0.0001242745
0.000124127
0.0001240055
0.0001239094
5.22184e-05
0.0001247912
0.0001246182
0.0001244639
0.0001243392
0.000124248
5.240133e-05
5.225461e-05
0.0001251165
0.0001249448
0.0001247885
0.0001246551
0.0001245542
5.253476e-05
5.241013e-05
5.227487e-05
0.0002125489
0.0002115484
0.0002100148
0.0002071933
0.0001980006
0.0002131813
0.0002120644
0.0002102808
0.000206874
0.0001999993
0.0001825837
0.0002138147
0.0002127752
0.0002112334
0.0002085395
0.000203336
0.0001936544
0.000173621
0.0002144221
0.0002134896
0.0002122613
0.0002103453
0.0002069894
0.0002009076
0.000190785
0.0001721045
0.0002149963
0.0002141637
0.0002131759
0.0002118531
0.0002098035
0.0002064114
0.000200855
0.0001927192
0.0001782979
0.000215539
0.0002147929
0.0002139741
0.0002130145
0.0002117589
0.0002099254
0.0002071931
0.0002033131
0.0001986915
0.0001914432
0.000216053
0.0002153874
0.0002146873
0.0002139397
0.0002130944
0.0002120608
0.0002107109
0.0002090156
0.0002071735
0.0002062871
0.0001182775
0.0002165411
0.0002159547
0.0002153484
0.0002147264
0.0002140829
0.0002133965
0.0002126446
0.0002118256
0.0002110918
0.0002108971
0.0001225758
0.000119714
0.0002170052
0.0002164992
0.0002159748
0.0002154386
0.0002148939
0.0002143431
0.0002137885
0.0002132532
0.0002128115
0.0002127071
0.0001238034
0.0001230587
0.0001211183
0.000217447
0.0002170205
0.0002165716
0.0002161024
0.0002156145
0.0002151087
0.0002145886
0.0002140639
0.0002135754
0.0002132712
0.0001241882
0.0001238451
0.0001233845
0.0001222958
0.0001241259
0.0001239992
0.0001238374
0.0001236161
0.0001231181
0.0001244535
0.0001242973
0.0001241561
0.0001240276
0.000123899
5.216566e-05
0.0001247937
0.0001246264
0.0001244762
0.0001243529
0.0001242573
5.239839e-05
5.222676e-05
0.0001251172
0.0001249476
0.000124793
0.0001246609
0.00012456
5.253638e-05
5.240878e-05
5.226285e-05
0.0001254215
0.0001252545
0.0001250986
0.0001249614
0.0001248485
5.266106e-05
5.254131e-05
5.241749e-05
5.22832e-05
0.0002132693
0.0002124411
0.0002113599
0.000209704
0.0002068169
0.0001978852
0.0002138654
0.0002129752
0.0002117613
0.0002098329
0.0002063393
0.0001998552
0.000183601
0.0002144497
0.0002135884
0.0002124942
0.0002108703
0.0002081488
0.0002033043
0.0001950556
0.0001774926
0.000215008
0.0002142022
0.0002132563
0.0002120129
0.0002101277
0.000207058
0.0002020418
0.000194561
0.000180192
0.000215539
0.0002147929
0.0002139741
0.0002130145
0.0002117589
0.0002099254
0.0002071931
0.0002033131
0.0001986915
0.0001914432
0.0002160436
0.0002153597
0.0002146398
0.0002138685
0.0002129884
0.0002118948
0.0002104426
0.0002085968
0.0002065954
0.0002057094
0.0001179604
0.0002165239
0.0002159054
0.000215268
0.0002146171
0.0002139438
0.0002132186
0.0002124074
0.0002115013
0.0002106782
0.0002105003
0.0001223437
0.0001191704
0.0002169814
0.0002164328
0.00021587
0.0002153039
0.00021474
0.0002141807
0.0002136266
0.0002131018
0.0002126893
0.0002126736
0.0001237798
0.0001228584
0.0001204709
0.0002174173
0.0002169421
0.0002164512
0.0002159523
0.0002154523
0.0002149578
0.0002144798
0.0002140408
0.0002137055
0.0002136299
0.0001243694
0.0001239393
0.0001232942
0.0001217135
0.0002178327
0.0002174315
0.0002170095
0.0002165694
0.0002161127
0.0002156418
0.0002151602
0.0002146788
0.0002142311
0.0002139474
0.0001245746
0.000124305
0.0001240108
0.0001236181
0.0001227375
0.0001244977
0.0001243755
0.0001242371
0.0001240828
0.0001238859
5.207419e-05
0.0001248016
0.0001246483
0.0001245066
0.0001243837
0.0001242769
5.239315e-05
5.217422e-05
0.0001251196
0.0001249553
0.0001248052
0.0001246756
0.0001245744
5.254028e-05
5.240583e-05
5.223506e-05
0.0001254222
0.0001252571
0.000125103
0.0001249672
0.0001248549
5.266364e-05
5.254294e-05
5.241614e-05
5.227121e-05
0.0001257075
0.0001255456
0.000125392
0.0001252523
0.000125132
5.278168e-05
5.266682e-05
5.254778e-05
5.242492e-05
5.229135e-05
0.0002139298
0.0002132091
0.0002123483
0.000211221
0.0002095363
0.0002067738
0.0001982365
0.0002144896
0.0002137258
0.0002128048
0.0002115461
0.0002096071
0.0002063333
0.0002007349
0.0001861212
0.0002150311
0.0002142769
0.0002134083
0.0002123076
0.0002107136
0.0002082144
0.0002041838
0.0001980043
0.0001841427
0.0002155493
0.0002148245
0.0002140328
0.0002131143
0.0002119339
0.0002102429
0.0002077579
0.000204231
0.000199929
0.0001924826
0.0002160436
0.0002153597
0.0002146398
0.0002138685
0.0002129884
0.0002118948
0.0002104426
0.0002085968
0.0002065954
0.0002057094
0.0001179604
0.0002165153
0.0002158803
0.0002152268
0.0002145604
0.0002138703
0.0002131221
0.0002122744
0.0002113147
0.0002104356
0.0002102654
0.0001222114
0.0001188962
0.0002169654
0.0002163872
0.0002157973
0.0002152093
0.0002146299
0.0002140603
0.0002134976
0.0002129634
0.000212546
0.0002125713
0.0001237244
0.0001226757
0.0001200159
0.000217395
0.0002168802
0.0002163544
0.0002158302
0.0002153188
0.0002148302
0.0002143782
0.0002139878
0.000213726
0.0002137445
0.0001244356
0.0001239359
0.0001231407
0.0001211954
0.0002178049
0.0002173581
0.0002168973
0.0002164304
0.0002159653
0.0002155109
0.0002150795
0.0002146952
0.0002144088
0.0002143418
0.0001247771
0.0001244665
0.0001240899
0.000123543
0.0001222938
0.0002181958
0.0002178182
0.0002174211
0.0002170074
0.0002165788
0.0002161378
0.0002156885
0.0002152405
0.0002148246
0.0002145527
0.0001249141
0.0001246758
0.0001244438
0.0001241933
0.0001238632
5.193147e-05
0.0001248422
0.0001247223
0.0001245887
0.0001244552
0.0001243173
5.23852e-05
5.208353e-05
0.0001251268
0.0001249758
0.0001248346
0.0001247083
0.0001246033
5.254776e-05
5.240051e-05
5.218272e-05
0.0001254243
0.0001252643
0.0001251146
0.0001249818
0.0001248706
5.266973e-05
5.254682e-05
5.241317e-05
5.224348e-05
0.0001257081
0.000125548
0.0001253961
0.0001252578
0.0001251385
5.278453e-05
5.26694e-05
5.25494e-05
5.242357e-05
5.227938e-05
0.000125976
0.0001258198
0.0001256692
0.0001255293
0.0001254036
5.289866e-05
5.278676e-05
5.267249e-05
5.25543e-05
5.243217e-05
3.414473e-05
0.0002145416
0.0002138914
0.0002131601
0.0002122862
0.0002111574
0.0002095456
0.0002070779
0.0001991305
0.000215065
0.0002143829
0.0002136166
0.0002126957
0.0002114602
0.000209661
0.0002068864
0.0002025917
0.0001906168
0.0002155697
0.0002148864
0.0002141453
0.0002133017
0.0002122541
0.0002108137
0.0002087644
0.000205884
0.0002022383
0.0001946458
0.000216053
0.0002153874
0.0002146873
0.0002139397
0.0002130944
0.0002120608
0.0002107109
0.0002090156
0.0002071735
0.0002062871
0.0001182775
0.0002165153
0.0002158803
0.0002152268
0.0002145604
0.0002138703
0.0002131221
0.0002122744
0.0002113147
0.0002104356
0.0002102654
0.0001222114
0.0001188962
0.0002169574
0.0002163641
0.0002157602
0.0002151606
0.0002145725
0.0002139959
0.0002134256
0.0002128812
0.0002124545
0.0002124972
0.0001236855
0.0001225703
0.0001197838
0.0002173801
0.0002168378
0.0002162873
0.0002157449
0.0002152244
0.0002147374
0.0002142982
0.0002139302
0.0002137
0.0002137645
0.0001244527
0.000123901
0.0001229986
0.0001208241
0.0002177841
0.0002173002
0.000216807
0.0002163176
0.0002158446
0.0002154016
0.0002150053
0.0002146831
0.0002144839
0.00021451
0.0001248745
0.0001245359
0.000124097
0.0001234251
0.000121892
0.0002181697
0.0002177494
0.000217316
0.0002168777
0.0002164423
0.0002160191
0.0002156211
0.0002152701
0.0002150112
0.0002149393
0.0001251142
0.0001248536
0.0001245772
0.0001242533
0.0001237982
5.176797e-05
0.0002185378
0.0002181822
0.0002178084
0.000217419
0.0002170161
0.000216602
0.0002161806
0.0002157613
0.0002153709
0.0002151097
0.0001252226
0.0001250033
0.0001247954
0.0001245957
0.0001243824
5.237126e-05
5.194306e-05
0.0001251638
0.0001250441
0.0001249129
0.000124782
0.0001246601
5.256162e-05
5.239233e-05
5.209283e-05
0.0001254309
0.0001252833
0.0001251422
0.0001250137
0.0001249018
5.26813e-05
5.25542e-05
5.240778e-05
5.219138e-05
0.0001257101
0.0001255547
0.000125407
0.0001252717
0.0001251541
5.279124e-05
5.267549e-05
5.255327e-05
5.242059e-05
5.225172e-05
0.0001259766
0.0001258221
0.0001256731
0.0001255345
0.0001254099
5.290152e-05
5.278962e-05
5.267508e-05
5.255593e-05
5.243082e-05
3.413695e-05
0.0001262285
0.0001260783
0.0001259316
0.0001257927
0.0001256644
5.30113e-05
5.290317e-05
5.279176e-05
5.267822e-05
5.256066e-05
3.423578e-05
3.415162e-05
0.0002151099
0.0002145134
0.0002138621
0.0002131324
0.0002122685
0.0002111879
0.0002097433
0.000207719
0.000200804
0.0002156
0.0002149755
0.000214303
0.0002135551
0.000212671
0.0002115343
0.0002100148
0.0002079574
0.0002052997
0.000198194
0.0002160716
0.0002154417
0.0002147794
0.0002140753
0.0002132918
0.0002123619
0.0002111889
0.0002097549
0.0002082026
0.0002073456
0.0001189133
0.0002165239
0.0002159054
0.000215268
0.0002146171
0.0002139438
0.0002132186
0.0002124074
0.0002115013
0.0002106782
0.0002105003
0.0001223437
0.0001191704
0.0002169574
0.0002163641
0.0002157602
0.0002151606
0.0002145725
0.0002139959
0.0002134256
0.0002128812
0.0002124545
0.0002124972
0.0001236855
0.0001225703
0.0001197838
0.0002173726
0.0002168163
0.0002162531
0.0002157011
0.0002151755
0.0002146885
0.0002142538
0.0002138938
0.0002136747
0.0002137595
0.0001244538
0.000123874
0.0001229159
0.0001206325
0.00021777
0.0002172605
0.0002167445
0.000216239
0.0002157598
0.0002153232
0.0002149475
0.00021466
0.0002145054
0.0002145787
0.0001249193
0.0001245601
0.0001240765
0.0001233162
0.0001215989
0.0002181502
0.0002176951
0.0002172315
0.0002167726
0.000216331
0.0002159208
0.0002155599
0.0002152735
0.0002151037
0.0002151196
0.0001252192
0.0001249474
0.0001246429
0.0001242641
0.0001237083
5.1619e-05
0.0002185133
0.0002181176
0.0002177098
0.0002172976
0.0002168886
0.000216492
0.0002161201
0.0002157934
0.0002155508
0.0002154732
0.0001254111
0.0001251781
0.0001249422
0.0001246997
0.0001244228
5.23449e-05
5.178245e-05
0.0002188597
0.000218525
0.000218173
0.0002178064
0.0002174271
0.0002170375
0.0002166415
0.0002162474
0.0002158798
0.0002156279
0.0001255099
0.0001253021
0.0001251083
0.000124926
0.0001247518
5.258121e-05
5.237798e-05
5.195456e-05
0.0001254646
0.000125346
0.000125215
0.0001250848
0.0001249622
5.270211e-05
5.256769e-05
5.239938e-05
5.21023e-05
0.000125716
0.0001255722
0.0001254327
0.0001253019
0.0001251851
5.280391e-05
5.268696e-05
5.256055e-05
5.241513e-05
5.219987e-05
0.0001259784
0.0001258283
0.0001256832
0.0001255477
0.0001254249
5.290823e-05
5.279632e-05
5.268115e-05
5.255978e-05
5.242783e-05
3.411901e-05
0.000126229
0.0001260803
0.0001259353
0.0001257976
0.0001256703
5.301405e-05
5.290603e-05
5.279462e-05
5.268081e-05
5.256229e-05
3.423491e-05
3.414388e-05
0.0001264662
0.0001263221
0.00012618
0.0001260433
0.000125914
5.311997e-05
5.301532e-05
5.290759e-05
5.279682e-05
5.268379e-05
3.431883e-05
3.424197e-05
3.415611e-05
0.0002156402
0.0002150867
0.0002144932
0.0002138494
0.0002131341
0.0002123054
0.0002113208
0.0002101222
0.0002086768
0.0002039306
0.0002160992
0.0002155206
0.0002149104
0.0002142632
0.0002135559
0.0002127486
0.0002117827
0.000210654
0.0002094567
0.000208686
0.0001198638
0.0002165411
0.0002159547
0.0002153484
0.0002147264
0.0002140829
0.0002133965
0.0002126446
0.0002118256
0.0002110918
0.0002108971
0.0001225758
0.000119714
0.0002169654
0.0002163872
0.0002157973
0.0002152093
0.0002146299
0.0002140603
0.0002134976
0.0002129634
0.000212546
0.0002125713
0.0001237244
0.0001226757
0.0001200159
0.0002173726
0.0002168163
0.0002162531
0.0002157011
0.0002151755
0.0002146885
0.0002142538
0.0002138938
0.0002136747
0.0002137595
0.0001244538
0.000123874
0.0001229159
0.0001206325
0.000217763
0.0002172404
0.0002167127
0.0002161988
0.0002157161
0.0002152822
0.0002149158
0.0002146435
0.0002145077
0.0002146022
0.0001249364
0.000124566
0.0001240586
0.0001232526
0.000121446
0.000218137
0.0002176579
0.0002171731
0.0002166994
0.0002162529
0.0002158506
0.0002155128
0.0002152644
0.0002151428
0.0002152041
0.0001252731
0.0001249937
0.0001246702
0.0001242533
0.0001236272
5.150939e-05
0.0002184949
0.0002180667
0.0002176306
0.0002171992
0.0002167848
0.0002164012
0.0002160656
0.0002158018
0.0002156448
0.0002156492
0.0001255138
0.000125277
0.0001250272
0.0001247571
0.0001244333
5.231149e-05
5.1636e-05
0.0002188367
0.0002184644
0.0002180805
0.0002176924
0.0002173076
0.0002169347
0.0002165852
0.000216278
0.0002160478
0.0002159641
0.0001256845
0.0001254666
0.0001252528
0.0001250414
0.0001248277
5.259434e-05
5.23518e-05
5.179677e-05
0.0002191628
0.0002188478
0.0002185164
0.0002181711
0.0002178139
0.000217447
0.0002170742
0.0002167031
0.0002163561
0.0002161138
0.0001257798
0.0001255815
0.0001253955
0.0001252227
0.0001250595
5.273247e-05
5.258643e-05
5.238461e-05
5.196617e-05
0.000125747
0.0001256297
0.0001254998
0.0001253686
0.0001252442
5.282651e-05
5.270738e-05
5.257366e-05
5.240651e-05
5.211161e-05
0.0001259838
0.0001258445
0.000125707
0.0001255759
0.0001254544
5.292088e-05
5.280891e-05
5.269252e-05
5.256696e-05
5.24223e-05
3.408544e-05
0.0001262307
0.0001260862
0.0001259447
0.0001258099
0.0001256845
5.302052e-05
5.291274e-05
5.280131e-05
5.268687e-05
5.256612e-05
3.423296e-05
3.412604e-05
0.0001264667
0.0001263241
0.0001261834
0.0001260479
0.0001259196
5.312259e-05
5.301808e-05
5.291046e-05
5.279968e-05
5.268638e-05
3.431989e-05
3.424111e-05
3.414839e-05
0.0001266902
0.0001265524
0.0001264153
0.0001262816
0.000126153
5.322441e-05
5.312358e-05
5.301927e-05
5.291208e-05
5.280171e-05
3.439846e-05
3.432436e-05
3.424594e-05
3.415961e-05
0.000216136
0.0002156198
0.0002150708
0.0002144869
0.0002138585
0.0002131713
0.0002124033
0.0002115575
0.000210678
0.0002099864
0.0001210697
0.0002165666
0.0002160265
0.0002154636
0.0002148805
0.0002142737
0.0002136305
0.0002129398
0.0002122071
0.000211551
0.0002113082
0.0001228378
0.0001205059
0.0002169814
0.0002164328
0.00021587
0.0002153039
0.00021474
0.0002141807
0.0002136266
0.0002131018
0.0002126893
0.0002126736
0.0001237798
0.0001228584
0.0001204709
0.0002173801
0.0002168378
0.0002162873
0.0002157449
0.0002152244
0.0002147374
0.0002142982
0.0002139302
0.0002137
0.0002137645
0.0001244527
0.000123901
0.0001229986
0.0001208241
0.000217763
0.0002172404
0.0002167127
0.0002161988
0.0002157161
0.0002152822
0.0002149158
0.0002146435
0.0002145077
0.0002146022
0.0001249364
0.000124566
0.0001240586
0.0001232526
0.000121446
0.0002181304
0.000217639
0.0002171434
0.0002166619
0.0002162127
0.0002158142
0.0002154872
0.0002152562
0.0002151558
0.0002152377
0.000125296
0.0001250123
0.0001246788
0.0001242422
0.00012358
5.14519e-05
0.0002184826
0.0002180318
0.0002175758
0.0002171307
0.000216712
0.0002163367
0.0002160241
0.0002157981
0.0002156884
0.0002157359
0.0001255688
0.0001253302
0.000125072
0.0001247842
0.0001244288
5.228202e-05
5.152815e-05
0.0002188195
0.0002184166
0.0002180062
0.0002176002
0.0002172103
0.0002168499
0.000216535
0.0002162871
0.0002161375
0.0002161298
0.0001257814
0.0001255628
0.0001253416
0.0001251143
0.0001248746
5.25983e-05
5.231893e-05
5.165281e-05
0.0002191412
0.000218791
0.0002184296
0.0002180642
0.0002177018
0.0002173505
0.0002170213
0.0002167312
0.0002165114
0.0002164236
0.0001259406
0.0001257339
0.0001255319
0.0001253371
0.0001251456
5.275918e-05
5.25991e-05
5.23586e-05
5.181116e-05
0.0002194479
0.0002191517
0.0002188398
0.0002185146
0.0002181781
0.0002178325
0.0002174812
0.0002171315
0.0002168036
0.000216571
0.000126035
0.0001258448
0.0001256654
0.0001254971
0.0001253393
5.285969e-05
5.273681e-05
5.259155e-05
5.239136e-05
5.197759e-05
0.0001260122
0.0001258974
0.0001257689
0.0001256379
0.0001255106
5.294333e-05
5.283115e-05
5.271255e-05
5.25797e-05
5.241345e-05
3.402852e-05
0.0001262357
0.0001261011
0.0001259669
0.0001258363
0.0001257124
5.30327e-05
5.292532e-05
5.281381e-05
5.269814e-05
5.257318e-05
3.422933e-05
3.409269e-05
0.0001264682
0.0001263295
0.0001261923
0.0001260595
0.000125933
5.312874e-05
5.302455e-05
5.291716e-05
5.280636e-05
5.269242e-05
3.432237e-05
3.423918e-05
3.413061e-05
0.0001266906
0.0001265542
0.0001264185
0.000126286
0.0001261583
5.322689e-05
5.312621e-05
5.302203e-05
5.291495e-05
5.280458e-05
3.440015e-05
3.432543e-05
3.424509e-05
3.415191e-05
0.0001269013
0.0001267699
0.0001266381
0.0001265083
0.0001263814
5.332474e-05
5.322768e-05
5.312712e-05
5.302326e-05
5.291641e-05
3.447477e-05
3.440342e-05
3.432783e-05
3.4249e-05
3.416159e-05
0.0001220771
0.0002166007
0.0002161173
0.000215606
0.0002150671
0.0002144984
0.0002138938
0.0002132493
0.0002125682
0.0002119127
0.0002114896
0.0001230012
0.0001214559
0.0002170052
0.0002164992
0.0002159748
0.0002154386
0.0002148939
0.0002143431
0.0002137885
0.0002132532
0.0002128115
0.0002127071
0.0001238034
0.0001230587
0.0001211183
0.000217395
0.0002168802
0.0002163544
0.0002158302
0.0002153188
0.0002148302
0.0002143782
0.0002139878
0.000213726
0.0002137445
0.0001244356
0.0001239359
0.0001231407
0.0001211954
0.00021777
0.0002172605
0.0002167445
0.000216239
0.0002157598
0.0002153232
0.0002149475
0.00021466
0.0002145054
0.0002145787
0.0001249193
0.0001245601
0.0001240765
0.0001233162
0.0001215989
0.0002181304
0.000217639
0.0002171434
0.0002166619
0.0002162127
0.0002158142
0.0002154872
0.0002152562
0.0002151558
0.0002152377
0.000125296
0.0001250123
0.0001246788
0.0001242422
0.00012358
5.14519e-05
0.0002184764
0.0002180141
0.0002175479
0.0002170957
0.0002166747
0.0002163033
0.0002160016
0.0002157931
0.0002157048
0.0002157719
0.0001255929
0.0001253533
0.0001250909
0.0001247942
0.0001244228
5.226498e-05
5.147153e-05
0.0002188079
0.0002183838
0.0002179548
0.0002175359
0.0002171422
0.0002167897
0.0002164968
0.000216285
0.0002161805
0.0002162131
0.0001258343
0.0001256162
0.0001253915
0.0001251553
0.0001248995
5.259737e-05
5.229003e-05
5.154669e-05
0.000219125
0.0002187461
0.0002183599
0.0002179776
0.0002176105
0.000217271
0.0002169741
0.0002167396
0.0002165949
0.0002165776
0.0001260308
0.0001258244
0.0001256179
0.0001254131
0.000125205
5.277681e-05
5.260299e-05
5.232627e-05
5.166965e-05
0.0002194277
0.0002190984
0.0002187584
0.0002184144
0.000218073
0.0002177419
0.0002174313
0.0002171569
0.0002169471
0.0002168567
0.0001261831
0.0001259852
0.0001257921
0.0001256058
0.0001254259
5.289061e-05
5.276288e-05
5.260377e-05
5.23655e-05
5.182529e-05
0.0002197159
0.0002194376
0.0002191443
0.0002188382
0.0002185213
0.0002181956
0.0002178646
0.0002175347
0.0002172249
0.0002170023
0.0001262768
0.0001260944
0.0001259207
0.0001257566
0.0001256005
5.297627e-05
5.286342e-05
5.274106e-05
5.259676e-05
5.239792e-05
3.394256e-05
0.000126262
0.00012615
0.000126024
0.0001258937
0.0001257652
5.305421e-05
5.294744e-05
5.283569e-05
5.271778e-05
5.258554e-05
3.422345e-05
3.403632e-05
0.0001264728
0.0001263435
0.0001262129
0.0001260842
0.0001259593
5.314029e-05
5.303666e-05
5.292967e-05
5.281876e-05
5.270358e-05
3.432691e-05
3.423555e-05
3.409744e-05
0.000126692
0.0001265593
0.0001264268
0.0001262969
0.0001261709
5.323272e-05
5.313236e-05
5.30285e-05
5.292164e-05
5.281124e-05
3.440407e-05
3.432792e-05
3.424316e-05
3.413419e-05
0.0001269017
0.0001267716
0.0001266411
0.0001265124
0.0001263864
5.332709e-05
5.323017e-05
5.312976e-05
5.302604e-05
5.291928e-05
3.447664e-05
3.440512e-05
3.43289e-05
3.424814e-05
3.41539e-05
0.0001271004
0.0001269754
0.0001268492
0.0001267237
0.0001265995
5.342091e-05
5.332771e-05
5.323087e-05
5.313071e-05
5.302712e-05
3.454906e-05
3.447926e-05
3.440646e-05
3.433046e-05
3.425066e-05
0.0001222222
0.0001227752
0.0001222374
0.000217037
0.0002165833
0.0002161047
0.0002156033
0.0002150788
0.000214531
0.0002139596
0.0002133758
0.0002128229
0.0002124874
0.0001237066
0.0001231749
0.0001218655
0.0002174173
0.0002169421
0.0002164512
0.0002159523
0.0002154523
0.0002149578
0.0002144798
0.0002140408
0.0002137055
0.0002136299
0.0001243694
0.0001239393
0.0001232942
0.0001217135
0.0002177841
0.0002173002
0.000216807
0.0002163176
0.0002158446
0.0002154016
0.0002150053
0.0002146831
0.0002144839
0.00021451
0.0001248745
0.0001245359
0.000124097
0.0001234251
0.000121892
0.000218137
0.0002176579
0.0002171731
0.0002166994
0.0002162529
0.0002158506
0.0002155128
0.0002152644
0.0002151428
0.0002152041
0.0001252731
0.0001249937
0.0001246702
0.0001242533
0.0001236272
5.150939e-05
0.0002184764
0.0002180141
0.0002175479
0.0002170957
0.0002166747
0.0002163033
0.0002160016
0.0002157931
0.0002157048
0.0002157719
0.0001255929
0.0001253533
0.0001250909
0.0001247942
0.0001244228
5.226498e-05
5.147153e-05
0.0002188021
0.0002183673
0.0002179286
0.0002175031
0.0002171073
0.0002167586
0.0002164762
0.0002162813
0.0002161974
0.0002162484
0.0001258579
0.00012564
0.0001254138
0.0001251733
0.0001249098
5.259566e-05
5.227334e-05
5.149095e-05
0.0002191142
0.0002187154
0.0002183117
0.0002179174
0.0002175467
0.0002172147
0.0002169384
0.0002167378
0.0002166356
0.0002166559
0.0001260806
0.0001258756
0.0001256677
0.000125458
0.0001252406
5.278677e-05
5.260215e-05
5.229793e-05
5.156524e-05
0.0002194125
0.0002190564
0.0002186931
0.0002183332
0.0002179874
0.0002176673
0.000217387
0.0002171645
0.0002170245
0.0002169994
0.0001262668
0.0001260695
0.0001258731
0.0001256795
0.000125488
5.291301e-05
5.278023e-05
5.260759e-05
5.233369e-05
5.168619e-05
0.0002196969
0.0002193878
0.0002190681
0.0002187443
0.0002184228
0.0002181108
0.0002178177
0.0002175581
0.0002173579
0.0002172667
0.0001264136
0.0001262239
0.0001260378
0.0001258581
0.0001256836
5.300774e-05
5.28937e-05
5.276651e-05
5.260854e-05
5.237221e-05
3.384507e-05
0.0002199676
0.0002197065
0.0002194308
0.0002191429
0.0002188446
0.0002185378
0.0002182258
0.0002179147
0.000217622
0.0002174095
0.0001265061
0.0001263313
0.0001261636
0.0001260033
0.0001258492
5.308572e-05
5.297956e-05
5.286708e-05
5.274539e-05
5.26018e-05
3.421311e-05
3.395157e-05
0.0001264972
0.0001263889
0.0001262659
0.0001261376
0.0001260086
5.316064e-05
5.305789e-05
5.295146e-05
5.284027e-05
5.272282e-05
3.433473e-05
3.42296e-05
3.404155e-05
0.0001266963
0.0001265724
0.0001264462
0.00012632
0.0001261956
5.324363e-05
5.314386e-05
5.304054e-05
5.293406e-05
5.282354e-05
3.441126e-05
3.433242e-05
3.423949e-05
3.410117e-05
0.000126903
0.0001267765
0.000126649
0.0001265227
0.0001263984
5.333261e-05
5.323599e-05
5.313591e-05
5.30325e-05
5.292596e-05
3.448097e-05
3.440904e-05
3.433138e-05
3.42462e-05
3.413621e-05
0.0001271007
0.0001269771
0.0001268521
0.0001267277
0.0001266043
5.342314e-05
5.333007e-05
5.323337e-05
5.313335e-05
5.302989e-05
3.455093e-05
3.448113e-05
3.440816e-05
3.433153e-05
3.424979e-05
0.0001272881
0.0001271696
0.0001270491
0.0001269284
0.0001268076
5.351299e-05
5.342362e-05
5.333062e-05