/*--------------------------------*- C++ -*----------------------------------*\
| =========                 |                                                 |
| \\      /  F ield         | OpenFOAM: The Open Source CFD Toolbox           |
|  \\    /   O peration     | Version:  2306                                  |
|   \\  /    A nd           | Website:  www.openfoam.com                      |
|    \\/     M anipulation  |                                                 |
\*---------------------------------------------------------------------------*/
FoamFile
{
    version     2.0;
    format      ascii;
    arch        "LSB;label=32;scalar=64";
    class       volScalarField;
    location    "1.5/air";
    object      N2;
}
// * * * * * * * * * * * * * * * * * * * * * * * * * * * * * * * * * * * * * //

dimensions      [0 0 0 0 0 0 0];

internalField   nonuniform List<scalar> 
16000
(
0.7699424
0.7699215
0.7711143
0.7699582
0.7698955
0.7710427
0.7699277
0.7726988
0.771211
0.7700182
0.7698746
0.7709508
0.7698922
0.7725831
0.7711116
0.7699726
0.7746725
0.7728457
0.7714672
0.7701605
0.7698634
0.7708738
0.7698652
0.7724234
0.7709925
0.769921
0.774555
0.7726956
0.7713244
0.7700953
0.7766767
0.7748276
0.7732105
0.7719563
0.7704425
0.7698634
0.7708312
0.7698513
0.7722812
0.7708972
0.769884
0.7743936
0.7724965
0.7711578
0.7700216
0.7765611
0.7746756
0.7730207
0.7717635
0.7703522
0.7786297
0.7768296
0.7752119
0.7738562
0.7727554
0.7709495
0.8102445
0.7698746
0.7708312
0.7698513
0.7721992
0.7708458
0.7698658
0.7742496
0.7723232
0.7710275
0.7699691
0.7764024
0.7744756
0.77277
0.7715294
0.7702464
0.7785188
0.7766805
0.77502
0.7736275
0.7725115
0.7708285
0.7805046
0.7787772
0.7772078
0.7758897
0.7748409
0.773944
0.7718052
0.8088317
0.8117788
0.8104682
0.7698955
0.7708738
0.7698652
0.7721992
0.7708458
0.7698658
0.7741664
0.7722247
0.7709586
0.7699426
0.7762611
0.7743015
0.7725534
0.7713445
0.7701668
0.7783668
0.7764847
0.7747706
0.7733297
0.7722079
0.770677
0.780399
0.7786345
0.7770211
0.7756626
0.7745759
0.7736485
0.7716423
0.7822947
0.7806451
0.7791417
0.7778715
0.7769105
0.7762159
0.7756015
0.7731875
0.8059783
0.8105121
0.8090605
0.8120345
0.8119837
0.8109148
0.7699215
0.7709508
0.7698922
0.7722812
0.7708972
0.769884
0.7741664
0.7722247
0.7709586
0.7699426
0.7761797
0.7742022
0.7724307
0.7712477
0.7701251
0.7782314
0.7763145
0.7745558
0.7730714
0.7719586
0.7705552
0.7802542
0.7784471
0.7767792
0.775367
0.77423
0.7732737
0.7714251
0.7821943
0.7805092
0.7789636
0.7776534
0.776656
0.7759172
0.7752474
0.7729454
0.7840033
0.7824284
0.7809922
0.77978
0.7788644
0.7783095
0.7780246
0.777811
0.7753733
0.8015813
0.8079595
0.8062252
0.8108571
0.8107208
0.8095161
0.8120192
0.8122234
0.8123927
0.811583
0.7699424
0.7710427
0.7699277
0.7724234
0.7709925
0.769921
0.7742496
0.7723232
0.7710275
0.7699691
0.7761797
0.7742022
0.7724307
0.7712477
0.7701251
0.7781533
0.7762176
0.774434
0.7729234
0.7718222
0.7704889
0.7801253
0.7782843
0.7765712
0.7751121
0.7739321
0.7729597
0.7712421
0.7820567
0.7803309
0.778733
0.7773703
0.7763217
0.7755239
0.7747918
0.7726174
0.7839078
0.7822993
0.7808228
0.7795731
0.7786237
0.778033
0.7776877
0.7773672
0.7749219
0.7856363
0.7841306
0.7827587
0.7815996
0.7807324
0.7802142
0.7801093
0.7803072
0.7806741
0.7788717
0.7952315
0.804043
0.8018968
0.8084853
0.8081825
0.8067107
0.8109188
0.8110494
0.8111365
0.8101951
0.8119901
0.8121953
0.8126007
0.8130048
0.8124711
0.7711143
0.7699582
0.7725831
0.7711116
0.7699726
0.7743936
0.7724965
0.7711578
0.7700216
0.7762611
0.7743015
0.7725534
0.7713445
0.7701668
0.7781533
0.7762176
0.774434
0.7729234
0.7718222
0.7704889
0.780051
0.7781916
0.7764534
0.7749676
0.7737635
0.7727852
0.7711398
0.7819343
0.7801761
0.7785347
0.7771267
0.776032
0.775184
0.7744068
0.772341
0.7837768
0.7821298
0.7806038
0.7793047
0.7783084
0.7776656
0.7772409
0.7767996
0.7743772
0.7855452
0.7840076
0.7825978
0.7814032
0.7805054
0.7799564
0.7798064
0.779902
0.7800309
0.7777821
0.7872001
0.7857577
0.7844449
0.7833366
0.7825049
0.7820229
0.7819366
0.7823296
0.7831241
0.78438
0.7848998
0.7984319
0.7958817
0.8048484
0.8043224
0.8024841
0.8087026
0.8086904
0.8086217
0.8074233
0.8109544
0.811098
0.8114324
0.8117566
0.8110942
0.8120775
0.8121557
0.8125471
0.8131654
0.8138189
0.8137541
0.7726988
0.771211
0.7700182
0.774555
0.7726956
0.7713244
0.7700953
0.7764024
0.7744756
0.77277
0.7715294
0.7702464
0.7782314
0.7763145
0.7745558
0.7730714
0.7719586
0.7705552
0.780051
0.7781916
0.7764534
0.7749676
0.7737635
0.7727852
0.7711398
0.7818637
0.7800879
0.7784225
0.7769889
0.7758674
0.7749916
0.7741917
0.7721873
0.7836603
0.7819828
0.7804156
0.7790739
0.7780357
0.7773451
0.7768543
0.7763247
0.7739508
0.7854203
0.7838463
0.7823897
0.7811488
0.7802084
0.7796147
0.7794002
0.7793719
0.7792703
0.7768093
0.7871129
0.7856404
0.7842916
0.7831501
0.7822898
0.781781
0.7816565
0.7819683
0.7825422
0.7831777
0.7817149
0.7887006
0.7873161
0.7860575
0.7849949
0.7841979
0.7837303
0.7836636
0.7840459
0.7850146
0.7866315
0.7894423
0.7879073
0.7996425
0.7989917
0.7968507
0.8053055
0.8051048
0.8048446
0.8032981
0.8088687
0.8088935
0.8090943
0.8092674
0.8083524
0.8110985
0.8111228
0.811455
0.8120039
0.8125783
0.8123884
0.8122578
0.812234
0.8124865
0.8130738
0.8139165
0.8149953
0.8140187
0.7746725
0.7728457
0.7714672
0.7701605
0.7765611
0.7746756
0.7730207
0.7717635
0.7703522
0.7783668
0.7764847
0.7747706
0.7733297
0.7722079
0.770677
0.7801253
0.7782843
0.7765712
0.7751121
0.7739321
0.7729597
0.7712421
0.7818637
0.7800879
0.7784225
0.7769889
0.7758674
0.7749916
0.7741917
0.7721873
0.7835931
0.7818991
0.7803092
0.7789433
0.777881
0.7771624
0.7766356
0.7760613
0.7737235
0.7853091
0.7837064
0.7822111
0.7809303
0.7799517
0.7793174
0.7790452
0.7789202
0.7786654
0.7761507
0.7869935
0.7854866
0.7840936
0.7829085
0.7820089
0.7814609
0.7812821
0.7814911
0.781846
0.7820544
0.7800359
0.7886171
0.7872039
0.7859113
0.7848172
0.7839936
0.7835014
0.7834016
0.7837116
0.7844878
0.7855281
0.7864692
0.7841553
0.7901432
0.7888117
0.7876027
0.7865824
0.7858149
0.7853637
0.785287
0.7856663
0.7865828
0.7883081
0.7913134
0.7919847
0.7902469
0.8004456
0.8001573
0.799832
0.7979779
0.8056721
0.805544
0.8055841
0.8055716
0.8043046
0.809127
0.8090479
0.8092695
0.8096882
0.8101109
0.8096716
0.8113282
0.8112576
0.8114583
0.8119877
0.8127613
0.8137619
0.8126552
0.8125281
0.8124065
0.8125468
0.8129817
0.8137745
0.8150022
0.8152379
0.8142855
0.7766767
0.7748276
0.7732105
0.7719563
0.7704425
0.7785188
0.7766805
0.77502
0.7736275
0.7725115
0.7708285
0.7802542
0.7784471
0.7767792
0.775367
0.77423
0.7732737
0.7714251
0.7819343
0.7801761
0.7785347
0.7771267
0.776032
0.775184
0.7744068
0.772341
0.7835931
0.7818991
0.7803092
0.7789433
0.777881
0.7771624
0.7766356
0.7760613
0.7737235
0.7852451
0.7836268
0.78211
0.7808067
0.779806
0.7791482
0.7788429
0.7786675
0.7783392
0.7758236
0.7868873
0.7853531
0.7839236
0.7827011
0.7817663
0.7811824
0.7809557
0.7810813
0.7812862
0.7812567
0.7790695
0.7885027
0.7870569
0.7857223
0.7845872
0.7837268
0.7831988
0.7830515
0.7832716
0.7838552
0.7844956
0.7847789
0.7821119
0.7900631
0.7887042
0.7874628
0.7864127
0.7856201
0.7851461
0.785039
0.7853532
0.7860917
0.7872885
0.7885595
0.7885352
0.7863183
0.7915326
0.7902499
0.7890863
0.7881045
0.787365
0.786925
0.7868447
0.7871865
0.7880684
0.7896847
0.792674
0.7936607
0.7939758
0.792162
0.8011
0.8009243
0.8009289
0.8008175
0.7991866
0.8061059
0.8058958
0.8059896
0.8062512
0.8064747
0.8056716
0.8094563
0.8092964
0.809401
0.8098225
0.8104641
0.8113107
0.8099435
0.8116427
0.8114793
0.8115747
0.8119589
0.8126938
0.8138524
0.8140059
0.8129243
0.8128637
0.8126698
0.8127034
0.813015
0.8136405
0.8147873
0.8152261
0.8154825
0.8145545
0.7786297
0.7768296
0.7752119
0.7738562
0.7727554
0.7709495
0.780399
0.7786345
0.7770211
0.7756626
0.7745759
0.7736485
0.7716423
0.7820567
0.7803309
0.778733
0.7773703
0.7763217
0.7755239
0.7747918
0.7726174
0.7836603
0.7819828
0.7804156
0.7790739
0.7780357
0.7773451
0.7768543
0.7763247
0.7739508
0.7852451
0.7836268
0.78211
0.7808067
0.779806
0.7791482
0.7788429
0.7786675
0.7783392
0.7758236
0.7868261
0.7852772
0.7838275
0.7825838
0.7816289
0.7810239
0.7807701
0.7808506
0.7809824
0.7808486
0.7786188
0.788401
0.7869293
0.7855602
0.7843898
0.7834967
0.7829361
0.7827465
0.782895
0.7833447
0.7837595
0.7837496
0.7809641
0.7899533
0.7885633
0.7872821
0.7861931
0.7853659
0.7848587
0.784708
0.784941
0.7855043
0.7863364
0.7869938
0.7865492
0.7840369
0.7914555
0.7901467
0.7889522
0.7879421
0.7871788
0.7867173
0.7866087
0.7868895
0.7876063
0.7887282
0.790108
0.7904603
0.7903761
0.7882135
0.7928726
0.7916351
0.7905134
0.7895671
0.7888529
0.7884251
0.7883361
0.788652
0.789465
0.7910003
0.7937899
0.794861
0.795494
0.7956188
0.7937793
0.8017855
0.8015492
0.8016414
0.8018324
0.8018832
0.8006441
0.8065879
0.8063171
0.8063139
0.8066098
0.8070798
0.8077065
0.8059528
0.8098597
0.809617
0.8096299
0.8099204
0.810545
0.8115679
0.811558
0.8102175
0.8120177
0.8117866
0.8117804
0.812048
0.8126226
0.8137111
0.8140774
0.814252
0.8131955
0.8132526
0.812999
0.8129527
0.813148
0.813638
0.8145929
0.8149962
0.8154518
0.8157293
0.8148258
0.7805046
0.7787772
0.7772078
0.7758897
0.7748409
0.773944
0.7718052
0.7821943
0.7805092
0.7789636
0.7776534
0.776656
0.7759172
0.7752474
0.7729454
0.7837768
0.7821298
0.7806038
0.7793047
0.7783084
0.7776656
0.7772409
0.7767996
0.7743772
0.7853091
0.7837064
0.7822111
0.7809303
0.7799517
0.7793174
0.7790452
0.7789202
0.7786654
0.7761507
0.7868261
0.7852772
0.7838275
0.7825838
0.7816289
0.7810239
0.7807701
0.7808506
0.7809824
0.7808486
0.7786188
0.7883423
0.7868567
0.7854685
0.7842783
0.7833662
0.7827867
0.782573
0.7826834
0.783067
0.7833819
0.783253
0.7804385
0.7898556
0.7884411
0.7871271
0.7860047
0.7851467
0.7846092
0.7844201
0.7845882
0.7850319
0.7856579
0.786039
0.7853794
0.7827507
0.7913499
0.7900114
0.788779
0.787732
0.7869359
0.7864432
0.7862939
0.7864991
0.7870536
0.7878375
0.7886528
0.7886165
0.7881949
0.7857957
0.7927983
0.7915359
0.7903846
0.7894113
0.7886746
0.7882263
0.7881104
0.788369
0.789026
0.790097
0.7913768
0.7918755
0.7921501
0.791998
0.7898595
0.7941669
0.7929713
0.7918885
0.790975
0.7902845
0.7898672
0.7897732
0.7900591
0.7908205
0.7922472
0.7948781
0.7958452
0.7965669
0.7970021
0.7970193
0.7953788
0.8024861
0.8022093
0.802222
0.8024807
0.8028079
0.803179
0.8009425
0.8071275
0.8067881
0.8067118
0.8068959
0.8073802
0.8082096
0.8079599
0.8062357
0.8103145
0.8100127
0.8099335
0.8101205
0.810599
0.8115731
0.8117954
0.8118072
0.8104935
0.8124427
0.8121552
0.8120734
0.8122296
0.8126753
0.8135789
0.8139209
0.8143043
0.8145001
0.813469
0.8136808
0.8133822
0.8132693
0.8133763
0.8137397
0.8145385
0.8147893
0.8152068
0.8156795
0.815978
0.8151567
0.7822947
0.7806451
0.7791417
0.7778715
0.7769105
0.7762159
0.7756015
0.7731875
0.7839078
0.7822993
0.7808228
0.7795731
0.7786237
0.778033
0.7776877
0.7773672
0.7749219
0.7854203
0.7838463
0.7823897
0.7811488
0.7802084
0.7796147
0.7794002
0.7793719
0.7792703
0.7768093
0.7868873
0.7853531
0.7839236
0.7827011
0.7817663
0.7811824
0.7809557
0.7810813
0.7812862
0.7812567
0.7790695
0.7883423
0.7868567
0.7854685
0.7842783
0.7833662
0.7827867
0.782573
0.7826834
0.783067
0.7833819
0.783253
0.7804385
0.7897993
0.7883716
0.7870394
0.7858982
0.7850226
0.7844674
0.7842565
0.78439
0.7847755
0.7853096
0.7855777
0.7848268
0.7821653
0.791256
0.7898941
0.7886305
0.7875517
0.7867266
0.7862053
0.7860201
0.7861656
0.7866093
0.7872046
0.7877668
0.7875291
0.7869153
0.7844172
0.7926967
0.7914058
0.7902183
0.7892099
0.788442
0.787964
0.7878097
0.7879972
0.7885016
0.7892562
0.7900104
0.7901579
0.7901216
0.789702
0.7873816
0.7940953
0.7928757
0.7917646
0.7908253
0.7901133
0.7896765
0.7895569
0.7897882
0.7904019
0.7913889
0.7925971
0.7930365
0.7934451
0.7936344
0.7934148
0.7914963
0.7954184
0.7942621
0.7932153
0.7923324
0.791664
0.7912571
0.7911578
0.7914203
0.792128
0.7934691
0.7959279
0.7968189
0.7974472
0.7979684
0.7982832
0.7984194
0.7957035
0.8032208
0.802888
0.8028441
0.8030092
0.8033864
0.8039921
0.8034444
0.8012413
0.8077045
0.8073181
0.8071625
0.8072611
0.8076187
0.8084306
0.8084421
0.8082149
0.8065202
0.8108118
0.8104606
0.8103141
0.8103991
0.8107617
0.8115645
0.8117849
0.8120247
0.8120583
0.8107717
0.8129037
0.8125743
0.8124292
0.8125014
0.8128253
0.8135793
0.8137761
0.8141324
0.814533
0.8147503
0.8138026
0.8141398
0.8138051
0.8136411
0.8136741
0.8139401
0.8145949
0.8147242
0.8149873
0.8154192
0.8159091
0.8162815
0.8154954
0.7840033
0.7824284
0.7809922
0.77978
0.7788644
0.7783095
0.7780246
0.777811
0.7753733
0.7855452
0.7840076
0.7825978
0.7814032
0.7805054
0.7799564
0.7798064
0.779902
0.7800309
0.7777821
0.7869935
0.7854866
0.7840936
0.7829085
0.7820089
0.7814609
0.7812821
0.7814911
0.781846
0.7820544
0.7800359
0.788401
0.7869293
0.7855602
0.7843898
0.7834967
0.7829361
0.7827465
0.782895
0.7833447
0.7837595
0.7837496
0.7809641
0.7897993
0.7883716
0.7870394
0.7858982
0.7850226
0.7844674
0.7842565
0.78439
0.7847755
0.7853096
0.7855777
0.7848268
0.7821653
0.7912019
0.7898274
0.7885465
0.7874499
0.7866079
0.7860702
0.7858646
0.7859784
0.7863682
0.7868804
0.7873388
0.7870149
0.7863167
0.7837901
0.7926062
0.791293
0.7900757
0.7890371
0.7882414
0.7877365
0.7875483
0.7876795
0.7880806
0.788659
0.78918
0.7891461
0.7889301
0.788347
0.7859561
0.7939973
0.7927504
0.7916047
0.7906318
0.7898901
0.789425
0.7892689
0.7894326
0.7899018
0.7905903
0.7913056
0.791422
0.7915528
0.7914959
0.7910636
0.7890189
0.7953493
0.7941699
0.793096
0.7921884
0.7914993
0.7910739
0.7909501
0.7911605
0.7917273
0.7926508
0.7937611
0.7941635
0.7945094
0.7948222
0.794926
0.7948319
0.7918286
0.7966302
0.7955103
0.7944974
0.7936429
0.7929951
0.7925983
0.7924953
0.7927356
0.7933994
0.7946569
0.7969742
0.7977698
0.7983311
0.7987622
0.7991571
0.7995581
0.7987038
0.7960261
0.8039726
0.8036033
0.8034899
0.8035868
0.8038583
0.8044852
0.8042346
0.8037103
0.8015405
0.8083128
0.8078865
0.8076745
0.8076835
0.8079435
0.8086043
0.8086468
0.808676
0.8084715
0.8068064
0.8113389
0.8109517
0.8107484
0.8107575
0.8110076
0.8116739
0.8117635
0.8119984
0.8122558
0.8123114
0.8111108
0.8133929
0.81303
0.8128367
0.8128381
0.8130689
0.8136836
0.8137657
0.8139749
0.8143457
0.8147636
0.8150554
0.814144
0.8146217
0.8142593
0.8140535
0.8140287
0.8142127
0.8147549
0.8147712
0.8149115
0.815187
0.8156334
0.8161892
0.816592
0.8157532
0.7856363
0.7841306
0.7827587
0.7815996
0.7807324
0.7802142
0.7801093
0.7803072
0.7806741
0.7788717
0.7871129
0.7856404
0.7842916
0.7831501
0.7822898
0.781781
0.7816565
0.7819683
0.7825422
0.7831777
0.7817149
0.7885027
0.7870569
0.7857223
0.7845872
0.7837268
0.7831988
0.7830515
0.7832716
0.7838552
0.7844956
0.7847789
0.7821119
0.7898556
0.7884411
0.7871271
0.7860047
0.7851467
0.7846092
0.7844201
0.7845882
0.7850319
0.7856579
0.786039
0.7853794
0.7827507
0.7912019
0.7898274
0.7885465
0.7874499
0.7866079
0.7860702
0.7858646
0.7859784
0.7863682
0.7868804
0.7873388
0.7870149
0.7863167
0.7837901
0.7925541
0.7912288
0.789995
0.7889394
0.7881279
0.7876073
0.7874
0.7875013
0.7878522
0.7883531
0.7887796
0.7886679
0.7883721
0.7877151
0.7853071
0.7939101
0.7926418
0.7914675
0.7904657
0.7896977
0.7892069
0.7890185
0.7891289
0.7895004
0.7900234
0.7905211
0.7904721
0.7904422
0.7902321
0.7896673
0.7875895
0.7952546
0.7940491
0.7929419
0.7920021
0.7912846
0.7908323
0.7906735
0.7908195
0.7912489
0.7918892
0.7925342
0.792637
0.7927295
0.7928253
0.7927329
0.7924707
0.7893518
0.7965634
0.7954213
0.7943823
0.793504
0.7928366
0.7924219
0.7922955
0.7924859
0.7930151
0.7938742
0.7949092
0.7952473
0.7955532
0.7958006
0.7960189
0.7962114
0.7951197
0.7921586
0.7978044
0.7967191
0.7957376
0.7949098
0.7942814
0.7938942
0.7937883
0.7940099
0.7946327
0.7958198
0.7980049
0.7987279
0.7992043
0.7995718
0.7998765
0.800338
0.799817
0.7989865
0.7963466
0.8047396
0.8043376
0.8041761
0.8041941
0.8043878
0.804888
0.8047102
0.8044775
0.8039767
0.8018401
0.8089413
0.808487
0.8082266
0.8081705
0.8083308
0.808874
0.8088071
0.8088642
0.8089113
0.8087296
0.8071548
0.8118889
0.8114731
0.8112272
0.8111719
0.811337
0.8118734
0.8118619
0.8119641
0.8122136
0.8124886
0.81262
0.8114579
0.8139027
0.8135143
0.8132817
0.8132282
0.8133802
0.8138865
0.8138605
0.8139536
0.8141753
0.8145607
0.815045
0.8153676
0.8144039
0.8151209
0.8147367
0.8144981
0.8144255
0.8145446
0.8149913
0.814923
0.814949
0.8151003
0.8153884
0.8158947
0.8164756
0.8168282
0.8159283
0.7872001
0.7857577
0.7844449
0.7833366
0.7825049
0.7820229
0.7819366
0.7823296
0.7831241
0.78438
0.7848998
0.7886171
0.7872039
0.7859113
0.7848172
0.7839936
0.7835014
0.7834016
0.7837116
0.7844878
0.7855281
0.7864692
0.7841553
0.7899533
0.7885633
0.7872821
0.7861931
0.7853659
0.7848587
0.784708
0.784941
0.7855043
0.7863364
0.7869938
0.7865492
0.7840369
0.791256
0.7898941
0.7886305
0.7875517
0.7867266
0.7862053
0.7860201
0.7861656
0.7866093
0.7872046
0.7877668
0.7875291
0.7869153
0.7844172
0.7925541
0.7912288
0.789995
0.7889394
0.7881279
0.7876073
0.7874
0.7875013
0.7878522
0.7883531
0.7887796
0.7886679
0.7883721
0.7877151
0.7853071
0.7938598
0.79258
0.7913899
0.7903719
0.7895887
0.7890831
0.7888765
0.7889587
0.7892827
0.7897333
0.7901428
0.7900237
0.7899224
0.7896422
0.7890165
0.7869384
0.7951704
0.7939443
0.7928097
0.7918423
0.7910996
0.7906227
0.7904332
0.7905284
0.790865
0.7913486
0.791789
0.7917391
0.7916858
0.7916459
0.7914285
0.7910646
0.7879221
0.7964719
0.7953046
0.7942336
0.7933245
0.7926298
0.7921893
0.7920294
0.7921582
0.7925562
0.7931458
0.7937394
0.7937969
0.79387
0.7939214
0.7939692
0.7940048
0.7927569
0.7896831
0.7977397
0.796633
0.7956264
0.7947758
0.7941284
0.7937242
0.7935957
0.7937695
0.7942634
0.7950696
0.796031
0.7963239
0.7965653
0.796771
0.7969214
0.7972072
0.7964723
0.7954057
0.7924865
0.7989437
0.7978904
0.7969388
0.7961359
0.7955258
0.7951477
0.7950397
0.7952446
0.795832
0.7969542
0.7990253
0.7996797
0.8000934
0.8003808
0.8006227
0.800982
0.8005778
0.8000744
0.7992675
0.796665
0.8055129
0.8050889
0.8048844
0.8048461
0.8049536
0.8053592
0.8050989
0.8049356
0.8047209
0.8042435
0.8022031
0.8095845
0.8091083
0.8088125
0.8087002
0.8087866
0.8092134
0.8090654
0.8090111
0.809083
0.8091481
0.8090439
0.8075115
0.8124549
0.8120179
0.8117374
0.8116326
0.8117253
0.8121615
0.8120518
0.8120514
0.8121662
0.8124304
0.8127725
0.8129357
0.8117222
0.8144278
0.8140195
0.8137562
0.8136573
0.8137473
0.8141613
0.8140551
0.814039
0.8141431
0.8143774
0.814823
0.8153327
0.815605
0.8145805
0.8156332
0.8152319
0.8149666
0.8148556
0.8149205
0.8152902
0.8151518
0.8150924
0.8151284
0.8152907
0.8156341
0.8161618
0.8166933
0.8169884
0.8160179
0.7952315
0.7887006
0.7873161
0.7860575
0.7849949
0.7841979
0.7837303
0.7836636
0.7840459
0.7850146
0.7866315
0.7894423
0.7879073
0.7900631
0.7887042
0.7874628
0.7864127
0.7856201
0.7851461
0.785039
0.7853532
0.7860917
0.7872885
0.7885595
0.7885352
0.7863183
0.7913499
0.7900114
0.788779
0.787732
0.7869359
0.7864432
0.7862939
0.7864991
0.7870536
0.7878375
0.7886528
0.7886165
0.7881949
0.7857957
0.7926062
0.791293
0.7900757
0.7890371
0.7882414
0.7877365
0.7875483
0.7876795
0.7880806
0.788659
0.78918
0.7891461
0.7889301
0.788347
0.7859561
0.7938598
0.79258
0.7913899
0.7903719
0.7895887
0.7890831
0.7888765
0.7889587
0.7892827
0.7897333
0.7901428
0.7900237
0.7899224
0.7896422
0.7890165
0.7869384
0.7951219
0.7938847
0.792735
0.7917521
0.7909949
0.7905038
0.7902969
0.7903652
0.7906568
0.7910719
0.7914298
0.7913153
0.7911976
0.7910956
0.7908199
0.7904091
0.7872707
0.7963905
0.7952034
0.7941062
0.7931706
0.7924517
0.7919877
0.7917984
0.7918785
0.792188
0.7926287
0.7930288
0.7929439
0.792883
0.7928121
0.7927507
0.7926886
0.7913492
0.7882534
0.7976511
0.7965202
0.7954828
0.7946026
0.793929
0.7935
0.7933394
0.7934541
0.7938224
0.7943712
0.7949125
0.7949412
0.794966
0.7949935
0.7949918
0.7951432
0.7942634
0.7930416
0.7900127
0.798881
0.797807
0.7968313
0.7960064
0.7953781
0.7949836
0.7948539
0.7950128
0.7954764
0.7962336
0.7971342
0.7973819
0.7975783
0.7977199
0.7978275
0.7980328
0.7974485
0.7967316
0.7956899
0.7928121
0.8000493
0.799027
0.798103
0.7973239
0.7967308
0.7963618
0.796252
0.7964422
0.7969975
0.7980627
0.8000297
0.8006285
0.8009835
0.8012131
0.8013771
0.8016648
0.8012065
0.8008161
0.8003301
0.7995469
0.7970477
0.8062893
0.8058479
0.8056121
0.805524
0.8055689
0.8058743
0.8055581
0.8053101
0.8051614
0.8049647
0.8045669
0.8025748
0.8102365
0.8097449
0.8094205
0.8092657
0.8092885
0.8096268
0.809395
0.809258
0.8092164
0.8093031
0.8094363
0.8093655
0.8077832
0.8130322
0.812579
0.8122719
0.8121263
0.8121625
0.8125128
0.8123314
0.8122316
0.8122423
0.8123698
0.8126948
0.8130629
0.8131758
0.8119018
0.8149642
0.8145405
0.8142524
0.8141172
0.8141555
0.8144953
0.8143224
0.8142251
0.8142189
0.8143342
0.814624
0.8150911
0.8155514
0.8157662
0.8146708
0.816155
0.8157402
0.8154535
0.8153108
0.8153314
0.815636
0.8154439
0.8153137
0.8152633
0.8153092
0.8155231
0.8158852
0.8163647
0.816841
0.8170702
0.8015813
0.7984319
0.7958817
0.7901432
0.7888117
0.7876027
0.7865824
0.7858149
0.7853637
0.785287
0.7856663
0.7865828
0.7883081
0.7913134
0.7919847
0.7902469
0.7914555
0.7901467
0.7889522
0.7879421
0.7871788
0.7867173
0.7866087
0.7868895
0.7876063
0.7887282
0.790108
0.7904603
0.7903761
0.7882135
0.7926967
0.7914058
0.7902183
0.7892099
0.788442
0.787964
0.7878097
0.7879972
0.7885016
0.7892562
0.7900104
0.7901579
0.7901216
0.789702
0.7873816
0.7939101
0.7926418
0.7914675
0.7904657
0.7896977
0.7892069
0.7890185
0.7891289
0.7895004
0.7900234
0.7905211
0.7904721
0.7904422
0.7902321
0.7896673
0.7875895
0.7951219
0.7938847
0.792735
0.7917521
0.7909949
0.7905038
0.7902969
0.7903652
0.7906568
0.7910719
0.7914298
0.7913153
0.7911976
0.7910956
0.7908199
0.7904091
0.7872707
0.7963436
0.7951459
0.7940341
0.7930836
0.7923509
0.7918732
0.7916673
0.7917218
0.7919884
0.7923641
0.7926863
0.7925413
0.7924214
0.7922948
0.7921823
0.7920741
0.7906928
0.787602
0.7975723
0.7964224
0.7953597
0.7944541
0.7937573
0.7933057
0.7931169
0.7931849
0.7934685
0.7938754
0.7942329
0.7941278
0.7940282
0.7939443
0.7938451
0.7939125
0.7929451
0.7916326
0.7885834
0.7987952
0.7976978
0.7966924
0.795839
0.7951856
0.7947673
0.7946067
0.7947088
0.7950519
0.7955627
0.7960622
0.7960599
0.7960536
0.7960308
0.7960021
0.7960888
0.7953819
0.7945207
0.793325
0.7903406
0.7999885
0.7989463
0.7979988
0.7971986
0.796588
0.7962032
0.7960726
0.7962185
0.7966548
0.7973694
0.7982143
0.7984273
0.7985796
0.798677
0.7987213
0.7988746
0.7982585
0.7976881
0.7969892
0.7959722
0.7932036
0.8011244
0.80013
0.799233
0.7984756
0.7978992
0.7975385
0.7974277
0.7976046
0.7981311
0.7991445
0.8010186
0.8015678
0.8018765
0.8020524
0.8021609
0.8023645
0.8018764
0.8014296
0.8010529
0.8005842
0.7998828
0.7974397
0.8070644
0.8066111
0.8063496
0.8062241
0.8062138
0.8064449
0.8060629
0.8057573
0.8055217
0.8053876
0.8052601
0.8048979
0.802858
0.8108937
0.8103909
0.8100449
0.8098551
0.8098288
0.8100906
0.8097996
0.8095776
0.8094518
0.8094229
0.8095711
0.8097312
0.8096102
0.8079678
0.8136171
0.8131518
0.8128235
0.8126456
0.8126346
0.8129164
0.8126751
0.8125026
0.8124128
0.8124347
0.8126181
0.8129651
0.8132836
0.8133389
0.8119937
0.8155086
0.8150729
0.814765
0.8146
0.814596
0.8148731
0.8146495
0.8144848
0.8143965
0.8144002
0.8145672
0.8148759
0.8152949
0.8156997
0.8158485
0.8166838
0.8162585
0.8159541
0.8157853
0.8157689
0.8160192
0.8157835
0.8155989
0.8154769
0.8154356
0.8155298
0.8157605
0.8160759
0.8165023
0.8169163
0.8059783
0.804043
0.8018968
0.7996425
0.7989917
0.7968507
0.7915326
0.7902499
0.7890863
0.7881045
0.787365
0.786925
0.7868447
0.7871865
0.7880684
0.7896847
0.792674
0.7936607
0.7939758
0.792162
0.7927983
0.7915359
0.7903846
0.7894113
0.7886746
0.7882263
0.7881104
0.788369
0.789026
0.790097
0.7913768
0.7918755
0.7921501
0.791998
0.7898595
0.7939973
0.7927504
0.7916047
0.7906318
0.7898901
0.789425
0.7892689
0.7894326
0.7899018
0.7905903
0.7913056
0.791422
0.7915528
0.7914959
0.7910636
0.7890189
0.7951704
0.7939443
0.7928097
0.7918423
0.7910996
0.7906227
0.7904332
0.7905284
0.790865
0.7913486
0.791789
0.7917391
0.7916858
0.7916459
0.7914285
0.7910646
0.7879221
0.7963436
0.7951459
0.7940341
0.7930836
0.7923509
0.7918732
0.7916673
0.7917218
0.7919884
0.7923641
0.7926863
0.7925413
0.7924214
0.7922948
0.7921823
0.7920741
0.7906928
0.787602
0.7975269
0.7963668
0.7952901
0.7943702
0.7936601
0.7931954
0.7929906
0.7930341
0.7932768
0.7936217
0.7939054
0.7937439
0.7935896
0.793455
0.7933105
0.7933381
0.7923296
0.7909756
0.7879322
0.7987189
0.7976032
0.7965734
0.7956955
0.7950198
0.7945798
0.7943921
0.7944494
0.7947114
0.7950864
0.7954108
0.7952821
0.7951594
0.7950338
0.7949173
0.7949301
0.794149
0.7932006
0.7919149
0.7889123
0.7999053
0.7988405
0.7978644
0.7970367
0.7964019
0.7959942
0.7958338
0.795925
0.7962455
0.7967238
0.7971848
0.7971604
0.7971219
0.7970667
0.7969865
0.7970351
0.7963119
0.7956194
0.7947766
0.793607
0.7907355
0.8010654
0.8000517
0.7991321
0.7983544
0.797761
0.7973851
0.7972542
0.7973884
0.7978003
0.7984765
0.7992729
0.7994547
0.7995736
0.7996283
0.7996296
0.799713
0.7990872
0.7984826
0.7979262
0.797245
0.7963117
0.7936044
0.8021687
0.8012027
0.8003297
0.799594
0.7990325
0.7986804
0.7985686
0.7987338
0.799234
0.8002004
0.8019901
0.8024968
0.8027647
0.8028993
0.8029571
0.8031001
0.802565
0.8020866
0.8016512
0.8012882
0.8008898
0.8002267
0.7977382
0.8078358
0.807374
0.8070931
0.8069364
0.8068841
0.8070499
0.8066243
0.8062517
0.8059569
0.8057337
0.8056617
0.8055624
0.8051498
0.8030505
0.811553
0.8110425
0.8106796
0.8104624
0.8103951
0.8105964
0.8102556
0.8099735
0.8097615
0.8096468
0.8096743
0.8098452
0.8099553
0.8097763
0.8080624
0.8142069
0.8137326
0.8133875
0.8131832
0.8131341
0.8133578
0.8130717
0.8128387
0.8126752
0.8125954
0.8126694
0.812872
0.8131706
0.8134333
0.8134222
0.8160584
0.8156136
0.8152896
0.8151
0.8150609
0.8152858
0.8150211
0.814805
0.8146485
0.8145692
0.8146215
0.8148054
0.8150673
0.815433
0.8157754
0.8172173
0.8167838
0.8164652
0.8162744
0.8162269
0.816431
0.816161
0.8159323
0.8157553
0.8156415
0.8156458
0.8157552
0.8159407
0.8162051
0.8165724
0.8088317
0.8079595
0.8062252
0.8048484
0.8043224
0.8024841
0.8004456
0.8001573
0.799832
0.7979779
0.7928726
0.7916351
0.7905134
0.7895671
0.7888529
0.7884251
0.7883361
0.788652
0.789465
0.7910003
0.7937899
0.794861
0.795494
0.7956188
0.7937793
0.7940953
0.7928757
0.7917646
0.7908253
0.7901133
0.7896765
0.7895569
0.7897882
0.7904019
0.7913889
0.7925971
0.7930365
0.7934451
0.7936344
0.7934148
0.7914963
0.7952546
0.7940491
0.7929419
0.7920021
0.7912846
0.7908323
0.7906735
0.7908195
0.7912489
0.7918892
0.7925342
0.792637
0.7927295
0.7928253
0.7927329
0.7924707
0.7893518
0.7963905
0.7952034
0.7941062
0.7931706
0.7924517
0.7919877
0.7917984
0.7918785
0.792188
0.7926287
0.7930288
0.7929439
0.792883
0.7928121
0.7927507
0.7926886
0.7913492
0.7882534
0.7975269
0.7963668
0.7952901
0.7943702
0.7936601
0.7931954
0.7929906
0.7930341
0.7932768
0.7936217
0.7939054
0.7937439
0.7935896
0.793455
0.7933105
0.7933381
0.7923296
0.7909756
0.7879322
0.798675
0.7975494
0.7965061
0.7956144
0.7949259
0.7944734
0.7942703
0.794304
0.7945268
0.7948427
0.7950968
0.794915
0.7947412
0.7945689
0.7944115
0.7943896
0.7935735
0.7925842
0.7912574
0.7882614
0.7998313
0.7987488
0.7977492
0.7968979
0.7962417
0.7958131
0.7956265
0.7956747
0.7959173
0.7962655
0.7965592
0.796415
0.7962669
0.7961161
0.7959555
0.7959386
0.795151
0.7943845
0.793455
0.7921962
0.7893087
0.8009847
0.7999492
0.7990019
0.7981976
0.7975809
0.7971829
0.7970233
0.7971048
0.7974053
0.7978544
0.7982827
0.7982383
0.7981768
0.7980889
0.7979756
0.7979647
0.7972451
0.7965337
0.7958555
0.7950312
0.7939464
0.7911399
0.8021114
0.8011268
0.8002319
0.7994765
0.7988987
0.7985319
0.7984006
0.7985246
0.7989143
0.799556
0.8003088
0.800465
0.8005542
0.8005771
0.8005375
0.8005727
0.7999143
0.7992983
0.7987051
0.7981626
0.7975525
0.7966591
0.7939099
0.8031865
0.8022448
0.8013966
0.8006799
0.8001336
0.7997889
0.799677
0.7998312
0.8003076
0.8012311
0.8029437
0.8034129
0.803647
0.8037457
0.8037649
0.8038532
0.8032908
0.8027642
0.8022955
0.8018715
0.8015712
0.8012025
0.8004883
0.7979412
0.8086014
0.8081341
0.8078378
0.8076568
0.8075693
0.8076841
0.8072211
0.806804
0.8064409
0.8061568
0.8059905
0.8059421
0.8057922
0.8053208
0.8031491
0.8122123
0.8116966
0.8113207
0.8110814
0.8109813
0.8111313
0.8107543
0.8104216
0.8101485
0.8099464
0.8098842
0.8099314
0.8100534
0.8101074
0.8098612
0.8147992
0.8143184
0.81396
0.8137342
0.8136534
0.8138291
0.8135068
0.8132283
0.8130035
0.8128491
0.8128181
0.8129091
0.8130648
0.8133098
0.8135097
0.8166118
0.81616
0.815823
0.815613
0.8155443
0.8157249
0.815428
0.8151702
0.8149617
0.8148136
0.81478
0.8148476
0.8149862
0.815197
0.8155034
0.8177539
0.8173142
0.8169838
0.8167747
0.8167007
0.8168652
0.8165675
0.8163039
0.8160823
0.8159129
0.8158424
0.8158605
0.8159263
0.8160627
0.816271
0.8102445
0.8105121
0.8090605
0.8084853
0.8081825
0.8067107
0.8053055
0.8051048
0.8048446
0.8032981
0.8011
0.8009243
0.8009289
0.8008175
0.7991866
0.7941669
0.7929713
0.7918885
0.790975
0.7902845
0.7898672
0.7897732
0.7900591
0.7908205
0.7922472
0.7948781
0.7958452
0.7965669
0.7970021
0.7970193
0.7953788
0.7953493
0.7941699
0.793096
0.7921884
0.7914993
0.7910739
0.7909501
0.7911605
0.7917273
0.7926508
0.7937611
0.7941635
0.7945094
0.7948222
0.794926
0.7948319
0.7918286
0.7964719
0.7953046
0.7942336
0.7933245
0.7926298
0.7921893
0.7920294
0.7921582
0.7925562
0.7931458
0.7937394
0.7937969
0.79387
0.7939214
0.7939692
0.7940048
0.7927569
0.7896831
0.7975723
0.7964224
0.7953597
0.7944541
0.7937573
0.7933057
0.7931169
0.7931849
0.7934685
0.7938754
0.7942329
0.7941278
0.7940282
0.7939443
0.7938451
0.7939125
0.7929451
0.7916326
0.7885834
0.798675
0.7975494
0.7965061
0.7956144
0.7949259
0.7944734
0.7942703
0.794304
0.7945268
0.7948427
0.7950968
0.794915
0.7947412
0.7945689
0.7944115
0.7943896
0.7935735
0.7925842
0.7912574
0.7882614
0.7997887
0.7986967
0.7976841
0.7968195
0.7961509
0.7957103
0.795509
0.7955344
0.7957394
0.796031
0.7962576
0.7960631
0.795867
0.7956727
0.7954748
0.7954271
0.7946094
0.793808
0.7928379
0.7915383
0.7886585
0.8009129
0.7998603
0.7988903
0.7980632
0.7974259
0.7970077