/*--------------------------------*- C++ -*----------------------------------*\
| =========                 |                                                 |
| \\      /  F ield         | OpenFOAM: The Open Source CFD Toolbox           |
|  \\    /   O peration     | Version:  2306                                  |
|   \\  /    A nd           | Website:  www.openfoam.com                      |
|    \\/     M anipulation  |                                                 |
\*---------------------------------------------------------------------------*/
FoamFile
{
    version     2.0;
    format      ascii;
    arch        "LSB;label=32;scalar=64";
    class       volScalarField;
    location    "1.5/air";
    object      nernst;
}
// * * * * * * * * * * * * * * * * * * * * * * * * * * * * * * * * * * * * * //

dimensions      [1 2 -3 0 0 -1 0];

internalField   nonuniform List<scalar> 
16000
(
-0.6742395
-0.6666767
-0.6831545
-0.6665563
-0.6625818
-0.6810543
-0.6483816
-0.6855431
-0.6810442
-0.6623604
-0.6602937
-0.6792439
-0.6372677
-0.6845877
-0.6748687
-0.6371011
-0.6875651
-0.684643
-0.6792363
-0.6599536
-0.6592379
-0.6779161
-0.6306942
-0.6837259
-0.6694799
-0.6204937
-0.6870693
-0.6818485
-0.6694301
-0.6302486
-0.6893883
-0.6871508
-0.683853
-0.6779152
-0.6587473
-0.6592379
-0.6772148
-0.627604
-0.6830654
-0.6654991
-0.6102161
-0.6866266
-0.6792952
-0.6607281
-0.6098292
-0.6890976
-0.6857477
-0.6793547
-0.6653445
-0.6267118
-0.6910614
-0.6891853
-0.6868077
-0.6832857
-0.6772299
-0.6585527
-0.6879239
-0.6602937
-0.6772148
-0.627604
-0.6827061
-0.6633891
-0.6052636
-0.686288
-0.6773228
-0.6542282
-0.5967986
-0.6888439
-0.684473
-0.6751816
-0.65405
-0.6041766
-0.6908696
-0.6883991
-0.6845775
-0.6774437
-0.6630745
-0.6260777
-0.692607
-0.6909553
-0.689038
-0.6865982
-0.6830495
-0.6772736
-0.659372
-0.6876985
-0.6897733
-0.6890752
-0.6625818
-0.6779161
-0.6306942
-0.6827061
-0.6633891
-0.6052636
-0.6861034
-0.6762455
-0.650759
-0.5904078
-0.6886529
-0.6834883
-0.6719229
-0.6455309
-0.5895506
-0.690706
-0.6876991
-0.6825164
-0.67196
-0.6502616
-0.6031195
-0.6924637
-0.690462
-0.6878175
-0.6837298
-0.676444
-0.6628991
-0.6283409
-0.6940433
-0.6925446
-0.6908965
-0.6889852
-0.6865812
-0.6832198
-0.678083
-0.6613821
-0.6872393
-0.6896016
-0.6888299
-0.6914693
-0.6908381
-0.6902627
-0.6666767
-0.6792439
-0.6372677
-0.6830654
-0.6654991
-0.6102161
-0.6861034
-0.6762455
-0.650759
-0.5904078
-0.6885498
-0.6829487
-0.670132
-0.6409569
-0.5823057
-0.6905849
-0.6871673
-0.6809034
-0.6676384
-0.6405382
-0.5881603
-0.6923438
-0.6900327
-0.6867109
-0.6810422
-0.6701964
-0.6498567
-0.6066724
-0.6939258
-0.6921916
-0.6901512
-0.6874479
-0.6833762
-0.6765779
-0.6649056
-0.6338699
-0.6953832
-0.6940012
-0.6925245
-0.6909121
-0.6890603
-0.6867996
-0.6838259
-0.6796475
-0.6651027
-0.6865038
-0.6892609
-0.6883168
-0.6913174
-0.6906668
-0.6900013
-0.6930273
-0.6924157
-0.6919304
-0.6914898
-0.6742395
-0.6810543
-0.6483816
-0.6837259
-0.6694799
-0.6204937
-0.686288
-0.6773228
-0.6542282
-0.5967986
-0.6885498
-0.6829487
-0.670132
-0.6409569
-0.5823057
-0.6905203
-0.6868789
-0.6800131
-0.6652502
-0.6352977
-0.5807319
-0.6922564
-0.6897131
-0.6858587
-0.6789157
-0.6652425
-0.6399398
-0.5926722
-0.6938287
-0.6918911
-0.6894909
-0.6860333
-0.6803435
-0.6702702
-0.6529693
-0.6152341
-0.6952809
-0.6937204
-0.6920047
-0.6899971
-0.6873807
-0.6836394
-0.677913
-0.6689972
-0.6436447
-0.6966376
-0.6953509
-0.6939981
-0.6925678
-0.6910234
-0.6892879
-0.6872737
-0.6848589
-0.6819375
-0.6719775
-0.6852159
-0.6887558
-0.6874497
-0.6910178
-0.6903284
-0.6894487
-0.692888
-0.6922697
-0.6917592
-0.6912175
-0.6944738
-0.6938612
-0.6933855
-0.6930508
-0.6927576
-0.6831545
-0.6665563
-0.6845877
-0.6748687
-0.6371011
-0.6866266
-0.6792952
-0.6607281
-0.6098292
-0.6886529
-0.6834883
-0.6719229
-0.6455309
-0.5895506
-0.6905203
-0.6868789
-0.6800131
-0.6652502
-0.6352977
-0.5807319
-0.6922103
-0.689542
-0.6853929
-0.6777341
-0.6624951
-0.6345887
-0.5857521
-0.6937586
-0.6916721
-0.688993
-0.6849307
-0.6779249
-0.6652538
-0.6439101
-0.6034302
-0.6951966
-0.693485
-0.6915549
-0.6891742
-0.6858168
-0.6806267
-0.6722797
-0.6593714
-0.6297741
-0.6965452
-0.6951101
-0.6935921
-0.6919454
-0.6900521
-0.687682
-0.6845634
-0.6803651
-0.6749022
-0.6599108
-0.697815
-0.6966103
-0.6953549
-0.6940518
-0.6926901
-0.6912464
-0.6896835
-0.6880099
-0.6863177
-0.6850486
-0.6803809
-0.6881159
-0.6858758
-0.6905828
-0.689836
-0.6885074
-0.6926138
-0.6919868
-0.6914219
-0.6906414
-0.6943435
-0.6937293
-0.6932442
-0.6928793
-0.6924797
-0.6958343
-0.6952089
-0.694716
-0.6943784
-0.6941986
-0.6935439
-0.6855431
-0.6810442
-0.6623604
-0.6870693
-0.6818485
-0.6694301
-0.6302486
-0.6888439
-0.684473
-0.6751816
-0.65405
-0.6041766
-0.6905849
-0.6871673
-0.6809034
-0.6676384
-0.6405382
-0.5881603
-0.6922103
-0.689542
-0.6853929
-0.6777341
-0.6624951
-0.6345887
-0.5857521
-0.6937218
-0.6915565
-0.6887244
-0.6843235
-0.6765745
-0.6624672
-0.6390283
-0.5976586
-0.6951361
-0.6933161
-0.6912234
-0.6885459
-0.6845857
-0.6782104
-0.6677934
-0.6520911
-0.621218
-0.6964691
-0.6949101
-0.6932468
-0.6913993
-0.6891668
-0.6861682
-0.6819503
-0.6760308
-0.6684714
-0.6523569
-0.6977299
-0.6963948
-0.6950105
-0.6935744
-0.6920482
-0.6903556
-0.6883826
-0.6861182
-0.6837454
-0.6822393
-0.6756195
-0.6989225
-0.6977906
-0.6966174
-0.6954113
-0.6941747
-0.692903
-0.6915939
-0.6902622
-0.6890447
-0.6883848
-0.687897
-0.6821189
-0.6900924
-0.6892449
-0.6868833
-0.6922183
-0.6915981
-0.6909349
-0.6896735
-0.6940871
-0.6934758
-0.6929737
-0.6925413
-0.6918947
-0.6957112
-0.6950864
-0.6945903
-0.6942403
-0.6940266
-0.6932658
-0.6971133
-0.6964849
-0.6959636
-0.6955914
-0.6953932
-0.6949069
-0.6936454
-0.6875651
-0.684643
-0.6792363
-0.6599536
-0.6890976
-0.6857477
-0.6793547
-0.6653445
-0.6267118
-0.690706
-0.6876991
-0.6825164
-0.67196
-0.6502616
-0.6031195
-0.6922564
-0.6897131
-0.6858587
-0.6789157
-0.6652425
-0.6399398
-0.5926722
-0.6937218
-0.6915565
-0.6887244
-0.6843235
-0.6765745
-0.6624672
-0.6390283
-0.5976586
-0.6951044
-0.6932279
-0.6910473
-0.6882044
-0.6839036
-0.6768571
-0.6653005
-0.6481779
-0.6170908
-0.6964146
-0.694768
-0.6929969
-0.6909922
-0.6884832
-0.6849651
-0.6798402
-0.6725617
-0.6635959
-0.6477228
-0.6976598
-0.6962165
-0.6947208
-0.6931636
-0.6914774
-0.6895291
-0.6871248
-0.6842197
-0.6810881
-0.6793523
-0.6719548
-0.6988434
-0.697593
-0.6963107
-0.6950106
-0.6936931
-0.6923395
-0.6909318
-0.6894855
-0.6882436
-0.6878854
-0.6869572
-0.6782288
-0.6999662
-0.6989003
-0.697799
-0.6966735
-0.6955308
-0.6943765
-0.6932174
-0.6920836
-0.6910766
-0.690604
-0.690671
-0.6888153
-0.683877
-0.6917915
-0.6912299
-0.6903524
-0.6881106
-0.6937178
-0.6931353
-0.692612
-0.6920526
-0.6909331
-0.6954688
-0.6948513
-0.6943525
-0.6939766
-0.6936864
-0.6926827
-0.6969961
-0.6963695
-0.6958475
-0.69547
-0.6952567
-0.6947346
-0.6933674
-0.6983195
-0.6976923
-0.697154
-0.6967371
-0.696486
-0.6960215
-0.6949987
-0.6937474
-0.6893883
-0.6871508
-0.683853
-0.6779152
-0.6587473
-0.6908696
-0.6883991
-0.6845775
-0.6774437
-0.6630745
-0.6260777
-0.6923438
-0.6900327
-0.6867109
-0.6810422
-0.6701964
-0.6498567
-0.6066724
-0.6937586
-0.6916721
-0.688993
-0.6849307
-0.6779249
-0.6652538
-0.6439101
-0.6034302
-0.6951044
-0.6932279
-0.6910473
-0.6882044
-0.6839036
-0.6768571
-0.6653005
-0.6481779
-0.6170908
-0.6963862
-0.6946943
-0.6928658
-0.6907744
-0.6881088
-0.684295
-0.6786542
-0.6706311
-0.6609753
-0.645489
-0.6976095
-0.6960903
-0.6945135
-0.6928633
-0.6910468
-0.6888819
-0.6861087
-0.6826551
-0.6789051
-0.6770792
-0.6695175
-0.6987779
-0.6974296
-0.696054
-0.6946702
-0.6932734
-0.6918273
-0.6902884
-0.6886546
-0.6872304
-0.686924
-0.6858112
-0.6751084
-0.6998921
-0.6987167
-0.6975183
-0.6963184
-0.6951316
-0.6939682
-0.6928396
-0.6917971
-0.6909963
-0.6909339
-0.6906964
-0.6879904
-0.6807048
-0.7009511
-0.6999457
-0.6989092
-0.6978536
-0.6967882
-0.6957216
-0.6946668
-0.6936519
-0.6927721
-0.6923572
-0.6925597
-0.6914421
-0.6898093
-0.6856601
-0.6933221
-0.6928486
-0.692277
-0.6914591
-0.6894776
-0.6951192
-0.6945376
-0.6940453
-0.6936241
-0.69319
-0.691736
-0.6967653
-0.6961478
-0.6956288
-0.6952415
-0.6949946
-0.6943926
-0.6927847
-0.6982075
-0.6975824
-0.6970449
-0.6966257
-0.6963669
-0.6958849
-0.6948263
-0.6934694
-0.6994574
-0.6988379
-0.6982889
-0.6978409
-0.6975282
-0.6970438
-0.6961035
-0.6950907
-0.6938499
-0.6910614
-0.6891853
-0.6868077
-0.6832857
-0.6772299
-0.6585527
-0.6924637
-0.690462
-0.6878175
-0.6837298
-0.676444
-0.6628991
-0.6283409
-0.6938287
-0.6918911
-0.6894909
-0.6860333
-0.6803435
-0.6702702
-0.6529693
-0.6152341
-0.6951361
-0.6933161
-0.6912234
-0.6885459
-0.6845857
-0.6782104
-0.6677934
-0.6520911
-0.621218
-0.6963862
-0.6946943
-0.6928658
-0.6907744
-0.6881088
-0.684295
-0.6786542
-0.6706311
-0.6609753
-0.645489
-0.6975832
-0.6960251
-0.6944057
-0.6927049
-0.6908147
-0.6885245
-0.6855378
-0.6817681
-0.6776788
-0.6758403
-0.6683046
-0.698731
-0.6973143
-0.6958716
-0.6944246
-0.6929633
-0.6914341
-0.6897687
-0.6879478
-0.6863244
-0.6860262
-0.6848503
-0.6729922
-0.6998307
-0.698565
-0.6972839
-0.6960186
-0.6947885
-0.6936039
-0.6924711
-0.6914401
-0.6906784
-0.6907543
-0.6904277
-0.6870348
-0.6780864
-0.7008816
-0.6997741
-0.6986487
-0.6975292
-0.6964363
-0.6953899
-0.6944175
-0.6935701
-0.6929834
-0.6929769
-0.6929094
-0.6914047
-0.6890576
-0.6830841
-0.7018816
-0.7009321
-0.6999549
-0.698962
-0.6979633
-0.696969
-0.6959927
-0.6950634
-0.6942615
-0.6938786
-0.6940811
-0.6932353
-0.6922595
-0.6908476
-0.6874596
-0.6947418
-0.6942818
-0.6938
-0.6932765
-0.6925732
-0.6903463
-0.6964314
-0.6958514
-0.6953495
-0.6949475
-0.6946371
-0.6938906
-0.6918399
-0.6979865
-0.6973711
-0.6968393
-0.6964171
-0.6961416
-0.6956216
-0.6944842
-0.6928872
-0.6993499
-0.6987327
-0.6981851
-0.6977363
-0.6974193
-0.6969249
-0.6959669
-0.6949183
-0.6935721
-0.7005325
-0.6999243
-0.6993731
-0.6989024
-0.6985442
-0.698026
-0.6971173
-0.6961857
-0.6951832
-0.6939528
-0.692607
-0.6909553
-0.689038
-0.6865982
-0.6830495
-0.6772736
-0.659372
-0.6939258
-0.6921916
-0.6901512
-0.6874479
-0.6833762
-0.6765779
-0.6649056
-0.6338699
-0.6951966
-0.693485
-0.6915549
-0.6891742
-0.6858168
-0.6806267
-0.6722797
-0.6593714
-0.6297741
-0.6964146
-0.694768
-0.6929969
-0.6909922
-0.6884832
-0.6849651
-0.6798402
-0.6725617
-0.6635959
-0.6477228
-0.6975832
-0.6960251
-0.6944057
-0.6927049
-0.6908147
-0.6885245
-0.6855378
-0.6817681
-0.6776788
-0.6758403
-0.6683046
-0.6987065
-0.6972548
-0.6957771
-0.6942962
-0.6927985
-0.6912198
-0.6894771
-0.6875416
-0.6857952
-0.6855012
-0.6843129
-0.6719302
-0.6997865
-0.6984579
-0.6971178
-0.6958039
-0.6945386
-0.6933294
-0.6921744
-0.6911166
-0.6903307
-0.6904663
-0.6901162
-0.6862375
-0.6762809
-0.7008237
-0.6996321
-0.6984313
-0.697256
-0.6961361
-0.6950979
-0.6941737
-0.6934162
-0.6929605
-0.6931058
-0.6929768
-0.6911772
-0.6882477
-0.6809227
-0.7018162
-0.7007712
-0.6997114
-0.698661
-0.6976423
-0.6966791
-0.6958017
-0.6950634
-0.694572
-0.6945759
-0.6945238
-0.6934637
-0.6921477
-0.6901458
-0.685389
-0.7027615
-0.7018641
-0.7009417
-0.700006
-0.699067
-0.6981351
-0.6972242
-0.6963608
-0.6956182
-0.6952496
-0.6954255
-0.6946863
-0.6939411
-0.6930978
-0.6919079
-0.6885193
-0.6960657
-0.6956073
-0.6951376
-0.6946921
-0.6942513
-0.6932585
-0.6904579
-0.6976661
-0.6970872
-0.6965765
-0.6961523
-0.6958447
-0.6952566
-0.6939816
-0.6919445
-0.6991376
-0.6985302
-0.6979892
-0.6975409
-0.6972147
-0.6966987
-0.6957034
-0.694576
-0.6929904
-0.7004291
-0.6998233
-0.6992737
-0.698803
-0.6984423
-0.6979174
-0.6969983
-0.696049
-0.6950107
-0.6936751
-0.7015491
-0.7009558
-0.7004074
-0.6999244
-0.6995314
-0.6989912
-0.6980922
-0.6971909
-0.6962682
-0.6952758
-0.6940602
-0.6940433
-0.6925446
-0.6908965
-0.6889852
-0.6865812
-0.6832198
-0.678083
-0.6613821
-0.6952809
-0.6937204
-0.6920047
-0.6899971
-0.6873807
-0.6836394
-0.677913
-0.6689972
-0.6436447
-0.6964691
-0.6949101
-0.6932468
-0.6913993
-0.6891668
-0.6861682
-0.6819503
-0.6760308
-0.6684714
-0.6523569
-0.6976095
-0.6960903
-0.6945135
-0.6928633
-0.6910468
-0.6888819
-0.6861087
-0.6826551
-0.6789051
-0.6770792
-0.6695175
-0.6987065
-0.6972548
-0.6957771
-0.6942962
-0.6927985
-0.6912198
-0.6894771
-0.6875416
-0.6857952
-0.6855012
-0.6843129
-0.6719302
-0.6997635
-0.6984027
-0.6970319
-0.6956923
-0.6944072
-0.6931817
-0.6920087
-0.6909258
-0.6901139
-0.6902746
-0.6899216
-0.6857917
-0.6753675
-0.700782
-0.6995319
-0.6982773
-0.6970612
-0.6959193
-0.6948811
-0.6939784
-0.6932598
-0.6928554
-0.6930725
-0.6929344
-0.6909241
-0.6875843
-0.679413
-0.7017615
-0.7006379
-0.6995082
-0.6984078
-0.6973693
-0.6964257
-0.6956151
-0.6949949
-0.6946632
-0.6948192
-0.6947127
-0.6935121
-0.6919353
-0.6894502
-0.6836434
-0.7026998
-0.7017129
-0.7007133
-0.6997246
-0.6987691
-0.6978709
-0.6970612
-0.6963887
-0.6959486
-0.6959351
-0.6958729
-0.6949919
-0.6940494
-0.6929116
-0.6912415
-0.6866822
-0.7035939
-0.7027454
-0.701874
-0.7009911
-0.7001066
-0.6992307
-0.6983766
-0.6975694
-0.6968741
-0.6965179
-0.6966553
-0.6959751
-0.6953114
-0.6946566
-0.6939407
-0.6925667
-0.6886519
-0.6973096
-0.6968464
-0.6963764
-0.6959338
-0.6955507
-0.6948443
-0.6933482
-0.6905702
-0.698829
-0.6982563
-0.6977374
-0.6972932
-0.6969488
-0.6963947
-0.6953376
-0.6940729
-0.69205
-0.7002247
-0.6996283
-0.6990857
-0.698617
-0.6982511
-0.6977122
-0.696772
-0.6957853
-0.6946682
-0.6930941
-0.7014494
-0.7008584
-0.7003119
-0.6998293
-0.6994347
-0.6988897
-0.6979836
-0.6970719
-0.6961315
-0.6951033
-0.6937827
-0.7025113
-0.701935
-0.7013945
-0.7009061
-0.7004907
-0.6999355
-0.6990513
-0.6981586
-0.6972648
-0.6963508
-0.6953727
-0.6941585
-0.6953832
-0.6940012
-0.6925245
-0.6909121
-0.6890603
-0.6867996
-0.6838259
-0.6796475
-0.6651027
-0.6965452
-0.6951101
-0.6935921
-0.6919454
-0.6900521
-0.687682
-0.6845634
-0.6803651
-0.6749022
-0.6599108
-0.6976598
-0.6962165
-0.6947208
-0.6931636
-0.6914774
-0.6895291
-0.6871248
-0.6842197
-0.6810881
-0.6793523
-0.6719548
-0.698731
-0.6973143
-0.6958716
-0.6944246
-0.6929633
-0.6914341
-0.6897687
-0.6879478
-0.6863244
-0.6860262
-0.6848503
-0.6729922
-0.6997635
-0.6984027
-0.6970319
-0.6956923
-0.6944072
-0.6931817
-0.6920087
-0.6909258
-0.6901139
-0.6902746
-0.6899216
-0.6857917
-0.6753675
-0.7007602
-0.6994803
-0.6981979
-0.6969602
-0.6958059
-0.6947656
-0.6938699
-0.6931638
-0.6927756
-0.6930243
-0.6928881
-0.6907667
-0.6872152
-0.6786438
-0.7017221
-0.7005437
-0.6993642
-0.6982275
-0.697173
-0.6962392
-0.6954666
-0.6949105
-0.6946573
-0.6948887
-0.6947761
-0.6934806
-0.6917214
-0.6888978
-0.6824137
-0.7026481
-0.7015875
-0.7005225
-0.6994878
-0.698516
-0.6976409
-0.6969025
-0.6963534
-0.6960775
-0.6962069
-0.6960968
-0.6951393
-0.6940627
-0.6926982
-0.6906394
-0.6851378
-0.7035357
-0.7026032
-0.7016594
-0.7007271
-0.6998279
-0.6989852
-0.6982286
-0.6976036
-0.6971923
-0.6971597
-0.6970726
-0.6962859
-0.6954873
-0.6946533
-0.6936825
-0.6919133
-0.6868393
-0.7043817
-0.7035793
-0.7027556
-0.701922
-0.7010879
-0.7002631
-0.6994603
-0.6987026
-0.6980493
-0.6977038
-0.6978072
-0.6971597
-0.6965374
-0.6959399
-0.6953693
-0.6944705
-0.6926544
-0.6887844
-0.6984804
-0.698016
-0.6975397
-0.6970897
-0.6966954
-0.6960731
-0.6949227
-0.6934381
-0.6906832
-0.6999268
-0.6993632
-0.6988423
-0.6983803
-0.6980037
-0.6974401
-0.6964672
-0.6954187
-0.6941645
-0.692156
-0.7012522
-0.7006703
-0.7001307
-0.6996509
-0.6992532
-0.6986982
-0.6977783
-0.6968454
-0.6958675
-0.6947606
-0.6932025
-0.702415
-0.7018411
-0.7013024
-0.7008146
-0.7003981
-0.6998392
-0.6989497
-0.6980499
-0.6971457
-0.696214
-0.6952001
-0.6938813
-0.7034227
-0.7028653
-0.7023359
-0.7018483
-0.7014191
-0.7008584
-0.6999904
-0.6991115
-0.6982252
-0.6973388
-0.6964375
-0.6954613
-0.6942338
-0.6966376
-0.6953509
-0.6939981
-0.6925678
-0.6910234
-0.6892879
-0.6872737
-0.6848589
-0.6819375
-0.6719775
-0.6977299
-0.6963948
-0.6950105
-0.6935744
-0.6920482
-0.6903556
-0.6883826
-0.6861182
-0.6837454
-0.6822393
-0.6756195
-0.6987779
-0.6974296
-0.696054
-0.6946702
-0.6932734
-0.6918273
-0.6902884
-0.6886546
-0.6872304
-0.686924
-0.6858112
-0.6751084
-0.6997865
-0.6984579
-0.6971178
-0.6958039
-0.6945386
-0.6933294
-0.6921744
-0.6911166
-0.6903307
-0.6904663
-0.6901162
-0.6862375
-0.6762809
-0.7007602
-0.6994803
-0.6981979
-0.6969602
-0.6958059
-0.6947656
-0.6938699
-0.6931638
-0.6927756
-0.6930243
-0.6928881
-0.6907667
-0.6872152
-0.6786438
-0.7017015
-0.7004952
-0.6992899
-0.6981341
-0.6970707
-0.6961405
-0.6953846
-0.6948559
-0.6946351
-0.6949003
-0.6947905
-0.6934455
-0.6915917
-0.688594
-0.6817833
-0.7026108
-0.7014988
-0.7003873
-0.6993192
-0.6983343
-0.6974723
-0.6967769
-0.6962989
-0.6961093
-0.6963115
-0.6961978
-0.6951939
-0.6940298
-0.6925101
-0.6901818
-0.6840471
-0.7034868
-0.7024851
-0.70148
-0.7005047
-0.699591
-0.6987716
-0.6980847
-0.6975799
-0.6973263
-0.6974264
-0.6972948
-0.6964609
-0.6955822
-0.6946234
-0.6934598
-0.6913524
-0.6853157
-0.7043268
-0.7034455
-0.7025539
-0.7016739
-0.7008261
-0.7000328
-0.6993219
-0.6987346
-0.6983448
-0.6982933
-0.6981843
-0.6974471
-0.6967222
-0.695998
-0.6952631
-0.6941748
-0.6920022
-0.6869957
-0.7051272
-0.7043685
-0.7035899
-0.7028024
-0.7020152
-0.7012378
-0.7004822
-0.6997696
-0.6991543
-0.6988211
-0.6988952
-0.6982737
-0.6976714
-0.6970992
-0.696562
-0.695822
-0.6945429
-0.692742
-0.688917
-0.6995856
-0.6991227
-0.698644
-0.6981821
-0.69777
-0.6971611
-0.6961429
-0.695001
-0.6935282
-0.6907968
-0.7009641
-0.700413
-0.6998943
-0.6994224
-0.6990178
-0.6984456
-0.6975055
-0.6965398
-0.6955
-0.6942563
-0.6922667
-0.7022245
-0.7016592
-0.7011273
-0.7006427
-0.7002243
-0.6996576
-0.6987582
-0.6978444
-0.696919
-0.6959498
-0.6948573
-0.6933017
-0.7033296
-0.7027744
-0.7022469
-0.7017601
-0.7013301
-0.7007663
-0.6998941
-0.6990099
-0.6981165
-0.6972197
-0.6963007
-0.6952886
-0.6939567
-0.7042865
-0.7037491
-0.7032337
-0.7027513
-0.7023159
-0.7017557
-0.7009089
-0.7000454
-0.699172
-0.6982919
-0.6974168
-0.6965167
-0.6955285
-0.6942876
-0.697815
-0.6966103
-0.6953549
-0.6940518
-0.6926901
-0.6912464
-0.6896835
-0.6880099
-0.6863177
-0.6850486
-0.6803809
-0.6988434
-0.697593
-0.6963107
-0.6950106
-0.6936931
-0.6923395
-0.6909318
-0.6894855
-0.6882436
-0.6878854
-0.6869572
-0.6782288
-0.6998307
-0.698565
-0.6972839
-0.6960186
-0.6947885
-0.6936039
-0.6924711
-0.6914401
-0.6906784
-0.6907543
-0.6904277
-0.6870348
-0.6780864
-0.700782
-0.6995319
-0.6982773
-0.6970612
-0.6959193
-0.6948811
-0.6939784
-0.6932598
-0.6928554
-0.6930725
-0.6929344
-0.6909241
-0.6875843
-0.679413
-0.7017015
-0.7004952
-0.6992899
-0.6981341
-0.6970707
-0.6961405
-0.6953846
-0.6948559
-0.6946351
-0.6949003
-0.6947905
-0.6934455
-0.6915917
-0.688594
-0.6817833
-0.7025913
-0.701453
-0.7003175
-0.6992319
-0.6982397
-0.6973834
-0.6967079
-0.6962619
-0.69611
-0.6963453
-0.6962352
-0.6952082
-0.6939999
-0.6924008
-0.6899349
-0.6834866
-0.7034515
-0.7024015
-0.7013527
-0.7003463
-0.6994209
-0.6986153
-0.6979714
-0.6975373
-0.697369
-0.6975379
-0.6974036
-0.6965454
-0.6956195
-0.6945812
-0.6932891
-0.6909385
-0.6842396
-0.7042805
-0.7033342
-0.702385
-0.7014647
-0.7006034
-0.6998324
-0.6991875
-0.6987137
-0.6984718
-0.698542
-0.6983915
-0.6976196
-0.6968406
-0.6960363
-0.6951874
-0.6939441
-0.6914453
-0.6854929
-0.7050754
-0.7042427
-0.7034003
-0.7025691
-0.7017691
-0.7010211
-0.7003512
-0.6997973
-0.6994251
-0.6993595
-0.6992316
-0.6985295
-0.6978414
-0.6971711
-0.6965129
-0.695664
-0.6942431
-0.6920909
-0.6871519
-0.7058328
-0.7051155
-0.7043796
-0.7036355
-0.7028925
-0.7021593
-0.7014474
-0.7007767
-0.7001969
-0.6998767
-0.6999287
-0.6993295
-0.6987434
-0.6981799
-0.6976527
-0.696961
-0.695885
-0.6946151
-0.6928297
-0.6890495
-0.7006301
-0.7001728
-0.6996947
-0.699226
-0.6987941
-0.6981891
-0.6972239
-0.6962125
-0.6950794
-0.6936184
-0.6909147
-0.7019455
-0.7014092
-0.7008973
-0.7004209
-0.6999979
-0.699418
-0.6985051
-0.697571
-0.6966125
-0.6955812
-0.6943523
-0.6923681
-0.7031452
-0.7025984
-0.7020775
-0.7015939
-0.7011627
-0.7005926
-0.6997125
-0.6988183
-0.6979108
-0.6969926
-0.6960361
-0.6949455
-0.6933777
-0.7041964
-0.7036612
-0.7031476
-0.7026661
-0.7022301
-0.7016673
-0.7008168
-0.6999491
-0.6990704
-0.6981831
-0.6972976
-0.6963798
-0.6953558
-0.6940106
-0.7051055
-0.704589
-0.7040895
-0.7036161
-0.7031801
-0.702626
-0.7018024
-0.7009594
-0.7001007
-0.6992325
-0.6983625
-0.6974879
-0.6965762
-0.695576
-0.6943183
-0.6852159
-0.6989225
-0.6977906
-0.6966174
-0.6954113
-0.6941747
-0.692903
-0.6915939
-0.6902622
-0.6890447
-0.6883848
-0.687897
-0.6821189
-0.6998921
-0.6987167
-0.6975183
-0.6963184
-0.6951316
-0.6939682
-0.6928396
-0.6917971
-0.6909963
-0.6909339
-0.6906964
-0.6879904
-0.6807048
-0.7008237
-0.6996321
-0.6984313
-0.697256
-0.6961361
-0.6950979
-0.6941737
-0.6934162
-0.6929605
-0.6931058
-0.6929768
-0.6911772
-0.6882477
-0.6809227
-0.7017221
-0.7005437
-0.6993642
-0.6982275
-0.697173
-0.6962392
-0.6954666
-0.6949105
-0.6946573
-0.6948887
-0.6947761
-0.6934806
-0.6917214
-0.6888978
-0.6824137
-0.7025913
-0.701453
-0.7003175
-0.6992319
-0.6982397
-0.6973834
-0.6967079
-0.6962619
-0.69611
-0.6963453
-0.6962352
-0.6952082
-0.6939999
-0.6924008
-0.6899349
-0.6834866
-0.7034329
-0.7023583
-0.701287
-0.7002643
-0.6993325
-0.6985331
-0.6979094
-0.6975078
-0.6973775
-0.697578
-0.6974474
-0.6965782
-0.6956298
-0.6945521
-0.6931955
-0.6907181
-0.6836864
-0.704247
-0.7032554
-0.7022652
-0.7013156
-0.7004435
-0.6996859
-0.6990821
-0.6986756
-0.6985149
-0.698649
-0.6984963
-0.6977096
-0.6969023
-0.6960514
-0.6951318
-0.6937792
-0.6910358
-0.6844311
-0.7050317
-0.7041379
-0.7032412
-0.7023723
-0.7015595
-0.7008323
-0.7002242
-0.6997761
-0.6995413
-0.6995873
-0.6994198
-0.6986887
-0.6979586
-0.6972309
-0.6964949
-0.6955633
-0.6940112
-0.691538
-0.6856694
-0.705784
-0.7049973
-0.7042014
-0.7034163
-0.702661
-0.7019553
-0.7013233
-0.7008
-0.7004449
-0.7003688
-0.7002279
-0.6995533
-0.6988914
-0.6982459
-0.6976228
-0.6968587
-0.6957214
-0.6943112
-0.6921797
-0.6873073
-0.7065002
-0.7058225
-0.7051271
-0.7044243
-0.7037227
-0.7030312
-0.7023604
-0.7017288
-0.7011825
-0.7008767
-0.7009121
-0.7003352
-0.6997637
-0.699208
-0.698679
-0.698011
-0.6970174
-0.6959478
-0.6946874
-0.6929173
-0.6891848
-0.7016186
-0.7011698
-0.7006967
-0.7002251
-0.6997803
-0.6991744
-0.6982463
-0.6972867
-0.6962822
-0.6951577
-0.6937129
-0.6910228
-0.7028747
-0.7023552
-0.7018533
-0.7013781
-0.7009438
-0.7003628
-0.6994724
-0.6985645
-0.6976365
-0.6966851
-0.6956665
-0.69444
-0.6924462
-0.7040177
-0.7034905
-0.7029833
-0.7025051
-0.7020685
-0.7015002
-0.700643
-0.6997674
-0.6988786
-0.6979772
-0.6970702
-0.6961148
-0.6950124
-0.6934321
-0.7050181
-0.7045038
-0.7040061
-0.7035336
-0.7030972
-0.7025408
-0.701714
-0.7008674
-0.7000044
-0.6991309
-0.6982537
-0.6973686
-0.6964391
-0.6954031
-0.6940414
-0.7058822
-0.7053872
-0.704905
-0.7044434
-0.7040114
-0.7034673
-0.7026694
-0.7018492
-0.7010102
-0.700156
-0.6992969
-0.6984269
-0.6975407
-0.6966174
-0.6956022
-0.6865038
-0.6881159
-0.6858758
-0.6999662
-0.6989003
-0.697799
-0.6966735
-0.6955308
-0.6943765
-0.6932174
-0.6920836
-0.6910766
-0.690604
-0.690671
-0.6888153
-0.683877
-0.7008816
-0.6997741
-0.6986487
-0.6975292
-0.6964363
-0.6953899
-0.6944175
-0.6935701
-0.6929834
-0.6929769
-0.6929094
-0.6914047
-0.6890576
-0.6830841
-0.7017615
-0.7006379
-0.6995082
-0.6984078
-0.6973693
-0.6964257
-0.6956151
-0.6949949
-0.6946632
-0.6948192
-0.6947127
-0.6935121
-0.6919353
-0.6894502
-0.6836434
-0.7026108
-0.7014988
-0.7003873
-0.6993192
-0.6983343
-0.6974723
-0.6967769
-0.6962989
-0.6961093
-0.6963115
-0.6961978
-0.6951939
-0.6940298
-0.6925101
-0.6901818
-0.6840471
-0.7034329
-0.7023583
-0.701287
-0.7002643
-0.6993325
-0.6985331
-0.6979094
-0.6975078
-0.6973775
-0.697578
-0.6974474
-0.6965782
-0.6956298
-0.6945521
-0.6931955
-0.6907181
-0.6836864
-0.7042294
-0.7032146
-0.7022033
-0.7012384
-0.7003604
-0.6996087
-0.6990244
-0.6986492
-0.698525
-0.6986889
-0.6985398
-0.6977472
-0.6969275
-0.6960548
-0.6951011
-0.6936919
-0.6908181
-0.6838852
-0.7049999
-0.7040635
-0.7031283
-0.7022318
-0.7014089
-0.7006942
-0.7001247
-0.6997398
-0.6995809
-0.6996861
-0.6995165
-0.6987746
-0.6980248
-0.6972666
-0.6964857
-0.6954989
-0.6938467
-0.6911328
-0.6846219
-0.7057426
-0.7048985
-0.7040517
-0.7032311
-0.7024637
-0.7017773
-0.7012029
-0.700778
-0.7005501
-0.7005764
-0.7003974
-0.6996961
-0.6989986
-0.6983072
-0.6976257
-0.696811
-0.6956177
-0.6940781
-0.6916307
-0.685845
-0.7064542
-0.7057115
-0.7049597
-0.7042184
-0.7035053
-0.7028394
-0.702243
-0.7017486
-0.7014103
-0.701328
-0.7011786
-0.7005298
-0.6998889
-0.6992615
-0.6986517
-0.6979309
-0.6969093
-0.6957787
-0.6943794
-0.6922683
-0.6874638
-0.7071313
-0.7064913
-0.7058346
-0.705171
-0.7045089
-0.7038566
-0.7032245
-0.7026298
-0.7021155
-0.7018248
-0.7018491
-0.7012945
-0.700739
-0.7001914
-0.6996625
-0.6990049
-0.6980623
-0.6970736
-0.6960107
-0.6947594
-0.6930094
-0.6893087
-0.7025548
-0.7021174
-0.7016523
-0.701183
-0.7007304
-0.7001278
-0.6992268
-0.6983033
-0.6973494
-0.6963516
-0.6952401
-0.6937991
-0.691107
-0.7037551
-0.7032538
-0.7027648
-0.7022949
-0.7018561
-0.7012785
-0.7004129
-0.6995267
-0.698624
-0.6977019
-0.6967616
-0.6957442
-0.694506
-0.6925024
-0.7048447
-0.7043382
-0.7038466
-0.7033775
-0.7029408
-0.7023795
-0.7015469
-0.7006936
-0.6998225
-0.6989388
-0.6980475
-0.6971409
-0.6961737
-0.6950592
-0.6934633
-0.7057973
-0.7053045
-0.7048242
-0.7043635
-0.7039312
-0.703385
-0.7025842
-0.7017608
-0.7009182
-0.7000596
-0.6991952
-0.698318
-0.6974212
-0.6964801
-0.695429
-0.7066188
-0.7061457
-0.705682
-0.7052342
-0.7048098
-0.7042788
-0.7035079
-0.7027129
-0.7018962
-0.7010611
-0.7002151
-0.6993556
-0.698474
-0.6975764
-0.6966389
-0.6872393
-0.6887558
-0.6874497
-0.6900924
-0.6892449
-0.6868833
-0.7009511
-0.6999457
-0.6989092
-0.6978536
-0.6967882
-0.6957216
-0.6946668
-0.6936519
-0.6927721
-0.6923572
-0.6925597
-0.6914421
-0.6898093
-0.6856601
-0.7018162
-0.7007712
-0.6997114
-0.698661
-0.6976423
-0.6966791
-0.6958017
-0.6950634
-0.694572
-0.6945759
-0.6945238
-0.6934637
-0.6921477
-0.6901458
-0.685389
-0.7026481
-0.7015875
-0.7005225
-0.6994878
-0.698516
-0.6976409
-0.6969025
-0.6963534
-0.6960775
-0.6962069
-0.6960968
-0.6951393
-0.6940627
-0.6926982
-0.6906394
-0.6851378
-0.7034515
-0.7024015
-0.7013527
-0.7003463
-0.6994209
-0.6986153
-0.6979714
-0.6975373
-0.697369
-0.6975379
-0.6974036
-0.6965454
-0.6956195
-0.6945812
-0.6932891
-0.6909385
-0.6842396
-0.7042294
-0.7032146
-0.7022033
-0.7012384
-0.7003604
-0.6996087
-0.6990244
-0.6986492
-0.698525
-0.6986889
-0.6985398
-0.6977472
-0.6969275
-0.6960548
-0.6951011
-0.6936919
-0.6908181
-0.6838852
-0.7049832
-0.7040251
-0.70307
-0.7021591
-0.7013305
-0.7006216
-0.7000703
-0.6997149
-0.6995903
-0.6997233
-0.6995571
-0.6988115
-0.6980538
-0.6972822
-0.6964809
-0.6954663
-0.6937599
-0.6909178
-0.6840832
-0.7057124
-0.7048284
-0.7039454
-0.7030988
-0.7023218
-0.701647
-0.7011086
-0.7007426
-0.7005852
-0.7006663
-0.7004851
-0.6997745
-0.6990615
-0.6983473
-0.6976344
-0.6967883
-0.6955522
-0.693914
-0.6912297
-0.6848117
-0.706415
-0.7056186
-0.704819
-0.7040441
-0.7033196
-0.7026716
-0.702129
-0.7017261
-0.7015057
-0.7015174
-0.7013311
-0.7006566
-0.6999834
-0.6993168
-0.6986595
-0.6979043
-0.6968582
-0.6956721
-0.6941451
-0.6917231
-0.6860201
-0.7070879
-0.7063871
-0.7056777
-0.7049779
-0.7043049
-0.7036766
-0.7031141
-0.7026473
-0.702326
-0.7022408
-0.7020874
-0.7014634
-0.7008434
-0.700231
-0.6996318
-0.698932
-0.6979767
-0.6969599
-0.695836
-0.6944473
-0.6923611
-0.6876068
-0.7077273
-0.7071238
-0.706504
-0.7058778
-0.7052532
-0.7046383
-0.7040428
-0.7034831
-0.7029993
-0.7027246
-0.7027421
-0.7022104
-0.7016721
-0.7011353
-0.7006086
-0.6999618
-0.6990522
-0.6981134
-0.6971297
-0.6960732
-0.694836
-0.6930934
-0.6894077
-0.7034421
-0.7030181
-0.7025641
-0.7021007
-0.7016464
-0.7010501
-0.7001762
-0.6992791
-0.6983604
-0.6974119
-0.6964251
-0.6953151
-0.6938634
-0.691169
-0.7045897
-0.7041077
-0.7036336
-0.7031726
-0.7027344
-0.702165
-0.7013249
-0.7004629
-0.6995812
-0.6986835
-0.6977712
-0.6968312
-0.6958019
-0.6945519
-0.6925351
-0.705629
-0.7051437
-0.7046693
-0.704212
-0.7037796
-0.7032291
-0.702423
-0.7015936
-0.7007443
-0.6998776
-0.6990029
-0.6981114
-0.6971931
-0.6962142
-0.6950847
-0.7065363
-0.7060654
-0.7056035
-0.7051567
-0.7047321
-0.7041992
-0.7034256
-0.7026277
-0.7018078
-0.700969
-0.7001187
-0.6992538
-0.6983649
-0.6974567
-0.6965014
-0.7073172
-0.7068663
-0.706422
-0.7059897
-0.7055756
-0.70506
-0.7043169
-0.7035485
-0.7027567
-0.7019433
-0.7011157
-0.700269
-0.6993979
-0.698505
-0.6975938
-0.6876985
-0.6892609
-0.6883168
-0.6905828
-0.689836
-0.6885074
-0.6917915
-0.6912299
-0.6903524
-0.6881106
-0.7018816
-0.7009321
-0.6999549
-0.698962
-0.6979633
-0.696969
-0.6959927
-0.6950634
-0.6942615
-0.6938786
-0.6940811
-0.6932353
-0.6922595
-0.6908476
-0.6874596
-0.7026998
-0.7017129
-0.7007133
-0.6997246
-0.6987691
-0.6978709
-0.6970612
-0.6963887
-0.6959486
-0.6959351
-0.6958729
-0.6949919
-0.6940494
-0.6929116
-0.6912415
-0.6866822
-0.7034868
-0.7024851
-0.70148
-0.7005047
-0.699591
-0.6987716
-0.6980847
-0.6975799
-0.6973263
-0.6974264
-0.6972948
-0.6964609
-0.6955822
-0.6946234
-0.6934598
-0.6913524
-0.6853157
-0.704247
-0.7032554
-0.7022652
-0.7013156
-0.7004435
-0.6996859
-0.6990821
-0.6986756
-0.6985149
-0.698649
-0.6984963
-0.6977096
-0.6969023
-0.6960514
-0.6951318
-0.6937792
-0.6910358
-0.6844311
-0.7049832
-0.7040251
-0.70307
-0.7021591
-0.7013305
-0.7006216
-0.7000703
-0.6997149
-0.6995903
-0.6997233
-0.6995571
-0.6988115
-0.6980538
-0.6972822
-0.6964809
-0.6954663
-0.6937599
-0.6909178
-0.6840832
-0.7056965
-0.7047922
-0.7038904
-0.7030302
-0.7022479
-0.7015784
-0.7010571
-0.7007185
-0.7005933
-0.7007002
-0.7005222
-0.6998087
-0.6990898
-0.6983662
-0.6976398
-0.6967785
-0.6955193
-0.6938278
-0.6910173
-0.6842801
-0.7063864
-0.7055525
-0.7047189
-0.7039196
-0.7031859
-0.7025487
-0.7020396
-0.7016915
-0.7015366
-0.701599
-0.7014103
-0.700727
-0.7000403
-0.699355
-0.6986733
-0.6978984
-0.6968338
-0.6956055
-0.6939813
-0.6913262
-0.6849998