/*--------------------------------*- C++ -*----------------------------------*\
| =========                 |                                                 |
| \\      /  F ield         | OpenFOAM: The Open Source CFD Toolbox           |
|  \\    /   O peration     | Version:  2306                                  |
|   \\  /    A nd           | Website:  www.openfoam.com                      |
|    \\/     M anipulation  |                                                 |
\*---------------------------------------------------------------------------*/
FoamFile
{
    version     2.0;
    format      ascii;
    arch        "LSB;label=32;scalar=64";
    class       volScalarField;
    location    "1.5/air";
    object      O2;
}
// * * * * * * * * * * * * * * * * * * * * * * * * * * * * * * * * * * * * * //

dimensions      [0 0 0 0 0 0 0];

internalField   nonuniform List<scalar> 
16000
(
0.2298027
0.2298074
0.2290342
0.2297721
0.2298145
0.2291095
0.229779
0.2272909
0.228932
0.2297008
0.2298212
0.2292059
0.2297889
0.2274016
0.2290354
0.2297137
0.2253238
0.2271478
0.228662
0.2295683
0.2298252
0.2292871
0.229798
0.2275525
0.2291601
0.2297306
0.2254408
0.2272926
0.2288083
0.2295945
0.2233223
0.2251693
0.2267892
0.2281488
0.2293267
0.2298252
0.2293322
0.2298034
0.2276861
0.2292608
0.2297452
0.2256015
0.2274814
0.2289813
0.229624
0.2234378
0.2253208
0.2269762
0.2283463
0.2293831
0.2213699
0.2231694
0.2247858
0.226148
0.2273135
0.2288771
0.1897479
0.2298212
0.2293322
0.2298034
0.2277627
0.2293154
0.2297537
0.2257447
0.2276442
0.229118
0.2296489
0.2235964
0.22552
0.2272168
0.2285854
0.2294468
0.2214808
0.2233185
0.2249776
0.2263763
0.2275603
0.2289817
0.2194952
0.2212224
0.2227913
0.2241091
0.2251647
0.2260876
0.2280696
0.1911596
0.1882191
0.1895243
0.2298145
0.2292871
0.229798
0.2277627
0.2293154
0.2297537
0.2258272
0.2277362
0.2291911
0.2296634
0.2237376
0.2256931
0.2274218
0.2287752
0.2294942
0.2216328
0.2235143
0.2252262
0.2266707
0.2278692
0.2291119
0.2196008
0.2213651
0.2229781
0.2243361
0.22543
0.2263788
0.2282246
0.2177051
0.2193546
0.220858
0.2221279
0.223089
0.2237886
0.2244082
0.2267236
0.1940105
0.1894857
0.190931
0.1879648
0.1880143
0.189078
0.2298074
0.2292059
0.2297889
0.2276861
0.2292608
0.2297452
0.2258272
0.2277362
0.2291911
0.2296634
0.2238191
0.2257917
0.227537
0.2288767
0.2295187
0.2217682
0.2236843
0.22544
0.2269216
0.2281241
0.2292114
0.2197456
0.2215525
0.2232199
0.2246314
0.2257752
0.2267512
0.2284319
0.2178055
0.2194906
0.2210361
0.2223459
0.2233435
0.2240873
0.2247581
0.2269618
0.2159964
0.2175713
0.2190076
0.2202197
0.2211351
0.2216904
0.2219782
0.2221877
0.224563
0.1984032
0.1920378
0.1937639
0.1891423
0.189277
0.1904757
0.1879803
0.1877759
0.1876054
0.1884103
0.2298027
0.2291095
0.229779
0.2275525
0.2291601
0.2297306
0.2257447
0.2276442
0.229118
0.2296489
0.2238191
0.2257917
0.227537
0.2288767
0.2295187
0.2218463
0.2237812
0.2255611
0.2270626
0.2282642
0.2292618
0.2198744
0.2217153
0.2234279
0.2248855
0.2260712
0.2270693
0.228607
0.217943
0.2196689
0.2212667
0.222629
0.2236777
0.2244802
0.2252101
0.2272847
0.216092
0.2177005
0.2191769
0.2204266
0.2213758
0.2219669
0.2223148
0.2226287
0.2250123
0.2143634
0.2158692
0.2172411
0.2184002
0.2192673
0.2197854
0.2198907
0.2196941
0.2193199
0.221081
0.2047457
0.1959537
0.1980882
0.1915141
0.1918149
0.1932788
0.1890807
0.18895
0.1888613
0.1897971
0.1880093
0.1878042
0.1873987
0.1869933
0.1875226
0.2290342
0.2297721
0.2274016
0.2290354
0.2297137
0.2256015
0.2274814
0.2289813
0.229624
0.2237376
0.2256931
0.2274218
0.2287752
0.2294942
0.2218463
0.2237812
0.2255611
0.2270626
0.2282642
0.2292618
0.2199488
0.221808
0.2235455
0.2250295
0.2262381
0.2272487
0.2287039
0.2180655
0.2198237
0.2214649
0.2228726
0.2239671
0.2248196
0.2255941
0.2275577
0.2162229
0.2178699
0.219396
0.220695
0.2216911
0.2223344
0.222761
0.2231936
0.2255539
0.2144546
0.2159922
0.217402
0.2185966
0.2194943
0.2200433
0.2201936
0.2200989
0.2199615
0.2221684
0.2127996
0.214242
0.2155549
0.2166632
0.2174949
0.2179768
0.2180631
0.2176703
0.2168761
0.2156129
0.2150629
0.2015638
0.2040966
0.195151
0.1956744
0.1975016
0.1912969
0.191309
0.1913758
0.1925669
0.1890451
0.1889015
0.1885669
0.1882414
0.1888987
0.187922
0.1878437
0.1874523
0.186834
0.1861794
0.1862404
0.2272909
0.228932
0.2297008
0.2254408
0.2272926
0.2288083
0.2295945
0.2235964
0.22552
0.2272168
0.2285854
0.2294468
0.2217682
0.2236843
0.22544
0.2269216
0.2281241
0.2292114
0.2199488
0.221808
0.2235455
0.2250295
0.2262381
0.2272487
0.2287039
0.2181361
0.2199118
0.2215771
0.2230103
0.2241315
0.2250116
0.2258095
0.2277095
0.2163395
0.218017
0.2195841
0.2209258
0.2219638
0.2226548
0.2231473
0.2236669
0.225978
0.2145795
0.2161534
0.2176101
0.218851
0.2197913
0.2203849
0.2205998
0.2206285
0.2207204
0.2231389
0.2128868
0.2143594
0.2157081
0.2168497
0.21771
0.2182187
0.2183432
0.2180316
0.2174577
0.2168141
0.2182435
0.2112991
0.2126836
0.2139422
0.2150048
0.2158018
0.2162695
0.2163361
0.2159539
0.2149852
0.2133683
0.2105516
0.2120606
0.200357
0.2010041
0.2031292
0.194694
0.1948946
0.1951523
0.1966887
0.1911308
0.191106
0.1909051
0.1907302
0.1916387
0.188901
0.1888767
0.1885445
0.1879955
0.1874198
0.1876054
0.1877416
0.1877654
0.187513
0.1869256
0.1860828
0.1850031
0.185976
0.2253238
0.2271478
0.228662
0.2295683
0.2234378
0.2253208
0.2269762
0.2283463
0.2293831
0.2216328
0.2235143
0.2252262
0.2266707
0.2278692
0.2291119
0.2198744
0.2217153
0.2234279
0.2248855
0.2260712
0.2270693
0.228607
0.2181361
0.2199118
0.2215771
0.2230103
0.2241315
0.2250116
0.2258095
0.2277095
0.2164067
0.2181007
0.2196906
0.2210564
0.2221185
0.2228374
0.2233658
0.2239297
0.2262039
0.2146906
0.2162934
0.2177887
0.2190695
0.2200481
0.2206823
0.2209548
0.2210798
0.221324
0.2237956
0.2130062
0.2145132
0.2159062
0.2170913
0.2179909
0.2185389
0.2187177
0.2185088
0.2181535
0.2179363
0.2199198
0.2113826
0.2127958
0.2140885
0.2151825
0.2160062
0.2164984
0.2165981
0.2162882
0.215512
0.2144715
0.2135235
0.2158079
0.2098564
0.211188
0.212397
0.2134174
0.2141849
0.2146361
0.2147127
0.2143335
0.2134169
0.2116917
0.2086861
0.2080097
0.2097251
0.1995541
0.1998421
0.200164
0.2020038
0.1943275
0.1944556
0.1944153
0.1944255
0.1956834
0.1908725
0.1909516
0.19073
0.1903112
0.1898869
0.1903205
0.1886713
0.1887419
0.1885411
0.1880118
0.1872381
0.1862364
0.1873387
0.1874713
0.187593
0.1874527
0.1870178
0.1862249
0.1849972
0.1847605
0.1857093
0.2233223
0.2251693
0.2267892
0.2281488
0.2293267
0.2214808
0.2233185
0.2249776
0.2263763
0.2275603
0.2289817
0.2197456
0.2215525
0.2232199
0.2246314
0.2257752
0.2267512
0.2284319
0.2180655
0.2198237
0.2214649
0.2228726
0.2239671
0.2248196
0.2255941
0.2275577
0.2164067
0.2181007
0.2196906
0.2210564
0.2221185
0.2228374
0.2233658
0.2239297
0.2262039
0.2147547
0.216373
0.2178898
0.219193
0.2201937
0.2208515
0.221157
0.2213323
0.2216497
0.2241218
0.2131124
0.2146466
0.2160762
0.2172987
0.2182334
0.2188174
0.2190441
0.2189186
0.2187131
0.2187331
0.2208845
0.2114969
0.2129429
0.2142774
0.2154125
0.2162729
0.2168009
0.2169482
0.2167281
0.2161447
0.2155036
0.2152128
0.2178486
0.2099366
0.2112955
0.2125369
0.213587
0.2143796
0.2148536
0.2149608
0.2146466
0.213908
0.2127113
0.21144
0.2114582
0.2136492
0.2084671
0.2097498
0.2109134
0.2118952
0.2126347
0.2130747
0.213155
0.2128132
0.2119313
0.210315
0.2073257
0.2063388
0.2060191
0.2078135
0.1988996
0.1990754
0.1990705
0.1991788
0.2007969
0.1938936
0.1941038
0.1940099
0.1937482
0.1935226
0.1943179
0.1905432
0.1907031
0.1905985
0.190177
0.1895353
0.1886873
0.1900489
0.1883568
0.1885202
0.1884247
0.1880405
0.1873057
0.1861469
0.1859924
0.1870698
0.1871358
0.1873297
0.187296
0.1869845
0.1863589
0.1852121
0.1847733
0.1845159
0.1854404
0.2213699
0.2231694
0.2247858
0.226148
0.2273135
0.2288771
0.2196008
0.2213651
0.2229781
0.2243361
0.22543
0.2263788
0.2282246
0.217943
0.2196689
0.2212667
0.222629
0.2236777
0.2244802
0.2252101
0.2272847
0.2163395
0.218017
0.2195841
0.2209258
0.2219638
0.2226548
0.2231473
0.2236669
0.225978
0.2147547
0.216373
0.2178898
0.219193
0.2201937
0.2208515
0.221157
0.2213323
0.2216497
0.2241218
0.2131736
0.2147226
0.2161723
0.2174159
0.2183709
0.2189759
0.2192296
0.2191493
0.2190166
0.2191408
0.2213344
0.2115987
0.2130704
0.2144396
0.2156099
0.2165031
0.2170637
0.2172533
0.2171048
0.2166551
0.2162395
0.2162414
0.2189947
0.2100464
0.2114363
0.2127176
0.2138066
0.2146338
0.215141
0.2152917
0.2150588
0.2144954
0.2136634
0.2130054
0.2134433
0.2159279
0.2085441
0.209853
0.2110475
0.2120576
0.2128209
0.2132824
0.2133911
0.2131103
0.2123934
0.2112715
0.2098917
0.2095391
0.2096178
0.2117578
0.2071271
0.2083645
0.2094862
0.2104326
0.2111468
0.2115746
0.2116636
0.2113477
0.2105347
0.2089994
0.2062097
0.2051388
0.2045054
0.2043766
0.2061991
0.1982141
0.1984504
0.1983582
0.198167
0.1981134
0.1993416
0.1934117
0.1936825
0.1936856
0.1933897
0.1929196
0.1922911
0.194037
0.1901398
0.1903825
0.1903696
0.1900791
0.1894544
0.1884314
0.1884401
0.1897751
0.1879817
0.1882129
0.1882191
0.1879515
0.1873768
0.1862883
0.1859219
0.1857463
0.1867987
0.1867468
0.1870005
0.1870467
0.1868514
0.1863615
0.1854065
0.1850033
0.1845475
0.1842692
0.1851692
0.2194952
0.2212224
0.2227913
0.2241091
0.2251647
0.2260876
0.2280696
0.2178055
0.2194906
0.2210361
0.2223459
0.2233435
0.2240873
0.2247581
0.2269618
0.2162229
0.2178699
0.219396
0.220695
0.2216911
0.2223344
0.222761
0.2231936
0.2255539
0.2146906
0.2162934
0.2177887
0.2190695
0.2200481
0.2206823
0.2209548
0.2210798
0.221324
0.2237956
0.2131736
0.2147226
0.2161723
0.2174159
0.2183709
0.2189759
0.2192296
0.2191493
0.2190166
0.2191408
0.2213344
0.2116573
0.213143
0.2145313
0.2157215
0.2166335
0.217213
0.2174268
0.2173163
0.2169328
0.216617
0.2167376
0.2195195
0.210144
0.2115585
0.2128727
0.213995
0.214853
0.2153906
0.2155797
0.2154116
0.2149678
0.2143419
0.2139601
0.2146125
0.2172126
0.2086497
0.2099882
0.2112207
0.2122677
0.2130638
0.2135565
0.2137059
0.2135006
0.2129461
0.2121622
0.2113469
0.2113827
0.2117983
0.2141731
0.2072013
0.2084638
0.209615
0.2105883
0.2113251
0.2117734
0.2118893
0.2116307
0.2109737
0.2099027
0.2086229
0.2081243
0.2078493
0.2079965
0.2101152
0.2058327
0.2070283
0.2081111
0.2090246
0.2097151
0.2101325
0.2102265
0.2099406
0.2091792
0.2077525
0.2051216
0.2041544
0.2034328
0.2029973
0.2029765
0.2046026
0.1975135
0.1977903
0.1977776
0.1975189
0.1971916
0.196818
0.1990436
0.192872
0.1932114
0.1932878
0.1931037
0.1926193
0.1917898
0.1920377
0.1937544
0.189685
0.1899868
0.190066
0.189879
0.1894005
0.1884264
0.188204
0.1881909
0.1894992
0.1875568
0.1878442
0.1879261
0.1877698
0.1873241
0.1864205
0.1860786
0.1856951
0.1854982
0.1865253
0.1863187
0.1866172
0.1867302
0.1866231
0.1862598
0.1854609
0.1852102
0.1847926
0.1843198
0.1840204
0.1848384
0.2177051
0.2193546
0.220858
0.2221279
0.223089
0.2237886
0.2244082
0.2267236
0.216092
0.2177005
0.2191769
0.2204266
0.2213758
0.2219669
0.2223148
0.2226287
0.2250123
0.2145795
0.2161534
0.2176101
0.218851
0.2197913
0.2203849
0.2205998
0.2206285
0.2207204
0.2231389
0.2131124
0.2146466
0.2160762
0.2172987
0.2182334
0.2188174
0.2190441
0.2189186
0.2187131
0.2187331
0.2208845
0.2116573
0.213143
0.2145313
0.2157215
0.2166335
0.217213
0.2174268
0.2173163
0.2169328
0.216617
0.2167376
0.2195195
0.2102003
0.2116281
0.2129603
0.2141015
0.2149772
0.2155324
0.2157432
0.2156097
0.2152242
0.2146901
0.2144213
0.2151647
0.2177972
0.2087436
0.2101055
0.2113692
0.212448
0.2132732
0.2137944
0.2139796
0.2138342
0.2133904
0.2127952
0.212233
0.21247
0.2130773
0.2155501
0.207303
0.2085938
0.2097813
0.2107898
0.2115577
0.2120357
0.21219
0.2120026
0.2114981
0.2107435
0.2099893
0.2098419
0.2098777
0.2102919
0.2125908
0.2059043
0.2071239
0.208235
0.2091743
0.2098863
0.2103231
0.2104428
0.2102115
0.2095978
0.2086108
0.2074026
0.2069632
0.2065546
0.206365
0.2065803
0.208482
0.2045812
0.2057375
0.2067843
0.2076672
0.2083357
0.2087425
0.2088419
0.2085794
0.2078717
0.2065305
0.2040717
0.2031807
0.2025524
0.2020313
0.2017163
0.2015769
0.2042784
0.1967787
0.1971116
0.1971554
0.1969904
0.1966132
0.1960074
0.1965526
0.1987452
0.192295
0.1926814
0.192837
0.1927384
0.1923808
0.1915689
0.1915573
0.1917828
0.19347
0.1891877
0.1895389
0.1896854
0.1896004
0.1892378
0.1884349
0.1882146
0.1879747
0.1879398
0.1892212
0.1870958
0.1874252
0.1875703
0.1874981
0.1871741
0.1864201
0.1862234
0.185867
0.1854663
0.1852481
0.1861918
0.1858597
0.1861943
0.1863584
0.1863254
0.1860593
0.1854046
0.1852752
0.1850121
0.1845802
0.1840903
0.1837169
0.1844997
0.2159964
0.2175713
0.2190076
0.2202197
0.2211351
0.2216904
0.2219782
0.2221877
0.224563
0.2144546
0.2159922
0.217402
0.2185966
0.2194943
0.2200433
0.2201936
0.2200989
0.2199615
0.2221684
0.2130062
0.2145132
0.2159062
0.2170913
0.2179909
0.2185389
0.2187177
0.2185088
0.2181535
0.2179363
0.2199198
0.2115987
0.2130704
0.2144396
0.2156099
0.2165031
0.2170637
0.2172533
0.2171048
0.2166551
0.2162395
0.2162414
0.2189947
0.2102003
0.2116281
0.2129603
0.2141015
0.2149772
0.2155324
0.2157432
0.2156097
0.2152242
0.2146901
0.2144213
0.2151647
0.2177972
0.2087977
0.2101723
0.2114532
0.2125498
0.2133918
0.2139295
0.2141351
0.2140214
0.2136316
0.2131194
0.2126609
0.2129842
0.2136756
0.2161765
0.2073934
0.2087066
0.209924
0.2109626
0.2117583
0.2122632
0.2124514
0.2123202
0.2119192
0.2113408
0.2108197
0.2108537
0.2110691
0.2116464
0.2140149
0.2060024
0.2072492
0.208395
0.2093679
0.2101096
0.2105747
0.2107308
0.2105671
0.2100979
0.2094094
0.2086941
0.2085777
0.2084469
0.2085034
0.2089309
0.2109574
0.2046503
0.2058297
0.2069036
0.2078113
0.2085003
0.2089257
0.2090496
0.2088392
0.2082723
0.2073489
0.2062385
0.2058362
0.2054902
0.2051775
0.2050734
0.2051638
0.2081504
0.2033693
0.2044893
0.2055022
0.2063567
0.2070045
0.2074014
0.2075043
0.207264
0.2066003
0.2053427
0.2030254
0.2022299
0.2016685
0.2012374
0.2008425
0.2004414
0.2012926
0.2039563
0.196027
0.1963963
0.1965096
0.1964128
0.1961413
0.1955144
0.1957649
0.1962868
0.1984463
0.1916867
0.192113
0.1923251
0.192316
0.192056
0.1913952
0.1913528
0.1913235
0.1915262
0.193184
0.1886606
0.1890478
0.1892511
0.189242
0.1889919
0.1883255
0.1882359
0.1880011
0.1877436
0.1876867
0.1888822
0.1866066
0.1869695
0.1871628
0.1871614
0.1869306
0.1863159
0.1862337
0.1860246
0.1856538
0.1852357
0.1849429
0.1858505
0.1853778
0.1857402
0.1859459
0.1859707
0.1857867
0.1852445
0.1852282
0.1850879
0.1848124
0.1843661
0.1838101
0.1834064
0.184242
0.2143634
0.2158692
0.2172411
0.2184002
0.2192673
0.2197854
0.2198907
0.2196941
0.2193199
0.221081
0.2128868
0.2143594
0.2157081
0.2168497
0.21771
0.2182187
0.2183432
0.2180316
0.2174577
0.2168141
0.2182435
0.2114969
0.2129429
0.2142774
0.2154125
0.2162729
0.2168009
0.2169482
0.2167281
0.2161447
0.2155036
0.2152128
0.2178486
0.210144
0.2115585
0.2128727
0.213995
0.214853
0.2153906
0.2155797
0.2154116
0.2149678
0.2143419
0.2139601
0.2146125
0.2172126
0.2087977
0.2101723
0.2114532
0.2125498
0.2133918
0.2139295
0.2141351
0.2140214
0.2136316
0.2131194
0.2126609
0.2129842
0.2136756
0.2161765
0.2074455
0.2087708
0.2100046
0.2110603
0.2118718
0.2123924
0.2125997
0.2124984
0.2121475
0.2116466
0.2112202
0.2113318
0.211627
0.212278
0.2146633
0.2060896
0.2073578
0.2085322
0.2095339
0.210302
0.2107928
0.2109812
0.2108708
0.2104993
0.2099763
0.2094786
0.2095276
0.2095575
0.2097671
0.2103267
0.2123856
0.204745
0.2059505
0.2070577
0.2079975
0.208715
0.2091674
0.2093262
0.2091802
0.2087508
0.2081104
0.2074655
0.2073626
0.2072702
0.2071744
0.2072664
0.2075245
0.2106252
0.2034362
0.2045783
0.2056173
0.2064956
0.2071631
0.2075777
0.2077042
0.2075138
0.2069845
0.2061254
0.2050905
0.2047524
0.2044464
0.2041991
0.2039808
0.2037881
0.2048761
0.2078209
0.2021952
0.2032805
0.204262
0.2050898
0.2057183
0.2061054
0.2062114
0.2059897
0.2053669
0.2041798
0.2019947
0.2012717
0.2007953
0.2004278
0.2001231
0.1996616
0.2001824
0.20101
0.2036363
0.1952599
0.1956619
0.1958235
0.1958055
0.1956117
0.1951115
0.1952893
0.1955219
0.1960205
0.198147
0.1910582
0.1915125
0.1917729
0.1918291
0.1916687
0.1911255
0.1911924
0.1911353
0.1910881
0.1912681
0.1928358
0.1881106
0.1885264
0.1887722
0.1888276
0.1886625
0.1881261
0.1881375
0.1880354
0.1877859
0.1875108
0.1873782
0.1885352
0.1860968
0.1864852
0.1867178
0.1867713
0.1866192
0.1861129
0.1861389
0.1860458
0.1858241
0.1854388
0.1849544
0.1846308
0.1855906
0.1848785
0.1852627
0.1855014
0.185574
0.1854549
0.1850082
0.1850765
0.1850504
0.1848991
0.184611
0.1841048
0.1835237
0.1831703
0.1840669
0.2127996
0.214242
0.2155549
0.2166632
0.2174949
0.2179768
0.2180631
0.2176703
0.2168761
0.2156129
0.2150629
0.2113826
0.2127958
0.2140885
0.2151825
0.2160062
0.2164984
0.2165981
0.2162882
0.215512
0.2144715
0.2135235
0.2158079
0.2100464
0.2114363
0.2127176
0.2138066
0.2146338
0.215141
0.2152917
0.2150588
0.2144954
0.2136634
0.2130054
0.2134433
0.2159279
0.2087436
0.2101055
0.2113692
0.212448
0.2132732
0.2137944
0.2139796
0.2138342
0.2133904
0.2127952
0.212233
0.21247
0.2130773
0.2155501
0.2074455
0.2087708
0.2100046
0.2110603
0.2118718
0.2123924
0.2125997
0.2124984
0.2121475
0.2116466
0.2112202
0.2113318
0.211627
0.212278
0.2146633
0.2061398
0.2074196
0.2086097
0.2096277
0.210411
0.2109166
0.2111232
0.211041
0.210717
0.2102664
0.2098569
0.209976
0.2100773
0.210357
0.2109773
0.2130362
0.2048292
0.2060553
0.2071899
0.2081573
0.2089
0.2093769
0.2095665
0.2094713
0.2091347
0.208651
0.2082107
0.2082605
0.2083139
0.2083538
0.2085707
0.2089302
0.2120538
0.2035277
0.204695
0.205766
0.2066751
0.2073698
0.2078103
0.2079702
0.2078415
0.2074434
0.2068539
0.2062602
0.2062027
0.2061297
0.2060783
0.2060304
0.2059946
0.2072385
0.2102945
0.2022599
0.2033666
0.2043732
0.2052238
0.2058712
0.2062754
0.2064039
0.2062302
0.2057363
0.2049301
0.2039687
0.2036758
0.2034343
0.2032287
0.2030782
0.2027925
0.2035271
0.2045902
0.2074935
0.2010559
0.2021092
0.2030608
0.2038637
0.2044738
0.2048519
0.2049599
0.204755
0.2041677
0.2030454
0.2009743
0.2003199
0.1999062
0.1996188
0.1993769
0.1990176
0.1994218
0.1999251
0.200729
0.2033182
0.1944866
0.1949106
0.1951151
0.1951534
0.195046
0.1946404
0.1949006
0.1950639
0.1952786
0.1957538
0.1977843
0.190415
0.1908912
0.191187
0.1912993
0.1912129
0.1907861
0.1909341
0.1909884
0.1909165
0.1908513
0.1909539
0.1924793
0.1875446
0.1879816
0.188262
0.1883668
0.1882741
0.187838
0.1879477
0.1879481
0.1878333
0.187569
0.1872269
0.1870625
0.1882709
0.1855717
0.18598
0.1862433
0.1863421
0.1862521
0.1858381
0.1859444
0.1859605
0.1858563
0.185622
0.1851765
0.1846667
0.1843934
0.1854141
0.1843663
0.1847676
0.1850329
0.1851439
0.1850789
0.1847093
0.1848476
0.184907
0.184871
0.1847087
0.1843653
0.1838376
0.183306
0.1830101
0.1839774
0.2047457
0.2112991
0.2126836
0.2139422
0.2150048
0.2158018
0.2162695
0.2163361
0.2159539
0.2149852
0.2133683
0.2105516
0.2120606
0.2099366
0.2112955
0.2125369
0.213587
0.2143796
0.2148536
0.2149608
0.2146466
0.213908
0.2127113
0.21144
0.2114582
0.2136492
0.2086497
0.2099882
0.2112207
0.2122677
0.2130638
0.2135565
0.2137059
0.2135006
0.2129461
0.2121622
0.2113469
0.2113827
0.2117983
0.2141731
0.2073934
0.2087066
0.209924
0.2109626
0.2117583
0.2122632
0.2124514
0.2123202
0.2119192
0.2113408
0.2108197
0.2108537
0.2110691
0.2116464
0.2140149
0.2061398
0.2074196
0.2086097
0.2096277
0.210411
0.2109166
0.2111232
0.211041
0.210717
0.2102664
0.2098569
0.209976
0.2100773
0.210357
0.2109773
0.2130362
0.2048777
0.2061149
0.2072646
0.2082475
0.2090047
0.2094959
0.2097028
0.2096345
0.2093428
0.2089277
0.2085699
0.2086844
0.2088021
0.2089041
0.2091794
0.2095855
0.2127046
0.2036091
0.2047961
0.2058934
0.206829
0.2075479
0.2080119
0.2082012
0.2081211
0.2078116
0.207371
0.2069708
0.2070558
0.2071167
0.2071876
0.207249
0.2073108
0.2086458
0.2117231
0.2023485
0.2034794
0.2045168
0.205397
0.2060706
0.2064996
0.2066602
0.2065456
0.2061773
0.2056285
0.2050872
0.2050585
0.2050337
0.2050062
0.2050079
0.2048565
0.205736
0.2069538
0.2099655
0.2011185
0.2021926
0.2031683
0.2039932
0.2046215
0.205016
0.2051457
0.2049868
0.2045232
0.203766
0.2028654
0.2026177
0.2024213
0.2022797
0.2021721
0.2019668
0.2025512
0.2032678
0.2043061
0.2071683
0.1999503
0.2009726
0.2018966
0.2026757
0.2032688
0.2036378
0.2037476
0.2035574
0.2030021
0.2019369
0.1999699
0.1993711
0.1990161
0.1987865
0.1986225
0.1983348
0.1987931
0.1991835
0.1996694
0.2004498
0.2029358
0.1937102
0.1941517
0.1943874
0.1944756
0.1944307
0.1941252
0.1944414
0.1946894
0.1948381
0.1950348
0.1954304
0.1974128
0.189763
0.1902546
0.190579
0.1907338
0.190711
0.1903727
0.1906045
0.1907415
0.1907831
0.1906964
0.1905631
0.1906323
0.1922078
0.1869673
0.1874205
0.1877276
0.1878732
0.187837
0.1874866
0.1876681
0.1877679
0.1877571
0.1876296
0.1873046
0.1869365
0.1868223
0.1880914
0.1850353
0.185459
0.1857471
0.1858822
0.185844
0.1855042
0.1856771
0.1857744
0.1857806
0.1856653
0.1853755
0.1849083
0.184448
0.1842322
0.1853239
0.1838445
0.1842593
0.184546
0.1846887
0.184668
0.1843635
0.1845555
0.1846857
0.1847362
0.1846902
0.1844764
0.1841142
0.1836347
0.1831584
0.1829283
0.1984032
0.2015638
0.2040966
0.2098564
0.211188
0.212397
0.2134174
0.2141849
0.2146361
0.2147127
0.2143335
0.2134169
0.2116917
0.2086861
0.2080097
0.2097251
0.2085441
0.209853
0.2110475
0.2120576
0.2128209
0.2132824
0.2133911
0.2131103
0.2123934
0.2112715
0.2098917
0.2095391
0.2096178
0.2117578
0.207303
0.2085938
0.2097813
0.2107898
0.2115577
0.2120357
0.21219
0.2120026
0.2114981
0.2107435
0.2099893
0.2098419
0.2098777
0.2102919
0.2125908
0.2060896
0.2073578
0.2085322
0.2095339
0.210302
0.2107928
0.2109812
0.2108708
0.2104993
0.2099763
0.2094786
0.2095276
0.2095575
0.2097671
0.2103267
0.2123856
0.2048777
0.2061149
0.2072646
0.2082475
0.2090047
0.2094959
0.2097028
0.2096345
0.2093428
0.2089277
0.2085699
0.2086844
0.2088021
0.2089041
0.2091794
0.2095855
0.2127046
0.203656
0.2048537
0.2059655
0.206916
0.2076487
0.2081264
0.2083323
0.2082779
0.2080112
0.2076356
0.2073134
0.2074584
0.2075782
0.2077049
0.2078174
0.2079251
0.209302
0.212374
0.2024273
0.2035772
0.2046399
0.2055456
0.2062423
0.2066939
0.2068828
0.2068147
0.2065311
0.2061243
0.2057667
0.2058718
0.2059715
0.2060554
0.2061546
0.2060872
0.2070542
0.2083625
0.2113936
0.2012043
0.2023017
0.2033072
0.2041606
0.204814
0.2052323
0.2053929
0.2052908
0.2049477
0.2044369
0.2039374
0.2039397
0.203946
0.2039688
0.2039976
0.2039108
0.2046178
0.2054787
0.2066705
0.209638
0.200011
0.2010533
0.2020007
0.202801
0.2034116
0.2037964
0.203927
0.2037811
0.2033449
0.2026302
0.2017853
0.2015723
0.20142
0.2013226
0.2012783
0.201125
0.2017412
0.2023115
0.2030103
0.2040239
0.2067773
0.1988752
0.1998695
0.2007666
0.2015239
0.2021004
0.2024611
0.2025719
0.202395
0.2018685
0.2008551
0.1989809
0.1984318
0.1981231
0.1979472
0.1978386
0.1976351
0.1981232
0.19857
0.1989467
0.1994153
0.2001139
0.2025443
0.1929351
0.1933884
0.19365
0.1937754
0.1937858
0.1935546
0.1939366
0.1942422
0.1944778
0.194612
0.1947393
0.1950994
0.1971298
0.1891058
0.1896086
0.1899546
0.1901444
0.1901707
0.1899089
0.1901999
0.1904218
0.1905477
0.1905766
0.1904284
0.1902683
0.1903877
0.1920232
0.1863824
0.1868477
0.187176
0.1873539
0.1873648
0.1870831
0.1873243
0.1874968
0.1875867
0.1875647
0.1873813
0.1870343
0.1867158
0.1866593
0.1879995
0.1844909
0.1849266
0.1852345
0.1853995
0.1854035
0.1851263
0.18535
0.1855147
0.185603
0.1855992
0.1854322
0.1851235
0.1847046
0.1842997
0.1841499
0.1833158
0.183741
0.1840454
0.1842142
0.1842306
0.1839803
0.184216
0.1844005
0.1845225
0.1845639
0.1844696
0.184239
0.1839235
0.1834972
0.183083
0.1940105
0.1959537
0.1980882
0.200357
0.2010041
0.2031292
0.2084671
0.2097498
0.2109134
0.2118952
0.2126347
0.2130747
0.213155
0.2128132
0.2119313
0.210315
0.2073257
0.2063388
0.2060191
0.2078135
0.2072013
0.2084638
0.209615
0.2105883
0.2113251
0.2117734
0.2118893
0.2116307
0.2109737
0.2099027
0.2086229
0.2081243
0.2078493
0.2079965
0.2101152
0.2060024
0.2072492
0.208395
0.2093679
0.2101096
0.2105747
0.2107308
0.2105671
0.2100979
0.2094094
0.2086941
0.2085777
0.2084469
0.2085034
0.2089309
0.2109574
0.2048292
0.2060553
0.2071899
0.2081573
0.2089
0.2093769
0.2095665
0.2094713
0.2091347
0.208651
0.2082107
0.2082605
0.2083139
0.2083538
0.2085707
0.2089302
0.2120538
0.203656
0.2048537
0.2059655
0.206916
0.2076487
0.2081264
0.2083323
0.2082779
0.2080112
0.2076356
0.2073134
0.2074584
0.2075782
0.2077049
0.2078174
0.2079251
0.209302
0.212374
0.2024727
0.2036328
0.2047095
0.2056295
0.2063395
0.2068042
0.207009
0.2069656
0.2067229
0.206378
0.2060943
0.2062558
0.20641
0.2065446
0.2066892
0.2066616
0.2076697
0.2090193
0.2120444
0.2012806
0.2023964
0.2034262
0.2043041
0.2049798
0.2054198
0.2056076
0.2055502
0.2052883
0.2049132
0.2045888
0.2047175
0.2048402
0.2049658
0.2050824
0.2050695
0.2058507
0.2067988
0.2080803
0.2110653
0.2000942
0.201159
0.2021351
0.2029629
0.2035977
0.2040054
0.2041658
0.2040746
0.2037541
0.2032758
0.2028148
0.2028392
0.2028777
0.2029329
0.2030132
0.2029645
0.2036878
0.2043803
0.2052228
0.2063887
0.2092436
0.1989341
0.1999478
0.2008675
0.2016452
0.2022386
0.2026145
0.2027454
0.2026112
0.2021993
0.2015231
0.2007267
0.2005449
0.200426
0.2003713
0.20037
0.2002866
0.2009125
0.2015171
0.2020735
0.2027545
0.2036845
0.2063768
0.1978309
0.1987968
0.1996698
0.2004055
0.200967
0.2013192
0.201431
0.2012658
0.2007656
0.1997992
0.1980095
0.1975028
0.1972348
0.1971002
0.1970425
0.1968995
0.1974346
0.1979129
0.1983484
0.1987114
0.1991096
0.1997701
0.202246
0.1921637
0.1926255
0.1929065
0.1930631
0.1931154
0.1929496
0.1933752
0.1937478
0.1940426
0.1942659
0.1943378
0.1944371
0.1948476
0.1969374
0.1884465
0.188957
0.1893199
0.189537
0.1896044
0.1894031
0.1897439
0.190026
0.190238
0.1903527
0.1903252
0.1901544
0.1900441
0.1902216
0.1919287
0.1857926
0.186267
0.186612
0.1868163
0.1868654
0.1866416
0.1869277
0.1871608
0.1873242
0.1874041
0.1873301
0.1871275
0.1868289
0.1865661
0.186576
0.1839411
0.1843859
0.1847099
0.1848995
0.1849386
0.1847137
0.1849784
0.1851945
0.1853509
0.1854302
0.1853779
0.185194
0.1849321
0.1845665
0.184224
0.1827822
0.1832157
0.1835343
0.1837251
0.1837725
0.1835685
0.1838385
0.1840672
0.1842442
0.1843579
0.1843537
0.1842442
0.1840587
0.1837943
0.183427
0.1911596
0.1920378
0.1937639
0.195151
0.1956744
0.1975016
0.1995541
0.1998421
0.200164
0.2020038
0.2071271
0.2083645
0.2094862
0.2104326
0.2111468
0.2115746
0.2116636
0.2113477
0.2105347
0.2089994
0.2062097
0.2051388
0.2045054
0.2043766
0.2061991
0.2059043
0.2071239
0.208235
0.2091743
0.2098863
0.2103231
0.2104428
0.2102115
0.2095978
0.2086108
0.2074026
0.2069632
0.2065546
0.206365
0.2065803
0.208482
0.204745
0.2059505
0.2070577
0.2079975
0.208715
0.2091674
0.2093262
0.2091802
0.2087508
0.2081104
0.2074655
0.2073626
0.2072702
0.2071744
0.2072664
0.2075245
0.2106252
0.2036091
0.2047961
0.2058934
0.206829
0.2075479
0.2080119
0.2082012
0.2081211
0.2078116
0.207371
0.2069708
0.2070558
0.2071167
0.2071876
0.207249
0.2073108
0.2086458
0.2117231
0.2024727
0.2036328
0.2047095
0.2056295
0.2063395
0.2068042
0.207009
0.2069656
0.2067229
0.206378
0.2060943
0.2062558
0.20641
0.2065446
0.2066892
0.2066616
0.2076697
0.2090193
0.2120444
0.2013246
0.2024502
0.2034935
0.2043852
0.2050737
0.2055262
0.2057293
0.2056956
0.2054728
0.205157
0.2049029
0.2050846
0.2052584
0.2054308
0.2055882
0.2056101
0.2064262
0.2074151
0.2087376
0.2117156
0.2001682
0.2012507
0.2022503
0.2031017
0.2037579
0.2041865
0.2043731
0.2043249
0.2040823
0.2037341
0.2034404
0.2035846
0.2037328
0.2038836
0.2040442
0.204061
0.2048487
0.2056152
0.2065443
0.2077991
0.2106693
0.1990149
0.2000504
0.2009977
0.201802
0.2024186
0.2028167
0.2029762
0.2028948
0.2025943
0.2021452
0.2017169
0.2017613
0.2018229
0.2019107
0.202024
0.202035
0.2027545
0.2034659
0.2041441
0.2049682
0.2060493
0.2088396
0.1978882
0.1988728
0.1997677
0.2005231
0.2011009
0.2014677
0.2015989
0.201475
0.2010853
0.2004436
0.1996908
0.1995346
0.1994454
0.1994225
0.1994621
0.1994269
0.2000853
0.2007014
0.2012945
0.2018371
0.202447
0.2033371
0.2060717
0.196813
0.1977548
0.198603
0.1993197
0.1998659
0.2002107
0.2003226
0.2001684
0.1996919
0.1987685
0.1970559
0.1965866
0.1963526
0.1962539
0.1962346
0.1961464
0.1967088
0.1972354
0.197704
0.1981281
0.1984284
0.198797
0.1995085
0.2020432
0.1913981
0.1918654
0.1921617
0.1923427
0.1924302
0.1923154
0.1927784
0.1931955
0.1935586
0.1938427
0.194009
0.1940575
0.1942072
0.1946766
0.1968388
0.1877872
0.1883029
0.1886789
0.1889181
0.1890182
0.1888682
0.1892452
0.1895779
0.189851
0.1900531
0.1901153
0.1900681
0.1899461
0.189892
0.1901366
0.1852003
0.1856811
0.1860395
0.1862653
0.1863461
0.1861704
0.1864926
0.1867712
0.186996
0.1871503
0.1871814
0.1870903
0.1869347
0.1866897
0.1864896
0.1833878
0.1838395
0.1841765
0.1843865
0.1844552
0.1842746
0.1845715
0.1848292
0.1850377
0.1851859
0.1852194
0.1851519
0.1850132
0.1848024
0.184496
0.1822457
0.1826853
0.1830157
0.1832248
0.1832988
0.1831343
0.183432
0.1836955
0.1839172
0.1840865
0.184157
0.1841389
0.1840731
0.1839367
0.1837284
0.1897479
0.1894857
0.190931
0.1915141
0.1918149
0.1932788
0.194694
0.1948946
0.1951523
0.1966887
0.1988996
0.1990754
0.1990705
0.1991788
0.2007969
0.2058327
0.2070283
0.2081111
0.2090246
0.2097151
0.2101325
0.2102265
0.2099406
0.2091792
0.2077525
0.2051216
0.2041544
0.2034328
0.2029973
0.2029765
0.2046026
0.2046503
0.2058297
0.2069036
0.2078113
0.2085003
0.2089257
0.2090496
0.2088392
0.2082723
0.2073489
0.2062385
0.2058362
0.2054902
0.2051775
0.2050734
0.2051638
0.2081504
0.2035277
0.204695
0.205766
0.2066751
0.2073698
0.2078103
0.2079702
0.2078415
0.2074434
0.2068539
0.2062602
0.2062027
0.2061297
0.2060783
0.2060304
0.2059946
0.2072385
0.2102945
0.2024273
0.2035772
0.2046399
0.2055456
0.2062423
0.2066939
0.2068828
0.2068147
0.2065311
0.2061243
0.2057667
0.2058718
0.2059715
0.2060554
0.2061546
0.2060872
0.2070542
0.2083625
0.2113936
0.2013246
0.2024502
0.2034935
0.2043852
0.2050737
0.2055262
0.2057293
0.2056956
0.2054728
0.205157
0.2049029
0.2050846
0.2052584
0.2054308
0.2055882
0.2056101
0.2064262
0.2074151
0.2087376
0.2117156
0.2002109
0.2013029
0.2023155
0.20318
0.2038486
0.2042893
0.2044906
0.2044652
0.2042602
0.2039687
0.203742
0.2039366
0.2041327
0.2043269
0.2045249
0.2045725
0.2053903
0.2061917
0.2071614
0.2084569
0.211319
0.1990867
0.2001393
0.2011093
0.2019364
0.2025737
0.2029918