/*--------------------------------*- C++ -*----------------------------------*\
| =========                 |                                                 |
| \\      /  F ield         | OpenFOAM: The Open Source CFD Toolbox           |
|  \\    /   O peration     | Version:  2306                                  |
|   \\  /    A nd           | Website:  www.openfoam.com                      |
|    \\/     M anipulation  |                                                 |
\*---------------------------------------------------------------------------*/
FoamFile
{
    version     2.0;
    format      ascii;
    arch        "LSB;label=32;scalar=64";
    class       volScalarField;
    location    "1.5/air";
    object      T;
}
// * * * * * * * * * * * * * * * * * * * * * * * * * * * * * * * * * * * * * //

dimensions      [0 0 0 1 0 0 0];

internalField   nonuniform List<scalar> 
16000
(
1101.608
1090.378
1114.693
1090.193
1084.291
1111.593
1063.139
1117.951
1111.55
1083.944
1080.889
1108.925
1046.551
1116.554
1102.409
1046.29
1120.621
1116.595
1108.827
1080.343
1079.319
1106.969
1036.723
1115.303
1094.429
1021.435
1119.906
1112.48
1094.3
1036.025
1122.987
1119.983
1115.367
1106.787
1078.51
1079.319
1105.936
1032.099
1114.346
1088.531
1006.012
1119.277
1108.727
1081.394
1005.413
1122.577
1117.931
1108.734
1088.158
1030.699
1125.134
1122.662
1119.412
1114.424
1105.638
1078.15
1114.876
1080.889
1105.936
1032.099
1113.826
1085.403
998.569
1118.8
1105.829
1071.74
985.8122
1122.227
1116.077
1102.585
1071.393
996.8889
1124.869
1121.524
1116.143
1105.805
1084.661
1029.689
1127.102
1124.953
1122.382
1118.992
1113.915
1105.507
1079.243
1114.813
1117.301
1116.528
1084.291
1106.969
1036.723
1113.826
1085.403
998.569
1118.54
1104.246
1066.583
976.1801
1121.968
1114.647
1097.783
1058.724
974.8625
1124.653
1120.521
1113.132
1097.718
1065.639
995.2494
1126.908
1124.248
1120.608
1114.784
1104.171
1084.215
1032.963
1128.918
1126.986
1124.805
1122.194
1118.799
1113.943
1106.436
1082.021
1114.675
1117.292
1116.436
1119.747
1118.828
1118.19
1090.378
1108.925
1046.551
1114.346
1088.531
1006.012
1118.54
1104.246
1066.583
976.1801
1121.829
1113.864
1095.143
1051.913
963.9266
1124.496
1119.762
1110.777
1091.342
1051.174
972.7234
1126.755
1123.644
1119.01
1110.852
1094.958
1064.863
1000.493
1128.762
1126.488
1123.734
1119.957
1114.098
1104.152
1086.94
1041.042
1130.603
1128.834
1126.898
1124.722
1122.14
1118.892
1114.543
1108.392
1087.209
1114.406
1117.278
1116.216
1119.751
1118.82
1118.074
1122.039
1121.102
1120.355
1119.866
1101.608
1111.593
1063.139
1115.303
1094.429
1021.435
1118.8
1105.829
1071.74
985.8122
1121.829
1113.864
1095.143
1051.913
963.9266
1124.414
1119.351
1109.478
1087.817
1043.367
961.5112
1126.648
1123.199
1117.784
1107.743
1087.648
1050.12
979.4422
1128.642
1126.074
1122.796
1117.911
1109.662
1094.86
1069.259
1013.182
1130.468
1128.441
1126.159
1123.404
1119.697
1114.262
1105.843
1092.674
1055.338
1132.17
1130.533
1128.773
1126.86
1124.727
1122.252
1119.294
1115.693
1111.31
1096.851
1113.652
1117.269
1115.743
1119.764
1118.807
1117.792
1122.047
1121.115
1120.347
1119.733
1124.17
1123.231
1122.455
1121.884
1121.56
1114.693
1090.193
1116.554
1102.409
1046.29
1119.277
1108.727
1081.394
1005.413
1121.968
1114.647
1097.783
1058.724
974.8625
1124.414
1119.351
1109.478
1087.817
1043.367
961.5112
1126.592
1122.961
1117.114
1106.015
1083.592
1042.153
969.0156
1128.559
1125.776
1122.093
1116.32
1106.126
1087.466
1055.818
995.4897
1130.366
1128.122
1125.531
1122.233
1117.436
1109.862
1097.565
1078.466
1034.704
1132.05
1130.199
1128.201
1125.974
1123.33
1119.921
1115.336
1109.11
1100.997
1079.111
1133.633
1132.109
1130.485
1128.754
1126.887
1124.839
1122.548
1120.01
1117.379
1115.29
1108.3
1117.356
1114.51
1119.811
1118.809
1117.194
1122.069
1121.151
1120.333
1119.414
1124.179
1123.25
1122.474
1121.874
1121.418
1126.15
1125.218
1124.419
1123.804
1123.413
1122.464
1117.951
1111.55
1083.944
1119.906
1112.48
1094.3
1036.025
1122.227
1116.077
1102.585
1071.393
996.8889
1124.496
1119.762
1110.777
1091.342
1051.174
972.7234
1126.592
1122.961
1117.114
1106.015
1083.592
1042.153
969.0156
1128.517
1125.62
1121.714
1115.444
1104.151
1083.356
1048.566
986.8259
1130.297
1127.898
1125.073
1121.342
1115.659
1106.335
1090.97
1067.709
1021.959
1131.959
1129.931
1127.726
1125.21
1122.071
1117.739
1111.536
1102.778
1091.585
1068.028
1133.523
1131.811
1130.003
1128.081
1125.976
1123.564
1120.672
1117.275
1113.673
1111.338
1101.783
1135.001
1133.577
1132.068
1130.474
1128.788
1126.994
1125.074
1123.046
1121.084
1119.837
1118.631
1110.358
1120.05
1118.919
1115.824
1122.131
1121.258
1120.33
1118.761
1124.204
1123.301
1122.526
1121.857
1121.083
1126.16
1125.239
1124.447
1123.828
1123.402
1122.322
1127.993
1127.076
1126.263
1125.603
1125.149
1124.221
1122.561
1120.621
1116.595
1108.827
1080.343
1122.577
1117.931
1108.734
1088.158
1030.699
1124.653
1120.521
1113.132
1097.718
1065.639
995.2494
1126.648
1123.199
1117.784
1107.743
1087.648
1050.12
979.4422
1128.517
1125.62
1121.714
1115.444
1104.151
1083.356
1048.566
986.8259
1130.261
1127.781
1124.831
1120.859
1114.676
1104.36
1087.304
1061.922
1015.806
1131.898
1129.745
1127.388
1124.645
1121.103
1116.009
1108.471
1097.71
1084.445
1061.229
1133.44
1131.575
1129.61
1127.515
1125.18
1122.397
1118.876
1114.547
1109.858
1107.253
1096.628
1134.899
1133.305
1131.641
1129.913
1128.112
1126.201
1124.141
1121.955
1119.991
1119.288
1117.755
1105.239
1136.283
1134.949
1133.54
1132.06
1130.509
1128.886
1127.192
1125.455
1123.814
1122.821
1122.399
1119.54
1112.552
1122.404
1121.632
1120.398
1117.431
1124.268
1123.436
1122.661
1121.839
1120.431
1126.184
1125.293
1124.519
1123.888
1123.38
1121.989
1128.002
1127.097
1126.293
1125.636
1125.175
1124.211
1122.419
1129.71
1128.815
1127.998
1127.303
1126.78
1125.858
1124.308
1122.658
1122.987
1119.983
1115.367
1106.787
1078.51
1124.869
1121.524
1116.143
1105.805
1084.661
1029.689
1126.755
1123.644
1119.01
1110.852
1094.958
1064.863
1000.493
1128.559
1125.776
1122.093
1116.32
1106.126
1087.466
1055.818
995.4897
1130.261
1127.781
1124.831
1120.859
1114.676
1104.36
1087.304
1061.922
1015.806
1131.867
1129.65
1127.211
1124.344
1120.574
1115.046
1106.748
1094.888
1080.604
1057.95
1133.385
1131.412
1129.333
1127.107
1124.585
1121.487
1117.428
1112.3
1106.719
1104.02
1093.17
1134.823
1133.09
1131.295
1129.45
1127.538
1125.496
1123.25
1120.802
1118.601
1118.043
1116.35
1100.959
1136.188
1134.697
1133.15
1131.565
1129.954
1128.321
1126.677
1125.086
1123.78
1123.484
1122.917
1118.924
1108.537
1137.485
1136.234
1134.914
1133.533
1132.093
1130.599
1129.059
1127.506
1126.057
1125.167
1124.942
1123.12
1120.655
1114.852
1124.537
1123.874
1123.034
1121.848
1119.229
1126.246
1125.432
1124.691
1124.024
1123.344
1121.356
1128.025
1127.15
1126.369
1125.719
1125.236
1124.186
1122.086
1129.719
1128.834
1128.028
1127.339
1126.817
1125.884
1124.297
1122.516
1131.314
1130.444
1129.633
1128.916
1128.336
1127.399
1125.933
1124.394
1122.756
1125.134
1122.662
1119.412
1114.424
1105.638
1078.15
1126.908
1124.248
1120.608
1114.784
1104.171
1084.215
1032.963
1128.642
1126.074
1122.796
1117.911
1109.662
1094.86
1069.259
1013.182
1130.297
1127.898
1125.073
1121.342
1115.659
1106.335
1090.97
1067.709
1021.959
1131.867
1129.65
1127.211
1124.344
1120.574
1115.046
1106.748
1094.888
1080.604
1057.95
1133.356
1131.329
1129.19
1126.893
1124.265
1120.985
1116.615
1111.026
1104.954
1102.252
1091.444
1134.772
1132.942
1131.053
1129.122
1127.12
1124.959
1122.534
1119.821
1117.348
1116.84
1115.103
1098.013
1136.117
1134.498
1132.836
1131.161
1129.491
1127.833
1126.189
1124.63
1123.411
1123.383
1122.791
1117.855
1105.048
1137.396
1135.999
1134.554
1133.083
1131.607
1130.146
1128.732
1127.436
1126.449
1126.248
1125.909
1123.63
1120.18
1111.731
1138.614
1137.439
1136.201
1134.908
1133.564
1132.175
1130.754
1129.331
1128.009
1127.177
1126.985
1125.547
1123.998
1121.892
1117.224
1126.499
1125.868
1125.143
1124.339
1123.294
1120.242
1128.083
1127.283
1126.547
1125.901
1125.359
1124.14
1121.455
1129.74
1128.885
1128.102
1127.428
1126.904
1125.943
1124.272
1122.184
1131.322
1130.463
1129.661
1128.951
1128.376
1127.437
1125.959
1124.383
1122.614
1132.814
1131.973
1131.175
1130.447
1129.827
1128.879
1127.465
1126.009
1124.48
1122.853
1127.102
1124.953
1122.382
1118.992
1113.915
1105.507
1079.243
1128.762
1126.488
1123.734
1119.957
1114.098
1104.152
1086.94
1041.042
1130.366
1128.122
1125.531
1122.233
1117.436
1109.862
1097.565
1078.466
1034.704
1131.898
1129.745
1127.388
1124.645
1121.103
1116.009
1108.471
1097.71
1084.445
1061.229
1133.356
1131.329
1129.19
1126.893
1124.265
1120.985
1116.615
1111.026
1104.954
1102.252
1091.444
1134.746
1132.867
1130.93
1128.951
1126.899
1124.668
1122.132
1119.256
1116.612
1116.128
1114.392
1096.524
1136.069
1134.362
1132.618
1130.877
1129.16
1127.47
1125.8
1124.212
1122.979
1123.074
1122.495
1116.877
1102.59
1137.33
1135.814
1134.264
1132.717
1131.206
1129.762
1128.427
1127.277
1126.511
1126.593
1126.263
1123.616
1119.363
1108.948
1138.531
1137.22
1135.865
1134.491
1133.122
1131.782
1130.511
1129.38
1128.543
1128.364
1128.065
1126.415
1124.428
1121.5
1114.854
1139.674
1138.57
1137.408
1136.195
1134.936
1133.639
1132.315
1130.995
1129.769
1128.976
1128.769
1127.507
1126.28
1124.961
1123.204
1118.502
1128.316
1127.695
1127.003
1126.3
1125.594
1124.062
1120.351
1129.794
1129.009
1128.275
1127.618
1127.075
1126.054
1124.225
1121.556
1131.342
1130.51
1129.732
1129.039
1128.47
1127.523
1126.018
1124.358
1122.282
1132.822
1131.99
1131.201
1130.481
1129.866
1128.919
1127.503
1126.035
1124.47
1122.711
1134.22
1133.41
1132.63
1131.901
1131.255
1130.305
1128.937
1127.532
1126.084
1124.567
1122.945
1128.918
1126.986
1124.805
1122.194
1118.799
1113.943
1106.436
1082.021
1130.468
1128.441
1126.159
1123.404
1119.697
1114.262
1105.843
1092.674
1055.338
1131.959
1129.931
1127.726
1125.21
1122.071
1117.739
1111.536
1102.778
1091.585
1068.028
1133.385
1131.412
1129.333
1127.107
1124.585
1121.487
1117.428
1112.3
1106.719
1104.02
1093.17
1134.746
1132.867
1130.93
1128.951
1126.899
1124.668
1122.132
1119.256
1116.612
1116.128
1114.392
1096.524
1136.045
1134.293
1132.506
1130.731
1128.988
1127.277
1125.584
1123.964
1122.702
1122.851
1122.287
1116.312
1101.334
1137.285
1135.687
1134.063
1132.461
1130.922
1129.484
1128.186
1127.103
1126.432
1126.653
1126.354
1123.431
1118.604
1106.947
1138.468
1137.046
1135.595
1134.154
1132.76
1131.454
1130.288
1129.344
1128.769
1128.87
1128.584
1126.789
1124.472
1120.876
1112.702
1139.596
1138.365
1137.094
1135.807
1134.527
1133.283
1132.113
1131.084
1130.33
1130.138
1129.835
1128.46
1127
1125.291
1122.867
1116.477
1140.67
1139.633
1138.541
1137.402
1136.221
1135.005
1133.767
1132.534
1131.386
1130.625
1130.39
1129.227
1128.138
1127.079
1125.971
1123.92
1118.639
1130.007
1129.39
1128.708
1128.028
1127.396
1126.245
1124.144
1120.461
1131.391
1130.625
1129.894
1129.224
1128.652
1127.683
1126.128
1124.31
1121.657
1132.84
1132.035
1131.268
1130.564
1129.959
1129.012
1127.589
1126.094
1124.444
1122.381
1134.227
1133.426
1132.654
1131.933
1131.293
1130.345
1128.977
1127.569
1126.11
1124.556
1122.803
1135.54
1134.762
1134.003
1133.282
1132.622
1131.679
1130.356
1128.995
1127.597
1126.16
1124.648
1123.016
1130.603
1128.834
1126.898
1124.722
1122.14
1118.892
1114.543
1108.392
1087.209
1132.05
1130.199
1128.201
1125.974
1123.33
1119.921
1115.336
1109.11
1100.997
1079.111
1133.44
1131.575
1129.61
1127.515
1125.18
1122.397
1118.876
1114.547
1109.858
1107.253
1096.628
1134.772
1132.942
1131.053
1129.122
1127.12
1124.959
1122.534
1119.821
1117.348
1116.84
1115.103
1098.013
1136.045
1134.293
1132.506
1130.731
1128.988
1127.277
1125.584
1123.964
1122.702
1122.851
1122.287
1116.312
1101.334
1137.263
1135.623
1133.96
1132.329
1130.776
1129.337
1128.053
1126.994
1126.356
1126.638
1126.36
1123.287
1118.161
1105.914
1138.426
1136.928
1135.408
1133.918
1132.505
1131.219
1130.115
1129.274
1128.834
1129.077
1128.823
1126.919
1124.364
1120.296
1111.127
1139.537
1138.202
1136.841
1135.492
1134.194
1132.988
1131.93
1131.094
1130.608
1130.68
1130.394
1128.964
1127.355
1125.355
1122.394
1114.627
1140.597
1139.44
1138.247
1137.039
1135.839
1134.676
1133.586
1132.63
1131.926
1131.717
1131.393
1130.164
1128.927
1127.643
1126.197
1123.604
1116.65
1141.605
1140.632
1139.606
1138.535
1137.426
1136.285
1135.123
1133.967
1132.889
1132.158
1131.894
1130.797
1129.78
1128.823
1127.913
1126.517
1123.997
1118.776
1131.587
1130.975
1130.298
1129.619
1128.991
1127.958
1126.314
1124.226
1120.572
1132.886
1132.142
1131.419
1130.74
1130.139
1129.185
1127.747
1126.202
1124.395
1121.758
1134.245
1133.468
1132.717
1132.012
1131.382
1130.438
1129.07
1127.655
1126.169
1124.531
1122.474
1135.546
1134.777
1134.027
1133.312
1132.658
1131.717
1130.396
1129.035
1127.635
1126.186
1124.637
1122.874
1136.779
1136.035
1135.302
1134.593
1133.929
1133
1131.724
1130.407
1129.053
1127.663
1126.231
1124.71
1123.072
1132.17
1130.533
1128.773
1126.86
1124.727
1122.252
1119.294
1115.693
1111.31
1096.851
1133.523
1131.811
1130.003
1128.081
1125.976
1123.564
1120.672
1117.275
1113.673
1111.338
1101.783
1134.823
1133.09
1131.295
1129.45
1127.538
1125.496
1123.25
1120.802
1118.601
1118.043
1116.35
1100.959
1136.069
1134.362
1132.618
1130.877
1129.16
1127.47
1125.8
1124.212
1122.979
1123.074
1122.495
1116.877
1102.59
1137.263
1135.623
1133.96
1132.329
1130.776
1129.337
1128.053
1126.994
1126.356
1126.638
1126.36
1123.287
1118.161
1105.914
1138.405
1136.868
1135.313
1133.797
1132.374
1131.096
1130.02
1129.225
1128.841
1129.148
1128.914
1126.951
1124.27
1119.957
1110.305
1139.498
1138.091
1136.666
1135.273
1133.959
1132.778
1131.788
1131.067
1130.725
1130.934
1130.681
1129.212
1127.502
1125.3
1121.963
1113.262
1140.542
1139.288
1138.01
1136.744
1135.528
1134.404
1133.422
1132.655
1132.208
1132.245
1131.94
1130.694
1129.385
1127.956
1126.26
1123.197
1114.832
1141.537
1140.451
1139.329
1138.195
1137.069
1135.977
1134.955
1134.059
1133.393
1133.166
1132.823
1131.677
1130.556
1129.447
1128.327
1126.69
1123.683
1116.823
1142.484
1141.57
1140.606
1139.6
1138.557
1137.485
1136.394
1135.308
1134.293
1133.591
1133.306
1132.26
1131.288
1130.379
1129.535
1128.361
1126.576
1124.074
1118.914
1133.065
1132.463
1131.791
1131.11
1130.47
1129.481
1128.018
1126.384
1124.309
1120.684
1134.287
1133.567
1132.857
1132.176
1131.553
1130.609
1129.242
1127.812
1126.276
1124.481
1121.854
1135.563
1134.816
1134.085
1133.386
1132.742
1131.806
1130.489
1129.128
1127.72
1126.244
1124.612
1122.546
1136.786
1136.05
1135.324
1134.621
1133.963
1133.036
1131.763
1130.447
1129.093
1127.701
1126.257
1124.7
1122.931
1137.945
1137.235
1136.529
1135.837
1135.177
1134.268
1133.04
1131.769
1130.458
1129.11
1127.725
1126.284
1124.759
1123.114
1133.633
1132.109
1130.485
1128.754
1126.887
1124.839
1122.548
1120.01
1117.379
1115.29
1108.3
1134.899
1133.305
1131.641
1129.913
1128.112
1126.201
1124.141
1121.955
1119.991
1119.288
1117.755
1105.239
1136.117
1134.498
1132.836
1131.161
1129.491
1127.833
1126.189
1124.63
1123.411
1123.383
1122.791
1117.855
1105.048
1137.285
1135.687
1134.063
1132.461
1130.922
1129.484
1128.186
1127.103
1126.432
1126.653
1126.354
1123.431
1118.604
1106.947
1138.405
1136.868
1135.313
1133.797
1132.374
1131.096
1130.02
1129.225
1128.841
1129.148
1128.914
1126.951
1124.27
1119.957
1110.305
1139.479
1138.035
1136.577
1135.161
1133.839
1132.668
1131.711
1131.042
1130.764
1131.035
1130.803
1129.312
1127.549
1125.242
1121.712
1112.545
1140.505
1139.184
1137.846
1136.539
1135.311
1134.211
1133.298
1132.644
1132.339
1132.505
1132.232
1130.978
1129.625
1128.102
1126.239
1122.834
1113.488
1141.486
1140.308
1139.108
1137.919
1136.778
1135.723
1134.805
1134.086
1133.662
1133.663
1133.338
1132.192
1131.033
1129.841
1128.584
1126.746
1123.282
1115.036
1142.42
1141.401
1140.347
1139.281
1138.223
1137.197
1136.236
1135.392
1134.758
1134.519
1134.16
1133.074
1132.02
1130.997
1130.003
1128.701
1126.743
1123.762
1116.995
1143.309
1142.451
1141.546
1140.601
1139.621
1138.613
1137.588
1136.566
1135.609
1134.937
1134.637
1133.636
1132.7
1131.819
1131.001
1129.918
1128.409
1126.635
1124.151
1119.052
1134.452
1133.863
1133.201
1132.52
1131.868
1130.902
1129.534
1128.078
1126.453
1124.391
1120.789
1135.602
1134.909
1134.216
1133.539
1132.904
1131.971
1130.659
1129.298
1127.876
1126.35
1124.561
1121.929
1136.801
1136.086
1135.379
1134.691
1134.042
1133.121
1131.851
1130.539
1129.186
1127.786
1126.315
1124.674
1122.603
1137.951
1137.249
1136.55
1135.864
1135.209
1134.303
1133.077
1131.808
1130.498
1129.151
1127.763
1126.31
1124.748
1122.973
1139.042
1138.367
1137.689
1137.019
1136.368
1135.483
1134.304
1133.08
1131.814
1130.509
1129.164
1127.771
1126.326
1124.794
1123.14
1113.652
1135.001
1133.577
1132.068
1130.474
1128.788
1126.994
1125.074
1123.046
1121.084
1119.837
1118.631
1110.358
1136.188
1134.697
1133.15
1131.565
1129.954
1128.321
1126.677
1125.086
1123.78
1123.484
1122.917
1118.924
1108.537
1137.33
1135.814
1134.264
1132.717
1131.206
1129.762
1128.427
1127.277
1126.511
1126.593
1126.263
1123.616
1119.363
1108.948
1138.426
1136.928
1135.408
1133.918
1132.505
1131.219
1130.115
1129.274
1128.834
1129.077
1128.823
1126.919
1124.364
1120.296
1111.127
1139.479
1138.035
1136.577
1135.161
1133.839
1132.668
1131.711
1131.042
1130.764
1131.035
1130.803
1129.312
1127.549
1125.242
1121.712
1112.545
1140.487
1139.131
1137.763
1136.435
1135.199
1134.11
1133.23
1132.629
1132.389
1132.613
1132.36
1131.101
1129.726
1128.157
1126.208
1122.623
1112.782
1141.451
1140.211
1138.954
1137.727
1136.574
1135.543
1134.69
1134.08
1133.791
1133.913
1133.619
1132.477
1131.3
1130.061
1128.719
1126.737
1122.926
1113.714
1142.372
1141.267
1140.139
1139.022
1137.95
1136.959
1136.095
1135.417
1135.008
1134.98
1134.639
1133.559
1132.481
1131.406
1130.325
1128.926
1126.798
1123.368
1115.239
1143.249
1142.293
1141.304
1140.302
1139.307
1138.343
1137.438
1136.642
1136.038
1135.792
1135.424
1134.387
1133.379
1132.405
1131.47
1130.309
1128.741
1126.796
1123.841
1117.167
1144.083
1143.279
1142.429
1141.541
1140.621
1139.673
1138.709
1137.747
1136.845
1136.203
1135.897
1134.938
1134.034
1133.175
1132.369
1131.334
1129.959
1128.458
1126.693
1124.229
1119.181
1135.755
1135.182
1134.534
1133.859
1133.199
1132.252
1130.948
1129.586
1128.137
1126.522
1124.469
1120.873
1136.838
1136.173
1135.501
1134.835
1134.195
1133.277
1132.015
1130.709
1129.355
1127.941
1126.419
1124.622
1121.989
1137.965
1137.283
1136.601
1135.93
1135.284
1134.383
1133.161
1131.897
1130.59
1129.243
1127.847
1126.368
1124.722
1122.646
1139.047
1138.38
1137.709
1137.044
1136.399
1135.516
1134.339
1133.117
1131.853
1130.549
1129.205
1127.809
1126.352
1124.783
1122.999
1140.074
1139.433
1138.786
1138.139
1137.504
1136.646
1135.516
1134.34
1133.12
1131.859
1130.556
1129.204
1127.806
1126.354
1124.815
1114.406
1117.356
1114.51
1136.283
1134.949
1133.54
1132.06
1130.509
1128.886
1127.192
1125.455
1123.814
1122.821
1122.399
1119.54
1112.552
1137.396
1135.999
1134.554
1133.083
1131.607
1130.146
1128.732
1127.436
1126.449
1126.248
1125.909
1123.63
1120.18
1111.731
1138.468
1137.046
1135.595
1134.154
1132.76
1131.454
1130.288
1129.344
1128.769
1128.87
1128.584
1126.789
1124.472
1120.876
1112.702
1139.498
1138.091
1136.666
1135.273
1133.959
1132.778
1131.788
1131.067
1130.725
1130.934
1130.681
1129.212
1127.502
1125.3
1121.963
1113.262
1140.487
1139.131
1137.763
1136.435
1135.199
1134.11
1133.23
1132.629
1132.389
1132.613
1132.36
1131.101
1129.726
1128.157
1126.208
1122.623
1112.782
1141.434
1140.161
1138.876
1137.629
1136.469
1135.45
1134.629
1134.069
1133.841
1134.018
1133.744
1132.604
1131.42
1130.158
1128.774
1126.718
1122.721
1113.019
1142.34
1141.175
1139.995
1138.842
1137.759
1136.791
1135.988
1135.412
1135.13
1135.215
1134.903
1133.832
1132.747
1131.647
1130.517
1129.052
1126.791
1123.019
1113.938
1143.204
1142.168
1141.109
1140.06
1139.052
1138.12
1137.306
1136.665
1136.27
1136.219
1135.868
1134.838
1133.814
1132.802
1131.806
1130.592
1128.963
1126.851
1123.454
1115.441
1144.026
1143.13
1142.202
1141.262
1140.327
1139.42
1138.569
1137.817
1137.243
1136.994
1136.623
1135.63
1134.662
1133.722
1132.819
1131.731
1130.342
1128.782
1126.849
1123.921
1117.327
1144.807
1144.054
1143.258
1142.425
1141.56
1140.67
1139.763
1138.859
1138.008
1137.397
1137.089
1136.173
1135.3
1134.464
1133.668
1132.664
1131.37
1130
1128.506
1126.752
1124.302
1119.286
1136.981
1136.427
1135.796
1135.132
1134.471
1133.543
1132.293
1130.994
1129.638
1128.196
1126.587
1124.527
1120.941
1138.001
1137.365
1136.716
1136.065
1135.428
1134.53
1133.317
1132.06
1130.759
1129.411
1128.001
1126.47
1124.669
1122.034
1139.061
1138.412
1137.758
1137.106
1136.47
1135.592
1134.419
1133.202
1131.942
1130.641
1129.297
1127.893
1126.409
1124.756
1122.672
1140.079
1139.446
1138.805
1138.164
1137.533
1136.678
1135.549
1134.375
1133.157
1131.898
1130.597
1129.245
1127.843
1126.38
1124.804
1141.045
1140.439
1139.823
1139.202
1138.586
1137.758
1136.676
1135.549
1134.376
1133.161
1131.901
1130.591
1129.233
1127.829
1126.37
1114.675
1117.269
1115.743
1120.05
1118.919
1115.824
1137.485
1136.234
1134.914
1133.533
1132.093
1130.599
1129.059
1127.506
1126.057
1125.167
1124.942
1123.12
1120.655
1114.852
1138.531
1137.22
1135.865
1134.491
1133.122
1131.782
1130.511
1129.38
1128.543
1128.364
1128.065
1126.415
1124.428
1121.5
1114.854
1139.537
1138.202
1136.841
1135.492
1134.194
1132.988
1131.93
1131.094
1130.608
1130.68
1130.394
1128.964
1127.355
1125.355
1122.394
1114.627
1140.505
1139.184
1137.846
1136.539
1135.311
1134.211
1133.298
1132.644
1132.339
1132.505
1132.232
1130.978
1129.625
1128.102
1126.239
1122.834
1113.488
1141.434
1140.161
1138.876
1137.629
1136.469
1135.45
1134.629
1134.069
1133.841
1134.018
1133.744
1132.604
1131.42
1130.158
1128.774
1126.718
1122.721
1113.019
1142.323
1141.129
1139.922
1138.751
1137.661
1136.703
1135.931
1135.402
1135.178
1135.315
1135.022
1133.955
1132.869
1131.758
1130.606
1129.106
1126.772
1122.817
1113.254
1143.174
1142.082
1140.974
1139.891
1138.873
1137.962
1137.206
1136.659
1136.383
1136.437
1136.115
1135.094
1134.068
1133.041
1132.015
1130.767
1129.087
1126.844
1123.112
1114.162
1143.984
1143.013
1142.02
1141.035
1140.088
1139.211
1138.444
1137.837
1137.458
1137.391
1137.035
1136.049
1135.067
1134.098
1133.148
1132.028
1130.621
1128.999
1126.903
1123.54
1115.629
1144.754
1143.916
1143.046
1142.164
1141.286
1140.433
1139.632
1138.924
1138.379
1138.132
1137.762
1136.813
1135.881
1134.972
1134.092
1133.048
1131.759
1130.375
1128.822
1126.903
1123.995
1117.46
1145.484
1144.781
1144.036
1143.255
1142.443
1141.607
1140.755
1139.904
1139.103
1138.523
1138.219
1137.343
1136.504
1135.691
1134.908
1133.932
1132.696
1131.405
1130.041
1128.554
1126.808
1124.356
1119.375
1138.134
1137.602
1136.991
1136.342
1135.687
1134.781
1133.579
1132.333
1131.04
1129.689
1128.252
1126.634
1124.571
1120.994
1139.094
1138.489
1137.866
1137.234
1136.606
1135.732
1134.566
1133.356
1132.104
1130.808
1129.463
1128.045
1126.509
1124.702
1122.062
1140.092
1139.477
1138.852
1138.223
1137.601
1136.75
1135.625
1134.455
1133.242
1131.987
1130.688
1129.336
1127.927
1126.436
1124.776
1141.05
1140.451
1139.841
1139.226
1138.613
1137.788
1136.708
1135.582
1134.411
1133.198
1131.94
1130.631
1129.273
1127.866
1126.395
1141.959
1141.388
1140.803
1140.21
1139.614
1138.819
1137.785
1136.706
1135.581
1134.412
1133.198
1131.931
1130.615
1129.251
1127.839
1114.813
1117.278
1116.216
1119.811
1118.809
1117.194
1122.404
1121.632
1120.398
1117.431
1138.614
1137.439
1136.201
1134.908
1133.564
1132.175
1130.754
1129.331
1128.009
1127.177
1126.985
1125.547
1123.998
1121.892
1117.224
1139.596
1138.365
1137.094
1135.807
1134.527
1133.283
1132.113
1131.084
1130.33
1130.138
1129.835
1128.46
1127
1125.291
1122.867
1116.477
1140.542
1139.288
1138.01
1136.744
1135.528
1134.404
1133.422
1132.655
1132.208
1132.245
1131.94
1130.694
1129.385
1127.956
1126.26
1123.197
1114.832
1141.451
1140.211
1138.954
1137.727
1136.574
1135.543
1134.69
1134.08
1133.791
1133.913
1133.619
1132.477
1131.3
1130.061
1128.719
1126.737
1122.926
1113.714
1142.323
1141.129
1139.922
1138.751
1137.661
1136.703
1135.931
1135.402
1135.178
1135.315
1135.022
1133.955
1132.869
1131.758
1130.606
1129.106
1126.772
1122.817
1113.254
1143.158
1142.038
1140.905
1139.805
1138.781
1137.88
1137.152
1136.65
1136.428
1136.531
1136.226
1135.21
1134.185
1133.153
1132.113
1130.85
1129.141
1126.826
1122.914
1113.488
1143.956
1142.933
1141.894
1140.877
1139.92
1139.063
1138.35
1137.832
1137.563
1137.594
1137.266
1136.288
1135.307
1134.327
1133.355
1132.218
1130.794
1129.123
1126.897
1123.204
1114.37
1144.715
1143.807
1142.876
1141.952
1141.062
1140.238
1139.516
1138.943
1138.579
1138.501
1138.147
1137.202
1136.259
1135.324
1134.405
1133.34
1132.052
1130.649
1129.037
1126.955
1123.62
1115.787
1145.435
1144.652
1143.838
1143.011
1142.187
1141.386
1140.634
1139.966
1139.45
1139.209
1138.846
1137.938
1137.043
1136.163
1135.306
1134.297
1133.073
1131.787
1130.408
1128.863
1126.953
1124.051
1117.576
1146.116
1145.461
1144.764
1144.033
1143.273
1142.488
1141.687
1140.887
1140.133
1139.585
1139.288
1138.454
1137.649
1136.862
1136.096
1135.146
1133.96
1132.727
1131.441
1130.082
1128.599
1126.847
1124.396
1119.447
1139.22
1138.711
1138.124
1137.493
1136.85
1135.968
1134.814
1133.616
1132.374
1131.085
1129.737
1128.291
1126.668
1124.601
1121.03
1140.124
1139.55
1138.954
1138.343
1137.729
1136.882
1135.764
1134.602
1133.396
1132.148
1130.854
1129.501
1128.077
1126.535
1124.72
1141.063
1140.481
1139.886
1139.282
1138.678
1137.857
1136.78
1135.658
1134.491
1133.282
1132.029
1130.722
1129.364
1127.949
1126.451
1141.964
1141.399
1140.82
1140.232
1139.641
1138.848
1137.815
1136.737
1135.614
1134.447
1133.235
1131.97
1130.655
1129.291
1127.876
1142.818
1142.281
1141.728
1141.164
1140.592
1139.83
1138.844
1137.812
1136.735
1135.614
1134.446
1133.224
1131.951
1130.628
1129.257
1114.876
1117.292
1116.436
1119.764
1118.807
1117.792
1122.131
1121.258
1120.33
1118.761
1124.537
1123.874
1123.034
1121.848
1119.229
1139.674
1138.57
1137.408
1136.195
1134.936
1133.639
1132.315
1130.995
1129.769
1128.976
1128.769
1127.507
1126.28
1124.961
1123.204
1118.502
1140.597
1139.44
1138.247
1137.039
1135.839
1134.676
1133.586
1132.63
1131.926
1131.717
1131.393
1130.164
1128.927
1127.643
1126.197
1123.604
1116.65
1141.486
1140.308
1139.108
1137.919
1136.778
1135.723
1134.805
1134.086
1133.662
1133.663
1133.338
1132.192
1131.033
1129.841
1128.584
1126.746
1123.282
1115.036
1142.34
1141.175
1139.995
1138.842
1137.759
1136.791
1135.988
1135.412
1135.13
1135.215
1134.903
1133.832
1132.747
1131.647
1130.517
1129.052
1126.791
1123.019
1113.938
1143.158
1142.038
1140.905
1139.805
1138.781
1137.88
1137.152
1136.65
1136.428
1136.531
1136.226
1135.21
1134.185
1133.153
1132.113
1130.85
1129.141
1126.826
1122.914
1113.488
1143.942
1142.892
1141.83
1140.796
1139.834
1138.986
1138.3
1137.823
1137.605
1137.682
1137.37
1136.398
1135.417
1134.435
1133.455
1132.31
1130.876
1129.177
1126.881
1123.011
1113.706
1144.688
1143.732
1142.758
1141.804
1140.905
1140.1
1139.428
1138.937
1138.677
1138.691
1138.362
1137.426
1136.483
1135.54
1134.605
1133.53
1132.24
1130.821
1129.159
1126.951
1123.291
1114.545
1145.398
1144.55
1143.679
1142.813
1141.978
1141.204
1140.526
1139.985
1139.638
1139.555
1139.206
1138.301
1137.395
1136.493
1135.602
1134.577
1133.361
1132.076
1130.678
1129.074
1127.005
1123.681
1115.927
1146.07
1145.341
1144.58
1143.806
1143.034
1142.283
1141.576
1140.948
1140.461
1140.229
1139.876
1139.009
1138.151
1137.302
1136.469
1135.491
1134.319
1133.098
1131.816
1130.441
1128.901
1126.987
1124.092
1117.674
1146.704
1146.095
1145.446
1144.763
1144.051
1143.315
1142.564
1141.812
1141.104
1140.587
1140.301
1139.508
1138.737
1137.978
1137.232
1136.312
1135.172
1133.988
1132.759
1131.477
1130.12
1128.63
1126.873
1124.421
1119.501
1140.242
1139.759
1139.196
1138.588
1137.959
1137.106
1135.998
1134.846
1133.652
1132.414
1131.128
1129.771
1128.319
1126.69
1124.616
1141.093
1140.55
1139.983
1139.396
1138.8
1137.982
1136.912
1135.796
1134.637
1133.435
1132.189
1130.887
1129.528
1128.097
1126.548
1141.976
1141.427
1140.863
1140.286
1139.703
1138.913
1137.884
1136.809
1135.69
1134.527
1133.319
1132.058
1130.746
1129.381
1127.958
1142.823
1142.292
1141.745
1141.185
1140.618
1139.857
1138.873
1137.842
1136.767
1135.647
1134.481
1133.261
1131.99
1130.668
1129.297
1143.626
1143.123
1142.602
1142.066
1141.521
1140.792
1139.853
1138.869
1137.839
1136.765
1135.644
1134.469
1133.241
1131.961
1130.631
1117.301
1116.528
1119.751
1118.82
1118.074
1122.069
1121.151
1120.333
1119.414
1124.268
1123.436
1122.661
1121.839
1120.431
1126.499
1125.868
1125.143
1124.339
1123.294
1120.242
1140.67
1139.633
1138.541
1137.402
1136.221
1135.005
1133.767
1132.534
1131.386
1130.625
1130.39
1129.227
1128.138
1127.079
1125.971
1123.92
1118.639
1141.537
1140.451
1139.329
1138.195
1137.069
1135.977
1134.955
1134.059
1133.393
1133.166
1132.823
1131.677
1130.556
1129.447
1128.327
1126.69
1123.683
1116.823
1142.372
1141.267
1140.139
1139.022
1137.95
1136.959
1136.095
1135.417
1135.008
1134.98
1134.639
1133.559
1132.481
1131.406
1130.325
1128.926
1126.798
1123.368
1115.239
1143.174
1142.082
1140.974
1139.891
1138.873
1137.962
1137.206
1136.659
1136.383
1136.437
1136.115
1135.094
1134.068
1133.041
1132.015
1130.767
1129.087
1126.844
1123.112
1114.162
1143.942
1142.892
1141.83
1140.796
1139.834
1138.986
1138.3
1137.823
1137.605
1137.682
1137.37
1136.398
1135.417
1134.435
1133.455
1132.31
1130.876
1129.177
1126.881
1123.011
1113.706
1144.675
1143.694
1142.698
1141.729
1140.825
1140.028
1139.381
1138.929
1138.716
1138.774
1138.46
1137.528
1136.587
1135.642
1134.701
1133.623
1132.331
1130.902
1129.213
1126.935
1123.101
1113.891
1145.373
1144.48
1143.569
1142.675
1141.832
1141.075
1140.444
1139.98
1139.73
1139.733
1139.408
1138.511
1137.605
1136.696
1135.791
1134.76
1133.549
1132.262
1130.848
1129.195
1127.001
1123.357
1114.703
1146.036
1145.246
1144.433
1143.622
1142.84
1142.114
1141.476
1140.967
1140.639
1140.554