/*--------------------------------*- C++ -*----------------------------------*\
| =========                 |                                                 |
| \\      /  F ield         | OpenFOAM: The Open Source CFD Toolbox           |
|  \\    /   O peration     | Version:  2306                                  |
|   \\  /    A nd           | Website:  www.openfoam.com                      |
|    \\/     M anipulation  |                                                 |
\*---------------------------------------------------------------------------*/
FoamFile
{
    version     2.0;
    format      ascii;
    arch        "LSB;label=32;scalar=64";
    class       volVectorField;
    location    "1.5/air";
    object      U;
}
// * * * * * * * * * * * * * * * * * * * * * * * * * * * * * * * * * * * * * //

dimensions      [0 1 -1 0 0 0 0];

internalField   nonuniform List<vector> 
16000
(
(0.4832799 0.06700144 -0.06714459)
(0.8373287 0.1252923 -0.1035218)
(0.5090504 0.006262915 -0.00606683)
(0.83756 0.1030669 -0.1268887)
(0.9845805 0.1075053 -0.1039053)
(0.9929088 0.0155813 -0.01147679)
(1.624078 0.2089983 -0.2131935)
(0.3548619 -0.002195579 0.002219323)
(0.9931463 0.0116943 -0.01490835)
(0.9853203 0.1032266 -0.1117213)
(1.041807 0.0674891 -0.1015837)
(1.251881 0.01573699 -0.0121239)
(2.004615 0.1944871 -0.2329399)
(0.7351192 -0.003075321 0.003748115)
(2.172515 0.03150736 -0.03089659)
(2.005888 0.2268013 -0.2048197)
(0.4225927 0.001312578 -0.001309111)
(0.7353998 -0.003720973 0.003157653)
(1.253023 0.01226144 -0.01486029)
(1.04334 0.1006861 -0.07524421)
(1.062109 0.02265316 -0.09995531)
(1.398136 0.01046548 -0.01177295)
(2.148037 0.130058 -0.2373643)
(0.961553 -0.002965431 0.004028022)
(2.861489 0.0379262 -0.03918776)
(2.492655 0.2244246 -0.2395407)
(0.8594404 0.002168443 -0.002336866)
(1.692362 -0.00536392 0.005430663)
(2.863729 0.03910976 -0.03767378)
(2.151605 0.2294411 -0.148608)
(0.3855366 -0.0006620414 0.0006710851)
(0.8597057 0.002307979 -0.002269085)
(0.9629255 -0.004019194 0.003056263)
(1.401324 0.0117946 -0.009717156)
(1.064962 0.0987077 -0.03469358)
(1.062109 -0.02265316 -0.09995531)
(1.462275 0.003758055 -0.01169966)
(2.202134 0.04483715 -0.2355558)
(1.091392 -0.002033468 0.004265775)
(3.272927 0.02698362 -0.03766258)
(2.711394 0.1531144 -0.2466335)
(1.112655 0.002108506 -0.002540804)
(2.310466 -0.005250462 0.006210648)
(3.887062 0.04543185 -0.04645316)
(2.714563 0.2280121 -0.1791514)
(0.7929862 -0.001146321 0.001152543)
(1.948599 0.00370562 -0.004058089)
(2.313129 -0.006299198 0.005251124)
(3.28089 0.0368193 -0.02749744)
(2.209603 0.2257651 -0.07242697)
(0.406144 0.0004100888 -0.0004012712)
(0.7932417 -0.00117152 0.001080241)
(1.113994 0.002480771 -0.002452048)
(1.095157 -0.004297986 0.002008678)
(1.469244 0.0115619 -0.003584086)
(1.067462 0.09812823 0.005390878)
(0.0005764158 -0.001179009 -0.0005601254)
(1.041807 -0.0674891 -0.1015837)
(1.462275 -0.003758055 -0.01169966)
(2.202134 -0.04483715 -0.2355558)
(1.152141 -0.0006885857 0.004353108)
(3.453899 0.009947945 -0.03693095)
(2.792072 0.05373909 -0.2460695)
(1.257572 0.001365424 -0.002532714)
(2.681623 -0.003509926 0.006679914)
(4.473234 0.0356303 -0.04925265)
(2.972535 0.1576381 -0.1885959)
(1.033886 -0.001129928 0.001237934)
(2.634822 0.003689176 -0.004502115)
(3.223674 -0.006112669 0.00581474)
(4.481116 0.04657831 -0.03844066)
(2.800904 0.2244317 -0.09111786)
(0.8306755 0.0006527237 -0.0007367139)
(1.817352 -0.002150215 0.001863827)
(2.637497 0.00392332 -0.00461099)
(2.690768 -0.007059029 0.003244443)
(3.472728 0.03506445 -0.01203724)
(2.216909 0.2234687 0.007709933)
(0.3950766 -0.0001758966 0.0001864413)
(0.8309358 0.0007128478 -0.0007339212)
(1.035178 -0.001286097 0.0008638103)
(1.261313 0.002439315 -0.002080157)
(1.160108 -0.004460326 0.0003413912)
(1.47561 0.01132136 0.002853409)
(1.052157 0.09890293 0.04404871)
(0.0005921579 -0.00341159 -0.0005791627)
(0.0006054443 -0.001030591 -0.0005138266)
(0.0005813625 -0.001181619 -0.001088323)
(0.9845805 -0.1075053 -0.1039053)
(1.398136 -0.01046548 -0.01177295)
(2.148037 -0.130058 -0.2373643)
(1.152141 0.0006885857 0.004353108)
(3.453899 -0.009947945 -0.03693095)
(2.792072 -0.05373909 -0.2460695)
(1.324274 0.000460899 -0.002510974)
(2.855701 -0.001168711 0.006976165)
(4.737182 0.01329573 -0.0492774)
(3.067361 0.05578821 -0.1899585)
(1.173829 -0.0007482761 0.001247268)
(3.040779 0.002445565 -0.004431073)
(3.78203 -0.003797742 0.005946143)
(5.176622 0.03728188 -0.04240721)
(3.073821 0.1556354 -0.09872185)
(1.079333 0.0006254292 -0.0008231471)
(2.474036 -0.002256821 0.002120191)
(3.64131 0.003898451 -0.005254542)
(3.790926 -0.006735763 0.00313032)
(4.761126 0.04484618 -0.01836578)
(2.811503 0.2215877 0.005828768)
(0.8107207 -0.0003118302 0.0002960655)
(1.893558 0.001058809 -0.00139424)
(2.476627 -0.002616087 0.001475269)
(3.050063 0.003623998 -0.004142127)
(2.87663 -0.007815177 0.000324811)
(3.491179 0.03389735 0.005786006)
(2.177121 0.2228491 0.08406499)
(0.4010984 0.0001431658 -0.0001335963)
(0.8109787 -0.0003138984 0.0002510307)
(1.080645 0.0007666017 -0.0009373336)
(1.177444 -0.001326321 0.0001686754)
(1.332275 0.002361897 -0.001703256)
(1.16658 -0.004602315 -0.001705164)
(1.421686 0.01106137 0.007993012)
(1.005045 0.1006866 0.07788857)
(0.000619886 -0.006155847 -0.00062219)
(0.0006266335 -0.002983797 -0.0005291097)
(0.0005971488 -0.003424936 -0.001133867)
(0.0003942638 -0.0009763434 -0.0004753036)
(0.0006090126 -0.001033414 -0.0009979763)
(0.000578837 -0.001174773 -0.002974564)
(0.8373287 -0.1252923 -0.1035218)
(1.251881 -0.01573699 -0.01212391)
(2.004615 -0.1944871 -0.2329399)
(1.091392 0.002033468 0.004265775)
(3.272927 -0.02698362 -0.03766258)
(2.711394 -0.1531144 -0.2466335)
(1.324274 -0.000460899 -0.002510974)
(2.855701 0.001168711 0.006976165)
(4.737182 -0.01329573 -0.0492774)
(3.067361 -0.05578821 -0.1899585)
(1.238821 -0.0002584655 0.001251866)
(3.230003 0.0008393429 -0.004304544)
(4.046277 -0.001228798 0.006115091)
(5.491923 0.01407011 -0.04322122)
(3.173889 0.05520822 -0.1009413)
(1.222858 0.0003969257 -0.0008381832)
(2.867793 -0.001574234 0.0022362)
(4.249229 0.002588531 -0.005233277)
(4.474143 -0.004130669 0.002924084)
(5.51053 0.03613228 -0.02155192)
(3.086513 0.1534372 0.002840639)
(1.055564 -0.0003023356 0.0002974946)
(2.569375 0.001030709 -0.001635403)
(3.441954 -0.00286552 0.001675416)
(4.258351 0.003505306 -0.004880331)
(4.072564 -0.007585429 -8.896155e-06)
(4.788988 0.04321583 0.005948787)
(2.750928 0.2203453 0.0976394)
(0.8216871 0.0002252843 -0.0002660426)
(1.853885 -0.0006248855 0.0003414492)
(2.571998 0.001065228 -0.001936008)
(2.876791 -0.002937155 0.0001158549)
(3.251321 0.00318024 -0.003524047)
(2.894909 -0.008499092 -0.003017859)
(3.339675 0.03346347 0.02067964)
(2.061561 0.2172053 0.1436806)
(0.3977176 -3.42694e-05 4.381778e-05)
(0.8219464 0.0002470039 -0.0002898484)
(1.056864 -0.000345371 4.347125e-05)
(1.226522 0.0007496319 -0.001060371)
(1.246558 -0.00138141 -0.0007685318)
(1.338996 0.002248795 -0.00157112)
(1.115291 -0.004780271 -0.004214844)
(1.291607 0.01107887 0.01145666)
(0.8785377 0.101991 0.08792114)
(0.0006708781 -0.008066133 -0.0009597606)
(0.0006642647 -0.005360361 -0.0005641401)
(0.0006249164 -0.00607132 -0.001224366)
(0.0004073318 -0.002826864 -0.0004891402)
(0.0006302295 -0.002997239 -0.001035)
(0.0005944452 -0.003394127 -0.003041275)
(0.0005733318 -0.0009052097 -0.0004445243)
(0.0003960755 -0.0009794112 -0.0009233843)
(0.0006053968 -0.001028207 -0.002729706)
(0.000571212 -0.001149332 -0.00101684)
(0.4832799 -0.06700144 -0.06714459)
(0.9929088 -0.0155813 -0.01147679)
(1.624078 -0.2089983 -0.2131935)
(0.961553 0.002965431 0.004028022)
(2.861489 -0.0379262 -0.03918776)
(2.492655 -0.2244246 -0.2395407)
(1.257572 -0.001365424 -0.002532714)
(2.681623 0.003509926 0.006679914)
(4.473234 -0.0356303 -0.04925265)
(2.972535 -0.1576381 -0.1885959)
(1.238821 0.0002584655 0.001251866)
(3.230003 -0.000839343 -0.004304544)
(4.046277 0.001228798 0.006115091)
(5.491923 -0.01407011 -0.04322122)
(3.173889 -0.05520822 -0.1009413)
(1.28929 0.0001330984 -0.0008413006)
(3.05286 -0.0005566105 0.002293951)
(4.53573 0.0008906962 -0.005091831)
(4.799389 -0.001328926 0.002906934)
(5.850782 0.01371263 -0.02270064)
(3.187559 0.0544011 0.0007612639)
(1.197479 -0.0001993393 0.0002874502)
(2.972296 0.0006625701 -0.001691107)
(4.034137 -0.002065953 0.001792169)
(5.001091 0.002273659 -0.004955205)
(4.819728 -0.004748373 -0.0002793625)
(5.543913 0.03474255 0.004879726)
(3.016606 0.1519339 0.09891586)
(1.068742 0.0002217878 -0.000313874)
(2.520462 -0.0006556544 0.0003089215)
(3.56311 0.001003895 -0.002374848)
(4.042994 -0.003319633 4.029679e-05)
(4.562659 0.002921864 -0.00423666)
(4.10007 -0.008435678 -0.003268898)
(4.569988 0.04199009 0.02655266)
(2.567075 0.2148849 0.1679473)
(0.8155632 -6.773731e-05 4.724351e-05)
(1.875945 0.0003350207 -0.000623085)
(2.523061 -0.0008079132 -0.0001285612)
(2.981402 0.0009053972 -0.00233243)
(3.07356 -0.003272915 -0.00175185)
(3.270399 0.002670695 -0.003118266)
(2.74743 -0.009197535 -0.006855005)
(2.973209 0.03404285 0.02989087)
(1.727593 0.2012798 0.155334)
(0.3993937 6.162405e-05 -5.271486e-05)
(0.8158214 -6.414794e-05 1.0279e-05)
(1.070044 0.0002651459 -0.0004863953)
(1.201106 -0.000365781 -0.000370511)
(1.297118 0.0007037308 -0.00127802)
(1.252999 -0.001486423 -0.001963199)
(1.282348 0.002038045 -0.001852693)
(0.998944 -0.004874739 -0.006861429)
(1.06003 0.01059643 0.00784183)
(0.5746359 0.07160105 0.006133731)
(0.0007252105 -0.01609033 -0.001270117)
(0.0007333762 -0.007026972 -0.0008464094)
(0.0006744819 -0.007894523 -0.001847006)
(0.0004306151 -0.005072453 -0.000521088)
(0.0006678562 -0.0052925 -0.001108954)
(0.0006218641 -0.0059361 -0.003170166)
(0.0005861334 -0.002620547 -0.0004570781)
(0.0004091803 -0.002840611 -0.0009572067)
(0.0006263646 -0.002972057 -0.002781789)
(0.000586418 -0.003343093 -0.001053898)
(0.0005287809 -0.0008574383 -0.0004189588)
(0.0005777813 -0.0009082373 -0.0008635284)
(0.0003932549 -0.0009747443 -0.002525575)
(0.0005902932 -0.00100762 -0.0009324304)
(0.0005686435 -0.001150032 -0.01016293)
(0.5090504 -0.006262915 -0.00606683)
(0.83756 -0.1030669 -0.1268887)
(0.7351192 0.003075321 0.003748115)
(2.172515 -0.03150736 -0.03089659)
(2.005888 -0.2268013 -0.2048197)
(1.112655 -0.002108506 -0.002540804)
(2.310466 0.005250462 0.006210648)
(3.887062 -0.04543185 -0.04645316)
(2.714563 -0.2280121 -0.1791514)
(1.173829 0.0007482761 0.001247268)
(3.040779 -0.002445565 -0.004431073)
(3.78203 0.003797742 0.005946143)
(5.176622 -0.03728188 -0.04240721)
(3.073821 -0.1556354 -0.09872185)
(1.28929 -0.0001330985 -0.0008413006)
(3.05286 0.0005566106 0.002293951)
(4.53573 -0.0008906962 -0.005091831)
(4.799389 0.001328926 0.002906934)
(5.850782 -0.01371263 -0.02270064)
(3.187559 -0.0544011 0.0007612637)
(1.263326 -6.89426e-05 0.000283256)
(3.161122 0.0002227273 -0.001691339)
(4.315443 -0.0007425483 0.001865157)
(5.353806 0.0007734675 -0.004863947)
(5.176376 -0.001549951 -0.000389646)
(5.886558 0.01317595 0.004001626)
(3.115176 0.05373575 0.09704257)
(1.211655 0.0001428455 -0.0003295755)
(2.919362 -0.0004609912 0.0002787948)
(4.167919 0.000620851 -0.002509399)
(4.76899 -0.002452003 6.342838e-05)
(5.374645 0.001805345 -0.004371139)
(4.853262 -0.005402079 -0.003352866)
(5.282379 0.03343728 0.02750224)
(2.80349 0.1465365 0.1708988)
(1.061421 -6.149802e-05 2.757917e-05)
(2.547942 0.0003291005 -0.0007948689)
(3.501965 -0.0008978014 -0.0003158424)
(4.176877 0.0007714783 -0.002951305)
(4.341688 -0.003775509 -0.002200464)
(4.591398 0.002308465 -0.003633916)
(3.87582 -0.009249768 -0.006838817)
(4.05382 0.03881711 0.03646443)
(2.131271 0.1908296 0.1761066)
(0.8185825 9.452604e-05 -0.0001212805)
(1.8637 -0.0001765749 -8.809875e-05)
(2.550543 0.0002937201 -0.001119468)
(2.928377 -0.0009812023 -0.001006882)
(3.182019 0.0006345589 -0.002820258)
(3.091901 -0.003732281 -0.003949704)
(3.109485 0.001986233 -0.003090078)
(2.413035 -0.01006065 -0.01051741)
(2.35655 0.0251399 0.02213341)
(1.037518 0.1339569 0.03327916)
(0.3983167 5.178348e-06 3.449239e-06)
(0.8188406 0.0001044047 -0.0001518733)
(1.062717 -7.235268e-05 -0.0001806302)
(1.215289 0.0002513209 -0.0007180475)
(1.271074 -0.0004081955 -0.0009356534)
(1.303676 0.0006050424 -0.001704697)
(1.197558 -0.001700167 -0.003494931)
(1.152188 0.00176306 -0.002628794)
(0.7923427 -0.004861365 -0.0108375)
(0.6262727 0.001836843 -0.02161026)
(0.002940666 -0.01170806 -0.0104409)
(0.0008059756 -0.01382362 -0.00113271)
(0.0007257635 -0.01261058 -0.002421217)
(0.0004719655 -0.006648063 -0.0007848836)
(0.000734779 -0.006883217 -0.001629899)
(0.0006696433 -0.007675162 -0.003759)
(0.0006082539 -0.004700255 -0.0004860919)
(0.0004324913 -0.005010465 -0.001024855)
(0.0006634983 -0.005179443 -0.002881636)
(0.0006130353 -0.005774347 -0.001131171)
(0.0005391599 -0.002482279 -0.0004306261)
(0.0005906436 -0.00263389 -0.0008943373)
(0.0004062265 -0.002817717 -0.002571681)
(0.0006106653 -0.002933593 -0.0009621749)
(0.0005837871 -0.003310433 -0.01027094)
(0.000597847 -0.0008099393 -0.0003970264)
(0.0005331073 -0.0008604742 -0.0008139783)
(0.0005753658 -0.0009041265 -0.002361997)
(0.0003810173 -0.0009565186 -0.0008629993)
(0.0005927317 -0.001007877 -0.009334614)
(6.080945e-05 -0.0001252597 -0.003885061)
(0.3548619 0.002195579 0.002219323)
(0.9931463 -0.0116943 -0.01490835)
(0.9853203 -0.1032266 -0.1117213)
(0.8594404 -0.002168443 -0.002336866)
(1.692362 0.00536392 0.005430663)
(2.863729 -0.03910976 -0.03767378)
(2.151605 -0.2294411 -0.148608)
(1.033886 0.001129928 0.001237934)
(2.634822 -0.003689176 -0.004502116)
(3.223674 0.006112669 0.00581474)
(4.481116 -0.04657831 -0.03844066)
(2.800904 -0.2244317 -0.09111786)
(1.222858 -0.0003969256 -0.0008381833)
(2.867793 0.001574234 0.0022362)
(4.249229 -0.002588531 -0.005233277)
(4.474143 0.004130669 0.002924085)
(5.51053 -0.03613228 -0.02155192)
(3.086513 -0.1534372 0.002840639)
(1.263326 6.894256e-05 0.000283256)
(3.161122 -0.0002227274 -0.001691339)
(4.315443 0.0007425483 0.001865157)
(5.353806 -0.0007734677 -0.004863947)
(5.176376 0.001549951 -0.0003896459)
(5.886558 -0.01317595 0.004001626)
(3.115176 -0.05373575 0.09704257)
(1.277894 4.810389e-05 -0.0003351614)
(3.106714 -0.0001640959 0.0002673643)
(4.454501 0.0002034305 -0.002529986)
(5.116454 -0.0008919694 0.0001134521)
(5.761729 0.0005980163 -0.004336903)
(5.212771 -0.001792434 -0.003429453)
(5.60493 0.01259729 0.0270194)
(2.892619 0.05149405 0.1687473)
(1.203816 -4.006291e-05 1.456552e-05)
(2.949374 0.000210503 -0.0008681247)
(4.101405 -0.000659808 -0.0004208455)
(4.917422 0.0004207483 -0.003170002)
(5.136878 -0.002829049 -0.002302846)
(5.409764 0.00134041 -0.003706687)
(4.577332 -0.005979664 -0.006620938)
(4.667555 0.03041556 0.03827379)
(2.313797 0.1268745 0.1775493)
(1.065019 9.654455e-05 -0.0001547321)
(2.532775 -0.0001862076 -0.0001884605)
(3.536697 0.0002631164 -0.001478809)
(4.110276 -0.001140664 -0.001418826)
(4.480944 0.0004108048 -0.003562649)
(4.369413 -0.004318779 -0.004678429)
(4.347384 0.001637217 -0.003148168)
(3.371623 -0.01010185 -0.01022086)
(3.140461 0.0295242 0.02936114)
(1.237794 0.1181585 0.04284433)
(0.8166218 -1.013613e-06 -2.077137e-05)
(1.869691 0.0001146798 -0.0003737682)
(2.535362 -0.0002761569 -0.0005446342)
(2.9584 0.0001688489 -0.001682251)
(3.127413 -0.00122667 -0.002142743)
(3.200672 0.0002048972 -0.00349844)
(2.933845 -0.004437384 -0.006329858)
(2.743779 0.0009665983 -0.003425582)
(1.845244 -0.01050753 -0.01373639)
(1.275872 0.01184557 -0.01171743)
(0.004555227 0.0006759396 -0.007221938)
(0.3987542 3.435798e-05 -2.675918e-05)
(0.8168793 5.061536e-06 -5.246571e-05)
(1.066312 0.0001109161 -0.00033424)
(1.20743 -8.739424e-05 -0.0004912268)
(1.285653 0.0002122608 -0.00105275)
(1.277546 -0.0005023326 -0.001710229)
(1.247036 0.0003962722 -0.002462646)
(1.07143 -0.001971944 -0.005298658)
(0.9218736 0.001629835 -0.00545051)
(0.4457785 -0.008014318 -0.02516206)
(0.00325889 -0.01034766 -0.008874516)
(0.0008590573 -0.009681672 -0.01429443)
(0.0005173321 -0.01303779 -0.001056674)
(0.0008035635 -0.01089333 -0.002120992)
(0.0007193945 -0.01130491 -0.004321957)
(0.0006471462 -0.006156435 -0.0007294801)
(0.0004727431 -0.006514659 -0.001511599)
(0.0007279877 -0.006696864 -0.003363469)
(0.0006584107 -0.007422666 -0.001538622)
(0.0005568332 -0.004450126 -0.0004576805)
(0.0006128201 -0.004643889 -0.0009558464)
(0.0004292638 -0.004905478 -0.002659911)
(0.0006466385 -0.005051046 -0.001024697)
(0.0006103334 -0.005675771 -0.01047063)
(0.0006074192 -0.002344655 -0.0004079061)
(0.0005435409 -0.002495382 -0.0008427223)
(0.0005881165 -0.002613255 -0.002403323)
(0.0003936765 -0.002784595 -0.0008900608)
(0.0006130657 -0.002902162 -0.00941053)
(6.231991e-05 -0.0003592139 -0.003919745)
(0.0005936738 -0.0007718137 -0.0003777655)
(0.0006032742 -0.0008129168 -0.0007713735)
(0.0005310907 -0.0008567228 -0.002226456)
(0.0005652686 -0.0008877195 -0.0008070561)
(0.0003841851 -0.0009560152 -0.008637651)
(6.170486e-05 -0.0001102652 -0.003568448)
(5.499388e-05 -0.0001128696 -0.004603058)
(0.4225927 -0.001312578 -0.001309111)
(0.7353998 0.003720973 0.003157653)
(1.253023 -0.01226144 -0.01486029)
(1.04334 -0.1006861 -0.07524421)
(0.7929862 0.001146321 0.001152543)
(1.948599 -0.00370562 -0.004058089)
(2.313129 0.006299198 0.005251124)
(3.28089 -0.0368193 -0.02749744)
(2.209603 -0.2257651 -0.07242697)
(1.079333 -0.0006254291 -0.0008231471)
(2.474036 0.002256821 0.002120191)
(3.64131 -0.003898451 -0.005254541)
(3.790926 0.006735762 0.00313032)
(4.761126 -0.04484618 -0.01836578)
(2.811503 -0.2215877 0.005828768)
(1.197479 0.0001993393 0.0002874501)
(2.972296 -0.00066257 -0.001691107)
(4.034137 0.002065953 0.001792169)
(5.001091 -0.002273659 -0.004955205)
(4.819728 0.004748373 -0.0002793624)
(5.543913 -0.03474255 0.004879726)
(3.016606 -0.1519339 0.09891586)
(1.277894 -4.810385e-05 -0.0003351613)
(3.106714 0.0001640959 0.0002673643)
(4.454501 -0.0002034306 -0.002529986)
(5.116454 0.0008919694 0.000113452)
(5.761729 -0.0005980163 -0.004336903)
(5.212771 0.001792434 -0.003429453)
(5.60493 -0.01259729 0.0270194)
(2.892619 -0.05149405 0.1687473)
(1.269863 -1.403293e-05 9.264295e-06)
(3.137742 7.020472e-05 -0.0008921933)
(4.386017 -0.0002399592 -0.0004590519)
(5.271067 0.0001257859 -0.00321821)
(5.518911 -0.001036028 -0.002287273)
(5.79997 0.0004278563 -0.003677446)
(4.911261 -0.002002406 -0.006600893)
(4.943345 0.01132967 0.03803799)
(2.382323 0.04396832 0.1753226)
(1.207663 6.303294e-05 -0.0001687715)
(2.9329 -0.0001344868 -0.0002473415)
(4.139586 0.0001494037 -0.001644681)
(4.844859 -0.0008658911 -0.001612594)
(5.29157 0.0001273704 -0.003821453)
(5.170869 -0.003235732 -0.004820507)
(5.109481 0.0009097449 -0.002979473)
(3.960558 -0.006470736 -0.009782721)
(3.579905 0.02274929 0.03124479)
(1.324248 0.07519209 0.04343451)
(1.062668 2.472456e-06 -4.397009e-05)
(2.540157 0.0001123452 -0.0005117395)
(3.517622 -0.000319256 -0.0008106241)
(4.148467 8.818518e-05 -0.002227889)
(4.412237 -0.001465172 -0.00276926)
(4.509119 -9.557114e-05 -0.00421191)
(4.128812 -0.005006196 -0.007006653)
(3.798468 0.0008307095 -0.002638241)
(2.531343 -0.01000148 -0.0119781)
(1.640774 0.0141814 -0.0040473)
(0.005248275 0.0005487628 -0.005085672)
(0.817343 5.11944e-05 -7.286488e-05)
(1.865746 -5.245548e-05 -0.0001916767)
(2.542737 5.931593e-05 -0.0008250979)
(2.941875 -0.0004049328 -0.001231853)
(3.158454 -5.370869e-05 -0.002371747)
(3.145838 -0.001634663 -0.003498133)
(3.039495 -0.0004995865 -0.004391427)
(2.577958 -0.005402827 -0.008509605)
(2.115286 -0.0002732694 -0.005057335)
(0.9588116 -0.008304132 -0.01899086)
(0.005534346 -2.563632e-05 -0.006179711)
(0.0008746523 -0.001872192 -0.01028682)
(0.3982465 1.949315e-05 -1.117081e-05)
(0.8175996 5.663679e-05 -0.0001063829)
(1.063957 2.666606e-06 -0.0002262689)
(1.211268 9.79931e-05 -0.0005818106)
(1.277578 -0.0001246836 -0.0009198254)
(1.292148 0.0001227398 -0.001577394)
(1.221335 -0.0007020705 -0.002793145)
(1.117814 0.0001237201 -0.003558648)
(0.8516136 -0.001983904 -0.008287294)
(0.5264806 -0.003124667 -0.02171065)
(0.002227785 -0.009800832 -0.008326764)
(0.0009759472 -0.008421769 -0.01211373)
(0.0008208557 -0.008850573 -0.01002342)
(0.0006903696 -0.0120679 -0.0009772125)
(0.0005155327 -0.0102857 -0.001971482)
(0.0007947307 -0.009785639 -0.003823813)
(0.0007055761 -0.01009552 -0.001918529)
(0.0005879071 -0.005828343 -0.0006869915)
(0.0006507522 -0.00603473 -0.001404791)
(0.0004682091 -0.006340757 -0.003104171)
(0.000707793 -0.006494989 -0.001363737)
(0.000654943 -0.007275609 -0.01085754)
(0.0006233118 -0.004202213 -0.0004331677)
(0.0005612655 -0.00439774 -0.0009001537)
(0.0006100619 -0.004547656 -0.002482123)
(0.0004161193 -0.004789897 -0.0009470237)
(0.0006490036 -0.004960962 -0.009544842)
(6.509397e-05 -0.0006161769 -0.003989703)
(0.0006020984 -0.002234291 -0.0003880155)
(0.0006129048 -0.002357372 -0.0007982445)
(0.0005414379 -0.002476282 -0.002264487)
(0.0005777907 -0.002584208 -0.0008316198)
(0.000396803 -0.00275326 -0.008699052)
(6.374147e-05 -0.0003164034 -0.003591622)
(5.633839e-05 -0.0003266821 -0.00464484)
(0.0006217609 -0.0007359071 -0.0003605867)
(0.0005992751 -0.0007747464 -0.0007340062)
(0.0006014946 -0.0008094928 -0.002109934)
(0.0005225966 -0.0008416356 -0.0007608606)
(0.0005651759 -0.0008871452 -0.008080004)
(3.931833e-05 -0.0001048527 -0.003301981)
(5.488691e-05 -9.953812e-05 -0.004227863)
(5.390436e-05 -0.0001126668 -0.004540606)
(0.3855366 0.0006620415 0.0006710851)
(0.8597057 -0.002307979 -0.002269085)
(0.9629255 0.004019194 0.003056263)
(1.401324 -0.0117946 -0.009717156)
(1.064962 -0.0987077 -0.03469358)
(0.8306755 -0.0006527238 -0.000736714)
(1.817352 0.002150215 0.001863827)
(2.637497 -0.00392332 -0.004610989)
(2.690768 0.007059029 0.003244443)
(3.472728 -0.03506445 -0.01203724)
(2.216909 -0.2234687 0.007709933)
(1.055564 0.0003023356 0.0002974946)
(2.569375 -0.001030709 -0.001635403)
(3.441954 0.00286552 0.001675416)
(4.258351 -0.003505306 -0.004880331)
(4.072564 0.007585429 -8.896101e-06)
(4.788988 -0.04321583 0.005948787)
(2.750928 -0.2203453 0.0976394)
(1.211655 -0.0001428454 -0.0003295756)
(2.919362 0.0004609912 0.0002787948)
(4.167919 -0.000620851 -0.002509399)
(4.76899 0.002452003 6.342837e-05)
(5.374645 -0.001805345 -0.004371139)
(4.853262 0.005402079 -0.003352866)
(5.282379 -0.03343728 0.02750224)
(2.80349 -0.1465365 0.1708988)
(1.269863 1.403293e-05 9.264199e-06)
(3.137742 -7.020459e-05 -0.0008921933)
(4.386017 0.0002399591 -0.0004590518)
(5.271067 -0.0001257858 -0.00321821)
(5.518911 0.001036028 -0.002287273)
(5.79997 -0.0004278563 -0.003677446)
(4.911261 0.002002406 -0.006600893)
(4.943345 -0.01132967 0.03803799)
(2.382323 -0.04396832 0.1753226)
(1.273804 2.122361e-05 -0.0001741649)
(3.120774 -4.888369e-05 -0.0002711561)
(4.425602 4.568599e-05 -0.001703264)
(5.196323 -0.0003196913 -0.001676994)
(5.680238 1.485489e-05 -0.003877061)
(5.555967 -0.001184068 -0.004797784)
(5.471618 0.0002826843 -0.002873841)
(4.239293 -0.002167136 -0.009694433)
(3.776111 0.008390515 0.03114085)
(1.356223 0.02549872 0.04310057)
(1.205141 1.250048e-06 -5.626479e-05)
(2.940897 6.909359e-05 -0.0005803785)
(4.118743 -0.0002449096 -0.0009547182)
(4.886973 1.503483e-06 -0.002475271)
(5.216694 -0.001129698 -0.003013284)
(5.326103 -0.0002502351 -0.004391256)
(4.873821 -0.003670257 -0.006980098)
(4.438952 0.0005029192 -0.002055218)
(2.944718 -0.006243265 -0.01119298)
(1.838396 0.01069426 -0.002585548)
(0.005546742 0.0003341521 -0.004453014)
(1.063463 5.404687e-05 -9.985968e-05)
(2.535252 -5.943769e-05 -0.0003003037)
(3.526819 3.432754e-05 -0.001132836)
(4.127576 -0.0004975043 -0.001690247)
(4.451828 -0.0002030368 -0.003048466)
(4.4401 -0.001945691 -0.004205928)
(4.264171 -0.0008023253 -0.004779625)
(3.592413 -0.005738144 -0.008555092)
(2.875136 7.209614e-05 -0.002554725)
(1.268599 -0.00680805 -0.0118904)
(0.006810361 3.836424e-05 -0.004351171)
(0.0008835099 -0.0009578893 -0.007561933)
(0.816462 3.010612e-05 -4.492548e-05)
(1.867003 4.300145e-05 -0.000284162)
(2.537823 -0.0001274593 -0.0006137071)
(2.949849 -5.262705e-05 -0.001398583)
(3.141376 -0.0006160295 -0.002094671)
(3.176941 -0.0004416256 -0.003235778)
(2.985726 -0.002317575 -0.005031888)
(2.675693 -0.001535619 -0.00535246)
(1.974756 -0.006070361 -0.01029804)
(1.112568 -0.001505119 -0.01497834)
(0.004040239 -0.0001260414 -0.005786049)
(0.000997515 -0.001804178 -0.00876729)
(0.000832383 -0.002508153 -0.008339862)
(0.3982501 2.257346e-05 -1.503572e-05)
(0.8167183 3.075625e-05 -7.864772e-05)
(1.064746 5.906584e-05 -0.0002765929)
(1.208734 -1.084541e-05 -0.0004915469)
(1.281501 6.252667e-05 -0.000929832)
(1.284035 -0.0002103846 -0.001533954)
(1.235601 -6.900237e-05 -0.002401186)
(1.093442 -0.0009606567 -0.004160945)
(0.8912595 3.390653e-05 -0.006159698)
(0.4816572 -0.00538339 -0.02146539)
(0.002677652 -0.009047569 -0.007704194)
(0.0006161965 -0.007957167 -0.01135709)
(0.0009295309 -0.007717053 -0.00860694)
(0.0007894753 -0.008064085 -0.005635605)
(0.0006224682 -0.01141042 -0.000921692)
(0.0006912224 -0.00952199 -0.001826039)
(0.0005097204 -0.009245978 -0.003526627)
(0.0007710897 -0.008779739 -0.001680343)
(0.000701566 -0.009555407 -0.01130688)
(0.0006511653 -0.005502272 -0.000649108)
(0.0005915766 -0.005714298 -0.001323128)
(0.0006468309 -0.005875398 -0.002889015)
(0.0004533616 -0.006157857 -0.001262845)
(0.000709226 -0.006360465 -0.009813771)
(6.978337e-05 -0.0007890365 -0.004098939)
(0.0006158269 -0.004003312 -0.0004118628)
(0.0006288497 -0.004153396 -0.0008519142)
(0.0005589846 -0.004307513 -0.002336971)
(0.0005993059 -0.00444338 -0.0008833243)
(0.0004191643 -0.004702268 -0.00880518)
(6.748727e-05 -0.0005411934 -0.003637509)
(5.881515e-05 -0.0005603494 -0.004727902)
(0.0006295757 -0.002130304 -0.000370273)
(0.0006077553 -0.00224668 -0.0007593814)
(0.0006110508 -0.002339665 -0.002145145)
(0.0005327723 -0.002450021 -0.0007837319)
(0.0005776086 -0.002554578 -0.008132225)
(4.059267e-05 -0.0003009823 -0.003319994)
(5.669613e-05 -0.0002884449 -0.004255946)
(5.521538e-05 -0.0003227231 -0.004581357)
(0.000626928 -0.0007045957 -0.0003450773)
(0.0006278742 -0.0007387742 -0.000700645)
(0.0005977078 -0.0007715706 -0.002007702)
(0.0005940775 -0.0007955109 -0.0007210616)
(0.000522076 -0.000840907 -0.007617189)
(5.995669e-05 -9.742935e-05 -0.003088816)
(3.464338e-05 -9.480227e-05 -0.003912094)
(5.332729e-05 -9.956015e-05 -0.004170574)
(5.31453e-05 -0.000109721 -0.004095093)
(0.406144 -0.0004100888 -0.0004012713)
(0.7932417 0.00117152 0.001080241)
(1.113994 -0.002480771 -0.002452048)
(1.095157 0.004297986 0.002008678)
(1.469244 -0.0115619 -0.003584086)
(1.067462 -0.09812823 0.005390878)
(0.8107207 0.0003118303 0.0002960656)
(1.893558 -0.001058809 -0.00139424)
(2.476627 0.002616087 0.001475269)
(3.050063 -0.003623998 -0.004142127)
(2.87663 0.007815177 0.0003248109)
(3.491179 -0.03389735 0.005786006)
(2.177121 -0.2228491 0.08406499)
(1.068742 -0.0002217878 -0.000313874)
(2.520462 0.0006556545 0.0003089216)
(3.56311 -0.001003895 -0.002374848)
(4.042994 0.003319633 4.029684e-05)
(4.562659 -0.002921864 -0.00423666)
(4.10007 0.008435678 -0.003268898)
(4.569988 -0.04199009 0.02655266)
(2.567075 -0.2148849 0.1679473)
(1.203816 4.006295e-05 1.456553e-05)
(2.949374 -0.0002105028 -0.0008681247)
(4.101405 0.000659808 -0.0004208455)
(4.917422 -0.0004207483 -0.003170002)
(5.136878 0.002829049 -0.002302846)
(5.409764 -0.00134041 -0.003706686)
(4.577332 0.005979664 -0.006620938)
(4.667555 -0.03041556 0.03827379)
(2.313797 -0.1268745 0.1775493)
(1.273804 -2.122356e-05 -0.000174165)
(3.120774 4.888376e-05 -0.0002711562)
(4.425602 -4.568589e-05 -0.001703264)
(5.196323 0.0003196912 -0.001676994)
(5.680238 -1.485489e-05 -0.003877061)
(5.555967 0.001184068 -0.004797784)
(5.471618 -0.0002826843 -0.002873841)
(4.239293 0.002167136 -0.009694433)
(3.776111 -0.008390515 0.03114085)
(1.356223 -0.02549872 0.04310057)
(1.271218 4.079171e-08 -6.115649e-05)
(3.129006 2.216341e-05 -0.0006063295)
(4.404083 -9.123405e-05 -0.001011795)
(5.240059 -1.130595e-05 -0.002560142)
(5.60311 -0.0004196279 -0.003078521)
(5.717893 -0.0001220632 -0.004397169)
(5.230538 -0.001328255 -0.006863948)
(4.74115 0.0001647074 -0.001812495)
(3.138721 -0.002079427 -0.01101289)
(1.9255 0.003857797 -0.002270424)
(0.005656566 0.0001097544 -0.004177451)
(1.205941 3.550047e-05 -0.0001123465)
(2.935559 -4.794874e-05 -0.000359943)
(4.12875 1.788786e-06 -0.001288361)
(4.864089 -0.0003948909 -0.001913387)
(5.260416 -0.0002329431 -0.003317957)
(5.250882 -0.00148803 -0.004385456)
(5.024006 -0.0007117305 -0.00468873)
(4.216399 -0.004007797 -0.008120212)
(3.326633 0.0002441916 -0.001480621)
(1.450986 -0.003899965 -0.01025828)
(0.007501772 3.76679e-05 -0.003787613)
(0.0008848222 -0.0002926238 -0.006639492)
(1.062447 3.493476e-05 -6.891658e-05)
(2.536626 3.988712e-05 -0.000402654)
(3.520619 -0.0001608568 -0.0008784367)
(4.137562 -0.0001204199 -0.001881158)
(4.430187 -0.0007732691 -0.002708006)
(4.479789 -0.0006597068 -0.003898085)
(4.196567 -0.002637598 -0.005526713)
(3.716888 -0.001665429 -0.004971372)
(2.702068 -0.005860837 -0.008582995)
(1.460949 -0.0001969675 -0.008182763)
(0.005133625 -5.094229e-05 -0.004056387)
(0.001011514 -0.0009438729 -0.006445067)
(0.000840406 -0.00133763 -0.007167264)
(0.816406 3.05216e-05 -4.972986e-05)
(1.865343 9.703571e-06 -0.000235037)
(2.539184 -1.462434e-05 -0.0006988547)
(2.944479 -0.0002403589 -0.00120994)
(3.149557 -0.0002521323 -0.00210394)
(3.159761 -0.000987012 -0.00313822)
(3.015964 -0.001101627 -0.004287916)
(2.625239 -0.003293855 -0.006512207)
(2.055795 -0.002550491 -0.006806057)
(1.029101 -0.005225092 -0.01572671)
(0.004750292 -8.181431e-05 -0.005342923)
(0.0006392765 -0.00173068 -0.008204721)
(0.0009449694 -0.002336339 -0.007181626)
(0.0008047782 -0.00302321 -0.004536828)
(0.3980718 1.990274e-05 -1.271457e-05)
(0.8166617 3.555353e-05 -7.895173e-05)
(1.063728 3.10216e-05 -0.0002409776)
(1.209516 4.698751e-05 -0.0005172263)
(1.27889 -4.521436e-05 -0.0008614218)
(1.287951 -1.959554e-05 -0.001452797)
(1.227618 -0.0003938064 -0.002432262)
(1.106842 -0.000319264 -0.003522907)
(0.8701598 -0.001011215 -0.006760277)