/*--------------------------------*- C++ -*----------------------------------*\
| =========                 |                                                 |
| \\      /  F ield         | OpenFOAM: The Open Source CFD Toolbox           |
|  \\    /   O peration     | Version:  2306                                  |
|   \\  /    A nd           | Website:  www.openfoam.com                      |
|    \\/     M anipulation  |                                                 |
\*---------------------------------------------------------------------------*/
FoamFile
{
    version     2.0;
    format      ascii;
    arch        "LSB;label=32;scalar=64";
    class       volScalarField;
    location    "1.5/air";
    object      X.N2;
}
// * * * * * * * * * * * * * * * * * * * * * * * * * * * * * * * * * * * * * //

dimensions      [0 0 0 0 0 0 0];

internalField   nonuniform List<scalar> 
16000
(
0.7926546
0.7926352
0.7937418
0.7926693
0.7926111
0.7936753
0.7926409
0.7952113
0.7938315
0.7927249
0.7925917
0.7935901
0.792608
0.7951039
0.7937392
0.7926826
0.7970408
0.7953474
0.7940691
0.7928569
0.7925813
0.7935187
0.792583
0.7949559
0.7936288
0.7926347
0.7969319
0.7952083
0.7939367
0.7927965
0.7988977
0.7971845
0.7956857
0.7945227
0.7931185
0.7925813
0.7934792
0.79257
0.794824
0.7935404
0.7926004
0.7967823
0.7950237
0.7937822
0.792728
0.7987906
0.7970437
0.7955097
0.7943439
0.7930348
0.8007062
0.7990394
0.7975407
0.7962842
0.7952638
0.7935889
0.8298572
0.7925917
0.7934792
0.79257
0.794748
0.7934927
0.7925835
0.7966488
0.794863
0.7936613
0.7926794
0.7986436
0.7968583
0.7952773
0.7941268
0.7929367
0.8006036
0.7989012
0.7973628
0.7960722
0.7950376
0.7934766
0.8024416
0.8008428
0.7993896
0.7981686
0.7971969
0.7963656
0.7943826
0.8285594
0.8312659
0.8300626
0.7926111
0.7935187
0.792583
0.794748
0.7934927
0.7925835
0.7965718
0.7947716
0.7935973
0.7926547
0.7985128
0.796697
0.7950764
0.7939553
0.7928628
0.8004628
0.7987198
0.7971317
0.7957961
0.7947561
0.7933361
0.8023439
0.8007107
0.7992167
0.7979582
0.7969513
0.7960917
0.7942315
0.8040977
0.8025716
0.8011802
0.8000042
0.7991142
0.7984709
0.7979017
0.7956643
0.8259372
0.8301029
0.8287696
0.8315006
0.8314539
0.8304727
0.7926352
0.7935901
0.792608
0.794824
0.7935404
0.7926004
0.7965718
0.7947716
0.7935973
0.7926547
0.7984373
0.796605
0.7949627
0.7938655
0.7928241
0.8003375
0.7985622
0.7969326
0.7955567
0.7945248
0.7932232
0.8022099
0.8005372
0.7989926
0.7976843
0.7966307
0.7957443
0.7940301
0.8040048
0.8024459
0.8010153
0.7998023
0.7988785
0.7981941
0.7975735
0.7954399
0.8056777
0.8042214
0.8028928
0.801771
0.8009235
0.8004098
0.800146
0.7999482
0.7976902
0.8218925
0.8277581
0.8261641
0.8304197
0.8302945
0.8291881
0.8314865
0.831674
0.8318293
0.8310861
0.7926546
0.7936753
0.7926409
0.7949559
0.7936288
0.7926347
0.7966488
0.794863
0.7936613
0.7926794
0.7984373
0.796605
0.7949627
0.7938655
0.7928241
0.8002651
0.7984724
0.7968198
0.7954195
0.7943984
0.7931616
0.8020906
0.8003865
0.7987999
0.7974482
0.7963546
0.7954532
0.7938603
0.8038776
0.8022808
0.8008018
0.7995401
0.7985689
0.7978297
0.7971514
0.7951358
0.8055894
0.8041019
0.802736
0.8015795
0.8007007
0.8001538
0.799834
0.7995372
0.7972719
0.8071871
0.8057954
0.8045268
0.8034547
0.8026524
0.8021729
0.8020758
0.8022589
0.8025984
0.8009302
0.8160436
0.8241575
0.8221828
0.8282412
0.827963
0.8266104
0.8304763
0.8305962
0.8306762
0.8298118
0.8314599
0.8316482
0.8320203
0.8323911
0.8319014
0.7937418
0.7926693
0.7951039
0.7937392
0.7926826
0.7967823
0.7950237
0.7937822
0.792728
0.7985128
0.796697
0.7950764
0.7939553
0.7928628
0.8002651
0.7984724
0.7968198
0.7954195
0.7943984
0.7931616
0.8020218
0.8003006
0.7986909
0.7973142
0.7961983
0.7952913
0.7937654
0.8037643
0.8021376
0.8006183
0.7993145
0.7983005
0.7975148
0.7967946
0.7948795
0.8054683
0.8039452
0.8025334
0.8013311
0.8004088
0.7998135
0.7994203
0.7990115
0.7967672
0.8071029
0.8056817
0.804378
0.803273
0.8024423
0.8019343
0.8017955
0.8018839
0.8020032
0.7999215
0.808632
0.8072993
0.8060859
0.8050612
0.8042921
0.8038463
0.8037664
0.80413
0.8048648
0.8060259
0.8065064
0.8189927
0.8166429
0.8248982
0.8244145
0.8227233
0.8284409
0.8284296
0.8283665
0.8272654
0.830509
0.8306408
0.8309479
0.8312455
0.8306374
0.83154
0.8316119
0.8319711
0.8325385
0.8331381
0.8330787
0.7952113
0.7938315
0.7927249
0.7969319
0.7952083
0.7939367
0.7927965
0.7986436
0.7968583
0.7952773
0.7941268
0.7929367
0.8003375
0.7985622
0.7969326
0.7955567
0.7945248
0.7932232
0.8020218
0.8003006
0.7986909
0.7973142
0.7961983
0.7952913
0.7937654
0.803699
0.802056
0.8005144
0.7991868
0.798148
0.7973365
0.7965952
0.7947369
0.8053605
0.8038092
0.8023593
0.8011175
0.8001563
0.7995167
0.7990622
0.7985717
0.7963719
0.8069875
0.8055326
0.8041856
0.8030377
0.8021675
0.8016181
0.8014195
0.8013933
0.8012992
0.7990205
0.8085515
0.8071909
0.8059442
0.8048888
0.8040932
0.8036226
0.8035073
0.8037958
0.8043266
0.8049143
0.8035614
0.8100178
0.8087391
0.8075764
0.8065943
0.8058576
0.8054252
0.8053636
0.805717
0.8066126
0.8081067
0.8107026
0.8092852
0.8201076
0.8195084
0.8175359
0.8253186
0.825134
0.8248947
0.8234722
0.8285934
0.8286163
0.8288007
0.8289597
0.8281191
0.8306413
0.8306636
0.8309686
0.8314725
0.8319997
0.8318254
0.8317056
0.8316838
0.8319155
0.8324545
0.8332277
0.8342174
0.8333215
0.7970408
0.7953474
0.7940691
0.7928569
0.7987906
0.7970437
0.7955097
0.7943439
0.7930348
0.8004628
0.7987198
0.7971317
0.7957961
0.7947561
0.7933361
0.8020906
0.8003865
0.7987999
0.7974482
0.7963546
0.7954532
0.7938603
0.803699
0.802056
0.8005144
0.7991868
0.798148
0.7973365
0.7965952
0.7947369
0.8052984
0.8037317
0.8022608
0.8009966
0.800013
0.7993475
0.7988596
0.7983276
0.7961612
0.8068848
0.8054032
0.8040203
0.8028355
0.8019299
0.8013428
0.8010909
0.8009752
0.8007393
0.7984105
0.8084412
0.8070487
0.8057612
0.8046654
0.8038333
0.8033264
0.8031609
0.8033543
0.8036827
0.8038754
0.8020079
0.8099407
0.8086355
0.8074412
0.8064301
0.8056687
0.8052136
0.8051214
0.805408
0.8061256
0.8070871
0.8079568
0.8058182
0.8113497
0.8101204
0.8090039
0.8080613
0.8073521
0.8069352
0.8068643
0.8072148
0.8080617
0.8096554
0.8124298
0.8130492
0.8114455
0.820847
0.8205817
0.8202822
0.8185745
0.8256556
0.8255378
0.8255747
0.8255632
0.8243981
0.8288308
0.8287581
0.8289617
0.8293462
0.8297344
0.829331
0.8308522
0.8307874
0.8309717
0.8314576
0.8321677
0.8330859
0.8320703
0.8319537
0.831842
0.8319708
0.8323699
0.8330975
0.8342237
0.8344399
0.8335662
0.7988977
0.7971845
0.7956857
0.7945227
0.7931185
0.8006036
0.7989012
0.7973628
0.7960722
0.7950376
0.7934766
0.8022099
0.8005372
0.7989926
0.7976843
0.7966307
0.7957443
0.7940301
0.8037643
0.8021376
0.8006183
0.7993145
0.7983005
0.7975148
0.7967946
0.7948795
0.8052984
0.8037317
0.8022608
0.8009966
0.800013
0.7993475
0.7988596
0.7983276
0.7961612
0.8068256
0.8053295
0.8039268
0.8027212
0.8017951
0.8011862
0.8009036
0.8007412
0.8004372
0.7981074
0.8083431
0.8069254
0.805604
0.8044736
0.803609
0.8030687
0.802859
0.8029752
0.8031647
0.8031375
0.8011133
0.8098351
0.8084997
0.8072666
0.8062175
0.8054221
0.8049339
0.8047976
0.8050012
0.8055407
0.8061328
0.8063947
0.8039286
0.8112758
0.8100212
0.8088747
0.8079045
0.8071721
0.8067341
0.8066351
0.8069254
0.807608
0.8087137
0.8098875
0.8098651
0.8078173
0.812632
0.8114482
0.810374
0.8094673
0.8087843
0.8083779
0.8083037
0.8086194
0.809434
0.8109265
0.8136851
0.8145952
0.8148857
0.8132127
0.8214495
0.8212877
0.821292
0.8211895
0.8196878
0.8260545
0.8258613
0.8259475
0.826188
0.8263935
0.8256552
0.8291332
0.8289863
0.8290825
0.8294696
0.8300588
0.8308362
0.8295807
0.8311409
0.8309909
0.8310786
0.8314312
0.8321057
0.833169
0.8333098
0.8323173
0.8322616
0.8320837
0.8321146
0.8324005
0.8329745
0.8340266
0.834429
0.8346643
0.833813
0.8007062
0.7990394
0.7975407
0.7962842
0.7952638
0.7935889
0.8023439
0.8007107
0.7992167
0.7979582
0.7969513
0.7960917
0.7942315
0.8038776
0.8022808
0.8008018
0.7995401
0.7985689
0.7978297
0.7971514
0.7951358
0.8053605
0.8038092
0.8023593
0.8011175
0.8001563
0.7995167
0.7990622
0.7985717
0.7963719
0.8068256
0.8053295
0.8039268
0.8027212
0.8017951
0.8011862
0.8009036
0.8007412
0.8004372
0.7981074
0.8082865
0.8068552
0.8055151
0.8043651
0.8034818
0.8029221
0.8026873
0.8027617
0.8028837
0.8027599
0.8006961
0.8097412
0.8083818
0.8071168
0.806035
0.8052093
0.8046909
0.8045155
0.8046529
0.8050688
0.8054523
0.8054432
0.8028668
0.8111744
0.8098911
0.8087077
0.8077017
0.8069372
0.8064684
0.8063291
0.8065445
0.8070652
0.8078341
0.8084414
0.8080307
0.8057088
0.8125609
0.8113529
0.8102502
0.8093173
0.8086123
0.808186
0.8080856
0.808345
0.8090072
0.8100433
0.8113173
0.8116424
0.8115647
0.809568
0.8138682
0.8127266
0.8116914
0.8108179
0.8101585
0.8097634
0.8096812
0.809973
0.8107236
0.8121408
0.8147144
0.8157019
0.8162855
0.8164005
0.8147045
0.8220804
0.821863
0.8219478
0.8221236
0.8221704
0.8210299
0.8264975
0.8262486
0.8262457
0.8265177
0.8269496
0.8275256
0.8259137
0.8295037
0.8292808
0.8292927
0.8295595
0.8301331
0.8310723
0.8310632
0.8298323
0.8314852
0.831273
0.8312673
0.8315129
0.8320404
0.8330393
0.8333754
0.8335355
0.8325662
0.8326186
0.8323858
0.8323434
0.8325226
0.8329722
0.8338483
0.8342182
0.8346361
0.8348905
0.8340619
0.8024416
0.8008428
0.7993896
0.7981686
0.7971969
0.7963656
0.7943826
0.8040048
0.8024459
0.8010153
0.7998023
0.7988785
0.7981941
0.7975735
0.7954399
0.8054683
0.8039452
0.8025334
0.8013311
0.8004088
0.7998135
0.7994203
0.7990115
0.7967672
0.8068848
0.8054032
0.8040203
0.8028355
0.8019299
0.8013428
0.8010909
0.8009752
0.8007393
0.7984105
0.8082865
0.8068552
0.8055151
0.8043651
0.8034818
0.8029221
0.8026873
0.8027617
0.8028837
0.8027599
0.8006961
0.809687
0.8083148
0.807032
0.8059319
0.8050886
0.8045528
0.8043551
0.8044572
0.8048119
0.8051031
0.804984
0.8023804
0.8110843
0.8097783
0.8085645
0.8075276
0.8067347
0.8062378
0.806063
0.8062184
0.8066286
0.8072071
0.8075593
0.8069497
0.8045194
0.8124635
0.8112281
0.8100903
0.8091233
0.808388
0.8079327
0.8077948
0.8079844
0.8084967
0.8092208
0.8099737
0.8099402
0.8095509
0.8073344
0.8137998
0.812635
0.8115726
0.8106741
0.8099938
0.8095799
0.8094728
0.8097116
0.8103184
0.8113071
0.8124882
0.8129484
0.8132018
0.8130615
0.8110879
0.815062
0.8139593
0.8129604
0.8121175
0.8114802
0.8110949
0.8110081
0.8112721
0.8119748
0.8132914
0.8157177
0.8166093
0.8172744
0.8176755
0.8176913
0.8161793
0.8227251
0.8224705
0.8224822
0.8227202
0.8230212
0.8233627
0.8213046
0.8269935
0.8266816
0.8266114
0.8267806
0.8272257
0.8279879
0.8277585
0.8261738
0.8299214
0.8296442
0.8295715
0.8297433
0.8301827
0.831077
0.8312811
0.8312919
0.8300858
0.8318752
0.8316114
0.8315363
0.8316797
0.8320888
0.832918
0.8332318
0.8335835
0.8337631
0.8328171
0.8330115
0.8327375
0.8326339
0.8327321
0.8330655
0.8337984
0.8340284
0.8344114
0.8348449
0.8351186
0.8343654
0.8040977
0.8025716
0.8011802
0.8000042
0.7991142
0.7984709
0.7979017
0.7956643
0.8055894
0.8041019
0.802736
0.8015795
0.8007007
0.8001538
0.799834
0.7995372
0.7972719
0.8069875
0.8055326
0.8041856
0.8030377
0.8021675
0.8016181
0.8014195
0.8013933
0.8012992
0.7990205
0.8083431
0.8069254
0.805604
0.8044736
0.803609
0.8030687
0.802859
0.8029752
0.8031647
0.8031375
0.8011133
0.809687
0.8083148
0.807032
0.8059319
0.8050886
0.8045528
0.8043551
0.8044572
0.8048119
0.8051031
0.804984
0.8023804
0.8110323
0.809714
0.8084835
0.8074292
0.8066199
0.8061067
0.8059118
0.8060352
0.8063916
0.8068852
0.807133
0.806439
0.803978
0.8123768
0.8111198
0.8099531
0.8089568
0.8081945
0.8077129
0.8075418
0.8076762
0.8080862
0.8086361
0.8091554
0.8089359
0.8083689
0.8060603
0.813706
0.812515
0.8114191
0.8104881
0.809779
0.8093376
0.8091951
0.8093682
0.8098341
0.8105309
0.8112271
0.8113632
0.8113298
0.8109424
0.8087996
0.814996
0.8138711
0.8128461
0.8119793
0.8113221
0.8109189
0.8108085
0.811022
0.8115885
0.8124994
0.8136141
0.8140195
0.8143963
0.8145709
0.8143684
0.8125985
0.8162158
0.8151498
0.8141844
0.81337
0.8127532
0.8123778
0.8122861
0.8125284
0.8131814
0.8144185
0.8166855
0.8175066
0.8180856
0.8185657
0.8188557
0.8189812
0.8164787
0.8234012
0.823095
0.8230546
0.8232064
0.8235535
0.8241107
0.8236069
0.8215796
0.8275238
0.8271687
0.8270257
0.8271163
0.8274449
0.828191
0.8282015
0.8279928
0.8264353
0.8303781
0.8300555
0.829921
0.8299991
0.830332
0.8310692
0.8312715
0.8314916
0.8315225
0.8303412
0.8322984
0.8319961
0.8318629
0.8319291
0.8322264
0.8329184
0.8330989
0.8334258
0.8337933
0.8339926
0.8331232
0.8334326
0.8331256
0.832975
0.8330053
0.8332494
0.8338501
0.8339687
0.8342101
0.8346062
0.8350554
0.835397
0.8346761
0.8056777
0.8042214
0.8028928
0.801771
0.8009235
0.8004098
0.800146
0.7999482
0.7976902
0.8071029
0.8056817
0.804378
0.803273
0.8024423
0.8019343
0.8017955
0.8018839
0.8020032
0.7999215
0.8084412
0.8070487
0.8057612
0.8046654
0.8038333
0.8033264
0.8031609
0.8033543
0.8036827
0.8038754
0.8020079
0.8097412
0.8083818
0.8071168
0.806035
0.8052093
0.8046909
0.8045155
0.8046529
0.8050688
0.8054523
0.8054432
0.8028668
0.8110323
0.809714
0.8084835
0.8074292
0.8066199
0.8061067
0.8059118
0.8060352
0.8063916
0.8068852
0.807133
0.806439
0.803978
0.8123269
0.8110582
0.8098755
0.8088627
0.8080849
0.8075881
0.8073981
0.8075032
0.8078634
0.8083366
0.8087602
0.8084609
0.8078159
0.8054806
0.8136226
0.8124109
0.8112874
0.8103285
0.8095938
0.8091275
0.8089537
0.8090748
0.8094453
0.8099794
0.8104605
0.8104292
0.8102298
0.8096913
0.8074827
0.8149055
0.8137556
0.8126985
0.8118007
0.811116
0.8106867
0.8105425
0.8106937
0.8111269
0.8117624
0.8124226
0.8125299
0.8126507
0.8125981
0.8121992
0.8103117
0.8161521
0.8150647
0.8140743
0.8132371
0.8126013
0.8122087
0.8120944
0.8122887
0.8128117
0.8136637
0.8146878
0.8150589
0.8153778
0.8156662
0.8157619
0.8156752
0.8129051
0.8173328
0.8163006
0.8153668
0.8145788
0.8139813
0.8136152
0.8135202
0.8137419
0.8143542
0.8155138
0.8176498
0.8183827
0.8188998
0.8192969
0.8196607
0.8200299
0.8192432
0.816776
0.8240927
0.823753
0.8236488
0.8237378
0.8239876
0.8245642
0.8243337
0.8238515
0.821855
0.8280828
0.827691
0.8274962
0.8275045
0.8277434
0.8283505
0.8283895
0.8284164
0.8282285
0.8266984
0.8308621
0.8305065
0.8303199
0.8303282
0.8305578
0.8311696
0.8312519
0.8314675
0.8317037
0.8317548
0.8306526
0.8327473
0.8324143
0.8322368
0.8322381
0.8324499
0.833014
0.8330894
0.8332813
0.8336215
0.8340049
0.8342725
0.8334365
0.8338747
0.8335422
0.8333535
0.8333307
0.8334995
0.8339969
0.8340118
0.8341405
0.8343932
0.8348026
0.8353123
0.8356817
0.8349125
0.8071871
0.8057954
0.8045268
0.8034547
0.8026524
0.8021729
0.8020758
0.8022589
0.8025984
0.8009302
0.8085515
0.8071909
0.8059442
0.8048888
0.8040932
0.8036226
0.8035073
0.8037958
0.8043266
0.8049143
0.8035614
0.8098351
0.8084997
0.8072666
0.8062175
0.8054221
0.8049339
0.8047976
0.8050012
0.8055407
0.8061328
0.8063947
0.8039286
0.8110843
0.8097783
0.8085645
0.8075276
0.8067347
0.8062378
0.806063
0.8062184
0.8066286
0.8072071
0.8075593
0.8069497
0.8045194
0.8123269
0.8110582
0.8098755
0.8088627
0.8080849
0.8075881
0.8073981
0.8075032
0.8078634
0.8083366
0.8087602
0.8084609
0.8078159
0.8054806
0.8135745
0.8123517
0.8112129
0.8102384
0.809489
0.8090081
0.8088166
0.8089102
0.8092344
0.8096969
0.8100907
0.8099876
0.8097145
0.8091077
0.8068829
0.8148251
0.8136554
0.8125719
0.8116474
0.8109384
0.8104853
0.8103114
0.8104133
0.8107563
0.8112392
0.8116985
0.8116533
0.8116257
0.8114318
0.8109104
0.8089917
0.8160648
0.8149533
0.8139322
0.8130652
0.8124032
0.8119857
0.8118392
0.8119739
0.8123702
0.8129611
0.8135561
0.813651
0.8137363
0.8138247
0.8137394
0.8134975
0.8106191
0.8172712
0.8162185
0.8152606
0.8144507
0.813835
0.8134525
0.8133359
0.8135115
0.8139997
0.8147921
0.8157464
0.8160581
0.8163401
0.8165681
0.8167693
0.8169467
0.8159405
0.8132096
0.8184146
0.8174147
0.8165101
0.815747
0.8151675
0.8148105
0.8147128
0.8149172
0.8154915
0.8165859
0.8185994
0.8192653
0.8197041
0.8200425
0.8203231
0.820748
0.8202683
0.8195035
0.8170714
0.8247982
0.8244285
0.8242799
0.8242965
0.8244747
0.8249347
0.8247712
0.8245572
0.8240965
0.8221307
0.8286601
0.8282428
0.8280036
0.8279519
0.8280993
0.8285983
0.8285368
0.8285893
0.8286326
0.8284657
0.8270186
0.831367
0.8309852
0.8307595
0.8307087
0.8308603
0.8313527
0.8313422
0.8314359
0.831665
0.8319174
0.832038
0.8309713
0.833215
0.8328587
0.8326453
0.8325961
0.8327357
0.8332002
0.8331764
0.8332618
0.8334652
0.8338187
0.8342629
0.8345588
0.8336749
0.8343326
0.8339802
0.8337613
0.8336947
0.8338039
0.8342137
0.834151
0.8341749
0.8343137
0.8345779
0.8350422
0.8355749
0.8358981
0.8350731
0.808632
0.8072993
0.8060859
0.8050612
0.8042921
0.8038463
0.8037664
0.80413
0.8048648
0.8060259
0.8065064
0.8099407
0.8086355
0.8074412
0.8064301
0.8056687
0.8052136
0.8051214
0.805408
0.8061256
0.8070871
0.8079568
0.8058182
0.8111744
0.8098911
0.8087077
0.8077017
0.8069372
0.8064684
0.8063291
0.8065445
0.8070652
0.8078341
0.8084414
0.8080307
0.8057088
0.8123768
0.8111198
0.8099531
0.8089568
0.8081945
0.8077129
0.8075418
0.8076762
0.8080862
0.8086361
0.8091554
0.8089359
0.8083689
0.8060603
0.8135745
0.8123517
0.8112129
0.8102384
0.809489
0.8090081
0.8088166
0.8089102
0.8092344
0.8096969
0.8100907
0.8099876
0.8097145
0.8091077
0.8068829
0.8147788
0.8135984
0.8125003
0.8115609
0.8108378
0.810371
0.8101803
0.8102561
0.8105554
0.8109713
0.8113493
0.8112394
0.8111459
0.8108872
0.8103095
0.8083902
0.8159872
0.8148567
0.8138103
0.8129178
0.8122325
0.8117923
0.8116174
0.8117053
0.8120159
0.8124623
0.8128686
0.8128226
0.8127734
0.8127366
0.812536
0.8122002
0.8092989
0.8171868
0.8161109
0.8151235
0.8142851
0.8136443
0.8132379
0.8130904
0.8132092
0.8135764
0.8141203
0.8146678
0.8147208
0.8147882
0.8148356
0.8148797
0.8149125
0.8137615
0.810925
0.818355
0.8173353
0.8164075
0.8156235
0.8150265
0.8146537
0.8145352
0.8146955
0.8151509
0.8158943
0.8167805
0.8170504
0.817273
0.8174625
0.8176011
0.8178644
0.8171873
0.8162041
0.8135121
0.8194641
0.8184938
0.8176171
0.8168771
0.8163148
0.8159663
0.8158667
0.8160557
0.816597
0.8176313
0.8195392
0.8201419
0.8205228
0.8207875
0.8210101
0.8213409
0.8209688
0.8205053
0.8197623
0.8173648
0.8255093
0.8251194
0.8249313
0.8248962
0.8249949
0.8253679
0.8251286
0.8249785
0.824781
0.8243419
0.8224648
0.8292509
0.8288135
0.8285418
0.8284386
0.8285181
0.8289101
0.8287742
0.8287243
0.8287903
0.8288501
0.8287544
0.8273464
0.8318865
0.8314853
0.8312279
0.8311317
0.8312168
0.8316172
0.8315165
0.8315161
0.8316215
0.831864
0.832178
0.8323277
0.831214
0.8336968
0.8333222
0.8330806
0.8329899
0.8330725
0.8334524
0.8333549
0.8333401
0.8334356
0.8336506
0.8340593
0.8345268
0.8347766
0.8338369
0.8348024
0.8344344
0.834191
0.8340892
0.8341488
0.8344878
0.8343609
0.8343064
0.8343394
0.8344883
0.8348033
0.8352872
0.8357745
0.836045
0.8351552
0.8160436
0.8100178
0.8087391
0.8075764
0.8065943
0.8058576
0.8054252
0.8053636
0.805717
0.8066126
0.8081067
0.8107026
0.8092852
0.8112758
0.8100212
0.8088747
0.8079045
0.8071721
0.8067341
0.8066351
0.8069254
0.807608
0.8087137
0.8098875
0.8098651
0.8078173
0.8124635
0.8112281
0.8100903
0.8091233
0.808388
0.8079327
0.8077948
0.8079844
0.8084967
0.8092208
0.8099737
0.8099402
0.8095509
0.8073344
0.8136226
0.8124109
0.8112874
0.8103285
0.8095938
0.8091275
0.8089537
0.8090748
0.8094453
0.8099794
0.8104605
0.8104292
0.8102298
0.8096913
0.8074827
0.8147788
0.8135984
0.8125003
0.8115609
0.8108378
0.810371
0.8101803
0.8102561
0.8105554
0.8109713
0.8113493
0.8112394
0.8111459
0.8108872
0.8103095
0.8083902
0.8159425
0.8148018
0.8137414
0.8128345
0.8121358
0.8116826
0.8114916
0.8115546
0.8118238
0.8122069
0.8125372
0.8124315
0.8123229
0.8122287
0.8119743
0.8115952
0.8086972
0.8171118
0.8160177
0.815006
0.8141431
0.81348
0.8130519
0.8128773
0.8129512
0.8132367
0.8136433
0.8140124
0.8139341
0.8138779
0.8138125
0.8137558
0.8136985
0.8124627
0.8096048
0.8182734
0.8172314
0.8162752
0.8154637
0.8148426
0.814447
0.8142989
0.8144046
0.8147443
0.8152503
0.8157494
0.8157759
0.8157988
0.8158241
0.8158225
0.8159621
0.8151509
0.8140242
0.8112293
0.8194064
0.8184171
0.817518
0.8167578
0.8161787
0.815815
0.8156954
0.8158419
0.8162693
0.8169673
0.8177971
0.8180254
0.8182064
0.8183368
0.818436
0.8186251
0.8180867
0.8174262
0.8164661
0.8138125
0.8204822
0.8195408
0.8186897
0.8179719
0.8174254
0.8170854
0.8169842
0.8171595
0.8176712
0.8186526
0.8204641
0.8210155
0.8213423
0.8215536
0.8217045
0.8219693
0.8215475
0.8211882
0.8207407
0.8200196
0.8177175
0.8262231
0.8258172
0.8256005
0.8255194
0.8255607
0.8258416
0.8255508
0.8253228
0.8251861
0.8250051
0.8246393
0.8228068
0.8298498
0.8293983
0.8291003
0.8289582
0.8289791
0.8292898
0.8290769
0.8289511
0.8289128
0.8289925
0.8291149
0.8290498
0.8275961
0.8324163
0.8320004
0.8317185
0.8315849
0.8316181
0.8319397
0.8317731
0.8316815
0.8316914
0.8318084
0.8321067
0.8324444
0.8325481
0.8313788
0.8341888
0.8338002
0.8335359
0.8334119
0.833447
0.8337587
0.8336001
0.8335108
0.8335051
0.8336109
0.8338768
0.8343053
0.8347274
0.8349244
0.8339197
0.835281
0.8349006
0.8346376
0.8345068
0.8345257
0.834805
0.8346288
0.8345094
0.8344632
0.8345053
0.8347014
0.8350336
0.8354732
0.8359099
0.8361201
0.8218925
0.8189927
0.8166429
0.8113497
0.8101204
0.8090039
0.8080613
0.8073521
0.8069352
0.8068643
0.8072148
0.8080617
0.8096554
0.8124298
0.8130492
0.8114455
0.8125609
0.8113529
0.8102502
0.8093173
0.8086123
0.808186
0.8080856
0.808345
0.8090072
0.8100433
0.8113173
0.8116424
0.8115647
0.809568
0.813706
0.812515
0.8114191
0.8104881
0.809779
0.8093376
0.8091951
0.8093682
0.8098341
0.8105309
0.8112271
0.8113632
0.8113298
0.8109424
0.8087996
0.8148251
0.8136554
0.8125719
0.8116474
0.8109384
0.8104853
0.8103114
0.8104133
0.8107563
0.8112392
0.8116985
0.8116533
0.8116257
0.8114318
0.8109104
0.8089917
0.8159425
0.8148018
0.8137414
0.8128345
0.8121358
0.8116826
0.8114916
0.8115546
0.8118238
0.8122069
0.8125372
0.8124315
0.8123229
0.8122287
0.8119743
0.8115952
0.8086972
0.8170686
0.8159646
0.8149395
0.8140629
0.813387
0.8129463
0.8127563
0.8128065
0.8130526
0.8133992
0.8136964
0.8135627
0.8134521
0.8133353
0.8132315
0.8131317
0.811857
0.8090032
0.8182008
0.8171413
0.8161617
0.8153268
0.8146843
0.8142678
0.8140936
0.8141564
0.814418
0.8147932
0.8151229
0.815026
0.8149341
0.8148567
0.8147652
0.8148274
0.8139351
0.8127243
0.8099097
0.8193274
0.8183165
0.8173901
0.8166035
0.8160012
0.8156156
0.8154675
0.8155616
0.815878
0.8163489
0.8168092
0.8168072
0.8168014
0.8167804
0.8167538
0.8168338
0.8161822
0.8153882
0.8142856
0.811532
0.8204262
0.8194665
0.8185938
0.8178565
0.8172939
0.8169392
0.8168188
0.8169533
0.8173554
0.8180139
0.8187922
0.8189885
0.8191288
0.8192184
0.8192592
0.8194005
0.8188329
0.8183075
0.8176635
0.8167263
0.8141735
0.8214719
0.8205566
0.8197305
0.819033
0.818502
0.8181697
0.8180676
0.8182306
0.8187156
0.819649
0.8213746
0.82188
0.8221642
0.8223261
0.822426
0.8226132
0.8221641
0.8217529
0.8214062
0.8209747
0.8203289
0.8180786
0.8269355
0.8265189
0.8262785
0.8261631
0.8261536
0.8263661
0.8260149
0.825734
0.8255174
0.8253941
0.8252768
0.8249437
0.8230674
0.8304533
0.8299916
0.8296738
0.8294995
0.8294753
0.8297158
0.8294485
0.8292447
0.8291291
0.8291025
0.8292387
0.8293857
0.8292746
0.8277658
0.832953
0.8325261
0.8322248
0.8320615
0.8320514
0.83231
0.8320886
0.8319303
0.8318478
0.831868
0.8320363
0.8323548
0.832647
0.8326977
0.8314632
0.8346881
0.8342886
0.8340061
0.8338547
0.8338511
0.8341053
0.8339002
0.8337491
0.833668
0.8336715
0.8338247
0.8341079
0.8344922
0.8348634
0.8349999
0.8357658
0.8353758
0.8350967
0.8349419
0.8349269
0.8351564
0.8349403
0.834771
0.8346591
0.8346212
0.8347076
0.8349191
0.8352084
0.8355993
0.835979
0.8259372
0.8241575
0.8221828
0.8201076
0.8195084
0.8175359
0.812632
0.8114482
0.810374
0.8094673
0.8087843
0.8083779
0.8083037
0.8086194
0.809434
0.8109265
0.8136851
0.8145952
0.8148857
0.8132127
0.8137998
0.812635
0.8115726
0.8106741
0.8099938
0.8095799
0.8094728
0.8097116
0.8103184
0.8113071
0.8124882
0.8129484
0.8132018
0.8130615
0.8110879
0.8149055
0.8137556
0.8126985
0.8118007
0.811116
0.8106867
0.8105425
0.8106937
0.8111269
0.8117624
0.8124226
0.8125299
0.8126507
0.8125981
0.8121992
0.8103117
0.8159872
0.8148567
0.8138103
0.8129178
0.8122325
0.8117923
0.8116174
0.8117053
0.8120159
0.8124623
0.8128686
0.8128226
0.8127734
0.8127366
0.812536
0.8122002
0.8092989
0.8170686
0.8159646
0.8149395
0.8140629
0.813387
0.8129463
0.8127563
0.8128065
0.8130526
0.8133992
0.8136964
0.8135627
0.8134521
0.8133353
0.8132315
0.8131317
0.811857
0.8090032
0.818159
0.81709
0.8160975
0.8152494
0.8145946
0.814166
0.8139772
0.8140172
0.8142411
0.8145592
0.8148208
0.8146719
0.8145296
0.8144055
0.8142722
0.8142976
0.8133674
0.812118
0.8093082
0.8192571
0.8182293
0.8172804
0.8164712
0.8158484
0.8154427
0.8152696
0.8153225
0.815564
0.8159098
0.8162088
0.8160902
0.8159771
0.8158613
0.8157538
0.8157657
0.8150454
0.8141708
0.8129848
0.8102133
0.8203496
0.8193691
0.81847
0.8177073
0.8171224
0.8167466
0.8165987
0.8166828
0.8169782
0.817419
0.8178438
0.8178213
0.8177858
0.817735
0.817661
0.8177059
0.8170394
0.8164011
0.8156242
0.8145456
0.8118964
0.8214177
0.8204845
0.8196376
0.8189213
0.8183747
0.8180283
0.8179077
0.8180314
0.8184108
0.8190338
0.8197673
0.8199347
0.8200442
0.8200946
0.8200957
0.8201726
0.8195962
0.8190394
0.8185268
0.8178993
0.8170392
0.8145433
0.8224331
0.8215441
0.8207404
0.820063
0.8195459
0.8192216
0.8191186
0.8192708
0.8197314
0.8206214
0.8222687
0.822735
0.8229815
0.8231054
0.8231585
0.8232901
0.8227978
0.8223576
0.8219569
0.8216228
0.8212561
0.8206455
0.8183537
0.8276444
0.8272201
0.8269619
0.8268179
0.8267698
0.8269222
0.826531
0.8261885
0.8259175
0.8257122
0.8256461
0.8255547
0.8251754
0.8232445
0.8310586
0.8305899
0.8302566
0.8300573
0.8299954
0.8301803
0.8298673
0.8296083
0.8294135
0.8293082
0.8293335
0.8294904
0.8295916
0.8294271
0.8278526
0.8334942
0.8330589
0.8327423
0.8325549
0.8325098
0.8327151
0.8324526
0.8322387
0.8320887
0.8320154
0.8320833
0.8322693
0.8325433
0.8327844
0.8327742
0.8351924
0.8347845
0.8344873
0.8343134
0.8342775
0.8344838
0.834241
0.8340428
0.8338993
0.8338266
0.8338745
0.8340432
0.8342834
0.8346188
0.8349328
0.8362549
0.8358575
0.8355654
0.8353905
0.8353469
0.835534
0.8352864
0.8350767
0.8349144
0.8348101
0.834814
0.8349143
0.8350844
0.8353269
0.8356637
0.8285594
0.8277581
0.8261641
0.8248982
0.8244145
0.8227233
0.820847
0.8205817
0.8202822
0.8185745
0.8138682
0.8127266
0.8116914
0.8108179
0.8101585
0.8097634
0.8096812
0.809973
0.8107236
0.8121408
0.8147144
0.8157019
0.8162855
0.8164005
0.8147045
0.814996
0.8138711
0.8128461
0.8119793
0.8113221
0.8109189
0.8108085
0.811022
0.8115885
0.8124994
0.8136141
0.8140195
0.8143963
0.8145709
0.8143684
0.8125985
0.8160648
0.8149533
0.8139322
0.8130652
0.8124032
0.8119857
0.8118392
0.8119739
0.8123702
0.8129611
0.8135561
0.813651
0.8137363
0.8138247
0.8137394
0.8134975
0.8106191
0.8171118
0.8160177
0.815006
0.8141431
0.81348
0.8130519
0.8128773
0.8129512
0.8132367
0.8136433
0.8140124
0.8139341
0.8138779
0.8138125
0.8137558
0.8136985
0.8124627
0.8096048
0.818159
0.81709
0.8160975
0.8152494
0.8145946
0.814166
0.8139772
0.8140172
0.8142411
0.8145592
0.8148208
0.8146719
0.8145296
0.8144055
0.8142722
0.8142976
0.8133674
0.812118
0.8093082
0.8192166
0.8181797
0.8172184
0.8163965
0.8157618
0.8153446
0.8151574
0.8151884
0.8153938
0.8156851
0.8159193
0.8157518
0.8155916
0.8154327
0.8152875
0.8152673
0.8145147
0.8136022
0.812378
0.8096123
0.8202815
0.8192846
0.8183638
0.8175794
0.8169747
0.8165797
0.8164077
0.8164521
0.8166757
0.8169967
0.8172673
0.8171344
0.8169979
0.8168589
0.8167109
0.8166954
0.8159693
0.8152626
0.8144055
0.8132443
0.8105793
0.8213433
0.82039
0.8195177
0.8187769
0.8182088
0.8178421
0.817695
0.8177701
0.8180469
0.8184607
0.8188552
0.8188144
0.8187577
0.8186767
0.8185724
0.8185623
0.8178994
0.8172438
0.8166188
0.8158589
0.8148587
0.8122696
0.8223804
0.8214742
0.8206503
0.8199548
0.8194226
0.8190848
0.8189639
0.8190781
0.819437
0.820028
0.8207211
0.8208649
0.8209471
0.8209682
0.8209317
0.8209641
0.8203579
0.8197906
0.8192444
0.8187446
0.8181826
0.8173594
0.814825
0.8233696
0.8225031
0.8217225
0.8210627
0.8205599
0.8202425
0.8201394
0.8202814
0.8207201
0.8215701
0.8231462
0.8235779
0.8237932
0.823884
0.8239017
0.8239829
0.8234656
0.822981
0.8225498
0.8221596
0.8218832
0.8215438
0.8208864
0.8185407
0.8283479
0.8279186
0.8276463
0.8274799
0.8273995
0.827505
0.8270795
0.8266962
0.8263624
0.8261013
0.8259484
0.8259038
0.8257661
0.8253326
0.8233352
0.8316638
0.8311904
0.8308453
0.8306256
0.8305337
0.8306714
0.8303253
0.8300198
0.829769
0.8295834
0.8295262
0.8295696
0.8296816
0.8297312
0.8295051
0.8340375
0.8335965
0.8332676
0.8330604
0.8329863
0.8331475
0.8328518
0.8325962
0.8323899
0.8322483
0.8322198
0.8323033
0.8324462
0.832671
0.8328545
0.8356998
0.8352855
0.8349765
0.8347839
0.8347209
0.8348865
0.8346142
0.8343778
0.8341866
0.8340507
0.8340199
0.8340819
0.834209
0.8344024
0.8346834
0.8367467
0.8363438
0.8360408
0.8358492
0.8357813
0.8359321
0.8356591
0.8354175
0.8352142
0.8350589
0.8349943
0.8350109
0.8350712
0.8351963
0.8353873
0.8298572
0.8301029
0.8287696
0.8282412
0.827963
0.8266104
0.8253186
0.825134
0.8248947
0.8234722
0.8214495
0.8212877
0.821292
0.8211895
0.8196878
0.815062
0.8139593
0.8129604
0.8121175
0.8114802
0.8110949
0.8110081
0.8112721
0.8119748
0.8132914
0.8157177
0.8166093
0.8172744
0.8176755
0.8176913
0.8161793
0.8161521
0.8150647
0.8140743
0.8132371
0.8126013
0.8122087
0.8120944
0.8122887
0.8128117
0.8136637
0.8146878
0.8150589
0.8153778
0.8156662
0.8157619
0.8156752
0.8129051
0.8171868
0.8161109
0.8151235
0.8142851
0.8136443
0.8132379
0.8130904
0.8132092
0.8135764
0.8141203
0.8146678
0.8147208
0.8147882
0.8148356
0.8148797
0.8149125
0.8137615
0.810925
0.8182008
0.8171413
0.8161617
0.8153268
0.8146843
0.8142678
0.8140936
0.8141564
0.814418
0.8147932
0.8151229
0.815026
0.8149341
0.8148567
0.8147652
0.8148274
0.8139351
0.8127243
0.8099097
0.8192166
0.8181797
0.8172184
0.8163965
0.8157618
0.8153446
0.8151574
0.8151884
0.8153938
0.8156851
0.8159193
0.8157518
0.8155916
0.8154327
0.8152875
0.8152673
0.8145147
0.8136022
0.812378
0.8096123
0.8202422
0.8192366
0.8183038
0.8175072
0.8168911
0.8164849
0.8162994
0.8163228
0.8165117
0.8167805
0.8169894
0.8168101
0.8166293
0.8164503
0.8162678
0.8162239
0.81547
0.814731
0.8138362