/*--------------------------------*- C++ -*----------------------------------*\
| =========                 |                                                 |
| \\      /  F ield         | OpenFOAM: The Open Source CFD Toolbox           |
|  \\    /   O peration     | Version:  2306                                  |
|   \\  /    A nd           | Website:  www.openfoam.com                      |
|    \\/     M anipulation  |                                                 |
\*---------------------------------------------------------------------------*/
FoamFile
{
    version     2.0;
    format      ascii;
    arch        "LSB;label=32;scalar=64";
    class       volScalarField;
    location    "1.5/air";
    object      X.O2;
}
// * * * * * * * * * * * * * * * * * * * * * * * * * * * * * * * * * * * * * //

dimensions      [0 0 0 0 0 0 0];

internalField   nonuniform List<scalar> 
16000
(
0.2073454
0.2073648
0.2062582
0.2073307
0.2073889
0.2063247
0.2073591
0.2047887
0.2061685
0.2072751
0.2074083
0.2064099
0.207392
0.2048961
0.2062608
0.2073174
0.2029592
0.2046526
0.2059309
0.2071431
0.2074187
0.2064813
0.207417
0.2050441
0.2063712
0.2073653
0.2030681
0.2047917
0.2060633
0.2072035
0.2011023
0.2028155
0.2043143
0.2054773
0.2068815
0.2074187
0.2065208
0.20743
0.205176
0.2064596
0.2073996
0.2032177
0.2049763
0.2062178
0.207272
0.2012094
0.2029563
0.2044903
0.2056561
0.2069652
0.1992938
0.2009606
0.2024593
0.2037158
0.2047362
0.2064111
0.1701428
0.2074083
0.2065208
0.20743
0.205252
0.2065073
0.2074165
0.2033512
0.205137
0.2063387
0.2073206
0.2013564
0.2031417
0.2047227
0.2058732
0.2070633
0.1993964
0.2010988
0.2026372
0.2039278
0.2049624
0.2065234
0.1975584
0.1991572
0.2006104
0.2018314
0.2028031
0.2036344
0.2056174
0.1714406
0.1687341
0.1699374
0.2073889
0.2064813
0.207417
0.205252
0.2065073
0.2074165
0.2034282
0.2052284
0.2064027
0.2073453
0.2014872
0.203303
0.2049236
0.2060447
0.2071372
0.1995372
0.2012802
0.2028683
0.2042039
0.2052439
0.2066639
0.1976561
0.1992893
0.2007833
0.2020418
0.2030487
0.2039083
0.2057685
0.1959023
0.1974284
0.1988198
0.1999958
0.2008858
0.2015291
0.2020983
0.2043357
0.1740628
0.1698971
0.1712304
0.1684994
0.1685461
0.1695273
0.2073648
0.2064099
0.207392
0.205176
0.2064596
0.2073996
0.2034282
0.2052284
0.2064027
0.2073453
0.2015627
0.203395
0.2050373
0.2061345
0.2071759
0.1996625
0.2014378
0.2030674
0.2044433
0.2054752
0.2067768
0.1977901
0.1994628
0.2010074
0.2023157
0.2033693
0.2042557
0.2059699
0.1959952
0.1975541
0.1989847
0.2001977
0.2011215
0.2018059
0.2024265
0.2045601
0.1943223
0.1957786
0.1971072
0.198229
0.1990765
0.1995902
0.199854
0.2000518
0.2023098
0.1781075
0.1722419
0.1738359
0.1695803
0.1697055
0.1708119
0.1685135
0.168326
0.1681707
0.1689139
0.2073454
0.2063247
0.2073591
0.2050441
0.2063712
0.2073653
0.2033512
0.205137
0.2063387
0.2073206
0.2015627
0.203395
0.2050373
0.2061345
0.2071759
0.1997349
0.2015276
0.2031802
0.2045805
0.2056016
0.2068384
0.1979094
0.1996135
0.2012001
0.2025518
0.2036454
0.2045468
0.2061397
0.1961224
0.1977192
0.1991982
0.2004599
0.2014311
0.2021703
0.2028486
0.2048642
0.1944106
0.1958981
0.197264
0.1984205
0.1992993
0.1998462
0.200166
0.2004628
0.2027281
0.1928129
0.1942046
0.1954732
0.1965453
0.1973476
0.1978271
0.1979242
0.1977411
0.1974016
0.1990698
0.1839564
0.1758425
0.1778172
0.1717588
0.172037
0.1733896
0.1695237
0.1694038
0.1693238
0.1701882
0.1685401
0.1683518
0.1679797
0.1676089
0.1680986
0.2062582
0.2073307
0.2048961
0.2062608
0.2073174
0.2032177
0.2049763
0.2062178
0.207272
0.2014872
0.203303
0.2049236
0.2060447
0.2071372
0.1997349
0.2015276
0.2031802
0.2045805
0.2056016
0.2068384
0.1979782
0.1996994
0.2013091
0.2026858
0.2038017
0.2047087
0.2062346
0.1962357
0.1978624
0.1993817
0.2006855
0.2016995
0.2024852
0.2032054
0.2051205
0.1945317
0.1960548
0.1974666
0.1986689
0.1995912
0.2001865
0.2005797
0.2009885
0.2032328
0.1928971
0.1943183
0.195622
0.196727
0.1975577
0.1980657
0.1982045
0.1981161
0.1979968
0.2000785
0.191368
0.1927007
0.1939141
0.1949388
0.1957079
0.1961537
0.1962336
0.19587
0.1951352
0.1939741
0.1934936
0.1810073
0.1833571
0.1751018
0.1755855
0.1772767
0.1715591
0.1715704
0.1716335
0.1727346
0.169491
0.1693592
0.1690521
0.1687545
0.1693626
0.16846
0.1683881
0.1680289
0.1674615
0.1668619
0.1669213
0.2047887
0.2061685
0.2072751
0.2030681
0.2047917
0.2060633
0.2072035
0.2013564
0.2031417
0.2047227
0.2058732
0.2070633
0.1996625
0.2014378
0.2030674
0.2044433
0.2054752
0.2067768
0.1979782
0.1996994
0.2013091
0.2026858
0.2038017
0.2047087
0.2062346
0.196301
0.197944
0.1994856
0.2008132
0.201852
0.2026635
0.2034048
0.2052631
0.1946395
0.1961908
0.1976407
0.1988825
0.1998437
0.2004833
0.2009378
0.2014283
0.2036281
0.1930125
0.1944674
0.1958144
0.1969623
0.1978325
0.1983819
0.1985805
0.1986067
0.1987008
0.2009795
0.1914485
0.1928091
0.1940558
0.1951112
0.1959068
0.1963774
0.1964927
0.1962042
0.1956734
0.1950857
0.1964386
0.1899822
0.1912609
0.1924236
0.1934057
0.1941424
0.1945748
0.1946364
0.194283
0.1933874
0.1918933
0.1892974
0.1907148
0.1798924
0.1804916
0.1824641
0.1746814
0.174866
0.1751053
0.1765278
0.1714066
0.1713837
0.1711993
0.1710403
0.1718809
0.1693587
0.1693364
0.1690314
0.1685275
0.1680003
0.1681746
0.1682944
0.1683162
0.1680845
0.1675455
0.1667723
0.1657826
0.1666785
0.2029592
0.2046526
0.2059309
0.2071431
0.2012094
0.2029563
0.2044903
0.2056561
0.2069652
0.1995372
0.2012802
0.2028683
0.2042039
0.2052439
0.2066639
0.1979094
0.1996135
0.2012001
0.2025518
0.2036454
0.2045468
0.2061397
0.196301
0.197944
0.1994856
0.2008132
0.201852
0.2026635
0.2034048
0.2052631
0.1947016
0.1962683
0.1977392
0.1990034
0.199987
0.2006525
0.2011404
0.2016724
0.2038388
0.1931152
0.1945968
0.1959797
0.1971645
0.1980701
0.1986572
0.1989091
0.1990248
0.1992607
0.2015895
0.1915588
0.1929513
0.1942388
0.1953346
0.1961667
0.1966736
0.1968391
0.1966457
0.1963173
0.1961246
0.1979921
0.1900593
0.1913645
0.1925588
0.1935699
0.1943313
0.1947864
0.1948786
0.194592
0.1938744
0.1929129
0.1920432
0.1941818
0.1886503
0.1898796
0.1909961
0.1919387
0.1926479
0.1930648
0.1931357
0.1927852
0.1919383
0.1903446
0.1875702
0.1869508
0.1885545
0.179153
0.1794183
0.1797178
0.1814255
0.1743444
0.1744622
0.1744253
0.1744368
0.1756019
0.1711692
0.1712419
0.1710383
0.1706538
0.1702656
0.170669
0.1691478
0.1692126
0.1690283
0.1685424
0.1678323
0.1669141
0.1679297
0.1680463
0.168158
0.1680292
0.1676301
0.1669025
0.1657763
0.1655601
0.1664338
0.2011023
0.2028155
0.2043143
0.2054773
0.2068815
0.1993964
0.2010988
0.2026372
0.2039278
0.2049624
0.2065234
0.1977901
0.1994628
0.2010074
0.2023157
0.2033693
0.2042557
0.2059699
0.1962357
0.1978624
0.1993817
0.2006855
0.2016995
0.2024852
0.2032054
0.2051205
0.1947016
0.1962683
0.1977392
0.1990034
0.199987
0.2006525
0.2011404
0.2016724
0.2038388
0.1931744
0.1946705
0.1960732
0.1972788
0.1982049
0.1988138
0.1990964
0.1992588
0.1995628
0.2018926
0.1916569
0.1930746
0.194396
0.1955264
0.196391
0.1969313
0.197141
0.1970248
0.1968353
0.1968625
0.1988867
0.1901649
0.1915003
0.1927334
0.1937825
0.1945779
0.1950661
0.1952024
0.1949988
0.1944593
0.1938672
0.1936053
0.1960714
0.1887242
0.1899788
0.1911253
0.1920955
0.1928279
0.1932659
0.1933649
0.1930746
0.192392
0.1912863
0.1901125
0.1901349
0.1921827
0.187368
0.1885518
0.189626
0.1905327
0.1912157
0.1916221
0.1916963
0.1913806
0.190566
0.1890735
0.1863149
0.1854048
0.1851143
0.1867873
0.1785505
0.1787123
0.178708
0.1788105
0.1803122
0.1739455
0.1741387
0.1740525
0.173812
0.1736065
0.1743448
0.1708668
0.1710137
0.1709175
0.1705304
0.1699412
0.1691638
0.1704193
0.1688591
0.1690091
0.1689214
0.1685688
0.1678943
0.166831
0.1666902
0.1676827
0.1677384
0.1679163
0.1678854
0.1675995
0.1670255
0.1659734
0.165571
0.1653357
0.166187
0.1992938
0.2009606
0.2024593
0.2037158
0.2047362
0.2064111
0.1976561
0.1992893
0.2007833
0.2020418
0.2030487
0.2039083
0.2057685
0.1961224
0.1977192
0.1991982
0.2004599
0.2014311
0.2021703
0.2028486
0.2048642
0.1946395
0.1961908
0.1976407
0.1988825
0.1998437
0.2004833
0.2009378
0.2014283
0.2036281
0.1931744
0.1946705
0.1960732
0.1972788
0.1982049
0.1988138
0.1990964
0.1992588
0.1995628
0.2018926
0.1917135
0.1931448
0.1944849
0.1956349
0.1965182
0.1970779
0.1973127
0.1972383
0.1971163
0.1972401
0.1993039
0.1902588
0.1916182
0.1928832
0.193965
0.1947907
0.1953091
0.1954845
0.1953471
0.1949312
0.1945477
0.1945568
0.1971332
0.1888256
0.1901089
0.1912923
0.1922983
0.1930628
0.1935316
0.1936709
0.1934555
0.1929348
0.1921659
0.1915586
0.1919693
0.1942912
0.1874391
0.1886471
0.1897498
0.1906827
0.1913877
0.191814
0.1919144
0.191655
0.1909928
0.1899567
0.1886827
0.1883576
0.1884353
0.190432
0.1861318
0.1872734
0.1883086
0.1891821
0.1898415
0.1902366
0.1903188
0.190027
0.1892764
0.1878592
0.1852856
0.1842981
0.1837145
0.1835995
0.1852955
0.1779196
0.178137
0.1780522
0.1778764
0.1778296
0.1789701
0.1735025
0.1737514
0.1737543
0.1734823
0.1730504
0.1724744
0.1740863
0.1704963
0.1707192
0.1707073
0.1704405
0.1698669
0.1689277
0.1689368
0.1701677
0.1685148
0.168727
0.1687327
0.1684871
0.1679596
0.1669607
0.1666246
0.1664645
0.1674338
0.1673814
0.1676142
0.1676566
0.1674774
0.1670278
0.1661517
0.1657818
0.1653639
0.1651095
0.1659381
0.1975584
0.1991572
0.2006104
0.2018314
0.2028031
0.2036344
0.2056174
0.1959952
0.1975541
0.1989847
0.2001977
0.2011215
0.2018059
0.2024265
0.2045601
0.1945317
0.1960548
0.1974666
0.1986689
0.1995912
0.2001865
0.2005797
0.2009885
0.2032328
0.1931152
0.1945968
0.1959797
0.1971645
0.1980701
0.1986572
0.1989091
0.1990248
0.1992607
0.2015895
0.1917135
0.1931448
0.1944849
0.1956349
0.1965182
0.1970779
0.1973127
0.1972383
0.1971163
0.1972401
0.1993039
0.190313
0.1916852
0.192968
0.1940681
0.1949114
0.1954472
0.1956449
0.1955428
0.1951881
0.1948969
0.195016
0.1976196
0.1889157
0.1902217
0.1914355
0.1924724
0.1932653
0.1937622
0.193937
0.1937816
0.1933714
0.1927929
0.1924407
0.1930503
0.1954806
0.1875365
0.1887719
0.1899097
0.1908767
0.191612
0.1920673
0.1922052
0.1920156
0.1915033
0.1907792
0.1900263
0.1900598
0.1904491
0.1926656
0.1862002
0.187365
0.1884274
0.1893259
0.1900062
0.1904201
0.1905272
0.1902884
0.1896816
0.1886929
0.1875118
0.1870516
0.1867982
0.1869385
0.1889121
0.184938
0.1860407
0.1870396
0.1878825
0.1885198
0.1889051
0.1889919
0.1887279
0.1880252
0.1867086
0.1842823
0.1833907
0.1827256
0.1823245
0.1823087
0.1838207
0.1772749
0.1775295
0.1775178
0.1772798
0.1769788
0.1766373
0.1786954
0.1730065
0.1733184
0.1733886
0.1732194
0.1727743
0.1720121
0.1722415
0.1738262
0.1700786
0.1703558
0.1704285
0.1702567
0.1698173
0.168923
0.1687189
0.1687081
0.1699142
0.1681248
0.1683886
0.1684637
0.1683203
0.1679112
0.167082
0.1667682
0.1664165
0.1662369
0.1671829
0.1669885
0.1672625
0.1673661
0.1672679
0.1669345
0.1662016
0.1659716
0.1655886
0.1651551
0.1648814
0.1656346
0.1959023
0.1974284
0.1988198
0.1999958
0.2008858
0.2015291
0.2020983
0.2043357
0.1944106
0.1958981
0.197264
0.1984205
0.1992993
0.1998462
0.200166
0.2004628
0.2027281
0.1930125
0.1944674
0.1958144
0.1969623
0.1978325
0.1983819
0.1985805
0.1986067
0.1987008
0.2009795
0.1916569
0.1930746
0.194396
0.1955264
0.196391
0.1969313
0.197141
0.1970248
0.1968353
0.1968625
0.1988867
0.190313
0.1916852
0.192968
0.1940681
0.1949114
0.1954472
0.1956449
0.1955428
0.1951881
0.1948969
0.195016
0.1976196
0.1889677
0.190286
0.1915165
0.1925708
0.1933801
0.1938933
0.1940882
0.1939648
0.1936084
0.1931148
0.192867
0.193561
0.196022
0.1876232
0.1888802
0.1900469
0.1910432
0.1918055
0.1922871
0.1924582
0.1923238
0.1919138
0.1913639
0.1908446
0.1910641
0.1916311
0.1939397
0.186294
0.187485
0.1885809
0.1895119
0.190221
0.1906624
0.1908049
0.1906318
0.1901659
0.1894691
0.1887729
0.1886368
0.1886702
0.1890576
0.1912004
0.185004
0.1861289
0.1871539
0.1880207
0.1886779
0.1890811
0.1891915
0.188978
0.1884115
0.1875006
0.1863859
0.1859805
0.1856037
0.1854291
0.1856316
0.1874015
0.1837842
0.1848502
0.1858156
0.18663
0.1872468
0.1876222
0.1877139
0.1874716
0.1868186
0.1855815
0.1833145
0.1824934
0.1819144
0.1814343
0.1811443
0.1810188
0.1835213
0.1765988
0.176905
0.1769454
0.1767936
0.1764465
0.1758893
0.1763931
0.1784204
0.1724762
0.1728313
0.1729743
0.1728837
0.1725551
0.171809
0.1717985
0.1720072
0.1735647
0.1696219
0.1699445
0.170079
0.1700009
0.169668
0.1689308
0.1687285
0.1685084
0.1684775
0.1696588
0.1677016
0.1680039
0.1681371
0.1680709
0.1677736
0.1670816
0.1669011
0.1665742
0.1662067
0.1660074
0.1668768
0.1665674
0.1668744
0.167025
0.1669947
0.1667506
0.1661499
0.1660313
0.1657899
0.1653938
0.1649446
0.164603
0.1653239
0.1943223
0.1957786
0.1971072
0.198229
0.1990765
0.1995902
0.199854
0.2000518
0.2023098
0.1928971
0.1943183
0.195622
0.196727
0.1975577
0.1980657
0.1982045
0.1981161
0.1979968
0.2000785
0.1915588
0.1929513
0.1942388
0.1953346
0.1961667
0.1966736
0.1968391
0.1966457
0.1963173
0.1961246
0.1979921
0.1902588
0.1916182
0.1928832
0.193965
0.1947907
0.1953091
0.1954845
0.1953471
0.1949312
0.1945477
0.1945568
0.1971332
0.1889677
0.190286
0.1915165
0.1925708
0.1933801
0.1938933
0.1940882
0.1939648
0.1936084
0.1931148
0.192867
0.193561
0.196022
0.1876731
0.1889418
0.1901245
0.1911373
0.1919151
0.1924119
0.1926019
0.1924968
0.1921366
0.1916634
0.1912398
0.1915391
0.1921841
0.1945194
0.1863774
0.1875891
0.1887126
0.1896715
0.1904062
0.1908725
0.1910463
0.1909252
0.1905547
0.1900206
0.1895395
0.1895708
0.1897702
0.1903087
0.1925173
0.1850945
0.1862444
0.1873015
0.1881993
0.188884
0.1893133
0.1894575
0.1893063
0.1888731
0.1882376
0.1875774
0.1874701
0.1873493
0.1874019
0.1878008
0.1896883
0.1838479
0.1849353
0.1859257
0.1867629
0.1873987
0.1877913
0.1879056
0.1877113
0.1871883
0.1863363
0.1853122
0.1849411
0.1846222
0.1843338
0.1842381
0.1843248
0.1870949
0.1826672
0.1836994
0.1846332
0.1854212
0.1860187
0.1863848
0.1864798
0.1862581
0.1856458
0.1844862
0.1823502
0.1816173
0.1811002
0.1807031
0.1803393
0.1799701
0.1807568
0.183224
0.1759073
0.176247
0.1763512
0.1762622
0.1760124
0.1754358
0.1756663
0.1761485
0.178145
0.1719172
0.172309
0.1725038
0.1724955
0.1722566
0.1716495
0.1716105
0.1715836
0.1717715
0.1733016
0.1691379
0.1694935
0.1696801
0.1696718
0.1694422
0.1688304
0.1687481
0.1685325
0.1682963
0.1682452
0.1693474
0.1672527
0.1675857
0.1677632
0.1677619
0.1675501
0.166986
0.1669106
0.1667187
0.1663785
0.1659951
0.1657275
0.1665635
0.1661253
0.1664578
0.1666465
0.1666693
0.1665005
0.1660031
0.1659882
0.1658595
0.1656068
0.1651974
0.1646877
0.1643183
0.1650875
0.1928129
0.1942046
0.1954732
0.1965453
0.1973476
0.1978271
0.1979242
0.1977411
0.1974016
0.1990698
0.1914485
0.1928091
0.1940558
0.1951112
0.1959068
0.1963774
0.1964927
0.1962042
0.1956734
0.1950857
0.1964386
0.1901649
0.1915003
0.1927334
0.1937825
0.1945779
0.1950661
0.1952024
0.1949988
0.1944593
0.1938672
0.1936053
0.1960714
0.1889157
0.1902217
0.1914355
0.1924724
0.1932653
0.1937622
0.193937
0.1937816
0.1933714
0.1927929
0.1924407
0.1930503
0.1954806
0.1876731
0.1889418
0.1901245
0.1911373
0.1919151
0.1924119
0.1926019
0.1924968
0.1921366
0.1916634
0.1912398
0.1915391
0.1921841
0.1945194
0.1864255
0.1876483
0.1887871
0.1897616
0.190511
0.1909919
0.1911834
0.1910898
0.1907656
0.1903031
0.1899093
0.1900124
0.1902855
0.1908923
0.1931171
0.1851749
0.1863446
0.1874281
0.1883526
0.1890616
0.1895147
0.1896886
0.1895867
0.1892437
0.1887608
0.1883015
0.1883467
0.1883743
0.1885682
0.1890896
0.1910083
0.1839352
0.1850467
0.1860678
0.1869348
0.1875968
0.1880143
0.1881608
0.1880261
0.1876298
0.1870389
0.1864439
0.186349
0.1862637
0.1861753
0.1862606
0.1865025
0.1893809
0.1827288
0.1837815
0.1847394
0.1855493
0.186165
0.1865475
0.1866641
0.1864885
0.1860003
0.1852079
0.1842536
0.1839419
0.1836599
0.1834319
0.1832307
0.1830533
0.1840595
0.1867904
0.1815854
0.1825853
0.1834899
0.184253
0.1848325
0.1851895
0.1852872
0.1850828
0.1845085
0.1834141
0.1814006
0.1807347
0.1802959
0.1799575
0.1796769
0.179252
0.1797317
0.1804965
0.1829286
0.1752018
0.1755715
0.1757201
0.1757035
0.1755253
0.1750653
0.1752288
0.1754428
0.1759035
0.1778693
0.1713399
0.1717572
0.1719964
0.1720481
0.1719007
0.1714017
0.1714632
0.1714107
0.1713674
0.1715343
0.1729814
0.168633
0.1690148
0.1692405
0.1692913
0.1691397
0.1686473
0.1686578
0.1685641
0.168335
0.1680826
0.167962
0.1690287
0.166785
0.1671413
0.1673547
0.1674039
0.1672643
0.1667998
0.1668236
0.1667382
0.1665348
0.1661813
0.1657371
0.1654412
0.1663251
0.1656674
0.1660198
0.1662387
0.1663053
0.1661961
0.1657863
0.165849
0.1658251
0.1656863
0.1654221
0.1649578
0.1644251
0.1641019
0.1649269
0.191368
0.1927007
0.1939141
0.1949388
0.1957079
0.1961537
0.1962336
0.19587
0.1951352
0.1939741
0.1934936
0.1900593
0.1913645
0.1925588
0.1935699
0.1943313
0.1947864
0.1948786
0.194592
0.1938744
0.1929129
0.1920432
0.1941818
0.1888256
0.1901089
0.1912923
0.1922983
0.1930628
0.1935316
0.1936709
0.1934555
0.1929348
0.1921659
0.1915586
0.1919693
0.1942912
0.1876232
0.1888802
0.1900469
0.1910432
0.1918055
0.1922871
0.1924582
0.1923238
0.1919138
0.1913639
0.1908446
0.1910641
0.1916311
0.1939397
0.1864255
0.1876483
0.1887871
0.1897616
0.190511
0.1909919
0.1911834
0.1910898
0.1907656
0.1903031
0.1899093
0.1900124
0.1902855
0.1908923
0.1931171
0.1852212
0.1864016
0.1874997
0.1884391
0.1891622
0.189629
0.1898197
0.1897439
0.1894446
0.1890287
0.1886507
0.1887606
0.1888541
0.1891128
0.1896905
0.1916098
0.1840128
0.1851433
0.1861897
0.1870822
0.1877675
0.1882077
0.1883826
0.1882947
0.1879841
0.1875377
0.1871314
0.1871774
0.1872266
0.1872634
0.187464
0.1877998
0.1907011
0.1828132
0.1838891
0.1848765
0.1857149
0.1863557
0.1867621
0.1869096
0.1867908
0.1864236
0.1858797
0.1853322
0.1852792
0.1852118
0.1851644
0.1851203
0.1850875
0.1862385
0.189075
0.181645
0.1826647
0.1835925
0.1843765
0.1849735
0.1853463
0.1854648
0.1853045
0.1848491
0.1841057
0.1832195
0.1829496
0.182727
0.1825375
0.1823989
0.1821356
0.1828127
0.1837959
0.1864879
0.1805359
0.1815062
0.1823829
0.1831229
0.1836852
0.1840337
0.1841333
0.1839443
0.183403
0.1823687
0.1804608
0.1798581
0.1794772
0.1792125
0.1789899
0.1786591
0.1790312
0.1794947
0.1802377
0.1826352
0.1744907
0.1748806
0.1750687
0.1751038
0.1750051
0.1746321
0.1748714
0.1750215
0.175219
0.1756581
0.1775352
0.1707491
0.1711865
0.1714582
0.1715614
0.1714819
0.1710899
0.1712258
0.1712757
0.1712097
0.1711499
0.1712456
0.1726536
0.1681135
0.1685147
0.1687721
0.1688683
0.1687832
0.1683828
0.1684835
0.1684839
0.1683785
0.168136
0.167822
0.1676723
0.168786
0.1663032
0.1666778
0.1669194
0.1670101
0.1669275
0.1665476
0.1666451
0.1666599
0.1665644
0.1663494
0.1659407
0.1654732
0.1652234
0.1661631
0.1651976
0.1655656
0.165809
0.1659108
0.1658512
0.1655122
0.1656391
0.1656936
0.1656606
0.1655117
0.1651967
0.1647128
0.1642255
0.163955
0.1648448
0.1839564
0.1899822
0.1912609
0.1924236
0.1934057
0.1941424
0.1945748
0.1946364
0.194283
0.1933874
0.1918933
0.1892974
0.1907148
0.1887242
0.1899788
0.1911253
0.1920955
0.1928279
0.1932659
0.1933649
0.1930746
0.192392
0.1912863
0.1901125
0.1901349
0.1921827
0.1875365
0.1887719
0.1899097
0.1908767
0.191612
0.1920673
0.1922052
0.1920156
0.1915033
0.1907792
0.1900263
0.1900598
0.1904491
0.1926656
0.1863774
0.1875891
0.1887126
0.1896715
0.1904062
0.1908725
0.1910463
0.1909252
0.1905547
0.1900206
0.1895395
0.1895708
0.1897702
0.1903087
0.1925173
0.1852212
0.1864016
0.1874997
0.1884391
0.1891622
0.189629
0.1898197
0.1897439
0.1894446
0.1890287
0.1886507
0.1887606
0.1888541
0.1891128
0.1896905
0.1916098
0.1840575
0.1851982
0.1862586
0.1871655
0.1878642
0.1883174
0.1885084
0.1884454
0.1881762
0.1877931
0.1874628
0.1875685
0.1876771
0.1877713
0.1880257
0.1884048
0.1913028
0.1828882
0.1839823
0.184994
0.1858569
0.18652
0.1869481
0.1871227
0.1870488
0.1867633
0.1863567
0.1859876
0.1860659
0.1861221
0.1861875
0.1862442
0.1863015
0.1875373
0.1903952
0.1817266
0.1827686
0.1837248
0.1845363
0.1851574
0.185553
0.1857011
0.1855954
0.1852557
0.1847497
0.1842506
0.1842241
0.1842012
0.1841759
0.1841775
0.1840379
0.1848491
0.1859758
0.1887707
0.1805936
0.1815829
0.182482
0.1832422
0.1838213
0.184185
0.1843046
0.1841581
0.1837307
0.1830327
0.1822029
0.1819746
0.1817936
0.1816632
0.181564
0.1813749
0.1819133
0.1825738
0.1835339
0.1861875
0.1795178
0.1804592
0.1813103
0.1820281
0.1825746
0.1829146
0.1830158
0.1828405
0.1823288
0.1813474
0.1795359
0.1789845
0.1786577
0.1784464
0.1782955
0.1780307
0.1784525
0.1788118
0.1792593
0.1799804
0.1822825
0.1737769
0.1741828
0.1743995
0.1744806
0.1744393
0.1741584
0.1744492
0.1746772
0.1748139
0.1749949
0.1753607
0.1771932
0.1701502
0.1706017
0.1708997
0.1710418
0.1710209
0.1707102
0.1709231
0.1710489
0.1710872
0.1710075
0.1708851
0.1709502
0.1724039
0.1675837
0.1679996
0.1682815
0.1684151
0.1683819
0.1680603
0.1682269
0.1683185
0.1683086
0.1681916
0.1678933
0.1675556
0.1674519
0.1686212
0.1658112
0.1661998
0.1664641
0.1665881
0.166553
0.1662413
0.1663999
0.1664892
0.1664949
0.1663891
0.1661232
0.1656947
0.1652726
0.1650756
0.1660803
0.164719
0.1650994
0.1653624
0.1654932
0.1654743
0.165195
0.1653712
0.1654906
0.1655368
0.1654947
0.1652986
0.1649664
0.1645268
0.1640901
0.1638799
0.1781075
0.1810073
0.1833571
0.1886503
0.1898796
0.1909961
0.1919387
0.1926479
0.1930648
0.1931357
0.1927852
0.1919383
0.1903446
0.1875702
0.1869508
0.1885545
0.1874391
0.1886471
0.1897498
0.1906827
0.1913877
0.191814
0.1919144
0.191655
0.1909928
0.1899567
0.1886827
0.1883576
0.1884353
0.190432
0.186294
0.187485
0.1885809
0.1895119
0.190221
0.1906624
0.1908049
0.1906318
0.1901659
0.1894691
0.1887729
0.1886368
0.1886702
0.1890576
0.1912004
0.1851749
0.1863446
0.1874281
0.1883526
0.1890616
0.1895147
0.1896886
0.1895867
0.1892437
0.1887608
0.1883015
0.1883467
0.1883743
0.1885682
0.1890896
0.1910083
0.1840575
0.1851982
0.1862586
0.1871655
0.1878642
0.1883174
0.1885084
0.1884454
0.1881762
0.1877931
0.1874628
0.1875685
0.1876771
0.1877713
0.1880257
0.1884048
0.1913028
0.1829314
0.1840354
0.1850605
0.1859371
0.186613
0.1870537
0.1872437
0.1871935
0.1869474
0.1866008
0.1863036
0.1864373
0.1865479
0.1866647
0.1867685
0.1868683
0.188143
0.1909968
0.1817992
0.1828587
0.1838383
0.1846732
0.1853157
0.1857322
0.1859064
0.1858436
0.185582
0.1852068
0.1848771
0.184974
0.1850659
0.1851433
0.1852348
0.1851726
0.1860649
0.1872757
0.1900903
0.1806726
0.1816835
0.1826099
0.1833965
0.1839988
0.1843844
0.1845325
0.1844384
0.184122
0.1836511
0.1831908
0.1831928
0.1831986
0.1832196
0.1832462
0.1831662
0.1838178
0.1846118
0.1857144
0.188468
0.1795738
0.1805335
0.1814062
0.1821435
0.1827061
0.1830608
0.1831812
0.1830467
0.1826446
0.1819861
0.1812078
0.1810115
0.1808712
0.1807816
0.1807408
0.1805995
0.1811671
0.1816925
0.1823365
0.1832737
0.1858265
0.1785281
0.1794434
0.1802695
0.180967
0.181498
0.1818303
0.1819324
0.1817694
0.1812844
0.180351
0.1786254
0.17812
0.1778358
0.1776739
0.177574
0.1773868
0.1778359
0.1782471
0.1785938
0.1790253
0.1796711
0.1819214
0.1730645
0.1734811
0.1737215
0.1738369
0.1738464
0.1736339
0.1739851
0.174266
0.1744826
0.1746059
0.1747232
0.1750563
0.1769326
0.1695467
0.1700084
0.1703262
0.1705005
0.1705247
0.1702842
0.1705515
0.1707553
0.1708709
0.1708975
0.1707613
0.1706143
0.1707254
0.1722342
0.167047
0.1674739
0.1677752
0.1679385
0.1679486
0.16769
0.1679114
0.1680697
0.1681522
0.168132
0.1679637
0.1676452
0.167353
0.1673023
0.1685368
0.1653119
0.1657114
0.1659939
0.1661453
0.1661489
0.1658947
0.1660998
0.1662509
0.166332
0.1663285
0.1661753
0.1658921
0.1655078
0.1651366
0.1650001
0.1642342
0.1646242
0.1649033
0.1650581
0.1650731
0.1648436
0.1650597
0.165229
0.1653409
0.1653788
0.1652924
0.1650809
0.1647916
0.1644007
0.164021
0.1740628
0.1758425
0.1778172
0.1798924
0.1804916
0.1824641
0.187368
0.1885518
0.189626
0.1905327
0.1912157
0.1916221
0.1916963
0.1913806
0.190566
0.1890735
0.1863149
0.1854048
0.1851143
0.1867873
0.1862002
0.187365
0.1884274
0.1893259
0.1900062
0.1904201
0.1905272
0.1902884
0.1896816
0.1886929
0.1875118
0.1870516
0.1867982
0.1869385
0.1889121
0.1850945
0.1862444
0.1873015
0.1881993
0.188884
0.1893133
0.1894575
0.1893063
0.1888731
0.1882376
0.1875774
0.1874701
0.1873493
0.1874019
0.1878008
0.1896883
0.1840128
0.1851433
0.1861897
0.1870822
0.1877675
0.1882077
0.1883826
0.1882947
0.1879841
0.1875377
0.1871314
0.1871774
0.1872266
0.1872634
0.187464
0.1877998
0.1907011
0.1829314
0.1840354
0.1850605
0.1859371
0.186613
0.1870537
0.1872437
0.1871935
0.1869474
0.1866008
0.1863036
0.1864373
0.1865479
0.1866647
0.1867685
0.1868683
0.188143
0.1909968
0.181841
0.18291
0.1839025
0.1847506
0.1854054
0.185834
0.1860228
0.1859828
0.1857589
0.1854408
0.1851792
0.1853281
0.1854704
0.1855945
0.1857278
0.1857024
0.1866326
0.187882
0.1906918
0.1807429
0.1817707
0.1827196
0.1835288
0.1841516
0.1845573
0.1847304
0.1846775
0.184436
0.1840902
0.1837912
0.1839098
0.1840229
0.1841387
0.1842462
0.1842343
0.1849546
0.1858292
0.1870152
0.1897867
0.1796504
0.1806309
0.18153
0.1822927
0.1828776
0.1832534
0.1834013
0.1833172
0.1830218
0.182581
0.1821562
0.1821787
0.1822142
0.182265
0.182339
0.1822941
0.1829606
0.1835989
0.1843758
0.1854544
0.1881036
0.1785823
0.1795155
0.1803624
0.1810787
0.1816253
0.1819717
0.1820923
0.1819686
0.1815892
0.1809662
0.1802327
0.1800653
0.1799558
0.1799054
0.1799043
0.1798274
0.1804038
0.1809606
0.1814732
0.1821007
0.1829608
0.1854567
0.1775669
0.1784559
0.1792596
0.179937
0.1804541
0.1807784
0.1808814
0.1807292
0.1802686
0.1793786
0.1777313
0.177265
0.1770185
0.1768946
0.1768415
0.1767099
0.1772022
0.1776424
0.1780431
0.1783772
0.1787439
0.1793545
0.1816463
0.1723556
0.1727799
0.1730381
0.1731821
0.1732302
0.1730778
0.173469
0.1738115
0.1740825
0.1742878
0.1743539
0.1744453
0.1748246
0.1767555
0.1689414
0.1694101
0.1697434
0.1699427
0.1700046
0.1698197
0.1701327
0.1703917
0.1705865
0.1706918
0.1706665
0.1705096
0.1704084
0.1705729
0.1721474
0.1665058
0.1669411
0.1672577
0.1674451
0.1674902
0.1672849
0.1675474
0.1677613
0.1679113
0.1679846
0.1679167
0.1677307
0.1674567
0.1672156
0.1672258
0.1648076
0.1652155
0.1655127
0.1656866
0.1657225
0.1655162
0.165759
0.1659572
0.1661007
0.1661734
0.1661255
0.1659568
0.1657166
0.1653812
0.1650672
0.1637451
0.1641425
0.1644346
0.1646095
0.1646531
0.164466
0.1647136
0.1649233
0.1650856
0.1651899
0.165186
0.1650857
0.1649156
0.1646731
0.1643363
0.1714406
0.1722419
0.1738359
0.1751018
0.1755855
0.1772767
0.179153
0.1794183
0.1797178
0.1814255
0.1861318
0.1872734
0.1883086
0.1891821
0.1898415
0.1902366
0.1903188
0.190027
0.1892764
0.1878592
0.1852856
0.1842981
0.1837145
0.1835995
0.1852955
0.185004
0.1861289
0.1871539
0.1880207
0.1886779
0.1890811
0.1891915
0.188978
0.1884115
0.1875006
0.1863859
0.1859805
0.1856037
0.1854291
0.1856316
0.1874015
0.1839352
0.1850467
0.1860678
0.1869348
0.1875968
0.1880143
0.1881608
0.1880261
0.1876298
0.1870389
0.1864439
0.186349
0.1862637
0.1861753
0.1862606
0.1865025
0.1893809
0.1828882
0.1839823
0.184994
0.1858569
0.18652
0.1869481
0.1871227
0.1870488
0.1867633
0.1863567
0.1859876
0.1860659
0.1861221
0.1861875
0.1862442
0.1863015
0.1875373
0.1903952
0.181841
0.18291
0.1839025
0.1847506
0.1854054
0.185834
0.1860228
0.1859828
0.1857589
0.1854408
0.1851792
0.1853281
0.1854704
0.1855945
0.1857278
0.1857024
0.1866326
0.187882
0.1906918
0.1807834
0.1818203
0.1827816
0.1836035
0.1842382
0.1846554
0.1848426
0.1848116
0.1846062
0.1843149
0.1840807
0.1842482
0.1844084
0.1845673
0.1847125
0.1847327
0.1854853
0.1863978
0.187622
0.1903877
0.1797185
0.1807154
0.1816362
0.1824206
0.1830253
0.1834203
0.1835923
0.1835479
0.1833243
0.1830033
0.1827327
0.1828656
0.1830021
0.1831411
0.1832891
0.1833046
0.1840307
0.1847374
0.1855945
0.1867557
0.1894207
0.1786567
0.17961
0.1804823
0.1812231
0.1817912
0.1821579
0.182305
0.1822299
0.1819531
0.1815393
0.1811448
0.1811856
0.1812423
0.1813233
0.1814276
0.1814377
0.1821006
0.1827562
0.1833812
0.1841411
0.1851413
0.1877304
0.1776196
0.1785258
0.1793497
0.1800452
0.1805774
0.1809152
0.1810361
0.1809219
0.180563
0.179972
0.1792789
0.1791351
0.1790529
0.1790318
0.1790683
0.1790359
0.1796421
0.1802094
0.1807556
0.1812554
0.1818174
0.1826406
0.185175
0.1766304
0.1774969
0.1782775
0.1789373
0.1794401
0.1797575
0.1798606
0.1797186
0.1792799
0.1784299
0.1768538
0.1764221
0.1762068
0.176116
0.1760983
0.1760171
0.1765344
0.177019
0.1774502
0.1778404
0.1781168
0.1784562
0.1791136
0.1814593
0.1716521
0.1720814
0.1723537
0.1725201
0.1726005
0.172495
0.1729205
0.1733038
0.1736376
0.1738987
0.1740516
0.1740962
0.1742339
0.1746674
0.1766648
0.1683362
0.1688096
0.1691547
0.1693744
0.1694663
0.1693286
0.1696747
0.1699802
0.170231
0.1704166
0.1704738
0.1704304
0.1703184
0.1702688
0.1704949
0.1659625
0.1664035
0.1667324
0.1669396
0.1670137
0.1668525
0.1671482
0.1674038
0.1676101
0.1677517
0.1677802
0.1676967
0.1675538
0.167329
0.1671455
0.1643002
0.1647145
0.1650235
0.1652161
0.1652791
0.1651135
0.1653858
0.1656222
0.1658134
0.1659493
0.1659801
0.1659181
0.165791
0.1655976
0.1653166
0.1632533
0.1636562
0.1639592
0.1641508
0.1642187
0.1640679
0.1643409
0.1645825
0.1647858
0.1649411
0.1650057
0.1649891
0.1649288
0.1648037
0.1646127
0.1701428
0.1698971
0.1712304
0.1717588
0.172037
0.1733896
0.1746814
0.174866
0.1751053
0.1765278
0.1785505
0.1787123
0.178708
0.1788105
0.1803122
0.184938
0.1860407
0.1870396
0.1878825
0.1885198
0.1889051
0.1889919
0.1887279
0.1880252
0.1867086
0.1842823
0.1833907
0.1827256
0.1823245
0.1823087
0.1838207
0.1838479
0.1849353
0.1859257
0.1867629
0.1873987
0.1877913
0.1879056
0.1877113
0.1871883
0.1863363
0.1853122
0.1849411
0.1846222
0.1843338
0.1842381
0.1843248
0.1870949
0.1828132
0.1838891
0.1848765
0.1857149
0.1863557
0.1867621
0.1869096
0.1867908
0.1864236
0.1858797
0.1853322
0.1852792
0.1852118
0.1851644
0.1851203
0.1850875
0.1862385
0.189075
0.1817992
0.1828587
0.1838383
0.1846732
0.1853157
0.1857322
0.1859064
0.1858436
0.185582
0.1852068
0.1848771
0.184974
0.1850659
0.1851433
0.1852348
0.1851726
0.1860649
0.1872757
0.1900903
0.1807834
0.1818203
0.1827816
0.1836035
0.1842382
0.1846554
0.1848426
0.1848116
0.1846062
0.1843149
0.1840807
0.1842482
0.1844084
0.1845673
0.1847125
0.1847327
0.1854853
0.1863978
0.187622
0.1903877
0.1797578
0.1807634
0.1816962
0.1824928
0.1831089
0.1835151
0.1837006
0.1836772
0.1834883
0.1832195
0.1830106
0.1831899
0.1833707
0.1835497
0.1837322
0.1837761
0.18453
0.185269
0.1861638