/*--------------------------------*- C++ -*----------------------------------*\
| =========                 |                                                 |
| \\      /  F ield         | OpenFOAM: The Open Source CFD Toolbox           |
|  \\    /   O peration     | Version:  2306                                  |
|   \\  /    A nd           | Website:  www.openfoam.com                      |
|    \\/     M anipulation  |                                                 |
\*---------------------------------------------------------------------------*/
FoamFile
{
    version     2.0;
    format      ascii;
    arch        "LSB;label=32;scalar=64";
    class       volVectorField;
    location    "0.6/phiI";
    object      i;
}
// * * * * * * * * * * * * * * * * * * * * * * * * * * * * * * * * * * * * * //

dimensions      [0 -2 0 0 0 1 0];

internalField   nonuniform List<vector> 
12000
(
(30.44857 -1.45517 1529.903)
(30.85792 -5.244483 1543.583)
(59.95215 2.638373 1408.873)
(30.93269 -2.002348 4644.339)
(31.63277 -9.234881 1571.183)
(60.54764 6.597541 1417.838)
(31.3609 -6.895665 4685.306)
(53.54055 4.499752 1307.501)
(60.84176 2.279764 4275.502)
(31.92392 -3.09386 7846.669)
(32.61409 -10.69244 1612.431)
(61.69004 8.326738 1435.463)
(32.17565 -11.98884 4767.909)
(53.80851 12.13437 1314.4)
(61.46437 5.533959 4302.352)
(32.38974 -10.18728 7915.448)
(43.65443 5.317947 1226.227)
(54.27113 4.22379 3965.437)
(62.66776 1.564355 7220.276)
(33.43826 -4.753519 11136.69)
(33.46486 -5.344353 1665.289)
(63.17188 7.628425 1460.504)
(33.22179 -14.45671 4891.298)
(54.34515 17.00748 1327.8)
(62.66357 6.620099 4355.121)
(33.28392 -17.47458 8054.065)
(43.77864 14.64351 1231.902)
(54.55225 11.3224 3986.099)
(63.34447 3.412793 7265.364)
(33.96124 -15.19151 11234.85)
(35.80825 5.741849 1158.659)
(44.2498 5.090931 3716.571)
(55.77627 3.673288 6692.528)
(65.45833 0.4762596 10242.01)
(35.50264 -7.020091 14558.72)
(33.65809 8.965184 1721.908)
(64.54822 5.095657 1490.047)
(34.16583 -9.7234 5049.244)
(55.08679 17.88935 1346.387)
(64.23606 5.44505 4430.134)
(34.45874 -21.94584 8261.061)
(44.04022 21.10957 1242.843)
(55.11562 15.728 4026.225)
(64.65677 3.215451 7353.964)
(34.97606 -25.81334 11432.66)
(35.87036 15.9923 1163.503)
(44.38223 13.97885 3733.569)
(56.08364 9.702843 6727.222)
(66.21728 0.1864415 10306.37)
(36.10364 -22.02606 14688.62)
(29.8191 5.939026 1100.472)
(36.31127 5.548093 3509.607)
(45.47775 4.638013 6268.725)
(58.07734 2.836009 9488.405)
(69.2609 -1.010049 13379.16)
(38.15649 -9.949454 16396.31)
(32.98799 25.14153 1766.21)
(65.08225 4.196474 1518.037)
(34.47357 4.928358 5218.038)
(55.88856 13.75935 1367.391)
(65.73981 2.794351 4518.697)
(35.58704 -18.41392 8525.792)
(44.41966 23.06255 1257.794)
(55.89763 16.30573 4081.938)
(66.40932 1.085355 7480.004)
(36.34602 -33.32578 11728.08)
(36.01021 23.41768 1172.793)
(44.66025 20.07391 3766.338)
(56.70028 13.17391 6794.607)
(67.7014 -1.965497 10432.87)
(37.28309 -37.20387 14950.45)
(29.84691 16.66304 1104.701)
(36.37916 15.42694 3524.116)
(45.62657 12.65283 6297.269)
(58.42463 7.239217 9537.927)
(70.13216 -4.221583 13464.34)
(38.85834 -30.86085 16542.24)
(25.24861 6.01997 1049.355)
(30.25632 5.769857 3331.398)
(37.34894 5.161486 5916.276)
(47.3548 3.94917 8883.509)
(61.21029 1.692435 12387.06)
(74.14494 -2.930992 15060.26)
(40.84684 -12.85722 16572.76)
(31.84798 31.99663 1795.402)
(64.37308 7.040469 1537.161)
(33.90418 22.20177 5349.622)
(56.4516 7.213854 1385.827)
(66.42657 2.311924 4602.659)
(36.1196 -3.049971 8808.111)
(44.86779 18.74379 1274.224)
(56.75185 12.18171 4145.009)
(68.16515 -1.805341 7628.971)
(37.75311 -31.6054 12105.81)
(36.22368 26.16501 1185.359)
(45.06377 21.80732 3811.169)
(57.56265 13.13801 6888.279)
(69.72719 -5.555246 10612.97)
(38.91918 -48.87191 15341.63)
(29.91794 24.64278 1112.781)
(36.53045 22.54343 3551.944)
(45.93735 18.00559 6352.305)
(59.12226 9.285736 9634.143)
(71.85085 -9.048487 13631.83)
(40.25053 -51.93397 16836.29)
(25.25701 16.98066 1053.11)
(30.28849 16.17067 3344.068)
(37.42837 14.29884 5940.64)
(47.52855 10.63566 8924.247)
(61.61214 3.873357 12452.59)
(75.16138 -9.92045 15155.93)
(41.64886 -39.62505 16717.63)
(21.66503 6.023083 1003.721)
(25.63561 5.869759 3174.854)
(31.15811 5.432257 5612.865)
(38.93471 4.573523 8380.674)
(49.90867 3.008491 11591.58)
(65.22766 0.2148986 13935.01)
(79.10612 -4.836977 15218.35)
(43.57416 -15.7443 16750.45)
(30.78376 25.49106 1812.419)
(62.90006 9.954348 1548.212)
(32.83674 30.14826 5435.874)
(56.47485 3.319612 1396.899)
(65.85033 5.833453 4659.952)
(35.74667 16.42808 9027.437)
(45.25311 10.05934 1287.891)
(57.37219 6.033502 4200.534)
(69.15226 -1.453719 7770.38)
(38.62449 -15.13747 12508.22)
(36.49718 22.09384 1198.907)
(45.54173 17.53992 3860.555)
(58.52113 9.015504 6994.559)
(71.86474 -8.820724 10826.11)
(40.70584 -49.61968 15841.94)
(30.03411 27.93226 1123.632)
(36.76033 25.12047 3589.634)
(46.38888 19.29388 6427.71)
(60.10681 8.307664 9768.052)
(74.24943 -14.64437 13870.53)
(42.23043 -68.98544 17275.67)
(25.28816 25.28961 1060.264)
(30.36806 23.88557 3368.274)
(37.60246 20.79697 5987.38)
(47.88916 14.85629 9002.828)
(62.42045 3.968893 12579.97)
(77.18331 -18.21301 15344.01)
(43.25219 -66.54108 17009.28)
(21.661 17.05855 1007.096)
(25.64743 16.54432 3186.105)
(31.19896 15.188 5634.14)
(39.03168 12.58277 8415.443)
(50.11651 7.880064 11645.47)
(65.70011 -0.4771826 14008.58)
(80.26678 -15.57148 15313.29)
(44.47571 -48.32155 16894.31)
(18.81535 5.979691 962.5481)
(22.01225 5.888089 3035.11)
(26.43376 5.569932 5346.385)
(32.53588 4.918856 7947.97)
(41.0911 3.770751 10930.84)
(53.1797 1.793525 13032.59)
(69.32097 -1.250672 14072.68)
(84.14527 -6.728735 15377.5)
(46.33863 -18.61155 16928.34)
(30.16778 9.5733 1820.174)
(61.44382 8.689015 1554.013)
(31.81738 24.50017 5485.885)
(56.05691 2.704052 1402.145)
(64.47308 9.280247 4692.912)
(34.81983 26.54615 9170.523)
(45.40437 3.093565 1295.231)
(57.44257 2.666912 4233.975)
(68.83567 3.430383 7866.802)
(38.54673 7.705283 12820.24)
(36.76919 12.57961 1209.741)
(45.95746 9.21909 3901.817)
(59.25497 3.655198 7088.486)
(73.30507 -7.201283 11028.81)
(42.03727 -31.62695 16374.77)
(30.19712 24.1989 1135.166)
(37.05341 21.11859 3630.374)
(46.92633 15.11785 6511.017)
(61.22367 4.173416 9920.328)
(76.9071 -18.43883 14153.48)
(44.50696 -72.93093 17837.76)
(25.34607 28.9568 1069.817)
(30.49628 27.03688 3400.823)
(37.86506 23.02781 6050.788)
(48.41374 15.45883 9110.646)
(63.57195 1.690581 12757.5)
(80.06372 -26.42116 15612.23)
(45.57292 -88.931 17445.06)
(21.66607 25.53337 1013.509)
(25.68525 24.62134 3207.539)
(31.29556 22.37257 5674.801)
(39.24047 18.13754 8482.175)
(50.54522 10.54961 11749.49)
(66.65164 -2.910569 14151.58)
(82.58965 -27.30055 15499.76)
(46.28862 -81.03086 17183.65)
(18.8035 16.99111 965.6102)
(22.011 16.66705 3045.223)
(26.45239 15.67328 5365.279)
(32.58993 13.69321 7978.326)
(41.21205 10.23883 10976.82)
(53.43164 4.319369 13093.09)
(69.86353 -4.78982 14145.68)
(85.44921 -21.17696 15471.75)
(47.33908 -56.95313 17071.23)
(16.49881 5.9045 925.0675)
(19.12997 5.857204 2909.021)
(22.72836 5.618558 5108.533)
(27.65294 5.113997 7568.053)
(34.4086 4.21802 10362.58)
(43.85071 2.734254 12283.13)
(56.51619 0.5885327 13152.54)
(73.49086 -2.704877 14211.33)
(89.2626 -8.606961 15536.85)
(49.14011 -21.45976 17105.41)
(30.16778 -9.5733 1820.174)
(60.57856 3.413464 1556.488)
(31.22252 9.263123 5508.58)
(55.52993 2.276101 1404.254)
(63.07649 8.357996 4710.092)
(33.88693 22.58283 9253.085)
(45.3252 0.5052428 1297.95)
(57.05796 2.409879 4249.844)
(67.64418 7.948752 7922.061)
(37.83059 21.12237 13023.28)
(36.93466 4.040472 1215.03)
(46.13184 2.691196 3924.136)
(59.41811 1.347227 7145.278)
(73.37896 -0.2337632 11167.04)
(42.35945 -4.174008 16787.39)
(30.38017 14.43417 1144.12)
(37.34427 11.93469 3663.131)
(47.40272 7.516098 6581.02)
(62.12963 0.004752366 10055.45)
(78.96337 -15.09089 14423.16)
(46.43093 -52.95527 18436.06)
(25.43886 25.55447 1079.867)
(30.67328 23.37937 3435.517)
(38.19732 19.15397 6119.547)
(49.04177 11.40753 9230.104)
(64.90517 -2.48029 12959.88)
(83.39301 -30.92599 15930.63)
(48.33436 -96.0354 18002.62)
(21.68483 29.43926 1022.037)
(25.75245 28.17266 3236.202)
(31.44784 25.24254 5729.564)
(39.55291 19.8338 8572.844)
(51.16971 10.20283 11892.43)
(68.0192 -6.888452 14351.08)
(85.94779 -38.10936 15765.85)
(48.94727 -108.719 17616)
(18.79174 25.52793 971.4164)
(22.02146 24.93573 3064.442)
(26.50349 23.28574 5401.285)
(32.71244 20.06861 8036.373)
(41.46828 14.50091 11065.13)
(53.94852 4.977919 13209.84)
(70.95714 -9.730927 14287.41)
(88.07078 -36.31535 15656.69)
(49.36003 -95.40884 17358.36)
(16.48211 16.82245 927.8669)
(19.12041 16.63638 2918.2)
(22.73262 15.88526 5125.518)
(27.68192 14.34833 7595.008)
(34.4807 11.65187 10402.72)
(44.0027 7.210963 12334.74)
(56.8119 0.7901433 13212.56)
(74.10304 -9.066431 14283.77)
(90.70893 -26.7391 15630.44)
(50.23885 -65.52245 17247.37)
(14.58768 5.812746 890.7258)
(16.7861 5.792524 2794.231)
(19.77887 5.612557 4893.937)
(23.82205 5.208707 7229.032)
(29.30951 4.491729 9863.889)
(36.80368 3.313443 11638.76)
(46.66642 1.706365 12387.94)
(59.91865 -0.6069837 13273.39)
(77.73741 -4.148295 14350.22)
(94.45775 -10.47231 15695.53)
(51.97816 -24.28964 15350.16)
(30.78376 -25.49106 1812.419)
(60.57856 -3.413462 1556.488)
(31.22252 -9.263123 5508.58)
(55.18766 0.9206633 1404.938)
(62.23951 3.314483 4717.373)
(33.3326 8.6655 9290.414)
(45.15555 -0.003563706 1298.517)
(56.55192 2.164401 4256.218)
(66.36249 7.710571 7950.69)
(37.02696 19.70453 13140.14)
(36.9696 0.215855 1216.473)
(46.06789 0.3737836 3932.517)
(59.09849 1.814347 7172.315)
(72.46591 5.924705 11246.15)
(41.92835 13.75013 17055.48)
(30.51803 5.097672 1148.146)
(37.523 3.771189 3679.293)
(47.6231 1.865569 6619.216)
(62.43291 -0.6862553 10137.48)
(79.56671 -5.263125 14607.2)
(47.26747 -19.52327 18897.97)
(25.5576 15.78873 1087.492)
(30.86916 13.91498 3462.609)
(38.52602 10.62285 6175.217)
(49.61053 4.891147 9331.057)
(66.04598 -5.030771 13140.23)
(86.24323 -25.35016 16234.56)
(50.84326 -74.03529 18595.54)
(21.72786 26.31416 1030.935)
(25.85578 24.84746 3266.435)
(31.65287 21.72744 5788.137)
(39.94493 16.14139 8671.486)
(51.9217 6.301429 12051.3)
(69.6324 -11.13585 14578.97)
(89.94228 -43.33201 16082.13)
(52.18892 -118.9501 18169.37)
(18.78457 29.57467 979.1114)
(22.04765 28.74222 3090.034)
(26.58923 26.60095 5449.514)
(32.90137 22.50344 8114.681)
(41.84892 15.45536 11185.34)
(54.70239 3.386462 13370.46)
(72.53905 -15.40467 14485.3)
(91.90273 -49.71596 15920.78)
(52.35381 -128.3599 17787.47)
(16.45961 25.34407 933.1646)
(19.11312 24.98789 2935.606)
(22.7538 23.74092 5157.808)
(27.75322 21.25194 7646.404)
(34.63864 16.91837 10479.52)
(44.32034 9.796936 12433.84)
(57.41619 -0.5452735 13328.26)
(75.33764 -16.49563 14424.3)
(93.62703 -45.26156 15813.93)
(52.46635 -109.6804 17532.38)
(14.56828 16.5991 893.3008)
(16.77135 16.49857 2802.624)
(19.77389 15.92773 4909.353)
(23.8347 14.69608 7253.26)
(29.35265 12.53923 9899.518)
(36.89914 9.015688 11683.8)
(46.8492 4.210188 12439.13)
(60.25781 -2.709167 13332.95)
(78.41875 -13.30884 14422.14)
(96.04558 -32.26001 15788.49)
(53.17459 -74.03194 15475.76)
(12.99042 5.710464 859.0844)
(14.85161 5.709747 2689.037)
(17.37875 5.568773 4698.571)
(20.76982 5.240549 6923.218)
(25.3077 4.649438 9419.05)
(31.42707 3.688825 11073.4)
(39.24749 2.416428 11730.55)
(49.53869 0.6866667 12493.59)
(63.38717 -1.793508 13394.53)
(82.06014 -5.581476 14488.64)
(99.72972 -12.32537 14089.14)
(54.18419 -26.4838 11755.89)
(31.84798 -31.99662 1795.402)
(61.44382 -8.689013 1554.013)
(31.81738 -24.50017 5485.885)
(55.18766 -0.9206627 1404.938)
(62.23951 -3.314481 4717.373)
(33.3326 -8.6655 9290.414)
(45.03232 -0.009328359 1298.469)
(56.21973 0.8933092 4258.278)
(65.57977 3.12224 7962.751)
(36.53317 7.769948 13192.88)
(36.93513 -0.6527057 1216.315)
(45.9073 -0.02431905 3934.35)
(58.6329 1.938724 7183.202)
(71.35602 6.730394 11287.01)
(41.29944 15.79873 17209.57)
(30.5802 0.5099521 1148.876)
(37.5659 0.1644409 3683.854)
(47.58915 0.09667115 6633.808)
(62.21098 0.8928996 10176.72)
(79.0304 3.150095 14712.47)
(47.20263 4.234992 19196.86)
(25.66165 6.040771 1090.687)
(31.0154 4.907422 3474.954)
(38.73139 3.211539 6203.045)
(49.90077 0.5796743 9386.603)
(66.53988 -3.503722 13250.2)
(87.52774 -11.80625 16441.79)
(52.18418 -34.60584 19050.8)
(21.79618 16.66208 1037.563)
(25.98382 15.35592 3289.514)
(31.87464 12.8567 5834.225)
(40.33145 8.59477 8751.903)
(52.6169 1.256154 12186.36)
(71.07683 -11.60799 14782.7)
(93.57681 -35.5371 16384.36)
(55.27565 -94.88241 18757.42)
(18.79322 26.66795 987.0859)
(22.09898 25.69312 3116.804)
(26.71371 23.42199 5500.562)
(33.14922 19.19291 8198.728)
(42.32283 11.99162 11316.57)
(55.61501 -0.3496963 13549.41)
(74.43008 -19.7452 14711.79)
(96.55632 -55.6663 16235.15)
(56.07123 -141.6922 18336.98)
(16.43525 29.45401 940.1654)
(19.11205 28.94789 2958.703)
(22.79483 27.34477 5200.874)
(27.86721 24.20158 7715.365)
(34.87775 18.74835 10583.32)
(44.78935 9.776485 12568.89)
(58.29845 -3.379959 13487.58)
(77.13229 -23.86356 14620.7)
(97.92901 -61.24785 16076.14)
(55.79257 -147.8638 17958.41)
(14.53943 25.05929 898.165)
(16.75261 24.85213 2818.512)
(19.77547 23.9078 4938.602)
(23.87219 21.92151 7299.348)
(29.45159 18.47145 9967.505)
(37.10295 12.84446 11769.97)
(47.22773 5.134633 12537.34)
(60.94882 -6.022821 13447.65)
(79.79331 -23.20806 14561.53)
(99.25811 -54.1432 15970.6)
(55.60718 -123.8506 15727.82)
(12.96922 16.33993 861.4651)
(14.83388 16.30154 2696.76)
(17.36787 15.85123 4712.671)
(20.7718 14.84979 6945.206)
(25.33183 13.07264 9451.067)
(31.48853 10.20369 11113.38)
(39.36612 6.403264 11775.22)
(49.75205 1.235205 12544.38)
(63.76947 -6.180088 13453.65)
(82.81022 -17.51881 14560.05)
(101.4582 -37.74169 14171.43)
(55.45617 -80.62871 11850.95)
(11.64671 5.60071 829.7982)
(13.23413 5.615236 2592.092)
(15.39624 5.503829 4519.525)
(18.28374 5.228537 6644.851)
(22.11559 4.73301 9017.915)
(27.20594 3.928053 10569.2)
(33.58776 2.892651 11153.75)
(41.74048 1.526628 11823.09)
(52.46762 -0.3252472 12599.55)
(66.92136 -2.971507 13515.36)
(86.45808 -7.004942 13007.01)
(103.8304 -13.764 10798.48)
(55.80779 -28.09213 8319.447)
(32.98799 -25.14153 1766.21)
(62.90006 -9.954346 1548.212)
(32.83674 -30.14825 5435.874)
(55.52993 -2.276101 1404.254)
(63.07649 -8.357994 4710.092)
(33.88693 -22.58283 9253.085)
(45.03232 0.009329141 1298.469)
(56.21973 -0.8933086 4258.278)
(65.57977 -3.122238 7962.751)
(36.53317 -7.769948 13192.88)
(36.89839 -0.3116434 1215.938)
(45.78831 -0.007401541 3934.264)
(58.32009 0.83825 7186.725)
(70.65426 2.832052 11304.18)
(40.88742 6.555875 17279.04)
(30.59222 -0.7156708 1148.353)
(37.53579 -0.6313255 3683.528)
(47.44631 -0.07343218 6637.192)
(61.80591 1.588025 10192.62)
(78.15257 5.389367 14766.79)
(46.79808 10.76217 19367.99)
(25.72134 0.9577605 1090.997)
(31.0821 0.5016526 3477.358)
(38.79024 0.04644963 6211.225)
(49.91225 -0.3452713 9408.193)
(66.4503 -0.3913437 13303.12)
(87.47539 -0.4588517 16559.93)
(52.47607 -5.050666 19343.18)
(21.86611 6.735109 1040.172)
(26.09355 5.90059 3299.332)
(32.03787 4.507713 5855.58)
(40.57754 2.330875 8792.606)
(53.00258 -1.219888 12261.31)
(71.81649 -7.20165 14907.24)
(95.52963 -18.27773 16589.84)
(57.11129 -49.42898 19206.3)
(18.8243 17.17129 992.937)
(22.1744 16.29261 3136.868)
(26.86056 14.47288 5539.844)
(33.41066 11.21726 8265.376)
(42.78874 5.778034 11424.33)
(56.47412 -3.509256 13702.2)
(76.17542 -18.16181 14914.79)
(100.9662 -45.65872 16535.93)
(59.72922 -115.5122 18920.69)
(16.42015 26.71147 947.3794)
(19.12744 26.11493 2982.699)
(22.8628 24.44082 5246.078)
(28.02402 21.23428 7788.62)
(35.18433 15.69963 10695.16)
(45.3695 6.581457 12716.72)
(59.3707 -6.968335 13665.44)
(79.29915 -28.31523 14845.95)
(103.236 -67.93816 16388.82)
(59.98156 -164.2789 18504.41)
(14.50461 29.18012 904.5768)
(16.73339 28.88542 2839.531)
(19.78658 27.69093 4977.474)
(23.93581 25.21139 7360.922)
(29.60426 20.91229 10058.9)
(37.4071 13.87805 11886.58)
(47.78445 4.140377 12671.27)
(61.95853 -10.10094 13605.75)
(81.79915 -32.27051 14756.53)
(104.0265 -72.71169 16231.05)
(59.26324 -167.2407 16104.57)
(12.93603 24.70742 865.9547)
(14.80827 24.60825 2711.353)
(17.35662 23.86778 4739.373)
(20.78686 22.26304 6986.95)
(25.39162 19.43445 9512.017)
(31.62324 14.87659 11189.65)
(39.6154 8.807164 11860.61)
(50.19095 0.5116 12641.72)
(64.54652 -11.45754 13567.41)
(84.32373 -29.8715 14698.37)
(104.9631 -62.96409 14332.56)
(58.04739 -134.8328 12041.68)
(11.62453 16.05516 832.0094)
(13.21438 16.06512 2599.235)
(15.38183 15.70644 4532.502)
(18.27876 14.86652 6664.96)
(22.12709 13.37844 9046.965)
(27.24492 10.97741 10605.12)
(33.66739 7.889236 11193.39)
(41.8821 3.8135 11867.41)
(52.71134 -1.715274 12649.96)
(67.34653 -9.624111 13574.06)
(87.27648 -21.69805 13070.26)
(105.6676 -41.99669 10860.82)
(57.13512 -85.4638 8386.043)
(10.50277 5.488649 802.5826)
(11.87272 5.512264 2502.338)
(13.73722 5.42474 4354.501)
(16.22789 5.190698 6389.766)
(19.51255 4.764423 8652.887)
(23.83447 4.078553 10114.58)
(29.14299 3.212684 10639.31)
(35.79202 2.102915 11234.77)
(44.28277 0.6436979 11915.97)
(55.45296 -1.329775 12705.32)
(70.52042 -4.141428 12133.35)
(89.8833 -8.111508 9975.884)
(106.8497 -14.81882 7645.003)
(56.88197 -29.14762 4988.222)
(33.65809 -8.965185 1721.908)
(64.37308 -7.040467 1537.161)
(33.90418 -22.20177 5349.622)
(56.05691 -2.704051 1402.145)
(64.47308 -9.280245 4692.912)
(34.81983 -26.54614 9170.523)
(45.15555 0.003564541 1298.517)
(56.55192 -2.164401 4256.218)
(66.36249 -7.710569 7950.69)
(37.02696 -19.70453 13140.14)
(36.89839 0.3116436 1215.938)
(45.78831 0.007402327 3934.264)
(58.32009 -0.8382494 7186.725)
(70.65426 -2.832051 11304.18)
(40.88742 -6.555875 17279.04)
(30.58796 -0.3767174 1147.824)
(37.50097 -0.2965732 3682.467)
(47.33556 -0.005878092 6637.185)
(61.522 0.7523976 10197.8)
(77.56008 2.435625 14789.58)
(46.49104 4.991112 19444.94)
(25.74565 -0.5750659 1090.288)
(31.09633 -0.6735789 3475.928)
(38.76882 -0.5972207 6211.003)
(49.7961 -0.159414 9413.498)
(66.12695 1.095493 13324.74)
(86.89534 3.646255 16620.62)
(52.28892 5.875613 19509.43)
(21.91159 1.349936 1040.217)
(26.15598 0.9737403 3300.448)
(32.11383 0.4709944 5860.099)
(40.66073 -0.1538804 8805.043)
(53.07587 -0.9791639 12290.97)
(71.89698 -2.089007 14967.29)
(95.94868 -4.00328 16706.2)
(57.75053 -14.11007 19492.28)
(18.86567 7.194899 995.1133)
(22.24841 6.628946 3144.896)
(26.98188 5.603423 5556.886)
(33.60004 3.87248 8296.765)
(43.09073 1.085942 11479.57)
(56.98326 -3.604801 13787.51)
(77.157 -10.88716 15039.01)
(103.5749 -24.68012 16739.78)
(62.05026 -64.00024 19363.44)
(16.42414 17.38654 952.6037)
(19.16413 16.85019 3000.412)
(22.95259 15.5384 5280.238)
(28.19977 13.10297 7845.465)
(35.50039 8.935214 10784.57)
(45.93861 2.074526 12838.73)
(60.3928 -8.26785 13817.83)
(81.34293 -24.69683 15048.38)
(108.413 -55.72198 16688.4)
(64.20478 -135.9405 19084.28)
(14.4744 26.55689 911.1515)
(16.72389 26.21393 2861.245)
(19.81546 24.9996 5018)
(24.02923 22.51854 7425.794)
(29.80545 18.218 10156.38)
(37.78996 11.14283 12012.54)
(48.47029 1.198241 12818.17)
(63.1895 -13.5599 13782.67)
(84.24 -36.85266 14980.71)
(109.9814 -80.15674 16542.25)
(63.91986 -186.727 16587.54)
(12.89393 28.8037 871.8593)
(14.77784 28.66066 2730.612)
(17.34761 27.74469 4774.756)
(20.81652 25.77196 7042.525)
(25.48618 22.28693 9593.61)
(31.82606 16.64656 11292.31)
(39.98409 9.045698 11976.22)
(50.83477 -1.45673 12774.61)
(65.68282 -16.78089 13724.38)
(86.53932 -40.63079 14892.08)
(110.1943 -84.11396 14563.09)
(61.95851 -182.2527 12326.74)
(11.58874 24.30637 836.1722)
(13.184 24.29165 2612.711)
(15.36263 23.7052 4557.035)
(18.27888 22.36874 6703.066)
(22.16059 20.01503 9102.158)
(27.33358 16.21979 10673.49)
(33.83753 11.31436 11268.96)
(42.17645 4.804449 11952.04)
(53.21016 -4.074548 12746.49)
(68.20899 -16.8522 13686.93)
(88.92798 -36.48915 13192.7)
(109.3986 -69.80938 10982.84)
(59.84254 -142.8821 8519.648)
(10.48047 15.76021 804.6442)
(11.85181 15.8002 2508.976)
(13.72036 15.51518 4366.506)
(16.21854 14.80116 6408.271)
(19.51561 13.52262 8679.447)
(23.85828 11.48006 10147.17)
(29.19667 8.900976 10674.94)
(35.88967 5.594949 11274.1)
(44.44723 1.245304 11959.95)
(55.72684 -4.642522 12755.37)
(70.98819 -13.04269 12185.36)
(90.7545 -24.94637 10023.84)
(108.7666 -45.11623 7688.668)
(58.24567 -88.63675 5027.629)
(9.513048 5.377697 777.211)
(10.71312 5.406184 2418.908)
(12.33945 5.335227 4201.696)
(14.50545 5.135044 6154.676)
(17.35694 4.763622 8318.47)
(21.08152 4.166142 9700.919)
(25.58871 3.429494 10175.42)
(31.11924 2.503087 10710.03)
(38.04001 1.319325 11316.12)
(46.87419 -0.2327042 12008.75)
(58.49407 -2.327306 11405.71)
(73.32653 -5.051996 9311.144)
(92.40742 -8.923346 7064.961)
(108.8483 -15.51059 4583.886)
(57.42513 -29.66843 1671.309)
(33.46486 5.344351 1665.289)
(65.08225 -4.196474 1518.037)
(34.47357 -4.928359 5218.038)
(56.47485 -3.319612 1396.899)
(65.85033 -5.833451 4659.952)
(35.74667 -16.42808 9027.437)
(45.3252 -0.5052419 1297.95)
(57.05796 -2.409878 4249.844)
(67.64418 -7.948749 7922.061)
(37.83059 -21.12236 13023.28)
(36.93513 0.652706 1216.315)
(45.9073 0.02431989 3934.35)
(58.6329 -1.938723 7183.202)
(71.35602 -6.730391 11287.01)
(41.29944 -15.79872 17209.57)
(30.58796 0.3767176 1147.824)
(37.50097 0.2965734 3682.467)
(47.33556 0.005878885 6637.185)
(61.522 -0.752397 10197.8)
(77.56008 -2.435623 14789.58)
(46.49104 -4.991111 19444.94)
(25.75211 -0.3541909 1089.69)
(31.09296 -0.3555374 3474.406)
(38.73782 -0.2692051 6209.375)
(49.69771 -0.007116195 9413.711)
(65.88195 0.6309865 13331.87)
(86.44297 1.920639 16645.98)
(52.08325 3.478073 19583.8)
(21.93374 -0.4079481 1039.412)
(26.18141 -0.5227965 3298.441)
(32.13257 -0.5975799 5858.005)
(40.65253 -0.55733 8805.219)
(52.99591 -0.2941622 12298.7)
(71.67829 0.43795 14991.87)
(95.65704 1.947452 16765.48)
(57.77387 1.137468 19653.7)
(18.89537 1.634042 994.9858)
(22.29563 1.380332 3145.194)
(27.05 0.993365 5559.192)
(33.69024 0.4046405 8303.934)
(43.20727 -0.4580602 11497.12)
(57.13624 -1.840914 13821.64)
(77.40346 -3.776558 15098.78)
(104.453 -7.484221 16854.39)
(63.02765 -22.94678 19643.14)
(16.44315 7.445811 954.4475)
(19.20856 7.112946 3007.117)
(23.03497 6.402072 5294.214)
(28.33901 5.12666 7870.618)
(35.72583 2.965395 10827.39)
(46.31321 -0.5804863 12901.84)
(61.02417 -5.99729 13903.29)
(82.56272 -14.56149 15172.34)
(111.6654 -31.01593 16890.7)
(67.00224 -78.32733 19521.17)
(14.4602 17.40128 915.858)
(16.73246 17.10381 2877.062)
(19.86352 16.19457 5048.163)
(24.14112 14.36719 7475.249)
(30.02107 11.19296 10232.7)
(38.17718 5.927836 12113.81)
(49.14232 -1.627045 12939.87)
(64.37381 -13.02301 13934.79)
(86.58 -31.21753 15182.76)
(115.9179 -65.7337 16840.87)
(68.70284 -156.1828 17100.39)
(12.85296 26.2673 877.8872)
(14.75237 26.10564 2750.407)
(17.34932 25.21026 4811.43)
(20.86603 23.28739 7100.682)
(25.61455 19.86774 9679.93)
(32.08492 14.28218 11402.08)
(40.44288 6.610356 12101.35)
(51.62585 -4.162472 12920.7)
(67.07172 -20.12971 13900.49)
(89.25249 -45.36412 15115.34)
(116.7922 -92.33098 14838.74)
(66.97675 -204.1117 12692.08)
(11.54201 28.34939 841.6362)
(13.14569 28.3264 2630.454)
(15.34092 27.61795 4589.462)
(18.28544 26.00311 6753.65)
(22.21566 23.14163 9175.788)
(27.46827 18.4949 10765.12)
(34.0901 12.41518 11370.73)
(42.60925 4.248086 12066.73)
(53.94053 -7.018565 12878.4)
(69.47106 -23.42416 13842.86)
(91.35194 -48.94948 13364.26)
(114.9877 -92.95917 11157.41)
(63.94055 -193.2566 8719.352)
(10.44383 23.88219 808.5192)
(11.81848 23.92129 2521.477)
(13.69553 23.45864 4389.167)
(16.20909 22.32985 6443.282)
(19.53129 20.32016 8729.821)
(23.91565 17.1101 10209.08)
(29.31391 13.03433 10742.68)
(36.09493 7.78303 11349)
(44.78629 0.8342766 12043.86)
(56.28513 -8.62617 12851.13)
(71.93545 -22.20949 12285.32)
(92.51267 -41.63149 10116.66)
(112.6632 -74.82774 7774.135)
(61.02945 -148.1652 5106.672)
(9.491194 15.46575 779.1396)
(10.69195 15.52274 2425.099)
(12.32107 15.28961 4212.853)
(14.49298 14.67848 6171.795)
(17.35449 13.56581 8342.907)
(21.09499 11.78916 9730.712)
(25.62471 9.598471 10207.75)
(31.18751 6.842558 10745.37)
(38.15554 3.319898 11355.15)
(47.06133 -1.302414 12052.42)
(58.79792 -7.54779 11450.08)
(73.82723 -15.703 9350.621)
(93.31725 -27.32927 7098.566)
(110.8175 -47.16194 4609.699)
(58.80683 -90.20184 1684.329)
(8.649968 5.270106 753.4969)
(9.709391 5.300552 2341.105)
(11.14771 5.241012 4059.634)
(13.05219 5.065978 5937.006)
(15.54826 4.739984 8010.332)
(18.79811 4.213242 9321.953)
(22.68307 3.572715 9753.259)
(27.37868 2.78563 10236.8)
(33.13486 1.799013 10781.07)
(40.3316 0.5415885 11397.45)
(49.51425 -1.102914 10779.73)
(60.86745 -3.104543 8757.05)
(75.39576 -5.720506 6595.975)
(94.07941 -9.455715 4235.546)
(109.8604 -15.85134 1535.519)
(32.61409 10.69244 1612.431)
(64.54821 -5.095658 1490.047)
(34.16583 9.723399 5049.244)
(56.4516 -7.213853 1385.827)
(66.42657 -2.311924 4602.659)
(36.1196 3.04997 8808.111)
(45.40437 -3.093564 1295.231)
(57.44257 -2.666911 4233.975)
(68.83567 -3.430381 7866.802)
(38.54673 -7.705281 12820.24)
(36.9696 -0.2158548 1216.473)
(46.06789 -0.3737826 3932.517)
(59.09849 -1.814347 7172.315)
(72.46591 -5.924703 11246.15)
(41.92835 -13.75012 17055.48)
(30.59222 0.715671 1148.353)
(37.53579 0.6313257 3683.528)
(47.44631 0.07343302 6637.192)
(61.80591 -1.588025 10192.62)
(78.15257 -5.389365 14766.79)
(46.79808 -10.76216 19367.99)
(25.75211 0.3541904 1089.69)
(31.09296 0.3555376 3474.406)
(38.73782 0.2692053 6209.375)
(49.69771 0.007116997 9413.711)
(65.88195 -0.6309859 13331.87)
(86.44297 -1.920637 16645.98)
(52.08325 -3.478073 19583.8)
(21.94159 -0.3120527 1038.788)
(26.18826 -0.3302942 3296.708)
(32.131 -0.3158334 5855.597)
(40.62732 -0.2314507 8803.134)
(52.91423 -0.01439468 12299.32)
(71.48302 0.4674167 14999.98)
(95.33989 1.421406 16790.05)
(57.66602 2.016246 19725.53)
(18.91093 -0.2750937 994.1337)
(22.31836 -0.3507826 3142.882)
(27.07783 -0.4254763 5556.102)
(33.71594 -0.4935112 8301.421)
(43.21713 -0.5208553 11498.07)
(57.10277 -0.4932702 13830.81)
(77.28619 -0.2123388 15123.15)
(104.4405 0.2923232 16912.26)
(63.25466 -3.45414 19799.8)
(16.45896 1.802555 954.202)
(19.23943 1.673227 3006.873)
(23.08589 1.430505 5295.097)
(28.41599 1.005113 7874.575)
(35.8357 0.2847661 10837.92)
(46.47297 -0.8939138 12922.38)
(61.25548 -2.71137 13937.66)
(82.97114 -5.454335 15231.85)
(112.9904 -10.90272 17003.59)
(68.30876 -31.56459 19794.72)
(14.46334 7.543056 917.4381)
(16.75385 7.381882 2882.749)
(19.91426 6.93644 5059.864)
(24.2365 6.034603 7495.951)
(30.18514 4.439021 10267.17)
(38.44965 1.73883 12162.88)
(49.58924 -2.260295 13003.27)
(65.12625 -8.398056 14020.43)
(88.0344 -18.22582 15306.5)
(119.8026 -37.28758 17041.71)
(71.96809 -92.41801 17485.36)
(12.8255 17.27595 882.1569)
(14.74198 17.14981 2764.66)
(17.36715 16.52638 4838.371)
(20.9316 15.17565 7144.365)
(25.75699 12.73212 9746.368)
(32.3526 8.671395 11488.53)
(40.90119 2.9216 12202.33)
(52.40061 -5.329326 13042.19)
(68.41758 -17.77804 14052.46)
(91.8867 -37.72829 15317.16)
(123.4814 -75.70056 15103.44)
(72.19259 -171.8532 13080)
(11.49376 25.8726 847.192)
(13.10879 25.8554 2648.611)
(15.32493 25.19497 4622.904)
(18.30427 23.66932 6806.28)
(22.29351 20.92601 9253.168)
(27.64208 16.40821 10862.31)
(34.40637 10.36923 11479.74)
(43.14366 2.098455 12191.13)
(54.83646 -9.505068 13023.79)
(71.01719 -26.68299 14018.28)
(94.33588 -53.85604 13562.21)
(122.0827 -101.7709 11366.09)
(69.22383 -216.8577 8975.388)
(10.39513 27.8539 813.596)
(11.77506 27.90859 2537.905)
(13.66476 27.36768 4419.052)
(16.20065 26.02591 6489.638)
(19.55916 23.61614 8796.825)
(24.00366 19.73157 10291.76)
(29.48837 14.73409 10833.52)
(36.39688 8.215394 11449.94)
(45.28277 -0.5179715 12157.69)
(57.10153 -12.5488 12982.15)
(73.32254 -30.03498 12423.5)
(95.09769 -55.41118 10246.71)
(118.5145 -99.44373 7896.415)
(65.25026 -200.4823 5224.858)
(9.454951 23.45298 782.7589)
(10.65749 23.52412 2436.742)
(12.29261 23.1492 4233.883)
(14.47661 22.18982 6204.134)
(17.35836 20.45052 8389.179)
(21.1308 17.67359 9787.216)
(25.70568 14.23133 10269.1)
(31.33304 9.876581 10812.52)
(38.39561 4.280844 11429.41)
(47.44476 -3.10538 12135.65)
(59.41527 -13.14559 11534.93)
(74.84006 -26.37749 9426.475)
(95.15345 -45.4036 7163.596)
(114.8228 -78.11923 4660.214)
(61.62838 -150.7713 1710.436)
(8.62855 15.17924 755.3065)
(9.688545 15.24383 2346.899)
(11.12878 15.04683 4070.044)
(13.03766 14.51272 5952.915)
(15.54178 13.53687 8032.933)
(18.8046 11.9728 9349.363)
(22.70684 10.07074 9782.813)
(27.42677 7.733029 10268.87)
(33.21761 4.801364 10816.14)
(40.46489 1.063145 11436.2)
(49.72392 -3.830738 10818.45)
(61.19449 -9.81111 8790.756)
(75.92054 -17.65591 6623.649)
(95.01457 -28.89176 4255.405)
(111.8555 -48.16935 1544.037)
(7.900433 5.163515 731.2804)
(8.83369 5.197723 2268.356)
(10.11526 5.145923 3927.126)
(11.8114 4.989786 5734.647)
(14.01956 4.698851 7725.08)
(16.87901 4.231001 8972.755)
(20.2696 3.667223 9366.412)
(24.31756 2.983975 9806.06)
(29.20459 2.146753 10298.48)
(35.18981 1.100213 10852.15)
(42.66642 -0.2305864 10230.15)
(51.57646 -1.78162 8280.009)
(62.61861 -3.675558 6204.868)
(76.76691 -6.158981 3953.75)
(94.92797 -9.717709 1418.279)
(31.63277 9.23488 1571.183)
(63.17188 -7.628426 1460.504)
(33.22179 14.45671 4891.298)
(55.88856 -13.75935 1367.391)
(65.73981 -2.794352 4518.697)
(35.58704 18.41392 8525.792)
(45.25311 -10.05934 1287.891)
(57.37219 -6.033502 4200.534)
(69.15226 1.453719 7770.38)
(38.62449 15.13747 12508.22)
(36.93466 -4.040472 1215.03)
(46.13184 -2.691195 3924.136)
(59.41811 -1.347226 7145.278)
(73.37896 0.2337648 11167.04)
(42.35945 4.17401 16787.39)
(30.5802 -0.5099519 1148.876)
(37.5659 -0.1644406 3683.854)
(47.58915 -0.0966702 6633.808)
(62.21098 -0.8928992 10176.72)
(79.0304 -3.150093 14712.47)
(47.20263 -4.234987 19196.86)
(25.74565 0.5750656 1090.288)
(31.09633 0.6735791 3475.928)
(38.76882 0.5972209 6211.003)
(49.7961 0.1594148 9413.498)
(66.12695 -1.095492 13324.74)
(86.89534 -3.646253 16620.62)
(52.28892 -5.87561 19509.43)
(21.94159 0.3120535 1038.788)
(26.18826 0.3302937 3296.708)