/*--------------------------------*- C++ -*----------------------------------*\
| =========                 |                                                 |
| \\      /  F ield         | OpenFOAM: The Open Source CFD Toolbox           |
|  \\    /   O peration     | Version:  2306                                  |
|   \\  /    A nd           | Website:  www.openfoam.com                      |
|    \\/     M anipulation  |                                                 |
\*---------------------------------------------------------------------------*/
FoamFile
{
    version     2.0;
    format      ascii;
    arch        "LSB;label=32;scalar=64";
    class       volScalarField;
    location    "0.6/phiI";
    object      J;
}
// * * * * * * * * * * * * * * * * * * * * * * * * * * * * * * * * * * * * * //

dimensions      [0 -3 0 0 0 1 0];

internalField   nonuniform List<scalar> 
12000
(
-7.441301e+08
-7.511141e+08
-6.857317e+08
-7.504567e+08
-7.652497e+08
-6.903208e+08
-7.575638e+08
-6.374395e+08
-6.913459e+08
-7.667346e+08
-7.863836e+08
-6.993778e+08
-7.71947e+08
-6.409764e+08
-6.960196e+08
-7.741346e+08
-5.988922e+08
-6.425269e+08
-7.056705e+08
-7.934786e+08
-8.134709e+08
-7.122411e+08
-7.934435e+08
-6.478772e+08
-7.052457e+08
-7.891122e+08
-6.018038e+08
-6.4613e+08
-7.10539e+08
-8.013557e+08
-5.668953e+08
-6.035852e+08
-6.553702e+08
-7.29114e+08
-8.316854e+08
-8.426271e+08
-7.273745e+08
-8.209615e+08
-6.574456e+08
-7.183575e+08
-8.115018e+08
-6.074444e+08
-6.531624e+08
-7.201536e+08
-8.173048e+08
-5.693816e+08
-6.065515e+08
-6.591232e+08
-7.342957e+08
-8.402513e+08
-5.393383e+08
-5.712731e+08
-6.153138e+08
-6.763026e+08
-7.624704e+08
0
-8.65737e+08
-7.416724e+08
-8.504939e+08
-6.682199e+08
-7.338023e+08
-8.401515e+08
-6.151523e+08
-6.629235e+08
-7.338342e+08
-8.411642e+08
-5.741748e+08
-6.123005e+08
-6.664522e+08
-7.445354e+08
-8.576055e+08
-5.415098e+08
-5.738062e+08
-6.184029e+08
-6.802949e+08
-7.680997e+08
0
-5.151287e+08
-5.434496e+08
-5.821153e+08
-6.343587e+08
-7.059744e+08
0
0
-8.812611e+08
-7.514742e+08
-8.738466e+08
-6.776076e+08
-7.484264e+08
-8.708408e+08
-6.235949e+08
-6.73942e+08
-7.49983e+08
-8.717088e+08
-5.806625e+08
-6.201668e+08
-6.766428e+08
-7.591303e+08
-8.835999e+08
-5.45681e+08
-5.786918e+08
-6.243938e+08
-6.880974e+08
-7.792329e+08
0
-5.170572e+08
-5.456619e+08
-5.847526e+08
-6.376428e+08
-7.103062e+08
0
0
-4.935153e+08
-5.190087e+08
-5.535509e+08
-5.996635e+08
-6.612694e+08
0
0
0
-8.904637e+08
-7.572532e+08
-8.894878e+08
-6.831799e+08
-7.58461e+08
-8.950606e+08
-6.305488e+08
-6.83597e+08
-7.653243e+08
-9.044025e+08
-5.876383e+08
-6.288104e+08
-6.881866e+08
-7.764077e+08
-9.169209e+08
-5.512891e+08
-5.853139e+08
-6.326078e+08
-6.989708e+08
-7.951348e+08
0
-5.207511e+08
-5.499133e+08
-5.898428e+08
-6.440177e+08
-7.187805e+08
0
0
-4.952485e+08
-5.209732e+08
-5.558535e+08
-6.024657e+08
-6.64829e+08
0
0
0
-4.740189e+08
-4.971902e+08
-5.284748e+08
-5.698532e+08
-6.243925e+08
0
0
0
0
-8.947044e+08
-7.603633e+08
-8.987349e+08
-6.858358e+08
-7.643611e+08
-9.112409e+08
-6.341867e+08
-6.89369e+08
-7.758687e+08
-9.301666e+08
-5.93159e+08
-6.359886e+08
-6.983745e+08
-7.928894e+08
-9.525988e+08
-5.572409e+08
-5.9246e+08
-6.416738e+08
-7.113418e+08
-8.140242e+08
0
-5.256935e+08
-5.556378e+08
-5.967578e+08
-6.527813e+08
-7.306216e+08
0
0
-4.985601e+08
-5.24738e+08
-5.602821e+08
-6.078798e+08
-6.717462e+08
0
0
0
-4.755913e+08
-4.989557e+08
-5.305191e+08
-5.722986e+08
-6.274269e+08
0
0
0
0
-4.562771e+08
-4.775099e+08
-5.061007e+08
-5.437139e+08
-5.927731e+08
0
0
0
0
0
-8.947044e+08
-7.617183e+08
-9.029884e+08
-6.869258e+08
-7.675208e+08
-9.20784e+08
-6.355018e+08
-6.92136e+08
-7.820591e+08
-9.473421e+08
-5.957516e+08
-6.39798e+08
-7.045188e+08
-8.042436e+08
-9.806899e+08
-5.618151e+08
-5.981723e+08
-6.492794e+08
-7.223488e+08
-8.321299e+08
0
-5.308898e+08
-5.617367e+08
-6.042578e+08
-6.625062e+08
-7.441599e+08
0
0
-5.029749e+08
-5.297828e+08
-5.662591e+08
-6.152558e+08
-6.812841e+08
0
0
0
-4.785892e+08
-5.023305e+08
-5.344397e+08
-5.770067e+08
-6.332965e+08
0
0
0
0
-4.577143e+08
-4.791114e+08
-5.079372e+08
-5.458838e+08
-5.954188e+08
0
0
0
0
0
-4.400314e+08
-4.596017e+08
-4.85928e+08
-5.204132e+08
-5.650951e+08
0
0
0
0
0
9.652402e+08
-8.904637e+08
-7.617183e+08
-9.029884e+08
-6.872915e+08
-7.688912e+08
-9.251666e+08
-6.357575e+08
-6.932769e+08
-7.853626e+08
-9.574522e+08
-5.964033e+08
-6.412118e+08
-7.074918e+08
-8.109064e+08
-9.993871e+08
-5.637737e+08
-6.00913e+08
-6.533852e+08
-7.290519e+08
-8.44636e+08
0
-5.34797e+08
-5.664764e+08
-6.103271e+08
-6.707569e+08
-7.563093e+08
0
0
-5.07583e+08
-5.351078e+08
-5.726619e+08
-6.23305e+08
-6.919319e+08
0
0
0
-4.825739e+08
-5.068364e+08
-5.397063e+08
-5.833803e+08
-6.413197e+08
0
0
0
0
-4.604488e+08
-4.821663e+08
-5.11451e+08
-5.500499e+08
-6.005189e+08
0
0
0
0
0
-4.413529e+08
-4.610653e+08
-4.875935e+08
-5.223616e+08
-5.674408e+08
0
0
0
0
0
9.729656e+08
-4.250751e+08
-4.432041e+08
-4.675787e+08
-4.994227e+08
-5.404582e+08
0
0
0
0
0
8.817599e+08
9.184697e+08
-8.812611e+08
-7.603633e+08
-8.987349e+08
-6.872915e+08
-7.688912e+08
-9.251666e+08
-6.357223e+08
-6.936611e+08
-7.867903e+08
-9.620889e+08
-5.962753e+08
-6.415153e+08
-7.087313e+08
-8.144543e+08
-1.010376e+09
-5.64064e+08
-6.016515e+08
-6.549612e+08
-7.323334e+08
-8.519779e+08
0
-5.363439e+08
-5.68564e+08
-6.133144e+08
-6.752937e+08
-7.63782e+08
0
0
-5.109893e+08
-5.391598e+08
-5.777072e+08
-6.29908e+08
-7.010717e+08
0
0
0
-4.867094e+08
-5.115585e+08
-5.45297e+08
-5.902532e+08
-6.501342e+08
0
0
0
0
-4.640744e+08
-4.862328e+08
-5.161538e+08
-5.556639e+08
-6.074477e+08
0
0
0
0
0
-4.438622e+08
-4.638514e+08
-4.907733e+08
-5.260936e+08
-5.719505e+08
0
0
0
0
0
9.884298e+08
-4.262963e+08
-4.445497e+08
-4.691003e+08
-5.011887e+08
-5.425628e+08
0
0
0
0
0
8.867939e+08
9.255781e+08
-4.11245e+08
-4.281086e+08
-4.50783e+08
-4.803433e+08
-5.182917e+08
0
0
0
0
0
8.094195e+08
8.412582e+08
8.855277e+08
-8.65737e+08
-7.572532e+08
-8.894878e+08
-6.869258e+08
-7.675208e+08
-9.20784e+08
-6.357223e+08
-6.936611e+08
-7.867903e+08
-9.620889e+08
-5.960636e+08
-6.414984e+08
-7.091534e+08
-8.159839e+08
-1.015411e+09
-5.637484e+08
-6.015663e+08
-6.553412e+08
-7.33722e+08
-8.558832e+08
0
-5.364267e+08
-5.689304e+08
-6.141869e+08
-6.771002e+08
-7.674865e+08
0
0
-5.122481e+08
-5.4082e+08
-5.800051e+08
-6.332475e+08
-7.061903e+08
0
0
0
-4.897241e+08
-5.150926e+08
-5.496153e+08
-5.957529e+08
-6.574676e+08
0
0
0
0
-4.678193e+08
-4.904702e+08
-5.211114e+08
-5.616651e+08
-6.149736e+08
0
0
0
0
0
-4.471823e+08
-4.675509e+08
-4.950166e+08
-5.311049e+08
-5.780498e+08
0
0
0
0
0
1.01161e+09
-4.286108e+08
-4.471062e+08
-4.719996e+08
-5.045646e+08
-5.465998e+08
0
0
0
0
0
8.966264e+08
9.397944e+08
-4.123788e+08
-4.29352e+08
-4.521816e+08
-4.819561e+08
-5.201981e+08
0
0
0
0
0
8.132654e+08
8.459148e+08
8.922286e+08
-3.98405e+08
-4.141502e+08
-4.353257e+08
-4.628909e+08
-4.981657e+08
0
0
0
0
0
7.509603e+08
7.740553e+08
8.124979e+08
8.652602e+08
-8.426271e+08
-7.514742e+08
-8.738466e+08
-6.858358e+08
-7.643611e+08
-9.112409e+08
-6.357575e+08
-6.932769e+08
-7.853626e+08
-9.574522e+08
-5.960636e+08
-6.414984e+08
-7.091534e+08
-8.159839e+08
-1.015411e+09
-5.634574e+08
-6.013716e+08
-6.553534e+08
-7.342028e+08
-8.575646e+08
0
-5.360195e+08
-5.686529e+08
-6.141643e+08
-6.775873e+08
-7.690807e+08
0
0
-5.122037e+08
-5.409699e+08
-5.804853e+08
-6.343047e+08
-7.083032e+08
0
0
0
-4.907713e+08
-5.164517e+08
-5.514584e+08
-5.983484e+08
-6.612767e+08
0
0
0
0
-4.705168e+08
-4.935986e+08
-5.248806e+08
-5.663785e+08
-6.210925e+08
0
0
0
0
0
-4.505975e+08
-4.713876e+08
-4.994647e+08
-5.364258e+08
-5.846198e+08
0
0
0
0
0
1.041525e+09
-4.316671e+08
-4.504936e+08
-4.758592e+08
-5.090845e+08
-5.520411e+08
0
0
0
0
0
9.107754e+08
9.610827e+08
-4.145232e+08
-4.317096e+08
-4.548413e+08
-4.850329e+08
-5.238474e+08
0
0
0
0
0
8.206921e+08
8.550038e+08
9.056259e+08
-3.994616e+08
-4.153044e+08
-4.366178e+08
-4.643727e+08
-4.999055e+08
0
0
0
0
0
7.541066e+08
7.776291e+08
8.168994e+08
8.717374e+08
-3.864485e+08
-4.011916e+08
-4.21037e+08
-4.468387e+08
-4.797741e+08
0
0
0
0
0
7.023469e+08
7.195601e+08
7.487913e+08
7.945694e+08
8.565675e+08
-8.134709e+08
-7.416724e+08
-8.504939e+08
-6.831799e+08
-7.58461e+08
-8.950606e+08
-6.355018e+08
-6.92136e+08
-7.820591e+08
-9.473421e+08
-5.962753e+08
-6.415153e+08
-7.087313e+08
-8.144543e+08
-1.010376e+09
-5.634574e+08
-6.013716e+08
-6.553534e+08
-7.342028e+08
-8.575646e+08
0
-5.356952e+08
-5.683771e+08
-6.139932e+08
-6.7764e+08
-7.696429e+08
0
0
-5.117521e+08
-5.405964e+08
-5.802607e+08
-6.343658e+08
-7.089312e+08
0
0
0
-4.906455e+08
-5.164668e+08
-5.517069e+08
-5.989828e+08
-6.625748e+08
0
0
0
0
-4.714012e+08
-4.947355e+08
-5.26401e+08
-5.684788e+08
-6.240817e+08
0
0
0
0
0
-4.530315e+08
-4.741872e+08
-5.02803e+08
-5.405435e+08
-5.898701e+08
0
0
0
0
0
1.073381e+09
-4.347992e+08
-4.539919e+08
-4.79886e+08
-5.138577e+08
-5.578646e+08
0
0
0
0
0
9.278979e+08
9.885266e+08
-4.173501e+08
-4.348275e+08
-4.583744e+08
-4.891426e+08
-5.287523e+08
0
0
0
0
0
8.311728e+08
8.68075e+08
9.256861e+08
-4.01456e+08
-4.174886e+08
-4.3907e+08
-4.671941e+08
-5.032295e+08
0
0
0
0
0
7.601381e+08
7.845257e+08
8.254872e+08
8.846914e+08
-3.874364e+08
-4.022671e+08
-4.22236e+08
-4.48207e+08
-4.813715e+08
0
0
0
0
0
7.050178e+08
7.224945e+08
7.52178e+08
7.988235e+08
8.629815e+08
-3.752884e+08
-3.891252e+08
-4.077751e+08
-4.32008e+08
-4.628731e+08
0
0
0
0
0
6.606478e+08
6.741133e+08
6.970316e+08
7.328981e+08
7.866045e+08
-7.863836e+08
-7.273745e+08
-8.209615e+08
-6.776076e+08
-7.484264e+08
-8.708408e+08
-6.341867e+08
-6.89369e+08
-7.758687e+08
-9.301666e+08
-5.964033e+08
-6.412118e+08
-7.074918e+08
-8.109064e+08
-9.993871e+08
-5.637484e+08
-6.015663e+08
-6.553412e+08
-7.33722e+08
-8.558832e+08
0
-5.356952e+08
-5.683771e+08
-6.139932e+08
-6.7764e+08
-7.696429e+08
0
0
-5.114164e+08
-5.402855e+08
-5.800047e+08
-6.342254e+08
-7.090366e+08
0
0
0
-4.901744e+08
-5.160451e+08
-5.513789e+08
-5.988268e+08
-6.627425e+08
0
0
0
0
-4.712209e+08
-4.946628e+08
-5.265028e+08
-5.688596e+08
-6.249146e+08
0
0
0
0
0
-4.537864e+08
-4.751523e+08
-5.040836e+08
-5.4229e+08
-5.923093e+08
0
0
0
0
0
1.096546e+09
-4.370095e+08
-4.565182e+08
-4.828745e+08
-5.17507e+08
-5.62455e+08
0
0
0
0
0
9.445093e+08
1.017714e+09
-4.202371e+08
-4.380354e+08
-4.620455e+08
-4.934627e+08
-5.339747e+08
0
0
0
0
0
8.434466e+08
8.838826e+08
9.515554e+08
-4.040809e+08
-4.203721e+08
-4.423214e+08
-4.709548e+08
-5.076868e+08
0
0
0
0
0
7.685387e+08
7.942538e+08
8.378365e+08
9.041045e+08
-3.892974e+08
-4.042983e+08
-4.245073e+08
-4.508074e+08
-4.844179e+08
0
0
0
0
0
7.101118e+08
7.281164e+08
7.587114e+08
8.071243e+08
8.758205e+08
-3.762147e+08
-3.901306e+08
-4.088921e+08
-4.332772e+08
-4.643472e+08
0
0
0
0
0
6.629683e+08
6.766121e+08
6.99819e+08
7.361737e+08
7.908059e+08
-3.648489e+08
-3.778628e+08
-3.954292e+08
-4.182499e+08
-4.472707e+08
0
0
0
0
0
6.241365e+08
6.350331e+08
6.537913e+08
6.827734e+08
7.256836e+08
-7.652497e+08
-7.122411e+08
-7.934435e+08
-6.682199e+08
-7.338023e+08
-8.401515e+08
-6.305488e+08
-6.83597e+08
-7.653243e+08
-9.044025e+08
-5.957516e+08
-6.39798e+08
-7.045188e+08
-8.042436e+08
-9.806899e+08
-5.64064e+08
-6.016515e+08
-6.549612e+08
-7.323334e+08
-8.519779e+08
0
-5.360195e+08
-5.686529e+08
-6.141643e+08
-6.775873e+08
-7.690807e+08
0
0
-5.114164e+08
-5.402855e+08
-5.800047e+08
-6.342254e+08
-7.090366e+08
0
0
0
-4.898384e+08
-5.157214e+08
-5.510851e+08
-5.985956e+08
-6.626405e+08
0
0
0
0
-4.707436e+08
-4.942185e+08
-5.261209e+08
-5.685898e+08
-6.248444e+08
0
0
0
0
0
-4.535683e+08
-4.750198e+08
-5.040881e+08
-5.425074e+08
-5.928592e+08
0
0
0
0
0
1.110362e+09
-4.376581e+08
-4.573462e+08
-4.839688e+08
-5.189887e+08
-5.644985e+08
0
0
0
0
0
9.554385e+08
1.038836e+09
-4.222558e+08
-4.403297e+08
-4.647431e+08
-4.967312e+08
-5.380453e+08
0
0
0
0
0
8.547429e+08
8.99205e+08
9.790869e+08
-4.067532e+08
-4.233286e+08
-4.456872e+08
-4.748925e+08
-5.124119e+08
0
0
0
0
0
7.781542e+08
8.0564e+08
8.527724e+08
9.291846e+08
-3.91743e+08
-4.069755e+08
-4.275136e+08
-4.542671e+08
-4.884948e+08
0
0
0
0
0
7.171373e+08
7.35943e+08
7.679258e+08
8.190656e+08
8.950944e+08
-3.779561e+08
-3.920258e+08
-4.110039e+08
-4.35685e+08
-4.671536e+08
0
0
0
0
0
6.673776e+08
6.81375e+08
7.051572e+08
7.424922e+08
7.990074e+08
-3.657201e+08
-3.788055e+08
-3.964733e+08
-4.194319e+08
-4.486375e+08
0
0
0
0
0
6.261878e+08
6.372101e+08
6.561699e+08
6.854719e+08
7.28915e+08
-3.550596e+08
-3.673279e+08
-3.839086e+08
-4.054479e+08
-4.328076e+08
0
0
0
0
0
5.916359e+08
6.007376e+08
6.165491e+08
6.408743e+08
6.762181e+08
-7.511141e+08
-6.993778e+08
-7.71947e+08
-6.574456e+08
-7.183575e+08
-8.115018e+08
-6.235949e+08
-6.73942e+08
-7.49983e+08
-8.717088e+08
-5.93159e+08
-6.359886e+08
-6.983745e+08
-7.928894e+08
-9.525988e+08
-5.637737e+08
-6.00913e+08
-6.533852e+08
-7.290519e+08
-8.44636e+08
0
-5.364267e+08
-5.689304e+08
-6.141869e+08
-6.771002e+08
-7.674865e+08
0
0
-5.117521e+08
-5.405964e+08
-5.802607e+08
-6.343658e+08
-7.089312e+08
0
0
0
-4.898384e+08
-5.157214e+08
-5.510851e+08
-5.985956e+08
-6.626405e+08
0
0
0
0
-4.704125e+08
-4.938931e+08
-5.258121e+08
-5.683168e+08
-6.246431e+08
0
0
0
0
0
-4.530921e+08
-4.745665e+08
-5.03679e+08
-5.42176e+08
-5.926612e+08
0
0
0
0
0
1.117702e+09
-4.374126e+08
-4.571714e+08
-4.839056e+08
-5.190957e+08
-5.64863e+08
0
0
0
0
0
9.612402e+08
1.051372e+09
-4.228163e+08
-4.410449e+08
-4.656882e+08
-4.980063e+08
-5.397909e+08
0
0
0
0
0
8.616377e+08
9.092493e+08
9.989467e+08
-4.086054e+08
-4.254241e+08
-4.481377e+08
-4.778441e+08
-5.160594e+08
0
0
0
0
0
7.86671e+08
8.161111e+08
8.672516e+08
9.559489e+08
-3.942253e+08
-4.097118e+08
-4.306152e+08
-4.578766e+08
-4.928002e+08
0
0
0
0
0
7.250389e+08
7.448965e+08
7.787102e+08
8.335213e+08
9.200735e+08
-3.802412e+08
-3.945198e+08
-4.137945e+08
-4.388829e+08
-4.709024e+08
0
0
0
0
0
6.734115e+08
6.879409e+08
7.125874e+08
7.514054e+08
8.108163e+08
-3.673544e+08
-3.805787e+08
-3.984432e+08
-4.216698e+08
-4.512346e+08
0
0
0
0
0
6.300748e+08
6.41344e+08
6.607018e+08
6.906391e+08
7.351498e+08
-3.55881e+08
-3.682145e+08
-3.848873e+08
-4.065523e+08
-4.340797e+08
0
0
0
0
0
5.934728e+08
6.026667e+08
6.186252e+08
6.431793e+08
6.788794e+08
-3.458655e+08
-3.574495e+08
-3.731343e+08
-3.935066e+08
-4.193588e+08
0
0
0
0
0
5.62367e+08
5.701456e+08
5.838171e+08
6.047625e+08
6.348871e+08
-7.441301e+08
-6.903208e+08
-7.575638e+08
-6.478772e+08
-7.052457e+08
-7.891122e+08
-6.151523e+08
-6.629235e+08
-7.338342e+08
-8.411642e+08
-5.876383e+08
-6.288104e+08
-6.881865e+08
-7.764077e+08
-9.169209e+08
-5.618151e+08
-5.981723e+08
-6.492794e+08
-7.223488e+08
-8.321299e+08
0
-5.363439e+08
-5.68564e+08
-6.133144e+08
-6.752937e+08
-7.63782e+08
0
0
-5.122037e+08
-5.409699e+08
-5.804853e+08
-6.343047e+08
-7.083032e+08
0
0
0
-4.901744e+08
-5.160451e+08
-5.513789e+08
-5.988268e+08
-6.627425e+08
0
0
0
0
-4.704125e+08
-4.938931e+08
-5.258121e+08
-5.683168e+08
-6.246431e+08
0
0
0
0
0
-4.527687e+08
-4.74245e+08
-5.033668e+08
-5.41885e+08
-5.924128e+08
0
0
0
0
0
1.120823e+09
-4.369414e+08
-4.56717e+08
-4.834839e+08
-5.187312e+08
-5.645934e+08
0
0
0
0
0
9.639804e+08
1.058e+09
-4.225512e+08
-4.408388e+08
-4.655761e+08
-4.980349e+08
-5.400279e+08
0
0
0
0
0
8.648785e+08
9.145598e+08
1.010697e+09
-4.090915e+08
-4.260456e+08
-4.489597e+08
-4.789529e+08
-5.175712e+08
0
0
0
0
0
7.915596e+08
8.224818e+08
8.767127e+08
9.752254e+08
-3.959312e+08
-4.116345e+08
-4.32854e+08
-4.605589e+08
-4.960953e+08
0
0
0
0
0
7.31827e+08
7.528196e+08
7.886256e+08
8.475518e+08
9.468523e+08
-3.825535e+08
-3.970612e+08
-4.166647e+08
-4.422084e+08
-4.748478e+08
0
0
0
0
0
6.801019e+08
6.953209e+08
7.210858e+08
7.618424e+08
8.251351e+08
-3.694958e+08
-3.829087e+08
-4.010424e+08
-4.246375e+08
-4.546982e+08
0
0
0
0
0
6.353604e+08
6.469985e+08
6.669478e+08
6.97832e+08
7.439495e+08
-3.574184e+08
-3.698784e+08
-3.867301e+08
-4.086393e+08
-4.364925e+08
0
0
0
0
0
5.969463e+08
6.063199e+08
6.22566e+08
6.475704e+08
6.83976e+08
-3.466419e+08
-3.582854e+08
-3.740545e+08
-3.945414e+08
-4.205468e+08
0
0
0
0
0
5.640289e+08
5.718769e+08
5.8566e+08
6.067764e+08
6.371605e+08
-3.37215e+08
-3.48172e+08
-3.630334e+08
-3.82343e+08
-4.068217e+08
0
0
0
0
0
5.357558e+08
5.42542e+08
5.54578e+08
5.730004e+08
5.992691e+08
-6.857317e+08
-7.504567e+08
-6.409764e+08
-6.960196e+08
-7.741346e+08
-6.074444e+08
-6.531624e+08
-7.201536e+08
-8.173048e+08
-5.806625e+08
-6.201668e+08
-6.766428e+08
-7.591303e+08
-8.835999e+08
-5.572409e+08
-5.9246e+08
-6.416738e+08
-7.113418e+08
-8.140242e+08
0
-5.34797e+08
-5.664764e+08
-6.103271e+08
-6.707569e+08
-7.563093e+08
0
0
-5.122481e+08
-5.4082e+08
-5.800051e+08
-6.332475e+08
-7.061903e+08
0
0
0
-4.906455e+08
-5.164668e+08
-5.517069e+08
-5.989828e+08
-6.625748e+08
0
0
0
0
-4.707436e+08
-4.942185e+08
-5.261209e+08
-5.685898e+08
-6.248444e+08
0
0
0
0
0
-4.527687e+08
-4.74245e+08
-5.033668e+08
-5.41885e+08
-5.924128e+08
0
0
0
0
0
1.120823e+09
-4.366265e+08
-4.564022e+08
-4.831742e+08
-5.184346e+08
-5.643234e+08
0
0
0
0
0
9.65038e+08
1.06081e+09
-4.220875e+08
-4.403874e+08
-4.651503e+08
-4.97653e+08
-5.397176e+08
0
0
0
0
0
8.661565e+08
9.170577e+08
1.016897e+09
-4.088123e+08
-4.258168e+08
-4.488108e+08
-4.789238e+08
-5.177161e+08
0
0
0
0
0
7.935913e+08
8.25465e+08
8.817007e+08
9.86624e+08
-3.963537e+08
-4.121769e+08
-4.335735e+08
-4.615302e+08
-4.974183e+08
0
0
0
0
0
7.355185e+08
7.573528e+08
7.946381e+08
8.566955e+08
9.661434e+08
-3.84129e+08
-3.988323e+08
-4.187194e+08
-4.446599e+08
-4.778435e+08
0
0
0
0
0
6.85704e+08
7.016537e+08
7.286019e+08
7.714425e+08
8.390625e+08
-3.716565e+08
-3.852759e+08
-4.037079e+08
-4.277142e+08
-4.583322e+08
0
0
0
0
0
6.411522e+08
6.532636e+08
6.73966e+08
7.060607e+08
7.542636e+08
-3.594301e+08
-3.720617e+08
-3.89158e+08
-4.114027e+08
-4.397055e+08
0
0
0
0
0
6.016447e+08
6.112851e+08
6.279548e+08
6.536223e+08
6.910731e+08
-3.480916e+08
-3.598505e+08
-3.757835e+08
-3.964932e+08
-4.227959e+08
0
0
0
0
0
5.671667e+08
5.751488e+08
5.891485e+08
6.105985e+08
6.414916e+08
-3.379503e+08
-3.489619e+08
-3.639007e+08
-3.833157e+08
-4.079344e+08
0
0
0
0
0
5.372716e+08
5.441115e+08
5.562345e+08
5.747899e+08
6.012558e+08
-3.290736e+08
-3.394434e+08
-3.535485e+08
-3.718808e+08
-3.951079e+08
0
0
0
0
0
5.113779e+08
5.17399e+08
5.28159e+08
5.446061e+08
5.679395e+08
-6.374395e+08
-6.913459e+08
-7.667346e+08
-6.018038e+08
-6.4613e+08
-7.10539e+08
-8.013557e+08
-5.741748e+08
-6.123005e+08
-6.664522e+08
-7.445354e+08
-8.576055e+08
-5.512891e+08
-5.853139e+08
-6.326078e+08
-6.989708e+08
-7.951348e+08
0
-5.308898e+08
-5.617367e+08
-6.042578e+08
-6.625062e+08
-7.441599e+08
0
0
-5.109893e+08
-5.391598e+08
-5.777072e+08
-6.29908e+08
-7.010717e+08
0
0
0
-4.907713e+08
-5.164517e+08
-5.514584e+08
-5.983484e+08
-6.612767e+08
0
0
0
0
-4.712209e+08
-4.946628e+08
-5.265028e+08
-5.688596e+08
-6.249146e+08
0
0
0
0
0
-4.530921e+08
-4.745665e+08
-5.03679e+08
-5.42176e+08
-5.926612e+08
0
0
0
0
0
1.117702e+09
-4.366265e+08
-4.564022e+08
-4.831742e+08
-5.184346e+08
-5.643234e+08
0
0
0
0
0
9.65038e+08
1.06081e+09
-4.217818e+08
-4.400805e+08
-4.64846e+08
-4.973572e+08
-5.394392e+08
0
0
0
0
0
8.66554e+08
9.180182e+08
1.019521e+09
-4.083574e+08
-4.253712e+08
-4.483854e+08
-4.785339e+08
-5.173826e+08
0
0
0
0
0
7.942076e+08
8.266355e+08
8.840418e+08
9.926402e+08
-3.960642e+08
-4.119311e+08
-4.33397e+08
-4.614569e+08
-4.974942e+08
0
0
0
0
0
7.368639e+08
7.592284e+08
7.974441e+08
8.615096e+08
9.77571e+08
-3.844955e+08
-3.993068e+08
-4.193521e+08
-4.455163e+08
-4.790099e+08
0
0
0
0
0
6.886033e+08
7.050854e+08
7.328863e+08
7.772441e+08
8.481212e+08
-3.731165e+08
-3.869118e+08
-4.056011e+08
-4.299651e+08
-4.610711e+08
0
0
0
0
0
6.458965e+08
6.585022e+08
6.799827e+08
7.133373e+08
7.637597e+08
-3.614542e+08
-3.742736e+08
-3.916405e+08
-4.142595e+08
-4.430668e+08
0
0
0
0
0
6.067413e+08
6.167212e+08
6.33923e+08
6.604225e+08
6.99197e+08
-3.499859e+08
-3.619014e+08
-3.780582e+08
-3.990739e+08
-4.257866e+08
0
0
0
0
0
5.713921e+08
5.795721e+08
5.938884e+08
6.158247e+08
6.474622e+08
-3.3932e+08
-3.504378e+08
-3.655268e+08
-3.851464e+08
-4.10037e+08
0
0
0
0
0
5.401306e+08
5.470733e+08
5.593639e+08
5.781766e+08
6.050264e+08
-3.297713e+08
-3.401914e+08
-3.54368e+08
-3.727973e+08
-3.961532e+08
0
0
0
0
0
5.127701e+08
5.188333e+08
5.29663e+08
5.462161e+08
5.697053e+08
-3.213988e+08
-3.312287e+08
-3.446262e+08
-3.620599e+08
-3.841357e+08
0
0
0
0
0
4.889047e+08
4.943263e+08
5.040638e+08
5.189308e+08
5.399274e+08
-5.988922e+08
-6.425269e+08
-7.056705e+08
-7.934786e+08
-5.693816e+08
-6.065515e+08
-6.591232e+08
-7.342957e+08
-8.402513e+08
-5.45681e+08
-5.786918e+08
-6.243938e+08
-6.880974e+08
-7.792329e+08
0
-5.256935e+08
-5.556378e+08
-5.967578e+08
-6.527813e+08
-7.306216e+08
0
0
-5.07583e+08
-5.351078e+08
-5.726619e+08
-6.23305e+08
-6.919319e+08
0
0
0
-4.897241e+08
-5.150926e+08
-5.496153e+08
-5.957529e+08
-6.574676e+08
0
0
0
0
-4.714012e+08
-4.947355e+08
-5.26401e+08
-5.684788e+08
-6.240817e+08
0
0
0
0
0
-4.535683e+08
-4.750198e+08
-5.040881e+08
-5.425074e+08
-5.928592e+08
0
0
0
0
0
1.110362e+09
-4.369414e+08
-4.56717e+08
-4.834839e+08
-5.187312e+08
-5.645934e+08
0
0
0
0
0
9.639804e+08
1.058e+09
-4.217818e+08
-4.400805e+08
-4.64846e+08
-4.973572e+08
-5.394392e+08
0
0
0
0
0
8.66554e+08
9.180182e+08
1.019521e+09
-4.08061e+08
-4.250728e+08
-4.48088e+08
-4.782421e+08
-5.171028e+08
0
0
0
0
0
7.943148e+08
8.269972e+08
8.849407e+08
9.951882e+08
-3.956188e+08
-4.114929e+08
-4.329752e+08
-4.61064e+08
-4.971478e+08
0
0
0
0
0
7.371224e+08
7.597921e+08
7.985412e+08
8.637697e+08
9.836211e+08
-3.841979e+08
-3.990483e+08
-4.191545e+08
-4.45409e+08
-4.790321e+08
0
0
0
0
0
6.89516e+08
7.063282e+08
7.346506e+08
7.799445e+08
8.528908e+08
-3.734345e+08
-3.873266e+08
-4.061592e+08
-4.307239e+08
-4.621063e+08
0
0
0
0
0
6.482419e+08
6.612024e+08
6.832294e+08
7.174682e+08
7.694794e+08
-3.628103e+08
-3.757897e+08
-3.933899e+08
-4.163343e+08
-4.455826e+08
0
0
0
0
0
6.108371e+08
6.211668e+08
6.389072e+08
6.662491e+08
7.063824e+08
-3.518868e+08
-3.639732e+08
-3.803775e+08
-4.017343e+08
-4.289069e+08
0
0
0
0
0
5.759361e+08
5.843659e+08
5.99075e+08
6.216121e+08
6.541734e+08
-3.411073e+08
-3.523688e+08
-3.676631e+08
-3.875637e+08
-4.12829e+08
0
0
0
0
0
5.439657e+08
5.510594e+08
5.635931e+08
5.827777e+08
6.10183e+08
-3.310678e+08
-3.415856e+08
-3.55901e+08
-3.745187e+08
-3.981247e+08
0
0
0
0
0
5.153941e+08
5.21537e+08
5.325e+08
5.49257e+08
5.730473e+08
-3.220623e+08
-3.319384e+08
-3.45402e+08
-3.629256e+08
-3.851202e+08
0
0
0
0
0
4.901907e+08
4.956459e+08
5.054401e+08
5.203938e+08
5.415167e+08
-3.141582e+08
-3.234849e+08
-3.362303e+08
-3.528242e+08
-3.738409e+08
0
0
0
0
0
4.680821e+08
4.730214e+08
4.81925e+08
4.954961e+08
5.145923e+08
-5.668953e+08
-6.035852e+08
-6.553702e+08
-7.29114e+08
-8.316854e+08
-5.415098e+08
-5.738062e+08
-6.184029e+08
-6.802949e+08
-7.680997e+08
0
-5.207511e+08
-5.499133e+08
-5.898428e+08
-6.440177e+08
-7.187805e+08
0
0
-5.029749e+08
-5.297828e+08
-5.662591e+08
-6.152558e+08
-6.812841e+08
0
0
0
-4.867094e+08
-5.115585e+08
-5.45297e+08
-5.902532e+08
-6.501342e+08
0
0
0
0
-4.705168e+08
-4.935986e+08
-5.248806e+08
-5.663785e+08
-6.210925e+08
0
0
0
0
0
-4.537864e+08
-4.751523e+08
-5.040836e+08
-5.4229e+08
-5.923093e+08
0
0
0
0
0
1.096546e+09
-4.374126e+08
-4.571714e+08
-4.839056e+08
-5.190957e+08
-5.64863e+08
0
0
0
0
0
9.612402e+08
1.051372e+09
-4.220875e+08
-4.403874e+08
-4.651503e+08
-4.97653e+08
-5.397176e+08
0
0
0
0
0
8.661565e+08
9.170577e+08
1.016897e+09
-4.08061e+08
-4.250728e+08
-4.48088e+08
-4.782421e+08
-5.171028e+08
0
0
0
0
0
7.943148e+08
8.269972e+08
8.849407e+08
9.951882e+08
-3.953315e+08
-4.112032e+08
-4.326855e+08
-4.607779e+08
-4.968705e+08
0
0
0
0
0
7.370783e+08
7.598872e+08
7.988789e+08
8.646384e+08
9.861911e+08
-3.837619e+08
-3.986184e+08
-4.187382e+08
-4.45017e+08
-4.786787e+08
0
0
0
0
0
6.895609e+08
7.065609e+08
7.351762e+08
7.809988e+08
8.551359e+08
-3.731312e+08
-3.870578e+08
-4.059453e+08
-4.305901e+08
-4.620865e+08
0
0
0
0
0
6.488666e+08
6.620441e+08
6.843968e+08
7.191614e+08
7.721364e+08
-3.630855e+08
-3.761529e+08
-3.938824e+08
-4.170091e+08
-4.46506e+08
0
0
0
0
0
6.12777e+08
6.233541e+08
6.414636e+08
6.69378e+08
7.104435e+08
-3.531497e+08
-3.653818e+08
-3.819994e+08
-4.036524e+08
-4.312269e+08
0
0
0
0
0
5.795269e+08
5.882109e+08
6.033101e+08
6.264408e+08
6.599219e+08
-3.428961e+08
-3.543144e+08
-3.698355e+08
-3.90049e+08
-4.157343e+08
0
0
0
0
0
5.480589e+08
5.553417e+08
5.681735e+08
5.878113e+08
6.158943e+08
-3.327571e+08
-3.434075e+08
-3.579123e+08
-3.767884e+08
-4.00739e+08
0
0
0
0
0
5.189023e+08
5.251617e+08
5.363167e+08
5.53366e+08
5.775882e+08
-3.232918e+08
-3.332579e+08
-3.468501e+08
-3.64548e+08
-3.869732e+08
0
0
0
0
0
4.926136e+08
4.981319e+08
5.080335e+08
5.23153e+08
5.445184e+08
-3.147902e+08
-3.241596e+08
-3.369663e+08
-3.536435e+08
-3.747705e+08
0
0
0
0
0
4.692757e+08
4.742424e+08
4.831929e+08
4.96836e+08
5.16037e+08
-3.073197e+08
-3.161793e+08
-3.283168e+08
-3.441357e+08
-3.64164e+08
0
0
0
0
0
4.487083e+08
4.532506e+08
4.61458e+08
4.739482e+08
4.914622e+08
-5.393383e+08
-5.712731e+08
-6.153138e+08
-6.763026e+08
-7.624704e+08
0
-5.170572e+08
-5.456619e+08
-5.847526e+08
-6.376428e+08
-7.103062e+08
0
0
-4.985601e+08
-5.24738e+08
-5.602821e+08
-6.078798e+08
-6.717462e+08
0
0
0
-4.825739e+08
-5.068364e+08
-5.397063e+08
-5.833803e+08
-6.413197e+08
0
0
0
0
-4.678193e+08
-4.904702e+08
-5.211114e+08
-5.616651e+08
-6.149736e+08
0
0
0
0
0
-4.530315e+08
-4.741872e+08
-5.02803e+08
-5.405435e+08
-5.898701e+08
0
0
0
0
0
1.073381e+09
-4.376581e+08
-4.573462e+08
-4.839688e+08
-5.189887e+08
-5.644985e+08
0
0
0
0
0
9.554385e+08
1.038837e+09
-4.225512e+08
-4.408388e+08
-4.655761e+08
-4.980349e+08
-5.400279e+08
0
0
0
0
0
8.648785e+08
9.145598e+08
1.010697e+09
-4.083574e+08
-4.253712e+08
-4.483854e+08
-4.785339e+08
-5.173826e+08
0
0
0
0
0
7.942076e+08
8.266355e+08
8.840418e+08
9.926402e+08
-3.953315e+08
-4.112032e+08
-4.326855e+08
-4.607779e+08
-4.968705e+08
0
0
0
0
0
7.370783e+08
7.598872e+08
7.988789e+08
8.646384e+08
9.861911e+08
-3.834832e+08
-3.983372e+08
-4.184565e+08
-4.447376e+08
-4.784057e+08
0
0
0
0
0
6.894307e+08
7.065156e+08
7.352625e+08
7.813231e+08
8.56002e+08
-3.727049e+08
-3.866363e+08
-4.055357e+08
-4.302012e+08
-4.617305e+08
0
0
0
0
0
6.48778e+08
6.620778e+08
6.846094e+08
7.196623e+08
7.731742e+08
-3.627781e+08
-3.758765e+08
-3.936551e+08
-4.168543e+08
-4.464527e+08
0
0
0
0
0
6.132014e+08
6.239279e+08
6.422518e+08
6.704947e+08
7.121005e+08
-3.533872e+08
-3.656993e+08
-3.82435e+08
-4.042533e+08
-4.32054e+08
0
0
0
0
0
5.811605e+08
5.900218e+08
6.053821e+08
6.289038e+08
6.629925e+08
-3.440745e+08
-3.556265e+08
-3.71343e+08
-3.918282e+08
-4.178802e+08
0
0
0
0
0
5.512457e+08
5.587184e+08
5.718409e+08
5.919164e+08
6.206562e+08
-3.344429e+08
-3.452382e+08
-3.599522e+08
-3.791161e+08
-4.034527e+08
0
0
0
0
0
5.226219e+08
5.290263e+08
5.404141e+08
5.578149e+08
5.825563e+08
-3.248919e+08
-3.349798e+08
-3.487475e+08
-3.666845e+08
-3.894274e+08
0
0
0
0
0
4.958438e+08
5.014535e+08
5.115089e+08
5.268646e+08
5.485748e+08
-3.159584e+08
-3.25411e+08
-3.383366e+08
-3.551757e+08
-3.765165e+08
0
0
0
0
0
4.715241e+08
4.765418e+08
4.855805e+08
4.993605e+08
5.187616e+08
-3.079227e+08
-3.16822e+08
-3.290164e+08
-3.449127e+08
-3.650434e+08
0
0
0
0
0
4.498207e+08
4.543856e+08
4.626326e+08
4.751836e+08
4.927858e+08
-3.008598e+08
-3.092795e+08
-3.208519e+08
-3.359482e+08
-3.550638e+08
0
0
0
0
0
4.306135e+08
4.348284e+08
4.424432e+08
4.54013e+08
4.701886e+08
-5.151287e+08
-5.434496e+08
-5.821153e+08
-6.343587e+08
-7.059744e+08
0
0
-4.952485e+08
-5.209732e+08
-5.558535e+08
-6.024657e+08
-6.64829e+08
0
0
0
-4.785892e+08
-5.023305e+08
-5.344397e+08
-5.770067e+08
-6.332965e+08
0
0
0
0
-4.640744e+08
-4.862328e+08
-5.161538e+08
-5.556639e+08
-6.074477e+08
0
0
0
0
0
-4.505975e+08
-4.713876e+08
-4.994647e+08
-5.364258e+08
-5.846198e+08
0
0
0
0
0
1.041525e+09
-4.370095e+08
-4.565182e+08
-4.828745e+08
-5.17507e+08
-5.62455e+08
0
0
0
0
0
9.445093e+08
1.017714e+09
-4.228163e+08
-4.410449e+08
-4.656882e+08
-4.980063e+08
-5.397909e+08
0
0
0
0
0
8.616377e+08
9.092493e+08
9.989467e+08
-4.088123e+08
-4.258168e+08
-4.488108e+08
-4.789238e+08
-5.177161e+08
0
0
0
0
0
7.935913e+08
8.25465e+08
8.817007e+08
9.86624e+08
-3.956188e+08
-4.114929e+08
-4.329752e+08
-4.61064e+08
-4.971478e+08
0
0
0
0
0
7.371224e+08
7.597921e+08
7.985412e+08
8.637697e+08
9.836211e+08
-3.834832e+08
-3.983372e+08
-4.184565e+08
-4.447376e+08
-4.784057e+08
0
0
0
0
0
6.894307e+08
7.065156e+08
7.352625e+08
7.813231e+08
8.56002e+08
-3.724345e+08
-3.863633e+08
-4.05262e+08
-4.29929e+08
-4.61463e+08
0
0
0
0
0
6.485969e+08
6.619518e+08
6.845625e+08
7.197426e+08
7.734942e+08
-3.623611e+08
-3.754636e+08
-3.932523e+08
-4.1647e+08
-4.460969e+08
0
0
0
0
0
6.130264e+08
6.238363e+08
6.422755e+08
6.706925e+08
7.125877e+08
-3.530771e+08
-3.654171e+08
-3.821974e+08
-4.040808e+08
-4.319735e+08
0
0
0
0
0
5.814417e+08
5.904088e+08
6.059167e+08
6.296544e+08
6.640798e+08
-3.442784e+08
-3.559037e+08
-3.717283e+08
-3.923649e+08
-4.186225e+08
0
0
0
0
0
5.526416e+08
5.602448e+08
5.735572e+08
5.939122e+08
6.230705e+08
-3.355435e+08
-3.464629e+08
-3.61357e+08
-3.807707e+08
-4.054442e+08
0
0
0
0
0
5.254798e+08
5.320278e+08
5.436385e+08
5.613718e+08
5.866039e+08
-3.264842e+08
-3.367051e+08
-3.506668e+08
-3.6887e+08
-3.919686e+08
0
0
0
0
0
4.992488e+08
5.049713e+08
5.152114e+08
5.308475e+08
5.529668e+08
-3.174765e+08
-3.270418e+08
-3.401297e+08
-3.571909e+08
-3.78826e+08
0
0
0
0
0
4.745141e+08
4.796053e+08
4.887696e+08
5.02743e+08
5.224267e+08
-3.090344e+08
-3.180109e+08
-3.303158e+08
-3.463623e+08
-3.666918e+08
0
0
0
0
0
4.519164e+08
4.565227e+08
4.648438e+08
4.775097e+08
4.952795e+08
-3.014363e+08
-3.098928e+08
-3.215182e+08
-3.366867e+08
-3.558975e+08
0
0
0
0
0
4.316542e+08
4.358877e+08
4.435363e+08
4.551584e+08
4.714094e+08
-2.947552e+08
-3.027619e+08
-3.138025e+08
-3.282267e+08
-3.464915e+08
0
0
0
0
0
4.136548e+08
4.175979e+08
4.24706e+08
4.354792e+08
4.505017e+08
-4.935153e+08
-5.190087e+08
-5.535509e+08
-5.996635e+08
-6.612694e+08
0
0
0
-4.755913e+08
-4.989557e+08
-5.305191e+08
-5.722986e+08
-6.274269e+08
0
0
0
0
-4.604488e+08
-4.821663e+08
-5.11451e+08
-5.500499e+08