/*--------------------------------*- C++ -*----------------------------------*\
| =========                 |                                                 |
| \\      /  F ield         | OpenFOAM: The Open Source CFD Toolbox           |
|  \\    /   O peration     | Version:  2306                                  |
|   \\  /    A nd           | Website:  www.openfoam.com                      |
|    \\/     M anipulation  |                                                 |
\*---------------------------------------------------------------------------*/
FoamFile
{
    version     2.0;
    format      ascii;
    arch        "LSB;label=32;scalar=64";
    class       volScalarField;
    location    "0.6/phiI";
    object      phi;
}
// * * * * * * * * * * * * * * * * * * * * * * * * * * * * * * * * * * * * * //

dimensions      [1 2 -3 0 0 -1 0];

internalField   nonuniform List<scalar> 
12000
(
1.585246
1.585265
1.581186
1.586062
1.585316
1.581151
1.586088
1.577252
1.581937
1.587723
1.585388
1.581098
1.586154
1.577192
1.581907
1.587764
1.574047
1.577949
1.583466
1.590247
1.585458
1.58104
1.586248
1.57709
1.581864
1.587859
1.573976
1.577893
1.583445
1.59031
1.571432
1.574701
1.579367
1.585788
1.593662
1.58546
1.580996
1.586346
1.576965
1.581819
1.587997
1.573852
1.577799
1.583421
1.590449
1.571355
1.574633
1.579318
1.585782
1.593756
1.569273
1.57205
1.576029
1.581519
1.588929
1.598011
1.585339
1.580972
1.586378
1.576852
1.581791
1.588151
1.573695
1.577683
1.583403
1.590654
1.571218
1.574515
1.579238
1.585786
1.593956
1.569194
1.571976
1.575968
1.581481
1.588942
1.598144
1.567456
1.56986
1.573303
1.578045
1.584428
1.592924
1.602407
1.585124
1.58094
1.586281
1.576782
1.581781
1.588243
1.573544
1.577581
1.583406
1.590894
1.571043
1.574366
1.579142
1.585808
1.594252
1.569051
1.571844
1.575861
1.581422
1.588985
1.598423
1.567375
1.569783
1.573235
1.577992
1.584405
1.592963
1.602578
1.565906
1.568015
1.57105
1.575205
1.580767
1.588125
1.596961
1.60685
1.584912
1.580878
1.586082
1.576756
1.58176
1.588192
1.573445
1.577521
1.583427
1.591076
1.570869
1.574224
1.579063
1.58586
1.594608
1.568865
1.571675
1.575727
1.581357
1.589063
1.598836
1.567229
1.569644
1.573113
1.577903
1.584376
1.593056
1.602935
1.565826
1.567937
1.570977
1.575144
1.580727
1.588122
1.597025
1.60706
1.564567
1.566442
1.569149
1.572853
1.577773
1.584227
1.59186
1.60104
1.611341
1.584784
1.580808
1.585879
1.576738
1.581704
1.588023
1.57341
1.577501
1.583426
1.591095
1.570748
1.574132
1.579022
1.585926
1.594914
1.568678
1.571509
1.575603
1.581312
1.58918
1.599343
1.567038
1.569464
1.572957
1.577794
1.584352
1.593206
1.603466
1.565679
1.567795
1.570847
1.575037
1.580662
1.588132
1.597168
1.607494
1.564487
1.566363
1.569075
1.572788
1.577723
1.584203
1.591876
1.60113
1.611589
1.563398
1.56508
1.567525
1.570867
1.575288
1.581035
1.587718
1.595631
1.605162
1.615879
1.584784
1.580762
1.585755
1.57672
1.581636
1.587838
1.573404
1.577485
1.583381
1.590973
1.570702
1.574101
1.579014
1.585956
1.595029
1.568542
1.571393
1.575526
1.581302
1.589309
1.599809
1.566843
1.569284
1.572806
1.577697
1.584353
1.593408
1.604121
1.565486
1.567609
1.570679
1.574902
1.580586
1.588161
1.597389
1.60814
1.56434
1.566219
1.56894
1.572671
1.577637
1.584169
1.591923
1.601323
1.6121
1.563319
1.565002
1.56745
1.570799
1.575232
1.580998
1.58771
1.595667
1.605277
1.616165
1.562367
1.563891
1.566118
1.569166
1.573185
1.57838
1.584324
1.591241
1.599439
1.609327
1.620463
1.584912
1.580762
1.585755
1.576707
1.581592
1.587722
1.573404
1.577469
1.58332
1.590814
1.570694
1.574096
1.579004
1.585929
1.594969
1.568486
1.57135
1.575503
1.581311
1.589381
1.600049
1.566697
1.569153
1.572702
1.577642
1.584385
1.593618
1.604746
1.565286
1.567419
1.57051
1.574773
1.580526
1.588223
1.597677
1.608944
1.564147
1.566031
1.568764
1.57252
1.577529
1.584136
1.592006
1.601614
1.612861
1.563173
1.564859
1.567313
1.570675
1.575133
1.580938
1.587707
1.595752
1.605519
1.616752
1.56229
1.563814
1.566044
1.569097
1.573125
1.578336
1.584301
1.591249
1.599494
1.609466
1.620787
1.561453
1.562842
1.564888
1.56769
1.571381
1.576127
1.581496
1.587642
1.594797
1.603284
1.613533
1.624065
1.585124
1.580808
1.585879
1.576707
1.581592
1.587722
1.573404
1.577457
1.583278
1.59071
1.570699
1.574096
1.57899
1.585877
1.594846
1.568474
1.571343
1.575501
1.581311
1.589379
1.600069
1.566633
1.569098
1.572664
1.577631
1.58442
1.593746
1.605108
1.565135
1.567277
1.570389
1.574687
1.580502
1.58831
1.597967
1.609726
1.563946
1.565836
1.568585
1.572371
1.57743
1.584124
1.592129
1.601985
1.613811
1.562981
1.564669
1.567134
1.570515
1.575007
1.580868
1.587717
1.595887
1.60588
1.617627
1.562146
1.563671
1.565906
1.56897
1.573018
1.57826
1.584268
1.591278
1.599616
1.609757
1.621451
1.561376
1.562766
1.564814
1.567621
1.571319
1.576078
1.581464
1.587632
1.594821
1.603359
1.613697
1.624418
1.560635
1.561911
1.563801
1.566397
1.569811
1.57419
1.579091
1.584636
1.590987
1.598385
1.607166
1.616841
1.626733
1.585339
1.580878
1.586082
1.57672
1.581636
1.587838
1.573404
1.577457
1.583278
1.59071
1.570703
1.574096
1.578978
1.585839
1.594759
1.568479
1.571348
1.575502
1.5813
1.589339
1.599992
1.566617
1.569087
1.572659
1.577634
1.584432
1.593775
1.605208
1.565064
1.567214
1.570339
1.574658
1.580509
1.588378
1.59815
1.610209
1.563791
1.565688
1.568452
1.572264
1.57737
1.584141
1.592269
1.602356
1.61475
1.562781
1.564473
1.566949
1.570353
1.574883
1.580808
1.587753
1.59607
1.606335
1.618724
1.561956
1.563482
1.565725
1.568804
1.572879
1.578165
1.584233
1.59133
1.599804
1.610188
1.622439
1.561235
1.562625
1.564677
1.567492
1.571206
1.575991
1.58141
1.587625
1.59488
1.603518
1.614036
1.62514
1.56056
1.561836
1.563728
1.566327
1.569748
1.574137
1.579052
1.584616
1.590992
1.598425
1.60726
1.617024
1.627108
1.5599
1.561078
1.562835
1.565253
1.568432
1.5725
1.577017
1.582076
1.587801
1.594361
1.602005
1.610221
1.619292
1.628502
1.58546
1.58094
1.586281
1.576738
1.581704
1.588023
1.573404
1.577469
1.58332
1.590814
1.570703
1.574096
1.578978
1.585839
1.594759
1.568484
1.571352
1.575502
1.58129
1.589307
1.599926
1.56662
1.569091
1.572663
1.577636
1.584426
1.593752
1.605176
1.565045
1.567199
1.570329
1.574656
1.580519
1.588406
1.598211
1.610385
1.563717
1.565619
1.568392
1.572221
1.577353
1.584171
1.592371
1.602594
1.615352
1.562625
1.564321
1.566808
1.570232
1.574797
1.58078
1.58781
1.596264
1.606786
1.619817
1.561757
1.563286
1.565537
1.568634
1.572739
1.578075
1.584213
1.591412
1.600047
1.610726
1.62368
1.561047
1.562438
1.564495
1.567324
1.571059
1.57588
1.581346
1.587626
1.594974
1.603757
1.614537
1.626216
1.560421
1.561697
1.563592
1.566199
1.569632
1.574043
1.578986
1.584585
1.59101
1.598513
1.607455
1.617401
1.627873
1.559826
1.561004
1.562763
1.565183
1.568368
1.572446
1.576975
1.582048
1.587793
1.594379
1.602061
1.610329
1.61949
1.628891
1.559235
1.560328
1.56197
1.564233
1.567209
1.571012
1.575205
1.579864
1.585083
1.590991
1.597763
1.604856
1.612487
1.620918
1.629394
1.585458
1.580972
1.586378
1.576756
1.58176
1.588192
1.573404
1.577485
1.583381
1.590973
1.570699
1.574096
1.57899
1.585877
1.594846
1.568484
1.571352
1.575502
1.58129
1.589307
1.599926
1.566625
1.569096
1.572667
1.577636
1.584417
1.593727
1.605129
1.565046
1.567201
1.570333
1.57466
1.580522
1.588406
1.598204
1.610397
1.563695
1.5656
1.568377
1.572213
1.577355
1.584189
1.592414
1.602685
1.615603
1.562549
1.564248
1.566741
1.570178
1.574764
1.58078
1.587863
1.596399
1.607078
1.620536
1.561601
1.563133
1.565392
1.568504
1.572636
1.578016
1.584217
1.591511
1.600295
1.611257
1.624928
1.560851
1.562243
1.564307
1.567149
1.570909
1.575769
1.58129
1.587645
1.595103
1.604059
1.615158
1.62757
1.560236
1.561512
1.563412
1.566029
1.569481
1.573921
1.578902
1.584552
1.591046
1.598649
1.607746
1.617955
1.629013
1.55969
1.560867
1.562628
1.565055
1.568251
1.572347
1.576899
1.582002
1.587785
1.594423
1.602179
1.610554
1.619894
1.629684
1.559163
1.560256
1.561899
1.564165
1.567146
1.570956
1.57516
1.579831
1.585065
1.590995
1.597794
1.604924
1.612606
1.621125
1.629789
1.558631
1.559649
1.56119
1.563319
1.566118
1.569689
1.573606
1.577927
1.582729
1.588111
1.594206
1.600444
1.606971
1.613989
1.621737
1.585388
1.580996
1.586346
1.576782
1.581781
1.588243
1.57341
1.577501
1.583426
1.591095
1.570694
1.574096
1.579004
1.585929
1.594969
1.568479
1.571348
1.575502
1.5813
1.589339
1.599992
1.566625
1.569096
1.572667
1.577636
1.584417
1.593727
1.605129
1.56505
1.567206
1.570337
1.574663
1.580523
1.5884
1.598185
1.61037
1.563695
1.565601
1.568379
1.572216
1.57736
1.584195
1.592421
1.602694
1.615658
1.562526
1.564226
1.566722
1.570164
1.574758
1.580788
1.58789
1.596458
1.6072
1.620862
1.561525
1.563058
1.565321
1.568443
1.57259
1.577996
1.584234
1.591586
1.600463
1.611603
1.625763
1.560697
1.56209
1.564159
1.567013
1.570794
1.57569
1.581258
1.587681
1.595242
1.604362
1.615768
1.628938
1.560043
1.561319
1.563224
1.565852
1.569324
1.573797
1.57882
1.584529
1.591104
1.598826
1.608108
1.61864
1.63045
1.559508
1.560685
1.56245
1.564886
1.568097
1.572218
1.576801
1.581944
1.587782
1.594494
1.602357
1.610884
1.620488
1.630866
1.559029
1.560121
1.561766
1.564037
1.567028
1.570855
1.575077
1.579773
1.585039
1.591009
1.597864
1.605066
1.612851
1.621547
1.630596
1.558561
1.559579
1.56112
1.563251
1.566054
1.569633
1.573558
1.57789
1.582705
1.588104
1.594221
1.600486
1.607048
1.614115
1.621948
1.558081
1.559033
1.560483
1.562493
1.565136
1.568505
1.572181
1.576213
1.580665
1.585614
1.591162
1.596741
1.602434
1.608374
1.614746
1.585316
1.58104
1.586248
1.576852
1.581791
1.588151
1.573445
1.577521
1.583427
1.591076
1.570702
1.574101
1.579014
1.585956
1.595029
1.568474
1.571343
1.575501
1.581311
1.589379
1.600069
1.56662
1.569091
1.572663
1.577636
1.584426
1.593752
1.605176
1.56505
1.567206
1.570337
1.574663
1.580523
1.5884
1.598185
1.61037
1.563699
1.565604
1.568383
1.572219
1.577362
1.584196
1.592417
1.602681
1.615649
1.562525
1.564226
1.566722
1.570165
1.57476
1.580792
1.587899
1.596472
1.607224
1.620957
1.561501
1.563034
1.565299
1.568424
1.572577
1.577993
1.584247
1.591623
1.600538
1.611754
1.626161
1.56062
1.562014
1.564086
1.566947
1.570739
1.575654
1.581251
1.587716
1.59534
1.604563
1.616167
1.629862
1.559891
1.561167
1.563076
1.565713
1.569202
1.573702
1.578763
1.584524
1.591173
1.599005
1.608464
1.619312
1.631904
1.559318
1.560495
1.562263
1.564708
1.567937
1.572084
1.576702
1.581892
1.587792
1.594591
1.60258
1.611293
1.62122
1.632357
1.55885
1.559942
1.56159
1.563869
1.566873
1.570721
1.57497
1.579699
1.585008
1.591036
1.59797
1.605275
1.613211
1.622166
1.6318
1.558429
1.559446
1.560989
1.563125
1.565937
1.56953
1.573471
1.577824
1.582665
1.588097
1.594257
1.600575
1.607207
1.614374
1.622379
1.558013
1.558964
1.560415
1.562426
1.565073
1.568449
1.572132
1.576174
1.580636
1.585599
1.591165
1.596764
1.602483
1.608456
1.614875
1.557578
1.558471
1.559841
1.561744
1.564248
1.567439
1.570903
1.574685
1.578835
1.583419
1.588517
1.593567
1.598622
1.603754
1.60908
1.585265
1.581098
1.586154
1.576965
1.581819
1.587997
1.573544
1.577581
1.583406
1.590894
1.570748
1.574132
1.579022
1.585926
1.594914
1.568486
1.57135
1.575503
1.581311
1.589381
1.600049
1.566617
1.569087
1.572659
1.577634
1.584432
1.593775
1.605208
1.565046
1.567201
1.570333
1.57466
1.580522
1.588406
1.598204
1.610397
1.563699
1.565604
1.568383
1.572219
1.577362
1.584196
1.592417
1.602681
1.615649
1.562528
1.564229
1.566726
1.570168
1.574763
1.580794
1.5879
1.59647
1.607217
1.620967
1.5615
1.563033
1.565298
1.568423
1.572577
1.577994
1.584252
1.591634
1.600558
1.611793
1.626296
1.560596
1.56199
1.564063
1.566925
1.570721
1.575643
1.581251
1.587734
1.595386
1.604653
1.616348
1.630315
1.559816
1.561092
1.563002
1.565644
1.569141
1.573656
1.578738
1.58453
1.591224
1.599126
1.608698
1.619752
1.632894
1.559169
1.560345
1.562116
1.564568
1.56781
1.57198
1.576628
1.581858
1.587814
1.594692
1.6028
1.61169
1.621937
1.63387
1.558664
1.559755
1.561406
1.563692
1.56671
1.570581
1.574859
1.579626
1.584985
1.591079
1.598105
1.605535
1.613653
1.62293
1.633317
1.558254
1.55927
1.560816
1.562958
1.565782
1.569393
1.573357
1.577738
1.582616
1.588093
1.594314
1.600708
1.60744
1.614754
1.623012
1.557883
1.558834
1.560286
1.562302
1.564957
1.568344
1.572042
1.576102
1.580587
1.585577
1.591177
1.596818
1.602587
1.608627
1.615141
1.55751
1.558403
1.559774
1.561678
1.564186
1.567382
1.570853
1.574643
1.578803
1.583399
1.588512
1.593579
1.598653
1.603808
1.609165
1.557115
1.557957
1.559255
1.561062
1.563441
1.566471
1.569749
1.573311
1.5772
1.581472
1.58619
1.590808
1.595354
1.59987
1.604417
1.585246
1.581151
1.586088
1.57709
1.581864
1.587859
1.573695
1.577683
1.583403
1.590654
1.570869
1.574224
1.579063
1.58586
1.594608
1.568542
1.571393
1.575526
1.581302
1.589309
1.599809
1.566633
1.569098
1.572664
1.577631
1.58442
1.593746
1.605108
1.565045
1.567199
1.570329
1.574656
1.580519
1.588406
1.598211
1.610385
1.563695
1.565601
1.568379
1.572216
1.57736
1.584195
1.592421
1.602694
1.615658
1.562528
1.564229
1.566726
1.570168
1.574763
1.580794
1.5879
1.59647
1.607217
1.620967
1.561503
1.563036
1.5653
1.568425
1.572579
1.577996
1.584253
1.591635
1.600558
1.611792
1.626323
1.560595
1.561988
1.564061
1.566922
1.570719
1.575641
1.581252
1.58774
1.5954
1.60468
1.616401
1.630481
1.559792
1.561067
1.562977
1.56562
1.569119
1.573639
1.578729
1.584534
1.591248
1.599182
1.608805
1.619956
1.633389
1.559095
1.56027
1.562042
1.564497
1.567745
1.571926
1.57659
1.581844
1.587833
1.59476
1.602944
1.61195
1.622408
1.634902
1.558518
1.559608
1.56126
1.563552
1.566581
1.57047
1.574773
1.579572
1.584974
1.591128
1.598238
1.605786
1.614081
1.623676
1.634858
1.558071
1.559087
1.560634
1.562783
1.565618
1.569249
1.573239
1.577651
1.582568
1.588099
1.59439
1.600873
1.607726
1.615218
1.62379
1.557711
1.558661
1.560115
1.562137
1.564802
1.568206
1.571924
1.576008
1.580522
1.585551
1.5912
1.596899
1.60274
1.608875
1.61553
1.557383
1.558275
1.559647
1.561555
1.56407
1.567277
1.570762
1.574567
1.578746
1.583365
1.588507
1.593606
1.598719
1.603921
1.609341
1.557049
1.55789
1.559189
1.560997
1.56338
1.566415
1.569699
1.573268
1.577166
1.581447
1.586179
1.59081
1.595371
1.599905
1.604474
1.556688
1.557484
1.558717
1.560438
1.562705
1.56559
1.568701
1.572068
1.575728
1.579728
1.584122
1.588378
1.59251
1.596539
1.600497
1.581186
1.586062
1.577192
1.581907
1.587764
1.573852
1.577799
1.583421
1.590449
1.571043
1.574366
1.579142
1.585808
1.594252
1.568678
1.571509
1.575603
1.581312
1.58918
1.599343
1.566697
1.569153
1.572702
1.577642
1.584385
1.593618
1.604746
1.565064
1.567214
1.570339
1.574658
1.580509
1.588378
1.59815
1.610209
1.563695
1.5656
1.568377
1.572213
1.577355
1.584189
1.592414
1.602685
1.615603
1.562525
1.564226
1.566722
1.570165
1.57476
1.580792
1.587899
1.596472
1.607224
1.620957
1.561503
1.563036
1.5653
1.568425
1.572579
1.577996
1.584253
1.591635
1.600558
1.611792
1.626323
1.560598
1.561991
1.564063
1.566924
1.57072
1.575642
1.581253
1.58774
1.595401
1.604682
1.616407
1.630522
1.559791
1.561066
1.562975
1.565616
1.569115
1.573635
1.578727
1.584535
1.591255
1.599198
1.608837
1.620021
1.633577
1.559072
1.560247
1.562018
1.564472
1.567721
1.571905
1.576574
1.581837
1.587841
1.59479
1.603008
1.612069
1.622628
1.635424
1.558446
1.559534
1.561187
1.56348
1.566514
1.570411
1.574726
1.579543
1.58497
1.59116
1.598324
1.605948
1.61436
1.624167
1.635912
1.557928
1.558942
1.560491
1.562644
1.565488
1.569135
1.573144
1.577582
1.582534
1.58811
1.594466
1.601032
1.608001
1.615666
1.624551
1.557532
1.55848
1.559937
1.561964
1.564639
1.56806
1.5718
1.57591
1.580458
1.585529
1.591234
1.597
1.602927
1.609179
1.616005
1.557214
1.558106
1.559479
1.561393
1.563917
1.567138
1.57064
1.574466
1.578672
1.583323
1.588504
1.59365
1.598817
1.604087
1.609597
1.556924
1.557764
1.559064
1.560876
1.563265
1.566311
1.569606
1.573188
1.577103
1.581405
1.586161
1.590819
1.59541
1.59998
1.604592
1.556623
1.557418
1.558652
1.560374
1.562644
1.565535
1.568651
1.572024
1.575692
1.579701
1.584105
1.588373
1.592517
1.59656
1.600534
1.556294
1.557047
1.558222
1.559865
1.56203
1.564785
1.567744
1.570937
1.574395
1.578156
1.582268
1.586215
1.590003
1.593639
1.597134
1.577252
1.581937
1.587723
1.573976
1.577893
1.583445
1.59031
1.571218
1.574515
1.579238
1.585786
1.593956
1.568865
1.571675
1.575727
1.581357
1.589063
1.598836
1.566843
1.569284
1.572806
1.577697
1.584353
1.593408
1.604121
1.565135
1.567277
1.570389
1.574687
1.580502
1.58831
1.597967
1.609726
1.563717
1.565619
1.568392
1.572221
1.577353
1.584171
1.592371
1.602594
1.615352
1.562526
1.564226
1.566722
1.570164
1.574758
1.580788
1.58789
1.596458
1.6072
1.620862
1.5615
1.563033
1.565298
1.568423
1.572577
1.577994
1.584252
1.591634
1.600558
1.611793
1.626296
1.560598
1.561991
1.564063
1.566924
1.57072
1.575642
1.581253
1.58774
1.595401
1.604682
1.616407
1.630522
1.559795
1.561069
1.562977
1.565618
1.569115
1.573634
1.578726
1.584534
1.591255
1.5992
1.608841
1.620031
1.633628
1.559072
1.560245
1.562015
1.564469
1.567716
1.571899
1.576569
1.581833
1.587841
1.594798
1.603027
1.612106
1.622701
1.635627
1.558424
1.559511
1.561162
1.563455
1.566489
1.570388
1.574706
1.579528
1.584966
1.591172
1.59836
1.60602
1.614487
1.624398
1.636446
1.557858
1.55887
1.560419
1.562573
1.56542
1.569073
1.573091
1.577542
1.582514
1.588117
1.594512
1.601131
1.608176
1.615957
1.625052
1.557392
1.558339
1.559796
1.561826
1.564509
1.567944
1.571699
1.575831
1.580406
1.585514
1.591268
1.597096
1.603104
1.609469
1.616464
1.557039
1.557929
1.559303
1.561222
1.563755
1.566992
1.570512
1.574361
1.578595
1.583281
1.588508
1.593706
1.598937
1.604288
1.609909
1.556758
1.557598
1.558899
1.560715
1.563113
1.566172
1.569483
1.573084
1.577021
1.58135
1.586139
1.590835
1.595469
1.600089
1.604764
1.5565
1.557295
1.55853
1.560255
1.562531
1.56543
1.568557
1.571943
1.575625
1.579652
1.584078
1.588367
1.592536
1.596607
1.600613
1.55623
1.556983
1.558159
1.559803
1.561971
1.56473
1.567694
1.570892
1.574357
1.578126
1.582247
1.586205
1.590003
1.59365
1.597157
1.555928
1.556643
1.557765
1.559337
1.56141
1.564046
1.566868
1.569903
1.573179
1.576729
1.580594
1.584274
1.58777
1.591081
1.594206
1.574047
1.577949
1.583466
1.590247
1.571355
1.574633
1.579318
1.585782
1.593756
1.569051
1.571844
1.575861
1.581422
1.588985
1.598423
1.567038
1.569464
1.572957
1.577794
1.584352
1.593206
1.603466
1.565286
1.567419
1.57051
1.574773
1.580526
1.588223
1.597677
1.608944
1.563791
1.565688
1.568452
1.572264
1.57737
1.584141
1.592269
1.602356
1.61475
1.562549
1.564248
1.566741
1.570178
1.574764
1.58078
1.587863
1.596399
1.607078
1.620536
1.561501
1.563034
1.565299
1.568424
1.572577
1.577993
1.584247
1.591623
1.600538
1.611754
1.626161
1.560595
1.561988
1.564061
1.566922
1.570719
1.575641
1.581252
1.58774
1.5954
1.60468
1.616401
1.630481
1.559795
1.561069
1.562977
1.565618
1.569115
1.573634
1.578726
1.584534
1.591255
1.5992
1.608841
1.620031
1.633628
1.559076
1.560248
1.562017
1.56447
1.567716
1.571898
1.576567
1.581831
1.587839
1.594797
1.603029
1.612112
1.622714
1.635684
1.558424
1.55951
1.56116
1.563452
1.566484
1.570381
1.574698
1.579521
1.584961
1.591172
1.598368
1.606041
1.614528
1.624476
1.636657
1.557837
1.558848
1.560395
1.562548
1.565395
1.569048
1.573068
1.577523
1.582501
1.588115
1.594527
1.601171
1.608253
1.61609
1.625288
1.557323
1.558269
1.559725
1.561756
1.564441
1.56788
1.571643
1.575785
1.580375
1.585503
1.591286
1.597153
1.603213
1.609652
1.61676
1.556902
1.557791
1.559165
1.561087
1.563626
1.566874
1.570408
1.574275
1.578531
1.583247
1.588513
1.593758
1.599049
1.604478
1.610207
1.556586
1.557424
1.558726
1.560547
1.562953
1.566025
1.569352
1.572973
1.576934
1.581293
1.58612
1.590858
1.595541
1.600221
1.604973
1.556337
1.557131
1.558367
1.560097
1.56238
1.565292
1.568433
1.571835
1.575537
1.579587
1.584042
1.588362
1.592566
1.596675
1.600728
1.556109
1.556861
1.558038
1.559685
1.561858
1.564626
1.5676
1.57081
1.574287
1.578072
1.582212
1.586188
1.590006
1.593675
1.597207
1.555866
1.55658
1.557702
1.559276
1.561351
1.563991
1.566818
1.569858
1.57314
1.576698
1.58057
1.584259
1.587764
1.591084
1.594218
1.555588
1.556269
1.557342
1.558848
1.560837
1.563364
1.566063
1.568955
1.572066
1.575428
1.579073
1.58252
1.585765
1.588802
1.591622
1.571432
1.574701
1.579367
1.585788
1.593662
1.569194
1.571976
1.575968
1.581481
1.588942
1.598144
1.567229
1.569644
1.573113
1.577903
1.584376
1.593056
1.602935
1.565486
1.567609
1.570679
1.574902
1.580586
1.588161
1.597389
1.60814
1.563946
1.565836
1.568585
1.572371
1.57743
1.584124
1.592129
1.601985
1.613811
1.562625
1.564321
1.566808
1.570232
1.574797
1.58078
1.58781
1.596264
1.606786
1.619817
1.561525
1.563058
1.565321
1.568443
1.57259
1.577996
1.584234
1.591586
1.600463
1.611603
1.625763
1.560596
1.56199
1.564063
1.566925
1.570721
1.575643
1.581251
1.587734
1.595386
1.604653
1.616348
1.630315
1.559791
1.561066
1.562975
1.565616
1.569115
1.573635
1.578727
1.584535
1.591255
1.599198
1.608837
1.620021
1.633577
1.559076
1.560248
1.562017
1.56447
1.567716
1.571898
1.576567
1.581831
1.587839
1.594797
1.603029
1.612112
1.622714
1.635684
1.558428
1.559514
1.561163
1.563453
1.566484
1.57038
1.574696
1.579518
1.584957
1.591169
1.598367
1.606043
1.614535
1.624492
1.636717
1.557838
1.558848
1.560393
1.562544
1.565389
1.56904
1.573059
1.577513
1.582492
1.58811
1.594527
1.60118
1.608276
1.616134
1.625369
1.557304
1.558248
1.559703
1.561732
1.564416
1.567854
1.571618
1.575761
1.580356
1.585491
1.591287
1.597171
1.603257
1.609733
1.616897
1.556835
1.557722
1.559096
1.561017
1.563559
1.56681
1.570349
1.574224
1.578492
1.583223
1.588511
1.593784
1.599113
1.604593
1.610395
1.556452
1.557289
1.558591
1.560414
1.562825
1.565907
1.569246
1.572882
1.576862
1.581245
1.586103
1.590878
1.595606
1.600343
1.605168
1.556168
1.556961
1.558198
1.559931
1.562222
1.565146
1.568301
1.57172
1.575444
1.579519
1.584006
1.588361
1.592603
1.596758
1.600866
1.555949
1.5567
1.557878
1.559529
1.561709
1.564488
1.567475
1.5707
1.574195
1.578
1.582165
1.586167
1.590014
1.593713
1.597281
1.555746
1.55646
1.557584
1.55916
1.56124
1.563888
1.566724
1.569774
1.573068
1.57664
1.580529
1.584234
1.587756
1.591093
1.594247
1.555526
1.556207
1.55728
1.558788
1.560779
1.56331
1.566013
1.56891
1.572027
1.575395
1.579047
1.582502
1.585755
1.588799
1.591626
1.55527
1.55592
1.556949
1.558396
1.560306
1.562734
1.565319
1.568081
1.571044
1.574234
1.577683
1.580925
1.583952
1.586754
1.589319
1.569273
1.57205
1.576029
1.581519
1.588929
1.598011
1.567375
1.569783
1.573235
1.577992
1.584405
1.592963
1.602578
1.565679
1.567795
1.570847
1.575037
1.580662
1.588132
1.597168
1.607494
1.564147
1.566031
1.568764
1.57252
1.577529
1.584136
1.592006
1.601614
1.612861
1.562781
1.564473
1.566949
1.570353
1.574883
1.580808
1.587753
1.59607
1.606335
1.618724
1.561601
1.563133
1.565392
1.568504
1.572636
1.578016
1.584217
1.591511
1.600295
1.611257
1.624928
1.56062
1.562014
1.564086
1.566947
1.570739
1.575654
1.581251
1.587716
1.59534
1.604563
1.616167
1.629862
1.559792
1.561067
1.562977
1.56562
1.569119
1.573639
1.578729
1.584534
1.591248
1.599182
1.608805
1.619956
1.633389
1.559072
1.560245
1.562015
1.564469
1.567716
1.571899
1.576569
1.581833
1.587841
1.594798
1.603027
1.612106
1.622701
1.635627
1.558428
1.559514
1.561163
1.563453
1.566484
1.57038
1.574696
1.579518
1.584957
1.591169
1.598367
1.606043
1.614535
1.624492
1.636717
1.557842
1.558852
1.560396
1.562546
1.565389
1.569039
1.573056
1.57751
1.582487
1.588105
1.594523
1.601179
1.608278
1.616141
1.625386
1.557305
1.558248
1.559702
1.561729
1.56441
1.567847
1.571608
1.575751
1.580345
1.585481
1.59128
1.597171
1.603266
1.609757
1.616941
1.556817
1.557703
1.559075
1.560994
1.563534
1.566784
1.570323
1.574199
1.578469
1.583205
1.588501
1.593787
1.599133
1.604639
1.610477
1.556388
1.557223
1.558524
1.560346
1.562759
1.565843
1.569186
1.572828
1.576817
1.581212
1.586087
1.590883
1.595639
1.600412
1.605287
1.556038
1.556828
1.558065
1.559801
1.562096
1.565028
1.568194
1.571626
1.575365
1.579461
1.583973
1.588358
1.592635
1.596832
1.600993
1.555783
1.556533
1.557712
1.559366
1.561553
1.564343
1.567343
1.570583
1.574096
1.577924
1.582116
1.586147
1.590025
1.59376
1.597369
1.555589
1.556302
1.557426
1.559006
1.561093
1.563751
1.566599
1.569663
1.572973
1.576562
1.580473
1.584201
1.587747
1.591109
1.594289
1.555409
1.556089
1.557163
1.558674
1.560669
1.563208
1.565919
1.568825
1.571953
1.575334
1.579
1.58247
1.585737
1.588796
1.591639
1.55521
1.555859
1.556889
1.558337
1.560249
1.56268
1.565269
1.568036
1.571004
1.5742
1.577655
1.580904
1.583937
1.586746
1.589317
1.554973
1.555595
1.556583
1.557975
1.559813
1.562149
1.56463
1.567273
1.570101
1.573136
1.576407
1.579466
1.582301
1.584901
1.58725
1.567456
1.56986
1.573303
1.578045
1.584428
1.592924
1.602407
1.565826
1.567937
1.570977
1.575144
1.580727
1.588122
1.597025
1.60706
1.56434
1.566219
1.56894
1.572671
1.577637
1.584169
1.591923
1.601323
1.6121
1.562981
1.564669
1.567134
1.570515
1.575007
1.580868
1.587717
1.595887
1.60588
1.617627
1.561757
1.563286
1.565537
1.568634
1.572739
1.578075
1.584213
1.591412
1.600047
1.610726
1.62368
1.560697
1.56209
1.564159
1.567013
1.570794
1.57569
1.581258
1.587681
1.595242
1.604362
1.615768
1.628938
1.559816
1.561092
1.563002
1.565644
1.569141
1.573656
1.578738
1.58453
1.591224
1.599126
1.608698
1.619752
1.632894
1.559072
1.560247
1.562018
1.564472
1.567721
1.571905
1.576574
1.581837
1.587841
1.59479
1.603008
1.612069
1.622628
1.635424
1.558424
1.55951
1.56116
1.563452
1.566484
1.570381
1.574698
1.579521
1.584961
1.591172
1.598368
1.606041
1.614528
1.624476
1.636657
1.557842
1.558852
1.560396
1.562546
1.565389
1.569039
1.573056
1.57751
1.582487
1.588105
1.594523
1.601179
1.608278
1.616141
1.625386
1.55731
1.558252
1.559705
1.561731
1.564411
1.567845
1.571605
1.575747
1.580339
1.585476
1.591274
1.597166
1.603264
1.609759
1.616949
1.556819
1.557704
1.559074
1.560992
1.563529
1.566777
1.570314
1.574188
1.578456
1.583192
1.58849
1.59378
1.599133
1.604649
1.610501
1.556371
1.557204
1.558504
1.560324
1.562735
1.565818
1.56916
1.572802
1.576792
1.58119
1.58607
1.590875
1.595643
1.600434
1.605334
1.555975
1.556764
1.558
1.559735
1.56203
1.564965
1.568134
1.571571
1.575316
1.579422
1.583947
1.588347
1.592645
1.596869
1.601065
1.555655
1.556404
1.557582
1.559238
1.561429
1.564226
1.567236
1.570487
1.574014
1.577858
1.582072
1.586127
1.590032
1.5938
1.597447
1.555426
1.556138
1.557263
1.558846
1.560939
1.563607
1.566466
1.569545
1.572871
1.57648
1.580414
1.584167
1.587738
1.591129
1.594341
1.555254
1.555933
1.557009
1.558522
1.560524
1.563072
1.565794
1.568712
1.571855
1.575252
1.578938
1.582427
1.585714
1.588794
1.591658
1.555094
1.555743
1.556773
1.558224
1.56014
1.562579
1.565175
1.567951
1.570929
1.574137
1.577605
1.580866
1.583912
1.586734
1.589317
1.554913
1.555535
1.556524
1.557917
1.559757
1.562096
1.56458
1.567228
1.570061
1.573102
1.576378
1.579443
1.582284
1.58489
1.587243
1.554694
1.55529
1.556242
1.557583
1.559355
1.561605
1.563989
1.566524
1.569228
1.572123
1.575232
1.578125
1.580791
1.583215
1.585377
1.565906
1.568015
1.57105
1.575205
1.580767
1.588125
1.596961
1.60685
1.564487
1.566363
1.569075
1.572788
1.577723
1.584203
1.591876
1.60113
1.611589
1.563173
1.564859
1.567313
1.570675
1.575133
1.580938
1.587707
1.595752
1.605519
1.616752
1.561956
1.563482
1.565725
1.568804
1.572879
1.578165
1.584233
1.59133
1.599804
1.610188
1.622439
1.560851
1.562243
1.564307
1.567149
1.570909
1.575769
1.58129
1.587645
1.595103
1.604059
1.615158
1.62757
1.559891
1.561167
1.563076
1.565713
1.569202
1.573702
1.578763
1.584524
1.591173
1.599005
1.608464
1.619312
1.631904
1.559095
1.56027
1.562042
1.564497
1.567745
1.571926
1.57659
1.581844
1.587833
1.59476
1.602944
1.61195
1.622408
1.634902
1.558424
1.559511
1.561162
1.563455
1.566489
1.570388
1.574706
1.579528
1.584966
1.591172
1.59836
1.60602
1.614487
1.624398
1.636446
1.557838
1.558848
1.560393
1.562544
1.565389
1.56904
1.573059
1.577513
1.582492
1.58811
1.594527
1.60118
1.608276
1.616134
1.625369
1.55731
1.558252
1.559705
1.561731
1.564411
1.567845
1.571605
1.575747
1.580339
1.585476
1.591274
1.597166
1.603264
1.609759
1.616949
1.556824
1.557708
1.559078
1.560994
1.56353
1.566776
1.570311
1.574183
1.578451
1.583186
1.588483
1.593773
1.599128
1.604647
1.610504
1.556374
1.557206
1.558504
1.560322
1.562731
1.565811
1.569151
1.57279
1.576779
1.581176
1.586056
1.590862
1.595635
1.600433
1.605344
1.55596
1.556747
1.557981
1.559714
1.562007
1.56494
1.568108
1.571544
1.57529
1.579396
1.583925
1.588331
1.592637
1.596874
1.601088
1.555594
1.556341
1.557519
1.559174
1.561365
1.564164
1.567176
1.57043
1.573962
1.577814
1.582038
1.586105
1.590026
1.593813
1.597486
1.555301
1.556011
1.557136
1.55872
1.560817
1.563492
1.566359
1.569447
1.572785
1.576409
1.580361
1.584134
1.587727
1.591142
1.594384
1.555094
1.555772
1.556848
1.558365
1.560372
1.562929
1.565662
1.568593
1.571751
1.575165
1.578872
1.582381
1.58569
1.588793
1.591682
1.554941
1.55559
1.556621
1.558074
1.559997
1.562444
1.565051
1.567838
1.570829
1.574052
1.577538
1.580816
1.583879
1.586718
1.589319
1.554799
1.55542
1.55641
1.557806
1.55965
1.561995
1.564487
1.567143
1.569985
1.573036
1.576325
1.579401
1.582253
1.584869
1.587233
1.554636
1.555231
1.556183
1.557525
1.559299
1.561553
1.56394
1.566479
1.569188
1.572087
1.575202
1.578101
1.580772
1.5832
1.585366
1.554432
1.555004
1.555921
1.557216
1.558926
1.561098
1.563393
1.565827
1.568417
1.571183
1.574146
1.57689
1.579403
1.58167
1.583671
1.564567
1.566442
1.569149
1.572853
1.577773
1.584227
1.59186
1.60104
1.611341
1.563319
1.565002
1.56745
1.570799
1.575232
1.580998
1.58771
1.595667
1.605277
1.616165
1.562146
1.563671
1.565906
1.56897
1.573018
1.57826
1.584268
1.591278
1.599616
1.609757
1.621451
1.561047
1.562438
1.564495
1.567324
1.571059
1.57588
1.581346
1.587626
1.594974
1.603757
1.614537
1.626216
1.560043
1.561319
1.563224
1.565852
1.569324
1.573797
1.57882
1.584529
1.591104
1.598826
1.608108
1.61864
1.63045
1.559169
1.560345
1.562116
1.564568
1.56781
1.57198
1.576628
1.581858
1.587814
1.594692
1.6028
1.61169
1.621937
1.63387