/*--------------------------------*- C++ -*----------------------------------*\
| =========                 |                                                 |
| \\      /  F ield         | OpenFOAM: The Open Source CFD Toolbox           |
|  \\    /   O peration     | Version:  2306                                  |
|   \\  /    A nd           | Website:  www.openfoam.com                      |
|    \\/     M anipulation  |                                                 |
\*---------------------------------------------------------------------------*/
FoamFile
{
    version     2.0;
    format      ascii;
    arch        "LSB;label=32;scalar=64";
    class       volScalarField;
    location    "0.6/phiI";
    object      T;
}
// * * * * * * * * * * * * * * * * * * * * * * * * * * * * * * * * * * * * * //

dimensions      [0 0 0 1 0 0 0];

internalField   nonuniform List<scalar> 
12000
(
1082.353
1082.235
1083.782
1082.411
1081.96
1083.774
1082.294
1085.123
1083.834
1082.457
1081.44
1083.754
1082.019
1085.145
1083.825
1082.339
1086.398
1085.167
1083.873
1082.489
1080.544
1083.711
1081.502
1085.195
1083.805
1082.065
1086.43
1085.189
1083.865
1082.372
1087.634
1086.436
1085.2
1083.9
1082.508
1079.189
1083.632
1080.613
1085.282
1083.762
1081.55
1086.502
1085.239
1083.844
1082.098
1087.669
1086.468
1085.222
1083.892
1082.391
1088.836
1087.667
1086.464
1085.222
1083.915
1082.512
1077.625
1083.487
1079.275
1085.422
1083.68
1080.668
1086.632
1085.325
1083.8
1081.585
1087.747
1086.54
1085.271
1083.87
1082.118
1088.871
1087.702
1086.496
1085.244
1083.906
1082.394
1090.003
1088.864
1087.69
1086.481
1085.232
1083.916
1082.515
1076.193
1083.223
1077.735
1085.603
1083.532
1079.347
1086.843
1085.461
1083.716
1080.71
1087.889
1086.668
1085.356
1083.825
1081.606
1088.949
1087.78
1086.567
1085.292
1083.884
1082.121
1090.036
1088.899
1087.725
1086.513
1085.254
1083.907
1082.397
1091.133
1090.027
1088.883
1087.703
1086.487
1085.23
1083.917
1082.518
1075.131
1082.9
1076.324
1085.719
1083.268
1077.829
1087.132
1085.635
1083.564
1079.405
1088.12
1086.875
1085.488
1083.738
1080.737
1089.091
1087.92
1086.694
1085.376
1083.837
1081.611
1090.113
1088.977
1087.802
1086.584
1085.302
1083.884
1082.124
1091.166
1090.061
1088.918
1087.737
1086.519
1085.252
1083.907
1082.4
1092.226
1091.155
1090.043
1088.893
1087.706
1086.483
1085.229
1083.917
1082.521
1074.572
1082.618
1075.277
1085.755
1082.95
1076.438
1087.382
1085.747
1083.301
1077.908
1088.442
1087.157
1085.656
1083.583
1079.446
1089.323
1088.148
1086.897
1085.504
1083.748
1080.746
1090.25
1089.118
1087.942
1086.709
1085.383
1083.836
1081.615
1091.239
1090.137
1088.996
1087.815
1086.589
1085.299
1083.884
1082.128
1092.257
1091.187
1090.077
1088.927
1087.74
1086.514
1085.25
1083.908
1082.403
1093.281
1092.245
1091.168
1090.05
1088.893
1087.699
1086.478
1085.227
1083.918
1082.523
1074.572
1082.456
1074.725
1085.747
1082.673
1075.406
1087.551
1085.782
1082.987
1076.537
1088.736
1087.401
1085.763
1083.32
1077.97
1089.647
1088.462
1087.171
1085.664
1083.588
1079.468
1090.475
1089.347
1088.166
1086.908
1085.507
1083.744
1080.755
1091.37
1090.274
1089.136
1087.952
1086.712
1085.378
1083.834
1081.62
1092.327
1091.26
1090.153
1089.005
1087.817
1086.583
1085.296
1083.883
1082.131
1093.311
1092.276
1091.2
1090.084
1088.927
1087.733
1086.509
1085.247
1083.908
1082.406
1094.297
1093.298
1092.256
1091.173
1090.048
1088.884
1087.692
1086.474
1085.224
1083.918
1082.526
1075.131
1082.456
1074.725
1085.732
1082.513
1074.862
1087.648
1085.775
1082.714
1075.518
1088.954
1087.568
1085.798
1083.01
1076.618
1089.951
1088.751
1087.41
1085.767
1083.326
1078.009
1090.789
1089.664
1088.473
1087.175
1085.66
1083.58
1079.487
1091.585
1090.496
1089.361
1088.173
1086.907
1085.499
1083.74
1080.764
1092.453
1091.391
1090.288
1089.144
1087.953
1086.705
1085.374
1083.833
1081.625
1093.377
1092.346
1091.273
1090.159
1089.004
1087.809
1086.578
1085.293
1083.883
1082.135
1094.326
1093.328
1092.287
1091.205
1090.081
1088.918
1087.726
1086.504
1085.245
1083.907
1082.409
1095.275
1094.312
1093.307
1092.259
1091.168
1090.037
1088.876
1087.686
1086.469
1085.222
1083.917
1082.534
1076.193
1082.618
1075.277
1085.732
1082.513
1074.862
1087.69
1085.76
1082.557
1074.981
1089.091
1087.664
1085.791
1082.741
1075.613
1090.183
1088.966
1087.574
1085.801
1083.019
1076.673
1091.087
1089.963
1088.756
1087.408
1085.759
1083.318
1078.042
1091.885
1090.804
1089.672
1088.473
1087.166
1085.645
1083.573
1079.506
1092.657
1091.603
1090.507
1089.366
1088.169
1086.896
1085.491
1083.736
1080.773
1093.497
1092.471
1091.403
1090.293
1089.141
1087.943
1086.698
1085.369
1083.831
1081.63
1094.389
1093.394
1092.356
1091.277
1090.156
1088.994
1087.801
1086.572
1085.289
1083.882
1082.138
1095.302
1094.341
1093.337
1092.29
1091.2
1090.07
1088.91
1087.719
1086.499
1085.242
1083.907
1082.417
1096.213
1095.288
1094.32
1093.308
1092.253
1091.156
1090.027
1088.867
1087.679
1086.464
1085.219
1083.922
1082.546
1077.625
1082.9
1076.324
1085.747
1082.673
1075.406
1087.69
1085.76
1082.557
1074.981
1089.157
1087.706
1085.777
1082.587
1075.083
1090.333
1089.102
1087.669
1085.794
1082.754
1075.68
1091.318
1090.192
1088.968
1087.569
1085.792
1083.014
1076.72
1092.172
1091.097
1089.965
1088.751
1087.394
1085.74
1083.311
1078.075
1092.943
1091.898
1090.809
1089.67
1088.462
1087.148
1085.632
1083.566
1079.524
1093.692
1092.673
1091.613
1090.51
1089.36
1088.156
1086.886
1085.483
1083.732
1080.783
1094.504
1093.513
1092.481
1091.406
1090.289
1089.13
1087.935
1086.691
1085.364
1083.829
1081.635
1095.363
1094.404
1093.403
1092.359
1091.272
1090.144
1088.985
1087.794
1086.567
1085.286
1083.881
1082.147
1096.239
1095.315
1094.348
1093.338
1092.284
1091.188
1090.06
1088.901
1087.712
1086.494
1085.239
1083.911
1082.429
1097.113
1096.225
1095.294
1094.32
1093.301
1092.24
1091.146
1090.018
1088.859
1087.672
1086.459
1085.22
1083.93
1082.562
1079.189
1083.223
1077.735
1085.755
1082.95
1076.438
1087.648
1085.775
1082.714
1075.518
1089.157
1087.706
1085.777
1082.587
1075.083
1090.407
1089.167
1087.711
1085.781
1082.603
1075.156
1091.47
1090.341
1089.102
1087.664
1085.786
1082.753
1075.737
1092.396
1091.325
1090.191
1088.959
1087.553
1085.772
1083.009
1076.766
1093.217
1092.181
1091.098
1089.958
1088.734
1087.371
1085.724
1083.303
1078.107
1093.964
1092.954
1091.902
1090.806
1089.658
1088.443
1087.133
1085.619
1083.558
1079.543
1094.69
1093.706
1092.681
1091.613
1090.502
1089.346
1088.145
1086.876
1085.475
1083.728
1080.792
1095.473
1094.518
1093.521
1092.482
1091.4
1090.276
1089.12
1087.926
1086.684
1085.359
1083.827
1081.646
1096.298
1095.376
1094.411
1093.404
1092.352
1091.259
1090.134
1088.976
1087.786
1086.561
1085.282
1083.884
1082.16
1097.138
1096.252
1095.321
1094.348
1093.331
1092.271
1091.177
1090.051
1088.892
1087.705
1086.489
1085.24
1083.919
1082.446
1097.975
1097.124
1096.231
1095.293
1094.312
1093.288
1092.229
1091.135
1090.008
1088.85
1087.664
1086.457
1085.225
1083.943
1082.584
1080.544
1083.487
1079.275
1085.719
1083.268
1077.829
1087.551
1085.782
1082.987
1076.537
1089.091
1087.664
1085.791
1082.741
1075.613
1090.407
1089.167
1087.711
1085.781
1082.603
1075.156
1091.544
1090.414
1089.167
1087.706
1085.773
1082.603
1075.218
1092.544
1091.476
1090.339
1089.093
1087.646
1085.766
1082.751
1075.792
1093.432
1092.402
1091.323
1090.181
1088.94
1087.528
1085.755
1083.004
1076.81
1094.226
1093.224
1092.18
1091.09
1089.941
1088.71
1087.352
1085.708
1083.296
1078.138
1094.95
1093.974
1092.957
1091.897
1090.792
1089.637
1088.426
1087.117
1085.606
1083.551
1079.561
1095.651
1094.703
1093.713
1092.68
1091.605
1090.487
1089.333
1088.133
1086.865
1085.467
1083.723
1080.808
1096.404
1095.486
1094.525
1093.521
1092.475
1091.386
1090.265
1089.109
1087.916
1086.676
1085.354
1083.829
1081.661
1097.195
1096.31
1095.382
1094.411
1093.396
1092.339
1091.248
1090.124
1088.967
1087.778
1086.554
1085.282
1083.892
1082.178
1098
1097.15
1096.257
1095.32
1094.34
1093.317
1092.259
1091.166
1090.041
1088.883
1087.697
1086.486
1085.244
1083.932
1082.468
1098.8
1097.986
1097.129
1096.229
1095.285
1094.298
1093.276
1092.217
1091.124
1089.998
1088.841
1087.66
1086.459
1085.234
1083.96
1081.44
1083.632
1080.613
1085.603
1083.532
1079.347
1087.382
1085.747
1083.301
1077.908
1088.954
1087.568
1085.798
1083.01
1076.618
1090.333
1089.102
1087.669
1085.794
1082.754
1075.68
1091.544
1090.414
1089.167
1087.706
1085.773
1082.603
1075.218
1092.618
1091.55
1090.411
1089.156
1087.688
1085.754
1082.603
1075.279
1093.575
1092.549
1091.472
1090.327
1089.072
1087.62
1085.749
1082.749
1075.846
1094.432
1093.437
1092.399
1091.312
1090.161
1088.913
1087.506
1085.737
1082.999
1076.854
1095.2
1094.232
1093.223
1092.171
1091.072
1089.916
1088.689
1087.332
1085.691
1083.288
1078.169
1095.9
1094.958
1093.976
1092.951
1091.883
1090.772
1089.62
1088.409
1087.101
1085.592
1083.543
1079.585
1096.576
1095.663
1094.708
1093.711
1092.67
1091.588
1090.473
1089.32
1088.121
1086.855
1085.458
1083.723
1080.828
1097.297
1096.416
1095.491
1094.524
1093.513
1092.46
1091.374
1090.254
1089.099
1087.907
1086.668
1085.352
1083.836
1081.682
1098.055
1097.206
1096.315
1095.381
1094.403
1093.382
1092.327
1091.237
1090.113
1088.958
1087.77
1086.551
1085.286
1083.904
1082.201
1098.823
1098.01
1097.154
1096.255
1095.312
1094.326
1093.305
1092.248
1091.155
1090.03
1088.874
1087.693
1086.488
1085.253
1083.949
1099.587
1098.809
1097.989
1097.126
1096.22
1095.27
1094.285
1093.264
1092.206
1091.113
1089.987
1088.835
1087.66
1086.465
1085.248
1081.96
1083.711
1081.502
1085.422
1083.68
1080.668
1087.132
1085.635
1083.564
1079.405
1088.736
1087.401
1085.763
1083.32
1077.97
1090.183
1088.966
1087.574
1085.801
1083.019
1076.673
1091.47
1090.341
1089.102
1087.664
1085.786
1082.753
1075.737
1092.618
1091.55
1090.411
1089.156
1087.688
1085.754
1082.603
1075.279
1093.646
1092.622
1091.546
1090.399
1089.135
1087.662
1085.737
1082.603
1075.338
1094.57
1093.579
1092.545
1091.46
1090.306
1089.044
1087.598
1085.732
1082.746
1075.899
1095.398
1094.436
1093.434
1092.388
1091.292
1090.134
1088.89
1087.484
1085.72
1082.993
1076.897
1096.14
1095.206
1094.231
1093.214
1092.154
1091.047
1089.895
1088.668
1087.312
1085.674
1083.28
1078.204
1096.814
1095.908
1094.96
1093.97
1092.937
1091.863
1090.754
1089.602
1088.391
1087.085
1085.578
1083.54
1079.614
1097.463
1096.586
1095.667
1094.705
1093.7
1092.654
1091.574
1090.459
1089.306
1088.108
1086.843
1085.453
1083.728
1080.854
1098.153
1097.308
1096.42
1095.489
1094.515
1093.498
1092.447
1091.362
1090.242
1089.088
1087.897
1086.663
1085.354
1083.847
1081.708
1098.877
1098.065
1097.211
1096.313
1095.372
1094.388
1093.37
1092.315
1091.225
1090.103
1088.947
1087.764
1086.552
1085.294
1083.92
1099.61
1098.833
1098.014
1097.151
1096.246
1095.297
1094.313
1093.292
1092.236
1091.144
1090.019
1088.867
1087.692
1086.494
1085.266
1100.338
1099.596
1098.812
1097.986
1097.117
1096.205
1095.258
1094.273
1093.252
1092.194
1091.101
1089.979
1088.832
1087.663
1086.475
1082.235
1083.754
1082.019
1085.282
1083.762
1081.55
1086.843
1085.461
1083.716
1080.71
1088.442
1087.157
1085.656
1083.583
1079.446
1089.951
1088.751
1087.41
1085.767
1083.326
1078.009
1091.318
1090.192
1088.968
1087.569
1085.792
1083.014
1076.72
1092.544
1091.476
1090.339
1089.093
1087.646
1085.766
1082.751
1075.792
1093.646
1092.622
1091.546
1090.399
1089.135
1087.662
1085.737
1082.603
1075.338
1094.638
1093.65
1092.618
1091.533
1090.377
1089.107
1087.639
1085.72
1082.602
1075.395
1095.53
1094.573
1093.575
1092.533
1091.438
1090.277
1089.019
1087.575
1085.714
1082.743
1075.951
1096.33
1095.402
1094.433
1093.423
1092.368
1091.265
1090.11
1088.867
1087.462
1085.702
1082.987
1076.944
1097.045
1096.145
1095.204
1094.221
1093.196
1092.129
1091.026
1089.873
1088.647
1087.292
1085.657
1083.276
1078.245
1097.693
1096.821
1095.908
1094.953
1093.955
1092.916
1091.845
1090.736
1089.584
1088.374
1087.068
1085.567
1083.541
1079.647
1098.314
1097.472
1096.589
1095.663
1094.694
1093.683
1092.639
1091.56
1090.445
1089.293
1088.095
1086.835
1085.452
1083.737
1080.885
1098.973
1098.163
1097.312
1096.418
1095.48
1094.499
1093.485
1092.434
1091.349
1090.23
1089.076
1087.89
1086.663
1085.361
1083.862
1099.662
1098.886
1098.068
1097.208
1096.304
1095.357
1094.375
1093.357
1092.303
1091.214
1090.091
1088.94
1087.763
1086.557
1085.306
1100.36
1099.619
1098.836
1098.011
1097.142
1096.231
1095.284
1094.301
1093.28
1092.224
1091.132
1090.011
1088.864
1087.694
1086.503
1101.052
1100.346
1099.598
1098.809
1097.977
1097.102
1096.192
1095.245
1094.26
1093.239
1092.181
1091.092
1089.975
1088.833
1087.67
1082.353
1083.774
1082.294
1085.195
1083.805
1082.065
1086.632
1085.325
1083.8
1081.585
1088.12
1086.875
1085.488
1083.738
1080.737
1089.647
1088.462
1087.171
1085.664
1083.588
1079.468
1091.087
1089.963
1088.756
1087.408
1085.759
1083.318
1078.042
1092.396
1091.325
1090.191
1088.959
1087.553
1085.772
1083.009
1076.766
1093.575
1092.549
1091.472
1090.327
1089.072
1087.62
1085.749
1082.749
1075.846
1094.638
1093.65
1092.618
1091.533
1090.377
1089.107
1087.639
1085.72
1082.602
1075.395
1095.596
1094.641
1093.645
1092.605
1091.511
1090.348
1089.082
1087.616
1085.703
1082.601
1075.452
1096.458
1095.533
1094.569
1093.563
1092.511
1091.41
1090.252
1088.995
1087.552
1085.697
1082.739
1076.008
1097.229
1096.334
1095.398
1094.422
1093.402
1092.341
1091.242
1090.086
1088.843
1087.44
1085.683
1082.985
1076.996
1097.916
1097.05
1096.143
1095.194
1094.203
1093.172
1092.108
1091.005
1089.852
1088.626
1087.271
1085.643
1083.277
1078.289
1098.536
1097.699
1096.821
1095.901
1094.938
1093.934
1092.898
1091.827
1090.718
1089.566
1088.355
1087.054
1085.561
1083.547
1079.685
1099.128
1098.322
1097.475
1096.585
1095.652
1094.677
1093.668
1092.624
1091.545
1090.431
1089.278
1088.084
1086.83
1085.455
1083.75
1099.755
1098.982
1098.167
1097.309
1096.408
1095.464
1094.486
1093.471
1092.421
1091.336
1090.217
1089.067
1087.886
1086.666
1085.371
1100.411
1099.671
1098.889
1098.065
1097.198
1096.289
1095.344
1094.362
1093.344
1092.29
1091.201
1090.082
1088.936
1087.765
1086.566
1101.074
1100.368
1099.621
1098.832
1098.001
1097.127
1096.218
1095.271
1094.288
1093.268
1092.211
1091.122
1090.006
1088.865
1087.701
1101.731
1101.06
1100.348
1099.595
1098.799
1097.962
1097.089
1096.179
1095.232
1094.248
1093.226
1092.171
1091.086
1089.973
1088.837
1083.782
1082.411
1085.145
1083.825
1082.339
1086.502
1085.239
1083.844
1082.098
1087.889
1086.668
1085.356
1083.825
1081.606
1089.323
1088.148
1086.897
1085.504
1083.748
1080.746
1090.789
1089.664
1088.473
1087.175
1085.66
1083.58
1079.487
1092.172
1091.097
1089.965
1088.751
1087.394
1085.74
1083.311
1078.075
1093.432
1092.402
1091.323
1090.181
1088.94
1087.528
1085.755
1083.004
1076.81
1094.57
1093.579
1092.545
1091.46
1090.306
1089.044
1087.598
1085.732
1082.746
1075.899
1095.596
1094.641
1093.645
1092.605
1091.511
1090.348
1089.082
1087.616
1085.703
1082.601
1075.452
1096.521
1095.599
1094.636
1093.632
1092.583
1091.482
1090.322
1089.057
1087.593
1085.686
1082.599
1075.514
1097.352
1096.46
1095.529
1094.556
1093.541
1092.484
1091.386
1090.228
1088.971
1087.529
1085.678
1082.74
1076.069
1098.093
1097.232
1096.33
1095.387
1094.402
1093.377
1092.318
1091.218
1090.063
1088.82
1087.417
1085.668
1082.988
1077.052
1098.752
1097.92
1097.047
1096.133
1095.177
1094.18
1093.152
1092.087
1090.983
1089.83
1088.603
1087.253
1085.633
1083.282
1078.338
1099.343
1098.542
1097.699
1096.814
1095.886
1094.918
1093.917
1092.88
1091.808
1090.7
1089.547
1088.34
1087.045
1085.56
1083.558
1099.906
1099.136
1098.324
1097.47
1096.573
1095.635
1094.662
1093.653
1092.609
1091.53
1090.415
1089.266
1088.078
1086.83
1085.462
1100.502
1099.764
1098.984
1098.163
1097.298
1096.392
1095.45
1094.472
1093.458
1092.408
1091.323
1090.207
1089.062
1087.887
1086.672
1101.124
1100.419
1099.673
1098.886
1098.055
1097.183
1096.275
1095.331
1094.349
1093.331
1092.277
1091.191
1090.076
1088.936
1087.77
1101.753
1101.082
1100.371
1099.618
1098.822
1097.986
1097.114
1096.205
1095.258
1094.275
1093.254
1092.2
1091.116
1090.005
1088.869
1102.376
1101.739
1101.062
1100.344
1099.585
1098.784
1097.949
1097.076
1096.166
1095.219
1094.234
1093.214
1092.164
1091.083
1089.976
1085.123
1083.834
1082.457
1086.43
1085.189
1083.865
1082.372
1087.747
1086.54
1085.271
1083.87
1082.118
1089.091
1087.92
1086.694
1085.376
1083.837
1081.611
1090.475
1089.347
1088.166
1086.908
1085.507
1083.744
1080.755
1091.885
1090.804
1089.672
1088.473
1087.166
1085.645
1083.573
1079.506
1093.217
1092.181
1091.098
1089.958
1088.734
1087.371
1085.724
1083.303
1078.107
1094.432
1093.437
1092.399
1091.312
1090.161
1088.913
1087.506
1085.737
1082.999
1076.854
1095.53
1094.573
1093.575
1092.533
1091.438
1090.277
1089.019
1087.575
1085.714
1082.743
1075.951
1096.521
1095.599
1094.636
1093.632
1092.583
1091.482
1090.322
1089.057
1087.593
1085.686
1082.599
1075.514
1097.413
1096.524
1095.594
1094.624
1093.611
1092.555
1091.457
1090.297
1089.032
1087.57
1085.667
1082.601
1075.579
1098.213
1097.354
1096.456
1095.517
1094.536
1093.515
1092.46
1091.361
1090.203
1088.946
1087.505
1085.663
1082.745
1076.133
1098.924
1098.096
1097.228
1096.319
1095.367
1094.377
1093.355
1092.296
1091.195
1090.039
1088.795
1087.397
1085.658
1082.995
1077.112
1099.553
1098.755
1097.917
1097.038
1096.116
1095.154
1094.16
1093.131
1092.066
1090.962
1089.807
1088.584
1087.239
1085.628
1083.292
1100.115
1099.349
1098.541
1097.691
1096.799
1095.866
1094.9
1093.899
1092.862
1091.79
1090.68
1089.53
1088.328
1087.039
1085.562
1100.649
1099.914
1099.137
1098.319
1097.459
1096.556
1095.62
1094.647
1093.638
1092.594
1091.514
1090.402
1089.258
1088.075
1086.834
1101.212
1100.51
1099.766
1098.98
1098.152
1097.283
1096.378
1095.437
1094.458
1093.444
1092.393
1091.311
1090.2
1089.06
1087.891
1101.801
1101.131
1100.421
1099.669
1098.875
1098.04
1097.17
1096.262
1095.318
1094.336
1093.317
1092.265
1091.184
1090.074
1088.939
1102.396
1101.76
1101.084
1100.367
1099.608
1098.808
1097.973
1097.101
1096.192
1095.245
1094.261
1093.242
1092.193
1091.113
1090.007
1102.985
1102.382
1101.74
1101.058
1100.334
1099.57
1098.771
1097.936
1097.063
1096.153
1095.205
1094.222
1093.206
1092.16
1091.084
1086.398
1085.167
1083.873
1082.489
1087.669
1086.468
1085.222
1083.892
1082.391
1088.949
1087.78
1086.567
1085.292
1083.884
1082.121
1090.25
1089.118
1087.942
1086.709
1085.383
1083.836
1081.615
1091.585
1090.496
1089.361
1088.173
1086.907
1085.499
1083.74
1080.764
1092.943
1091.898
1090.809
1089.67
1088.462
1087.148
1085.632
1083.566
1079.524
1094.226
1093.224
1092.18
1091.09
1089.941
1088.71
1087.352
1085.708
1083.296
1078.138
1095.398
1094.436
1093.434
1092.388
1091.292
1090.134
1088.89
1087.484
1085.72
1082.993
1076.897
1096.458
1095.533
1094.569
1093.563
1092.511
1091.41
1090.252
1088.995
1087.552
1085.697
1082.739
1076.008
1097.413
1096.524
1095.594
1094.624
1093.611
1092.555
1091.457
1090.297
1089.032
1087.57
1085.667
1082.601
1075.579
1098.272
1097.416
1096.519
1095.582
1094.603
1093.584
1092.531
1091.433
1090.272
1089.007
1087.546
1085.653
1082.608
1075.648
1099.04
1098.215
1097.35
1096.444
1095.497
1094.51
1093.492
1092.436
1091.337
1090.178
1088.92
1087.485
1085.653
1082.755
1076.201
1099.72
1098.926
1098.092
1097.217
1096.3
1095.343
1094.355
1093.332
1092.273
1091.172
1090.014
1088.773
1087.381
1085.651
1083.007
1100.319
1099.556
1098.753
1097.908
1097.021
1096.093
1095.134
1094.14
1093.11
1092.045
1090.939
1089.787
1088.568
1087.23
1085.627
1100.852
1100.12
1099.348
1098.533
1097.677
1096.779
1095.849
1094.882
1093.881
1092.844
1091.77
1090.663
1089.518
1088.321
1087.037
1101.356
1100.656
1099.915
1099.132
1098.308
1097.441
1096.541
1095.604
1094.631
1093.622
1092.577
1091.5
1090.393
1089.253
1088.076
1101.888
1101.22
1100.511
1099.762
1098.97
1098.137
1097.269
1096.364
1095.423
1094.444
1093.429
1092.381
1091.303
1090.196
1089.062
1102.444
1101.808
1101.133
1100.417
1099.659
1098.86
1098.027
1097.156
1096.249
1095.304
1094.322
1093.305
1092.257
1091.18
1090.075
1103.006
1102.403
1101.762
1101.08
1100.356
1099.593
1098.795
1097.96
1097.088
1096.178
1095.231
1094.249
1093.234
1092.188
1091.113
1103.56
1102.992
1102.384
1101.736
1101.048
1100.32
1099.557
1098.758
1097.923
1097.05
1096.139
1095.192
1094.213
1093.201
1092.159
1087.634
1086.436
1085.2
1083.9
1082.508
1088.871
1087.702
1086.496
1085.244
1083.906
1082.394
1090.113
1088.977
1087.802
1086.584
1085.302
1083.884
1082.124
1091.37
1090.274
1089.136
1087.952
1086.712
1085.378
1083.834
1081.62
1092.657
1091.603
1090.507
1089.366
1088.169
1086.896
1085.491
1083.736
1080.773
1093.964
1092.954
1091.902
1090.806
1089.658
1088.443
1087.133
1085.619
1083.558
1079.543
1095.2
1094.232
1093.223
1092.171
1091.072
1089.916
1088.689
1087.332
1085.691
1083.288
1078.169
1096.33
1095.402
1094.433
1093.423
1092.368
1091.265
1090.11
1088.867
1087.462
1085.702
1082.987
1076.944
1097.352
1096.46
1095.529
1094.556
1093.541
1092.484
1091.386
1090.228
1088.971
1087.529
1085.678
1082.74
1076.069
1098.272
1097.416
1096.519
1095.582
1094.603
1093.584
1092.531
1091.433
1090.272
1089.007
1087.546
1085.653
1082.608
1075.648
1099.098
1098.274
1097.411
1096.507
1095.561
1094.576
1093.56
1092.506
1091.408
1090.247
1088.981
1087.525
1085.643
1082.619
1075.721
1099.833
1099.042
1098.21
1097.338
1096.424
1095.472
1094.488
1093.469
1092.413
1091.313
1090.152
1088.897
1087.468
1085.646
1082.769
1100.482
1099.722
1098.922
1098.081
1097.198
1096.276
1095.322
1094.334
1093.31
1092.25
1091.147
1089.991
1088.755
1087.369
1085.649
1101.051
1100.322
1099.553
1098.743
1097.891
1096.999
1096.074
1095.114
1094.119
1093.09
1092.022
1090.918
1089.771
1088.556
1087.224
1101.555
1100.857
1100.119
1099.34
1098.519
1097.657
1096.762
1095.831
1094.865
1093.862
1092.824
1091.753
1090.649
1089.509
1088.317
1102.029
1101.363
1100.657
1099.91
1099.12
1098.291
1097.427
1096.526
1095.589
1094.616
1093.606
1092.563
1091.489
1090.386
1089.252
1102.529
1101.895
1101.221
1100.507
1099.751
1098.954
1098.123
1097.255
1096.35
1095.408
1094.429
1093.416
1092.372
1091.298
1090.196
1103.052
1102.451
1101.81
1101.129
1100.407
1099.644
1098.847
1098.013
1097.143
1096.235
1095.289
1094.309
1093.296
1092.252
1091.18
1103.581
1103.012
1102.405
1101.758
1101.07
1100.342
1099.58
1098.781
1097.946
1097.074
1096.164
1095.218
1094.24
1093.229
1092.187
1104.102
1103.567
1102.993
1102.38
1101.726
1101.033
1100.307
1099.544
1098.745
1097.909
1097.035
1096.126
1095.183
1094.207
1093.199
1088.836
1087.667
1086.464
1085.222
1083.915
1082.512
1090.036
1088.899
1087.725
1086.513
1085.254
1083.907
1082.397
1091.239
1090.137
1088.996
1087.815
1086.589
1085.299
1083.884
1082.128
1092.453
1091.391
1090.288
1089.144
1087.953
1086.705
1085.374
1083.833
1081.625
1093.692
1092.673
1091.613
1090.51
1089.36
1088.156
1086.886
1085.483
1083.732
1080.783
1094.95
1093.974
1092.957
1091.897
1090.792
1089.637
1088.426
1087.117
1085.606
1083.551
1079.561
1096.14
1095.206
1094.231
1093.214
1092.154
1091.047
1089.895
1088.668
1087.312
1085.674
1083.28
1078.204
1097.229
1096.334
1095.398
1094.422
1093.402
1092.341
1091.242
1090.086
1088.843
1087.44
1085.683
1082.985
1076.996
1098.213
1097.354
1096.456
1095.517
1094.536
1093.515
1092.46
1091.361
1090.203
1088.946
1087.505
1085.663
1082.745
1076.133
1099.098
1098.274
1097.411
1096.507
1095.561
1094.576
1093.56
1092.506
1091.408
1090.247
1088.981
1087.525
1085.643
1082.619
1075.721
1099.889
1099.099
1098.269
1097.399
1096.487
1095.536
1094.554
1093.537
1092.482
1091.383
1090.22
1088.957
1087.508
1085.637
1082.634
1100.592
1099.835
1099.037
1098.199
1097.319
1096.4
1095.45
1094.465
1093.446
1092.389
1091.287
1090.128
1088.878
1087.455
1085.644
1101.21
1100.484
1099.718
1098.912
1098.063
1097.175
1096.256
1095.301
1094.312
1093.288
1092.226
1091.124
1089.973
1088.741
1087.362
1101.749
1101.054
1100.319
1099.544
1098.727
1097.87
1096.98
1096.055
1095.094
1094.099
1093.067
1092.002
1090.902
1089.758
1088.549
1102.223
1101.559
1100.856
1100.112
1099.326
1098.5
1097.64
1096.745
1095.814
1094.847
1093.843
1092.806
1091.739
1090.639
1089.503
1102.667
1102.035
1101.363
1100.651
1099.898
1099.104
1098.276
1097.412
1096.511
1095.573
1094.599
1093.591
1092.551
1091.482
1090.383
1103.136
1102.536
1101.896
1101.217
1100.496
1099.735
1098.94
1098.109
1097.241
1096.336
1095.393
1094.415
1093.406
1092.366
1091.296
1103.626
1103.059
1102.452
1101.806
1101.119
1100.392
1099.631
1098.834
1098
1097.129
1096.22
1095.276
1094.299
1093.29
1092.251
1104.122
1103.587
1103.013
1102.4
1101.747
1101.055
1100.329
1099.567
1098.768
1097.933
1097.06
1096.151
1095.209
1094.233
1093.226
1104.61
1104.108
1103.568
1102.988
1102.37
1101.712
1101.021
1100.294
1099.531
1098.732
1097.895
1097.022
1096.116
1095.176
1094.204
1090.003
1088.864
1087.69
1086.481
1085.232
1083.916
1082.515
1091.166
1090.061
1088.918
1087.737
1086.519
1085.252
1083.907
1082.4
1092.327
1091.26
1090.153
1089.005
1087.817
1086.583
1085.296
1083.883
1082.131
1093.497
1092.471
1091.403
1090.293
1089.141
1087.943
1086.698
1085.369
1083.831
1081.63
1094.69
1093.706
1092.681
1091.613
1090.502
1089.346
1088.145
1086.876
1085.475
1083.728
1080.792
1095.9
1094.958
1093.976
1092.951
1091.883
1090.772
1089.62
1088.409
1087.101
1085.592
1083.543
1079.585
1097.045
1096.145
1095.204
1094.221
1093.196
1092.129
1091.026
1089.873
1088.647
1087.292
1085.657
1083.276
1078.245
1098.093
1097.232
1096.33
1095.387
1094.402
1093.377
1092.318
1091.218
1090.063
1088.82
1087.417
1085.668
1082.988
1077.052
1099.04
1098.215
1097.35
1096.444
1095.497
1094.51
1093.492
1092.436
1091.337
1090.178
1088.92
1087.485
1085.653
1082.755
1076.201
1099.889
1099.099
1098.269
1097.399
1096.487
1095.536
1094.554
1093.537
1092.482
1091.383
1090.22
1088.957
1087.508
1085.637
1082.634
1100.648
1099.891
1099.095
1098.258
1097.379
1096.462
1095.514
1094.531
1093.513
1092.458
1091.357
1090.196
1088.938
1087.495
1085.635
1101.318
1100.594
1099.83
1099.026
1098.18
1097.296
1096.379
1095.428
1094.443
1093.423
1092.364
1091.263
1090.108
1088.863
1087.447
1101.905
1101.212
1100.48
1099.708
1098.894
1098.041
1097.156
1096.235
1095.28
1094.29
1093.264
1092.203
1091.105
1089.958
1088.731
1102.413
1101.752
1101.051
1100.31
1099.528
1098.706
1097.851
1096.961
1096.035
1095.075
1094.077
1093.047
1091.985
1090.888
1089.749
1102.857
1102.227
1101.558
1100.848
1100.098
1099.307
1098.483
1097.624
1096.728
1095.796
1094.827
1093.825
1092.792
1091.728
1090.633
1103.271
1102.673
1102.035
1101.358
1100.639
1099.881
1099.089
1098.261
1097.396
1096.495
1095.556
1094.583
1093.579
1092.543
1091.478
1103.708
1103.142
1102.537
1101.892
1101.206
1100.481
1099.722
1098.927
1098.095
1097.227
1096.32
1095.379
1094.405
1093.399
1092.363
1104.167
1103.633
1103.06
1102.448
1101.795
1101.104
1100.379
1099.618
1098.82
1097.986
1097.114
1096.207
1095.266
1094.293
1093.287
1104.63
1104.128
1103.588
1103.009
1102.39
1101.733
1101.042
1100.316
1099.554
1098.755
1097.918
1097.047
1096.141
1095.202
1094.23
1105.086
1104.616
1104.109
1103.563
1102.979
1102.355
1101.699
1101.008
1100.281
1099.518
1098.718
1097.882
1097.012
1096.109
1095.173
1091.133
1090.027
1088.883
1087.703
1086.487
1085.23
1083.917
1082.518
1092.257
1091.187
1090.077
1088.927
1087.74
1086.514
1085.25
1083.908
1082.403
1093.377
1092.346
1091.273
1090.159
1089.004
1087.809
1086.578
1085.293
1083.883
1082.135
1094.504
1093.513
1092.481
1091.406
1090.289
1089.13
1087.935
1086.691
1085.364
1083.829
1081.635
1095.651
1094.703
1093.713
1092.68
1091.605
1090.487
1089.333
1088.133
1086.865
1085.467
1083.723
1080.808
1096.814
1095.908
1094.96
1093.97
1092.937
1091.863
1090.754
1089.602
1088.391
1087.085
1085.578
1083.54
1079.614
1097.916
1097.05
1096.143
1095.194
1094.203
1093.172
1092.108
1091.005
1089.852
1088.626
1087.271
1085.643
1083.277
1078.289
1098.924
1098.096
1097.228
1096.319
1095.367
1094.377
1093.355
1092.296
1091.195
1090.039
1088.795
1087.397
1085.658
1082.995
1077.112
1099.833
1099.042
1098.21
1097.338
1096.424
1095.472
1094.488
1093.469
1092.413
1091.313
1090.152
1088.897
1087.468
1085.646
1082.769
1100.648
1099.891
1099.095
1098.258
1097.379
1096.462
1095.514
1094.531
1093.513
1092.458
1091.357
1090.196
1088.938
1087.495
1085.635
1101.372
1100.649
1099.886
1099.083
1098.239
1097.356
1096.441
1095.492
1094.508
1093.49
1092.432
1091.332
1090.176
1088.922
1087.486
1102.011
1101.32
1100.59
1099.819
1099.008
1098.157
1097.275
1096.358
1095.407
1094.421
1093.398
1092.34
1091.243
1090.092
1088.851
1102.566
1101.907
1101.209
1100.47
1099.691
1098.872
1098.022
1097.136
1096.215
1095.259
1094.267
1093.242
1092.184
1091.09
1089.946
1103.044
1102.416
1101.749
1101.042
1100.294
1099.507
1098.688
1097.833
1096.942
1096.016
1095.053
1094.057
1093.03
1091.971
1090.879
1103.458
1102.861
1102.226
1101.55
1100.834
1100.079
1099.291
1098.467
1097.607
1096.71
1095.777
1094.809
1093.81
1092.781
1091.721
1103.841
1103.276
1102.673
1102.03
1101.346
1100.623
1099.867
1099.074
1098.246
1097.381
1096.478
1095.541
1094.571
1093.57
1092.538
1104.248
1103.714
1103.143
1102.532
1101.881
1101.191
1100.468
1099.708
1098.913
1098.081
1097.211
1096.306
1095.368
1094.397
1093.395
1104.674
1104.173
1103.633
1103.055
1102.437
1101.781
1101.091
1100.366
1099.604
1098.807
1097.971
1097.101
1096.196
1095.259
1094.289
1105.105
1104.636
1104.129
1103.584
1102.999
1102.376
1101.721
1101.03
1100.303
1099.541
1098.74
1097.905
1097.036
1096.134
1095.198
1105.528
1105.091
1104.617
1104.105
1103.554
1102.965
1102.343
1101.687
1100.995
1100.268
1099.504
1098.704
1097.871
1097.005
1096.105
1092.226
1091.155
1090.043
1088.893
1087.706
1086.483
1085.229
1083.917
1082.521
1093.311
1092.276
1091.2
1090.084
1088.927
1087.733
1086.509
1085.247
1083.908
1082.406
1094.389
1093.394
1092.356
1091.277
1090.156
1088.994
1087.801
1086.572
1085.289
1083.882
1082.138
1095.473
1094.518
1093.521
1092.482
1091.4
1090.276
1089.12
1087.926
1086.684
1085.359
1083.827
1081.646
1096.576
1095.663
1094.708
1093.711
1092.67
1091.588
1090.473
1089.32
1088.121
1086.855
1085.458
1083.723
1080.828
1097.693
1096.821
1095.908
1094.953
1093.955
1092.916
1091.845
1090.736
1089.584
1088.374
1087.068
1085.567