/*--------------------------------*- C++ -*----------------------------------*\
| =========                 |                                                 |
| \\      /  F ield         | OpenFOAM: The Open Source CFD Toolbox           |
|  \\    /   O peration     | Version:  2306                                  |
|   \\  /    A nd           | Website:  www.openfoam.com                      |
|    \\/     M anipulation  |                                                 |
\*---------------------------------------------------------------------------*/
FoamFile
{
    version     2.0;
    format      ascii;
    arch        "LSB;label=32;scalar=64";
    class       volVectorField;
    location    "1.5/phiEC";
    object      i;
}
// * * * * * * * * * * * * * * * * * * * * * * * * * * * * * * * * * * * * * //

dimensions      [0 -2 0 0 0 1 0];

internalField   nonuniform List<vector> 
20000
(
(39.96886 87.17611 18886.24)
(39.5395 254.9346 18698.62)
(96.11428 82.88251 18073.52)
(122.5757 288.0751 19669.25)
(38.71278 402.4777 18335.69)
(95.12293 242.3738 17895.18)
(121.1477 846.1674 19431.95)
(112.455 77.26261 16936.17)
(293.9004 273.7954 18799.86)
(213.8475 561.7772 21436.24)
(37.5552 515.4128 17824.05)
(93.21453 382.6347 17550.23)
(118.3788 1346.659 18961.98)
(111.3566 225.937 16769.95)
(290.611 804.1983 18574.49)
(211.0332 1669.483 21130.28)
(106.9128 71.89881 15798.08)
(342.6338 255.1809 17601.09)
(509.7479 533.6338 20440.88)
(321.6484 900.0007 24466.9)
(36.16987 579.7784 17207.22)
(90.54309 489.9836 17063.97)
(114.4615 1741.534 18275.2)
(109.2427 356.6792 16448.45)
(284.2347 1279.796 18128.17)
(205.4744 2715.98 20488.84)
(105.9073 210.251 15643.4)
(338.9994 749.51 17391.12)
(503.2897 1585.752 20150.58)
(317.0885 2740.982 24209.72)
(94.64939 67.20776 14776.46)
(325.0292 237.451 16412.12)
(590.0039 497.1944 19105.47)
(760.0543 854.4014 23256.71)
(455.8847 1076.128 28574.66)
(34.69315 585.3378 16546.31)
(87.34691 551.1579 16477.76)
(109.7217 1975.704 17412.72)
(106.2846 456.7366 15995.24)
(275.218 1654.963 17476.06)
(197.3842 3613.936 19461.15)
(103.9724 331.9143 15344.24)
(331.957 1192.729 16975.34)
(490.5416 2579.49 19542.07)
(307.7315 4684.921 23598.53)
(93.77676 196.5331 14631.88)
(321.7069 697.4305 16216.76)
(582.9009 1477.42 18835.17)
(749.6331 2601.813 23012.9)
(450.3975 3406.219 28753.11)
(82.32318 63.17252 13887.62)
(287.4412 221.9577 15349.48)
(557.2342 462.604 17802.51)
(870.3069 795.788 21689.78)
(1065.172 1021.255 27062.06)
(582.098 676.3622 31552.67)
(33.27986 529.8434 15913.86)
(83.94041 556.4376 15849.69)
(104.6313 2001.384 16460.33)
(102.7465 513.7516 15448.92)
(264.3132 1877.403 16657.22)
(187.2697 4209.524 18008.06)
(101.2652 425.0216 14922.52)
(322.0039 1542.318 16367.9)
(472.0045 3431.889 18567.41)
(293.2096 6703.094 22384.47)
(92.0976 310.2582 14352.23)
(315.2706 1109.842 15829.93)
(568.8907 2403.128 18268.64)
(728.2736 4446.132 22433.68)
(438.445 6366.476 29166.27)
(81.5703 184.7331 13751.72)
(284.5595 651.9238 15166.87)
(550.7566 1374.62 17551.07)
(858.9017 2423.175 21462.87)
(1052.66 3231.822 27231.01)
(578.7309 2019.878 32076.14)
(71.85125 59.67892 13115.31)
(249.9069 208.6336 14426.57)
(491.7578 432.4177 16647.33)
(816.6582 740.3494 20192.8)
(1202.787 951.0119 25178.92)
(1345.695 642.6908 29796.09)
(673.6134 419.3976 32774)
(32.07766 420.0843 15377.57)
(80.68014 503.6885 15248.65)
(99.76156 1807.636 15555.82)
(98.97631 518.6701 14863.58)
(252.6047 1901.783 15753.1)
(176.1389 4299.131 16211.12)
(98.02779 478.0751 14414.16)
(309.9729 1749.572 15605.2)
(448.8508 3997.071 17189.66)
(273.4018 8475.765 20011.5)
(89.74837 397.2904 13958.03)
(306.1765 1435.121 15264.78)
(548.5396 3197.028 17361.33)
(695.1811 6359.797 21283.61)
(417.5565 10787.99 29987.5)
(80.12157 291.6303 13488.86)
(278.9771 1037.425 14805.29)
(537.9843 2235.877 17024.07)
(835.5578 4140.401 20923.9)
(1025.468 6038.067 27622.44)
(571.9843 3253.718 33290.43)
(71.19552 174.517 12986.92)
(247.421 612.7896 14254.93)
(486.1442 1284.921 16412.29)
(806.2832 2254.321 19981.74)
(1189.133 3009.178 25336.06)
(1337.947 1918.74 30291.41)
(671.6485 1206.337 33235.87)
(63.37277 56.61517 12437.88)
(218.097 197.0985 13625.07)
(427.2053 406.4683 15647.26)
(718.4918 692.0379 18879.13)
(1119.363 884.7171 23419.97)
(1499.739 598.8852 27673.93)
(1546.554 399.7481 30876.61)
(771.8366 214.4854 33552.42)
(31.20703 269.0069 14990.64)
(77.90644 399.356 14738.98)
(95.63974 1426.355 14805.68)
(95.36786 469.5038 14303.44)
(241.4027 1717.72 14894.39)
(165.5667 3839.151 14606.79)
(94.57825 482.651 13869.51)
(297.0592 1772.279 14763.11)
(423.3846 4082.101 15486.21)
(249.613 8803.909 15220.46)
(86.93919 446.882 13482.85)
(295.1866 1627.956 14555.21)
(523.1477 3723.325 16078.97)
(650.1296 8039.8 19036.55)
(382.2606 18537.55 31726.22)
(78.09478 373.4375 13118.33)
(271.0904 1341.479 14277.02)
(519.4411 2974.46 16180.11)
(799.4641 5921.654 19853.99)
(978.1012 10226.15 28400.97)
(562.276 3884.391 35621.67)
(69.93373 275.503 12738.6)
(242.6055 975.1509 13915.03)
(475.0773 2089.974 15919.68)
(785.0619 3851.755 19480.46)
(1159.535 5620.885 25700.26)
(1322.475 3089.169 31440.95)
(667.9069 1783.359 34190.59)
(62.7942 165.5579 12316.08)
(215.9318 578.9097 13462.91)
(422.364 1207.815 15426.32)
(709.5093 2107.212 18681.85)
(1106.961 2799.305 23566.09)
(1491.198 1787.672 28134.47)
(1541.924 1149.272 31312.46)
(771.0728 603.2832 33922)
(56.54192 53.89327 11836.61)
(192.3667 186.9822 12922.03)
(372.76 384.0042 14779.54)
(623.4649 650.5247 17746.44)
(981.03 826.9935 21892.85)
(1385.244 557.2755 25724.45)
(1708.935 373.0962 28639.47)
(1759.148 206.8475 31524.69)
(876.3871 49.82273 33981.56)
(30.75085 92.513 14788.46)
(75.89738 255.7388 14371.24)
(92.67225 909.2171 14276.42)
(92.29743 372.2566 13828.44)
(231.9183 1355.462 14182.14)
(156.7846 2978.893 13375.18)
(91.2767 436.8996 13348.3)
(284.7027 1600.771 13963.28)
(399.1878 3645.607 13965.04)
(228.112 7479.517 12192.59)
(83.94606 451.1592 12973.73)
(283.3922 1649.081 13771.79)
(495.2383 3802.501 14493.63)
(596.1028 8351.011 14500.92)
(320.0459 19936.95 7205.879)
(75.6712 420.052 12671.67)
(261.5605 1521.729 13613.75)
(496.3171 3464.058 14987.33)
(750.4378 7484.982 17763.92)
(898.3664 17562.45 30049.58)
(552.1135 1974.188 39952.37)
(68.16847 352.7866 12388.55)
(235.8024 1260.955 13418.46)
(459.013 2780.355 15130.81)
(752.2822 5508.597 18485.42)
(1108.177 9516.979 26424.84)
(1300.31 3685.683 33648.89)
(663.075 1824.852 35640.2)
(61.68091 261.3598 12080.5)
(211.7377 921.2385 13141.79)
(412.8198 1964.564 14963.25)
(691.1409 3600.391 18213.27)
(1080.11 5228.51 23904.77)
(1474.203 2877.344 29203.55)
(1533.158 1697.624 32214.18)
(769.6257 849.3878 34615.62)
(56.02515 157.5984 11720.67)
(190.4562 549.1972 12768.19)
(368.5434 1141.065 14570.79)
(615.72 1980.813 17560.97)
(970.2987 2616.651 22029.4)
(1377.451 1663.374 26152.64)
(1703.698 1072.381 29044.15)
(1757.12 581.1742 31871.07)
(876.7414 143.1438 34304.59)
(50.97347 51.44748 11296.96)
(171.6423 177.9943 12297.92)
(328.802 364.3021 14018.4)
(543.8701 614.5889 16764.73)
(850.0867 777.4035 20581.44)
(1209.906 520.9555 24044.83)
(1570.9 347.3802 26610.3)
(1926.371 194.2048 29198.25)
(1981.971 53.36535 31829.37)
(987.0554 -108.5509 34109.17)
(30.75085 -92.513 14788.46)
(74.84454 87.9512 14179.08)
(91.12414 311.85 14004.11)
(90.07295 238.3878 13485.71)
(225.0878 864.0611 13679.57)
(150.5771 1872.149 12558.29)
(88.46717 346.4069 12906.31)
(274.2373 1263.207 13299.84)
(379.0733 2828.997 12796.97)
(211.2821 5523.368 10308.91)
(81.08133 408.3929 12486.53)
(272.1061 1489.501 13027.68)
(468.7087 3396.038 13077.77)
(547.2072 7096.208 11633.14)
(277.4576 13662.24 5224.028)
(73.08895 424.0724 12193.11)
(251.3336 1541.475 12881.46)
(470.9085 3537.71 13512.78)
(691.7456 7774.685 13545.73)
(758.3301 18888.92 6853.715)
(66.05762 396.8237 11966.58)
(227.5821 1430.388 12794.99)
(438.9842 3237.999 14015.88)
(707.8056 6962.615 16541.74)
(1022.109 16339.84 27959.35)
(1277.22 1872.563 37751.38)
(658.9775 828.4316 37270.86)
(60.12338 334.6764 11748.42)
(205.8125 1191.245 12672.66)
(398.9666 2613.528 14221.67)
(662.7782 5149.091 17283.18)
(1033.604 8851.886 24578.7)
(1449.983 3431.842 31257.46)
(1521.925 1735.558 33584.84)
(767.8124 804.118 35498.24)
(55.03076 248.7947 11496.41)
(186.7556 873.9574 12463.55)
(360.2308 1856 14133.3)
(599.8834 3384.444 17120.47)
(947.0751 4887.312 22345.94)
(1361.972 2677.025 27146.74)
(1693.845 1583.375 29881.79)
(1753.355 816.7841 32522.03)
(877.2658 207.1169 34872.57)
(50.50706 150.4463 11186.28)
(169.9359 522.7986 12151.47)
(325.0812 1082.523 13820.35)
(537.1246 1871.397 16589.49)
(840.835 2459.756 20709.79)
(1203.151 1554.946 24445.01)
(1566.07 998.377 26986.35)
(1923.808 545.3533 29518.77)
(1982.247 151.9301 32128.12)
(988.7197 -287.7356 34464)
(46.35505 49.22913 10808)
(154.7481 169.9178 11737.66)
(293.4153 346.7963 13342.48)
(479.7776 583.0695 15903.53)
(741.3421 734.4758 19446.04)
(1047.142 489.7258 22606.48)
(1369.119 324.8002 24871.68)
(1762.023 181.2173 27117.17)
(2149.686 52.57813 29434.06)
(2213.898 -91.90753 31837.72)
(1103.532 -305.0082 33904.67)
(31.20703 -269.0069 14990.64)
(74.84454 -87.9512 14179.08)
(91.12414 -311.85 14004.11)
(88.90703 81.98462 13306.62)
(221.5235 296.369 13420.96)
(147.379 637.1381 12153.83)
(86.43149 221.8348 12587.39)
(266.6973 805.269 12831.68)
(364.8456 1778.093 12022.05)
(199.9198 3351.915 9211.872)
(78.64345 323.8046 12073.38)
(262.5458 1175.408 12410.45)
(446.6362 2635.471 11990.42)
(508.8706 5241.446 9848.294)
(248.9083 8940.335 4114.516)
(70.61747 383.8735 11735.15)
(241.5473 1392.307 12185.91)
(446.7512 3159.587 12195.83)
(638.5452 6607.195 10878.03)
(662.1007 12950.87 4977.3)
(63.80859 400.6219 11514.48)
(218.7607 1448.949 12106.63)
(416.9793 3306.842 12637.57)
(654.6039 7232.085 12619.13)
(871.5976 17574.29 6394.743)
(58.26093 376.4532 11348.11)
(198.653 1351.312 12083.63)
(381.6955 3043.721 13173.58)
(624.3103 6508.199 15466.36)
(955.8294 15196.65 26006)
(1424.892 1743.284 35074.16)
(1512.472 787.4572 35128.11)
(766.3887 343.5279 36241.44)
(53.63957 318.5868 11180.3)
(181.5274 1130.108 12018.48)
(348.1653 2469.112 13432.65)
(575.4325 4840.29 16246.1)
(906.8785 8274.17 22975.84)
(1339.964 3192.57 29056.77)
(1681.324 1617.993 31155.75)
(1748.755 771.7482 33351.92)
(877.7071 199.0283 35517.17)
(49.60956 237.5041 10972.2)
(166.6303 831.9496 11861.47)
(317.746 1760.783 13405.28)
(523.3315 3197.517 16173.29)
(820.816 4594.308 21007.32)
(1189.742 2502.467 25374.12)
(1557.008 1473.883 27764.89)
(1919.132 765.7364 30121.53)
(1982.567 216.774 32654.02)
(991.4812 -363.1889 35075.1)
(45.93048 143.9593 10702.09)
(153.2078 499.0768 11597.85)
(290.0915 1030.505 13153.95)
(473.8248 1775.427 15737.27)
(733.2839 2323.944 19567.29)
(1041.315 1461.732 22982.65)
(1364.916 933.4582 25223.08)
(1759.558 508.7798 27414.64)
(2149.341 149.098 29708.66)
(2216.714 -243.477 32160.46)
(1107.095 -822.789 34390.18)
(42.45656 47.20173 10361.51)
(140.7347 162.5921 11229.95)
(264.5683 331.0643 12735.5)
(428.2218 555.061 15138.42)
(654.0628 696.8213 18449.85)
(912.9769 462.6842 21362.01)
(1184.054 305.344 23385.67)
(1532.369 169.5559 25344.61)
(1956.263 49.91312 27323.5)
(2376.958 -80.39343 29392.42)
(2453.647 -269.3748 31525.08)
(1225.015 -594.0575 33238.46)
(32.07766 -420.0843 15377.57)
(75.89738 -255.7388 14371.24)
(92.67225 -909.2171 14276.42)
(88.90703 -81.98462 13306.62)
(221.5235 -296.369 13420.96)
(147.379 -637.1381 12153.83)
(85.36444 76.29199 12420.74)
(262.7616 276.2071 12590.77)
(357.5118 605.1571 11638.32)
(194.2264 1120.765 8706.344)
(76.87699 207.3606 11775.27)
(255.6565 749.304 11974.88)
(431.0103 1656.534 11268.97)
(482.9518 3181.358 8808.462)
(231.259 5077.289 3515.544)
(68.51423 304.3635 11346.81)
(233.2569 1098.71 11608.96)
(426.6442 2452.013 11184.4)
(596.7513 4880.814 9217.354)
(597.3852 8478.35 3926.385)
(61.65603 362.6457 11081.85)
(210.3193 1308.734 11452.81)
(396.0565 2953.395 11406.58)
(606.3445 6146.264 10138.2)
(767.6969 12052.8 4649.56)
(56.27654 380.0565 10919.22)
(190.9699 1368.848 11433.3)
(362.7211 3108.434 11877.9)
(578.3097 6760.074 11799.8)
(820.0956 16344.8 5954.455)
(51.97602 358.3554 10799.22)
(175.21 1281.963 11459.66)
(333.123 2875.544 12442.42)
(542.2736 6117.93 14538.12)
(839.7081 14204.76 24309.96)
(1317.22 1621.644 32606.33)
(1670.875 733.9025 32590.83)
(1745.223 329.2908 34052.06)
(877.9156 85.23246 35977.11)
(48.35392 304.1291 10670.43)
(161.9602 1075.789 11437.78)
(307.099 2342.45 12740.55)
(502.0359 4572.993 15347.15)
(786.1726 7778.216 21599.42)
(1170.694 2984.328 27159.38)
(1545.531 1505.852 28949.24)
(1913.544 722.7971 30890.72)
(1982.678 205.5263 33251.9)
(994.3391 -300.419 35743.4)
(45.11349 227.2634 10497.24)
(150.2242 794.2008 11321.01)
(283.5389 1676.178 12758.81)
(461.6525 3033.558 15342.38)
(715.8478 4340.688 19848.38)
(1029.75 2352.458 23856.02)
(1357.036 1377.987 25950.62)
(1755.088 714.1415 27974.21)
(2148.628 211.4254 30192.33)
(2221.38 -306.9945 32716.45)
(1113.131 -1072.28 35244.03)
(42.06738 138.0307 10259.96)
(139.3326 477.5601 11096.17)
(261.5681 983.7588 12555.51)
(422.9038 1690.146 14980.14)
(646.9511 2204.813 18564.88)
(907.9006 1381.024 21717.4)
(1180.423 877.5387 23715.96)
(1530.19 476.0102 25622.46)
(1955.701 141.3454 27577.71)
(2378.849 -212.9155 29686.59)
(2459.988 -726.7989 31961.26)
(1231.611 -1627.092 33972.3)
(39.11271 45.33739 9951.2)
(128.9042 155.8967 10766.26)
(240.6354 316.794 12185.26)
(386.193 529.8886 14451)
(583.9196 663.3586 17564.38)
(805.5979 438.9631 20269.93)
(1032.208 288.4856 22100.46)
(1324.265 159.4296 23832.55)
(1697.582 46.95395 25537.09)
(2151.719 -72.99419 27272.38)
(2606.221 -241.5886 29053.37)
(2699.029 -528.0888 30777.17)
(1349.661 -1038.847 31863.02)
(33.27986 -529.8434 15913.86)
(77.90644 -399.356 14738.98)
(95.63974 -1426.355 14805.68)
(90.07295 -238.3878 13485.71)
(225.0878 -864.0611 13679.57)
(150.5771 -1872.149 12558.29)
(85.36444 -76.29199 12420.74)
(262.7616 -276.2071 12590.77)
(357.5118 -605.1571 11638.32)
(194.2264 -1120.765 8706.344)
(75.95103 71.31411 11619.49)
(252.06 257.0121 11750.74)
(422.951 563.7999 10911.68)
(469.9525 1063.832 8329.191)
(222.8095 1648.195 3251.829)
(66.99024 194.9106 11066.59)
(227.2823 700.4104 11201.81)
(412.4038 1541.241 10513.3)
(568.4476 2962.733 8249.693)
(557.2815 4816.301 3358.848)
(59.8242 287.5323 10714.97)
(203.1682 1032.758 10910.47)
(378.6391 2291.997 10461.16)
(568.3966 4540.47 8593.7)
(697.5552 7892.143 3671.943)
(54.37729 344.0296 10508.78)
(183.6179 1236.382 10815.6)
(344.6794 2776.185 10720.71)
(536.5716 5745.123 9480.81)
(726.195 11210.44 4331.541)
(50.20356 361.7855 10390.94)
(168.4308 1298.598 10842.68)
(316.5972 2936.681 11218.25)
(502.625 6354.698 11091.19)
(722.5663 15277.95 5567.284)
(46.85246 342.0931 10306.65)
(156.3173 1220.347 10905.81)
(293.8251 2728.04 11801.07)
(473.1561 5780.123 13733.37)
(728.2939 13353.53 22853.54)
(1151.029 1515.851 30477.2)
(1535.99 682.9662 30283.61)
(1909.342 308.2091 31540.27)
(1982.589 87.31709 33679.37)
(996.1625 -116.4148 36195.7)
(43.97049 291.0158 10208.48)
(146.009 1026.978 10916.53)
(274.0277 2229.903 12126)
(442.8588 4338.536 14558.55)
(685.6745 7348.949 20407.77)
(1013.327 2805.444 25534.24)
(1347.07 1407.812 27057.48)
(1749.792 673.8496 28688.53)
(2147.663 199.25 30742.71)
(2226.2 -253.6062 33324.73)
(1119.574 -921.5689 36209.81)
(41.31851 217.9041 10063.55)
(136.6165 759.9611 10831.25)
(255.6533 1600.145 12178.29)
(412.0291 2887.857 14604.21)
(631.5626 4118.214 18831.55)
(897.8262 2222.584 22542.55)
(1173.617 1295.429 24399.82)
(1526.249 668.0757 26145.17)
(1954.644 199.9985 28025.58)
(2381.975 -268.322 30193.45)
(2470.732 -947.4937 32728.24)
(1243.06 -2182.82 35326.18)
(38.75397 132.5789 9853.662)
(127.619 457.895 10637.99)
(237.904 941.3554 12013.03)
(381.3922 1613.5 14299.9)
(577.5657 2098.942 17673.88)
(801.1178 1310.225 20607.11)
(1029.044 829.0902 22412.51)
(1322.373 447.5746 24093.68)
(1697.012 132.9078 25774.35)
(2152.989 -193.3029 27543.85)
(2611.002 -651.9352 29448.51)
(2710.881 -1446.639 31432.09)
(1361.116 -2910.507 32959.78)
(36.20493 43.61431 9572.17)
(118.7557 149.7398 10340.1)
(220.4255 303.7511 11682.61)
(351.3124 507.0535 13827.59)
(526.7346 633.2823 16768.39)
(719.3659 417.8831 19298.85)
(910.8899 273.6953 20972.44)
(1154.3 150.6329 22525.29)
(1465.987 44.21598 24016.25)
(1863.094 -67.69623 25489.67)
(2346.539 -221.5602 26946.4)
(2834.825 -475.5368 28315.52)
(2945.941 -924.2963 29374.35)
(1473.882 -1690.815 29415.72)
(34.69315 -585.3378 16546.31)
(80.68014 -503.6885 15248.65)
(99.76156 -1807.636 15555.82)
(92.29743 -372.2566 13828.44)
(231.9183 -1355.462 14182.14)
(156.7846 -2978.893 13375.18)
(86.43149 -221.8348 12587.39)
(266.6973 -805.269 12831.68)
(364.8456 -1778.093 12022.05)
(199.9198 -3351.915 9211.872)
(75.95103 -71.31411 11619.49)
(252.06 -257.0121 11750.74)
(422.951 -563.7999 10911.68)
(469.9525 -1063.832 8329.191)
(222.8095 -1648.195 3251.829)
(66.19137 67.03235 10920.17)
(224.1631 240.2415 10992.31)
(405.0571 524.5641 10180.94)
(554.2365 990.7721 7803.635)
(538.0535 1563.7 3108.914)
(58.49686 184.1319 10450.25)
(198.0145 658.3659 10527.76)
(366.3017 1440.662 9833.866)
(542.6767 2756.211 7693.69)
(653.9648 4483.972 3143.896)
(52.76102 272.7718 10160.74)
(177.3895 975.6617 10303.23)
(329.6598 2154.465 9831.98)
(503.7402 4244.136 8037.128)
(662.6893 7341.029 3422.365)
(48.50714 327.4905 10000.24)
(161.9436 1172.93 10256.67)
(300.8838 2622.782 10124.94)
(466.6478 5400.569 8911.154)
(641.4653 10478.73 4050.308)
(45.25269 345.3676 9916.891)
(150.2617 1236.183 10318.47)
(279.2419 2786.042 10639.63)
(438.6241 6003.816 10476.52)
(627.3758 14362.37 5233.172)
(42.6037 327.3431 9860.384)
(140.9156 1164.977 10408.69)
(262.1696 2596.972 11231.62)
(417.3712 5483.812 13027.41)
(635.2645 12616.79 21592.64)
(996.3761 1424.992 28653.19)
(1338.796 638.4833 28304.63)
(1745.84 287.2706 29291.98)
(2146.883 84.34448 31136.64)
(2229.27 -98.18112 33736.61)
(1123.825 -367.0698 36891.18)
(40.27081 279.0312 9786.677)
(132.7792 982.7035 10444.21)
(247.0678 2128.757 11574.16)
(395.2385 4130.181 13857.98)
(604.9317 6972.383 19362.26)
(883.5205 2650.587 24128.14)
(1165.015 1323.46 25440.27)
(1521.591 630.3128 26812.52)
(1953.351 188.0798 28535.42)
(2385.192 -221.518 30748.15)
(2482.202 -814.6283 33595.54)
(1255.766 -1947.576 36986.77)
(38.06365 209.2976 9665.005)
(125.1293 728.6676 10383.98)
(232.5194 1531.175 11652.06)
(371.5753 2756.905 13940.99)
(563.8166 3920.494 17927.74)
(792.2264 2108.657 21389.96)
(1023.113 1223.913 23058.6)
(1318.952 628.1504 24584.94)
(1695.962 187.9316 26192.38)
(2155.083 -243.5664 28011.66)
(2619.107 -850.1408 30143.34)
(2731.449 -1941.279 32640.4)
(1381.709 -4086.749 35128.47)
(35.8727 127.5401 9478.338)
(117.5709 439.8111 10216.89)
(217.9217 902.5988 11517.47)
(346.9417 1543.97 13682.99)
(520.9985 2003.783 16872.92)
(715.3633 1247.309 19619.83)
(908.0966 786.5856 21268.49)
(1152.648 422.8785 22771.98)
(1465.47 125.1422 24239.18)
(1864.044 -179.2712 25742.77)
(2350.082 -597.9405 27310.23)
(2843.952 -1302.887 28907)
(2966.518 -2590.022 30349.4)
(1492.65 -4892.543 30901.43)
(33.64681 42.01509 9220.527)
(109.9297 144.0492 9946.402)
(203.0847 291.7565 11220.55)
(321.8469 486.1814 13257.9)
(479.2558 605.9973 16046.18)
(649.0581 398.937 18425.55)
(813.5068 260.5521 19969.08)
(1018.736 142.9114 21377.65)
(1277.699 41.78974 22701.83)
(1607.792 -63.49496 23974.97)
(2027.323 -206.153 25186.45)
(2538.41 -436.8199 26253.13)
(3058.625 -833.0698 26982.2)
(3187.111 -1503.137 26995.51)
(1591.681 -2524.563 49750.37)
(36.16987 -579.7784 17207.22)
(83.94041 -556.4376 15849.69)
(104.6313 -2001.384 16460.33)
(95.36786 -469.5038 14303.44)
(241.4027 -1717.72 14894.39)
(165.5667 -3839.151 14606.79)
(88.46717 -346.4069 12906.31)
(274.2373 -1263.207 13299.84)
(379.0733 -2828.997 12796.97)
(211.2821 -5523.368 10308.91)
(76.87699 -207.3606 11775.27)
(255.6565 -749.304 11974.88)
(431.0103 -1656.534 11268.97)
(482.9518 -3181.358 8808.462)
(231.259 -5077.289 3515.544)
(66.19137 -67.03236 10920.17)
(224.1631 -240.2415 10992.31)
(405.0571 -524.5641 10180.94)
(554.2365 -990.7721 7803.635)
(538.0535 -1563.7 3108.914)
(57.80107 63.32538 10311.92)
(195.3238 225.82 10330.82)
(359.936 490.332 9523.204)
(529.7561 921.7214 7278.803)
(633.0285 1455.916 2911.324)
(51.58988 174.6793 9909.605)
(172.9009 621.9669 9941.664)
(319.0205 1354.21 9242.302)
(481.4816 2576.328 7195.866)
(623.1692 4171.034 2931.262)
(47.06348 259.6582 9668.923)
(156.4479 925.5884 9770.578)
(287.8025 2035.408 9285.276)
(438.3456 3989.57 7553.994)
(586.5802 6861.885 3200.48)
(43.72155 312.6288 9543.914)
(144.4669 1116.553 9760.609)
(265.3757 2488.238 9602.348)
(407.2898 5102.329 8416.739)
(557.4936 9850.583 3807.072)
(41.14743 330.4764 9487.433)
(135.4497 1180.095 9847.991)
(249.1418 2652.188 10125.93)
(386.8948 5696.036 9937.333)
(547.3692 13569.94 4943.53)
(39.01798 313.8625 9452.914)
(128.1426 1114.754 9958.254)
(236.3637 2479.181 10720.32)
(372.4667 5220.483 12400.31)
(560.4377 11970.48 20486.39)
(868.756 1346.342 27074.98)
(1157.876 600.2254 26612.64)
(1518.127 268.6914 27376.36)
(1952.381 79.51364 28900.47)
(2387.232 -85.71811 31123.87)
(2489.772 -324.5588 34207.25)
(1264.556 -797.7905 38294.88)
(37.09787 268.0105 9399.068)
(121.6119 942.2385 10012.87)
(224.7032 2037.006 11073.96)
(356.4174 3942.912 13228.58)
(540.0217 6637.7 18432.95)
(779.6003 2514.742 22894.29)
(1015.618 1250.402 24041.6)
(1314.914 592.6285 25212.19)
(1694.704 176.6137 26668.3)
(2157.233 -201.0395 28523.7)
(2627.767 -731.1659 30929.06)
(2754.276 -1732.62 34122.47)
(1406.003 -3890.275 38144.84)
(35.2334 201.3431 9296.852)
(115.2759 699.8902 9972.914)
(212.9856 1468.137 11171.35)
(338.004 2638.109 13339.54)
(508.5858 3742.773 17115.26)
(707.4194 2007.41 20365.1)
(902.8623 1161.172 21881.46)
(1149.662 593.4891 23236.11)
(1464.523 176.9166 24631.97)
(1865.61 -225.8814 26178.96)
(2356.094 -779.8511 27950.02)
(2859.797 -1748.869 29998.41)
(3003.508 -3637.871 32278.34)
(1528.073 -7367.882 34111.6)
(33.33794 122.8636 9130.136)
(108.8325 423.097 9827.874)
(200.7766 866.9572 11061.92)
(317.8402 1480.416 13119.25)
(474.0332 1917.454 16146.21)
(645.4447 1190.76 18731.98)
(811.0113 748.814 20250.91)
(1017.278 401.2018 21611.69)
(1277.242 118.2717 22912.42)
(1608.566 -168.1475 24212.72)
(2030.125 -556.3858 25525.41)
(2545.298 -1196.924 26797.1)
(3074.501 -2334.829 27861.41)
(3220.718 -4350.631 28311.58)
(1620.101 -7606.389 53072.35)
(31.37421 40.52559 8893.114)
(102.1645 138.7676 9581.123)
(188.0009 280.6702 10793.61)
(296.5559 466.9862 12734.08)
(439.1284 581.0568 15385.97)
(590.6604 381.7497 17632.93)
(734.1013 248.7403 19066.46)
(909.9634 136.0503 20356.46)
(1127.772 39.65139 21547.54)
(1401.17 -59.95881 22666.17)
(1748.337 -193.5366 23693.87)
(2188.347 -406.6549 24541.61)
(2723.93 -765.5302 25012.39)
(3271.022 -1354.746 24765.45)
(3410.968 -2240.365 45383.67)
(217.7868 -511.959 15672.38)
(37.5552 -515.4128 17824.05)
(87.34691 -551.1579 16477.76)
(109.7217 -1975.704 17412.72)
(98.97631 -518.6701 14863.58)
(252.6047 -1901.783 15753.1)
(176.1389 -4299.131 16211.12)
(91.2767 -436.8996 13348.3)
(284.7027 -1600.771 13963.28)
(399.1878 -3645.607 13965.04)
(228.112 -7479.517 12192.59)
(78.64345 -323.8046 12073.38)
(262.5458 -1175.408 12410.45)
(446.6362 -2635.471 11990.42)
(508.8706 -5241.446 9848.294)
(248.9083 -8940.335 4114.516)
(66.99024 -194.9106 11066.59)
(227.2823 -700.4104 11201.81)
(412.4038 -1541.241 10513.3)
(568.4476 -2962.733 8249.693)
(557.2815 -4816.301 3358.848)
(57.80107 -63.32538 10311.92)
(195.3238 -225.82 10330.82)
(359.936 -490.332 9523.204)
(529.7561 -921.7214 7278.803)
(633.0285 -1455.916 2911.324)
(50.97598 60.0745 9778.375)
(170.5575 213.335 9755.609)
(313.5308 460.9072 8950.271)
(470.2976 861.5661 6808.061)
(604.1718 1354.337 2714.954)
(46.01743 166.2815 9429.862)
(152.4873 590.0452 9427.56)
(278.5362 1279.372 8728.159)
(419.156 2421.784 6763.159)
(552.4079 3898.797 2741.433)
(42.41856 247.8747 9227.63)
(139.558 881.0995 9297.872)
(253.8324 1930.989 8805.727)
(382.6401 3769.218 7134.463)
(510.1929 6450.454 3008.165)
(39.75362 299.1491 9130.536)
(130.2194 1065.893 9315.431)
(236.7547 2368.687 9138.449)
(359.2411 4840.73 7983.047)
(486.5052 9306.904 3596.079)
(37.68311 316.8668 9095.32)
(123.1667 1129.22 9421.716)
(224.6036 2531.892 9664.75)
(345.237 5422.514 9458.465)
(482.8535 12874.78 4689.447)
(35.94299 301.4661 9078.486)
(117.3616 1068.852 9546.921)
(214.9582 2372.33 10256.9)
(335.8595 4983.797 11836.94)
(500.2637 11396.01 19503.1)
(766.5689 1277.347 25690.16)
(1009.398 567.0935 25149.26)
(1311.913 252.6231 25742.17)
(1693.777 74.63597 27009.13)
(2158.591 -77.78178 28870.57)
(2633.486 -291.3717 31483.22)
(2770.066 -709.8912 35290.01)
(1424.312 -1675.186 41036.75)
(34.33898 257.8247 9041.021)
(112.0334 905.027 9616.46)
(205.8206 1953.145 10617.04)
(324.2035 3773.023 12657.81)
(487.1029 6336.854 17597.56)
(696.1383 2394.012 21797.22)
(896.2469 1186.31 22814.08)
(1146.139 559.9261 23828.7)
(1463.397 166.2307 25079.2)
(1867.214 -186.4366 26656.42)
(2362.525 -670.8309 28673.57)
(2877.39 -1561.402 31337.4)
(3047.139 -3464.243 34963.14)
(1573.936 -7855.848 39459.2)
(32.74359 193.9605 8955.303)
(106.707 673.2926 9593.165)
(196.2263 1410.165 10729.47)
(309.6468 2529.523 12789.93)
(462.7317 3581.538 16378.1)
(638.2732 1916.407 19443.46)
(806.3351 1105.417 20834.45)
(1014.642 563.0676 22052.01)
(1276.406 167.196 23283.49)
(1609.841 -211.8698 24622.46)
(2034.882 -725.7129 26121.51)
(2557.266 -1606.905 27800.99)
(3103.048 -3280.544 29601.47)
(3284.15 -6555.024 31158.7)
(1676.999 -12644.52 61025.88)
(31.08611 118.5079 8805.927)
(101.1444 407.5842 9466.94)
(185.8633 834.0146 10641.01)
(292.8621 1421.968 12600.9)
(434.3406 1838.542 15481.88)
(587.3706 1139.46 17926.15)
(731.8486 714.8679 19335.51)
(908.6609 381.9403 20579.26)
(1127.368 112.2186 21747.33)
(1401.832 -158.7855 22890.75)
(1750.672 -522.3498 24012.2)
(2193.847 -1114.331 25048.19)
(2735.963 -2145.795 25820.45)
(3296.846 -3922.155 25950.5)
(3461.612 -6753.204 48301.49)
(223.7814 -1631.946 16736.67)
(29.33848 39.13412 8587.328)
(95.26553 133.8484 9240.996)
(174.7279 270.3805 10397.44)
(274.5501 449.2439 12249.97)
(404.6706 558.1192 14778.74)
(541.2829 366.0395 16908.16)
(668.1297 238.0256 18247.03)
(821.2628 129.8857 19437.49)
(1007.522 37.75223 20520.03)
(1236.916 -56.87541 21516.39)
(1523.557 -182.7937 22404.34)
(1886.003 -381.8197 23092.42)
(2343.394 -712.7376 23387.55)
(2897.875 -1244.888 22960.12)
(3462.164 -2018.122 41603.2)
(458.9484 -452.0132 14275.74)
(258.3467 -818.2397 22432.39)
(38.71278 -402.4777 18335.69)
(90.54309 -489.9836 17063.97)
(114.4615 -1741.534 18275.2)
(102.7465 -513.7516 15448.92)
(264.3132 -1877.403 16657.22)
(187.2697 -4209.524 18008.06)
(94.57825 -482.651 13869.51)
(297.0592 -1772.279 14763.11)
(423.3846 -4082.101 15486.21)
(249.613 -8803.909 15220.46)
(81.08133 -408.3929 12486.53)
(272.1061 -1489.501 13027.68)
(468.7087 -3396.038 13077.77)
(547.2072 -7096.208 11633.14)
(277.4576 -13662.24 5224.028)
(68.51423 -304.3635 11346.81)
(233.2569 -1098.71 11608.96)
(426.6442 -2452.013 11184.4)
(596.7513 -4880.814 9217.354)
(597.3852 -8478.35 3926.385)
(58.49686 -184.1319 10450.25)
(198.0145 -658.3659 10527.76)
(366.3017 -1440.662 9833.866)
(542.6767 -2756.211 7693.69)
(653.9648 -4483.972 3143.896)
(50.97598 -60.0745 9778.375)
(170.5575 -213.335 9755.609)
(313.5308 -460.9072 8950.271)
(470.2976 -861.5661 6808.061)
(604.1718 -1354.337 2714.954)
(45.46909 57.18634 9304.94)
(150.4196 202.3856 9251.05)
(273.755 435.4349 8452.255)
(409.5137 809.8815 6398.603)
(535.9762 1265.943 2539.245)
(41.47442 158.7354 8999.417)
(136.0202 561.6838 8971.335)
(245.6556 1213.735 8277.171)
(365.9271 2288.009 6387.273)
(480.7391 3664.993 2576.63)
(38.56751 237.1869 8827.888)
(125.7885 841.121 8873.682)
(226.4427 1838.207 8380.078)
(337.4875 3575.943 6766.463)
(445.3089 6094.34 2841.243)
(36.40551 286.8296 8753.12)
(118.4053 1019.941 8912.108)
(213.4218 2261.247 8722.033)
(320.53 4608.256 7597.952)
(429.133 8829.98 3410.995)
(34.7125 304.3517 8735.014)
(112.8005 1082.723 9032.469)
(204.2518 2422.769 9246.795)
(311.2765 5176.668 9028.375)
(430.9336 12256.9 4463.736)
(33.26945 290.0088 8732.622)
(108.1154 1026.641 9168.907)
(196.8874 2274.666 9833.602)
(305.4861 4769.074 11326.09)
(451.2062 10879.59 18619.2)
(684.4946 1216.028 24458.89)
(890.7572 538.0276 23864.98)
(1143.522 238.6826 24329.42)
(1462.571 70.24023 25399.48)
(1868.226 -72.13005 26979.89)
(2366.778 -267.3602 29183.92)
(2889.565 -639.8828 32392.49)
(3080.012 -1492.098 37539.24)
(1614.307 -3689.694 46705.49)
(31.91206 248.371 8708.852)
(103.7041 870.634 9250.254)
(189.6212 1876.024 10197.04)
(296.9952 3617.732 12136.24)
(443.1711 6063.904 16839.62)
(628.0887 2285.494 20810.65)
(800.4247 1129.351 21722.29)
(1011.532 531.226 22614.23)
(1275.414 157.0904 23705.99)
(1611.146 -174.8752 25070.99)
(2039.975 -624.318 26795.7)
(2570.568 -1434.935 29032.85)
(3136.729 -3125.242 32024.85)
(3366.275 -6993.514 35910.09)
(1760.914 -16484.16 78434.59)
(30.53174 187.0843 8637.292)
(99.16836 648.6066 9240.836)
(181.6491 1356.582 10321.18)
(285.3086 2429.659 12284.57)
(423.9797 3434.152 15704.23)
(580.8412 1833.849 18606.98)
(727.6273 1055.306 19892.59)
(906.3066 536.035 20998.44)
(1126.629 158.6362 22099.37)
(1402.923 -200.0788 23277.81)
(1754.639 -681.3508 24572.04)
(2203.408 -1496.169 25983.19)
(2757.616 -3015.598 27420.18)
(3345.613 -5912.31 28516.24)
(3563.044 -11236.38 55308.85)
(236.7531 -3204.533 19285.58)
(29.06902 114.4389 8503.135)
(94.31406 393.1355 9130.861)
(172.7405 803.4388 10250.44)
(271.1291 1367.944 12121.85)
(400.2566 1765.966 14870.86)
(538.267 1092.568 17189.31)
(666.0789 684.0744 18504.49)
(820.0873 364.6336 19650.19)
(1007.162 106.8423 20710.21)
(1237.498 -150.6219 21729.44)
(1525.57 -493.3642 22705.01)
(1890.605 -1046.314 23568.1)
(2353.026 -1997.969 24139.87)
(2917.452 -3604.718 24048.54)
(3500.805 -6085.622 44221.33)
(469.5069 -1442.283 15207.36)
(268.1716 -2666.264 23879.57)
(27.50206 37.83091 8300.994)
(89.08535 129.2529 8923.324)
(162.934 260.7965 10028.52)
(255.1816 432.7761 11800.69)