/*--------------------------------*- C++ -*----------------------------------*\
| =========                 |                                                 |
| \\      /  F ield         | OpenFOAM: The Open Source CFD Toolbox           |
|  \\    /   O peration     | Version:  2306                                  |
|   \\  /    A nd           | Website:  www.openfoam.com                      |
|    \\/     M anipulation  |                                                 |
\*---------------------------------------------------------------------------*/
FoamFile
{
    version     2.0;
    format      ascii;
    arch        "LSB;label=32;scalar=64";
    class       volScalarField;
    location    "1.5/phiEC";
    object      phi;
}
// * * * * * * * * * * * * * * * * * * * * * * * * * * * * * * * * * * * * * //

dimensions      [1 2 -3 0 0 -1 0];

internalField   nonuniform List<scalar> 
20000
(
0.7781747
0.7781738
0.7781707
0.7783654
0.7781721
0.7781699
0.7783625
0.7781651
0.7783531
0.7785681
0.7781698
0.7781683
0.7783569
0.7781643
0.7783504
0.7785625
0.7781594
0.778336
0.7785467
0.7787941
0.778167
0.778166
0.778349
0.7781628
0.7783451
0.7785514
0.7781587
0.7783334
0.7785414
0.7787851
0.7781544
0.7783189
0.7785171
0.7787619
0.7790574
0.778164
0.7781634
0.7783395
0.7781607
0.7783376
0.7785353
0.7781573
0.7783285
0.7785308
0.7787667
0.7781537
0.7783165
0.7785121
0.7787534
0.7790466
0.77815
0.7783035
0.7784877
0.7787181
0.7790118
0.7792885
0.7781611
0.7781605
0.7783293
0.7781582
0.7783285
0.7785152
0.7781554
0.7783215
0.7785156
0.7787382
0.7781524
0.7783119
0.7785023
0.7787359
0.7790233
0.7781493
0.7783013
0.7784831
0.7787101
0.7790016
0.7792818
0.7781462
0.7782901
0.7784614
0.7786749
0.7789509
0.7792303
0.77945
0.7781587
0.7781578
0.7783195
0.7781556
0.7783188
0.7784932
0.7781531
0.7783131
0.7784965
0.7786997
0.7781506
0.7783054
0.7784881
0.7787089
0.778983
0.7781481
0.778297
0.7784739
0.7786939
0.7789795
0.7792683
0.7781456
0.778288
0.778457
0.7786675
0.7789414
0.7792239
0.7794458
0.7781428
0.7782785
0.7784385
0.7786364
0.7788915
0.779154
0.7793826
0.7796163
0.7781569
0.7781555
0.7783112
0.7781531
0.7783095
0.7784722
0.7781506
0.778304
0.7784756
0.7786535
0.7781484
0.7782975
0.7784704
0.7786723
0.7789155
0.7781464
0.7782909
0.7784607
0.7786687
0.7789412
0.7792492
0.7781444
0.778284
0.7784485
0.7786524
0.7789208
0.7792111
0.7794379
0.7781422
0.7782765
0.7784344
0.7786295
0.7788827
0.779148
0.7793786
0.7796141
0.7781398
0.7782683
0.7784187
0.7786031
0.778839
0.7790804
0.7792953
0.7795391
0.7797855
0.778156
0.7781538
0.7783052
0.7781509
0.7783016
0.7784548
0.7781483
0.7782953
0.7784557
0.7786116
0.7781461
0.7782891
0.7784509
0.7786285
0.7787976
0.7781444
0.7782835
0.7784442
0.7786346
0.7788772
0.7792295
0.7781428
0.7782783
0.7784361
0.778629
0.7788852
0.779193
0.779428
0.7781411
0.7782727
0.7784264
0.7786154
0.7788635
0.7791361
0.7793711
0.7796103
0.7781393
0.7782664
0.7784148
0.7785965
0.7788307
0.7790748
0.7792916
0.779537
0.779785
0.7781371
0.7782593
0.7784012
0.7785741
0.7787934
0.7790155
0.7792117
0.7794404
0.7796979
0.7799561
0.778156
0.7781529
0.7783021
0.7781493
0.778296
0.7784425
0.7781463
0.778288
0.7784391
0.7785787
0.7781439
0.778281
0.7784323
0.7785888
0.7787161
0.7781422
0.7782757
0.7784261
0.7785939
0.7787656
0.7781409
0.7782714
0.7784207
0.7785973
0.7788256
0.7791743
0.7794197
0.7781396
0.7782673
0.7784148
0.7785935
0.7788304
0.7791192
0.7793616
0.7796056
0.7781382
0.7782628
0.7784072
0.7785832
0.7788128
0.7790637
0.7792846
0.7795333
0.7797841
0.7781366
0.7782575
0.7783976
0.7785679
0.7787857
0.7790102
0.7792083
0.7794384
0.7796973
0.7799572
0.7781347
0.7782511
0.7783858
0.7785487
0.7787539
0.7789594
0.7791382
0.7793465
0.7795873
0.7798574
0.7801266
0.7781569
0.7781529
0.7783021
0.7781485
0.778293
0.7784361
0.7781448
0.7782827
0.7784274
0.7785564
0.7781421
0.7782742
0.7784169
0.7785576
0.778661
0.7781402
0.7782681
0.7784088
0.7785569
0.7786884
0.7781388
0.778264
0.7784038
0.7785594
0.7787218
0.7781378
0.7782608
0.7784003
0.7785639
0.778775
0.7791018
0.7793538
0.7796022
0.7781368
0.7782577
0.7783963
0.7785627
0.7787818
0.779048
0.7792758
0.7795289
0.7797829
0.7781356
0.778254
0.7783904
0.7785554
0.7787688
0.7789999
0.7792017
0.7794349
0.7796963
0.779959
0.7781342
0.7782494
0.7783823
0.7785428
0.7787466
0.7789545
0.779135
0.7793447
0.7795868
0.7798583
0.7801296
0.7781325
0.7782438
0.7783719
0.7785261
0.7787193
0.7789107
0.7790748
0.7792642
0.7794829
0.7797347
0.7800162
0.7802951
0.7781587
0.7781538
0.7783052
0.7781485
0.778293
0.7784361
0.778144
0.7782799
0.7784213
0.7785452
0.7781407
0.7782693
0.778406
0.7785364
0.7786267
0.7781384
0.7782617
0.7783945
0.7785278
0.7786361
0.7781369
0.7782569
0.7783877
0.778525
0.7786499
0.7781359
0.7782538
0.7783844
0.7785284
0.7786784
0.7781351
0.7782515
0.7783826
0.7785348
0.77873
0.7790318
0.7792684
0.7795256
0.7797821
0.7781343
0.7782492
0.77838
0.778536
0.7787397
0.7789852
0.7791935
0.7794308
0.7796952
0.7799608
0.7781333
0.7782461
0.7783755
0.7785309
0.7787307
0.7789448
0.7791289
0.7793414
0.7795858
0.7798598
0.7801348
0.778132
0.7782422
0.7783686
0.7785206
0.7787123
0.7789061
0.7790718
0.7792625
0.7794824
0.7797355
0.7800189
0.7803011
0.7781305
0.7782371
0.7783593
0.7785058
0.7786885
0.7788681
0.7790198
0.7791932
0.7793917
0.7796197
0.7798812
0.7801726
0.780459
0.7781611
0.7781555
0.7783112
0.7781493
0.778296
0.7784425
0.778144
0.7782799
0.7784213
0.7785452
0.77814
0.7782667
0.7784003
0.7785258
0.7786102
0.7781371
0.7782571
0.7783843
0.7785081
0.7786036
0.7781352
0.7782509
0.7783742
0.7784979
0.7786012
0.778134
0.7782471
0.7783692
0.7784963
0.7786116
0.7781332
0.7782449
0.7783675
0.7785015
0.7786398
0.7781326
0.7782433
0.778367
0.7785096
0.7786911
0.7789701
0.7791867
0.7794277
0.7796943
0.779962
0.778132
0.7782415
0.7783655
0.7785125
0.7787032
0.7789309
0.7791212
0.7793375
0.7795847
0.7798614
0.7801404
0.7781311
0.778239
0.7783621
0.7785092
0.7786973
0.7788969
0.779066
0.7792594
0.7794815
0.7797368
0.7800235
0.7803114
0.77813
0.7782355
0.7783561
0.7785005
0.7786819
0.7788637
0.7790169
0.7791916
0.7793912
0.7796204
0.7798836
0.7801779
0.7804694
0.7781286
0.7782309
0.7783478
0.7784875
0.7786609
0.7788302
0.7789716
0.7791317
0.7793131
0.7795195
0.7797556
0.7800252
0.780324
0.7806138
0.778164
0.7781578
0.7783195
0.7781509
0.7783016
0.7784548
0.7781448
0.7782827
0.7784274
0.7785564
0.77814
0.7782667
0.7784003
0.7785258
0.7786102
0.7781364
0.7782547
0.7783791
0.7784982
0.7785879
0.778134
0.7782466
0.7783647
0.7784795
0.778571
0.7781324
0.7782414
0.7783566
0.778471
0.7785663
0.7781314
0.7782385
0.7783532
0.7784713
0.7785773
0.7781308
0.7782369
0.7783527
0.7784782
0.7786062
0.7781304
0.7782359
0.7783532
0.7784875
0.7786572
0.7789167
0.7791148
0.7793346
0.7795838
0.7798624
0.780144
0.7781299
0.7782346
0.7783526
0.7784917
0.7786712
0.7788839
0.7790588
0.7792558
0.7794804
0.7797382
0.7800284
0.7803229
0.7781291
0.7782325
0.7783499
0.7784897
0.7786676
0.778855
0.7790115
0.7791888
0.7793904
0.7796216
0.7798878
0.7801871
0.7804881
0.7781282
0.7782294
0.7783448
0.7784824
0.7786546
0.778826
0.7789689
0.7791302
0.7793127
0.7795202
0.7797578
0.78003
0.7803333
0.7806307
0.7781269
0.7782252
0.7783373
0.7784707
0.7786359
0.7787961
0.7789287
0.7790778
0.7792451
0.7794334
0.7796466
0.7798892
0.7801644
0.7804664
0.7807531
0.778167
0.7781605
0.7783293
0.7781531
0.7783095
0.7784722
0.7781463
0.778288
0.7784391
0.7785787
0.7781407
0.7782693
0.778406
0.7785364
0.7786267
0.7781364
0.7782547
0.7783791
0.7784982
0.7785879
0.7781334
0.7782443
0.7783598
0.7784703
0.7785564
0.7781313
0.7782373
0.7783477
0.7784538
0.7785382
0.7781299
0.7782331
0.7783413
0.7784475
0.778535
0.7781291
0.7782309
0.7783391
0.7784496
0.7785474
0.7781287
0.7782298
0.7783396
0.7784577
0.778577
0.7781283
0.7782292
0.7783408
0.7784679
0.7786275
0.7788704
0.7790528
0.7792531
0.7794796
0.7797391
0.7800317
0.7803309
0.7781279
0.7782282
0.7783408
0.778473
0.7786427
0.7788426
0.7790047
0.7791854
0.7793893
0.7796229
0.7798922
0.7801973
0.7805102
0.7781273
0.7782265
0.7783388
0.778472
0.7786409
0.7788177
0.7789637
0.7791275
0.7793119
0.7795213
0.7797616
0.7800383
0.7803499
0.7806627
0.7781264
0.7782237
0.7783344
0.7784659
0.7786298
0.7787921
0.7789261
0.7790764
0.7792447
0.779434
0.7796486
0.7798935
0.7801727
0.7804814
0.7807784
0.7781252
0.7782199
0.7783275
0.7784553
0.778613
0.7787653
0.7788902
0.7790299
0.7791854
0.7793588
0.7795529
0.7797714
0.7800182
0.7802951
0.780594
0.7810038
0.7781698
0.7781634
0.7783395
0.7781556
0.7783188
0.7784932
0.7781483
0.7782953
0.7784557
0.7786116
0.7781421
0.7782742
0.7784169
0.7785576
0.778661
0.7781371
0.7782571
0.7783843
0.7785081
0.7786036
0.7781334
0.7782443
0.7783598
0.7784703
0.7785564
0.7781307
0.7782352
0.7783431
0.7784452
0.7785246
0.7781288
0.7782293
0.7783328
0.7784314
0.7785087
0.7781277
0.7782258
0.7783278
0.7784271
0.7785077
0.7781271
0.7782241
0.7783266
0.7784306
0.7785215
0.7781267
0.7782234
0.7783278
0.7784395
0.7785515
0.7781265
0.7782231
0.7783295
0.7784503
0.7786012
0.7788298
0.778999
0.7791828
0.7793886
0.7796236
0.7798951
0.7802044
0.780527
0.7781261
0.7782224
0.7783301
0.778456
0.7786172
0.7788059
0.7789572
0.7791243
0.7793109
0.7795225
0.7797656
0.7800475
0.7803696
0.7807044
0.7781256
0.778221
0.7783286
0.7784559
0.7786167
0.7787842
0.7789213
0.7790738
0.7792439
0.7794351
0.7796521
0.7799011
0.7801877
0.7805099
0.7808292
0.7781248
0.7782185
0.7783247
0.7784506
0.7786072
0.7787615
0.7788878
0.7790285
0.779185
0.7793594
0.7795548
0.7797755
0.7800258
0.7803086
0.7806164
0.7810465
0.7781237
0.778215
0.7783185
0.7784411
0.778592
0.7787371
0.7788553
0.7789868
0.7791323
0.7792933
0.7794717
0.7796703
0.779892
0.7801393
0.780412
0.7808224
0.781383
0.7781721
0.778166
0.778349
0.7781582
0.7783285
0.7785152
0.7781506
0.778304
0.7784756
0.7786535
0.7781439
0.778281
0.7784323
0.7785888
0.7787161
0.7781384
0.7782617
0.7783945
0.7785278
0.7786361
0.778134
0.7782466
0.7783647
0.7784795
0.778571
0.7781307
0.7782352
0.7783431
0.7784452
0.7785246
0.7781283
0.7782272
0.7783285
0.7784233
0.778496
0.7781267
0.7782221
0.7783198
0.7784119
0.7784829
0.7781257
0.7782192
0.7783159
0.7784093
0.778484
0.7781252
0.7782179
0.7783154
0.7784137
0.7784988
0.7781249
0.7782175
0.7783171
0.7784231
0.7785287
0.7781247
0.7782174
0.7783193
0.7784343
0.7785775
0.7787938
0.7789519
0.7791219
0.7793102
0.7795232
0.7797683
0.7800539
0.7803846
0.7807413
0.7781245
0.778217
0.7783203
0.7784406
0.778594
0.778773
0.7789151
0.7790707
0.779243
0.7794361
0.7796559
0.7799096
0.7802055
0.780547
0.7809048
0.778124
0.7782158
0.7783192
0.7784411
0.7785946
0.7787539
0.7788831
0.779026
0.7791842
0.7793603
0.7795581
0.7797825
0.7800396
0.7803343
0.7806615
0.7811398
0.7781233
0.7782136
0.7783158
0.7784366
0.7785864
0.7787334
0.778853
0.7789855
0.7791319
0.7792938
0.7794736
0.7796741
0.7798991
0.7801517
0.7804322
0.78086
0.7814512
0.7781223
0.7782104
0.77831
0.7784278
0.7785725
0.7787111
0.7788234
0.7789477
0.7790846
0.7792351
0.7794005
0.7795828
0.7797838
0.7800053
0.7802478
0.7806214
0.7811677
0.7817516
0.7781738
0.7781683
0.7783569
0.7781607
0.7783376
0.7785353
0.7781531
0.7783131
0.7784965
0.7786997
0.7781461
0.7782891
0.7784509
0.7786285
0.7787976
0.7781402
0.7782681
0.7784088
0.7785569
0.7786884
0.7781352
0.7782509
0.7783742
0.7784979
0.7786012
0.7781313
0.7782373
0.7783477
0.7784538
0.7785382
0.7781283
0.7782272
0.7783285
0.7784233
0.778496
0.7781261
0.7782202
0.7783157
0.7784043
0.778471
0.7781247
0.7782157
0.7783083
0.7783948
0.7784606
0.7781238
0.7782132
0.7783052
0.7783934
0.7784632
0.7781234
0.7782122
0.7783053
0.7783985
0.7784786
0.7781232
0.7782121
0.7783074
0.7784083
0.7785084
0.7781231
0.7782122
0.7783098
0.7784197
0.7785561
0.7787614
0.77891
0.7790685
0.7792423
0.7794368
0.7796584
0.7799155
0.780219
0.7805798
0.780994
0.778123
0.778212
0.7783111
0.7784263
0.7785728
0.7787431
0.7788772
0.7790231
0.7791834
0.7793614
0.7795616
0.7797904
0.780056
0.7803677
0.7807287
0.7813135
0.7781226
0.778211
0.7783104
0.7784274
0.7785743
0.7787261
0.7788485
0.7789832
0.7791312
0.7792948
0.7794767
0.7796808
0.779912
0.7801753
0.7804729
0.7809425
0.7816052
0.7781219
0.7782091
0.7783074
0.7784235
0.7785672
0.7787076
0.7788211
0.7789465
0.7790843
0.7792356
0.7794023
0.7795864
0.7797905
0.7800169
0.7802663
0.7806552
0.7812277
0.7818425
0.778121
0.7782061
0.7783022
0.7784155
0.7785545
0.7786872
0.7787941
0.778912
0.7790414
0.7791828
0.7793372
0.779506
0.7796901
0.7798905
0.7801068
0.7804421
0.780938
0.7815035
0.782106
0.7781747
0.7781699
0.7783625
0.7781628
0.7783451
0.7785514
0.7781554
0.7783215
0.7785156
0.7787382
0.7781484
0.7782975
0.7784704
0.7786723
0.7789155
0.7781422
0.7782757
0.7784261
0.7785939
0.7787656
0.7781369
0.7782569
0.7783877
0.778525
0.7786499
0.7781324
0.7782414
0.7783566
0.778471
0.7785663
0.7781288
0.7782293
0.7783328
0.7784314
0.7785087
0.7781261
0.7782202
0.7783157
0.7784043
0.778471
0.7781242
0.7782138
0.7783043
0.7783875
0.7784493
0.7781229
0.7782098
0.7782979
0.7783796
0.778441
0.7781222
0.7782077
0.7782955
0.7783791
0.7784447
0.7781218
0.778207
0.778296
0.7783848
0.7784605
0.7781217
0.7782071
0.7782984
0.7783948
0.7784899
0.7781216
0.7782074
0.7783011
0.7784063
0.7785365
0.778732
0.7788723
0.779021
0.7791828
0.779362
0.779564
0.7797959
0.7800683
0.7803974
0.7808082
0.7817391
0.7781215
0.7782074
0.7783027
0.7784132
0.7785534
0.7787158
0.7788429
0.7789804
0.7791304
0.7792957
0.77948
0.7796882
0.7799272
0.7802061
0.7805336
0.7810966
0.7819024
0.7781212
0.7782066
0.7783023
0.7784147
0.7785555
0.7787006
0.7788169
0.7789443
0.7790836
0.7792365
0.7794052
0.7795927
0.7798026
0.7800388
0.7803037
0.7807295
0.7813635
0.782048
0.7781206
0.7782048
0.7782997
0.7784114
0.7785493
0.7786838
0.7787919
0.7789109
0.779041
0.7791833
0.7793389
0.7795094
0.7796965
0.7799013
0.780124
0.7804732
0.7809919
0.7815833
0.7822159
0.7781197
0.778202
0.7782948
0.778404
0.7785377
0.778665
0.778767
0.7788792
0.7790018
0.7791353
0.7792803
0.7794377
0.7796079
0.7797911
0.7799861
0.7802889
0.7807361
0.7812459
0.7818265
0.7824433
0.7781707
0.7783654
0.7781643
0.7783504
0.7785625
0.7781573
0.7783285
0.7785308
0.7787667
0.7781506
0.7783054
0.7784881
0.7787089
0.778983
0.7781444
0.7782835
0.7784442
0.7786346
0.7788772
0.7792295
0.7781388
0.778264
0.7784038
0.7785594
0.7787218
0.778134
0.7782471
0.7783692
0.7784963
0.7786116
0.7781299
0.7782331
0.7783413
0.7784475
0.778535
0.7781267
0.7782221
0.7783198
0.7784119
0.7784829
0.7781242
0.7782138
0.7783043
0.7783875
0.7784493
0.7781224
0.7782081
0.7782941
0.7783727
0.7784303
0.7781212
0.7782045
0.7782885
0.778366
0.7784236
0.7781206
0.7782027
0.7782866
0.7783662
0.7784281
0.7781203
0.7782022
0.7782875
0.7783722
0.7784441
0.7781203
0.7782025
0.7782901
0.7783824
0.778473
0.7842331
0.7781203
0.7782029
0.7782931
0.7783939
0.7785184
0.7787052
0.7788382
0.7789783
0.7791298
0.7792963
0.7794822
0.7796933
0.7799387
0.7802334
0.7806053
0.7814754
0.7825547
0.7781202
0.778203
0.7782948
0.778401
0.7785354
0.7786907
0.7788115
0.7789416
0.7790828
0.7792374
0.7794084
0.7795997
0.7798169
0.7800675
0.7803595
0.7808683
0.7816265
0.7824349
0.7781199
0.7782024
0.7782947
0.7784028
0.7785381
0.7786771
0.7787878
0.7789087
0.7790404
0.7791841
0.7793417
0.7795154
0.7797079
0.779922
0.7801588
0.7805414
0.7811139
0.7817641
0.7824623
0.7781194
0.7782008
0.7782924
0.7784
0.7785327
0.7786617
0.7787649
0.7788781
0.7790015
0.7791358
0.7792819
0.7794409
0.7796139
0.7798013
0.7800023
0.7803178
0.7807855
0.7813175
0.7819227
0.7825679
0.7781185
0.7781982
0.7782879
0.7783933
0.778522
0.7786442
0.7787418
0.7788489
0.7789655
0.7790919
0.7792287
0.7793763
0.7795348
0.7797038
0.7798816
0.7801578
0.7805644
0.7810221
0.7815424
0.7821342
0.7826102
0.7781651
0.7783531
0.7785681
0.7781587
0.7783334
0.7785414
0.7787851
0.7781524
0.7783119
0.7785023
0.7787359
0.7790233
0.7781464
0.7782909
0.7784607
0.7786687
0.7789412
0.7792492
0.7781409
0.7782714
0.7784207
0.7785973
0.7788256
0.7791743
0.7794197
0.7781359
0.7782538
0.7783844
0.7785284
0.7786784
0.7781314
0.7782385
0.7783532
0.7784713
0.7785773
0.7781277
0.7782258
0.7783278
0.7784271
0.7785077
0.7781247
0.7782157
0.7783083
0.7783948
0.7784606
0.7781224
0.7782081
0.7782941
0.7783727
0.7784303
0.7781208
0.7782028
0.7782849
0.7783594
0.7784134
0.7781197
0.7781996
0.7782799
0.7783537
0.7784079
0.7781191
0.7781981
0.7782785
0.7783545
0.7784131
0.7781189
0.7781978
0.7782797
0.7783607
0.7784291
0.7856761
0.7781189
0.7781982
0.7782825
0.7783709
0.7784575
0.7837025
0.7844021
0.778119
0.7781988
0.7782855
0.7783825
0.7785018
0.7786805
0.778807
0.7789396
0.7790822
0.779238
0.7794105
0.7796045
0.7798277
0.7800929
0.7804255
0.7812107
0.7822062
0.7831797
0.7781189
0.778199
0.7782875
0.7783896
0.7785187
0.7786676
0.7787826
0.7789062
0.7790396
0.779185
0.7793447
0.779522
0.7797214
0.7799489
0.7802108
0.780669
0.7813508
0.7821057
0.7829106
0.7781187
0.7781985
0.7782876
0.7783918
0.7785219
0.7786552
0.7787609
0.778876
0.7790009
0.7791366
0.7792846
0.7794466
0.7796247
0.7798208
0.7800349
0.7803812
0.7808975
0.7814799
0.782139
0.7828447
0.7781182
0.778197
0.7782855
0.7783894
0.7785172
0.7786411
0.7787398
0.7788478
0.7789652
0.7790924
0.7792302
0.7793794
0.7795405
0.7797135
0.7798969
0.7801849
0.7806103
0.7810877
0.7816286
0.7822429
0.7827402
0.7781174
0.7781946
0.7782814
0.7783832
0.7785073
0.7786249
0.7787184
0.7788207
0.7789319
0.779052
0.7791815
0.7793205
0.779469
0.7796261
0.7797898
0.7800443
0.7804176
0.7808325
0.7812975
0.781825
0.7822865
0.7826259
0.7781594
0.778336
0.7785467
0.7787941
0.7781537
0.7783165
0.7785121
0.7787534
0.7790466
0.7781481
0.778297
0.7784739
0.7786939
0.7789795
0.7792683
0.7781428
0.7782783
0.7784361
0.778629
0.7788852
0.779193
0.779428
0.7781378
0.7782608
0.7784003
0.7785639
0.778775
0.7791018
0.7793538
0.7796022
0.7781332
0.7782449
0.7783675
0.7785015
0.7786398
0.7781291
0.7782309
0.7783391
0.7784496
0.7785474
0.7781257
0.7782192
0.7783159
0.7784093
0.778484
0.7781229
0.7782098
0.7782979
0.7783796
0.778441
0.7781208
0.7782028
0.7782849
0.7783594
0.7784134
0.7781192
0.778198
0.7782765
0.7783474
0.7783983
0.7781183
0.7781951
0.7782721
0.7783424
0.7783938
0.7781178
0.7781938
0.778271
0.7783436
0.7783994
0.7866485
0.7781176
0.7781937
0.7782724
0.7783501
0.7784153
0.7849869
0.7857526
0.7781177
0.7781942
0.7782753
0.7783603
0.7784432
0.7832272
0.7838532
0.7846514
0.7781177
0.7781948
0.7782785
0.7783718
0.7784864
0.7786577
0.7787783
0.7789043
0.7790391
0.7791855
0.7793467
0.7795266
0.7797316
0.7799728
0.7802723
0.7809842
0.7818742
0.7827661
0.7836891
0.7781177
0.7781952
0.7782806
0.778379
0.7785032
0.778646
0.7787559
0.7788736
0.7790002
0.7791374
0.7792874
0.7794529
0.7796376
0.7798462
0.7800837
0.7805001
0.7811151
0.7817873
0.7825339
0.7833341
0.7781175
0.7781948
0.7782809
0.7783814
0.7785068
0.7786349
0.778736
0.7788458
0.7789646
0.7790932
0.7792327
0.7793848
0.7795508
0.779732
0.7799277
0.7802444
0.7807145
0.7812366
0.7818226
0.7824853
0.783028
0.7781171
0.7781935
0.7782791
0.7783794
0.7785027
0.7786219
0.7787164
0.7788197
0.7789316
0.7790525
0.7791829
0.7793235
0.7794745
0.7796354
0.7798043
0.7800699
0.7804607
0.7808934
0.7813765
0.7819223
0.7823998
0.7827563
0.7781164
0.7781913
0.7782753
0.7783737
0.7784935
0.7786068
0.7786965
0.7787945
0.7789007
0.7790151
0.7791381
0.7792696
0.7794093
0.7795563
0.7797081
0.7799445
0.7802904
0.7806705
0.7810908
0.7815603
0.7819651
0.7823009
0.7826414
0.7781544
0.7783189
0.7785171
0.7787619
0.7790574
0.7781493
0.7783013
0.7784831
0.7787101
0.7790016
0.7792818
0.7781444
0.778284
0.7784485
0.7786524
0.7789208
0.7792111
0.7794379
0.7781396
0.7782673
0.7784148
0.7785935
0.7788304
0.7791192
0.7793616
0.7796056
0.7781351
0.7782515
0.7783826
0.7785348
0.77873
0.7790318
0.7792684
0.7795256
0.7797821
0.7781308
0.7782369
0.7783527
0.7784782
0.7786062
0.7781271
0.7782241
0.7783266
0.7784306
0.7785215
0.7781238
0.7782132
0.7783052
0.7783934
0.7784632
0.7781212
0.7782045
0.7782885
0.778366
0.7784236
0.7781192
0.778198
0.7782765
0.7783474
0.7783983
0.7781178
0.7781936
0.7782688
0.7783364
0.7783845
0.778117
0.7781909
0.7782648
0.7783321
0.7783809
0.7872729
0.7781165
0.7781898
0.778264
0.7783336
0.7783868
0.7858502
0.7867055
0.7781164
0.7781898
0.7782656
0.7783402
0.7784026
0.7843875
0.7850542
0.7858937
0.7781165
0.7781904
0.7782686
0.7783504
0.7784299
0.7828427
0.7833641
0.7840753
0.7849384
0.7781166
0.7781912
0.7782719
0.7783618
0.778472
0.7786366
0.7787518
0.7788718
0.7789996
0.779138
0.7792893
0.7794573
0.7796473
0.7798688
0.7801415
0.7807939
0.7815967
0.7823829
0.7832222
0.7841239
0.7781166
0.7781916
0.7782742
0.7783691
0.7784887
0.778626
0.7787312
0.7788434
0.7789639
0.779094
0.7792355
0.7793908
0.779563
0.7797561
0.7799738
0.780356
0.780917
0.7815189
0.7821776
0.7829151
0.7835316
0.7781164
0.7781913
0.7782746
0.7783717
0.7784926
0.7786158
0.7787128
0.7788178
0.778931
0.7790532
0.7791854
0.7793287
0.7794843
0.779653
0.7798336
0.7801261
0.7805584
0.7810319
0.7815544
0.7821395
0.7826514
0.7830451
0.778116
0.7781902
0.7782731
0.77837
0.778489
0.7786039
0.7786946
0.7787935
0.7789004
0.7790156
0.7791394
0.7792724
0.7794146
0.7795652
0.7797219
0.7799688
0.7803311
0.7807276
0.7811641
0.7816494
0.7820664
0.7824145
0.7827722
0.7781154
0.7781881
0.7782695
0.7783647
0.7784806
0.7785898
0.778676
0.77877
0.7788716
0.7789809
0.7790979
0.7792227
0.7793548
0.7794929
0.7796346
0.7798557
0.7801786
0.7805301
0.7809142
0.7813373
0.7816907
0.7819783
0.782315
0.7826567
0.77815
0.7783035
0.7784877
0.7787181
0.7790118
0.7792885
0.7781456
0.778288
0.778457
0.7786675
0.7789414
0.7792239
0.7794458
0.7781411
0.7782727
0.7784264
0.7786154
0.7788635
0.7791361
0.7793711
0.7796103
0.7781368
0.7782577
0.7783963
0.7785627
0.7787818
0.779048
0.7792758
0.7795289
0.7797829
0.7781326
0.7782433
0.778367
0.7785096
0.7786911
0.7789701
0.7791867
0.7794277
0.7796943
0.779962
0.7781287
0.7782298
0.7783396
0.7784577
0.778577
0.7781252
0.7782179
0.7783154
0.7784137
0.7784988
0.7781222
0.7782077
0.7782955
0.7783791
0.7784447
0.7781197
0.7781996
0.7782799
0.7783537
0.7784079
0.7781178
0.7781936
0.7782688
0.7783364
0.7783845
0.7781165
0.7781894
0.7782616
0.7783263
0.778372
0.7875809
0.7781157
0.778187
0.778258
0.7783225
0.778369
0.7864035
0.7873249
0.7781154
0.7781861
0.7782575
0.7783244
0.7783751
0.785166
0.7858996
0.7868171
0.7781153
0.7781862
0.7782592
0.778331
0.7783908
0.7839107
0.7844484
0.7851781
0.786087
0.7781154
0.7781869
0.7782624
0.7783411
0.7784175
0.7825275
0.7829691
0.7835657
0.7843302
0.7852425
0.7781155
0.7781877
0.7782657
0.7783524
0.7784586
0.7786169
0.7787272
0.7788417
0.7789634
0.7790945
0.7792373
0.779395
0.7795722
0.7797775
0.7800284
0.7806321
0.7813658
0.7820666
0.7827976
0.7836111
0.784325
0.7781155
0.7781882
0.7782681
0.7783598
0.7784751
0.7786073
0.7787081
0.7788155
0.7789303
0.779054
0.779188
0.7793344
0.779496
0.779676
0.7798773
0.7802315
0.7807486
0.7812946
0.7818802
0.7825254
0.7830928
0.7835499
0.7781154
0.778188
0.7782687
0.7783626
0.7784793
0.778598
0.7786911
0.7787916
0.7788998
0.7790163
0.7791418
0.7792774
0.779424
0.779582
0.7797498
0.7800221
0.7804233
0.7808575
0.7813294
0.7818484
0.7822917
0.7826669
0.7830619
0.7781151
0.778187
0.7782673
0.7783612
0.7784762
0.7785869
0.7786742
0.778769
0.7788713
0.7789813
0.7790993
0.7792254
0.7793598
0.7795014
0.7796478
0.7798788
0.7802171
0.780584
0.7809829
0.78142
0.7817835
0.78208
0.782429
0.7827879
0.7781144
0.778185
0.778264
0.7783563
0.7784683
0.7785738
0.7786568
0.7787471
0.7788445
0.778949
0.7790607
0.7791794
0.7793045
0.7794349
0.7795679
0.7797757
0.7800789
0.7804065
0.7807611
0.7811468
0.7814597
0.781703
0.7819913
0.782329
0.7826718
0.7781462
0.7782901
0.7784614
0.7786749
0.7789509
0.7792303
0.77945
0.7781422
0.7782765
0.7784344
0.7786295
0.7788827
0.779148
0.7793786
0.7796141
0.7781382
0.7782628
0.7784072
0.7785832
0.7788128
0.7790637
0.7792846
0.7795333
0.7797841
0.7781343
0.7782492
0.77838
0.778536
0.7787397
0.7789852
0.7791935
0.7794308
0.7796952
0.7799608
0.7781304
0.7782359
0.7783532
0.7784875
0.7786572
0.7789167
0.7791148
0.7793346
0.7795838
0.7798624
0.780144
0.7781267
0.7782234
0.7783278
0.7784395
0.7785515
0.7781234
0.7782122
0.7783053
0.7783985
0.7784786
0.7781206
0.7782027
0.7782866
0.7783662
0.7784281
0.7781183
0.7781951
0.7782721
0.7783424
0.7783938
0.7781165
0.7781894
0.7782616
0.7783263
0.778372
0.7875809
0.7781153
0.7781856
0.778255
0.7783169
0.7783605
0.7866764
0.7876317
0.7781146
0.7781834
0.7782518
0.7783136
0.778358
0.7856645
0.7864482
0.7874283
0.7781142
0.7781826
0.7782514
0.7783157
0.7783643
0.7846265
0.7852106
0.7859962
0.78698
0.7781142
0.7781828
0.7782533
0.7783224
0.7783798
0.7835229
0.7839669
0.7845607
0.7853475
0.7863225
0.7781143
0.7781835
0.7782565
0.7783325
0.7784059
0.7822619
0.7826455
0.7831553
0.7837971
0.7845995
0.7854059
0.7781145
0.7781844
0.7782599
0.7783436
0.778446
0.7785985
0.7787043
0.7788138
0.7789298
0.7790545
0.7791898
0.7793384
0.7795048
0.7796964
0.7799291
0.7804924
0.7811702
0.7818048
0.7824499
0.7831515
0.7837907
0.7843437
0.7781145
0.778185
0.7782624
0.778351
0.7784624
0.7785898
0.7786866
0.7787895
0.7788992
0.779017
0.7791443
0.7792829
0.7794351
0.7796039
0.7797914
0.780122
0.7806029
0.7811041
0.7816325
0.7822023
0.7826878
0.7831094
0.7835678
0.7781145
0.7781849
0.7782631
0.778354
0.7784668
0.7785813
0.7786708
0.7787672
0.7788708
0.778982
0.7791015
0.7792302
0.7793688
0.7795174
0.7796744
0.7799295
0.7803046
0.7807066
0.781138
0.7816049
0.7819897
0.7823059
0.7826821
0.7830783
0.7781141
0.778184
0.7782619
0.7783529
0.7784641
0.778571
0.778655
0.7787461
0.7788442
0.7789494
0.7790619
0.779182
0.7793093
0.779443
0.7795805
0.7797977
0.7801156
0.7804576
0.7808259
0.7812244
0.7815458
0.781796
0.7820933
0.7824433
0.7828033
0.7781135
0.7781822
0.7782589
0.7783483
0.7784568
0.7785587
0.7786387
0.7787255
0.7788191
0.7789192
0.779026
0.7791391
0.7792581
0.7793816
0.7795069
0.7797031
0.7799892
0.7802963
0.7806262
0.7809817
0.7812625
0.7814712
0.7817151
0.7820042
0.7823428
0.7826894
0.7781428
0.7782785
0.7784385
0.7786364
0.7788915
0.779154
0.7793826
0.7796163
0.7781393
0.7782664
0.7784148
0.7785965
0.7788307
0.7790748
0.7792916
0.779537
0.779785
0.7781356
0.778254
0.7783904
0.7785554
0.7787688
0.7789999
0.7792017
0.7794349
0.7796963
0.779959
0.778132
0.7782415
0.7783655
0.7785125
0.7787032
0.7789309
0.7791212
0.7793375
0.7795847
0.7798614
0.7801404
0.7781283
0.7782292
0.7783408
0.7784679
0.7786275
0.7788704
0.7790528
0.7792531
0.7794796
0.7797391
0.7800317
0.7803309
0.7781249
0.7782175
0.7783171
0.7784231
0.7785287
0.7781218
0.778207
0.778296
0.7783848
0.7784605
0.7781191
0.7781981
0.7782785
0.7783545
0.7784131
0.778117
0.7781909
0.7782648
0.7783321
0.7783809
0.7872729
0.7781153
0.7781856
0.778255
0.7783169
0.7783605
0.7866764
0.7876317
0.7781142
0.778182
0.7782488
0.7783083
0.7783498
0.7859101
0.7867198
0.787733
0.7781135
0.77818
0.7782459
0.7783054
0.7783479
0.7850846
0.7857047
0.786537
0.7875821
0.7781132
0.7781793
0.7782457
0.7783077
0.7783543
0.7841896
0.7846676
0.7852978
0.7861371
0.7871907
0.7781132
0.7781796
0.7782477
0.7783143
0.7783695
0.7831972
0.7835754
0.7840705
0.784714
0.7855531
0.7864645
0.7781133
0.7781804
0.778251
0.7783243
0.7783951
0.7820331
0.782373
0.7828195
0.7833692
0.7840417
0.7847438
0.7854215
0.7781135
0.7781814
0.7782545
0.7783354
0.7784342
0.7785812
0.7786829
0.7787878
0.7788987
0.7790175
0.779146
0.7792867
0.7794435
0.7796233
0.7798408
0.7803696
0.7810013
0.7815832
0.7821629
0.7827772
0.783315
0.7838074
0.7843619
0.7781136
0.778182
0.778257
0.7783428
0.7784504
0.7785733
0.7786664
0.7787651
0.7788702
0.7789827
0.779104
0.7792355
0.7793794
0.7795384
0.7797141
0.7800246
0.7804749
0.7809394
0.7814223
0.7819339
0.7823529
0.7827029
0.7831255
0.7835852
0.7781135
0.778182
0.7782578
0.7783458
0.778455
0.7785656
0.7786517
0.7787444
0.7788437
0.7789501
0.7790641
0.7791866
0.779318
0.7794584
0.779606
0.7798461
0.7801988
0.7805738
0.7809722
0.7813977
0.7817374
0.782003
0.7823199
0.782697
0.7830944
0.7781132
0.7781812
0.7782568
0.778345
0.7784527
0.7785561
0.778637
0.7787246
0.7788188
0.7789196
0.7790272
0.7791417
0.7792627
0.7793894
0.779519
0.7797241
0.7800241
0.7803449
0.7806877
0.7810548
0.7813431
0.7815576
0.7818084
0.7821064
0.7824574
0.7828213
0.7781127
0.7781795
0.778254
0.7783408
0.7784459
0.7785445
0.7786216
0.7787053
0.7787952
0.7788913
0.7789935
0.7791016
0.779215
0.7793322
0.7794508
0.7796366
0.7799076
0.780197
0.780506
0.7808361
0.7810913
0.7812733
0.7814826
0.7817271
0.7820168
0.7823589
0.7827059
0.7781398
0.7782683
0.7784187
0.7786031
0.778839
0.7790804
0.7792953
0.7795391
0.7797855
0.7781366
0.7782575
0.7783976
0.7785679
0.7787857
0.7790102
0.7792083
0.7794384
0.7796973
0.7799572
0.7781333
0.7782461
0.7783755
0.7785309
0.7787307
0.7789448
0.7791289
0.7793414
0.7795858
0.7798598
0.7801348
0.7781299
0.7782346
0.7783526
0.7784917
0.7786712
0.7788839
0.7790588
0.7792558
0.7794804
0.7797382
0.7800284
0.7803229
0.7781265
0.7782231
0.7783295
0.7784503
0.7786012
0.7788298
0.778999
0.7791828
0.7793886
0.7796236
0.7798951
0.7802044
0.780527
0.7781232
0.7782121
0.7783074
0.7784083
0.7785084
0.7781203
0.7782022
0.7782875
0.7783722
0.7784441
0.7781178
0.7781938
0.778271
0.7783436
0.7783994
0.7866485
0.7781157
0.778187
0.778258
0.7783225
0.778369
0.7864035
0.7873249
0.7781142
0.778182
0.7782488
0.7783083
0.7783498
0.7859101
0.7867198
0.787733
0.7781131
0.7781786
0.778243
0.7783002
0.7783399
0.7853101
0.7859491
0.7868064
0.7878845
0.7781125
0.7781768
0.7782404
0.7782977
0.7783384
0.7846161
0.7851216
0.7857846
0.786669
0.7877854
0.7781122
0.7781762
0.7782404
0.7783001
0.7783449
0.7838235
0.784228
0.784748
0.7854249
0.786319
0.787325
0.7781122
0.7781766
0.7782425
0.7783068
0.7783599
0.7829169
0.7832466
0.7836721
0.784212
0.7849001
0.7856768
0.7864783
0.7781124
0.7781775
0.7782458
0.7783167
0.778385
0.7818322
0.7821381
0.7825366
0.7830193
0.7835951
0.7841726
0.7847575
0.7854372
0.7781126
0.7781785
0.7782493
0.7783276
0.7784231
0.778565
0.7786628
0.7787636
0.7788698
0.7789832
0.7791056
0.7792392
0.7793875
0.779557
0.7797613
0.7802604
0.7808529
0.781392
0.7819203
0.7824688
0.7829285
0.7833302
0.7838237
0.7843797
0.7781127
0.7781791
0.7782519
0.778335
0.7784391
0.7785578
0.7786475
0.7787424