/*--------------------------------*- C++ -*----------------------------------*\
| =========                 |                                                 |
| \\      /  F ield         | OpenFOAM: The Open Source CFD Toolbox           |
|  \\    /   O peration     | Version:  2306                                  |
|   \\  /    A nd           | Website:  www.openfoam.com                      |
|    \\/     M anipulation  |                                                 |
\*---------------------------------------------------------------------------*/
FoamFile
{
    version     2.0;
    format      ascii;
    arch        "LSB;label=32;scalar=64";
    class       volVectorField;
    location    "1.2/phiI";
    object      i;
}
// * * * * * * * * * * * * * * * * * * * * * * * * * * * * * * * * * * * * * //

dimensions      [0 -2 0 0 0 1 0];

internalField   nonuniform List<vector> 
12000
(
(40.6511 5.103216 1668.218)
(40.80942 15.66386 1682.553)
(80.9956 6.686365 1526.546)
(41.21779 4.529779 5030.448)
(40.96358 28.83851 1711.461)
(81.24775 18.7886 1535.706)
(41.39681 13.93413 5073.487)
(73.4088 7.624755 1406.533)
(82.04234 6.31995 4603.65)
(42.3583 3.38168 8447.688)
(40.71537 48.23058 1754.821)
(81.5576 27.89799 1553.682)
(41.59469 25.94781 5160.259)
(73.54295 21.28394 1413.5)
(82.32397 17.70315 4631.152)
(42.57876 10.47145 8519.981)
(59.99108 8.027876 1310.243)
(74.27401 7.346084 4241.732)
(84.15046 5.58628 7729.989)
(44.08859 1.638082 11942.59)
(39.39298 76.53886 1810.802)
(81.43723 32.52459 1579.274)
(41.41756 44.25693 5290.399)
(73.78088 30.73333 1427.015)
(82.69539 26.15528 4685.123)
(42.86412 20.16201 8665.722)
(60.04969 22.5094 1315.954)
(74.42196 20.46468 4262.646)
(84.49111 15.52969 7776.187)
(44.37198 5.212784 12045.51)
(49.1422 8.210852 1230.166)
(60.69655 7.799414 3951.177)
(76.01869 6.788174 7121.218)
(87.34822 4.472 10923.2)
(46.43587 -0.735089 15555.38)
(36.30219 105.7411 1871.545)
(80.05152 32.40707 1609.579)
(40.19787 71.8699 5458.334)
(74.02314 33.16973 1445.822)
(82.67323 30.2887 4761.996)
(42.82898 36.30759 8884.283)
(60.17785 32.69983 1326.966)
(74.68774 29.44046 4303.222)
(84.98575 22.66421 7866.863)
(44.79013 11.37574 12253.01)
(49.16284 23.15159 1235.034)
(60.76356 21.84048 3968.322)
(76.19427 18.82431 7156.344)
(87.77851 12.22818 10988.97)
(46.80494 -1.945216 15691.01)
(40.92823 8.234319 1161.365)
(49.73771 8.016146 3709.44)
(62.12025 7.342084 6632.415)
(78.6643 5.941038 10059.28)
(91.68372 2.955612 14217.49)
(49.44013 -3.787007 17427.75)
(31.82463 120.5243 1919.992)
(76.47517 30.05765 1638.449)
(37.23457 101.3735 5640.29)
(74.07839 26.91824 1467.194)
(81.42595 30.04006 4853.1)
(41.81391 62.54325 9166.146)
(60.37625 35.49965 1342.102)
(74.97182 31.56255 4359.728)
(85.15992 25.80549 7996.099)
(44.97029 24.23999 12564.19)
(49.22379 33.9989 1244.384)
(60.90837 31.65391 4001.38)
(76.51585 26.85008 7224.509)
(88.46024 17.35883 11118.09)
(47.40382 -0.5852166 15964.5)
(40.92344 23.3253 1165.611)
(49.76421 22.58289 3724.05)
(62.20408 20.5013 6661.204)
(78.88189 16.33306 10109.27)
(92.2361 7.734256 14304.13)
(49.91948 -11.15196 17580.03)
(34.72528 8.162936 1101.049)
(41.4447 8.064464 3501.662)
(50.94026 7.626435 6225.689)
(64.27867 6.64787 9366.018)
(82.24743 4.78873 13085.52)
(97.22766 1.006463 15924.65)
(52.44826 -6.826059 17490.4)
(27.1462 111.0511 1952.593)
(71.01001 28.96445 1658.431)
(32.87088 117.2824 5785.131)
(73.64052 15.32603 1486.102)
(78.01694 28.10356 4939.979)
(39.10343 92.6692 9471.01)
(60.62557 28.58093 1358.918)
(75.08103 25.30701 4424.031)
(84.18873 25.28779 8149.421)
(44.26477 48.40081 12965.36)
(49.35012 37.64701 1257.143)
(61.13096 34.22155 4046.857)
(76.88369 28.33738 7319.52)
(88.93228 18.98638 11302.24)
(47.87678 7.813794 16374.74)
(40.93373 34.57263 1173.748)
(49.83666 33.11452 3752.116)
(62.38227 29.55843 6716.727)
(79.28829 22.91343 10206.3)
(93.17258 10.1332 14474.3)
(50.75094 -15.97373 17887.13)
(34.70426 23.20658 1104.816)
(41.44431 22.82998 3514.407)
(50.9785 21.44451 6250.217)
(64.38806 18.46801 9406.969)
(82.52227 12.94338 13151.33)
(97.93723 1.956093 16021.85)
(53.03763 -20.32027 17642.04)
(29.92159 8.024034 1047.348)
(35.18135 8.012276 3319.436)
(42.48824 7.72452 5876.054)
(52.76315 7.035033 8789.4)
(67.19977 5.704033 12178.17)
(86.8216 3.308673 14653.07)
(102.7824 -0.9323456 15985.37)
(55.46025 -9.852337 17553.15)
(23.43158 77.172 1971.975)
(65.08442 27.12051 1670.183)
(28.27585 108.9717 5882.37)
(72.54612 6.61679 1497.661)
(72.69934 27.69508 5000.106)
(34.96473 110.8411 9713.122)
(60.82722 14.735 1373.166)
(74.70165 14.10736 4481.069)
(81.11205 24.1774 8295.849)
(41.93521 79.49447 13398.66)
(49.56937 31.42795 1271.13)
(61.40983 27.33839 4097.464)
(77.10093 22.06459 7427.845)
(88.37915 18.05003 11520.98)
(47.59141 29.16472 16903.57)
(40.98792 38.95542 1184.8)
(49.97933 36.57714 3790.449)
(62.65336 31.65627 6793.189)
(79.78346 23.42908 10341.69)
(94.04993 9.689661 14717.19)
(51.60048 -13.32313 18347.95)
(34.68017 34.64367 1112.02)
(41.46318 33.80508 3538.83)
(51.07399 31.34292 6297.347)
(64.61702 26.37449 9485.982)
(83.04427 17.55307 13279.14)
(99.20166 0.8363124 16212.78)
(54.10119 -31.30197 17947.87)
(29.89012 22.87412 1050.729)
(35.16379 22.76773 3330.74)
(42.49668 21.83859 5897.447)
(52.81924 19.71657 8824.277)
(67.34403 15.70274 12232.05)
(87.17021 8.588042 14726.86)
(103.6488 -3.790961 16082.06)
(56.15939 -29.45063 17704.14)
(26.13262 7.848241 999.0248)
(30.32969 7.8888 3157.125)
(36.10343 7.710765 5569.363)
(44.07 7.208777 8293.865)
(55.22887 6.231348 11424.09)
(70.92436 4.492626 13633.97)
(91.41015 1.837284 14710.3)
(108.3481 -2.861024 16046.2)
(58.47605 -12.86595 17615.72)
(21.41288 27.49027 1980.927)
(60.26151 19.8388 1676.467)
(24.61361 76.03866 5940.05)
(71.05762 3.56606 1503.302)
(66.88159 26.39908 5035.41)
(30.53404 104.8543 9875.22)
(60.83239 3.135466 1381.145)
(73.65527 5.928807 4516.029)
(76.08642 25.14717 8397.186)
(38.13462 101.114 13742.07)
(49.8558 17.39422 1282.677)
(61.64092 13.84594 4140.487)
(76.83849 11.64613 7524.268)
(85.80391 18.19294 11730.24)
(45.77709 61.60081 17474.25)
(41.12512 33.63771 1196.813)
(50.21779 30.4066 3832.542)
(62.99153 24.83573 6878.464)
(80.16486 17.11707 10496.35)
(94.06474 8.167811 15006.11)
(51.85461 4.420333 18942.16)
(34.67975 39.56092 1121.776)
(41.52938 38.03282 3572.03)
(51.24943 34.43 6361.785)
(64.9619 27.75209 9594.912)
(83.71302 16.73539 13457.67)
(100.6006 -2.286401 16485.5)
(55.32658 -34.38748 18406.98)
(29.84306 34.32762 1057.187)
(35.14641 33.96527 3352.365)
(42.53274 32.26769 5938.45)
(52.94977 28.65181 8891.321)
(67.6422 22.04072 12336.07)
(87.8412 10.65959 14870.18)
(105.2404 -8.412507 16271.97)
(57.45455 -46.57147 18008.73)
(26.09525 22.42119 1002.088)
(30.30104 22.48055 3167.271)
(36.0928 21.88942 5588.334)
(44.09184 20.33415 8324.273)
(55.30929 17.36766 11469.96)
(71.11354 12.15218 13694.36)
(91.83224 4.259004 14783.66)
(109.3707 -9.507667 16142.38)
(59.28467 -38.54352 17766.08)
(23.07935 7.65029 955.1572)
(26.50138 7.725713 3011.001)
(31.15533 7.618163 5296.13)
(37.50105 7.253442 7859.289)
(46.20869 6.508211 10776.45)
(58.37005 5.200511 12787.11)
(74.66362 3.288608 13687.49)
(96.01311 0.3743422 14767.65)
(113.9244 -4.779795 16106.89)
(61.49555 -15.86702 17677.85)
(21.41288 -27.49027 1980.927)
(57.60154 7.303324 1679.184)
(22.61986 27.13217 5966.653)
(69.69023 2.343229 1505.674)
(62.12671 19.47877 5054.239)
(26.97482 73.80069 9971.136)
(60.62742 -1.438448 1384.411)
(72.20071 3.245535 4533.135)
(70.48136 24.9552 8456.575)
(33.95043 98.6512 13971.47)
(50.10038 4.618751 1288.768)
(61.66796 2.685673 4164.698)
(75.88775 4.534138 7583.57)
(81.21754 21.26607 11875.06)
(42.43275 87.92874 17925.71)
(41.35008 20.04516 1206.566)
(50.5222 16.68869 3867.418)
(63.28182 12.04565 6951.291)
(80.07989 7.878368 10634.53)
(92.16858 10.01421 15283.06)
(50.70001 38.60889 19583.02)
(34.74272 35.04956 1132.318)
(41.68037 32.76706 3608.176)
(51.52652 28.34919 6432.705)
(65.39039 21.01432 9716.675)
(84.31816 10.35123 13662.06)
(101.3452 -4.584404 16810.28)
(56.11892 -20.23812 18999.39)
(29.80383 39.58092 1065.912)
(35.15531 38.749 3381.667)
(42.62304 36.18155 5994.249)
(53.17509 31.16282 8983.09)
(68.08777 22.42852 12479.64)
(88.73367 8.112536 15070.51)
(107.1597 -14.21022 16543.34)
(59.05503 -55.3839 18466.19)
(26.0345 33.78074 1007.933)
(30.2594 33.72028 3186.656)
(36.08886 32.60659 5624.633)
(44.15404 29.93299 8382.581)
(55.48759 24.99039 11558.17)
(71.50092 16.47086 13810.94)
(92.65167 3.806978 14926.12)
(111.2887 -17.615 16331.29)
(60.81092 -61.78382 18069.44)
(23.0388 21.89285 957.953)
(26.46635 22.06484 3020.195)
(31.13231 21.69286 5313.156)
(37.50095 20.55694 7886.246)
(46.2488 18.28994 10816.41)
(58.4818 14.35366 12838.49)
(74.8975 8.62422 13747.52)
(96.50839 -0.04450351 14840.59)
(115.103 -15.19483 16202.59)
(62.41336 -47.59955 17827.6)
(20.58002 7.44277 915.0661)
(23.41518 7.538455 2878.287)
(27.24797 7.480496 5050.085)
(32.4068 7.207758 7472.188)
(39.39014 6.632481 10208.75)
(48.93136 5.610188 12059.82)
(61.52549 4.176091 12837)
(78.41758 2.091771 13741.14)
(100.6304 -1.080385 14824.91)
(119.5113 -6.688897 16167.21)
(64.5186 -18.85573 15830.44)
(23.43158 -77.172 1971.975)
(57.60154 -7.303325 1679.184)
(22.61986 -27.13217 5966.653)
(68.8866 0.8905853 1506.485)
(59.49931 7.19465 5062.361)
(25.03005 26.42616 10015.3)
(60.3573 -1.871422 1385.357)
(70.85466 2.215925 4540.347)
(65.86032 18.76079 8488.154)
(30.54554 70.43549 14106.94)
(50.22767 -1.184886 1290.914)
(61.47697 -1.606952 4174.689)
(74.50051 2.593317 7612.686)
(75.93172 22.76037 11959.81)
(38.58068 90.25921 18226.71)
(41.59082 6.854186 1211.499)
(50.77896 4.289279 3885.93)
(63.35279 1.767391 6992.529)
(79.2739 2.39211 10719.78)
(88.17557 15.96459 15474.72)
(47.93861 71.01554 20088.9)
(34.88742 22.05126 1140.784)
(41.91765 19.4577 3637.634)
(51.86721 15.25867 6491.765)
(65.77093 9.283346 9821.163)
(84.47481 2.709098 13845.36)
(100.3195 -0.5511653 17122.05)
(55.62095 15.73109 19638.01)
(29.80946 35.71439 1075.303)
(35.22876 34.28925 3413.384)
(42.80175 31.01356 6055.137)
(53.51109 25.20737 9084.339)
(68.63959 15.78569 12640.54)
(89.62716 1.609766 15300.23)
(108.6325 -17.29439 16866.94)
(60.3844 -44.82078 19056.97)
(25.97054 39.22499 1015.817)
(30.22767 38.8563 3212.863)
(36.11643 37.12014 5673.87)
(44.28104 33.36535 8462.019)
(55.781 26.70927 11679.06)
(72.07634 15.57315 13971.97)
(93.76714 -0.4663483 15125.31)
(113.7272 -26.0854 16601.4)
(62.78575 -76.31717 18525.32)
(22.97011 33.08055 963.2836)
(26.41011 33.23159 3037.74)
(31.10155 32.50398 5345.691)
(37.51744 30.54383 7937.848)
(46.34663 26.75783 10893.09)
(58.72168 20.28755 12937.32)
(75.37366 10.93649 13863.35)
(97.47569 -3.006405 14982.21)
(117.3464 -26.77299 16390.53)
(64.17017 -76.94081 18129.75)
(20.53827 21.32882 917.6336)
(23.37662 21.56779 2886.678)
(27.21762 21.35163 5065.511)
(32.39233 20.49811 7496.374)
(39.40439 18.74709 10244.17)
(48.995 15.66852 12104.58)
(61.66841 11.35944 12888.07)
(78.69594 5.118153 13800.8)
(101.1986 -4.323286 14897.44)
(120.8453 -20.85332 16262.43)
(65.54532 -56.61942 15963.39)
(18.49979 7.232807 878.2195)
(20.88777 7.340071 2756.937)
(24.09561 7.314623 4826.556)
(28.37968 7.10871 7123.647)
(34.0979 6.65071 9703.29)
(41.79367 5.836948 11422.31)
(51.66788 4.717803 12106.2)
(64.69524 3.157899 12887.01)
(82.18619 0.9018989 13794.71)
(105.2618 -2.52714 14881.86)
(125.1084 -8.588584 14485.1)
(66.87691 -21.18473 12150.72)
(27.1462 -111.0511 1952.593)
(60.26151 -19.8388 1676.467)
(24.61361 -76.03866 5940.05)
(68.8866 -0.8905856 1506.485)
(59.49931 -7.194651 5062.361)
(25.03005 -26.42616 10015.3)
(60.17677 -0.7329213 1385.499)
(70.06134 0.8581564 4542.819)
(63.29688 6.978463 8501.738)
(28.6741 25.36566 14169.24)
(50.26526 -2.163278 1291.256)
(61.21497 -1.914969 4177.645)
(73.1966 1.955882 7625.006)
(71.51123 17.67224 12004.76)
(35.38355 65.88974 18404.19)
(41.7675 0.2103302 1213.029)
(50.9132 -1.284371 3892.539)
(63.1898 -1.956322 7009.726)
(77.98811 1.588086 10761.78)
(83.3201 19.76722 15586.74)
(44.51033 79.51207 20425.35)
(35.06992 8.792936 1144.935)
(42.16616 6.595662 3652.633)
(52.14864 3.613932 6523.364)
(65.90879 0.3482763 9880.678)
(83.86529 -0.5561332 13958.8)
(97.08518 9.118732 17337.73)
(53.43742 54.23552 20140.64)
(29.88475 23.31716 1082.784)
(35.38255 21.5466 3438.945)
(43.06397 18.26689 6105.016)
(53.9073 13.06235 9169.104)
(69.14351 5.485544 12779.3)
(90.09492 -3.991543 15506.8)
(108.4734 -11.08391 17177.92)
(60.54036 -7.041071 19693.69)
(25.93688 35.85873 1024.276)
(30.24163 35.03954 3241.109)
(36.21098 32.75846 5727.283)
(44.50205 28.33636 8548.919)
(56.19754 20.90865 11812.81)
(72.78738 9.028173 14152.74)
(94.94834 -7.100333 15354.04)
(115.9266 -29.96753 16923.93)
(64.65108 -69.33801 19114.65)
(22.89058 38.60474 970.4632)
(26.35234 38.57131 3061.418)
(31.08483 37.40279 5389.718)
(37.57343 34.64299 8007.92)
(46.52372 29.52805 10997.69)
(59.10292 20.97713 13072.85)
(76.07841 8.756537 14023.38)
(98.8135 -9.004324 15180.33)
(120.3031 -37.9156 16659.42)
(66.51861 -97.19231 18584.11)
(20.46591 32.29856 922.525)
(23.31174 32.58014 2902.679)
(27.1704 32.13181 5094.955)
(32.37811 30.65782 7542.611)
(39.44874 27.73965 10311.99)
(49.13874 22.68197 12190.45)
(61.96952 15.61613 12986.23)
(79.26046 5.436131 13915.91)
(102.3132 -9.782265 15038.25)
(123.4134 -35.88837 16449.44)
(67.53214 -92.04437 16231.64)
(18.45804 20.75175 880.5893)
(20.84772 21.03047 2764.643)
(24.06101 20.91714 4840.635)
(28.35644 20.27005 7145.553)
(34.09508 18.87595 9735.049)
(41.8264 16.42751 11461.97)
(51.75491 13.06458 12150.68)
(64.86915 8.384344 12937.77)
(82.50881 1.633235 13854.04)
(105.9026 -8.578184 14954)
(126.5973 -26.48404 14569.65)
(67.9883 -63.64736 12251.79)
(16.74788 7.025282 844.1981)
(18.78326 7.138014 2645.349)
(21.51177 7.134499 4622.106)
(25.1271 6.975318 6807.029)
(29.90861 6.604255 9248.34)
(36.24846 5.937431 10854.66)
(44.21076 5.046427 11465.26)
(54.4183 3.830886 12152.69)
(67.87927 2.145737 12936.98)
(85.9693 -0.2812324 13848.04)
(109.9071 -3.966175 13339.01)
(129.477 -10.07087 11126.78)
(68.61438 -22.89819 8602.383)
(31.82463 -120.5243 1919.992)
(65.08442 -27.12051 1670.183)
(28.27585 -108.9717 5882.37)
(69.69023 -2.343229 1505.674)
(62.12671 -19.47877 5054.239)
(26.97482 -73.80069 9971.136)
(60.17677 0.7329214 1385.499)
(70.06134 -0.8581568 4542.819)
(63.29688 -6.978464 8501.738)
(28.6741 -25.36566 14169.24)
(50.26635 -0.9147519 1291.134)
(61.03817 -0.7385966 4178.123)
(72.42355 0.7917203 7629.244)
(69.04353 6.651293 12024.06)
(33.61079 23.93429 18485.72)
(41.8699 -1.484613 1213.081)
(50.95437 -2.172092 3893.671)
(62.944 -2.008784 7014.944)
(76.7475 1.553571 10779.63)
(79.16957 16.19083 15646.05)
(41.57811 60.07544 20623.36)
(35.22041 1.605852 1146.091)
(42.34679 0.1470771 3657.37)
(52.29695 -1.494501 6534.845)
(65.78833 -2.503591 9905.759)
(82.7167 0.1992437 14014.91)
(92.77896 15.90714 17463.53)
(50.42796 68.88087 20473.71)
(30.00618 10.18409 1086.365)
(35.57045 8.580643 3451.566)
(43.32828 6.064726 6130.643)
(54.22651 2.566087 9214.809)
(69.37267 -1.616482 12858.79)
(89.73762 -4.389933 15634.95)
(105.9914 2.305569 17392.84)
(58.9298 37.58734 20193.15)
(25.96101 24.01843 1030.975)
(30.32398 22.87467 3263.69)
(36.3832 20.52399 5770.55)
(44.80251 16.43747 8620.5)
(56.66986 10.03987 11925.4)
(73.45074 0.5534157 14309.15)
(95.7264 -10.6797 15560.13)
(116.631 -21.58709 17234.27)
(65.45862 -29.71626 19749.81)
(22.83034 35.61908 978.1485)
(26.32549 35.25242 3086.86)
(31.11556 33.68129 5437.274)
(37.70021 30.42205 8084.124)
(46.80261 24.67431 11112.43)
(59.62355 15.35379 13223.05)
(76.94831 2.298233 14203.27)
(100.2818 -15.78309 15408.16)
(123.2277 -42.60933 16981.01)
(68.91895 -93.80046 19172.18)
(20.37785 37.82734 929.1062)
(23.23742 38.01014 2924.244)
(27.12502 37.26022 5134.728)
(32.38423 35.19297 7605.247)
(39.54351 31.2691 10404.21)
(49.38045 24.59179 12307.67)
(62.43818 15.28011 13120.88)
(80.09406 1.976038 14075.01)
(103.8727 -17.5045 15235.34)
(126.8871 -49.70459 16717.19)
(70.25344 -118.0146 16635.11)
(18.38465 31.47631 885.1011)
(20.77864 31.83966 2779.327)
(24.00376 31.57793 4867.486)
(28.32293 30.46287 7187.386)
(34.1034 28.14906 9795.793)
(41.90662 24.14203 11537.9)
(51.94429 18.63421 12235.97)
(65.23118 10.9748 13035.3)
(83.16129 -0.03174609 13968.45)
(107.164 -16.52235 15094.03)
(129.4893 -44.96312 14735.69)
(70.15395 -103.8098 12455.68)
(16.70688 20.17748 846.395)
(18.74299 20.47649 2652.463)
(21.47513 20.43319 4635.035)
(25.09852 19.93061 6827.017)
(29.89505 18.80206 9277.092)
(36.26063 16.79802 10890.22)
(44.26184 14.12355 11504.67)
(54.52858 10.47753 12196.91)
(68.08401 5.427706 12987.44)
(86.33596 -1.8313 13907.04)
(110.6201 -12.81007 13403.09)
(131.0864 -30.87696 11191.11)
(69.78801 -68.81773 8673.406)
(15.25777 6.822768 812.6599)
(17.01012 6.937403 2542.262)
(19.35848 6.948242 4434.044)
(22.45782 6.822923 6517.453)
(26.52038 6.51508 8835.188)
(31.85209 5.958634 10343.7)
(38.41238 5.228641 10894.25)
(46.64145 4.260763 11508.33)
(57.18259 2.949257 12199.16)
(71.07744 1.139404 12986.74)
(89.76666 -1.457854 12416.37)
(113.5367 -5.090485 10253.7)
(132.6965 -11.16183 7881.479)
(69.76053 -24.02569 5141.912)
(36.30219 -105.7411 1871.545)
(71.01001 -28.96445 1658.431)
(32.87088 -117.2823 5785.131)
(71.05762 -3.56606 1503.302)
(66.88159 -26.39909 5035.41)
(30.53404 -104.8543 9875.22)
(60.3573 1.871422 1385.357)
(70.85466 -2.215926 4540.347)
(65.86032 -18.76079 8488.154)
(30.54554 -70.43549 14106.94)
(50.26635 0.914752 1291.134)
(61.03817 0.7385967 4178.123)
(72.42355 -0.7917207 7629.244)
(69.04353 -6.651294 12024.06)
(33.61079 -23.93429 18485.72)
(41.91403 -0.721984 1212.847)
(50.95696 -0.9098906 3893.356)
(62.77462 -0.7520539 7015.866)
(76.00483 0.6886295 10785.8)
(76.83065 6.206694 15671.46)
(39.93114 22.1047 20714.22)
(35.31764 -0.6979021 1145.991)
(42.45095 -1.4773 3657.615)
(52.34538 -2.195948 6536.987)
(65.56705 -2.160539 9913.56)
(81.56141 0.9952548 14038.86)
(88.97256 14.28349 17529.96)
(47.75714 54.33479 20669.27)
(30.11618 2.68756 1087.272)
(35.72344 1.563595 3455.158)
(43.51702 0.01104709 6138.934)
(54.39637 -1.829301 9231.713)
(69.31008 -3.271582 12892.64)
(88.76449 -1.614207 15698.4)
(102.2279 12.07805 17517.74)
(56.3342 58.36673 20522.84)
(26.03355 11.10728 1034.121)
(30.44944 10.00453 3274.576)
(36.58215 8.144413 5792.119)
(45.09114 5.238964 8657.611)
(57.04091 1.109573 11986.58)
(73.79767 -4.185655 14399.16)
(95.61961 -8.220083 15688.18)
(114.895 -4.474217 17448.43)
(64.41631 21.0695 20246.21)
(22.81787 24.28388 984.2079)
(26.35531 23.62462 3107.075)
(31.21223 21.97851 5475.482)
(37.90069 18.95316 8146.197)
(47.1556 13.9192 11207.5)
(60.1945 6.111377 13349.94)
(77.77095 -4.371256 14359.27)
(101.3695 -17.35724 15613.88)
(124.7927 -32.0639 17290.87)
(70.37611 -52.30343 19806.14)
(20.30114 35.13156 936.1381)
(23.18289 35.06929 2947.357)
(27.11188 34.03247 5177.551)
(32.44056 31.60897 7673.07)
(39.71438 27.22738 10504.78)
(49.73416 19.94398 12436.46)
(63.06264 9.82501 13270.26)
(81.12249 -4.407406 14254.1)
(105.6277 -24.4426 15462.39)
(130.5356 -55.22542 17037.96)
(73.18797 -118.2192 17157.56)
(18.29256 36.95709 891.1664)
(20.69503 37.28281 2799.095)
(23.93987 36.81762 4903.704)
(28.29639 35.26747 7243.954)
(34.14069 32.18441 9878.19)
(42.05142 26.93134 11641.21)
(52.25027 19.68767 12352.39)
(65.78688 9.615901 13169.12)
(84.12325 -4.771017 14126.66)
(108.9445 -25.97004 15290.16)
(133.4789 -61.45626 14973.47)
(73.16515 -134.2294 12762.32)
(16.63414 30.64381 850.5751)
(18.67245 31.05323 2666.009)
(21.41259 30.92047 4659.675)
(25.05287 30.05736 6865.156)
(29.88022 28.19576 9332.028)
(36.29796 24.93216 10958.21)
(44.37771 20.56977 11580.09)
(54.76333 14.61336 12281.64)
(68.50662 6.362202 13084.36)
(87.07601 -5.468696 14020.78)
(112.0279 -23.22846 13527.45)
(134.2302 -52.04128 11317.43)
(72.08516 -112.4656 8816.704)
(15.21792 19.61437 814.7045)
(16.97042 19.9224 2548.858)
(19.32118 19.92535 4445.978)
(22.42635 19.52771 6535.805)
(26.5 18.59206 8861.413)
(31.85098 16.92253 10375.88)
(38.43944 14.73412 10929.58)
(46.71079 11.83468 11547.5)
(57.316 7.906778 12243.12)
(71.31284 2.488838 13036.92)
(90.17714 -5.276241 12468.79)
(114.306 -16.11598 10302.51)
(134.3944 -34.10995 7926.691)
(70.97516 -72.2202 5184.049)
(13.97718 6.626811 783.325)
(15.50126 6.740986 2446.648)
(17.54268 6.761442 4260.248)
(20.23069 6.66065 6251.098)
(23.73549 6.400421 8457.426)
(28.29076 5.926317 9879.612)
(33.80882 5.317056 10379.95)
(40.58973 4.524199 10933.95)
(49.08574 3.479796 11551.39)
(59.96066 2.072734 12245.47)
(74.28955 0.1386891 11647.12)
(92.73686 -2.378204 9550.242)
(116.2132 -5.918545 7266.506)
(134.8205 -11.87938 4712.536)
(70.33188 -24.58368 1714.2)
(39.39298 -76.53886 1810.802)
(76.47517 -30.05765 1638.449)
(37.23457 -101.3735 5640.29)
(72.54612 -6.61679 1497.661)
(72.69934 -27.69508 5000.106)
(34.96473 -110.8411 9713.122)
(60.62742 1.438448 1384.411)
(72.20071 -3.245535 4533.135)
(70.48136 -24.9552 8456.575)
(33.95043 -98.65119 13971.47)
(50.26526 2.163278 1291.256)
(61.21497 1.914969 4177.645)
(73.1966 -1.955882 7625.006)
(71.51123 -17.67224 12004.76)
(35.38355 -65.88974 18404.19)
(41.91403 0.7219841 1212.847)
(50.95696 0.9098906 3893.356)
(62.77462 0.752054 7015.866)
(76.00483 -0.6886299 10785.8)
(76.83065 -6.206695 15671.46)
(39.93114 -22.1047 20714.22)
(35.36347 -0.4733982 1145.709)
(42.49573 -0.7126229 3656.956)
(52.35102 -0.9021531 6536.572)
(65.40886 -0.7754407 9915.046)
(80.85959 0.5450394 14047.18)
(86.79767 5.634923 17558.37)
(46.23419 20.29996 20758.88)
(30.19143 -0.05400257 1087.089)
(35.82161 -0.6826112 3454.935)
(43.62484 -1.468027 6139.558)
(54.45591 -2.241177 9235.121)
(69.12204 -2.380256 12903.44)
(87.71795 0.2625216 15725.54)
(98.76087 12.39715 17583.49)
(53.92125 48.66881 20715.91)
(26.10771 3.458306 1034.853)
(30.56113 2.658615 3277.401)
(36.74029 1.471102 5798.44)
(45.29241 -0.2095584 8669.914)
(57.24033 -2.306993 12009.62)
(73.80949 -4.289582 14437.72)
(94.81992 -3.424375 15751.53)
(111.6677 8.281258 17572.41)
(62.22967 47.97065 20572.48)
(22.85356 11.65108 987.009)
(26.43097 10.95213 3116.633)
(31.34591 9.635649 5494.083)
(38.11669 7.465028 8177.448)
(47.47773 4.088176 11257.23)
(60.63273 -0.8024099 13419.3)
(78.23525 -6.75927 14449.35)
(101.5116 -12.04568 15741.83)
(123.7967 -11.21999 17504.28)
(69.89753 4.680322 20299.57)
(20.26409 24.25057 941.6628)
(23.17511 23.92946 2965.637)
(27.15322 22.82748 5211.743)
(32.55921 20.60234 7727.864)
(39.95375 16.79103 10587.19)
(50.15535 10.64531 12543.56)
(63.73223 2.189797 13396.74)
(82.10432 -9.289839 14409.77)
(107.0244 -24.02613 15667.84)
(132.9589 -42.51763 17347.49)
(75.2932 -74.81186 17720.8)
(18.20612 34.48152 897.6376)
(20.62319 34.6293 2820.243)
(23.89681 33.96334 4942.601)
(28.30419 32.17184 7305.005)
(34.23204 28.77663 9967.656)
(42.27929 23.10279 11754.05)
(52.6786 15.23872 12480.42)
(66.51494 4.319541 13317.75)
(85.30996 -11.09205 14305.03)
(110.9857 -33.083 15516.52)
(137.8504 -67.82156 15258.55)
(76.515 -137.2282 13159.31)
(16.54096 36.04199 856.1906)
(18.58423 36.45563 2684.229)
(21.3379 36.19071 4692.874)
(25.00484 35.00552 6916.654)
(29.87939 32.55548 9406.41)
(36.37544 28.31843 11050.49)
(44.57225 22.62324 11682.68)
(55.13328 14.81366 12397.31)
(69.149 3.982175 13217.38)
(88.16589 -11.48733 14178.15)
(114.0288 -34.40415 13701.68)
(138.6208 -70.61884 11498.29)
(75.30956 -146.1599 9032.245)
(15.14675 29.81713 818.5921)
(16.90018 30.25199 2561.41)
(19.25632 30.20568 4468.708)
(22.37375 29.5261 6570.795)
(26.47013 27.99247 8911.478)
(31.86019 25.29015 10437.35)
(38.50559 21.73826 10997.11)
(46.86208 17.02179 11622.41)
(57.59586 10.61819 12327.31)
(71.79575 1.776957 13133.26)
(91.00437 -10.87631 12569.85)
(115.8274 -28.46594 10397.21)
(137.7232 -57.25012 8015.463)
(73.35891 -118.1633 5269.075)
(13.9386 19.06731 785.2341)
(15.46256 19.37708 2452.787)
(17.50558 19.41156 4271.313)
(20.19788 19.08993 6268.035)
(23.71106 18.2995 8481.495)
(28.28091 16.87903 9908.958)
(33.82008 15.05568 10411.93)
(40.63159 12.68379 10969.06)
(49.17321 9.560352 11590.32)
(60.11705 5.35171 12289.18)
(74.55545 -0.4329649 11691.73)
(93.18142 -7.970501 9590.209)
(117.0238 -18.55059 7300.824)
(136.5768 -36.23633 4739.34)
(71.56685 -73.90427 1728.15)
(12.86679 6.436983 755.9605)
(14.20398 6.550446 2357.665)
(15.99615 6.577203 4098.994)
(18.35032 6.49481 6004.953)
(21.40848 6.270778 8110.041)
(25.35841 5.860162 9455.216)
(30.0743 5.341213 9912.557)
(35.77886 4.679396 10416.3)
(42.78049 3.823962 10973.64)
(51.54354 2.703362 11594.31)
(62.75231 1.201132 10984.63)
(76.80438 -0.6448703 8963.251)
(94.92845 -3.056534 6770.767)
(117.9796 -6.46322 4346.07)
(135.8798 -12.234 1571.361)
(40.71537 -48.23058 1754.821)
(80.05152 -32.40707 1609.579)
(40.19787 -71.8699 5458.334)
(73.64052 -15.32603 1486.102)
(78.01694 -28.10356 4939.979)
(39.10343 -92.6692 9471.01)
(60.83239 -3.135466 1381.145)
(73.65527 -5.928807 4516.029)
(76.08642 -25.14718 8397.186)
(38.13462 -101.114 13742.07)
(50.22767 1.184886 1290.914)
(61.47697 1.606952 4174.689)
(74.50051 -2.593317 7612.686)
(75.93172 -22.76037 11959.81)
(38.58068 -90.25921 18226.71)
(41.8699 1.484613 1213.081)
(50.95437 2.172092 3893.671)
(62.94401 2.008784 7014.944)
(76.7475 -1.553571 10779.63)
(79.16957 -16.19083 15646.05)
(41.57811 -60.07543 20623.36)
(35.36347 0.4733983 1145.709)
(42.49573 0.712623 3656.956)
(52.35102 0.9021532 6536.572)
(65.40886 0.7754408 9915.046)
(80.85959 -0.5450398 14047.18)
(86.79767 -5.634924 17558.37)
(46.23419 -20.29996 20758.88)
(30.22817 -0.2636372 1086.786)
(35.86771 -0.4620958 3454.123)
(43.67096 -0.6956137 6138.554)
(54.46621 -0.8933146 9234.706)
(68.97898 -0.8115179 12905.64)
(87.06808 0.3557848 15734.98)
(96.74762 5.070523 17611.52)
(52.52058 18.52043 20804.25)
(26.16112 0.4219519 1034.622)
(30.6369 -0.03456277 3276.913)
(36.84045 -0.6565071 5798.252)
(45.40589 -1.462115 8671.133)
(57.31508 -2.315683 12014.61)
(73.66405 -2.68056 14450.18)
(93.88054 -0.4678268 15778.58)
(108.5353 10.5326 17637.43)
(60.07105 43.0784 20763.04)
(22.89941 3.963274 987.6127)
(26.50635 3.43827 3118.917)
(31.46115 2.594068 5499.077)
(38.28287 1.31827 8186.89)
(47.69631 -0.5298507 11274.13)
(60.87042 -2.950449 13445.69)
(78.32091 -5.312628 14488.04)
(100.8833 -5.230063 15805.03)
(121.0991 4.518047 17627.29)
(68.11496 37.69346 20622.43)
(20.27364 11.92276 944.183)
(23.21331 11.51489 2974.143)
(27.23528 10.63358 5228.071)
(32.70563 9.060724 7754.817)
(40.19332 6.51668 10629.1)
(50.52107 2.573568 12599.97)
(64.23764 -2.720394 13466.2)
(82.68562 -9.336435 14499.91)
(107.4137 -15.86583 15795.67)
(132.6972 -17.93118 17560.15)
(75.37399 -11.58206 18158.21)
(18.15284 24.00882 902.7075)
(20.59009 23.92877 2836.906)
(23.89854 23.21247 4973.507)
(28.36321 21.60383 7354.017)
(34.38095 18.70863 10040.37)
(42.56919 13.98043 11846.84)
(53.16801 7.378815 12587.09)
(67.28323 -1.725949 13443.88)
(86.45097 -14.20373 14460.45)
(112.6912 -30.68837 15721.8)
(141.13 -52.95169 15533.8)
(79.12414 -92.32924 13587.29)
(16.44929 33.73431 862.1749)
(18.50197 34.01987 2703.691)
(21.27581 33.61914 4728.456)
(24.97927 32.27716 6972.089)
(29.91581 29.62994 9486.905)
(36.51207 25.12175 11150.82)
(44.85694 19.00237 11794.79)
(55.63604 10.55612 12524.63)
(69.9805 -1.165405 13365.35)
(89.51067 -17.75903 14355.89)
(116.3559 -41.70851 13902.91)
(143.5543 -77.63825 11715.05)
(78.96504 -151.2179 9311.403)
(15.05406 35.10852 823.8119)
(16.81038 35.578 2578.281)
(19.17582 35.44983 4499.305)
(22.31263 34.53155 6617.988)
(26.44374 32.5403 8979.165)
(31.89249 29.0724 10520.63)
(38.62302 24.47989 11088.73)
(47.10609 18.343 11724.31)
(58.02948 9.967722 12442.26)
(72.52446 -1.623413 13265.53)
(92.22175 -18.17562 12709.69)
(117.9997 -40.98851 10529.86)
(142.4087 -77.36101 8142.57)
(76.72385 -154.0173 5397.032)
(13.86945 29.00525 788.8622)
(15.3936 29.45283 2464.463)
(17.44033 29.46692 4292.375)
(20.14165 28.92014 6300.306)
(23.67199 27.63316 8527.41)
(28.27134 25.34727 9964.976)
(33.85316 22.40549 10472.98)
(40.72637 18.56641 11036.14)
(49.35972 13.49702 11664.75)
(60.44177 6.647491 12372.85)
(75.09834 -2.782342 11777.35)
(94.07641 -15.10454 9667.238)
(118.6286 -32.32264 7367.405)
(140.0274 -60.67643 4791.968)
(73.99358 -120.9849 1756.302)
(12.82991 18.53701 757.7488)
(14.16643 18.84582 2363.399)
(15.95976 18.90177 4109.293)
(18.31716 18.63733 6020.653)
(21.38179 17.95705 8132.246)
(25.34302 16.72836 9482.146)
(30.07492 15.17749 9941.723)
(35.80241 13.20107 10448.09)
(42.83706 10.64654 11008.55)
(51.64904 7.300027 11633.02)
(62.93157 2.811692 11023.5)
(77.09401 -2.720435 8997.288)
(95.39803 -9.956083 6798.884)
(118.8172 -20.15195 4366.413)
(137.665 -37.28723 1580.227)
(11.89909 6.257986 730.37)
(13.07861 6.365452 2274.613)
(14.66532 6.397478 3948.87)
(16.74677 6.329049 5776.572)
(19.44079 6.133445 7789.081)
(22.90407 5.772443 9064.876)
(26.99443 5.323228 9484.869)
(31.87107 4.759654 9945.595)
(37.76222 4.045524 10452.67)
(44.98459 3.127782 11013.24)
(54.01468 1.931292 10402.31)
(64.9399 0.5180341 8457.334)
(78.66118 -1.222779 6356.886)
(96.37533 -3.502856 4050.536)
(118.8612 -6.732269 1449.371)
(40.96358 -28.83851 1711.461)
(81.43723 -32.52459 1579.274)
(41.41756 -44.25693 5290.399)
(74.07839 -26.91824 1467.194)
(81.42595 -30.04006 4853.1)
(41.81391 -62.54325 9166.146)
(60.82722 -14.735 1373.166)
(74.70165 -14.10736 4481.069)
(81.11205 -24.1774 8295.849)
(41.93521 -79.49447 13398.66)
(50.10038 -4.618751 1288.768)
(61.66796 -2.685673 4164.698)
(75.88776 -4.534138 7583.57)
(81.21754 -21.26607 11875.06)
(42.43275 -87.92874 17925.71)
(41.7675 -0.21033 1213.029)
(50.9132 1.284371 3892.539)
(63.1898 1.956322 7009.726)
(77.98811 -1.588086 10761.78)
(83.3201 -19.76722 15586.74)
(44.51033 -79.51207 20425.35)
(35.31764 0.6979022 1145.991)
(42.45095 1.4773 3657.615)
(52.34538 2.195949 6536.987)
(65.56705 2.160539 9913.56)
(81.56141 -0.995255 14038.86)
(88.97256 -14.28349 17529.96)
(47.75714 -54.33479 20669.27)
(30.22817 0.2636374 1086.786)
(35.86771 0.4620959 3454.123)
(43.67096 0.6956138 6138.554)
(54.46621 0.8933146 9234.706)
(68.97898 0.8115181 12905.64)
(87.06808 -0.3557851 15734.98)
(96.74762 -5.070524 17611.52)