/*--------------------------------*- C++ -*----------------------------------*\
| =========                 |                                                 |
| \\      /  F ield         | OpenFOAM: The Open Source CFD Toolbox           |
|  \\    /   O peration     | Version:  2306                                  |
|   \\  /    A nd           | Website:  www.openfoam.com                      |
|    \\/     M anipulation  |                                                 |
\*---------------------------------------------------------------------------*/
FoamFile
{
    version     2.0;
    format      ascii;
    arch        "LSB;label=32;scalar=64";
    class       volScalarField;
    location    "1.2/phiI";
    object      phi;
}
// * * * * * * * * * * * * * * * * * * * * * * * * * * * * * * * * * * * * * //

dimensions      [1 2 -3 0 0 -1 0];

internalField   nonuniform List<scalar> 
12000
(
1.639193
1.639125
1.633773
1.640082
1.638984
1.633683
1.640022
1.628393
1.634587
1.641876
1.63874
1.633522
1.639897
1.628292
1.634502
1.641831
1.623985
1.629143
1.636228
1.644588
1.638341
1.633311
1.639676
1.62811
1.634351
1.641736
1.623878
1.629046
1.636153
1.644566
1.620395
1.624684
1.630656
1.638709
1.648245
1.63772
1.633088
1.639307
1.627882
1.634154
1.641562
1.623685
1.628871
1.636021
1.644518
1.620285
1.62458
1.630565
1.63865
1.648255
1.617432
1.621051
1.626092
1.632941
1.642054
1.652884
1.636931
1.632879
1.638718
1.627667
1.633947
1.641252
1.623442
1.628653
1.635851
1.644414
1.620086
1.624392
1.630405
1.638546
1.648271
1.617323
1.620944
1.625994
1.632862
1.642014
1.652935
1.614937
1.618052
1.622373
1.628221
1.636021
1.646292
1.65754
1.636113
1.632688
1.637955
1.627523
1.633753
1.640728
1.623211
1.62845
1.635677
1.644195
1.619832
1.624157
1.630207
1.638418
1.648263
1.617121
1.620749
1.625819
1.632724
1.64195
1.653033
1.614829
1.617944
1.622271
1.628132
1.635957
1.646279
1.657631
1.612802
1.615525
1.6193
1.624371
1.631087
1.63992
1.650547
1.662212
1.63545
1.632493
1.637154
1.627463
1.633572
1.640016
1.623061
1.628316
1.635514
1.643769
1.619584
1.623936
1.630027
1.638293
1.648167
1.616862
1.620502
1.6256
1.632557
1.641879
1.653148
1.614628
1.617747
1.622087
1.627975
1.635848
1.646266
1.657811
1.612695
1.615418
1.619197
1.624277
1.631011
1.639876
1.650559
1.662344
1.610948
1.613361
1.616708
1.621186
1.627061
1.634716
1.643835
1.654818
1.666901
1.635084
1.632326
1.636502
1.627435
1.633384
1.63925
1.623015
1.628262
1.635354
1.643135
1.619413
1.623793
1.629913
1.638178
1.647874
1.616602
1.620262
1.625397
1.632411
1.641821
1.65321
1.614367
1.617494
1.621853
1.627781
1.635723
1.646267
1.658048
1.612497
1.615221
1.619009
1.624108
1.630878
1.639806
1.650597
1.662605
1.610843
1.613256
1.616605
1.62109
1.626977
1.634656
1.643811
1.654856
1.667073
1.609318
1.611481
1.614486
1.618495
1.623723
1.630464
1.638359
1.647766
1.659105
1.671607
1.635084
1.632229
1.63614
1.627415
1.63322
1.638618
1.623019
1.628237
1.635179
1.642421
1.619352
1.623751
1.629871
1.638051
1.647345
1.616413
1.620097
1.625269
1.632328
1.64177
1.653089
1.614101
1.61724
1.621628
1.627605
1.635625
1.646296
1.658269
1.612238
1.614965
1.618767
1.623895
1.630717
1.639734
1.650671
1.662965
1.610649
1.613061
1.616416
1.620915
1.626829
1.634554
1.643779
1.654944
1.667415
1.609216
1.611378
1.614385
1.618398
1.623637
1.630394
1.638315
1.647761
1.659168
1.671819
1.607871
1.609827
1.612554
1.616186
1.620899
1.626933
1.63388
1.642016
1.651712
1.663408
1.67633
1.63545
1.632229
1.63614
1.627404
1.633124
1.638266
1.623034
1.628218
1.635022
1.64182
1.619351
1.623757
1.629852
1.637894
1.646701
1.616335
1.620039
1.625236
1.632306
1.641688
1.652696
1.613899
1.617057
1.621475
1.6275
1.635585
1.646329
1.658318
1.61197
1.614704
1.618526
1.623693
1.630579
1.639698
1.650787
1.663343
1.610393
1.612806
1.61617
1.620691
1.626644
1.634436
1.64376
1.655091
1.667897
1.609026
1.611186
1.614197
1.618221
1.62348
1.630272
1.638244
1.647766
1.659307
1.672242
1.607771
1.609727
1.612454
1.616089
1.620811
1.626858
1.633825
1.641988
1.651726
1.663497
1.676581
1.606574
1.608359
1.610853
1.614174
1.618471
1.62394
1.630155
1.63731
1.645687
1.655673
1.667727
1.68005
1.636113
1.632326
1.636502
1.627404
1.633124
1.638266
1.623044
1.628207
1.634929
1.641482
1.619368
1.623773
1.629837
1.637747
1.646142
1.616322
1.62004
1.625245
1.632297
1.641557
1.652142
1.613806
1.616981
1.621424
1.627481
1.635589
1.646304
1.65806
1.611762
1.614508
1.618353
1.623559
1.630507
1.639713
1.650902
1.663562
1.610126
1.612543
1.615921
1.62047
1.626473
1.634346
1.643785
1.655292
1.668433
1.608775
1.610935
1.613951
1.617991
1.62328
1.630124
1.638169
1.647801
1.659525
1.672845
1.607586
1.60954
1.612269
1.615912
1.620649
1.626724
1.633729
1.641948
1.651769
1.663686
1.677085
1.606478
1.608261
1.610756
1.614079
1.618383
1.623862
1.630092
1.637268
1.645675
1.655706
1.667842
1.680333
1.605404
1.607042
1.609341
1.612402
1.616353
1.621361
1.626991
1.63339
1.640753
1.649373
1.659649
1.671133
1.68281
1.636931
1.632493
1.637154
1.627415
1.63322
1.638618
1.623044
1.628207
1.634929
1.641482
1.61938
1.623783
1.629826
1.637658
1.645823
1.616332
1.620056
1.625262
1.632285
1.641424
1.651635
1.613782
1.616969
1.621427
1.627496
1.635592
1.646207
1.657595
1.611659
1.614417
1.618283
1.623518
1.630506
1.639751
1.650935
1.663437
1.609915
1.612339
1.615733
1.620313
1.626365
1.634316
1.643855
1.65549
1.668821
1.608511
1.610672
1.613698
1.617759
1.623086
1.629993
1.638127
1.647887
1.659813
1.673538
1.607341
1.609293
1.612026
1.615681
1.620441
1.626556
1.633616
1.641915
1.651856
1.663976
1.677808
1.606297
1.608078
1.610574
1.613904
1.61822
1.623721
1.629981
1.637198
1.645666
1.655787
1.66808
1.680899
1.60531
1.606947
1.609246
1.612309
1.616265
1.621282
1.626924
1.633339
1.640725
1.649377
1.659701
1.671268
1.683115
1.604341
1.605854
1.607985
1.610824
1.614484
1.619107
1.624261
1.630054
1.636637
1.64421
1.653073
1.662787
1.673661
1.684638
1.63772
1.632688
1.637955
1.627435
1.633384
1.63925
1.623034
1.628218
1.635022
1.64182
1.61938
1.623783
1.629826
1.637658
1.645823
1.616342
1.620069
1.625272
1.632276
1.641341
1.651341
1.613785
1.616979
1.621444
1.627514
1.635586
1.646092
1.657141
1.611626
1.614393
1.618272
1.623525
1.630528
1.639771
1.650871
1.663061
1.609806
1.612238
1.615647
1.620251
1.626339
1.634339
1.643927
1.65558
1.668829
1.6083
1.610465
1.613502
1.617585
1.622951
1.629919
1.638138
1.648011
1.660094
1.674095
1.607082
1.609033
1.611772
1.615443
1.620233
1.626396
1.633525
1.641921
1.652003
1.664349
1.678658
1.606058
1.607836
1.610335
1.613673
1.618007
1.62354
1.629844
1.637122
1.645676
1.655927
1.668441
1.681717
1.605135
1.606769
1.609069
1.612136
1.616102
1.621137
1.626803
1.63325
1.640681
1.649397
1.659819
1.671545
1.683728
1.60425
1.605762
1.607892
1.610733
1.614397
1.619027
1.624191
1.629998
1.636597
1.644195
1.653092
1.662855
1.67381
1.684959
1.60337
1.604774
1.60676
1.609407
1.612817
1.617114
1.62187
1.627171
1.633129
1.639896
1.64768
1.655995
1.665117
1.675337
1.685552
1.638341
1.632879
1.638718
1.627463
1.633572
1.640016
1.623019
1.628237
1.635179
1.642421
1.619368
1.623773
1.629837
1.637747
1.646142
1.616342
1.620069
1.625272
1.632276
1.641341
1.651341
1.613791
1.616988
1.621456
1.627525
1.635579
1.646017
1.65687
1.611623
1.614396
1.618283
1.623543
1.630549
1.639772
1.650773
1.662659
1.609767
1.612206
1.615625
1.620243
1.626351
1.634372
1.643965
1.65555
1.66854
1.608188
1.610357
1.613405
1.617506
1.6229
1.629911
1.638185
1.648118
1.66024
1.674235
1.606872
1.608825
1.611572
1.615259
1.620078
1.62629
1.633485
1.641974
1.652182
1.664712
1.679385
1.605805
1.607581
1.610083
1.613434
1.617791
1.623362
1.629719
1.63707
1.645729
1.656133
1.6689
1.682689
1.604902
1.606533
1.608834
1.611908
1.615889
1.620949
1.62665
1.633144
1.64064
1.64945
1.660011
1.671961
1.684615
1.604079
1.605589
1.607719
1.610563
1.614236
1.618881
1.624064
1.629897
1.636531
1.644177
1.653143
1.663002
1.674116
1.685601
1.603281
1.604685
1.60667
1.609318
1.612732
1.617035
1.621799
1.627111
1.633083
1.639868
1.647678
1.656027
1.665196
1.675495
1.68588
1.602477
1.603787
1.605646
1.608126
1.611319
1.615334
1.619753
1.624642
1.630092
1.636215
1.643168
1.650422
1.658166
1.666662
1.676175
1.63874
1.633088
1.639307
1.627523
1.633753
1.640728
1.623015
1.628262
1.635354
1.643135
1.619351
1.623757
1.629852
1.637894
1.646701
1.616332
1.620056
1.625262
1.632285
1.641424
1.651635
1.613791
1.616988
1.621456
1.627525
1.635579
1.646017
1.65687
1.611626
1.614402
1.618292
1.623555
1.63056
1.639768
1.650706
1.662412
1.60976
1.612203
1.615628
1.620253
1.62637
1.634396
1.643973
1.65547
1.66819
1.608145
1.610319
1.613374
1.617486
1.622896
1.62993
1.638229
1.648172
1.660243
1.674033
1.606759
1.608714
1.611468
1.615168
1.620009
1.626254
1.633496
1.642045
1.652323
1.664916
1.679656
1.605598
1.607375
1.609882
1.613244
1.617624
1.623232
1.629641
1.637064
1.645824
1.656368
1.669346
1.683547
1.604654
1.606283
1.608586
1.611669
1.615668
1.620759
1.626501
1.633053
1.640628
1.649551
1.660278
1.672487
1.685676
1.603852
1.605358
1.60749
1.610339
1.614023
1.61869
1.623901
1.629771
1.636456
1.644171
1.653237
1.663234
1.674574
1.686534
1.603115
1.604516
1.606501
1.609153
1.612573
1.616889
1.621669
1.627002
1.633002
1.639825
1.647685
1.656101
1.665365
1.67582
1.686538
1.602392
1.6037
1.605558
1.60804
1.611235
1.615256
1.619681
1.62458
1.630041
1.636179
1.643152
1.65043
1.658207
1.666748
1.676338
1.601654
1.602881
1.604627
1.606961
1.609962
1.613733
1.61786
1.6224
1.627425
1.633024
1.639313
1.645755
1.65246
1.659606
1.667435
1.638984
1.633311
1.639676
1.627667
1.633947
1.641252
1.623061
1.628316
1.635514
1.643769
1.619352
1.623751
1.629871
1.638051
1.647345
1.616322
1.62004
1.625245
1.632297
1.641557
1.652142
1.613785
1.616979
1.621444
1.627514
1.635586
1.646092
1.657141
1.611626
1.614402
1.618292
1.623555
1.63056
1.639768
1.650706
1.662412
1.609761
1.612206
1.615634
1.620262
1.626382
1.634408
1.643971
1.655409
1.667966
1.608135
1.610311
1.613371
1.617489
1.622907
1.629951
1.638256
1.648188
1.66018
1.673733
1.606713
1.608671
1.61143
1.615138
1.619991
1.626256
1.633522
1.642099
1.652394
1.664951
1.679539
1.605484
1.607262
1.609774
1.613146
1.617541
1.623175
1.62962
1.637093
1.645919
1.656542
1.669606
1.68392
1.604452
1.60608
1.608385
1.611478
1.615494
1.620614
1.626396
1.633003
1.640656
1.649686
1.660567
1.672997
1.686631
1.603611
1.605114
1.607247
1.610103
1.613802
1.618493
1.623738
1.629652
1.636398
1.644198
1.653386
1.663548
1.675148
1.687655
1.602895
1.604292
1.606277
1.608933
1.612363
1.616697
1.6215
1.626863
1.632903
1.63978
1.647715
1.656228
1.665627
1.676304
1.687493
1.60223
1.603536
1.605394
1.607878
1.611079
1.615111
1.61955
1.624466
1.62995
1.636118
1.64313
1.650458
1.658299
1.666931
1.676672
1.601571
1.602796
1.604542
1.606876
1.609881
1.613656
1.617789
1.622337
1.627371
1.632982
1.639287
1.645748
1.652476
1.659653
1.667525
1.600891
1.602044
1.603691
1.605893
1.608727
1.612281
1.616153
1.620393
1.625057
1.630217
1.635966
1.641763
1.647678
1.653812
1.660327
1.639125
1.633522
1.639897
1.627882
1.634154
1.641562
1.623211
1.62845
1.635677
1.644195
1.619413
1.623793
1.629913
1.638178
1.647874
1.616335
1.620039
1.625236
1.632306
1.641688
1.652696
1.613782
1.616969
1.621427
1.627496
1.635592
1.646207
1.657595
1.611623
1.614396
1.618283
1.623543
1.630549
1.639772
1.650773
1.662659
1.609761
1.612206
1.615634
1.620262
1.626382
1.634408
1.643971
1.655409
1.667966
1.608135
1.610313
1.613374
1.617494
1.622916
1.629962
1.638268
1.648188
1.660127
1.673532
1.606702
1.608661
1.611423
1.615135
1.619994
1.626267
1.633544
1.64213
1.652417
1.664905
1.679288
1.605438
1.607217
1.609732
1.613109
1.617514
1.623162
1.629627
1.637126
1.645982
1.65663
1.669674
1.68387
1.604339
1.605967
1.608276
1.611374
1.615403
1.620543
1.626352
1.632998
1.640703
1.649805
1.660776
1.673301
1.687079
1.603413
1.604914
1.607048
1.609911
1.613624
1.618338
1.623614
1.629572
1.636377
1.644259
1.653563
1.66388
1.675705
1.688673
1.60266
1.604054
1.606039
1.6087
1.612143
1.616497
1.621327
1.626726
1.632814
1.639756
1.647781
1.656413
1.665976
1.676911
1.688643
1.602015
1.603318
1.605175
1.607663
1.610873
1.61492
1.619379
1.62432
1.629835
1.636046
1.643116
1.650515
1.65845
1.667213
1.67717
1.601414
1.602636
1.604382
1.606718
1.609728
1.613513
1.617658
1.622221
1.627274
1.632909
1.639245
1.645744
1.652519
1.659756
1.667714
1.60081
1.601961
1.603608
1.605811
1.608647
1.612205
1.616083
1.620329
1.625001
1.630172
1.635933
1.641745
1.647678
1.653833
1.660376
1.600181
1.601268
1.602826
1.604912
1.607594
1.610956
1.614605
1.618581
1.622934
1.627722
1.633019
1.638294
1.643586
1.648954
1.654489
1.639193
1.633683
1.640022
1.62811
1.634351
1.641736
1.623442
1.628653
1.635851
1.644414
1.619584
1.623936
1.630027
1.638293
1.648167
1.616413
1.620097
1.625269
1.632328
1.64177
1.653089
1.613806
1.616981
1.621424
1.627481
1.635589
1.646304
1.65806
1.611626
1.614393
1.618272
1.623525
1.630528
1.639771
1.650871
1.663061
1.60976
1.612203
1.615628
1.620253
1.62637
1.634396
1.643973
1.65547
1.66819
1.608135
1.610313
1.613374
1.617494
1.622916
1.629962
1.638268
1.648188
1.660127
1.673532
1.606701
1.608661
1.611424
1.615138
1.619999
1.626276
1.633556
1.642143
1.652419
1.664859
1.679111
1.605425
1.607205
1.609722
1.613101
1.61751
1.623165
1.629639
1.63715
1.646017
1.65666
1.669644
1.683658
1.604293
1.605921
1.608231
1.611334
1.615368
1.620518
1.626343
1.633009
1.640743
1.64988
1.66088
1.673394
1.687078
1.603303
1.604803
1.606938
1.609806
1.613527
1.618257
1.623554
1.62954
1.636387
1.644326
1.653706
1.664115
1.676042
1.689171
1.602467
1.603858
1.605844
1.60851
1.611963
1.616337
1.621192
1.626625
1.632758
1.639763
1.647876
1.656623
1.666339
1.677499
1.689694
1.601787
1.603086
1.604943
1.607435
1.610655
1.61472
1.619201
1.624171
1.629725
1.635986
1.643125
1.650612
1.658663
1.667584
1.677792
1.601204
1.602424
1.604169
1.606508
1.609525
1.613323
1.617485
1.622069
1.627148
1.632818
1.6392
1.645753
1.652596
1.659923
1.668006
1.600657
1.601806
1.603452
1.605657
1.608497
1.612064
1.615953
1.620211
1.6249
1.63009
1.635878
1.641719
1.647687
1.653886
1.660485
1.600102
1.601187
1.602745
1.604832
1.607516
1.610882
1.614535
1.618517
1.622877
1.627674
1.632982
1.638269
1.643574
1.648959
1.654513
1.599517
1.600545
1.602024
1.604005
1.606552
1.609741
1.61319
1.616935
1.621016
1.625483
1.630397
1.635237
1.640027
1.644796
1.649593
1.633773
1.640082
1.628292
1.634502
1.641831
1.623685
1.628871
1.636021
1.644518
1.619832
1.624157
1.630207
1.638418
1.648263
1.616602
1.620262
1.625397
1.632411
1.641821
1.65321
1.613899
1.617057
1.621475
1.6275
1.635585
1.646329
1.658318
1.611659
1.614417
1.618283
1.623518
1.630506
1.639751
1.650935
1.663437
1.609767
1.612206
1.615625
1.620243
1.626351
1.634372
1.643965
1.65555
1.66854
1.608135
1.610311
1.613371
1.617489
1.622907
1.629951
1.638256
1.648188
1.66018
1.673733
1.606701
1.608661
1.611424
1.615138
1.619999
1.626276
1.633556
1.642143
1.652419
1.664859
1.679111
1.605424
1.607204
1.609721
1.613102
1.617512
1.623169
1.629647
1.637162
1.64603
1.656665
1.669606
1.683498
1.604279
1.605908
1.608219
1.611323
1.61536
1.620515
1.626346
1.633023
1.640769
1.649917
1.660917
1.673378
1.686895
1.603257
1.604756
1.606893
1.609763
1.613488
1.618225
1.623533
1.629535
1.636404
1.644373
1.653791
1.664233
1.676154
1.689202
1.602358
1.603748
1.605735
1.608404
1.611864
1.616249
1.62112
1.626575
1.632739
1.639788
1.647961
1.656785
1.666594
1.677857
1.690216
1.601599
1.602895
1.604752
1.607247
1.610476
1.614557
1.619058
1.624055
1.629645
1.635955
1.643161
1.650733
1.658896
1.667968
1.678396
1.600982
1.602198
1.603942
1.606285
1.60931
1.613123
1.617304
1.621912
1.627023
1.632734
1.63917
1.645789
1.652716
1.660154
1.668389
1.600453
1.601599
1.603244
1.605452
1.608299
1.611877
1.61578
1.620057
1.624768
1.629987
1.635811
1.641695
1.647714
1.653976
1.66066
1.599953
1.601036
1.602593
1.604681
1.60737
1.610743
1.614406
1.618399
1.622773
1.627587
1.632916
1.638227
1.643559
1.648976
1.65457
1.59944
1.600467
1.601945
1.603927
1.606476
1.609668
1.613122
1.616872
1.620959
1.625434
1.630356
1.635207
1.640007
1.644788
1.6496
1.598896
1.599871
1.601277
1.603163
1.605588
1.608621
1.611892
1.61543
1.619272
1.623458
1.62804
1.632515
1.636889
1.641177
1.645401
1.628393
1.634587
1.641876
1.623878
1.629046
1.636153
1.644566
1.620086
1.624392
1.630405
1.638546
1.648271
1.616862
1.620502
1.6256
1.632557
1.641879
1.653148
1.614101
1.61724
1.621628
1.627605
1.635625
1.646296
1.658269
1.611762
1.614508
1.618353
1.623559
1.630507
1.639713
1.650902
1.663562
1.609806
1.612238
1.615647
1.620251
1.626339
1.634339
1.643927
1.65558
1.668829
1.608145
1.610319
1.613374
1.617486
1.622896
1.62993
1.638229
1.648172
1.660243
1.674033
1.606702
1.608661
1.611423
1.615135
1.619994
1.626267
1.633544
1.64213
1.652417
1.664905
1.679288
1.605424
1.607204
1.609721
1.613102
1.617512
1.623169
1.629647
1.637162
1.64603
1.656665
1.669606
1.683498
1.604278
1.605906
1.608218
1.611322
1.61536
1.620516
1.62635
1.63303
1.64078
1.649932
1.660925
1.673345
1.686748
1.603243
1.604743
1.60688
1.60975
1.613477
1.618217
1.623529
1.629539
1.636418
1.6444
1.653832
1.664275
1.676147
1.689038
1.602313
1.603702
1.605689
1.60836
1.611822
1.616212
1.621091
1.626557
1.632738
1.63981
1.648015
1.656878
1.666721
1.677981
1.690263
1.601493
1.602787
1.604644
1.607142
1.610375
1.614465
1.618978
1.623992
1.629606
1.635949
1.643201
1.650832
1.659072
1.668236
1.678765
1.600799
1.602012
1.603756
1.606101
1.609134
1.61296
1.617157
1.621787
1.626927
1.632675
1.639163
1.645846
1.652856
1.660403
1.668783
1.600237
1.601379
1.603023
1.605234
1.608088
1.611679
1.615599
1.619896
1.624633
1.629885
1.635753
1.641688
1.647769
1.654111
1.660899
1.599754
1.600834
1.602391
1.604481
1.607176
1.610559
1.614235
1.618244
1.622637
1.627475
1.632834
1.638179
1.643551
1.649014
1.654667
1.599295
1.60032
1.601797
1.60378
1.606333
1.609532
1.612994
1.616754
1.620853
1.625343
1.630284
1.635154
1.639975
1.64478
1.649621
1.598821
1.599795
1.6012
1.603087
1.605514
1.60855
1.611825
1.615367
1.619214
1.623407
1.627998
1.63248
1.636863
1.64116
1.645395
1.598312
1.599239
1.600579
1.602379
1.604693
1.607585
1.610694
1.614047
1.617675
1.621614
1.625907
1.630066
1.634091
1.637985
1.641752
1.623985
1.629143
1.636228
1.644588
1.620285
1.62458
1.630565
1.63865
1.648255
1.617121
1.620749
1.625819
1.632724
1.64195
1.653033
1.614367
1.617494
1.621853
1.627781
1.635723
1.646267
1.658048
1.61197
1.614704
1.618526
1.623693
1.630579
1.639698
1.650787
1.663343
1.609915
1.612339
1.615733
1.620313
1.626365
1.634316
1.643855
1.65549
1.668821
1.608188
1.610357
1.613405
1.617506
1.6229
1.629911
1.638185
1.648118
1.66024
1.674235
1.606713
1.608671
1.61143
1.615138
1.619991
1.626256
1.633522
1.642099
1.652394
1.664951
1.679539
1.605425
1.607205
1.609722
1.613101
1.61751
1.623165
1.629639
1.63715
1.646017
1.65666
1.669644
1.683658
1.604278
1.605906
1.608218
1.611322
1.61536
1.620516
1.62635
1.63303
1.64078
1.649932
1.660925
1.673345
1.686748
1.603241
1.604741
1.606877
1.609748
1.613475
1.618216
1.62353
1.629542
1.636425
1.644412
1.653847
1.664285
1.676118
1.688899
1.6023
1.603689
1.605675
1.608346
1.611809
1.6162
1.621082
1.626554
1.632742
1.639825
1.648044
1.656921
1.666767
1.677981
1.690108
1.601449
1.602742
1.604599
1.607097
1.610332
1.614424
1.618943
1.623966
1.629592
1.635952
1.643228
1.650892
1.65917
1.668369
1.678895
1.600696
1.601907
1.60365
1.605997
1.609033
1.612866
1.617073
1.621716
1.626874
1.632647
1.63917
1.645898
1.652966
1.660587
1.669057
1.600058
1.601198
1.602841
1.605054
1.607914
1.611516
1.615449
1.619765
1.624525
1.629808
1.635715
1.6417
1.647843
1.654264
1.661156
1.599543
1.60062
1.602176
1.604268
1.606969
1.610364
1.614054
1.618081
1.622496
1.627361
1.632756
1.638141
1.64356
1.649083
1.654809
1.599102
1.600123
1.6016
1.603585
1.606143
1.609352
1.612825
1.616598
1.620714
1.625224
1.630191
1.635089
1.639941
1.644782
1.649665
1.598679
1.599651
1.601056
1.602944
1.605374
1.608417
1.611699
1.61525
1.619108
1.623314
1.62792
1.632419
1.636819
1.641136
1.645392
1.598239
1.599165
1.600505
1.602305
1.60462
1.607516
1.610628
1.613985
1.617618
1.621563
1.625863
1.630029
1.634061
1.637962
1.641738
1.597761
1.598645
1.599926
1.601647
1.603859
1.606623
1.609585
1.612771
1.616207
1.619926
1.623963
1.627848
1.631575
1.635138
1.638533
1.620395
1.624684
1.630656
1.638709
1.648245
1.617323
1.620944
1.625994
1.632862
1.642014
1.652935
1.614628
1.617747
1.622087
1.627975
1.635848
1.646266
1.657811
1.612238
1.614965
1.618767
1.623895
1.630717
1.639734
1.650671
1.662965
1.610126
1.612543
1.615921
1.62047
1.626473
1.634346
1.643785
1.655292
1.668433
1.6083
1.610465
1.613502
1.617585
1.622951
1.629919
1.638138
1.648011
1.660094
1.674095
1.606759
1.608714
1.611468
1.615168
1.620009
1.626254
1.633496
1.642045
1.652323
1.664916
1.679656
1.605438
1.607217
1.609732
1.613109
1.617514
1.623162
1.629627
1.637126
1.645982
1.65663
1.669674
1.68387
1.604279
1.605908
1.608219
1.611323
1.61536
1.620515
1.626346
1.633023
1.640769
1.649917
1.660917
1.673378
1.686895
1.603241
1.604741
1.606877
1.609748
1.613475
1.618216
1.62353
1.629542
1.636425
1.644412
1.653847
1.664285
1.676118
1.688899
1.602298
1.603687
1.605673
1.608343
1.611806
1.616198
1.621081
1.626554
1.632745
1.639832
1.648056
1.656937
1.666778
1.677955
1.689974
1.601436
1.602729
1.604585
1.607082
1.610318
1.614411
1.618932
1.623957
1.629588
1.635956
1.643244
1.650923
1.659216
1.668419
1.678898
1.600653
1.601863
1.603605
1.605952
1.608989
1.612824
1.617034
1.621683
1.62685
1.632636
1.639177
1.64593
1.65303
1.66069
1.669194
1.599958
1.601095
1.602738
1.604951
1.607814
1.611422
1.615363
1.619688
1.624462
1.629764
1.635699
1.641716
1.647903
1.654381
1.661345
1.59937
1.600444
1.601998
1.604093
1.606798
1.610203
1.613904
1.617946
1.62238
1.627271
1.632698
1.638121
1.643586
1.649167
1.654968
1.598896
1.599915
1.60139
1.603377
1.605941
1.60916
1.612645
1.616434
1.620569
1.625103
1.630098
1.635029
1.639919
1.644803
1.64974
1.59849
1.599459
1.600863
1.602753
1.605188
1.60824
1.611532
1.615096
1.618968
1.623192
1.62782
1.632342
1.636767
1.641111
1.645398
1.5981
1.599024
1.600364
1.602165
1.604484
1.607385
1.610504
1.613869
1.617512
1.621468
1.625782
1.629962
1.634009
1.637924
1.641716
1.59769
1.598572
1.599853
1.601574
1.603788
1.606554
1.60952
1.61271
1.61615
1.619874
1.623918
1.627809
1.631542
1.635111
1.638512
1.59724
1.598085
1.599311
1.60096
1.603079
1.605725
1.608554
1.611588
1.614851
1.618372
1.622182
1.625825
1.629294
1.632577
1.635662
1.617432
1.621051
1.626092
1.632941
1.642054
1.652884
1.614829
1.617944
1.622271
1.628132
1.635957
1.646279
1.657631
1.612497
1.615221
1.619009
1.624108
1.630878
1.639806
1.650597
1.662605
1.610393
1.612806
1.61617
1.620691
1.626644
1.634436
1.64376
1.655091
1.667897
1.608511
1.610672
1.613698
1.617759
1.623086
1.629993
1.638127
1.647887
1.659813
1.673538
1.606872
1.608825
1.611572
1.615259
1.620078
1.62629
1.633485
1.641974
1.652182
1.664712
1.679385
1.605484
1.607262
1.609774
1.613146
1.617541
1.623175
1.62962
1.637093
1.645919
1.656542
1.669606
1.68392
1.604293
1.605921
1.608231
1.611334
1.615368
1.620518
1.626343
1.633009
1.640743
1.64988
1.66088
1.673394
1.687078
1.603243
1.604743
1.60688
1.60975
1.613477
1.618217
1.623529
1.629539
1.636418
1.6444
1.653832
1.664275
1.676147
1.689038
1.602298
1.603687
1.605673
1.608343
1.611806
1.616198
1.621081
1.626554
1.632745
1.639832
1.648056
1.656937
1.666778
1.677955
1.689974
1.601434
1.602727
1.604583
1.60708
1.610315
1.614408
1.618929
1.623955
1.629588
1.635958
1.64325
1.650934
1.659232
1.668431
1.678873
1.600641
1.60185
1.603592
1.605937
1.608974
1.612809
1.617021
1.621671
1.626841
1.632633
1.639181
1.645946
1.653061
1.660737
1.669244
1.599917
1.601053
1.602694
1.604907
1.60777
1.611379
1.615322
1.619652
1.624432
1.629743
1.635691
1.641727
1.647938
1.654448
1.66145
1.599273
1.600344
1.601898
1.603992
1.6067
1.610108
1.613816
1.617866
1.622311
1.627217
1.632664
1.638113
1.64361
1.649233
1.655088
1.598728
1.599743
1.601217
1.603205
1.605773
1.609001
1.612496
1.616298
1.620449
1.625003
1.630025
1.634985
1.63991
1.644838
1.649829
1.59829
1.599256
1.600659
1.60255
1.60499
1.608051
1.611354
1.614932
1.61882
1.623065
1.627717
1.632266
1.63672
1.641098
1.645425
1.597916
1.598837
1.600176
1.601979
1.604302
1.607211
1.61034
1.613716
1.617371
1.621343
1.625676
1.629876
1.633943
1.63788
1.641696
1.597554
1.598435
1.599715
1.601438
1.603654
1.606426
1.609398
1.612595
1.616045
1.619779
1.623834
1.627737
1.631482
1.635064
1.638478
1.59717
1.598014
1.59924
1.600889
1.60301
1.605658
1.60849
1.611527
1.614795
1.61832
1.622136
1.625785
1.629258
1.632546
1.635636
1.596745
1.597554
1.598731
1.600314
1.602348
1.604885
1.607591
1.610487
1.613593
1.616935
1.62054
1.62397
1.627212
1.630254
1.633078
1.614937
1.618052
1.622373
1.628221
1.636021
1.646292
1.65754
1.612695
1.615418
1.619197
1.624277
1.631011
1.639876
1.650559
1.662344
1.610649
1.613061
1.616416
1.620915
1.626829
1.634554
1.643779
1.654944
1.667415
1.608775
1.610935
1.613951
1.617991
1.62328
1.630124
1.638169
1.647801
1.659525
1.672845
1.607082
1.609033
1.611772
1.615443
1.620233
1.626396
1.633525
1.641921
1.652003
1.664349
1.678658
1.605598
1.607375
1.609882
1.613244
1.617624
1.623232
1.629641
1.637064
1.645824
1.656368
1.669346
1.683547
1.604339
1.605967
1.608276
1.611374
1.615403
1.620543
1.626352
1.632998
1.640703
1.649805
1.660776
1.673301
1.687079
1.603257
1.604756
1.606893
1.609763
1.613488
1.618225
1.623533
1.629535
1.636404
1.644373
1.653791
1.664233
1.676154
1.689202
1.6023
1.603689
1.605675
1.608346
1.611809
1.6162
1.621082
1.626554
1.632742
1.639825
1.648044
1.656921
1.666767
1.677981
1.690108
1.601434
1.602727
1.604583
1.60708
1.610315
1.614408
1.618929
1.623955
1.629588
1.635958
1.64325
1.650934
1.659232
1.668431
1.678873
1.600639
1.601848
1.603589
1.605934
1.608971
1.612805
1.617017
1.621668
1.626838
1.632632
1.639183
1.645952
1.653073
1.660753
1.669257
1.599906
1.60104
1.602681
1.604893
1.607755
1.611364
1.615307
1.619638
1.624419
1.629734
1.635687
1.641732
1.647955
1.65448
1.661498
1.599233
1.600303
1.601855
1.603949
1.606656
1.610066
1.613775
1.617827
1.622277
1.627189
1.632646
1.638107
1.643623
1.64927
1.655157
1.598634
1.599647
1.601119
1.603107
1.605677
1.608907
1.612408
1.616216
1.620376
1.624941
1.629979
1.634959
1.639908
1.644867
1.649898
1.598127
1.599089
1.600491
1.602383
1.604827
1.607895
1.611207
1.614795
1.618697
1.622959
1.627633
1.632206
1.636688
1.641098
1.645464
1.597721
1.598639
1.599977
1.601781
1.604109
1.607026
1.610165
1.613553
1.617223
1.621212
1.625567
1.629788
1.633879
1.637843
1.641688
1.597374
1.598252
1.599532
1.601256
1.603476
1.606255
1.609236
1.612443
1.615904
1.619652
1.623725
1.627645
1.631407
1.635006
1.638437
1.597037
1.597879
1.599105
1.600756
1.602879
1.605532
1.60837
1.611414
1.61469
1.618224
1.62205
1.62571
1.629194
1.632492
1.635592
1.596676
1.597485
1.598662
1.600245
1.60228
1.604819
1.607529
1.610428
1.613537
1.616883
1.620494
1.623929
1.627175
1.630221
1.633049
1.596273
1.59705
1.598183
1.599705
1.60166
1.604097
1.606691
1.609459
1.612422
1.615601
1.619022
1.62226
1.625303
1.628134
1.630734
1.612802
1.615525
1.6193
1.624371
1.631087
1.63992
1.650547
1.662212
1.610843
1.613256
1.616605
1.62109
1.626977
1.634656
1.643811
1.654856
1.667073
1.609026
1.611186
1.614197
1.618221
1.62348
1.630272
1.638244
1.647766
1.659307
1.672242
1.607341
1.609293
1.612026
1.615681
1.620441
1.626556
1.633616
1.641915
1.651856
1.663976
1.677808
1.605805
1.607581
1.610083
1.613434
1.617791
1.623362
1.629719
1.63707
1.645729
1.656133
1.6689
1.682689
1.604452
1.60608
1.608385
1.611478
1.615494
1.620614
1.626396
1.633003
1.640656
1.649686
1.660567
1.672997
1.686631
1.603303
1.604803
1.606938
1.609806
1.613527
1.618257
1.623554
1.62954
1.636387
1.644326
1.653706
1.664115
1.676042
1.689171
1.602313
1.603702
1.605689
1.60836
1.611822
1.616212
1.621091
1.626557
1.632738
1.63981
1.648015
1.656878
1.666721
1.677981
1.690263
1.601436
1.602729
1.604585
1.607082
1.610318
1.614411
1.618932
1.623957
1.629588
1.635956
1.643244
1.650923
1.659216
1.668419
1.678898
1.600639
1.601848
1.603589
1.605934
1.608971
1.612805
1.617017
1.621668
1.626838
1.632632
1.639183
1.645952
1.653073
1.660753
1.669257
1.599904
1.601039
1.602679
1.60489
1.607751
1.61136
1.615303
1.619633
1.624415
1.629731
1.635686
1.641733
1.647961
1.654491
1.661514
1.599223
1.600292
1.601843
1.603935
1.606642
1.61005
1.613759
1.617812
1.622262
1.627176
1.632636
1.638104
1.643628
1.649287
1.655189
1.598595
1.599607
1.601078
1.603065
1.605634
1.608865
1.612366
1.616176
1.620339
1.624909
1.629954
1.634943
1.639905
1.644881
1.649936
1.598035
1.598995
1.600396
1.602288
1.604732
1.607803
1.611119
1.614712
1.618622
1.622892
1.627579
1.632167
1.636667
1.6411
1.645496
1.597561
1.598477
1.599813
1.601618
1.603949
1.606873
1.610019
1.613417
1.617099
1.621103
1.625475
1.629716
1.633829
1.637817
1.641692
1.597184
1.598059
1.599337
1.601063
1.603288
1.606074
1.609064
1.612282
1.615756
1.619519
1.62361
1.627549
1.631331
1.63495
1.638404
1.596861
1.597701
1.598926
1.600578
1.602705
1.605365
1.608211
1.611264
1.61455
1.618097
1.621938
1.625613
1.629111
1.632423
1.635537
1.596546
1.597354
1.59853
1.600114
1.602152
1.604696
1.607411
1.610316
1.613433
1.616787
1.620408
1.623852
1.627107
1.630161
1.632997
1.596206
1.596983
1.598115
1.599637
1.601594
1.604033
1.606629
1.609401
1.612367
1.61555
1.618975
1.622218
1.625265
1.628099
1.630702
1.595822
1.59657
1.597661
1.599128
1.601011
1.603356
1.605846
1.608497
1.611328
1.614359
1.617612
1.620678
1.623542
1.626188
1.628594
1.610948
1.613361
1.616708
1.621186
1.627061
1.634716
1.643835
1.654818
1.666901
1.609216
1.611378
1.614385
1.618398
1.623637
1.630394
1.638315
1.647761
1.659168
1.671819
1.607586
1.60954
1.612269
1.615912
1.620649
1.626724
1.633729
1.641948
1.651769
1.663686
1.677085
1.606058
1.607836
1.610335
1.613673
1.618007
1.62354
1.629844
1.637122
1.645676
1.655927
1.668441
1.681717
1.604654
1.606283
1.608586
1.611669
1.615668
1.620759
1.626501
1.633053
1.640628
1.649551
1.660278
1.672487
1.685676
1.603413
1.604914
1.607048
1.609911
1.613624
1.618338
1.623614
1.629572