/*--------------------------------*- C++ -*----------------------------------*\
| =========                 |                                                 |
| \\      /  F ield         | OpenFOAM: The Open Source CFD Toolbox           |
|  \\    /   O peration     | Version:  2306                                  |
|   \\  /    A nd           | Website:  www.openfoam.com                      |
|    \\/     M anipulation  |                                                 |
\*---------------------------------------------------------------------------*/
FoamFile
{
    version     2.0;
    format      ascii;
    arch        "LSB;label=32;scalar=64";
    class       volScalarField;
    location    "1.2/phiI";
    object      T;
}
// * * * * * * * * * * * * * * * * * * * * * * * * * * * * * * * * * * * * * //

dimensions      [0 0 0 1 0 0 0];

internalField   nonuniform List<scalar> 
12000
(
1268.279
1268.095
1270.549
1268.366
1267.668
1270.542
1268.183
1272.578
1270.624
1268.436
1266.864
1270.523
1267.757
1272.616
1270.617
1268.253
1274.424
1272.641
1270.683
1268.489
1265.481
1270.487
1266.957
1272.703
1270.598
1267.828
1274.473
1272.679
1270.675
1268.306
1276.169
1274.477
1272.69
1270.726
1268.523
1263.39
1270.42
1265.586
1272.86
1270.56
1267.032
1274.586
1272.766
1270.656
1267.882
1276.219
1274.527
1272.728
1270.718
1268.341
1277.844
1276.214
1274.518
1272.723
1270.752
1268.537
1260.977
1270.289
1263.524
1273.118
1270.489
1265.673
1274.789
1272.921
1270.617
1267.089
1276.333
1274.639
1272.814
1270.698
1267.917
1277.892
1276.265
1274.567
1272.761
1270.744
1268.354
1279.458
1277.883
1276.247
1274.544
1272.742
1270.76
1268.548
1258.765
1270.006
1261.15
1273.472
1270.353
1263.64
1275.126
1273.174
1270.542
1265.742
1276.541
1274.841
1272.967
1270.657
1267.128
1278.001
1276.379
1274.678
1272.846
1270.723
1267.931
1279.503
1277.931
1276.298
1274.593
1272.779
1270.751
1268.366
1281.013
1279.491
1277.91
1276.267
1274.556
1272.744
1270.766
1268.56
1257.123
1269.639
1258.973
1273.755
1270.069
1261.303
1275.598
1273.516
1270.399
1263.735
1276.884
1275.171
1273.213
1270.578
1265.791
1278.2
1276.585
1274.878
1272.997
1270.679
1267.144
1279.606
1278.04
1276.411
1274.703
1272.863
1270.729
1267.943
1281.056
1279.537
1277.958
1276.317
1274.604
1272.781
1270.757
1268.377
1282.511
1281.043
1279.514
1277.925
1276.274
1274.553
1272.745
1270.772
1268.571
1256.258
1269.308
1257.356
1273.924
1269.706
1259.16
1276.03
1273.791
1270.115
1261.435
1277.367
1275.632
1273.544
1270.428
1263.81
1278.528
1276.922
1275.203
1273.238
1270.596
1265.817
1279.793
1278.237
1276.615
1274.9
1273.011
1270.683
1267.159
1281.153
1279.64
1278.066
1276.43
1274.713
1272.864
1270.734
1267.956
1282.551
1281.085
1279.559
1277.972
1276.324
1274.601
1272.782
1270.762
1268.389
1283.949
1282.536
1281.061
1279.524
1277.927
1276.268
1274.551
1272.747
1270.778
1268.582
1256.258
1269.116
1256.503
1274.005
1269.381
1257.567
1276.351
1273.957
1269.757
1259.324
1277.823
1276.055
1273.812
1270.144
1261.544
1278.99
1277.394
1275.651
1273.557
1270.44
1263.857
1280.101
1278.561
1276.947
1275.22
1273.245
1270.596
1265.839
1281.328
1279.825
1278.262
1276.632
1274.909
1273.009
1270.686
1267.174
1282.642
1281.182
1279.661
1278.08
1276.435
1274.709
1272.864
1270.739
1267.968
1283.987
1282.576
1281.104
1279.57
1277.975
1276.317
1274.598
1272.783
1270.768
1268.4
1285.329
1283.972
1282.551
1281.068
1279.523
1277.918
1276.262
1274.548
1272.748
1270.783
1268.593
1257.123
1269.116
1256.503
1274.034
1269.192
1256.727
1276.552
1274.037
1269.437
1257.755
1278.175
1276.37
1273.974
1269.789
1259.466
1279.431
1277.842
1276.066
1273.816
1270.154
1261.62
1280.534
1279.013
1277.409
1275.657
1273.553
1270.433
1263.898
1281.617
1280.129
1278.581
1276.959
1275.222
1273.237
1270.595
1265.862
1282.807
1281.356
1279.846
1278.275
1276.635
1274.902
1273.007
1270.689
1267.19
1284.073
1282.667
1281.2
1279.671
1278.082
1276.428
1274.706
1272.863
1270.743
1267.981
1285.365
1284.01
1282.591
1281.111
1279.568
1277.965
1276.311
1274.595
1272.783
1270.773
1268.412
1286.65
1285.349
1283.984
1282.556
1281.065
1279.512
1277.909
1276.256
1274.545
1272.748
1270.788
1268.61
1258.765
1269.308
1257.356
1274.034
1269.192
1256.727
1276.648
1274.066
1269.251
1256.927
1278.405
1276.57
1274.053
1269.474
1257.92
1279.777
1278.189
1276.376
1273.975
1269.803
1259.569
1280.951
1279.447
1277.849
1276.063
1273.805
1270.146
1261.685
1282.022
1280.554
1279.024
1277.41
1275.647
1273.535
1270.427
1263.938
1283.078
1281.641
1280.146
1278.589
1276.957
1275.21
1273.23
1270.595
1265.886
1284.229
1282.831
1281.373
1279.854
1278.274
1276.625
1274.896
1273.004
1270.692
1267.206
1285.447
1284.095
1282.682
1281.207
1279.67
1278.071
1276.421
1274.701
1272.863
1270.747
1267.994
1286.685
1285.385
1284.022
1282.596
1281.107
1279.556
1277.956
1276.304
1274.592
1272.784
1270.778
1268.429
1287.914
1286.668
1285.359
1283.987
1282.55
1281.051
1279.501
1277.901
1276.25
1274.541
1272.748
1270.799
1268.632
1260.977
1269.639
1258.973
1274.005
1269.381
1257.567
1276.648
1274.066
1269.251
1256.927
1278.518
1276.665
1274.082
1269.292
1257.104
1280.006
1278.417
1276.573
1274.054
1269.493
1258.044
1281.279
1279.788
1278.19
1276.368
1273.961
1269.798
1259.658
1282.413
1280.964
1279.451
1277.841
1276.044
1273.78
1270.139
1261.75
1283.457
1282.039
1280.562
1279.022
1277.398
1275.625
1273.519
1270.421
1263.979
1284.484
1283.099
1281.655
1280.15
1278.583
1276.942
1275.199
1273.223
1270.594
1265.91
1285.594
1284.251
1282.845
1281.379
1279.851
1278.262
1276.616
1274.89
1273.001
1270.695
1267.223
1286.763
1285.466
1284.108
1282.686
1281.202
1279.657
1278.062
1276.413
1274.697
1272.862
1270.751
1268.013
1287.947
1286.702
1285.395
1284.025
1282.59
1281.093
1279.546
1277.947
1276.298
1274.588
1272.783
1270.788
1268.452
1289.121
1287.93
1286.676
1285.36
1283.979
1282.535
1281.039
1279.491
1277.892
1276.243
1274.537
1272.753
1270.814
1268.66
1263.39
1270.006
1261.15
1273.924
1269.706
1259.16
1276.552
1274.037
1269.437
1257.755
1278.518
1276.665
1274.082
1269.292
1257.104
1280.119
1278.528
1276.667
1274.083
1269.313
1257.238
1281.498
1280.015
1278.415
1276.562
1274.038
1269.492
1258.149
1282.722
1281.288
1279.787
1278.178
1276.344
1273.932
1269.794
1259.745
1283.824
1282.424
1280.966
1279.442
1277.821
1276.014
1273.758
1270.132
1261.813
1284.841
1283.472
1282.045
1280.559
1279.008
1277.374
1275.606
1273.503
1270.415
1264.019
1285.835
1284.503
1283.11
1281.657
1280.143
1278.567
1276.929
1275.187
1273.215
1270.593
1265.935
1286.903
1285.613
1284.262
1282.848
1281.373
1279.836
1278.25
1276.607
1274.883
1272.998
1270.697
1267.245
1288.021
1286.78
1285.476
1284.11
1282.68
1281.188
1279.646
1278.052
1276.406
1274.692
1272.861
1270.761
1268.037
1289.152
1287.962
1286.711
1285.396
1284.017
1282.575
1281.081
1279.535
1277.938
1276.291
1274.584
1272.788
1270.803
1268.48
1290.271
1289.135
1287.937
1286.676
1285.351
1283.963
1282.522
1281.027
1279.48
1277.883
1276.236
1274.538
1272.763
1270.834
1268.692
1265.481
1270.289
1263.524
1273.755
1270.069
1261.303
1276.351
1273.957
1269.757
1259.324
1278.405
1276.57
1274.053
1269.474
1257.92
1280.119
1278.528
1276.667
1274.083
1269.313
1257.238
1281.607
1280.127
1278.526
1276.656
1274.067
1269.315
1257.352
1282.929
1281.506
1280.011
1278.401
1276.537
1274.009
1269.491
1258.253
1284.116
1282.73
1281.286
1279.774
1278.152
1276.31
1273.908
1269.789
1259.83
1285.187
1283.834
1282.424
1280.956
1279.42
1277.789
1275.988
1273.736
1270.125
1261.875
1286.173
1284.854
1283.476
1282.04
1280.543
1278.983
1277.353
1275.586
1273.487
1270.409
1264.059
1287.132
1285.852
1284.511
1283.11
1281.647
1280.124
1278.552
1276.915
1275.176
1273.206
1270.592
1265.966
1288.155
1286.92
1285.623
1284.263
1282.84
1281.357
1279.824
1278.239
1276.598
1274.876
1272.994
1270.705
1267.274
1289.223
1288.037
1286.788
1285.477
1284.102
1282.664
1281.175
1279.634
1278.042
1276.398
1274.687
1272.864
1270.775
1268.068
1290.301
1289.166
1287.969
1286.71
1285.387
1284.001
1282.562
1281.069
1279.524
1277.929
1276.283
1274.584
1272.797
1270.823
1268.514
1291.367
1290.284
1289.141
1287.935
1286.666
1285.334
1283.949
1282.509
1281.015
1279.469
1277.873
1276.233
1274.543
1272.777
1270.859
1266.864
1270.42
1265.586
1273.472
1270.353
1263.64
1276.03
1273.791
1270.115
1261.435
1278.175
1276.37
1273.974
1269.789
1259.466
1280.006
1278.417
1276.573
1274.054
1269.493
1258.044
1281.607
1280.127
1278.526
1276.656
1274.067
1269.315
1257.352
1283.032
1281.613
1280.123
1278.51
1276.629
1274.038
1269.316
1257.465
1284.312
1282.935
1281.501
1279.996
1278.372
1276.5
1273.983
1269.489
1258.355
1285.463
1284.123
1282.727
1281.272
1279.747
1278.117
1276.28
1273.883
1269.784
1259.914
1286.5
1285.196
1283.834
1282.414
1280.934
1279.389
1277.762
1275.962
1273.714
1270.117
1261.937
1287.452
1286.184
1284.857
1283.47
1282.023
1280.518
1278.962
1277.332
1275.566
1273.471
1270.403
1264.105
1288.373
1287.147
1285.859
1284.51
1283.099
1281.628
1280.108
1278.537
1276.901
1275.164
1273.197
1270.596
1266.003
1289.352
1288.17
1286.927
1285.622
1284.254
1282.824
1281.343
1279.811
1278.227
1276.588
1274.868
1272.995
1270.717
1267.308
1290.37
1289.237
1288.043
1286.787
1285.468
1284.085
1282.65
1281.162
1279.622
1278.032
1276.389
1274.685
1272.872
1270.794
1268.103
1291.396
1290.314
1289.172
1287.968
1286.7
1285.37
1283.987
1282.548
1281.056
1279.512
1277.919
1276.28
1274.588
1272.811
1270.847
1292.409
1291.379
1290.289
1289.138
1287.924
1286.649
1285.32
1283.935
1282.495
1281.002
1279.457
1277.867
1276.234
1274.552
1272.796
1267.668
1270.487
1266.957
1273.118
1270.489
1265.673
1275.598
1273.516
1270.399
1263.735
1277.823
1276.055
1273.812
1270.144
1261.544
1279.777
1278.189
1276.376
1273.975
1269.803
1259.569
1281.498
1280.015
1278.415
1276.562
1274.038
1269.492
1258.149
1283.032
1281.613
1280.123
1278.51
1276.629
1274.038
1269.316
1257.465
1284.409
1283.038
1281.608
1280.106
1278.481
1276.591
1274.012
1269.317
1257.575
1285.648
1284.317
1282.93
1281.485
1279.967
1278.334
1276.468
1273.958
1269.487
1258.455
1286.762
1285.469
1284.119
1282.713
1281.246
1279.712
1278.086
1276.25
1273.858
1269.778
1259.996
1287.763
1286.508
1285.194
1283.822
1282.392
1280.903
1279.362
1277.735
1275.936
1273.692
1270.11
1262.003
1288.678
1287.462
1286.186
1284.85
1283.453
1281.998
1280.496
1278.94
1277.31
1275.546
1273.454
1270.402
1264.156
1289.56
1288.387
1287.152
1285.856
1284.498
1283.079
1281.611
1280.092
1278.521
1276.887
1275.151
1273.193
1270.606
1266.046
1290.493
1289.365
1288.176
1286.926
1285.612
1284.236
1282.809
1281.329
1279.797
1278.215
1276.577
1274.864
1273
1270.735
1267.349
1291.462
1290.383
1289.243
1288.042
1286.777
1285.45
1284.071
1282.636
1281.149
1279.61
1278.021
1276.385
1274.689
1272.884
1270.818
1292.437
1291.408
1290.319
1289.169
1287.957
1286.683
1285.355
1283.972
1282.534
1281.043
1279.5
1277.912
1276.28
1274.597
1272.829
1293.398
1292.42
1291.383
1290.286
1289.127
1287.907
1286.634
1285.305
1283.921
1282.482
1280.989
1279.448
1277.865
1276.239
1274.566
1268.095
1270.523
1267.757
1272.86
1270.56
1267.032
1275.126
1273.174
1270.542
1265.742
1277.367
1275.632
1273.544
1270.428
1263.81
1279.431
1277.842
1276.066
1273.816
1270.154
1261.62
1281.279
1279.788
1278.19
1276.368
1273.961
1269.798
1259.658
1282.929
1281.506
1280.011
1278.401
1276.537
1274.009
1269.491
1258.253
1284.409
1283.038
1281.608
1280.106
1278.481
1276.591
1274.012
1269.317
1257.575
1285.741
1284.414
1283.032
1281.591
1280.076
1278.442
1276.559
1273.987
1269.317
1257.683
1286.938
1285.653
1284.312
1282.914
1281.457
1279.93
1278.301
1276.436
1273.932
1269.485
1258.552
1288.012
1286.767
1285.465
1284.105
1282.687
1281.212
1279.682
1278.055
1276.22
1273.833
1269.772
1260.083
1288.975
1287.77
1286.506
1285.183
1283.8
1282.361
1280.877
1279.335
1277.708
1275.91
1273.669
1270.107
1262.074
1289.851
1288.687
1287.463
1286.178
1284.832
1283.428
1281.976
1280.474
1278.918
1277.289
1275.526
1273.441
1270.406
1264.213
1290.694
1289.572
1288.391
1287.148
1285.843
1284.478
1283.062
1281.594
1280.075
1278.505
1276.872
1275.142
1273.193
1270.62
1266.095
1291.581
1290.505
1289.37
1288.174
1286.914
1285.594
1284.22
1282.793
1281.314
1279.784
1278.202
1276.57
1274.865
1273.01
1270.757
1292.501
1291.474
1290.387
1289.24
1288.03
1286.759
1285.435
1284.056
1282.622
1281.135
1279.597
1278.013
1276.384
1274.696
1272.901
1293.426
1292.448
1291.412
1290.316
1289.158
1287.939
1286.668
1285.34
1283.958
1282.521
1281.029
1279.491
1277.91
1276.285
1274.61
1294.336
1293.408
1292.423
1291.379
1290.274
1289.109
1287.892
1286.619
1285.29
1283.906
1282.467
1280.978
1279.444
1277.867
1276.248
1268.279
1270.542
1268.183
1272.703
1270.598
1267.828
1274.789
1272.921
1270.617
1267.089
1276.884
1275.171
1273.213
1270.578
1265.791
1278.99
1277.394
1275.651
1273.557
1270.44
1263.857
1280.951
1279.447
1277.849
1276.063
1273.805
1270.146
1261.685
1282.722
1281.288
1279.787
1278.178
1276.344
1273.932
1269.794
1259.745
1284.312
1282.935
1281.501
1279.996
1278.372
1276.5
1273.983
1269.489
1258.355
1285.741
1284.414
1283.032
1281.591
1280.076
1278.442
1276.559
1273.987
1269.317
1257.683
1287.027
1285.745
1284.408
1283.015
1281.562
1280.038
1278.408
1276.526
1273.961
1269.316
1257.789
1288.181
1286.942
1285.647
1284.296
1282.887
1281.421
1279.897
1278.269
1276.404
1273.906
1269.482
1258.654
1289.213
1288.017
1286.763
1285.45
1284.08
1282.654
1281.182
1279.651
1278.024
1276.19
1273.807
1269.772
1260.173
1290.136
1288.981
1287.767
1286.494
1285.161
1283.771
1282.335
1280.85
1279.307
1277.681
1275.882
1273.65
1270.11
1262.15
1290.972
1289.86
1288.687
1287.455
1286.161
1284.807
1283.406
1281.954
1280.452
1278.896
1277.266
1275.509
1273.434
1270.416
1264.276
1291.774
1290.704
1289.576
1288.387
1287.135
1285.823
1284.46
1283.044
1281.576
1280.058
1278.488
1276.86
1275.138
1273.198
1270.64
1292.615
1291.592
1290.51
1289.367
1288.162
1286.896
1285.577
1284.205
1282.778
1281.299
1279.769
1278.192
1276.567
1274.87
1273.025
1293.487
1292.511
1291.477
1290.384
1289.229
1288.013
1286.744
1285.42
1284.041
1282.608
1281.121
1279.587
1278.01
1276.388
1274.708
1294.363
1293.436
1292.451
1291.408
1290.304
1289.14
1287.924
1286.652
1285.325
1283.943
1282.506
1281.019
1279.486
1277.911
1276.294
1295.224
1294.346
1293.411
1292.419
1291.367
1290.256
1289.094
1287.876
1286.603
1285.275
1283.891
1282.455
1280.972
1279.443
1277.873
1270.549
1268.366
1272.616
1270.617
1268.253
1274.586
1272.766
1270.656
1267.882
1276.541
1274.841
1272.967
1270.657
1267.128
1278.528
1276.922
1275.203
1273.238
1270.596
1265.817
1280.534
1279.013
1277.409
1275.657
1273.553
1270.433
1263.898
1282.413
1280.964
1279.451
1277.841
1276.044
1273.78
1270.139
1261.75
1284.116
1282.73
1281.286
1279.774
1278.152
1276.31
1273.908
1269.789
1259.83
1285.648
1284.317
1282.93
1281.485
1279.967
1278.334
1276.468
1273.958
1269.487
1258.455
1287.027
1285.745
1284.408
1283.015
1281.562
1280.038
1278.408
1276.526
1273.961
1269.316
1257.789
1288.265
1287.03
1285.739
1284.391
1282.987
1281.525
1280.005
1278.374
1276.494
1273.935
1269.315
1257.899
1289.374
1288.184
1286.937
1285.632
1284.269
1282.852
1281.39
1279.865
1278.236
1276.372
1273.88
1269.484
1258.759
1290.364
1289.217
1288.012
1286.749
1285.426
1284.048
1282.625
1281.153
1279.621
1277.993
1276.159
1273.786
1269.776
1260.269
1291.246
1290.141
1288.978
1287.756
1286.473
1285.132
1283.745
1282.309
1280.823
1279.28
1277.652
1275.859
1273.637
1270.118
1262.232
1292.042
1290.98
1289.859
1288.679
1287.437
1286.136
1284.786
1283.384
1281.932
1280.43
1278.873
1277.247
1275.496
1273.431
1270.43
1292.801
1291.783
1290.707
1289.571
1288.373
1287.114
1285.805
1284.442
1283.026
1281.559
1280.04
1278.474
1276.853
1275.138
1273.208
1293.598
1292.626
1291.595
1290.506
1289.355
1288.143
1286.88
1285.561
1284.188
1282.762
1281.283
1279.757
1278.187
1276.568
1274.879
1294.422
1293.497
1292.515
1291.473
1290.372
1289.21
1287.997
1286.728
1285.404
1284.025
1282.592
1281.109
1279.581
1278.01
1276.395
1295.249
1294.372
1293.438
1292.447
1291.396
1290.286
1289.125
1287.908
1286.637
1285.31
1283.927
1282.493
1281.012
1279.485
1277.917
1296.062
1295.232
1294.348
1293.406
1292.407
1291.349
1290.241
1289.078
1287.861
1286.588
1285.259
1283.878
1282.447
1280.969
1279.446
1272.578
1270.624
1268.436
1274.473
1272.679
1270.675
1268.306
1276.333
1274.639
1272.814
1270.698
1267.917
1278.2
1276.585
1274.878
1272.997
1270.679
1267.144
1280.101
1278.561
1276.947
1275.22
1273.245
1270.596
1265.839
1282.022
1280.554
1279.024
1277.41
1275.647
1273.535
1270.427
1263.938
1283.824
1282.424
1280.966
1279.442
1277.821
1276.014
1273.758
1270.132
1261.813
1285.463
1284.123
1282.727
1281.272
1279.747
1278.117
1276.28
1273.883
1269.784
1259.914
1286.938
1285.653
1284.312
1282.914
1281.457
1279.93
1278.301
1276.436
1273.932
1269.485
1258.552
1288.265
1287.03
1285.739
1284.391
1282.987
1281.525
1280.005
1278.374
1276.494
1273.935
1269.315
1257.899
1289.455
1288.268
1287.024
1285.723
1284.364
1282.951
1281.493
1279.972
1278.341
1276.461
1273.908
1269.319
1258.012
1290.519
1289.377
1288.178
1286.922
1285.606
1284.236
1282.822
1281.358
1279.833
1278.203
1276.339
1273.857
1269.491
1258.869
1291.465
1290.368
1289.212
1287.998
1286.725
1285.395
1284.02
1282.596
1281.123
1279.59
1277.961
1276.131
1273.77
1269.785
1260.369
1292.305
1291.25
1290.138
1288.966
1287.735
1286.445
1285.107
1283.72
1282.283
1280.796
1279.252
1277.627
1275.84
1273.628
1270.131
1293.06
1292.048
1290.979
1289.851
1288.661
1287.413
1286.114
1284.764
1283.362
1281.909
1280.406
1278.852
1277.233
1275.489
1273.433
1293.778
1292.81
1291.785
1290.701
1289.557
1288.352
1287.096
1285.787
1284.423
1283.008
1281.539
1280.025
1278.465
1276.849
1275.142
1294.53
1293.608
1292.628
1291.591
1290.493
1289.336
1288.127
1286.863
1285.545
1284.172
1282.745
1281.27
1279.749
1278.185
1276.573
1295.307
1294.432
1293.5
1292.51
1291.461
1290.354
1289.195
1287.981
1286.712
1285.388
1284.009
1282.579
1281.101
1279.579
1278.015
1296.087
1295.258
1294.374
1293.434
1292.435
1291.378
1290.271
1289.109
1287.893
1286.621
1285.293
1283.914
1282.485
1281.008
1279.488
1296.852
1296.07
1295.234
1294.343
1293.394
1292.389
1291.334
1290.225
1289.063
1287.845
1286.571
1285.245
1283.868
1282.442
1280.969
1274.424
1272.641
1270.683
1268.489
1276.219
1274.527
1272.728
1270.718
1268.341
1278.001
1276.379
1274.678
1272.846
1270.723
1267.931
1279.793
1278.237
1276.615
1274.9
1273.011
1270.683
1267.159
1281.617
1280.129
1278.581
1276.959
1275.222
1273.237
1270.595
1265.862
1283.457
1282.039
1280.562
1279.022
1277.398
1275.625
1273.519
1270.421
1263.979
1285.187
1283.834
1282.424
1280.956
1279.42
1277.789
1275.988
1273.736
1270.125
1261.875
1286.762
1285.469
1284.119
1282.713
1281.246
1279.712
1278.086
1276.25
1273.858
1269.778
1259.996
1288.181
1286.942
1285.647
1284.296
1282.887
1281.421
1279.897
1278.269
1276.404
1273.906
1269.482
1258.654
1289.455
1288.268
1287.024
1285.723
1284.364
1282.951
1281.493
1279.972
1278.341
1276.461
1273.908
1269.319
1258.012
1290.596
1289.457
1288.262
1287.008
1285.696
1284.33
1282.921
1281.461
1279.939
1278.307
1276.427
1273.886
1269.328
1258.13
1291.614
1290.521
1289.372
1288.164
1286.896
1285.574
1284.207
1282.792
1281.327
1279.801
1278.168
1276.31
1273.84
1269.503
1258.983
1292.516
1291.468
1290.363
1289.199
1287.975
1286.695
1285.368
1283.992
1282.568
1281.093
1279.558
1277.932
1276.109
1273.758
1269.8
1293.314
1292.309
1291.247
1290.126
1288.946
1287.707
1286.421
1285.082
1283.694
1282.257
1280.768
1279.226
1277.606
1275.826
1273.625
1294.028
1293.066
1292.047
1290.97
1289.833
1288.637
1287.391
1286.093
1284.742
1283.339
1281.885
1280.385
1278.836
1277.223
1275.485
1294.704
1293.786
1292.812
1291.779
1290.687
1289.536
1288.334
1287.078
1285.768
1284.405
1282.988
1281.523
1280.014
1278.459
1276.85
1295.412
1294.539
1293.61
1292.624
1291.578
1290.474
1289.319
1288.11
1286.846
1285.528
1284.154
1282.731
1281.26
1279.745
1278.187
1296.143
1295.316
1294.434
1293.495
1292.498
1291.443
1290.338
1289.179
1287.965
1286.696
1285.371
1283.995
1282.569
1281.097
1279.581
1296.876
1296.095
1295.26
1294.369
1293.421
1292.417
1291.363
1290.255
1289.093
1287.877
1286.604
1285.279
1283.904
1282.48
1281.009
1297.594
1296.859
1296.071
1295.229
1294.331
1293.377
1292.374
1291.318
1290.21
1289.047
1287.828
1286.557
1285.234
1283.862
1282.441
1276.169
1274.477
1272.69
1270.726
1268.523
1277.892
1276.265
1274.567
1272.761
1270.744
1268.354
1279.606
1278.04
1276.411
1274.703
1272.863
1270.729
1267.943
1281.328
1279.825
1278.262
1276.632
1274.909
1273.009
1270.686
1267.174
1283.078
1281.641
1280.146
1278.589
1276.957
1275.21
1273.23
1270.595
1265.886
1284.841
1283.472
1282.045
1280.559
1279.008
1277.374
1275.606
1273.503
1270.415
1264.019
1286.5
1285.196
1283.834
1282.414
1280.934
1279.389
1277.762
1275.962
1273.714
1270.117
1261.937
1288.012
1286.767
1285.465
1284.105
1282.687
1281.212
1279.682
1278.055
1276.22
1273.833
1269.772
1260.083
1289.374
1288.184
1286.937
1285.632
1284.269
1282.852
1281.39
1279.865
1278.236
1276.372
1273.88
1269.484
1258.759
1290.596
1289.457
1288.262
1287.008
1285.696
1284.33
1282.921
1281.461
1279.939
1278.307
1276.427
1273.886
1269.328
1258.13
1291.689
1290.599
1289.451
1288.246
1286.982
1285.663
1284.301
1282.89
1281.429
1279.906
1278.272
1276.397
1273.868
1269.342
1258.251
1292.66
1291.616
1290.516
1289.357
1288.139
1286.865
1285.546
1284.178
1282.762
1281.296
1279.767
1278.137
1276.285
1273.827
1269.52
1293.518
1292.519
1291.463
1290.349
1289.176
1287.946
1286.669
1285.341
1283.964
1282.539
1281.062
1279.529
1277.907
1276.091
1273.752
1294.273
1293.317
1292.305
1291.235
1290.106
1288.919
1287.684
1286.396
1285.058
1283.669
1282.229
1280.742
1279.205
1277.59
1275.817
1294.946
1294.033
1293.065
1292.038
1290.953
1289.809
1288.616
1287.37
1286.071
1284.72
1283.316
1281.864
1280.368
1278.825
1277.217
1295.581
1294.712
1293.787
1292.806
1291.765
1290.667
1289.518
1288.316
1287.06
1285.749
1284.385
1282.971
1281.51
1280.006
1278.457
1296.245
1295.42
1294.541
1293.605
1292.611
1291.559
1290.458
1289.303
1288.093
1286.829
1285.51
1284.139
1282.72
1281.254
1279.745
1296.931
1296.151
1295.318
1294.429
1293.483
1292.48
1291.428
1290.322
1289.162
1287.949
1286.679
1285.356
1283.984
1282.564
1281.097
1297.618
1296.884
1296.096
1295.255
1294.357
1293.404
1292.402
1291.347
1290.239
1289.077
1287.86
1286.589
1285.268
1283.897
1282.478
1298.29
1297.601
1296.86
1296.066
1295.217
1294.314
1293.362
1292.359
1291.303
1290.194
1289.03
1287.813
1286.545
1285.227
1283.859
1277.844
1276.214
1274.518
1272.723
1270.752
1268.537
1279.503
1277.931
1276.298
1274.593
1272.779
1270.751
1268.366
1281.153
1279.64
1278.066
1276.43
1274.713
1272.864
1270.734
1267.956
1282.807
1281.356
1279.846
1278.275
1276.635
1274.902
1273.007
1270.689
1267.19
1284.484
1283.099
1281.655
1280.15
1278.583
1276.942
1275.199
1273.223
1270.594
1265.91
1286.173
1284.854
1283.476
1282.04
1280.543
1278.983
1277.353
1275.586
1273.487
1270.409
1264.059
1287.763
1286.508
1285.194
1283.822
1282.392
1280.903
1279.362
1277.735
1275.936
1273.692
1270.11
1262.003
1289.213
1288.017
1286.763
1285.45
1284.08
1282.654
1281.182
1279.651
1278.024
1276.19
1273.807
1269.772
1260.173
1290.519
1289.377
1288.178
1286.922
1285.606
1284.236
1282.822
1281.358
1279.833
1278.203
1276.339
1273.857
1269.491
1258.869
1291.689
1290.599
1289.451
1288.246
1286.982
1285.663
1284.301
1282.89
1281.429
1279.906
1278.272
1276.397
1273.868
1269.342
1258.251
1292.732
1291.691
1290.592
1289.436
1288.222
1286.951
1285.635
1284.271
1282.859
1281.398
1279.871
1278.24
1276.372
1273.855
1269.361
1293.657
1292.662
1291.611
1290.502
1289.333
1288.109
1286.838
1285.518
1284.149
1282.732
1281.263
1279.736
1278.111
1276.265
1273.82
1294.471
1293.521
1292.514
1291.45
1290.327
1289.148
1287.921
1286.643
1285.314
1283.937
1282.509
1281.033
1279.504
1277.887
1276.078
1295.184
1294.277
1293.314
1292.294
1291.216
1290.08
1288.896
1287.66
1286.372
1285.033
1283.641
1282.203
1280.721
1279.188
1277.579
1295.816
1294.951
1294.032
1293.056
1292.021
1290.93
1289.789
1288.595
1287.349
1286.049
1284.696
1283.294
1281.847
1280.355
1278.817
1296.409
1295.588
1294.713
1293.781
1292.792
1291.745
1290.649
1289.5
1288.297
1287.041
1285.729
1284.367
1282.957
1281.501
1280.002
1297.03
1296.253
1295.422
1294.535
1293.592
1292.592
1291.543
1290.441
1289.286
1288.076
1286.811
1285.494
1284.127
1282.712
1281.252
1297.671
1296.939
1296.153
1295.313
1294.416
1293.465
1292.464
1291.412
1290.306
1289.146
1287.931
1286.663
1285.345
1283.977
1282.561
1298.313
1297.625
1296.885
1296.091
1295.243
1294.34
1293.389
1292.386
1291.331
1290.223
1289.06
1287.844
1286.578
1285.261
1283.895
1298.94
1298.297
1297.602
1296.855
1296.054
1295.2
1294.299
1293.347
1292.343
1291.287
1290.177
1289.014
1287.801
1286.537
1285.223
1279.458
1277.883
1276.247
1274.544
1272.742
1270.76
1268.548
1281.056
1279.537
1277.958
1276.317
1274.604
1272.781
1270.757
1268.377
1282.642
1281.182
1279.661
1278.08
1276.435
1274.709
1272.864
1270.739
1267.968
1284.229
1282.831
1281.373
1279.854
1278.274
1276.625
1274.896
1273.004
1270.692
1267.206
1285.835
1284.503
1283.11
1281.657
1280.143
1278.567
1276.929
1275.187
1273.215
1270.593
1265.935
1287.452
1286.184
1284.857
1283.47
1282.023
1280.518
1278.962
1277.332
1275.566
1273.471
1270.403
1264.105
1288.975
1287.77
1286.506
1285.183
1283.8
1282.361
1280.877
1279.335
1277.708
1275.91
1273.669
1270.107
1262.074
1290.364
1289.217
1288.012
1286.749
1285.426
1284.048
1282.625
1281.153
1279.621
1277.993
1276.159
1273.786
1269.776
1260.269
1291.614
1290.521
1289.372
1288.164
1286.896
1285.574
1284.207
1282.792
1281.327
1279.801
1278.168
1276.31
1273.84
1269.503
1258.983
1292.732
1291.691
1290.592
1289.436
1288.222
1286.951
1285.635
1284.271
1282.859
1281.398
1279.871
1278.24
1276.372
1273.855
1269.361
1293.727
1292.734
1291.685
1290.578
1289.412
1288.191
1286.924
1285.607
1284.242
1282.829
1281.364
1279.839
1278.212
1276.351
1273.847
1294.606
1293.659
1292.656
1291.597
1290.479
1289.304
1288.083
1286.811
1285.49
1284.12
1282.7
1281.233
1279.709
1278.089
1276.25
1295.376
1294.474
1293.516
1292.501
1291.429
1290.3
1289.124
1287.896
1286.617
1285.288
1283.907
1282.481
1281.009
1279.484
1277.872
1296.047
1295.187
1294.273
1293.303
1292.275
1291.19
1290.058
1288.873
1287.636
1286.347
1285.006
1283.616
1282.182
1280.704
1279.175
1296.638
1295.821
1294.949
1294.023
1293.039
1291.999
1290.91
1289.768
1288.574
1287.327
1286.026
1284.674
1283.276
1281.833
1280.347
1297.19
1296.416
1295.589
1294.706
1293.767
1292.772
1291.728
1290.631
1289.482
1288.279
1287.02
1285.711
1284.352
1282.947
1281.496
1297.768
1297.037
1296.254
1295.416
1294.522
1293.574
1292.576
1291.527
1290.424
1289.269
1288.057
1286.794
1285.481
1284.119
1282.709
1298.366
1297.679
1296.94
1296.147
1295.3
1294.399
1293.449
1292.449
1291.396
1290.289
1289.128
1287.915
1286.651
1285.337
1283.974
1298.963
1298.32
1297.626
1296.88
1296.079
1295.226
1294.325
1293.373
1292.371
1291.315
1290.206
1289.044
1287.832
1286.569
1285.257
1299.545
1298.947
1298.298
1297.597
1296.843
1296.038
1295.186
1294.284
1293.331
1292.327
1291.27
1290.161
1289.002
1287.792
1286.532
1281.013
1279.491
1277.91
1276.267
1274.556
1272.744
1270.766
1268.56
1282.551
1281.085
1279.559
1277.972
1276.324
1274.601
1272.782
1270.762
1268.389
1284.073
1282.667
1281.2
1279.671
1278.082
1276.428
1274.706
1272.863
1270.743
1267.981
1285.594
1284.251
1282.845
1281.379
1279.851
1278.262
1276.616
1274.89
1273.001
1270.695
1267.223
1287.132
1285.852
1284.511
1283.11
1281.647
1280.124
1278.552
1276.915
1275.176
1273.206
1270.592
1265.966
1288.678
1287.462
1286.186
1284.85
1283.453
1281.998
1280.496
1278.94
1277.31
1275.546
1273.454
1270.402
1264.156
1290.136
1288.981
1287.767
1286.494
1285.161
1283.771
1282.335
1280.85
1279.307
1277.681
1275.882
1273.65
1270.11
1262.15
1291.465
1290.368
1289.212
1287.998
1286.725
1285.395
1284.02
1282.596
1281.123
1279.59
1277.961
1276.131
1273.77
1269.785
1260.369
1292.66
1291.616
1290.516
1289.357
1288.139
1286.865
1285.546
1284.178
1282.762
1281.296
1279.767
1278.137
1276.285
1273.827
1269.52
1293.727
1292.734
1291.685
1290.578
1289.412
1288.191
1286.924
1285.607
1284.242
1282.829
1281.364
1279.839
1278.212
1276.351
1273.847
1294.674
1293.729
1292.728
1291.67
1290.555
1289.383
1288.165
1286.896
1285.578
1284.212
1282.796
1281.333
1279.812
1278.19
1276.335
1295.507
1294.608
1293.654
1292.643
1291.575
1290.451
1289.279
1288.057
1286.785
1285.462
1284.089
1282.67
1281.207
1279.687
1278.072
1296.234
1295.378
1294.469
1293.503
1292.481
1291.402
1290.276
1289.099
1287.871
1286.591
1285.259
1283.88
1282.457
1280.989
1279.468
1296.863
1296.05
1295.184
1294.262
1293.284
1292.25
1291.168
1290.035
1288.85
1287.612
1286.321
1284.981
1283.595
1282.165
1280.691
1297.412
1296.642
1295.819
1294.94
1294.006
1293.017
1291.979
1290.89
1289.748
1288.553
1287.304
1286.004
1284.656
1283.262
1281.824
1297.924
1297.197
1296.416
1295.582
1294.692
1293.748
1292.755
1291.71
1290.613
1289.463
1288.258
1287.002
1285.696
1284.342
1282.94
1298.46
1297.775
1297.038
1296.248
1295.403
1294.504
1293.558
1292.56
1291.51
1290.407
1289.25
1288.041
1286.781
1285.472
1284.114
1299.014
1298.372
1297.68
1296.934
1296.135
1295.283
1294.384
1293.434
1292.433
1291.379
1290.272
1289.112
1287.902
1286.642
1285.332
1299.568
1298.969
1298.321
1297.621
1296.868
1296.063
1295.211
1294.31
1293.358
1292.355
1291.298
1290.19
1289.032
1287.823
1286.564
1300.106
1299.551
1298.947
1298.292
1297.585
1296.827
1296.023
1295.171
1294.269
1293.316
1292.31
1291.254
1290.148
1288.993
1287.787
1282.511
1281.043
1279.514
1277.925
1276.274
1274.553
1272.745
1270.772
1268.571
1283.987
1282.576
1281.104
1279.57
1277.975
1276.317
1274.598
1272.783
1270.768
1268.4
1285.447
1284.095
1282.682
1281.207
1279.67
1278.071
1276.421
1274.701
1272.863
1270.747
1267.994
1286.903
1285.613
1284.262
1282.848
1281.373
1279.836
1278.25
1276.607
1274.883
1272.998
1270.697
1267.245
1288.373
1287.147
1285.859
1284.51
1283.099
1281.628
1280.108
1278.537
1276.901
1275.164
1273.197
1270.596
1266.003
1289.851
1288.687
1287.463
1286.178
1284.832
1283.428
1281.976
1280.474
1278.918