/*--------------------------------*- C++ -*----------------------------------*\
| =========                 |                                                 |
| \\      /  F ield         | OpenFOAM: The Open Source CFD Toolbox           |
|  \\    /   O peration     | Version:  2306                                  |
|   \\  /    A nd           | Website:  www.openfoam.com                      |
|    \\/     M anipulation  |                                                 |
\*---------------------------------------------------------------------------*/
FoamFile
{
    version     2.0;
    format      ascii;
    arch        "LSB;label=32;scalar=64";
    class       volScalarField;
    location    "0.3";
    object      contErrCp;
}
// * * * * * * * * * * * * * * * * * * * * * * * * * * * * * * * * * * * * * //

dimensions      [1 -1 -3 -1 0 0 0];

internalField   nonuniform List<scalar> 
52000
(
0
0
0
0
0
0
0
0
0
0
0
0
0
0
0
0
0
0
0
0
0
0
0
0
0
0
0
0
0
0
0
0
0
0
0
0
0
0
0
0
0
0
0
0
0
0
0
0
0
0
0
0
0
0
0
0
0
0
0
0
0
0
0
0
0
0
0
0
0
0
0
0
0
0
0
0
0
0
0
0
0
0
0
0
0
0
0
0
0
0
0
0
0
0
0
0
0
0
0
0
0
0
0
0
0
0
0
0
0
0
0
0
0
0
0
0
0
0
0
0
0
0
0
0
0
0
0
0
0
0
0
0
0
0
0
0
0
0
0
0
0
0
0
0
0
0
0
0
0
0
0
0
0
0
0
0
0
0
0
0
0
0
0
0
0
0
0
0
0
0
0
0
0
0
0
0
0
0
0
0
0
0
0
0
0
0
0
0
0
0
0
0
0
0
0
0
0
0
0
0
0
0
0
0
0
0
0
0
0
0
0
0
0
0
0
0
0
0
0
0
0
0
0
0
0
0
0
0
0
0
0
0
0
0
0
0
0
0
0
0
0.0004321226
0
0
0
0
0
0
0
0
0
0
0
0
0
0
0
0
0
0
0
0
0
0
0
0
0
0
0
0
0
0
0
0
0
0
0
0
0
0
0
0
0
0
0
0
0
0
0
0
0
0
0
0
0
0
0
0
0
0
0
0
0
0
0
0
0
-0.0006213417
0
0
0
0
0
-3.909714e-05
9.871976e-05
0
0
0
0
0
0
0
0
0
0
0
0
0
0
0
0
0
0
0
0
0
0
0
0
0
0
0
0
0
0
0
0
0
0
0
0
0
0
0
0
0
0
0
0
0
0
0
0
0
0
0
0
0
0
0
0
0
0
0
0
0
0
0
0
0
0
0
0
0
0
0.0008151345
0
0
0
0
0
0.0005281901
6.757171e-07
0
0
0
0
0
-0.0001448155
-6.710058e-05
0.0005564589
0
0
0
0
0
0
0
0
0
0
0
0
0
0
0
0
0
0
0
0
0
0
0
0
0
0
0
0
0
0
0
0
0
0
0
0
0
0
0
0
0
0
0
0
0
0
0
0
0
0
0
0
0
0
0
0
0
0
0
0
0
0
0
0
0
0
0
0
0
0
0
0
0
0
0
0.0001408333
0
0
0
0
0
-0.0004038828
-0.001630363
0
0
0
0
0
-0.0007166969
-0.0007818917
0.0003734878
0
0
0
0
0
-0.0003371813
0.001156584
-0.0002769037
-0.0003312623
0
0
0
0
0
0
0
0
0
0
0
0
0
0
0
0
0
0
0
0
0
0
0
0
0
0
0
0
0
0
0
0
0
0
0
0
0
0
0
0
0
0
0
0
0
0
0
0
0
0
0
0
0
0
0
0
0
0
0
0
0
0
0
0
0
0
0
0
0
0
0
0
0
0
0
0
0
0
0
0
-0.0005619739
0
0
0
0
0
-0.0002846387
-0.001913953
0
0
0
0
0
0.000450818
0.001586193
0.001494636
0
0
0
0
0
0.0008038839
-0.000821004
-3.040582e-05
-0.0005580377
0
0
0
0
0
0.0002663587
0.0007570437
-0.001089394
0.0009663188
-0.0005933013
0
0
0
0
0
0
0
0
0
0
0
0
0
0
0
0
0
0
0
0
0
0
0
0
0
0
0
0
0
0
0
0
0
0
0
0
0
0
0
0
0
0
0
0
0
0
0
0
0
0
0
0
0
0
0
0
0
0
0
0
0
0
0
0
0
0
0
0
0
0
0
0
0
0
0
0
0
0
0
0
0
0
0
0
0
0.0002042823
0
0
0
0
0
0.0002763922
0.001075564
0
0
0
0
0
-0.0001534287
0.0009527706
-0.0006906413
0
0
0
0
0
-0.0008205829
-4.176095e-05
-0.0006114726
-0.001344406
0
0
0
0
0
9.022021e-05
-0.001035625
0.00125872
-0.001241209
0.001732672
0
0
0
0
0
5.927224e-05
-0.001825103
-0.001104847
-0.0001610394
-0.0006235164
-0.0005490101
0
0
0
0
0
0
0
0
0
0
0
0
0
0
0
0
0
0
0
0
0
0
0
0
0
0
0
0
0
0
0
0
0
0
0
0
0
0
0
0
0
0
0
0
0
0
0
0
0
0
0
0
0
0
0
0
0
0
0
0
0
0
0
0
0
0
0
0
0
-1.426167e-06
0
0
0
0
0
0
0
0
0
0
0
0
0
0
0
0
0
0
0
0
-1.102694e-05
0
0
0
0
0
-7.995992e-05
2.51204e-05
0
0
0
0
0
0.0007897822
-0.0001820708
-0.001019216
0
0
0
0
0
0.0008023669
0.001148698
-0.0004452821
0.001020406
0
0
0
0
0
-0.0009833832
0.001865764
-0.0004310799
-7.598706e-05
-0.0002272153
0
0
0
0
0
0.0001257627
0.002345812
0.002614994
0.001132685
9.150413e-05
0.0001492893
0
0
0
0
0
-0.0001330125
-0.0006016293
0.00104519
0.001081482
0.0001738243
6.308869e-05
-0.0001901844
0
0
0
0
0
0
0
0
0
0
0
0
0
0
0
0
0
0
0
0
0
0
0
0
0
0
0
0
0
0
0
0
0
0
0
0
0
0
0
0
0
0
0
0
0
0
0
0
0
0
0
0
0
0
0
0
0
1.03456e-06
0
0
0
0
0
0
0
0
0
0
0
0
0
0
0
3.653915e-06
4.226843e-06
0
0
0
0
0
0
0
0
0
0
0
0
0
0
0
0
0
0
0
0
-0.0003378091
0
0
0
0
0
-0.0003930739
0.001087061
0
0
0
0
0
-0.0002979642
0.000525222
0.002302799
0
0
0
0
0
-0.0006959483
-0.001467014
0.0002124814
0.001267024
0
0
0
0
0
-0.0004915772
-0.0007047445
-0.0003928187
0.0002089873
0.001325303
0
0
0
0
0
-0.0008903401
0.001093834
-0.002104266
-0.0003637972
0.0003671937
0.001008044
0
0
0
0
0
-0.0003296587
0.0007665016
-0.0001947952
-0.002162833
-0.0003007041
0.001597188
0.001633447
0
0
0
0
0
0.0002717909
0.0002911515
-0.0001488342
-0.0004943105
-0.0008043794
-0.0001741933
0.0002333704
0.000389249
0
0
0
0
0
0
0
0
0
0
0
0
0
0
0
0
0
0
0
0
0
0
0
0
0
0
0
0
0
0
0
0
0
0
0
0
0
0
0
0
0
0
0
0
1.786324e-07
0
0
0
0
0
0
0
0
0
0
0
0
0
0
0
-4.888049e-06
3.340755e-08
0
0
0
0
0
0
0
0
0
0
0
0
0
0
0
3.85248e-06
-2.820349e-06
-5.621841e-06
0
0
0
0
0
0
0
0
0
0
0
0
0
0
0
0
0
0
0
0
0.0006033446
0
0
0
0
0
0.0003807585
0.0008035887
0
0
0
0
0
7.322677e-05
5.117565e-05
-0.001652715
0
0
0
0
0
0.0003185414
-0.0009777934
0.0003201885
-0.001974899
0
0
0
0
0
0.000300129
0.001399482
-0.0002649423
3.055976e-05
-0.001144054
0
0
0
0
0
0.0003567185
0.001320367
-0.0007446815
-0.0002841926
-0.0008349351
-0.00144625
0
0
0
0
0
0.0002861873
0.0002033821
-0.002250466
0.000167919
0.0001759483
-0.0004909491
-0.001405452
0
0
0
0
0
-0.0006668666
0.001332895
0.0003161045
-0.0004393825
0.000807974
0.0003441014
-0.001088302
-0.0004685279
0
0
0
0
0
0.0001978533
0.0001795654
-0.0009386951
0.0003284117
0.0004752332
0.0007273479
0.0004705753
0.000684035
-0.0005374751
0
0
0
0
0
0
0
0
0
0
0
0
0
0
0
0
0
0
0
0
0
0
0
0
0
0
0
0
0
0
-6.06299e-06
0
0
0
0
0
0
0
0
0
0
0
0
0
0
0
-1.004854e-07
2.155885e-06
0
0
0
0
0
0
0
0
0
0
0
0
0
0
0
-4.228419e-06
-3.024873e-06
-1.138718e-06
0
0
0
0
0
0
0
0
0
0
0
0
0
0
0
-1.297986e-06
-5.275268e-06
1.329405e-08
-5.764451e-08
0
0
0
0
0
0
0
0
0
0
0
0
0
0
0
0
0
0
0
0
-9.579586e-05
0
0
0
0
0
-0.0001444631
-0.000977932
0
0
0
0
0
-5.920497e-05
-0.0007672479
-0.0004747409
0
0
0
0
0
-0.0008757093
-0.0008380478
0.0007774366
0.0002917008
0
0
0
0
0
0.0009071175
-0.0006513866
0.000972004
-0.0009634677
0.001575495
0
0
0
0
0
0.0005258057
-0.001040356
-0.001208782
-0.0008370162
0.0001180576
0.0004814219
0
0
0
0
0
0.0001117542
-0.0001368934
-0.0005153612
0.002201246
0.001169902
-0.0003390486
-0.0004793664
0
0
0
0
0
-0.0001215653
-0.0008094273
-0.00121383
0.0009370289
0.0003361937
0.001419195
0.001837704
0.000186745
0
0
0
0
0
9.509589e-05
-0.0003643808
0.0003075145
-0.0003595218
-0.0009901083
-0.0008547121
-0.001908773
-0.0009718454
-0.0007460559
0
0
0
0
0
0.0001070867
-0.0005484826
-0.0004365539
0.0007258615
0.0003904043
-0.0001452486
-0.0006190978
0.0002742919
-2.533121e-05
0.001102731
0
0
0
0
0
0
0
0
0
0
0
0
0
0
0
-3.362004e-06
0
0
0
0
0
0
0
0
0
0
0
0
0
0
0
-5.06456e-06
-4.984618e-06
0
0
0
0
0
0
0
0
0
0
0
0
0
0
0
5.144878e-06
4.145808e-06
-5.824396e-06
0
0
0
0
0
0
0
0
0
0
0
0
0
0
0
-3.295428e-06
9.283979e-07
-3.189492e-06
-5.723283e-06
0
0
0
0
0
0
0
0
0
0
0
0
0
0
0
-9.83101e-07
2.525912e-06
7.216815e-06
2.385491e-06
4.164194e-06
0
0
0
0
0
0
0
0
0
0
0
0
0
0
0
0
0
0
0
0
0
0
0
0
0
0.0001862795
0.0002834465
0
0
0
0
0
-4.420699e-05
-0.0001493728
0.001097414
0
0
0
0
0
0.0006953905
0.001060714
-0.001525607
0.0004877265
0
0
0
0
0
0.0003050041
0.000354548
0.0002686367
-0.000301724
-0.001330118
0
0
0
0
0
-0.0002926352
-0.0005900475
0.001344137
0.002407686
-0.0001501073
0.0004133516
0
0
0
0
0
-0.0007481401
-6.133577e-05
0.001603569
0.000217864
-0.001780327
0.001011255
0.0003801635
0
0
0
0
0
-0.0001970901
-0.0006019786
0.0004768285
-0.0003466077
-0.0008884018
-0.001946596
-0.0002646846
0.002071595
0
0
0
0
0
0.0001053381
0.002400115
0.0005579862
0.0008772733
0.0007407771
-0.0005518879
0.001279495
-0.0008123516
-0.0005803235
0
0
0
0
0
0.0003339733
0.001874374
-0.0001914262
-0.0005555238
6.879401e-05
0.0006429416
0.001204262
0.0002425278
0.0001031958
-0.0007681934
0
0
0
0
0
6.178619e-05
0.0003815249
0.0003049846
-2.640717e-05
-0.0003218287
-0.0005397856
0.0002373382
-4.130878e-05
-0.0007314238
0.000126981
-0.0004354495
0
0
0
0
0
0
0
0
0
0
0
0
0
0
0
2.601462e-06
-1.375844e-06
0
0
0
0
0
0
0
0
0
0
0
0
0
0
0
-1.38085e-06
1.238925e-06
2.35782e-06
0
0
0
0
0
0
0
0
0
0
0
0
0
0
0
1.967707e-07
5.789687e-07
1.057687e-06
8.074478e-06
0
0
0
0
0
0
0
0
0
0
0
0
0
0
0
-3.65092e-07
-3.687534e-06
-3.677629e-06
-4.661772e-06
4.157983e-07
0
0
0
0
0
0
0
0
0
0
0
0
0
0
0
-8.914809e-07
4.743106e-06
2.00027e-06
2.886678e-06
3.58231e-06
2.613322e-05
0
0
0
0
0
0
0
0
0
0
0
0
0
0
0
0
0
0
0
0
0
0
0
0
0
0
0
0
0
0
-5.928844e-05
0.0005369249
8.709917e-05
0
0
0
0
0
0.0005575511
-0.000851373
0.0008880519
-0.00137243
0
0
0
0
0
-0.0006243817
-0.0008732577
-0.0004821616
0.001184844
0.001280908
0
0
0
0
0
0.0006844559
-0.000370206
-0.001539486
-0.001977292
-0.0006419138
-0.0009519116
0
0
0
0
0
-0.0001062731
-0.0004430878
-0.001410331
-0.001067732
-0.0009738928
-0.0001038216
-0.0004922002
0
0
0
0
0
0.0008359116
0.001576765
0.0002937149
0.0004508214
0.00078176
0.001045047
-0.002412712
0.0002641008
0
0
0
0
0
-0.0005764016
-0.001273681
-0.0008244904
0.001068133
0.001491101
0.001073985
0.000329599
0.0006943222
-0.002549156
0
0
0
0
0
0.0003290432
-0.0004944052
-0.001101789
-0.0005807297
-0.0009664879
0.000143382
0.0008957223
-0.0005249177
-0.0007725299
-0.0008793384
0
0
0
0
0
0.0004249349
-0.001673448
-0.001710528
0.0008262824
0.0002979743
0.001067839
-0.001711017
-0.000981565
0.0002426887
0.0009272412
0.0004881288
0
0
0
0
0
-0.0004044482
-0.0002634159
-0.0001659742
0.0001271053
0.0002408627
0.0004095138
0.000141074
-4.907006e-05
-0.000116574
-0.0002073171
-0.0001542064
7.136973e-06
0
0
0
0
0
0
0
0
0
0
0
0
0
0
0
2.126716e-06
2.055642e-06
2.606679e-06
0
0
0
0
0
0
0
0
0
0
0
0
0
0
0
-3.35502e-06
-1.095415e-06
5.901001e-07
-6.805069e-06
0
0
0
0
0
0
0
0
0
0
0
0
0
0
0
-6.928652e-07
-7.794164e-07
-2.129188e-06
4.487764e-06
-2.813333e-06
0
0
0
0
0
0
0
0
0
0
0
0
0
0
0
1.652565e-06
-2.436001e-06
1.137006e-06
3.51785e-08
-4.981947e-07
-4.793732e-06
0
0
0
0
0
0
0
0
0
0
0
0
0
0
0
-1.650283e-06
4.472314e-06
-7.266521e-06
2.284716e-07
1.771226e-06
2.275722e-05
-9.358647e-06
0
0
0
0
0
0
0
0
0
0
0
0
0
0
0
0
0
0
0
0
0
0
0
0
0
0
0
0
0
0
0
0
0
0
0
7.419031e-06
0.0003206179
-0.000572626
0.0004983857
0
0
0
0
0
0.0005498189
-0.001243517
0.0007521025
0.001484736
0.001264023
0
0
0
0
0
4.817112e-05
0.0006092125
0.001836803
0.001787749
-0.001367576
-0.0008154973
0
0
0
0
0
0.0002704716
1.326604e-05
0.003032224
0.001276449
0.001325352
0.00265672
0.001288153
0
0
0
0
0
-0.0002669068
0.001306472
-0.0007949651
3.396332e-05
0.0001589284
0.000532041
0.0007662409
-0.002558689
0
0
0
0
0
0.0005454136
-0.0004683693
0.0003887892
-0.001012572
-0.001772044
0.0005717826
0.001027073
6.765745e-05
-0.0006500662
0
0
0
0
0
-0.000146952
-0.0006467356
0.001608707
-6.097744e-05
-0.0006448502
-0.001521718
-0.001800419
-0.001012417
0.0003047766
0.002464343
0
0
0
0
0
-0.0001078005
0.001074551
0.002159563
-2.584592e-05
0.0008871916
-0.0007238781
-0.0002523953
-0.001209631
0.00180544
-0.002104109
0.0003420801
0
0
0
0
0
0.0003525546
-0.0004657464
-0.0003521743
0.0001060265
-0.002024219
-0.0004846557
-0.0008013315
-7.711911e-05
0.001222856
0.0008101836
-0.0006540191
-5.929593e-07
0
0
0
0
0
-0.0001781812
0.0005756923
-7.797148e-05
1.262363e-05
-0.0008821648
-0.0002034976
-0.0009928062
0.001557648
-0.0002414138
-0.0006832448
0.0002178652
-4.163833e-07
-3.846896e-07
0
0
0
0
0
0
0
0
0
0
0
0
0
0
0
-1.982575e-06
-4.377441e-06
1.536773e-06
-5.730008e-07
0
0
0
0
0
0
0
0
0
0
0
0
0
0
0
-1.076096e-06
4.06076e-06
-2.593125e-06
-4.247856e-06
7.589743e-06
0
0
0
0
0
0
0
0
0
0
0
0
0
0
0
7.444658e-08
-1.116103e-06
-4.982143e-06
2.696408e-06
4.862705e-06
2.872905e-05
0
0
0
0
0
0
0
0
0
0
0
0
0
0
0
2.063534e-06
-1.453302e-06
-1.084789e-06
-6.092473e-06
-2.636411e-06
2.503628e-06
4.362217e-05
0
0
0
0
0
0
0
0
0
0
0
0
0
0
0
-8.910038e-07
2.281796e-06
-9.335527e-07
3.916613e-06
-8.580042e-07
1.868528e-05
1.045344e-05
1.000544e-05
0
0
0
0
0
0
0
0
0
0
0
0
0
0
0
0
0
0
0
0
0
0
0
0
0
0
0
0
0
0
0
0
0
0
0
0
0
0
0
0
3.260084e-05
0.000360237
-0.0005850125
-0.0006579788
-0.000896351
0
0
0
0
0
-6.715287e-05
-0.0003699633
0.0001588535
-0.0003408347
-0.001239512
-0.0005136008
0
0
0
0
0
-0.0001482202
-0.002051214
-0.0002215457
0.0005650218
-0.001194764
-0.0008920735
0.001817903
0
0
0
0
0
0.0002705026
-0.0002597144
0.001526584
-0.001565373
-0.0001742866
0.0009302433
-0.001527588
0.0004938815
0
0
0
0
0
0.0005960575
-0.0003054767
-0.0004241285
-0.0001812771
-0.0002731577
-0.001312984
-0.001889161
-0.0001407
0.002178209
0
0
0
0
0
-0.0005696072
0.0001785478
0.0001258585
-0.0008926782
0.000210978
0.0004277102
0.0006608033
0.000160961
-0.001808431
-0.0004045835
0
0
0
0
0
-0.0005040959
-0.0006036562
0.0004889758
-0.0008229423
0.0002960088
0.0002434806
1.490194e-05
0.001673403
9.541407e-05
0.001477585
-0.0008745854
0
0
0
0
0
-0.0002794846
0.0009259359
-0.0006475941
-0.001348683
0.001682673
5.380945e-05
0.0001149869
0.001017967
-0.0005807539
-0.001350342
0.000393012
-3.691829e-06
0
0
0
0
0
0.0002395648
-0.0009110441
-0.000226937
0.0003949118
0.0008382684
0.002634967
0.001531371
-0.001576403
0.001334474
0.001244269
-1.635387e-05
-1.167343e-08
9.152287e-08
0
0
0
0
0
0.0004305051
0.001063035
-0.0004549297
9.94216e-05
-0.0001735615
0.001034593
0.0002959258
-0.0003786905
-0.0008342023
-0.0004108018
0.0002300493
-1.823475e-06
1.398238e-06
3.658172e-06
0
0
0
0
0
0
0
0
0
0
0
0
0
0
0
-1.057042e-07
-3.459989e-06
3.019273e-06
3.151639e-06
3.407496e-06
0
0
0
0
0
0
0
0
0
0
0
0
0
0
0
-2.754938e-07
2.713534e-06
-2.927664e-06
-2.791028e-06
3.304018e-06
-6.691327e-06
0
0
0
0
0
0
0
0
0
0
0
0
0
0
0
-1.646075e-06
2.382116e-06
6.457978e-07
-8.251521e-07
3.885215e-06
2.733912e-05
-1.286406e-05
0
0
0
0
0
0
0
0
0
0
0
0
0
0
0
-1.022229e-06
-4.872977e-07
5.049909e-06
3.535212e-06
5.390051e-07
-1.391759e-05
1.195735e-05
1.717719e-05
0
0
0
0
0
0
0
0
0
0
0
0
0
0
0
1.253074e-06
1.089394e-06
-2.286385e-06
3.076353e-06
-6.428793e-07
-1.947047e-05
-2.317115e-05
-1.517644e-05
-1.559837e-05
0
0
0
0
0
0
0
0
0
0
0
0
0
0
0
0
0
0
0
0
0
0
0
0
0
0
0
0
0
0
0
0
0
0
0
0
0
0
0
0
0
0
0
0
0
0.0002993849
6.030458e-05
-0.0002074877
0.0003082479
0.0008075009
0.000404948
0
0
0
0
0
-0.0003099636
0.00087259
0.0002817874
-0.0001540947
-7.587166e-05
0.001911684
-0.001721662
0
0
0
0
0
-0.0004587381
-0.001831002
0.0009567342
0.0003565859
-0.001483584
-3.273944e-05
0.001119311
-0.001007219
0
0
0
0
0
-0.0004513483
-0.000118794
-0.0006307933
0.001045842
0.0006045423
0.0002917569
0.0006134655
0.001025836
-0.0008664042
0
0
0
0
0
0.0009186023
-0.002023614
0.0004969088
0.0002178122
-0.001522751
0.001341625
-0.0002054944
0.0005333946
0.003214092
0.0009571139
0
0
0
0
0
4.709211e-05
0.00129054
0.000321962
-0.0008185466
-0.00054314
0.002507478
0.001273344
-0.001264393
0.000382356
0.001128472
-0.0004790463
0
0
0
0
0
-0.0002995343
0.0006728062
-0.002581852
0.001937519
-0.0005527644
0.0009663255
-0.001140364
-0.0004981271
0.0008588063
-0.0006568176
-0.0006796973
4.896868e-06
0
0
0
0
0
0.0003391148
0.001057786
-0.001371355
0.0009727654
-0.0006105782
-0.002298404
-0.001441572
0.001349414
-0.001401506
-0.00189744
0.0004538764
3.576648e-06
-3.900128e-08
0
0
0
0
0
0.0001137536
-0.001298913
0.001480432
-0.0002239685
0.002120265
-0.0027088
-0.001257513
0.0008924855
0.0002528362
-1.897168e-05
-0.0003023713
-1.38259e-06
8.050032e-09
1.664329e-06
0
0
0
0
0
0.0001302226
-0.0003235182
-0.0007234446
0.0001439579
-7.204439e-05
-6.674857e-05
-0.0005448889
-0.0006926225
-0.0003877341
0.0002552339
0.0002273955
-1.31695e-06
-1.39747e-06
2.321319e-08
-2.518315e-06
0
0
0
0
0
0
0
0
0
0
0
0
0
0
0
3.947529e-07
-2.460506e-06
-2.41664e-06
9.354281e-07
-5.214711e-08
-2.354068e-06
0
0
0
0
0
0
0
0
0
0
0
0
0
0
0
2.066275e-07
3.494682e-06
-1.532011e-06
-7.767646e-07
-3.560964e-06
-4.688228e-06
3.213819e-05
0
0
0
0
0
0
0
0
0
0
0
0
0
0
0
5.128153e-07
1.356728e-06
-4.370302e-07
-3.111995e-06
5.006384e-07
-2.401349e-05
-1.555875e-05
7.628415e-06
0
0
0
0
0
0
0
0
0
0
0
0
0
0
0
-1.324414e-06
-5.122204e-06
2.313785e-06
1.560714e-06
-1.271527e-06
8.428231e-06
3.431954e-05
7.511062e-06
-1.859317e-05
0
0
0
0
0
0
0
0
0
0
0
0
0
0
0
-1.225734e-06
-3.930541e-06
-8.505867e-07
-1.142584e-07
1.408062e-06
2.051665e-05
1.202188e-05
4.890514e-05
4.93665e-06
8.29194e-06
0
0
0
0
0
0
0
0
0
0
0
0
0
0
0
0
0
0
0
0
0
0
0
0
0
0
0
0
0
0
0
0
0
0
0
0
0
0
0
0
0
0
0
0
0
0
0
0
0
0
-0.0002122544
-0.0002620721
0.0003356665
-0.0002590149
-0.0001492117
-0.001215612
-0.0002209362
0
0
0
0
0
0.0005113885
0.002116971
-0.001328587
-0.0005623045
0.000635527
-0.0002078151
-0.0008268029
0.000739403
0
0
0
0
0
9.487142e-07
-0.001128637
0.00227004
0.0001247292
-2.505741e-06
0.0001005567
-0.0008914585
-0.001799683
0.001063378
0
0
0
0
0
-0.0007794165
0.002528241
-0.0001348698
-0.0008049076
-0.000423349
-0.002169581
-0.001175518
0.0007560899
-0.0007504295
-0.001392899
0
0
0
0
0
-0.000206735
-0.001349164
0.001345174
0.0006185447
0.0006747097
0.0009169151
-0.0008893354
0.001188291
-0.0002988247
-0.001831968
-0.0002256516
0
0
0
0
0
0.000114676
0.000628739
0.001332849
-0.002568809
-4.099231e-06
0.0003339648
0.0004555376
-0.0003072018
-0.0004506727
-0.0007144663
-3.465772e-05
3.042218e-06
0
0
0
0
0
0.000276613
0.001003488
-0.0008723377
0.0008271078
-0.0009384571
-8.402167e-06
-0.002261674
0.0007607256
-0.001018764
0.0003176509
0.0004791878
1.428626e-06
-2.066097e-06
0
0
0
0
0
-0.0002169729
0.0004718931
-0.001862106
8.434564e-05
-0.0009653617
0.0008194404
0.0003560712
0.0002058149
0.0003208079
-0.001007007
0.0009142368
1.965603e-06
2.64362e-06
-6.504564e-06
0
0
0
0
0
-0.000955949
0.0002792476
0.0001711518
-0.001362025
-0.0002798293
-0.001077006
0.002252857
0.002165177
-0.00022247
0.0003400094
-0.0002568774
6.04435e-07
-1.419047e-06
-2.026515e-06
-5.120122e-06
0
0
0
0
0
-0.0002574141
0.000574934
-0.0002261504
0.000502465
0.0001010094
-0.0003073559
-0.0001069317
0.0008528753
3.087434e-05
0.000421904
-0.0002005847
-1.966749e-06
1.035656e-07
-6.030537e-06
3.553634e-06
-7.360147e-06
0
0
0
0
0
0
0
0
0
0
0
0
0
0
0
2.497713e-06
-2.257337e-06
5.141761e-06
1.33969e-06
-1.033199e-06
-2.97634e-05
3.190043e-05
0
0
0
0
0
0
0
0
0
0
0
0
0
0
0
-4.095059e-06
-4.465646e-06
-2.585827e-06
2.326491e-06
-2.289881e-06
-7.196018e-07
2.323964e-05
-2.857728e-05
0
0
0
0
0
0
0
0
0
0
0
0
0
0
0
-4.530176e-07
-3.442929e-06
8.244605e-07
1.127542e-06
1.095863e-06
-1.936709e-05
3.636892e-05
3.940533e-05
1.310412e-06
0
0
0
0
0
0
0
0
0
0
0
0
0
0
0
-1.259454e-06
-3.405673e-06
7.818195e-07
-4.26019e-07
1.927726e-06
3.51894e-05
1.254887e-05
-2.483026e-06
-2.023408e-05
-4.452778e-06
0
0
0
0
0
0
0
0
0
0
0
0
0
0
0
-4.235302e-08
5.811229e-06
3.832296e-06
-4.781291e-06
1.787716e-07
1.473103e-05
-1.981611e-05
1.478706e-05
-3.618283e-05
-8.632544e-06
-62042.72
0
0
0
0
0
0
0
0
0
0
0
0
0
0
0
0
0
0
0
0
0
0
0
0
0
0
0
0
0
0
0
0
0
0
0
0
0
0
0
0
0
0
0
0
0
0
0
0
0
0
0
0
0
0
0
-0.0002904746
0.0002855347
0.000654282
-0.0001310472
-0.0003002874
-0.0002606344
0.000944409
0.0005921159
0
0
0
0
0
0.0002821409
0.001419824
0.0001605395
-0.0005627333
-0.0006015135
0.001497173
0.0004589385
-0.001473156
-0.0004039084
0
0
0
0
0
0.0005261235
-0.001777967
0.001472976
-0.001847548
0.001382665
0.001341128
0.002639326
-0.001479147
-0.0007652672
-0.0002716898
0
0
0
0
0
0.0002022301
0.0004825085
-0.001479312
4.604704e-05
2.17907e-05
-0.001894886
0.002266066
0.001335146
0.0001449013
-0.0003864334
0.0001538982
0
0
0
0
0
0.0001328399
-0.0008253547
0.0001648888
0.0004047543
-0.00144269
0.001357296
0.0001824954
-0.0006125855
0.0002057803
0.001173889
-0.0001729127
1.460978e-06
0
0
0
0
0
0.0001959733
-0.0001193143
0.0007621662
0.0006131725
0.001901854
0.0003330556
0.000240554
-0.00208664
-0.0004213487
-0.001023055
0.0001411211
-3.218511e-07
8.393511e-07
0
0
0
0
0
-0.0001162092
-0.001160535
-3.491283e-05
0.001449874
-9.140426e-05
0.00137362
-0.002143164
0.002402866
-0.0006011036
0.001667469
0.0002723978
-3.702318e-07
2.278526e-07
-2.041365e-07
0
0
0
0
0
0.0008548468
-0.0001589694
4.886819e-05
0.00115004
0.000649601
0.001142044
0.001192009
-0.001814941
-0.0005678455
-0.001486718
0.0003826271
-2.797174e-07
-1.607041e-06
-2.087023e-06
-4.361906e-07
0
0
0
0
0
-0.0001960678
0.00056922
0.0002113423
0.0003958385
0.001296678
-0.0006120267
0.0009962376
-0.003360752
0.001559154
-0.0002049372
-0.0002588154
4.013407e-06
-1.740476e-06
-3.858705e-06
-5.245691e-06
-2.050847e-05
0
0
0
0
0
-7.984532e-05
-0.0001105612
-0.0001489394
-0.000710281
-0.0005699844
-9.287385e-05
-0.0004287871
1.031393e-06
-0.0005160184
-0.0005507807
-0.000140686
9.760178e-07
7.005191e-07
-5.225989e-06
-2.28853e-06
-2.638531e-05
2.04726e-05
0
0
0
0
0
0
0
0
0
0
0
0
0
0
0
-6.651149e-07
-2.038561e-07
2.05765e-06
-3.211619e-06
1.698182e-06
7.048103e-06
2.916858e-05
-1.516257e-05
0
0
0
0
0
0
0
0
0
0
0
0
0
0
0
-1.236177e-07
1.643123e-06
-8.165114e-07
-5.777862e-08
-1.750575e-06
1.685351e-07
-2.021689e-05
-1.46902e-05
1.420132e-05
0
0
0
0
0
0
0
0
0
0
0
0
0
0
0
3.369613e-06
1.557049e-06
-3.844946e-07
-1.263756e-06
1.18778e-06
1.129012e-05
-1.953158e-06
-3.653619e-05
-2.726085e-05
-2.153434e-05
0
0
0
0
0
0
0
0
0
0
0
0
0
0
0
-3.989633e-06
-4.399829e-07
-1.080058e-06
-5.555174e-06
-2.276391e-07
-1.205026e-06
-2.86869e-05
-2.147505e-05
-2.43767e-05
6.025917e-06
-62590.45
0
0
0
0
0
0
0
0
0
0
0
0
0
0
0
-3.830212e-07
-5.75536e-07
2.512778e-06
-7.872168e-07
1.744997e-06
4.667571e-06
-1.272916e-05
1.900716e-05
-2.571212e-05
2.665753e-05
-57931.46
-62671
0
0
0
0
0
0
0
0
0
0
0
0
0
0
0
0
0
0
0
0
0
0
0
0
0
0
0
0
0
0
0
0
0
0
0
0
0
0
0
0
0
0
0
0
0
0
0
0
0
0
0
0
0
0
0
0
0
0
0
0
-8.18203e-05
-0.0002922789
-0.0006733081
8.143578e-05
0.001022025
-0.0005058696
0.0006889656
0.0002032682
-0.0008638027
0
0
0
0
0
-0.0001976772
0.0006593041
-0.0004479755
-0.00125088
-0.001418091
-0.0003519566
-0.003189427
0.0004316206
0.00189755
-0.000555384
0
0
0
0
0
0.0002126786
-0.000184443
0.002016823
-0.001292464
0.000885437
0.0002989403
-0.0007671603
-0.0007544688
0.000386023
0.0004624685
0.0003418413
0
0
0
0
0
1.568614e-05
0.002413121
0.0001663085
0.000724198
0.0005361549
-0.001518507
-2.21171e-05
0.0006334573
0.00021015
0.001581163
9.784186e-06
2.439796e-06
0
0
0
0
0
0.0004098582
0.0001815643
-0.0003132597
-0.0003441652
-0.0008912328
0.002375831
-0.001519821
0.003537225
0.001266188
6.541362e-05
-0.0004947874
-1.062158e-06
-2.238724e-06
0
0
0
0
0
0.0001300734
0.0001764462
-0.0005812217
-0.0005494036
-0.001632606
-0.0007183104
0.001155832
-0.0001056942
0.0005803541
0.0006226121
0.0006337279
-3.399161e-07
-1.126338e-06
-1.1378e-06
0
0
0
0
0
-0.0006128134
0.001101324
-0.0001005247
-0.0002541959
-0.001299567
0.001135632
-0.002560854
0.002032179
-0.001942032
0.000574571
-0.0003062645
-1.160466e-06
-2.017123e-06
-3.022154e-06
6.883416e-07
0
0
0
0
0
0.0008001615
-0.002640387
-0.000227056
-5.2397e-06
-0.001115142
-0.0006082728
-0.00258783
0.001853407
0.0004491363
1.638084e-05
0.0003281368
-9.929848e-07
-3.099017e-06
-5.280963e-07
-1.265601e-07
4.216494e-05
0
0
0
0
0
9.067395e-05
0.001247778
-0.0002828848
0.002329315
-0.0002943507
-0.0003579827
0.0008020928
-0.0004608648
0.001739695
-0.0009184473
0.0001128047
2.198605e-06
-2.890861e-07
1.389041e-06
-1.943466e-06
2.044398e-06
4.633186e-05
0
0
0
0
0
-0.0001043292
0.0009752856
-0.0001215128
-0.0007540912
0.0008799533
0.001147251
-0.0003508906
0.001086172
-0.0001751685
0.00026041
0.000266704
-1.605948e-06
-2.174407e-06
-3.468042e-06
-2.648127e-06
3.551194e-06
2.571583e-05
6.353638e-06
0
0
0
0
0
0
0
0
0
0
0
0
0
0
0
-2.254769e-06
2.126943e-06
1.563009e-06
-1.605509e-06
3.8001e-06
-1.677289e-05
-4.256322e-06
1.008043e-05
-3.591333e-06
0
0
0
0
0
0
0
0
0
0
0
0
0
0
0
1.198349e-06
2.347614e-08
-2.727421e-06
-3.538176e-06
4.329932e-07
-6.894401e-06
-8.68839e-06
2.373998e-05
2.785149e-05
-1.782958e-06
0
0
0
0
0
0
0
0
0
0
0
0
0
0
0
-7.183752e-08
1.234054e-06
-7.322601e-06
5.192065e-06
4.544381e-06
4.288613e-06
-7.42262e-06
4.203838e-05
2.49916e-05
2.059763e-05
-63706.97
0
0
0
0
0
0
0
0
0
0
0
0
0
0
0
-2.254581e-06
-1.503035e-06
1.678603e-06
-2.499638e-06
7.792529e-07
3.247479e-06
5.921579e-06
1.669643e-05
-2.196091e-06
8.026496e-06
-58298.2
-63229.44
0
0
0
0
0
0
0
0
0
0
0
0
0
0
0
-1.012435e-06
5.068541e-06
-2.452796e-06
1.61408e-06
1.759998e-06
-7.996378e-06
-6.219635e-08
1.397557e-05
-3.890776e-05
7.783373e-06
-54586.34
-58497.98
-64243.62
0
0
0
0
0
0
0
0
0
0
0
0
0
0
0
0
0
0
0
0
0
0
0
0
0
0
0
0
0
0
0
0
0
0
0
0
0
0
0
0
0
0
0
0
0
0
0
0
0
0
0
0
0
0
0
0
0
0
0
0
0
0
0
0
0
7.679634e-06
-0.0005343146
-0.0002630736
0.001006585
0.0008279187
-0.0009459494
0.0005133727
-0.0001448203
-0.0001019722
0.0007956591
0
0
0
0
0
-6.248602e-05
0.0009197633
0.001198498
0.001336084
-0.0001326189
0.0003370926
0.0009113057
0.000231725
0.000148695
0.0007442591
0.0004855494
0
0
0
0
0
0.0003662108
-0.0006070593
-0.0003322699
-0.001249359
-0.001066948
0.001167164
-0.001667102
-0.0003188633
-0.0009526947
-0.002204115
-0.0001210849
1.249067e-06
0
0
0
0
0
0.000571574
-0.00026048
-0.00023711
-0.001625112
-0.0008477922
0.000307076
0.001900646
-0.002167068
-0.003084042
-0.0006181599
-0.0005743456
-1.234925e-07
2.820195e-06
0
0
0
0
0
0.0003280002
-0.001677784
0.0002526893
0.0011693
0.0003155178
0.001325858
-0.001625843
0.0006828599
-0.002308731
-0.0001681204
-8.064886e-05
-8.505998e-07
2.018934e-06
3.172906e-06
0
0
0
0
0
0.0007003491
-0.001331582
0.001265456
0.001451925
-0.0008113162
-0.001507739
0.0006484427
0.001005386
0.0001622174
0.0003099297
-0.000163126
-2.967499e-06
2.242328e-06
-2.622546e-06
-5.689644e-07
0
0
0
0
0
-0.000637488
0.003228226
0.0005008714
0.002238626
0.0003018217
3.188246e-05
-0.0004321968
0.0003792071
-0.0009675849
0.000231381
0.000132446
-2.494067e-06
1.867008e-06
-2.418475e-06
2.06303e-06
1.064436e-05
0
0
0
0
0
0.0005903127
-0.0009753496
-0.0005229518
-0.003173815
-0.0002967697
0.0006011696
0.001147651
0.002346486
-0.001428139
0.001345433
-0.0002851125
2.57535e-06
-6.65447e-07
-3.427142e-06
2.781891e-06
3.29345e-05
-1.421919e-05
0
0
0
0
0
0.0009589736
-0.001100401
-0.001221518
0.0005195335
-0.002316217
-0.0003083848
0.0003549615
-0.001318006
-0.0005774861
-0.001178778
-0.0003531563
-1.694426e-06
2.416637e-06
2.267428e-06
1.635003e-06
1.142022e-06
2.789816e-05
-2.762402e-05
0
0
0
0
0
-0.0004707674
0.0006372126
-9.453649e-05
0.0002332972
1.678989e-06
-6.410625e-05
-0.000290979
2.441892e-05
-0.0003043146
0.0005160538
8.323816e-05
-1.935616e-06
-6.988892e-07
8.161266e-08
7.49639e-07
-4.449712e-05
-1.873739e-06
2.668433e-05
1.432492e-06
0
0
0
0
0
0
0
0
0
0
0
0
0
0
0
6.077713e-08
-2.767715e-06
3.281554e-06
2.546056e-06
9.867947e-08
2.72606e-05
2.684824e-05
1.491318e-05
-3.486389e-05
2.220528e-06
0
0
0
0
0
0
0
0
0
0
0
0
0
0
0
-5.645701e-07
7.164674e-08
1.348059e-06
-1.78777e-06
-6.630201e-07
-3.386912e-05
-7.086486e-07
1.065294e-05
-1.219654e-05
-9.006857e-06
-65370.55
0
0
0
0
0
0
0
0
0
0
0
0
0
0
0
3.581125e-06
-5.751044e-06
1.729949e-06
1.027377e-06
-2.428851e-07
9.727079e-06
-6.42968e-06
2.007798e-05
-3.010465e-05
-7.706216e-06
-59026.57
-64367.54
0
0
0
0
0
0
0
0
0
0
0
0
0
0
0
-2.839682e-08
5.147437e-06
-2.233597e-06
2.723508e-06
-7.744954e-07
-1.879712e-05
1.007102e-05
3.267813e-05
-1.841609e-05
1.789165e-05
-54875.37
-58872.28
-64827.41
0
0
0
0
0
0
0
0
0
0
0
0
0
0
0
4.633314e-07
1.384889e-06
4.824603e-06
-3.821768e-07
2.372829e-06
-1.790011e-05
3.000528e-06
-5.584295e-07
3.662475e-06
1.468126e-05
-51921.92
-55106.11
-59905.44
-66810
0
0
0
0
0
0
0
0
0
0
0
0
0
0
0
0
0
0
0
0
0
0
0
0
0
0
0
0
0
0
0
0
0
0
0
0
0
0
0
0
0
0
0
0
0
0
0
0
0
0
0
0
0
0
0
0
0
0
0
0
0
0
0
0
0
0
0
0
0
0
5.532989e-05
0.0001231375
-4.58678e-05
-8.318994e-05
7.622812e-05
-0.0001744478
0.0002523701
0.000346405
8.51517e-05
-0.0003778931
-0.0002780367
0
0
0
0
0
-0.0001495673
0.0001849896
-0.0006472093
0.0003126433
0.001535537
-0.0004802745
0.0008711578
0.001333149
0.001264831
0.0009926922
-0.0003975886
6.054652e-06
0
0
0
0
0
-8.024258e-05
0.000769432
-0.0003205213
0.001683324
-0.001068776
-0.0003770102
-0.001350749
0.002456674
0.002139137
0.001653855
0.0005039988
4.150048e-06
6.32229e-07
0
0
0
0
0
-0.0002052182
-0.0005647242
-0.001064195
3.459314e-05
0.0009634377
-0.0005060987
-0.0001297207
-0.001016539
0.001423278
0.0009700828
0.0004221812
-9.039043e-07
-1.236584e-06
-6.091493e-06
0
0
0
0
0
0.000200995
8.732013e-05
-0.0006439968
-0.000650129
0.0001629471
0.002720917
0.0001263679
-0.0007634213
0.00159602
0.001199675
0.0001274327
8.286324e-07
1.258649e-06
-1.74861e-06
-4.112004e-06
0
0
0
0
0
0.0001533051
-0.002628494
3.802064e-07
-0.002097877
-0.000883512
0.001682554
0.002704253
0.0007582103
-0.001417261
0.0002094599
-2.59094e-05
1.490067e-06
2.571261e-06
-1.318757e-06
-3.462148e-06
-2.566334e-05
0
0
0
0
0
0.0004357583
-0.001124572
0.001444927
-0.0001044467
0.000260937
1.989276e-05
0.0006608668
4.132155e-05
-0.001484432
0.000128515
-6.116792e-05
1.843014e-06
2.148066e-06
-6.96538e-07
1.358083e-07
3.684544e-06
-1.746467e-05
0
0
0
0
0
-0.0005096967
-0.001042254
0.0004817096
0.00029479
0.003530928
0.000571073
-0.001103203
-0.0004572662
-0.0001936859
0.00269002
9.546232e-05
3.440688e-06
-4.447043e-06
7.145468e-07
3.983749e-07
-2.813889e-06
-3.064189e-05
1.157943e-06
0
0
0
0
0
0.001112122
-0.002831522
-0.0006513623
0.00108055
-0.0001658113
-0.0003810428
-0.0006706604
0.0009327997
0.001687378
-7.296687e-05
0.0005829987
9.845277e-07
2.087555e-07
-2.200364e-06
-6.007766e-07
-3.714405e-06
-2.763616e-06
-3.858872e-05
-6.248281e-06
0
0
0
0
0
6.327866e-05
0.001372497
-0.0006981568
-0.0005684625
-0.0007179808
3.580519e-06
8.042329e-05
0.0006033924
-0.0005180343
-0.0001527272
-0.0002962506
2.220899e-06
1.220697e-06
-3.87253e-08
-2.825896e-06
-1.065341e-05
1.427763e-05
1.240957e-05
-2.300085e-05
-8.142077e-06
0
0
0
0
0
0
0
0
0
0
0
0
0
0
0
-2.14009e-06
-1.80809e-06
-2.350039e-06
8.156889e-07
3.264821e-06
2.525762e-06
-2.107681e-05
2.328125e-05
-2.384543e-05
1.939739e-05
-67489.81
0
0
0
0
0
0
0
0
0
0
0
0
0
0
0
4.609113e-06
1.305194e-06
4.031157e-06
1.388748e-08
-2.446397e-06
-2.379248e-05
3.232623e-05
3.152029e-05
-2.917792e-05
-6.183629e-06
-60052.59
-66062.87
0
0
0
0
0
0
0
0
0
0
0
0
0
0
0
6.927667e-07
5.027888e-06
-1.509052e-06
-2.288599e-07
-1.513916e-06
1.705901e-05
-2.502361e-06
1.426465e-05
-3.021102e-05
1.059959e-05
-55442.12
-59615.73
-66016.98
0
0
0
0
0
0
0
0
0
0
0
0
0
0
0
-8.388506e-06
-4.001557e-06
-3.511179e-06
6.767635e-07
4.957133e-07
1.261991e-05
2.530169e-05
-2.509711e-05
-2.818351e-05
1.626566e-06
-52164.93
-55401.23
-60297.14
-67435.06
0