/*--------------------------------*- C++ -*----------------------------------*\
| =========                 |                                                 |
| \\      /  F ield         | OpenFOAM: The Open Source CFD Toolbox           |
|  \\    /   O peration     | Version:  2306                                  |
|   \\  /    A nd           | Website:  www.openfoam.com                      |
|    \\/     M anipulation  |                                                 |
\*---------------------------------------------------------------------------*/
FoamFile
{
    version     2.0;
    format      ascii;
    arch        "LSB;label=32;scalar=64";
    class       volScalarField;
    location    "0.3";
    object      k;
}
// * * * * * * * * * * * * * * * * * * * * * * * * * * * * * * * * * * * * * //

dimensions      [1 1 -3 -1 0 0 0];

internalField   nonuniform List<scalar> 
52000
(
20
20
20
20
20
20
20
20
20
20
20
20
20
20
20
20
20
20
20
20
20
20
20
20
20
20
20
20
20
20
20
20
20
20
20
20
20
20
20
20
20
20
20
20
20
20
20
20
20
20
20
20
20
20
20
20
20
20
20
20
20
20
20
20
20
20
20
20
20
20
20
20
20
20
20
20
20
20
20
20
20
20
20
20
20
20
20
20
20
20
20
20
20
20
20
20
20
20
20
20
20
20
20
20
20
20
20
20
20
20
20
20
20
20
20
20
20
20
20
20
20
20
20
20
20
20
20
20
20
20
20
20
20
20
20
20
20
20
20
20
20
20
20
20
20
20
20
20
20
20
20
20
20
20
20
20
20
20
20
20
20
20
20
20
20
20
20
20
20
20
20
20
20
20
20
20
20
20
20
20
20
20
20
20
20
20
20
20
20
20
20
20
20
20
20
20
20
20
20
20
20
20
20
20
20
20
20
20
20
20
20
20
20
20
20
20
20
20
20
20
20
20
20
20
20
20
20
20
20
20
20
20
20
20
20
20
20
20
20
20
0.07440877
20
20
20
20
20
20
20
20
20
20
20
20
20
20
20
20
20
20
20
20
20
20
20
20
20
20
20
20
20
20
20
20
20
20
20
20
20
20
20
20
20
20
20
20
20
20
20
20
20
20
20
20
20
20
20
20
20
20
20
20
20
20
20
20
20
0.07402905
20
20
20
20
20
0.07485043
0.0740234
20
20
20
20
20
20
20
20
20
20
20
20
20
20
20
20
20
20
20
20
20
20
20
20
20
20
20
20
20
20
20
20
20
20
20
20
20
20
20
20
20
20
20
20
20
20
20
20
20
20
20
20
20
20
20
20
20
20
20
20
20
20
20
20
20
20
20
20
20
20
0.07382428
20
20
20
20
20
0.07474277
0.07310093
20
20
20
20
20
0.07496291
0.0747422
0.0738138
20
20
20
20
20
20
20
20
20
20
20
20
20
20
20
20
20
20
20
20
20
20
20
20
20
20
20
20
20
20
20
20
20
20
20
20
20
20
20
20
20
20
20
20
20
20
20
20
20
20
20
20
20
20
20
20
20
20
20
20
20
20
20
20
20
20
20
20
20
20
20
20
20
20
20
0.07371029
20
20
20
20
20
0.07465045
0.07253414
20
20
20
20
20
0.07491212
0.07442525
0.07252608
20
20
20
20
20
0.07505808
0.07491459
0.07464971
0.0736941
20
20
20
20
20
20
20
20
20
20
20
20
20
20
20
20
20
20
20
20
20
20
20
20
20
20
20
20
20
20
20
20
20
20
20
20
20
20
20
20
20
20
20
20
20
20
20
20
20
20
20
20
20
20
20
20
20
20
20
20
20
20
20
20
20
20
20
20
20
20
20
20
20
20
20
20
20
20
20
20
0.07365816
20
20
20
20
20
0.0745831
0.07219856
20
20
20
20
20
0.07486648
0.07414892
0.07167241
20
20
20
20
20
0.07503049
0.07476562
0.0741461
0.07217692
20
20
20
20
20
0.07514446
0.07503422
0.07487206
0.07458222
0.07363458
20
20
20
20
20
20
20
20
20
20
20
20
20
20
20
20
20
20
20
20
20
20
20
20
20
20
20
20
20
20
20
20
20
20
20
20
20
20
20
20
20
20
20
20
20
20
20
20
20
20
20
20
20
20
20
20
20
20
20
20
20
20
20
20
20
20
20
20
20
20
20
20
20
20
20
20
20
20
20
20
20
20
20
20
20
0.07365816
20
20
20
20
20
0.07454758
0.07204115
20
20
20
20
20
0.07483166
0.07394514
0.07114288
20
20
20
20
20
0.07500594
0.07463
0.07369802
0.07112388
20
20
20
20
20
0.07512742
0.07495553
0.07463243
0.07393653
0.07199778
20
20
20
20
20
0.07522435
0.07513151
0.07501415
0.07484117
0.07454676
0.07362507
20
20
20
20
20
20
20
20
20
20
20
20
20
20
20
20
20
20
20
20
20
20
20
20
20
20
20
20
20
20
20
20
20
20
20
20
20
20
20
20
20
20
20
20
20
20
20
20
20
20
20
20
20
20
20
20
20
20
20
20
20
20
20
20
20
20
20
20
20
0.3525336
20
20
20
20
20
20
20
20
20
20
20
20
20
20
20
20
20
20
20
20
0.07371029
20
20
20
20
20
0.07454758
0.07204115
20
20
20
20
20
0.07481275
0.07383697
0.07088806
20
20
20
20
20
0.07498725
0.07452566
0.07336326
0.07045053
20
20
20
20
20
0.07511261
0.07488437
0.07441085
0.07335379
0.0708345
20
20
20
20
20
0.07521254
0.07508469
0.07488902
0.07453034
0.07381962
0.07196651
20
20
20
20
20
0.07529878
0.0752166
0.07512158
0.0750012
0.07482746
0.07454796
0.07366562
20
20
20
20
20
20
20
20
20
20
20
20
20
20
20
20
20
20
20
20
20
20
20
20
20
20
20
20
20
20
20
20
20
20
20
20
20
20
20
20
20
20
20
20
20
20
20
20
20
20
20
20
20
20
20
20
20
0.3525275
20
20
20
20
20
20
20
20
20
20
20
20
20
20
20
0.352594
0.3525715
20
20
20
20
20
20
20
20
20
20
20
20
20
20
20
20
20
20
20
20
0.07382428
20
20
20
20
20
0.0745831
0.07219856
20
20
20
20
20
0.07481275
0.07383697
0.07088806
20
20
20
20
20
0.07497709
0.07446873
0.07318447
0.07012075
20
20
20
20
20
0.07510153
0.07482964
0.07423806
0.07291359
0.07007831
20
20
20
20
20
0.0752025
0.07504324
0.07477396
0.07423901
0.0731582
0.07078198
20
20
20
20
20
0.07528957
0.07518533
0.07504866
0.07484026
0.07447613
0.07380984
0.0720827
20
20
20
20
20
0.07536854
0.07529346
0.07521144
0.07511679
0.07499847
0.07483473
0.07458755
0.07376549
20
20
20
20
20
20
20
20
20
20
20
20
20
20
20
20
20
20
20
20
20
20
20
20
20
20
20
20
20
20
20
20
20
20
20
20
20
20
20
20
20
20
20
20
0.352515
20
20
20
20
20
20
20
20
20
20
20
20
20
20
20
0.3525895
0.3525647
20
20
20
20
20
20
20
20
20
20
20
20
20
20
20
0.3526516
0.3526293
0.3526103
20
20
20
20
20
20
20
20
20
20
20
20
20
20
20
20
20
20
20
20
0.07402905
20
20
20
20
20
0.07465045
0.07253414
20
20
20
20
20
0.07483166
0.07394514
0.07114288
20
20
20
20
20
0.07497709
0.07446873
0.07318447
0.07012075
20
20
20
20
20
0.07509556
0.07479973
0.07414315
0.07267709
0.0697044
20
20
20
20
20
0.07519512
0.07501193
0.07468433
0.07400957
0.07265524
0.07000908
20
20
20
20
20
0.07528189
0.07515829
0.07498302
0.0746903
0.07414415
0.07313684
0.07096673
20
20
20
20
20
0.07536073
0.07526981
0.07516383
0.07502473
0.07481847
0.07448131
0.07391152
0.07236612
20
20
20
20
20
0.0754342
0.07536441
0.0752905
0.0752104
0.07511894
0.07500821
0.07486443
0.07466494
0.07395115
20
20
20
20
20
20
20
20
20
20
20
20
20
20
20
20
20
20
20
20
20
20
20
20
20
20
20
20
20
20
0.3524943
20
20
20
20
20
20
20
20
20
20
20
20
20
20
20
0.3525806
0.3525504
20
20
20
20
20
20
20
20
20
20
20
20
20
20
20
0.3526476
0.3526249
0.352603
20
20
20
20
20
20
20
20
20
20
20
20
20
20
20
0.3527053
0.3526834
0.3526654
0.3526502
20
20
20
20
20
20
20
20
20
20
20
20
20
20
20
20
20
20
20
20
0.07440877
20
20
20
20
20
0.07474277
0.07310093
20
20
20
20
20
0.07486648
0.07414892
0.07167241
20
20
20
20
20
0.07498725
0.07452566
0.07336326
0.07045053
20
20
20
20
20
0.07509556
0.07479973
0.07414315
0.07267709
0.0697044
20
20
20
20
20
0.07519119
0.07499501
0.074635
0.07388284
0.07238398
0.06962603
20
20
20
20
20
0.07527633
0.07513828
0.07493279
0.07457225
0.07388105
0.07262406
0.07024469
20
20
20
20
20
0.07535428
0.07524978
0.07512198
0.07494071
0.07464917
0.07414608
0.07329656
0.0714104
20
20
20
20
20
0.07542718
0.07534472
0.07525518
0.07515153
0.0750179
0.07483014
0.07454925
0.07411933
0.07286709
20
20
20
20
20
0.0754962
0.07543065
0.07536246
0.07529109
0.07521462
0.07512933
0.07503142
0.07491596
0.07477867
0.07429626
20
20
20
20
20
20
20
20
20
20
20
20
20
20
20
0.3524563
20
20
20
20
20
20
20
20
20
20
20
20
20
20
20
0.3525672
0.3525253
20
20
20
20
20
20
20
20
20
20
20
20
20
20
20
0.3526398
0.352616
0.3525873
20
20
20
20
20
20
20
20
20
20
20
20
20
20
20
0.3527016
0.3526796
0.3526609
0.3526425
20
20
20
20
20
20
20
20
20
20
20
20
20
20
20
0.3527557
0.3527337
0.3527157
0.3527021
0.3526912
20
20
20
20
20
20
20
20
20
20
20
20
20
20
20
20
20
20
20
20
20
20
20
20
20
0.07485043
0.0740234
20
20
20
20
20
0.07491212
0.07442525
0.07252608
20
20
20
20
20
0.07500594
0.07463
0.07369802
0.07112388
20
20
20
20
20
0.07510153
0.07482964
0.07423806
0.07291359
0.07007831
20
20
20
20
20
0.07519119
0.07499501
0.074635
0.07388284
0.07238398
0.06962603
20
20
20
20
20
0.07527341
0.07512761
0.07490543
0.07450686
0.07373519
0.07234717
0.06988845
20
20
20
20
20
0.07534966
0.07523526
0.07509064
0.07487567
0.07451491
0.07387967
0.07282899
0.07080435
20
20
20
20
20
0.07542142
0.07532828
0.07522485
0.0750991
0.0749247
0.07466156
0.07424981
0.07362513
0.07216297
20
20
20
20
20
0.07548969
0.07541314
0.07533344
0.07524824
0.07515142
0.07503176
0.07487752
0.07467534
0.07441927
0.07369895
20
20
20
20
20
0.07555491
0.07549297
0.07542918
0.07536374
0.07529607
0.07522497
0.07514873
0.0750683
0.07498896
0.07493289
0.3523009
20
20
20
20
20
20
20
20
20
20
20
20
20
20
20
0.3525502
0.3524774
20
20
20
20
20
20
20
20
20
20
20
20
20
20
20
0.3526283
0.3526031
0.3525597
20
20
20
20
20
20
20
20
20
20
20
20
20
20
20
0.3526944
0.3526723
0.3526521
0.3526261
20
20
20
20
20
20
20
20
20
20
20
20
20
20
20
0.3527523
0.3527303
0.3527122
0.3526977
0.3526834
20
20
20
20
20
20
20
20
20
20
20
20
20
20
20
0.3528035
0.3527812
0.3527626
0.3527487
0.3527395
0.6301233
20
20
20
20
20
20
20
20
20
20
20
20
20
20
20
20
20
20
20
20
20
20
20
20
20
20
20
20
20
20
0.07496291
0.0747422
0.0738138
20
20
20
20
20
0.07503049
0.07476562
0.0741461
0.07217692
20
20
20
20
20
0.07511261
0.07488437
0.07441085
0.07335379
0.0708345
20
20
20
20
20
0.07519512
0.07501193
0.07468433
0.07400957
0.07265524
0.07000908
20
20
20
20
20
0.07527341
0.07512761
0.07490543
0.07450686
0.07373519
0.07234717
0.06988845
20
20
20
20
20
0.07534725
0.07522763
0.07507382
0.07484
0.07444012
0.07373176
0.07257686
0.07050851
20
20
20
20
20
0.07541732
0.07531654
0.07520264
0.0750594
0.0748519
0.0745272
0.07401165
0.07325093
0.07172879
20
20
20
20
20
0.07548436
0.07539865
0.07530893
0.07521102
0.07509452
0.07494088
0.07473051
0.07444479
0.07409148
0.07332583
20
20
20
20
20
0.07554876
0.0754768
0.07540356
0.07532899
0.075251
0.07516571
0.07506792
0.07495881
0.07484965
0.07479096
0.3521438
20
20
20
20
20
0.07561062
0.07555187
0.07549172
0.07543071
0.07536893
0.07530609
0.07524209
0.07517782
0.07512039
0.07509182
0.3525489
0.352357
20
20
20
20
20
20
20
20
20
20
20
20
20
20
20
0.3526158
0.3525875
0.3525099
20
20
20
20
20
20
20
20
20
20
20
20
20
20
20
0.3526839
0.3526624
0.3526393
0.3525975
20
20
20
20
20
20
20
20
20
20
20
20
20
20
20
0.3527454
0.3527238
0.3527053
0.3526889
0.3526666
20
20
20
20
20
20
20
20
20
20
20
20
20
20
20
0.3528001
0.352778
0.3527595
0.3527452
0.3527351
0.6301188
20
20
20
20
20
20
20
20
20
20
20
20
20
20
20
0.3528487
0.3528264
0.3528071
0.3527921
0.3527821
0.6301496
0.630125
20
20
20
20
20
20
20
20
20
20
20
20
20
20
20
20
20
20
20
20
20
20
20
20
20
20
20
20
20
20
20
20
20
20
20
0.07505808
0.07491459
0.07464971
0.0736941
20
20
20
20
20
0.07512742
0.07495553
0.07463243
0.07393653
0.07199778
20
20
20
20
20
0.0752025
0.07504324
0.07477396
0.07423901
0.0731582
0.07078198
20
20
20
20
20
0.07527633
0.07513828
0.07493279
0.07457225
0.07388105
0.07262406
0.07024469
20
20
20
20
20
0.07534725
0.07522763
0.07507382
0.07484
0.07444012
0.07373176
0.07257686
0.07050851
20
20
20
20
20
0.07541519
0.07531043
0.0751909
0.07503793
0.07481176
0.07445216
0.07387941
0.0730497
0.07151964
20
20
20
20
20
0.07548058
0.07538839
0.07529129
0.0751835
0.07505101
0.07486933
0.07461268
0.07426079
0.07384294
0.07309752
20
20
20
20
20
0.07554373
0.07546348
0.07538214
0.07529936
0.07521144
0.07511166
0.07499121
0.07485078
0.07470786
0.07464661
0.3520222
20
20
20
20
20
0.07560475
0.07553662
0.07546815
0.07540025
0.07533289
0.07526497
0.07519567
0.07512634
0.07507038
0.07506266
0.3525186
0.3522293
20
20
20
20
20
0.07566356
0.07560771
0.07555074
0.07549333
0.07543585
0.07537854
0.0753217
0.07526683
0.07521905
0.07519846
0.3526413
0.3525779
0.3524139
20
20
20
20
20
20
20
20
20
20
20
20
20
20
20
0.3526732
0.352654
0.3526239
0.3525496
20
20
20
20
20
20
20
20
20
20
20
20
20
20
20
0.3527355
0.3527152
0.3526963
0.352676
0.3526383
20
20
20
20
20
20
20
20
20
20
20
20
20
20
20
0.3527936
0.3527719
0.3527535
0.3527387
0.3527263
0.6301094
20
20
20
20
20
20
20
20
20
20
20
20
20
20
20
0.3528455
0.3528233
0.3528042
0.3527891
0.3527788
0.6301471
0.6301206
20
20
20
20
20
20
20
20
20
20
20
20
20
20
20
0.3528916
0.3528695
0.3528498
0.3528335
0.352822
0.6301727
0.6301512
0.6301268
20
20
20
20
20
20
20
20
20
20
20
20
20
20
20
20
20
20
20
20
20
20
20
20
20
20
20
20
20
20
20
20
20
20
20
20
20
20
20
20
0.07514446
0.07503422
0.07487206
0.07458222
0.07363458
20
20
20
20
20
0.07521254
0.07508469
0.07488902
0.07453034
0.07381962
0.07196651
20
20
20
20
20
0.07528189
0.07515829
0.07498302
0.0746903
0.07414415
0.07313684
0.07096673
20
20
20
20
20
0.07534966
0.07523526
0.07509064
0.07487567
0.07451491
0.07387967
0.07282899
0.07080435
20
20
20
20
20
0.07541519
0.07531043
0.0751909
0.07503793
0.07481176
0.07445216
0.07387941
0.0730497
0.07151964
20
20
20
20
20
0.07547862
0.07538309
0.07528207
0.07516885
0.07502733
0.0748297
0.07454677
0.07415855
0.07370942
0.07298759
20
20
20
20
20
0.07554016
0.07545409
0.07536689
0.07527785
0.07518192
0.07506988
0.07493007
0.07476274
0.07459229
0.07453344
0.3519412
20
20
20
20
20
0.07559995
0.07552408
0.07544854
0.07537459
0.07530187
0.07522834
0.07515198
0.07507376
0.07501113
0.07501149
0.3524805
0.3521262
20
20
20
20
20
0.07565794
0.07559317
0.07552853
0.07546539
0.0754045
0.07534629
0.07529122
0.07524201
0.07520685
0.07521107
0.352643
0.3525519
0.3523102
20
20
20
20
20
0.07571395
0.07566076
0.07560664
0.07555233
0.07549833
0.07544504
0.07539308
0.07534381
0.07530194
0.07528373
0.3527053
0.3526658
0.3526098
0.3524717
20
20
20
20
20
20
20
20
20
20
20
20
20
20
20
0.3527255
0.3527092
0.3526889
0.35266
0.3525939
20
20
20
20
20
20
20
20
20
20
20
20
20
20
20
0.3527841
0.3527639
0.3527461
0.35273
0.3527132
0.6300935
20
20
20
20
20
20
20
20
20
20
20
20
20
20
20
0.3528391
0.3528175
0.3527987
0.3527835
0.3527723
0.6301421
0.6301111
20
20
20
20
20
20
20
20
20
20
20
20
20
20
20
0.3528885
0.3528665
0.352847
0.3528308
0.3528191
0.6301708
0.6301487
0.6301223
20
20
20
20
20
20
20
20
20
20
20
20
20
20
20
0.3529324
0.3529106
0.3528907
0.3528736
0.3528604
0.6301943
0.6301741
0.6301528
0.6301285
20
20
20
20
20
20
20
20
20
20
20
20
20
20
20
20
20
20
20
20
20
20
20
20
20
20
20
20
20
20
20
20
20
20
20
20
20
20
20
20
20
20
20
20
20
0.07522435
0.07513151
0.07501415
0.07484117
0.07454676
0.07362507
20
20
20
20
20
0.07528957
0.07518533
0.07504866
0.07484026
0.07447613
0.07380984
0.0720827
20
20
20
20
20
0.07535428
0.07524978
0.07512198
0.07494071
0.07464917
0.07414608
0.07329656
0.0714104
20
20
20
20
20
0.07541732
0.07531654
0.07520264
0.0750594
0.0748519
0.0745272
0.07401165
0.07325093
0.07172879
20
20
20
20
20
0.07547862
0.07538309
0.07528207
0.07516885
0.07502733
0.0748297
0.07454677
0.07415855
0.07370942
0.07298759
20
20
20
20
20
0.07553831
0.07544926
0.07535899
0.07526655
0.07516611
0.07504701
0.07489598
0.07471313
0.07452764
0.07447189
0.3519008
20
20
20
20
20
0.07559654
0.07551526
0.07543466
0.07535619
0.07527918
0.07520067
0.0751175
0.07503021
0.07495947
0.07496447
0.3524485
0.3520561
20
20
20
20
20
0.07565333
0.07558121
0.0755101
0.07544199
0.07537788
0.07531812
0.07526292
0.07521508
0.07518382
0.07519881
0.3526339
0.3525205
0.352224
20
20
20
20
20
0.07570854
0.07564681
0.07558546
0.07552604
0.07546966
0.07541727
0.07537016
0.07533081
0.0753061
0.07531203
0.3527181
0.3526659
0.3525865
0.3523879
20
20
20
20
20
0.07576195
0.07571125
0.07565975
0.0756082
0.07555716
0.07550714
0.07545877
0.07541346
0.07537519
0.07535842
0.3527578
0.352727
0.3526922
0.3526432
0.3525302
20
20
20
20
20
20
20
20
20
20
20
20
20
20
20
0.3527745
0.3527588
0.3527414
0.352722
0.3526964
0.6300694
20
20
20
20
20
20
20
20
20
20
20
20
20
20
20
0.35283
0.35281
0.3527919
0.3527765
0.3527635
0.6301345
0.6300953
20
20
20
20
20
20
20
20
20
20
20
20
20
20
20
0.3528824
0.3528609
0.3528418
0.3528256
0.3528136
0.6301671
0.6301437
0.6301129
20
20
20
20
20
20
20
20
20
20
20
20
20
20
20
0.3529294
0.3529078
0.352888
0.352871
0.3528577
0.6301926
0.6301722
0.6301503
0.6301241
20
20
20
20
20
20
20
20
20
20
20
20
20
20
20
0.3529713
0.3529499
0.35293
0.3529124
0.3528979
0.6302152
0.6301956
0.6301755
0.6301544
0.6301303
20
20
20
20
20
20
20
20
20
20
20
20
20
20
20
20
20
20
20
20
20
20
20
20
20
20
20
20
20
20
20
20
20
20
20
20
20
20
20
20
20
20
20
20
20
20
20
20
20
20
0.07529878
0.0752166
0.07512158
0.0750012
0.07482746
0.07454796
0.07366562
20
20
20
20
20
0.07536073
0.07526981
0.07516383
0.07502473
0.07481847
0.07448131
0.07391152
0.07236612
20
20
20
20
20
0.07542142
0.07532828
0.07522485
0.0750991
0.0749247
0.07466156
0.07424981
0.07362513
0.07216297
20
20
20
20
20
0.07548058
0.07538839
0.07529129
0.0751835
0.07505101
0.07486933
0.07461268
0.07426079
0.07384294
0.07309752
20
20
20
20
20
0.07553831
0.07544926
0.07535899
0.07526655
0.07516611
0.07504701
0.07489598
0.07471313
0.07452764
0.07447189
0.3519008
20
20
20
20
20
0.07559478
0.07551073
0.0754275
0.07534662
0.0752672
0.07518575
0.0750984
0.07500551
0.07492962
0.07493713
0.3524305
0.3520208
20
20
20
20
20
0.07565005
0.07557281
0.0754971
0.07542534
0.07535866
0.07529725
0.0752409
0.0751922
0.07516114
0.07518198
0.3526231
0.3524941
0.3521644
20
20
20
20
20
0.07570409
0.07563533
0.07556791
0.07550409
0.07544549
0.07539335
0.07534914
0.07531547
0.07529928
0.0753159
0.3527204
0.3526585
0.3525602
0.3523169
20
20
20
20
20
0.07575673
0.07569782
0.07563942
0.07558313
0.07553021
0.07548183
0.07543946
0.07540566
0.07538572
0.07539193
0.3527742
0.3527362
0.3526901
0.3526217
0.3524632
20
20
20
20
20
0.07580771
0.07575934
0.07571028
0.07566126
0.07561287
0.07556562
0.0755202
0.0754779
0.07544236
0.07542628
0.3528047
0.3527774
0.35275
0.3527194
0.3526776
0.6300366
20
20
20
20
20
20
20
20
20
20
20
20
20
20
20
0.3528206
0.3528051
0.3527882
0.3527713
0.3527542
0.6301247
0.6300713
20
20
20
20
20
20
20
20
20
20
20
20
20
20
20
0.3528735
0.3528536
0.3528354
0.3528194
0.3528066
0.630162
0.6301361
0.6300971
20
20
20
20
20
20
20
20
20
20
20
20
20
20
20
0.3529234
0.3529023
0.352883
0.3528662
0.3528528
0.6301895
0.6301685
0.6301453
0.6301147
20
20
20
20
20
20
20
20
20
20
20
20
20
20
20
0.3529684
0.3529471
0.3529274
0.3529099
0.3528954
0.6302137
0.6301939
0.6301736
0.6301519
0.6301259
20
20
20
20
20
20
20
20
20
20
20
20
20
20
20
0.3530083
0.3529875
0.3529678
0.3529499
0.3529344
0.6302358
0.6302164
0.6301969
0.630177
0.630156
0.7225991
20
20
20
20
20
20
20
20
20
20
20
20
20
20
20
20
20
20
20
20
20
20
20
20
20
20
20
20
20
20
20
20
20
20
20
20
20
20
20
20
20
20
20
20
20
20
20
20
20
20
20
20
20
20
20
0.07536854
0.07529346
0.07521144
0.07511679
0.07499847
0.07483473
0.07458755
0.07376549
20
20
20
20
20
0.07542718
0.07534472
0.07525518
0.07515153
0.0750179
0.07483014
0.07454925
0.07411933
0.07286709
20
20
20
20
20
0.07548436
0.07539865
0.07530893
0.07521102
0.07509452
0.07494088
0.07473051
0.07444479
0.07409148
0.07332583
20
20
20
20
20
0.07554016
0.07545409
0.07536689
0.07527785
0.07518192
0.07506988
0.07493007
0.07476274
0.07459229
0.07453344
0.3519412
20
20
20
20
20
0.07559478
0.07551073
0.0754275
0.07534662
0.0752672
0.07518575
0.0750984
0.07500551
0.07492962
0.07493713
0.3524305
0.3520208
20
20
20
20
20
0.07564836
0.07556849
0.0754904
0.07541671
0.07534861
0.07528614
0.07522883
0.0751791
0.07514747
0.0751711
0.3526164
0.3524792
0.3521341
20
20
20
20
20
0.07570094
0.07562728
0.07555554
0.07548852
0.07542817
0.07537586
0.07533302
0.07530204
0.07528978
0.07531223
0.3527188
0.35265
0.3525383
0.3522671
20
20
20
20
20
0.07575244
0.07568676
0.07562258
0.07556223
0.07550755
0.07546019
0.07542194
0.07539553
0.07538573
0.07540237
0.3527809
0.3527382
0.3526835
0.3525994
0.352406
20
20
20
20
20
0.07580267
0.07574639
0.0756907
0.07563719
0.07558716
0.07554183
0.07550274
0.07547223
0.07545494
0.07546036
0.3528217
0.3527896
0.3527554
0.352715
0.3526574
0.6300028
20
20
20
20
20
0.07585134
0.07580519
0.07575841
0.07571175
0.07566578
0.07562102
0.07557814
0.07553836
0.07550498
0.07548955
0.352848
0.3528227
0.3527981
0.3527736
0.352747
0.6301135
0.630039
20
20
20
20
20
20
20
20
20
20
20
20
20
20
20
0.3528642
0.3528487
0.352832
0.3528154
0.3528001
0.6301561
0.6301263
0.6300733
20
20
20
20
20
20
20
20
20
20
20
20
20
20
20
0.3529148
0.3528952
0.3528769
0.3528604
0.3528466
0.6301854
0.6301634
0.6301377
0.630099
20
20
20
20
20
20
20
20
20
20
20
20
20
20
20
0.3529625
0.3529419
0.3529226
0.3529052
0.3528907
0.6302109
0.6301908
0.63017
0.6301469
0.6301165
20
20
20
20
20
20
20
20
20
20
20
20
20
20
20
0.3530055
0.3529848
0.3529653
0.3529474
0.352932
0.6302344
0.6302149
0.6301952
0.6301751
0.6301535
0.7225958
20
20
20
20
20
20
20
20
20
20
20
20
20
20
20
0.3530437
0.3530234
0.3530041
0.3529861
0.3529701
0.630256
0.6302369
0.6302176
0.6301982
0.6301784
0.7226182
0.7226002
20
20
20
20
20
20
20
20
20
20
20
20
20
20
20
20
20
20
20
20
20
20
20
20
20
20
20
20
20
20
20
20
20
20
20
20
20
20
20
20
20
20
20
20
20
20
20
20
20
20
20
20
20
20
20
20
20
20
20
20
0.0754342
0.07536441
0.0752905
0.0752104
0.07511894
0.07500821
0.07486443
0.07466494
0.07395115
20
20
20
20
20
0.07548969
0.07541314
0.07533344
0.07524824
0.07515142
0.07503176
0.07487752
0.07467534
0.07441927
0.07369895
20
20
20
20
20
0.07554373
0.07546348
0.07538214
0.07529936
0.07521144
0.07511166
0.07499121
0.07485078
0.07470786
0.07464661
0.3520222
20
20
20
20
20
0.07559654
0.07551526
0.07543466
0.07535619
0.07527918
0.07520067
0.0751175
0.07503021
0.07495947
0.07496447
0.3524485
0.3520561
20
20
20
20
20
0.07564836
0.07556849
0.0754904
0.07541671
0.07534861
0.07528614
0.07522883
0.0751791
0.07514747
0.0751711
0.3526164
0.3524792
0.3521341
20
20
20
20
20
0.07569931
0.07562314
0.07554918
0.07548047
0.07541916
0.07536665
0.07532428
0.07529429
0.07528352
0.07530874
0.3527171
0.3526446
0.3525261
0.3522417
20
20
20
20
20
0.07574939
0.075679
0.07561071
0.07554742
0.07549139
0.07544451
0.07540867
0.07538644
0.075382
0.07540439
0.352783
0.3527372
0.3526765
0.3525813
0.3523654
20
20
20
20
20
0.07579852
0.07573572
0.07567448
0.07561713
0.07556558
0.07552156
0.07548701
0.07546439
0.07545764
0.07547297
0.3528299
0.3527952
0.3527565
0.3527087
0.3526383
0.6299739
20
20
20
20
20
0.07584647
0.07579268
0.07573952
0.07568856
0.07564107
0.0755983
0.07556171
0.07553352
0.07551774
0.07552242
0.3528644
0.3528354
0.352806
0.3527754
0.3527403
0.6301022
0.6300056
20
20
20
20
20
0.07589296
0.07584892
0.0758043
0.07575985
0.07571613
0.07567365
0.07563305
0.0755955
0.07556403
0.07554918
0.3528889
0.3528648
0.3528416
0.3528191
0.3527972
0.6301509
0.630115
0.6300413
20
20
20
20
20
20
20
20
20
20
20
20
20
20
20
0.3529057
0.3528902
0.3528734
0.3528567
0.3528413
0.6301812
0.6301575
0.6301278
0.6300753
20
20
20
20
20
20
20
20
20
20
20
20
20
20
20
0.3529541
0.3529349
0.3529166
0.3528997
0.352885
0.6302073
0.6301867
0.6301648
0.6301393
0.6301008
20
20
20
20
20
20
20
20
20
20
20
20
20
20
20
0.3529998
0.3529797
0.3529606
0.352943
0.3529276
0.6302318
0.6302121
0.6301921
0.6301714
0.6301485
0.7225887
20
20
20
20
20
20
20
20
20
20
20
20
20
20
20
0.3530409
0.3530208
0.3530016
0.3529838
0.3529678
0.6302547
0.6302355
0.6302161
0.6301965
0.6301765
0.7226163
0.7225969
20
20
20
20
20
20
20
20
20
20
20
20
20
20
20
0.3530774
0.3530579
0.353039
0.3530211
0.3530048
0.6302758
0.630257
0.630238
0.6302188
0.6301995
0.7226349
0.7226192
0.722601
20
20
20
20
20
20
20
20
20
20
20
20
20
20
20
20
20
20
20
20
20
20
20
20
20
20
20
20
20
20
20
20
20
20
20
20
20
20
20
20
20
20
20
20
20
20
20
20
20
20
20
20
20
20
20
20
20
20
20
20
20
20
20
20
20
0.0754962
0.07543065
0.07536246
0.07529109
0.07521462
0.07512933
0.07503142
0.07491596
0.07477867
0.07429626
20
20
20
20
20
0.07554876
0.0754768
0.07540356
0.07532899
0.075251
0.07516571
0.07506792
0.07495881
0.07484965
0.07479096
0.3521438
20
20
20
20
20
0.07559995
0.07552408
0.07544854
0.07537459
0.07530187
0.07522834
0.07515198
0.07507376
0.07501113
0.07501149
0.3524805
0.3521262
20
20
20
20
20
0.07565005
0.07557281
0.0754971
0.07542534
0.07535866
0.07529725
0.0752409
0.0751922
0.07516114
0.07518198
0.3526231
0.3524941
0.3521644
20
20
20
20
20
0.07569931
0.07562314
0.07554918
0.07548047
0.07541916
0.07536665
0.07532428
0.07529429
0.07528352
0.07530874
0.3527171
0.3526446
0.3525261
0.3522417
20
20
20
20
20
0.07574782
0.07567502
0.07560461
0.07553978
0.075483
0.07543629
0.07540153
0.07538115
0.07537905
0.07540416
0.3527834
0.3527359
0.3526721
0.3525713
0.3523446
20
20
20
20
20
0.07579557
0.07572823
0.07566305
0.07560293
0.07555021
0.07550694
0.07547518
0.07545725
0.07545637
0.07547722
0.3528335
0.3527972
0.3527556
0.3527026
0.3526234
0.6299534
20
20
20
20
20
0.07584246
0.07578237
0.07572387
0.07566924
0.07562035
0.07557897
0.07554697
0.07552668
0.07552127
0.07553536
0.3528729
0.3528423
0.3528101
0.3527752
0.3527338
0.6300921
0.6299771
20
20
20
20
20
0.07588825
0.07583683
0.07578606
0.07573747
0.07569232
0.07565179
0.07561731
0.07559093
0.07557626
0.07558023
0.3529043
0.352877
0.3528501
0.3528231
0.3527956
0.6301464
0.6301038
0.6300084
20
20
20
20
20
0.07593264
0.07589063
0.07584807
0.07580572
0.07576411
0.07572375
0.07568527
0.07564974
0.07562001
0.07560581
0.3529278
0.3529046
0.3528822
0.3528606
0.35284
0.6301782
0.6301521
0.6301166
0.6300437
20
20
20
20
20
20
20
20
20
20
20
20
20
20
20
0.3529451
0.3529298
0.352913
0.3528961
0.3528802
0.6302038
0.6301825
0.6301589
0.6301294
0.6300773
20
20
20
20
20
20
20
20
20
20
20
20
20
20
20
0.3529916
0.3529728
0.3529547
0.3529376
0.3529221
0.6302284
0.6302085
0.630188
0.6301662
0.6301409
0.722577
20
20
20
20
20
20
20
20
20
20
20
20
20
20
20
0.3530354
0.3530158
0.352997
0.3529794
0.3529635
0.6302522
0.6302329
0.6302133
0.6301935
0.6301728
0.7226126
0.7225899
20
20
20
20
20
20
20
20
20
20
20
20
20
20
20
0.3530747
0.3530553
0.3530366
0.3530188
0.3530025
0.6302745
0.6302557
0.6302366
0.6302173
0.6301979
0.7226335
0.7226174
0.7225978
20
20
20
20
20
20
20
20
20
20
20
20
20
20
20
0.3531097
0.3530909
0.3530725
0.3530549
0.3530385
0.6302951
0.6302767
0.630258
0.6302391
0.63022
0.7226506
0.7226358
0.72262
0.7226016
20
20
20
20
20
20
20
20
20
20
20
20
20
20
20
20
20
20
20
20
20
20
20
20
20
20
20
20
20
20
20
20
20
20
20
20
20
20
20
20
20
20
20
20
20
20
20
20
20
20
20
20
20
20
20
20
20
20
20
20
20
20
20
20
20
20
20
20
20
20
0.07555491
0.07549297
0.07542918
0.07536374
0.07529607
0.07522497
0.07514873
0.0750683
0.07498896
0.07493289
0.3523009
20
20
20
20
20
0.07560475
0.07553662
0.07546815
0.07540025
0.07533289
0.07526497
0.07519567
0.07512634
0.07507038
0.07506266
0.3525186
0.3522293
20
20
20
20
20
0.07565333
0.07558121
0.0755101
0.07544199
0.07537788
0.07531812
0.07526292
0.07521508
0.07518382
0.07519881
0.3526339
0.3525205
0.352224
20
20
20
20
20
0.07570094
0.07562728
0.07555554
0.07548852
0.07542817
0.07537586
0.07533302
0.07530204
0.07528978
0.07531223
0.3527188
0.35265
0.3525383
0.3522671
20
20
20
20
20
0.07574782
0.07567502
0.07560461
0.07553978
0.075483
0.07543629
0.07540153
0.07538115
0.07537905
0.07540416
0.3527834
0.3527359
0.3526721
0.3525713
0.3523446
20
20
20
20
20
0.07579405
0.07572438
0.07565717
0.07559561
0.07554225
0.07549929
0.07546885
0.07545308
0.07545486
0.07547833
0.3528348
0.3527977
0.3527547
0.3526991
0.3526153
0.6299428
20
20
20
20
20
0.0758396
0.07577513
0.07571284
0.07565556
0.07560561
0.07556506
0.07553594
0.07552043
0.07552093
0.07554032
0.3528769
0.3528455
0.3528117
0.3527742
0.3527285
0.6300845
0.6299568
20
20
20
20
20
0.07588436
0.07582686
0.07577093
0.07571881
0.07567234
0.07563321
0.07560322
0.07558452
0.07557987
0.07559275
0.3529125
0.352884
0.3528552
0.3528254
0.3527941
0.6301425
0.6300937
0.6299803
20
20
20
20
20
0.07592809
0.07587894
0.07583045
0.0757841
0.07574112
0.07570266
0.07567006
0.07564525
0.0756315
0.07563499
0.3529421
0.352916
0.3528904
0.3528653
0.3528404
0.6301763
0.6301476
0.6301053
0.6300112
20
20
20
20
20
0.07597047
0.0759304
0.07588983
0.07584947
0.07580987
0.07577151
0.075735
0.07570137
0.07567326
0.07565978
0.3529651
0.3529427
0.3529208
0.3528997
0.3528795
0.6302018
0.6301793
0.6301534
0.6301181
0.6300461
20
20
20
20
20
20
20
20
20
20
20
20
20
20
20
0.3529827
0.3529677
0.352951
0.352934
0.3529176
0.6302253
0.6302049
0.6301837
0.6301603
0.630131
0.7225595
20
20
20
20
20
20
20
20
20
20
20
20
20
20
20
0.3530273
0.3530091
0.3529913
0.3529741
0.3529582
0.630249
0.6302295
0.6302097
0.6301893
0.6301677
0.7226069
0.7225782
20
20
20
20
20
20
20
20
20
20
20
20
20
20
20
0.3530693
0.3530504
0.3530321
0.3530146
0.3529984
0.6302721
0.6302532
0.630234
0.6302145
0.6301948
0.7226308
0.7226136
0.7225907
20
20
20
20
20
20
20
20
20
20
20
20
20
20
20
0.353107
0.3530884
0.3530701
0.3530527
0.3530363
0.6302939
0.6302754
0.6302567
0.6302377
0.6302185
0.7226494
0.7226344
0.7226181
0.7225983
20
20
20
20
20
20
20
20
20
20
20
20
20
20
20
0.3531405
0.3531224
0.3531047
0.3530875
0.3530711
0.6303139
0.630296
0.6302777
0.630259
0.6302402
0.7226659
0.7226515
0.7226365
0.7226205
0.7226018
20
20
20
20
20
20
20
20
20
20
20
20
20
20
20
20
20
20
20
20
20
20
20
20
20
20
20
20
20
20
20
20
20
20
20
20
20
20
20
20
20
20
20
20
20
20
20
20
20
20
20
20
20
20
20
20
20
20
20
20
20
20
20
20
20
20
20
20
20
0.3524563
20
20
20
20
20
0.07561062
0.07555187
0.07549172
0.07543071
0.07536893
0.07530609
0.07524209
0.07517782
0.07512039
0.07509182
0.3525489
0.352357
20
20
20
20
20
0.07565794
0.07559317
0.07552853
0.07546539
0.0754045
0.07534629
0.07529122
0.07524201
0.07520685
0.07521107
0.352643
0.3525519
0.3523102
20
20
20
20
20
0.07570409
0.07563533
0.07556791
0.07550409
0.07544549
0.07539335
0.07534914
0.07531547
0.07529928
0.0753159
0.3527204
0.3526585
0.3525602
0.3523169
20
20
20
20
20
0.07574939
0.075679
0.07561071
0.07554742
0.07549139
0.07544451
0.07540867
0.07538644
0.075382
0.07540439
0.352783
0.3527372
0.3526765
0.3525813
0.3523654
20
20
20
20
20
0.07579405
0.07572438
0.07565717
0.07559561
0.07554225
0.07549929
0.07546885
0.07545308
0.07545486
0.07547833
0.3528348
0.3527977
0.3527547
0.3526991
0.3526153
0.6299428
20
20
20
20
20
0.07583812
0.07577141
0.07570716
0.0756485
0.07559797
0.07555779
0.07553006
0.0755168
0.07552002
0.07554194
0.3528785
0.3528467
0.3528122
0.3527733
0.3527255
0.6300803
0.6299464
20
20
20
20
20
0.0758816
0.07581985
0.07576027
0.07570561
0.07565813
0.07561984
0.0755927
0.07557871
0.07557983
0.07559778
0.3529166
0.3528876
0.3528578
0.3528264
0.3527927
0.6301396
0.6300862
0.6299603
20
20
20
20
20
0.07592432
0.0758693
0.07581582
0.07576607
0.07572182
0.07568472
0.07565647