/*--------------------------------*- C++ -*----------------------------------*\
| =========                 |                                                 |
| \\      /  F ield         | OpenFOAM: The Open Source CFD Toolbox           |
|  \\    /   O peration     | Version:  2306                                  |
|   \\  /    A nd           | Website:  www.openfoam.com                      |
|    \\/     M anipulation  |                                                 |
\*---------------------------------------------------------------------------*/
FoamFile
{
    version     2.0;
    format      ascii;
    arch        "LSB;label=32;scalar=64";
    class       volScalarField;
    location    "0.3";
    object      rhoCp;
}
// * * * * * * * * * * * * * * * * * * * * * * * * * * * * * * * * * * * * * //

dimensions      [1 -1 -2 -1 0 0 0];

internalField   nonuniform List<scalar> 
52000
(
5346000
5346000
5346000
5346000
5346000
5346000
5346000
5346000
5346000
5346000
5346000
5346000
5346000
5346000
5346000
5346000
5346000
5346000
5346000
5346000
5346000
5346000
5346000
5346000
5346000
5346000
5346000
5346000
5346000
5346000
5346000
5346000
5346000
5346000
5346000
5346000
5346000
5346000
5346000
5346000
5346000
5346000
5346000
5346000
5346000
5346000
5346000
5346000
5346000
5346000
5346000
5346000
5346000
5346000
5346000
5346000
5346000
5346000
5346000
5346000
5346000
5346000
5346000
5346000
5346000
5346000
5346000
5346000
5346000
5346000
5346000
5346000
5346000
5346000
5346000
5346000
5346000
5346000
5346000
5346000
5346000
5346000
5346000
5346000
5346000
5346000
5346000
5346000
5346000
5346000
5346000
5346000
5346000
5346000
5346000
5346000
5346000
5346000
5346000
5346000
5346000
5346000
5346000
5346000
5346000
5346000
5346000
5346000
5346000
5346000
5346000
5346000
5346000
5346000
5346000
5346000
5346000
5346000
5346000
5346000
5346000
5346000
5346000
5346000
5346000
5346000
5346000
5346000
5346000
5346000
5346000
5346000
5346000
5346000
5346000
5346000
5346000
5346000
5346000
5346000
5346000
5346000
5346000
5346000
5346000
5346000
5346000
5346000
5346000
5346000
5346000
5346000
5346000
5346000
5346000
5346000
5346000
5346000
5346000
5346000
5346000
5346000
5346000
5346000
5346000
5346000
5346000
5346000
5346000
5346000
5346000
5346000
5346000
5346000
5346000
5346000
5346000
5346000
5346000
5346000
5346000
5346000
5346000
5346000
5346000
5346000
5346000
5346000
5346000
5346000
5346000
5346000
5346000
5346000
5346000
5346000
5346000
5346000
5346000
5346000
5346000
5346000
5346000
5346000
5346000
5346000
5346000
5346000
5346000
5346000
5346000
5346000
5346000
5346000
5346000
5346000
5346000
5346000
5346000
5346000
5346000
5346000
5346000
5346000
5346000
5346000
5346000
5346000
5346000
5346000
5346000
5346000
5346000
5346000
5346000
5346000
5346000
5346000
5346000
5346000
400.6388
5346000
5346000
5346000
5346000
5346000
5346000
5346000
5346000
5346000
5346000
5346000
5346000
5346000
5346000
5346000
5346000
5346000
5346000
5346000
5346000
5346000
5346000
5346000
5346000
5346000
5346000
5346000
5346000
5346000
5346000
5346000
5346000
5346000
5346000
5346000
5346000
5346000
5346000
5346000
5346000
5346000
5346000
5346000
5346000
5346000
5346000
5346000
5346000
5346000
5346000
5346000
5346000
5346000
5346000
5346000
5346000
5346000
5346000
5346000
5346000
5346000
5346000
5346000
5346000
5346000
402.8677
5346000
5346000
5346000
5346000
5346000
398.0122
402.9012
5346000
5346000
5346000
5346000
5346000
5346000
5346000
5346000
5346000
5346000
5346000
5346000
5346000
5346000
5346000
5346000
5346000
5346000
5346000
5346000
5346000
5346000
5346000
5346000
5346000
5346000
5346000
5346000
5346000
5346000
5346000
5346000
5346000
5346000
5346000
5346000
5346000
5346000
5346000
5346000
5346000
5346000
5346000
5346000
5346000
5346000
5346000
5346000
5346000
5346000
5346000
5346000
5346000
5346000
5346000
5346000
5346000
5346000
5346000
5346000
5346000
5346000
5346000
5346000
5346000
5346000
5346000
5346000
5346000
5346000
404.0691
5346000
5346000
5346000
5346000
5346000
398.64
408.3118
5346000
5346000
5346000
5346000
5346000
397.3684
398.6447
404.1311
5346000
5346000
5346000
5346000
5346000
5346000
5346000
5346000
5346000
5346000
5346000
5346000
5346000
5346000
5346000
5346000
5346000
5346000
5346000
5346000
5346000
5346000
5346000
5346000
5346000
5346000
5346000
5346000
5346000
5346000
5346000
5346000
5346000
5346000
5346000
5346000
5346000
5346000
5346000
5346000
5346000
5346000
5346000
5346000
5346000
5346000
5346000
5346000
5346000
5346000
5346000
5346000
5346000
5346000
5346000
5346000
5346000
5346000
5346000
5346000
5346000
5346000
5346000
5346000
5346000
5346000
5346000
5346000
5346000
5346000
5346000
5346000
5346000
5346000
5346000
404.7378
5346000
5346000
5346000
5346000
5346000
399.1795
411.6406
5346000
5346000
5346000
5346000
5346000
397.6631
400.503
411.6882
5346000
5346000
5346000
5346000
5346000
396.8115
397.6502
399.1878
404.8333
5346000
5346000
5346000
5346000
5346000
5346000
5346000
5346000
5346000
5346000
5346000
5346000
5346000
5346000
5346000
5346000
5346000
5346000
5346000
5346000
5346000
5346000
5346000
5346000
5346000
5346000
5346000
5346000
5346000
5346000
5346000
5346000
5346000
5346000
5346000
5346000
5346000
5346000
5346000
5346000
5346000
5346000
5346000
5346000
5346000
5346000
5346000
5346000
5346000
5346000
5346000
5346000
5346000
5346000
5346000
5346000
5346000
5346000
5346000
5346000
5346000
5346000
5346000
5346000
5346000
5346000
5346000
5346000
5346000
5346000
5346000
5346000
5346000
5346000
5346000
5346000
5346000
5346000
5346000
5346000
405.0436
5346000
5346000
5346000
5346000
5346000
399.5737
413.6155
5346000
5346000
5346000
5346000
5346000
397.9281
402.1243
416.7207
5346000
5346000
5346000
5346000
5346000
396.9707
398.5177
402.1433
413.7431
5346000
5346000
5346000
5346000
5346000
396.3142
396.9509
397.8999
399.5874
405.1822
5346000
5346000
5346000
5346000
5346000
5346000
5346000
5346000
5346000
5346000
5346000
5346000
5346000
5346000
5346000
5346000
5346000
5346000
5346000
5346000
5346000
5346000
5346000
5346000
5346000
5346000
5346000
5346000
5346000
5346000
5346000
5346000
5346000
5346000
5346000
5346000
5346000
5346000
5346000
5346000
5346000
5346000
5346000
5346000
5346000
5346000
5346000
5346000
5346000
5346000
5346000
5346000
5346000
5346000
5346000
5346000
5346000
5346000
5346000
5346000
5346000
5346000
5346000
5346000
5346000
5346000
5346000
5346000
5346000
5346000
5346000
5346000
5346000
5346000
5346000
5346000
5346000
5346000
5346000
5346000
5346000
5346000
5346000
5346000
5346000
405.0436
5346000
5346000
5346000
5346000
5346000
399.782
414.5432
5346000
5346000
5346000
5346000
5346000
398.1305
403.319
419.8596
5346000
5346000
5346000
5346000
5346000
397.112
399.3102
404.7699
419.9725
5346000
5346000
5346000
5346000
5346000
396.4119
397.4066
399.2986
403.3756
414.7981
5346000
5346000
5346000
5346000
5346000
395.8522
396.3902
397.0699
398.0839
399.8018
405.2382
5346000
5346000
5346000
5346000
5346000
5346000
5346000
5346000
5346000
5346000
5346000
5346000
5346000
5346000
5346000
5346000
5346000
5346000
5346000
5346000
5346000
5346000
5346000
5346000
5346000
5346000
5346000
5346000
5346000
5346000
5346000
5346000
5346000
5346000
5346000
5346000
5346000
5346000
5346000
5346000
5346000
5346000
5346000
5346000
5346000
5346000
5346000
5346000
5346000
5346000
5346000
5346000
5346000
5346000
5346000
5346000
5346000
5346000
5346000
5346000
5346000
5346000
5346000
5346000
5346000
5346000
5346000
5346000
5346000
397.0973
5346000
5346000
5346000
5346000
5346000
5346000
5346000
5346000
5346000
5346000
5346000
5346000
5346000
5346000
5346000
5346000
5346000
5346000
5346000
5346000
404.7378
5346000
5346000
5346000
5346000
5346000
399.782
414.5432
5346000
5346000
5346000
5346000
5346000
398.2404
403.953
421.3761
5346000
5346000
5346000
5346000
5346000
397.2196
399.9219
406.7318
423.9904
5346000
5346000
5346000
5346000
5346000
396.4965
397.8191
400.5982
406.7906
421.694
5346000
5346000
5346000
5346000
5346000
395.9196
396.6601
397.7957
399.9013
404.0662
414.9812
5346000
5346000
5346000
5346000
5346000
395.4243
395.898
396.4503
397.1497
398.1703
399.8037
405.003
5346000
5346000
5346000
5346000
5346000
5346000
5346000
5346000
5346000
5346000
5346000
5346000
5346000
5346000
5346000
5346000
5346000
5346000
5346000
5346000
5346000
5346000
5346000
5346000
5346000
5346000
5346000
5346000
5346000
5346000
5346000
5346000
5346000
5346000
5346000
5346000
5346000
5346000
5346000
5346000
5346000
5346000
5346000
5346000
5346000
5346000
5346000
5346000
5346000
5346000
5346000
5346000
5346000
5346000
5346000
5346000
5346000
397.1413
5346000
5346000
5346000
5346000
5346000
5346000
5346000
5346000
5346000
5346000
5346000
5346000
5346000
5346000
5346000
396.5915
396.786
5346000
5346000
5346000
5346000
5346000
5346000
5346000
5346000
5346000
5346000
5346000
5346000
5346000
5346000
5346000
5346000
5346000
5346000
5346000
5346000
404.0691
5346000
5346000
5346000
5346000
5346000
399.5737
413.6155
5346000
5346000
5346000
5346000
5346000
398.2404
403.953
421.3761
5346000
5346000
5346000
5346000
5346000
397.278
400.2559
407.7798
425.9707
5346000
5346000
5346000
5346000
5346000
396.5597
398.1369
401.6114
409.3715
426.2248
5346000
5346000
5346000
5346000
5346000
395.9764
396.8988
398.4647
401.6094
407.9416
422.0046
5346000
5346000
5346000
5346000
5346000
395.4766
396.0774
396.8712
398.0839
400.2254
404.1312
414.2966
5346000
5346000
5346000
5346000
5346000
395.0229
395.456
395.9304
396.4827
397.1725
398.1371
399.5828
404.4235
5346000
5346000
5346000
5346000
5346000
5346000
5346000
5346000
5346000
5346000
5346000
5346000
5346000
5346000
5346000
5346000
5346000
5346000
5346000
5346000
5346000
5346000
5346000
5346000
5346000
5346000
5346000
5346000
5346000
5346000
5346000
5346000
5346000
5346000
5346000
5346000
5346000
5346000
5346000
5346000
5346000
5346000
5346000
5346000
397.2323
5346000
5346000
5346000
5346000
5346000
5346000
5346000
5346000
5346000
5346000
5346000
5346000
5346000
5346000
5346000
396.6225
396.8355
5346000
5346000
5346000
5346000
5346000
5346000
5346000
5346000
5346000
5346000
5346000
5346000
5346000
5346000
5346000
396.121
396.3018
396.469
5346000
5346000
5346000
5346000
5346000
5346000
5346000
5346000
5346000
5346000
5346000
5346000
5346000
5346000
5346000
5346000
5346000
5346000
5346000
5346000
402.8677
5346000
5346000
5346000
5346000
5346000
399.1795
411.6406
5346000
5346000
5346000
5346000
5346000
398.1305
403.319
419.8596
5346000
5346000
5346000
5346000
5346000
397.278
400.2559
407.7798
425.9707
5346000
5346000
5346000
5346000
5346000
396.5936
398.3106
402.1677
410.7595
428.4828
5346000
5346000
5346000
5346000
5346000
396.018
397.0792
398.987
402.9537
410.8918
426.6387
5346000
5346000
5346000
5346000
5346000
395.5198
396.2323
397.2502
398.9574
402.1707
408.0734
420.9026
5346000
5346000
5346000
5346000
5346000
395.0671
395.5912
396.204
397.0143
398.2176
400.2036
403.5449
412.6311
5346000
5346000
5346000
5346000
5346000
394.646
395.0477
395.4757
395.9411
396.4774
397.1257
397.9763
399.1442
403.3466
5346000
5346000
5346000
5346000
5346000
5346000
5346000
5346000
5346000
5346000
5346000
5346000
5346000
5346000
5346000
5346000
5346000
5346000
5346000
5346000
5346000
5346000
5346000
5346000
5346000
5346000
5346000
5346000
5346000
5346000
397.3845
5346000
5346000
5346000
5346000
5346000
5346000
5346000
5346000
5346000
5346000
5346000
5346000
5346000
5346000
5346000
396.6842
396.9412
5346000
5346000
5346000
5346000
5346000
5346000
5346000
5346000
5346000
5346000
5346000
5346000
5346000
5346000
5346000
396.1481
396.3325
396.5227
5346000
5346000
5346000
5346000
5346000
5346000
5346000
5346000
5346000
5346000
5346000
5346000
5346000
5346000
5346000
395.6702
395.861
396.0082
396.1432
5346000
5346000
5346000
5346000
5346000
5346000
5346000
5346000
5346000
5346000
5346000
5346000
5346000
5346000
5346000
5346000
5346000
5346000
5346000
5346000
400.6388
5346000
5346000
5346000
5346000
5346000
398.64
408.3118
5346000
5346000
5346000
5346000
5346000
397.9281
402.1243
416.7207
5346000
5346000
5346000
5346000
5346000
397.2196
399.9219
406.7318
423.9904
5346000
5346000
5346000
5346000
5346000
396.5936
398.3106
402.1677
410.7595
428.4828
5346000
5346000
5346000
5346000
5346000
396.0401
397.1767
399.275
403.696
412.4855
428.9544
5346000
5346000
5346000
5346000
5346000
395.5508
396.3468
397.5406
399.6473
403.7113
411.0805
425.219
5346000
5346000
5346000
5346000
5346000
395.1031
395.7053
396.4442
397.5001
399.2043
402.1669
407.145
418.2693
5346000
5346000
5346000
5346000
5346000
394.6855
395.1599
395.6779
396.2795
397.0608
398.159
399.8164
402.3397
409.6959
5346000
5346000
5346000
5346000
5346000
394.2901
394.6674
395.0614
395.4768
395.9237
396.4269
397.0036
397.6921
398.4989
401.3447
5346000
5346000
5346000
5346000
5346000
5346000
5346000
5346000
5346000
5346000
5346000
5346000
5346000
5346000
5346000
397.6691
5346000
5346000
5346000
5346000
5346000
5346000
5346000
5346000
5346000
5346000
5346000
5346000
5346000
5346000
5346000
396.7775
397.1298
5346000
5346000
5346000
5346000
5346000
5346000
5346000
5346000
5346000
5346000
5346000
5346000
5346000
5346000
5346000
396.2013
396.3933
396.6391
5346000
5346000
5346000
5346000
5346000
5346000
5346000
5346000
5346000
5346000
5346000
5346000
5346000
5346000
5346000
395.695
395.8862
396.0388
396.1996
5346000
5346000
5346000
5346000
5346000
5346000
5346000
5346000
5346000
5346000
5346000
5346000
5346000
5346000
5346000
395.252
395.4383
395.5978
395.7089
395.8144
5346000
5346000
5346000
5346000
5346000
5346000
5346000
5346000
5346000
5346000
5346000
5346000
5346000
5346000
5346000
5346000
5346000
5346000
5346000
5346000
5346000
5346000
5346000
5346000
5346000
398.0122
402.9012
5346000
5346000
5346000
5346000
5346000
397.6631
400.503
411.6882
5346000
5346000
5346000
5346000
5346000
397.112
399.3102
404.7699
419.9725
5346000
5346000
5346000
5346000
5346000
396.5597
398.1369
401.6114
409.3715
426.2248
5346000
5346000
5346000
5346000
5346000
396.0401
397.1767
399.275
403.696
412.4855
428.9544
5346000
5346000
5346000
5346000
5346000
395.5671
396.4078
397.6988
400.0303
404.5651
412.7069
427.3641
5346000
5346000
5346000
5346000
5346000
395.1287
395.7879
396.6241
397.8766
399.9899
403.7261
409.8843
421.8701
5346000
5346000
5346000
5346000
5346000
394.7176
395.2531
395.8511
396.5807
397.5996
399.1407
401.5693
405.2307
413.8302
5346000
5346000
5346000
5346000
5346000
394.3267
394.7669
395.227
395.7222
396.2869
396.9898
397.8952
399.0922
400.5987
404.8359
5346000
5346000
5346000
5346000
5346000
393.9535
394.3096
394.6783
395.0584
395.4549
395.8735
396.3272
396.8056
397.2876
397.6264
398.9259
5346000
5346000
5346000
5346000
5346000
5346000
5346000
5346000
5346000
5346000
5346000
5346000
5346000
5346000
5346000
396.8895
397.4967
5346000
5346000
5346000
5346000
5346000
5346000
5346000
5346000
5346000
5346000
5346000
5346000
5346000
5346000
5346000
396.2792
396.483
396.8486
5346000
5346000
5346000
5346000
5346000
5346000
5346000
5346000
5346000
5346000
5346000
5346000
5346000
5346000
5346000
395.7437
395.9345
396.0991
396.3222
5346000
5346000
5346000
5346000
5346000
5346000
5346000
5346000
5346000
5346000
5346000
5346000
5346000
5346000
5346000
395.2754
395.4609
395.6215
395.7392
395.8722
5346000
5346000
5346000
5346000
5346000
5346000
5346000
5346000
5346000
5346000
5346000
5346000
5346000
5346000
5346000
394.8535
395.0447
395.2037
395.3299
395.4096
395.6147
5346000
5346000
5346000
5346000
5346000
5346000
5346000
5346000
5346000
5346000
5346000
5346000
5346000
5346000
5346000
5346000
5346000
5346000
5346000
5346000
5346000
5346000
5346000
5346000
5346000
5346000
5346000
5346000
5346000
5346000
397.3684
398.6447
404.1311
5346000
5346000
5346000
5346000
5346000
396.9707
398.5177
402.1433
413.7431
5346000
5346000
5346000
5346000
5346000
396.4965
397.8191
400.5982
406.7906
421.694
5346000
5346000
5346000
5346000
5346000
396.018
397.0792
398.987
402.9537
410.8918
426.6387
5346000
5346000
5346000
5346000
5346000
395.5671
396.4078
397.6988
400.0303
404.5651
412.7069
427.3641
5346000
5346000
5346000
5346000
5346000
395.142
395.8312
396.7207
398.0834
400.4276
404.5915
411.3633
423.637
5346000
5346000
5346000
5346000
5346000
394.7402
395.3195
395.9778
396.8089
398.0213
399.9263
402.9623
407.4196
416.3886
5346000
5346000
5346000
5346000
5346000
394.3562
394.8488
395.3664
395.9349
396.6138
397.5148
398.7493
400.4398
402.514
407.0153
5346000
5346000
5346000
5346000
5346000
393.988
394.4012
394.824
395.2568
395.7129
396.2136
396.7925
397.4377
398.093
398.444
400.2191
5346000
5346000
5346000
5346000
5346000
393.6343
393.9719
394.3191
394.6737
395.0352
395.4065
395.7869
396.1745
396.5234
396.7164
396.8667
398.4669
5346000
5346000
5346000
5346000
5346000
5346000
5346000
5346000
5346000
5346000
5346000
5346000
5346000
5346000
5346000
396.3549
396.5842
397.233
5346000
5346000
5346000
5346000
5346000
5346000
5346000
5346000
5346000
5346000
5346000
5346000
5346000
5346000
5346000
395.814
395.9994
396.1875
396.5392
5346000
5346000
5346000
5346000
5346000
5346000
5346000
5346000
5346000
5346000
5346000
5346000
5346000
5346000
5346000
395.3211
395.5034
395.6662
395.7994
395.9968
5346000
5346000
5346000
5346000
5346000
5346000
5346000
5346000
5346000
5346000
5346000
5346000
5346000
5346000
5346000
394.8758
395.0657
395.2243
395.3525
395.4398
395.6721
5346000
5346000
5346000
5346000
5346000
5346000
5346000
5346000
5346000
5346000
5346000
5346000
5346000
5346000
5346000
394.4783
394.6673
394.8348
394.9648
395.063
395.2288
395.5888
5346000
5346000
5346000
5346000
5346000
5346000
5346000
5346000
5346000
5346000
5346000
5346000
5346000
5346000
5346000
5346000
5346000
5346000
5346000
5346000
5346000
5346000
5346000
5346000
5346000
5346000
5346000
5346000
5346000
5346000
5346000
5346000
5346000
5346000
5346000
396.8115
397.6502
399.1878
404.8333
5346000
5346000
5346000
5346000
5346000
396.4119
397.4066
399.2986
403.3756
414.7981
5346000
5346000
5346000
5346000
5346000
395.9764
396.8988
398.4647
401.6094
407.9416
422.0046
5346000
5346000
5346000
5346000
5346000
395.5508
396.3468
397.5406
399.6473
403.7113
411.0805
425.219
5346000
5346000
5346000
5346000
5346000
395.142
395.8312
396.7207
398.0834
400.4276
404.5915
411.3633
423.637
5346000
5346000
5346000
5346000
5346000
394.7518
395.354
396.0448
396.9323
398.2541
400.3652
403.7356
408.5974
417.6244
5346000
5346000
5346000
5346000
5346000
394.377
394.9065
395.4665
396.0921
396.8638
397.9287
399.4361
401.5151
403.9655
408.3496
5346000
5346000
5346000
5346000
5346000
394.0158
394.4763
394.9454
395.4254
395.9388
396.5237
397.2343
398.0624
398.915
399.2795
401.2261
5346000
5346000
5346000
5346000
5346000
393.6671
394.0581
394.453
394.8471
395.2408
395.6415
396.0526
396.4693
396.8088
396.8773
397.0973
399.5111
5346000
5346000
5346000
5346000
5346000
393.3311
393.6518
393.9807
394.3141
394.6507
394.989
395.3285
395.6593
395.9551
396.0963
396.1141
396.6352
398.0048
5346000
5346000
5346000
5346000
5346000
5346000
5346000
5346000
5346000
5346000
5346000
5346000
5346000
5346000
5346000
395.8759
396.0435
396.2894
396.9092
5346000
5346000
5346000
5346000
5346000
5346000
5346000
5346000
5346000
5346000
5346000
5346000
5346000
5346000
5346000
395.387
395.558
395.7237
395.8883
396.2119
5346000
5346000
5346000
5346000
5346000
5346000
5346000
5346000
5346000
5346000
5346000
5346000
5346000
5346000
5346000
394.9194
395.1051
395.2621
395.395
395.5002
395.7955
5346000
5346000
5346000
5346000
5346000
5346000
5346000
5346000
5346000
5346000
5346000
5346000
5346000
5346000
5346000
394.4997
394.6872
394.8538
394.984
395.0849
395.2588
395.6461
5346000
5346000
5346000
5346000
5346000
5346000
5346000
5346000
5346000
5346000
5346000
5346000
5346000
5346000
5346000
394.1216
394.3097
394.4785
394.621
394.7271
394.9012
395.2053
395.5634
5346000
5346000
5346000
5346000
5346000
5346000
5346000
5346000
5346000
5346000
5346000
5346000
5346000
5346000
5346000
5346000
5346000
5346000
5346000
5346000
5346000
5346000
5346000
5346000
5346000
5346000
5346000
5346000
5346000
5346000
5346000
5346000
5346000
5346000
5346000
5346000
5346000
5346000
5346000
5346000
396.3142
396.9509
397.8999
399.5874
405.1822
5346000
5346000
5346000
5346000
5346000
395.9196
396.6601
397.7957
399.9013
404.0662
414.9812
5346000
5346000
5346000
5346000
5346000
395.5198
396.2323
397.2502
398.9574
402.1707
408.0734
420.9026
5346000
5346000
5346000
5346000
5346000
395.1287
395.7879
396.6241
397.8766
399.9899
403.7261
409.8843
421.8701
5346000
5346000
5346000
5346000
5346000
394.7518
395.354
396.0448
396.9323
398.2541
400.3652
403.7356
408.5974
417.6244
5346000
5346000
5346000
5346000
5346000
394.3877
394.9364
395.5189
396.1758
396.9999
398.1583
399.8213
402.1124
404.7452
408.9924
5346000
5346000
5346000
5346000
5346000
394.0353
394.5291
395.0317
395.5476
396.1074
396.7633
397.5869
398.5726
399.5875
399.9374
401.8985
5346000
5346000
5346000
5346000
5346000
393.6936
394.1287
394.5638
394.9926
395.4171
395.8502
396.3022
396.7702
397.1474
397.1664
397.4008
400.3629
5346000
5346000
5346000
5346000
5346000
393.3625
393.7339
394.1065
394.4727
394.8289
395.1726
395.5019
395.7998
396.0218
396.0162
396.0808
396.8291
398.8455
5346000
5346000
5346000
5346000
5346000
393.0427
393.3479
393.6602
393.9756
394.2917
394.6067
394.9169
395.2158
395.4751
395.6054
395.5816
395.9201
396.3825
397.5317
5346000
5346000
5346000
5346000
5346000
5346000
5346000
5346000
5346000
5346000
5346000
5346000
5346000
5346000
5346000
395.4436
395.5827
395.7615
395.9956
396.5537
5346000
5346000
5346000
5346000
5346000
5346000
5346000
5346000
5346000
5346000
5346000
5346000
5346000
5346000
5346000
394.9822
395.1548
395.3075
395.45
395.591
396.0058
5346000
5346000
5346000
5346000
5346000
5346000
5346000
5346000
5346000
5346000
5346000
5346000
5346000
5346000
5346000
394.5416
394.7244
394.8882
395.0189
395.1265
395.319
395.7693
5346000
5346000
5346000
5346000
5346000
5346000
5346000
5346000
5346000
5346000
5346000
5346000
5346000
5346000
5346000
394.1422
394.3288
394.4963
394.6384
394.7454
394.9229
395.2352
395.6206
5346000
5346000
5346000
5346000
5346000
5346000
5346000
5346000
5346000
5346000
5346000
5346000
5346000
5346000
5346000
393.7834
393.9679
394.1387
394.2859
394.4084
394.582
394.88
395.1823
395.5374
5346000
5346000
5346000
5346000
5346000
5346000
5346000
5346000
5346000
5346000
5346000
5346000
5346000
5346000
5346000
5346000
5346000
5346000
5346000
5346000
5346000
5346000
5346000
5346000
5346000
5346000
5346000
5346000
5346000
5346000
5346000
5346000
5346000
5346000
5346000
5346000
5346000
5346000
5346000
5346000
5346000
5346000
5346000
5346000
5346000
395.8522
396.3902
397.0699
398.0839
399.8018
405.2382
5346000
5346000
5346000
5346000
5346000
395.4766
396.0774
396.8712
398.0839
400.2254
404.1312
414.2966
5346000
5346000
5346000
5346000
5346000
395.1031
395.7053
396.4442
397.5001
399.2043
402.1669
407.145
418.2693
5346000
5346000
5346000
5346000
5346000
394.7402
395.3195
395.9778
396.8089
398.0213
399.9263
402.9623
407.4196
416.3886
5346000
5346000
5346000
5346000
5346000
394.3877
394.9364
395.5189
396.1758
396.9999
398.1583
399.8213
402.1124
404.7452
408.9924
5346000
5346000
5346000
5346000
5346000
394.0454
394.5562
395.0764
395.6118
396.1976
396.8946
397.7837
398.8605
399.9646
400.2955
402.2338
5346000
5346000
5346000
5346000
5346000
393.7122
394.1781
394.6421
395.0968
395.546
396.0078
396.4992
397.0196
397.4434
397.434
397.6597
400.9434
5346000
5346000
5346000
5346000
5346000
393.3878
393.8011
394.2104
394.605
394.9798
395.3323
395.6623
395.952
396.1503
396.08
396.1447
397.077
399.5535
5346000
5346000
5346000
5346000
5346000
393.0728
393.4266
393.7799
394.1246
394.4543
394.7642
395.0467
395.2882
395.4477
395.4356
395.4577
395.8993
396.5536
398.2056
5346000
5346000
5346000
5346000
5346000
392.768
393.0589
393.3559
393.6552
393.954
394.2497
394.5391
394.814
395.0529
395.1726
395.1499
395.4111
395.7125
396.1125
397.0591
5346000
5346000
5346000
5346000
5346000
5346000
5346000
5346000
5346000
5346000
5346000
5346000
5346000
5346000
5346000
395.0364
395.1734
395.3233
395.4934
395.7058
396.3291
5346000
5346000
5346000
5346000
5346000
5346000
5346000
5346000
5346000
5346000
5346000
5346000
5346000
5346000
5346000
394.602
394.7714
394.9282
395.0605
395.1827
395.4106
395.9789
5346000
5346000
5346000
5346000
5346000
5346000
5346000
5346000
5346000
5346000
5346000
5346000
5346000
5346000
5346000
394.1826
394.3645
394.5287
394.6697
394.779
394.9642
395.2953
395.7435
5346000
5346000
5346000
5346000
5346000
5346000
5346000
5346000
5346000
5346000
5346000
5346000
5346000
5346000
5346000
393.8034
393.9863
394.1557
394.3022
394.4248
394.6
394.9016
395.2121
395.5945
5346000
5346000
5346000
5346000
5346000
5346000
5346000
5346000
5346000
5346000
5346000
5346000
5346000
5346000
5346000
393.4616
393.6422
393.8118
393.9639
394.0945
394.2775
394.5627
394.8592
395.1587
395.5124
5346000
5346000
5346000
5346000
5346000
5346000
5346000
5346000
5346000
5346000
5346000
5346000
5346000
5346000
5346000
5346000
5346000
5346000
5346000
5346000
5346000
5346000
5346000
5346000
5346000
5346000
5346000
5346000
5346000
5346000
5346000
5346000
5346000
5346000
5346000
5346000
5346000
5346000
5346000
5346000
5346000
5346000
5346000
5346000
5346000
5346000
5346000
5346000
5346000
5346000
395.4243
395.898
396.4503
397.1497
398.1703
399.8037
405.003
5346000
5346000
5346000
5346000
5346000
395.0671
395.5912
396.204
397.0143
398.2176
400.2036
403.5449
412.6311
5346000
5346000
5346000
5346000
5346000
394.7176
395.2531
395.8511
396.5807
397.5996
399.1407
401.5693
405.2307
413.8302
5346000
5346000
5346000
5346000
5346000
394.377
394.9065
395.4665
396.0921
396.8638
397.9287
399.4361
401.5151
403.9655
408.3496
5346000
5346000
5346000
5346000
5346000
394.0454
394.5562
395.0764
395.6118
396.1976
396.8946
397.7837
398.8605
399.9646
400.2955
402.2338
5346000
5346000
5346000
5346000
5346000
393.7218
394.2034
394.6824
395.1509
395.614
396.0928
396.6084
397.1612
397.6147
397.59
397.8054
401.2354
5346000
5346000
5346000
5346000
5346000
393.4057
393.848
394.2836
394.699
395.0884
395.4504
395.7869
396.0812
396.2778
396.1722
396.2264
397.2886
400.0455
5346000
5346000
5346000
5346000
5346000
393.0972
393.4909
393.8787
394.2484
394.5909
394.8994
395.1649
395.3734
395.4828
395.4067
395.4282
395.9485
396.7583
398.7839
5346000
5346000
5346000
5346000
5346000
392.797
393.1345
393.4707
393.797
394.1067
394.3929
394.6479
394.8565
394.9891
394.9734
394.9977
395.3165
395.7096
396.269
397.5927
5346000
5346000
5346000
5346000
5346000
392.5062
392.7836
393.0666
393.3512
393.6345
393.9139
394.1858
394.4431
394.6652
394.7812
394.761
394.9961
395.2311
395.494
395.8398
396.7819
5346000
5346000
5346000
5346000
5346000
5346000
5346000
5346000
5346000
5346000
5346000
5346000
5346000
5346000
5346000
394.6553
394.7888
394.9369
395.0812
395.2376
395.5291
396.2999
5346000
5346000
5346000
5346000
5346000
5346000
5346000
5346000
5346000
5346000
5346000
5346000
5346000
5346000
5346000
394.2411
394.4099
394.566
394.7055
394.8212
395.0217
395.3869
395.9523
5346000
5346000
5346000
5346000
5346000
5346000
5346000
5346000
5346000
5346000
5346000
5346000
5346000
5346000
5346000
393.8425
394.0208
394.1867
394.3313
394.4546
394.6333
394.9429
395.2721
395.7171
5346000
5346000
5346000
5346000
5346000
5346000
5346000
5346000
5346000
5346000
5346000
5346000
5346000
5346000
5346000
393.481
393.66
393.8282
393.9795
394.1098
394.2936
394.5807
394.8807
395.1885
395.5694
5346000
5346000
5346000
5346000
5346000
5346000
5346000
5346000
5346000
5346000
5346000
5346000
5346000
5346000
5346000
393.1553
393.3309
393.4987
393.6521
393.7904
393.9755
394.2599
394.5439
394.8379
395.1361
395.4838
5346000
5346000
5346000
5346000
5346000
5346000
5346000
5346000
5346000
5346000
5346000
5346000
5346000
5346000
5346000
5346000
5346000
5346000
5346000
5346000
5346000
5346000
5346000
5346000
5346000
5346000
5346000
5346000
5346000
5346000
5346000
5346000
5346000
5346000
5346000
5346000
5346000
5346000
5346000
5346000
5346000
5346000
5346000
5346000
5346000
5346000
5346000
5346000
5346000
5346000
5346000
5346000
5346000
5346000
5346000
395.0229
395.456
395.9304
396.4827
397.1725
398.1371
399.5828
404.4235
5346000
5346000
5346000
5346000
5346000
394.6855
395.1599
395.6779
396.2795
397.0608
398.159
399.8164
402.3397
409.6959
5346000
5346000
5346000
5346000
5346000
394.3562
394.8488
395.3664
395.9349
396.6138
397.5148
398.7493
400.4398
402.514
407.0153
5346000
5346000
5346000
5346000
5346000
394.0353
394.5291
395.0317
395.5476
396.1074
396.7633
397.5869
398.5726
399.5875
399.9374
401.8985
5346000
5346000
5346000
5346000
5346000
393.7218
394.2034
394.6824
395.1509
395.614
396.0928
396.6084
397.1612
397.6147
397.59
397.8054
401.2354
5346000
5346000
5346000
5346000
5346000
393.4149
393.8721
394.3212
394.7477
395.1452
395.5133
395.8552
396.1553
396.3548
396.2324
396.2785
397.408
400.2952
5346000
5346000
5346000
5346000
5346000
393.1143
393.5359
393.9482
394.3361
394.6885
394.9978
395.2554
395.448
395.5341
395.4231
395.4352
396.0117
396.931
399.1916
5346000
5346000
5346000
5346000
5346000
392.8205
393.1963
393.5653
393.9147
394.2343
394.5148
394.746
394.9117
394.985
394.9072
394.9325
395.289
395.7515
396.4403
398.0544
5346000
5346000
5346000
5346000
5346000
392.5341
392.8564
393.1769
393.4871
393.7798
394.0483
394.2839
394.4734
394.5898
394.5794
394.6047
394.8783
395.1675
395.5107
395.9861
397.2503
5346000
5346000
5346000
5346000
5346000
392.2566
392.5213
392.791
393.0619
393.3312
393.596
393.853
394.0951
394.3045
394.4157
394.4038
394.6203
394.8356
395.0433
395.2769
395.6706
396.7469
5346000
5346000
5346000
5346000
5346000
5346000
5346000
5346000
5346000
5346000
5346000
5346000
5346000
5346000
5346000
394.2938
394.428
394.573
394.718
394.8536
395.0836
395.5056
396.2711
5346000
5346000
5346000
5346000
5346000
5346000
5346000
5346000
5346000
5346000
5346000
5346000
5346000
5346000
5346000
393.8993
394.0649
394.2226
394.3642
394.4905
394.6769
395.0005
395.3637
395.9251
5346000
5346000
5346000
5346000
5346000
5346000
5346000
5346000
5346000
5346000
5346000
5346000
5346000
5346000
5346000
393.5189
393.6935
393.8582