/*--------------------------------*- C++ -*----------------------------------*\
| =========                 |                                                 |
| \\      /  F ield         | OpenFOAM: The Open Source CFD Toolbox           |
|  \\    /   O peration     | Version:  2306                                  |
|   \\  /    A nd           | Website:  www.openfoam.com                      |
|    \\/     M anipulation  |                                                 |
\*---------------------------------------------------------------------------*/
FoamFile
{
    version     2.0;
    format      ascii;
    arch        "LSB;label=32;scalar=64";
    class       volScalarField;
    location    "0.3";
    object      T;
}
// * * * * * * * * * * * * * * * * * * * * * * * * * * * * * * * * * * * * * //

dimensions      [0 0 0 1 0 0 0];

internalField   nonuniform List<scalar> 
52000
(
1006.197
1006.196
1007.053
1006.167
1006.194
1007.053
1006.166
1008.222
1007.043
1006.109
1006.191
1007.052
1006.163
1008.222
1007.042
1006.106
1009.467
1008.221
1007.023
1006.023
1006.188
1007.05
1006.159
1008.221
1007.041
1006.102
1009.467
1008.22
1007.022
1006.019
1010.695
1009.47
1008.22
1006.996
1005.915
1006.185
1007.049
1006.155
1008.22
1007.039
1006.095
1009.466
1008.219
1007.02
1006.011
1010.694
1009.469
1008.219
1006.994
1005.907
1011.871
1010.699
1009.476
1008.219
1006.964
1005.827
1006.181
1007.047
1006.15
1008.218
1007.037
1006.088
1009.465
1008.218
1007.018
1006
1010.694
1009.468
1008.217
1006.991
1005.892
1011.87
1010.698
1009.475
1008.218
1006.962
1005.813
1012.984
1011.875
1010.707
1009.486
1008.223
1006.942
1005.77
1006.179
1007.046
1006.145
1008.217
1007.035
1006.08
1009.463
1008.216
1007.015
1005.987
1010.693
1009.466
1008.215
1006.988
1005.872
1011.87
1010.697
1009.473
1008.216
1006.958
1005.787
1012.983
1011.875
1010.706
1009.485
1008.221
1006.938
1005.753
1014.033
1012.988
1011.884
1010.722
1009.504
1008.231
1006.929
1005.718
1006.176
1007.044
1006.141
1008.216
1007.033
1006.072
1009.462
1008.214
1007.011
1005.974
1010.691
1009.465
1008.212
1006.983
1005.851
1011.869
1010.696
1009.471
1008.212
1006.952
1005.749
1012.983
1011.874
1010.705
1009.482
1008.217
1006.931
1005.718
1014.033
1012.987
1011.883
1010.72
1009.502
1008.228
1006.924
1005.698
1015.022
1014.037
1012.997
1011.899
1010.744
1009.523
1008.238
1006.919
1005.675
1006.175
1007.043
1006.138
1008.214
1007.031
1006.064
1009.461
1008.212
1007.008
1005.958
1010.69
1009.463
1008.209
1006.978
1005.835
1011.867
1010.694
1009.468
1008.207
1006.946
1005.699
1012.982
1011.872
1010.703
1009.478
1008.212
1006.921
1005.665
1014.032
1012.987
1011.882
1010.718
1009.498
1008.224
1006.914
1005.656
1015.021
1014.037
1012.996
1011.898
1010.742
1009.521
1008.235
1006.913
1005.652
1015.954
1015.025
1014.045
1013.012
1011.922
1010.767
1009.538
1008.248
1006.914
1005.643
1006.175
1007.043
1006.136
1008.214
1007.03
1006.059
1009.459
1008.211
1007.005
1005.943
1010.689
1009.461
1008.205
1006.972
1005.801
1011.866
1010.692
1009.464
1008.201
1006.94
998.3833
1012.981
1011.871
1010.7
1009.473
1008.204
1006.91
1005.591
1014.031
1012.985
1011.88
1010.714
1009.493
1008.219
1006.9
1005.591
1015.021
1014.036
1012.995
1011.896
1010.739
1009.518
1008.231
1006.901
1005.605
1015.953
1015.025
1014.045
1013.011
1011.921
1010.766
1009.537
1008.245
1006.907
1005.618
1016.834
1015.957
1015.033
1014.059
1013.034
1011.946
1010.784
1009.556
1008.261
1006.915
1005.623
1006.176
1007.043
1006.136
1008.213
1007.029
1006.056
1009.459
1008.209
1007.002
1005.932
1010.688
1009.459
1008.203
1006.966
1005.768
1011.865
1010.69
1009.461
1008.195
1006.928
991.877
1012.98
1011.869
1010.696
1009.467
1008.193
1005.944
991.7779
1014.03
1012.984
1011.877
1010.709
1009.484
1008.212
1006.882
1005.498
1015.02
1014.035
1012.993
1011.892
1010.733
1009.514
1008.224
1006.882
1005.531
1015.953
1015.024
1014.044
1013.008
1011.918
1010.763
1009.534
1008.239
1006.893
1005.568
1016.834
1015.957
1015.033
1014.058
1013.032
1011.944
1010.783
1009.554
1008.258
1006.908
1005.598
1017.666
1016.837
1015.965
1015.046
1014.08
1013.056
1011.963
1010.804
1009.575
1008.278
1006.923
1005.616
1006.179
1007.043
1006.138
1008.213
1007.029
1006.056
1009.458
1008.209
1007.001
1005.925
1010.687
1009.458
1008.2
1006.961
1005.743
1011.864
1010.689
1009.458
1008.19
1006.914
988.3893
1012.978
1011.867
1010.693
1009.461
1008.181
1004.089
976.173
1014.029
1012.982
1011.874
1010.703
1009.47
1007.762
1004.066
988.2029
1015.019
1014.033
1012.99
1011.887
1010.725
1009.509
1008.215
1006.857
1005.427
1015.952
1015.023
1014.042
1013.005
1011.913
1010.759
1009.529
1008.231
1006.871
1005.489
1016.833
1015.956
1015.031
1014.056
1013.029
1011.942
1010.781
1009.551
1008.251
1006.892
1005.545
1017.666
1016.837
1015.964
1015.045
1014.079
1013.055
1011.962
1010.803
1009.574
1008.274
1006.916
1005.59
1018.454
1017.669
1016.844
1015.977
1015.065
1014.101
1013.073
1011.982
1010.825
1009.597
1008.298
1006.938
1005.621
1006.181
1007.044
1006.141
1008.214
1007.03
1006.059
1009.458
1008.209
1007.001
1005.925
1010.686
1009.457
1008.199
1006.958
1005.729
1011.863
1010.688
1009.456
1008.186
1006.902
986.4542
1012.977
1011.866
1010.691
1009.456
1008.17
1002.503
966.7118
1014.028
1012.981
1011.871
1010.697
1009.459
1006.894
998.6077
966.5726
1015.018
1014.032
1012.988
1011.882
1010.711
1009.258
1006.916
1002.449
986.1611
1015.951
1015.022
1014.039
1013.001
1011.905
1010.756
1009.524
1008.219
1006.84
1005.378
1016.832
1015.955
1015.03
1014.053
1013.025
1011.939
1010.778
1009.546
1008.241
1006.868
1005.465
1017.665
1016.836
1015.963
1015.043
1014.076
1013.053
1011.96
1010.801
1009.57
1008.268
1006.9
1005.538
1018.454
1017.669
1016.843
1015.976
1015.064
1014.1
1013.072
1011.981
1010.824
1009.596
1008.295
1006.931
1005.596
1019.201
1018.457
1017.676
1016.855
1015.994
1015.085
1014.117
1013.091
1012.003
1010.848
1009.622
1008.323
1006.96
1005.638
1006.185
1007.046
1006.145
1008.214
1007.031
1006.064
1009.459
1008.209
1007.002
1005.932
1010.686
1009.457
1008.199
1006.958
1005.729
1011.863
1010.687
1009.455
1008.183
1006.896
985.5707
1012.977
1011.865
1010.689
1009.452
1008.162
1001.347
961.1512
1014.027
1012.979
1011.869
1010.693
1009.449
1006.117
993.8758
952.4839
1015.017
1014.03
1012.985
1011.876
1010.7
1008.791
1004.354
993.8018
960.7794
1015.95
1015.02
1014.037
1012.995
1011.891
1010.596
1008.833
1006.152
1001.245
985.1342
1016.832
1015.954
1015.028
1014.049
1013.017
1011.936
1010.774
1009.539
1008.227
1006.834
1005.352
1017.665
1016.835
1015.961
1015.041
1014.072
1013.05
1011.958
1010.798
1009.565
1008.257
1006.876
1005.459
1018.454
1017.668
1016.842
1015.974
1015.062
1014.098
1013.071
1011.98
1010.822
1009.592
1008.289
1006.916
1005.545
1019.201
1018.457
1017.675
1016.855
1015.993
1015.084
1014.116
1013.09
1012.002
1010.847
1009.62
1008.32
1006.953
1005.613
1019.909
1019.204
1018.463
1017.686
1016.872
1016.013
1015.099
1014.134
1013.111
1012.025
1010.873
1009.649
1008.35
1006.987
1005.667
1006.188
1007.047
1006.15
1008.216
1007.033
1006.072
1009.459
1008.211
1007.005
1005.943
1010.687
1009.458
1008.2
1006.961
1005.743
1011.863
1010.687
1009.455
1008.183
1006.896
985.5707
1012.976
1011.864
1010.688
1009.45
1008.158
1000.737
958.5527
1014.027
1012.978
1011.867
1010.689
1009.443
1005.526
990.4038
943.8313
1015.016
1014.029
1012.983
1011.872
1010.691
1008.38
1002.029
986.1838
943.5138
1015.949
1015.019
1014.034
1012.991
1011.881
1010.311
1007.486
1002.031
990.1905
957.8084
1016.831
1015.953
1015.025
1014.044
1013.005
1011.822
1010.359
1008.454
1005.566
1000.569
984.9397
1017.664
1016.834
1015.959
1015.037
1014.065
1013.048
1011.955
1010.794
1009.557
1008.241
1006.841
1005.349
1018.453
1017.667
1016.841
1015.971
1015.058
1014.096
1013.069
1011.978
1010.819
1009.587
1008.278
1006.893
1005.469
1019.2
1018.456
1017.674
1016.853
1015.991
1015.083
1014.115
1013.089
1012.001
1010.845
1009.617
1008.314
1006.94
1005.564
1019.909
1019.204
1018.463
1017.686
1016.871
1016.012
1015.099
1014.133
1013.11
1012.025
1010.872
1009.648
1008.348
1006.982
1005.642
1020.582
1019.912
1019.21
1018.473
1017.702
1016.889
1016.026
1015.115
1014.152
1013.131
1012.049
1010.899
1009.677
1008.381
1007.02
1006.142
1006.191
1007.049
1006.155
1008.217
1007.035
1006.08
1009.461
1008.212
1007.008
1005.958
1010.688
1009.459
1008.203
1006.966
1005.768
1011.863
1010.688
1009.456
1008.186
1006.902
986.4542
1012.976
1011.864
1010.688
1009.45
1008.158
1000.737
958.5527
1014.026
1012.978
1011.866
1010.688
1009.439
1005.206
988.5666
939.689
1015.016
1014.028
1012.981
1011.869
1010.686
1008.069
1000.243
980.5351
932.5995
1015.949
1015.018
1014.032
1012.987
1011.873
1010.069
1006.273
998.2323
980.3379
938.7991
1016.83
1015.951
1015.023
1014.04
1012.995
1011.627
1009.562
1006.308
1000.222
988.1431
957.2651
1017.663
1016.833
1015.957
1015.032
1014.053
1012.957
1011.675
1010.155
1008.173
1005.249
1000.493
985.5659
1018.452
1017.666
1016.839
1015.968
1015.052
1014.093
1013.066
1011.975
1010.815
1009.579
1008.262
1006.862
1005.365
1019.2
1018.455
1017.673
1016.85
1015.988
1015.08
1014.113
1013.088
1011.999
1010.842
1009.613
1008.305
1006.921
1005.491
1019.909
1019.203
1018.462
1017.684
1016.869
1016.011
1015.098
1014.132
1013.109
1012.024
1010.871
1009.645
1008.344
1006.971
1005.593
1020.581
1019.912
1019.209
1018.472
1017.701
1016.888
1016.026
1015.115
1014.152
1013.131
1012.049
1010.899
1009.677
1008.38
1007.015
1006.108
1021.219
1020.584
1019.918
1019.219
1018.488
1017.718
1016.902
1016.041
1015.132
1014.171
1013.153
1012.074
1010.926
1009.707
1008.413
1007.464
1007.054
1006.194
1007.05
1006.159
1008.218
1007.037
1006.088
1009.462
1008.214
1007.011
1005.974
1010.689
1009.461
1008.205
1006.972
1005.801
1011.864
1010.689
1009.458
1008.19
1006.914
988.3893
1012.977
1011.865
1010.689
1009.452
1008.162
1001.347
961.1512
1014.026
1012.978
1011.866
1010.688
1009.439
1005.206
988.5666
939.689
1015.015
1014.028
1012.98
1011.868
1010.683
1007.9
999.2695
977.532
927.2861
1015.948
1015.017
1014.031
1012.984
1011.868
1009.889
1005.343
995.2833
972.9642
926.5921
1016.829
1015.95
1015.021
1014.036
1012.989
1011.467
1008.863
1004.343
995.2402
976.9974
937.9246
1017.662
1016.832
1015.955
1015.028
1014.045
1012.807
1011.147
1008.911
1005.413
999.2121
987.8876
959.1274
1018.451
1017.665
1016.837
1015.964
1015.041
1014.016
1012.852
1011.554
1010.015
1008.04
1005.261
1001.042
987.1571
1019.199
1018.454
1017.671
1016.847
1015.982
1015.078
1014.111
1013.085
1011.996
1010.838
1009.605
1008.291
1006.894
1005.397
1019.908
1019.202
1018.46
1017.682
1016.866
1016.008
1015.096
1014.131
1013.108
1012.022
1010.868
1009.642
1008.338
1006.956
1005.521
1020.581
1019.911
1019.208
1018.471
1017.699
1016.887
1016.025
1015.114
1014.151
1013.13
1012.048
1010.898
1009.676
1008.377
1007.006
1006.032
1021.219
1020.584
1019.917
1019.218
1018.487
1017.717
1016.901
1016.041
1015.132
1014.171
1013.153
1012.074
1010.927
1009.707
1008.413
1007.46
1007.003
1021.824
1021.222
1020.589
1019.927
1019.233
1018.503
1017.73
1016.915
1016.057
1015.15
1014.192
1013.176
1012.099
1010.954
1009.737
1008.813
1008.316
1007.972
1006.196
1007.052
1006.163
1008.22
1007.039
1006.095
1009.463
1008.216
1007.015
1005.987
1010.69
1009.463
1008.209
1006.978
1005.835
1011.865
1010.69
1009.461
1008.195
1006.928
991.877
1012.977
1011.866
1010.691
1009.456
1008.17
1002.503
966.7118
1014.027
1012.978
1011.867
1010.689
1009.443
1005.526
990.4038
943.8313
1015.015
1014.028
1012.98
1011.868
1010.683
1007.9
999.2695
977.532
927.2861
1015.948
1015.017
1014.03
1012.982
1011.866
1009.793
1004.834
993.668
969.0253
920.5948
1016.829
1015.95
1015.02
1014.034
1012.984
1011.352
1008.337
1002.814
991.3391
968.6094
925.4603
1017.662
1016.831
1015.953
1015.025
1014.038
1012.687
1010.696
1007.798
1002.851
993.5464
976.5576
940.8771
1018.451
1017.664
1016.835
1015.96
1015.033
1013.89
1012.456
1010.747
1008.443
1004.954
999.1927
989.491
963.7225
1019.198
1018.453
1017.669
1016.843
1015.971
1015.008
1013.932
1012.77
1011.48
1009.966
1008.09
1005.624
1002.196
990.1458
1019.908
1019.201
1018.459
1017.679
1016.86
1016.006
1015.094
1014.129
1013.106
1012.019
1010.864
1009.636
1008.328
1006.937
1005.433
1020.58
1019.91
1019.207
1018.469
1017.696
1016.885
1016.023
1015.113
1014.15
1013.129
1012.047
1010.897
1009.674
1008.374
1006.994
1005.884
1021.219
1020.583
1019.916
1019.217
1018.485
1017.716
1016.9
1016.04
1015.131
1014.171
1013.153
1012.074
1010.927
1009.708
1008.412
1007.452
1006.882
1021.824
1021.221
1020.589
1019.926
1019.232
1018.503
1017.729
1016.915
1016.056
1015.15
1014.192
1013.177
1012.1
1010.955
1009.738
1008.816
1008.312
1007.908
1022.398
1021.827
1021.227
1020.598
1019.94
1019.248
1018.514
1017.743
1016.93
1016.074
1015.169
1014.213
1013.2
1012.125
1010.982
1010.095
1009.579
1009.168
1008.898
1006.197
1007.053
1006.166
1008.221
1007.041
1006.102
1009.465
1008.218
1007.018
1006
1010.691
1009.465
1008.212
1006.983
1005.851
1011.866
1010.692
1009.464
1008.201
1006.94
998.3833
1012.978
1011.867
1010.693
1009.461
1008.181
1004.089
976.173
1014.027
1012.979
1011.869
1010.693
1009.449
1006.117
993.8758
952.4839
1015.016
1014.028
1012.981
1011.869
1010.686
1008.069
1000.243
980.5351
932.5995
1015.948
1015.017
1014.03
1012.982
1011.866
1009.793
1004.834
993.668
969.0253
920.5948
1016.828
1015.949
1015.019
1014.032
1012.982
1011.291
1008.053
1001.974
989.1921
964.1141
919.323
1017.661
1016.83
1015.952
1015.022
1014.034
1012.603
1010.365
1006.948
1000.837
989.0846
968.0162
929.2107
1018.45
1017.663
1016.833
1015.957
1015.027
1013.791
1012.126
1010.044
1007.017
1002.063
993.477
979.1256
948.0264
1019.198
1018.452
1017.667
1016.84
1015.964
1014.895
1013.603
1012.175
1010.481
1008.242
1005.04
1000.218
992.8655
971.91
1019.907
1019.2
1018.457
1017.675
1016.85
1015.941
1014.935
1013.868
1012.726
1011.469
1010.029
1008.338
1006.323
1003.922
995.7639
1020.58
1019.91
1019.205
1018.466
1017.691
1016.883
1016.022
1015.111
1014.148
1013.127
1012.045
1010.894
1009.671
1008.37
1006.984
1005.466
1021.218
1020.582
1019.915
1019.215
1018.482
1017.714
1016.899
1016.039
1015.13
1014.17
1013.152
1012.073
1010.927
1009.709
1008.413
1007.448
1006.62
1021.824
1021.221
1020.588
1019.925
1019.231
1018.501
1017.728
1016.914
1016.056
1015.15
1014.191
1013.177
1012.101
1010.957
1009.741
1008.824
1008.305
1007.752
1022.398
1021.826
1021.226
1020.597
1019.939
1019.247
1018.514
1017.742
1016.93
1016.073
1015.169
1014.213
1013.2
1012.126
1010.984
1010.099
1009.587
1009.164
1008.824
1022.942
1022.4
1021.832
1021.235
1020.611
1019.954
1019.258
1018.527
1017.757
1016.946
1016.091
1015.189
1014.234
1013.223
1012.15
1011.302
1010.778
1010.343
1010.02
1009.834
1007.053
1006.167
1008.222
1007.042
1006.106
1009.466
1008.219
1007.02
1006.011
1010.693
1009.466
1008.215
1006.988
1005.872
1011.867
1010.694
1009.468
1008.207
1006.946
1005.699
1012.98
1011.869
1010.696
1009.467
1008.193
1005.944
991.7779
1014.028
1012.981
1011.871
1010.697
1009.459
1006.894
998.6077
966.5726
1015.016
1014.029
1012.983
1011.872
1010.691
1008.38
1002.029
986.1838
943.5138
1015.948
1015.017
1014.031
1012.984
1011.868
1009.889
1005.343
995.2833
972.9642
926.5921
1016.828
1015.949
1015.019
1014.032
1012.982
1011.291
1008.053
1001.974
989.1921
964.1141
919.323
1017.661
1016.83
1015.951
1015.021
1014.032
1012.559
1010.189
1006.486
999.7219
986.621
963.4338
923.4911
1018.45
1017.663
1016.832
1015.955
1015.023
1013.722
1011.889
1009.52
1005.915
999.7732
988.9637
971.323
938.1835
1019.197
1018.451
1017.666
1016.837
1015.959
1014.808
1013.335
1011.671
1009.599
1006.661
1002.165
995.1135
984.5132
960.2622
1019.906
1019.199
1018.455
1017.671
1016.844
1015.837
1014.644
1013.382
1012.003
1010.397
1008.367
1005.708
1002.208
997.7866
985.6771
1020.579
1019.909
1019.204
1018.462
1017.682
1016.822
1015.874
1014.88
1013.838
1012.731
1011.533
1010.214
1008.785
1007.345
1006.274
1002.486
1021.218
1020.582
1019.914
1019.212
1018.477
1017.712
1016.897
1016.037
1015.129
1014.168
1013.151
1012.072
1010.927
1009.71
1008.417
1007.496
1005.934
1021.823
1021.22
1020.587
1019.923
1019.228
1018.5
1017.727
1016.913
1016.055
1015.149
1014.191
1013.177
1012.102
1010.96
1009.746
1008.85
1008.307
1007.419
1022.398
1021.826
1021.226
1020.596
1019.938
1019.246
1018.513
1017.742
1016.929
1016.073
1015.169
1014.213
1013.202
1012.128
1010.987
1010.112
1009.608
1009.157
1008.647
1022.942
1022.4
1021.831
1021.235
1020.61
1019.953
1019.258
1018.526
1017.756
1016.946
1016.091
1015.189
1014.235
1013.225
1012.152
1011.307
1010.789
1010.355
1010.016
1009.755
1023.456
1022.944
1022.405
1021.84
1021.248
1020.624
1019.964
1019.27
1018.54
1017.771
1016.962
1016.109
1015.209
1014.256
1013.246
1012.437
1011.913
1011.46
1011.106
1010.873
1010.333
1008.222
1007.043
1006.109
1009.467
1008.22
1007.022
1006.019
1010.694
1009.468
1008.217
1006.991
1005.892
1011.869
1010.696
1009.471
1008.212
1006.952
1005.749
1012.981
1011.871
1010.7
1009.473
1008.204
1006.91
1005.591
1014.029
1012.982
1011.874
1010.703
1009.47
1007.762
1004.066
988.2029
1015.017
1014.03
1012.985
1011.876
1010.7
1008.791
1004.354
993.8018
960.7794
1015.949
1015.018
1014.032
1012.987
1011.873
1010.069
1006.273
998.2323
980.3379
938.7991
1016.829
1015.95
1015.02
1014.034
1012.984
1011.352
1008.337
1002.814
991.3391
968.6094
925.4603
1017.661
1016.83
1015.951
1015.021
1014.032
1012.559
1010.189
1006.486
999.7219
986.621
963.4338
923.4911
1018.449
1017.662
1016.832
1015.953
1015.021
1013.687
1011.765
1009.239
1005.312
998.5003
986.4681
967.141
933.4066
1019.197
1018.451
1017.665
1016.835
1015.955
1014.748
1013.146
1011.304
1008.934
1005.428
999.8767
991.0779
978.243
953.1475
1019.906
1019.198
1018.454
1017.669
1016.839
1015.757
1014.408
1012.977
1011.383
1009.441
1006.828
1003.208
998.2836
992.2393
979.4551
1020.578
1019.908
1019.202
1018.459
1017.675
1016.724
1015.606
1014.452
1013.254
1011.972
1010.532
1008.844
1006.927
1004.992
1003.927
998.8795
1021.217
1020.581
1019.912
1019.209
1018.469
1017.654
1016.758
1015.824
1014.856
1013.848
1012.793
1011.683
1010.532
1009.452
1008.822
1008.215
1003.621
1021.823
1021.219
1020.585
1019.92
1019.223
1018.498
1017.726
1016.912
1016.054
1015.148
1014.19
1013.177
1012.103
1010.963
1009.754
1008.986
1008.369
1006.655
1022.397
1021.825
1021.225
1020.594
1019.935
1019.244
1018.512
1017.741
1016.928
1016.072
1015.169
1014.214
1013.203
1012.132
1010.993
1010.148
1009.669
1009.156
1008.283
1022.941
1022.4
1021.831
1021.233
1020.609
1019.952
1019.257
1018.526
1017.756
1016.945
1016.091
1015.189
1014.236
1013.227
1012.156
1011.321
1010.82
1010.386
1010.007
1009.569
1023.456
1022.944
1022.405
1021.839
1021.247
1020.624
1019.964
1019.269
1018.539
1017.771
1016.962
1016.11
1015.209
1014.257
1013.248
1012.443
1011.926
1011.476
1011.12
1010.868
1010.254
1023.943
1023.458
1022.949
1022.413
1021.852
1021.26
1020.634
1019.975
1019.282
1018.554
1017.787
1016.979
1016.128
1015.229
1014.277
1013.507
1012.987
1012.522
1012.138
1011.865
1011.323
1010.386
1009.467
1008.221
1007.023
1006.023
1010.694
1009.469
1008.219
1006.994
1005.907
1011.87
1010.697
1009.473
1008.216
1006.958
1005.787
1012.982
1011.872
1010.703
1009.478
1008.212
1006.921
1005.665
1014.03
1012.984
1011.877
1010.709
1009.484
1008.212
1006.882
1005.498
1015.018
1014.032
1012.988
1011.882
1010.711
1009.258
1006.916
1002.449
986.1611
1015.949
1015.019
1014.034
1012.991
1011.881
1010.311
1007.486
1002.031
990.1905
957.8084
1016.829
1015.95
1015.021
1014.036
1012.989
1011.467
1008.863
1004.343
995.2402
976.9974
937.9246
1017.661
1016.83
1015.952
1015.022
1014.034
1012.603
1010.365
1006.948
1000.837
989.0846
968.0162
929.2107
1018.449
1017.662
1016.832
1015.953
1015.021
1013.687
1011.765
1009.239
1005.312
998.5003
986.4681
967.141
933.4066
1019.196
1018.45
1017.664
1016.834
1015.954
1014.717
1013.048
1011.111
1008.575
1004.749
998.6012
988.8455
974.8885
949.7371
1019.905
1019.198
1018.453
1017.667
1016.835
1015.702
1014.244
1012.689
1010.928
1008.713
1005.619
1001.208
995.1664
988.0587
975.672
1020.578
1019.907
1019.201
1018.457
1017.67
1016.648
1015.39
1014.1
1012.765
1011.314
1009.627
1007.553
1005.105
1002.607
1001.533
996.0333
1021.216
1020.58
1019.91
1019.206
1018.463
1017.561
1016.506
1015.431
1014.346
1013.245
1012.104
1010.905
1009.673
1008.636
1008.414
1007.716
1000.784
1021.822
1021.218
1020.584
1019.917
1019.215
1018.442
1017.593
1016.711
1015.803
1014.868
1013.908
1012.922
1011.932
1011.021
1010.514
1010.322
1008.718
1004.831
1022.397
1021.824
1021.223
1020.592
1019.93
1019.242
1018.51
1017.739
1016.927
1016.071
1015.168
1014.214
1013.204
1012.136
1011.003
1010.306
1009.882
1009.194
1007.539
1022.941
1022.399
1021.829
1021.232
1020.606
1019.951
1019.256
1018.525
1017.755
1016.945
1016.091
1015.19
1014.238
1013.231
1012.162
1011.359
1010.898
1010.463
1009.998
1009.204
1023.456
1022.943
1022.404
1021.838
1021.245
1020.622
1019.963
1019.269
1018.539
1017.771
1016.962
1016.11
1015.211
1014.26
1013.252
1012.458
1011.958
1011.519
1011.155
1010.857
1010.069
1023.942
1023.458
1022.948
1022.413
1021.851
1021.26
1020.633
1019.975
1019.282
1018.554
1017.787
1016.98
1016.128
1015.23
1014.279
1013.512
1013
1012.54
1012.159
1011.881
1011.318
1010.307
1024.401
1023.945
1023.463
1022.956
1022.425
1021.864
1021.27
1020.645
1019.987
1019.296
1018.568
1017.803
1016.997
1016.146
1015.248
1014.515
1014.005
1013.535
1013.128
1012.813
1012.265
1011.371
1010.439
1010.695
1009.47
1008.22
1006.996
1005.915
1011.87
1010.698
1009.475
1008.218
1006.962
1005.813
1012.983
1011.874
1010.705
1009.482
1008.217
1006.931
1005.718
1014.031
1012.985
1011.88
1010.714
1009.493
1008.219
1006.9
1005.591
1015.019
1014.033
1012.99
1011.887
1010.725
1009.509
1008.215
1006.857
1005.427
1015.95
1015.02
1014.037
1012.995
1011.891
1010.596
1008.833
1006.152
1001.245
985.1342
1016.83
1015.951
1015.023
1014.04
1012.995
1011.627
1009.562
1006.308
1000.222
988.1431
957.2651
1017.662
1016.831
1015.953
1015.025
1014.038
1012.687
1010.696
1007.798
1002.851
993.5464
976.5576
940.8771
1018.45
1017.663
1016.832
1015.955
1015.023
1013.722
1011.889
1009.52
1005.915
999.7732
988.9637
971.323
938.1835
1019.196
1018.45
1017.664
1016.834
1015.954
1014.717
1013.048
1011.111
1008.575
1004.749
998.6012
988.8455
974.8885
949.7371
1019.905
1019.197
1018.452
1017.666
1016.834
1015.674
1014.16
1012.539
1010.686
1008.317
1004.951
1000.09
993.4392
985.8208
973.8563
1020.577
1019.906
1019.2
1018.455
1017.667
1016.597
1015.241
1013.853
1012.412
1010.826
1008.931
1006.527
1003.622
1000.664
999.6499
994.1281
1021.216
1020.579
1019.909
1019.203
1018.458
1017.489
1016.303
1015.11
1013.924
1012.734
1011.499
1010.183
1008.805
1007.669
1007.62
1006.92
998.416
1021.821
1021.218
1020.582
1019.914
1019.209
1018.353
1017.352
1016.341
1015.336
1014.345
1013.371
1012.419
1011.532
1010.854
1010.822
1010.599
1008.366
1002.6
1022.396
1021.824
1021.222
1020.589
1019.923
1019.189
1018.384
1017.548
1016.691
1015.815
1014.924
1014.023
1013.131
1012.323
1011.863
1011.772
1010.726
1009.337
1006.098
1022.94
1022.398
1021.828
1021.229
1020.602
1019.949
1019.254
1018.523
1017.754
1016.944
1016.09
1015.19
1014.239
1013.235
1012.172
1011.518
1011.151
1010.675
1010.003
1008.53
1023.455
1022.943
1022.403
1021.836
1021.243
1020.621
1019.962
1019.268
1018.538
1017.77
1016.962
1016.11
1015.212
1014.263
1013.258
1012.495
1012.041
1011.62
1011.234
1010.838
1009.715
1023.942
1023.458
1022.948
1022.411
1021.85
1021.259
1020.633
1019.974
1019.282
1018.553
1017.787
1016.98
1016.13
1015.232
1014.283
1013.527
1013.033
1012.587
1012.208
1011.918
1011.307
1010.123
1024.401
1023.944
1023.463
1022.956
1022.424
1021.864
1021.269
1020.644
1019.987
1019.295
1018.568
1017.803
1016.997
1016.148
1015.25
1014.52
1014.017
1013.554
1013.151
1012.836
1012.281
1011.366
1010.361
1024.833
1024.403
1023.949
1023.471
1022.968
1022.437
1021.873
1021.28
1020.656
1020
1019.31
1018.584
1017.819
1017.014
1016.165
1015.466
1014.969
1014.501
1014.08
1013.731
1013.168
1012.307
1011.419
1010.493
1011.871
1010.699
1009.476
1008.219
1006.964
1005.827
1012.983
1011.875
1010.706
1009.485
1008.221
1006.938
1005.753
1014.032
1012.987
1011.882
1010.718
1009.498
1008.224
1006.914
1005.656
1015.02
1014.035
1012.993
1011.892
1010.733
1009.514
1008.224
1006.882
1005.531
1015.951
1015.022
1014.039
1013.001
1011.905
1010.756
1009.524
1008.219
1006.84
1005.378
1016.831
1015.953
1015.025
1014.044
1013.005
1011.822
1010.359
1008.454
1005.566
1000.569
984.9397
1017.662
1016.832
1015.955
1015.028
1014.045
1012.807
1011.147
1008.911
1005.413
999.2121
987.8876
959.1274
1018.45
1017.663
1016.833
1015.957
1015.027
1013.791
1012.126
1010.044
1007.017
1002.063
993.477
979.1256
948.0264
1019.197
1018.451
1017.665
1016.835
1015.955
1014.748
1013.146
1011.304
1008.934
1005.428
999.8767
991.0779
978.243
953.1475
1019.905
1019.197
1018.452
1017.666
1016.834
1015.674
1014.16
1012.539
1010.686
1008.317
1004.951
1000.09
993.4392
985.8208
973.8563
1020.577
1019.906
1019.199
1018.454
1017.666
1016.571
1015.164
1013.725
1012.228
1010.566
1008.55
1005.955
1002.787
999.5762
998.6251
993.1778
1021.215
1020.578
1019.908
1019.202
1018.455
1017.44
1016.163
1014.886
1013.625
1012.363
1011.045
1009.615
1008.087
1006.822
1006.871
1006.216
996.7882
1021.821
1021.217
1020.581
1019.911
1019.205
1018.284
1017.159
1016.04
1014.953
1013.909
1012.911
1011.961
1011.105
1010.509
1010.694
1010.51
1007.759
1000.665
1022.395
1021.823
1021.22
1020.586
1019.917
1019.103
1018.153
1017.195
1016.252
1015.338
1014.464
1013.649
1012.935
1012.437
1012.438
1012.313
1011.003
1009.064
1004.359
1022.94
1022.397
1021.827
1021.226
1020.594
1019.898
1019.132
1018.34
1017.529
1016.703
1015.867
1015.029
1014.208
1013.466
1013.034
1012.959
1012.116
1011.22
1010.025
1007.405
1023.455
1022.942
1022.402
1021.834
1021.239
1020.619
1019.96
1019.267
1018.537
1017.769
1016.961
1016.11
1015.213
1014.267
1013.268
1012.647
1012.298
1011.881
1011.414
1010.809
1009.089
1023.942
1023.457
1022.947
1022.41
1021.847
1021.257
1020.632
1019.973
1019.281
1018.553
1017.787
1016.98
1016.131
1015.235
1014.289
1013.562
1013.114
1012.693
1012.315
1011.99
1011.282
1009.769
1024.401
1023.944
1023.462
1022.955
1022.423
1021.863
1021.269
1020.644
1019.986
1019.295
1018.568
1017.804
1016.998
1016.15
1015.253
1014.534
1014.049
1013.6
1013.205
1012.889
1012.317
1011.354
1010.176
1024.833
1024.403
1023.949
1023.47
1022.967
1022.436
1021.873
1021.28
1020.656
1020
1019.31
1018.584
1017.82
1017.015
1016.166
1015.472
1014.981
1014.519
1014.102
1013.756
1013.191
1012.323
1011.414
1010.414
1025.238
1024.835
1024.408
1023.957
1023.482
1022.979
1022.446
1021.883
1021.291
1020.668
1020.013
1019.324
1018.599
1017.836
1017.031
1016.367
1015.884
1015.421
1014.993
1014.621
1014.047
1013.206
1012.35
1011.467
1010.547
1012.984
1011.875
1010.707
1009.486
1008.223
1006.942
1005.77
1014.033
1012.987
1011.883
1010.72
1009.502
1008.228
1006.924
1005.698
1015.021
1014.036
1012.995
1011.896
1010.739
1009.518
1008.231
1006.901
1005.605
1015.952
1015.023
1014.042
1013.005
1011.913
1010.759
1009.529
1008.231
1006.871
1005.489
1016.832
1015.954
1015.028
1014.049
1013.017
1011.936
1010.774
1009.539
1008.227
1006.834
1005.352
1017.663
1016.833
1015.957
1015.032
1014.053
1012.957
1011.675
1010.155
1008.173
1005.249
1000.493
985.5659
1018.451
1017.664
1016.835
1015.96
1015.033
1013.89
1012.456
1010.747
1008.443
1004.954
999.1927
989.491
963.7225
1019.197
1018.451
1017.666
1016.837
1015.959
1014.808
1013.335
1011.671
1009.599
1006.661
1002.165
995.1135
984.5132
960.2622
1019.905
1019.198
1018.453
1017.667
1016.835
1015.702
1014.244
1012.689
1010.928
1008.713
1005.619
1001.208
995.1664
988.0587
975.672
1020.577
1019.906
1019.199
1018.454
1017.666
1016.571
1015.164
1013.725
1012.228
1010.566
1008.55
1005.955
1002.787
999.5762
998.6251
993.1778
1021.215
1020.578
1019.908
1019.201
1018.454
1017.415
1016.091
1014.77
1013.47
1012.168
1010.801
1009.301
1007.68
1006.331
1006.432
1005.815
995.9669
1021.821
1021.216
1020.58
1019.91
1019.202
1018.237
1017.026
1015.83
1014.683
1013.598
1012.574
1011.607
1010.742
1010.16
1010.463
1010.327
1007.205
999.3022
1022.395
1021.822
1021.219
1020.584
1019.913
1019.037
1017.968
1016.909
1015.893
1014.943
1014.077
1013.316
1012.706
1012.37
1012.584
1012.498
1010.98
1008.599
1002.808
1022.939
1022.397
1021.825
1021.223
1020.589
1019.815
1018.91
1018.002
1017.111
1016.254
1015.449
1014.717
1014.1
1013.689
1013.696
1013.579
1012.605
1011.455
1009.798
1006.077
1023.454
1022.941
1022.4
1021.831
1021.232
1020.57
1019.843
1019.09
1018.321
1017.54
1016.752
1015.965
1015.198
1014.506
1014.093
1014.012
1013.262
1012.536
1011.764
1010.755
1008.109
1023.941
1023.456
1022.945
1022.407
1021.843
1021.256
1020.63
1019.972
1019.28
1018.552
1017.786
1016.98
1016.132
1015.239
1014.298
1013.705
1013.362
1012.963
1012.547
1012.124
1011.238
1009.149
1024.4
1023.943
1023.461
1022.953
1022.42
1021.861
1021.268
1020.643
1019.986
1019.295
1018.568
1017.804
1017
1016.153
1015.259
1014.568
1014.127
1013.705
1013.319
1012.99
1012.383
1011.33
1009.825
1024.832
1024.403
1023.948
1023.469
1022.966
1022.435
1021.872
1021.279
1020.655
1019.999
1019.309
1018.584
1017.821
1017.017
1016.169
1015.485
1015.011
1014.564
1014.157
1013.813
1013.243
1012.36
1011.402
1010.23
1025.238
1024.835
1024.407
1023.956
1023.481
1022.979
1022.445
1021.883
1021.291
1020.668
1020.013
1019.324
1018.6
1017.837
1017.032
1016.372
1015.895
1015.439
1015.015
1014.646
1014.072
1013.229
1012.366
1011.462
1010.468
1025.617
1025.24
1024.839
1024.415
1023.967
1023.493
1022.988
1022.455
1021.894
1021.303
1020.681
1020.027
1019.339
1018.614
1017.851
1017.219
1016.753
1016.299
1015.87
1015.482
1014.904
1014.08
1013.243
1012.392
1011.515
1010.597
1014.033
1012.988
1011.884
1010.722
1009.504
1008.231
1006.929
1005.718
1015.021
1014.037
1012.996
1011.898
1010.742
1009.521
1008.235
1006.913
1005.652
1015.953
1015.024
1014.044
1013.008
1011.918
1010.763
1009.534
1008.239
1006.893
1005.568
1016.832
1015.955
1015.03
1014.053
1013.025
1011.939
1010.778
1009.546
1008.241
1006.868
1005.465
1017.664
1016.834
1015.959
1015.037
1014.065
1013.048
1011.955
1010.794
1009.557
1008.241
1006.841
1005.349
1018.451
1017.665