/*--------------------------------*- C++ -*----------------------------------*\
| =========                 |                                                 |
| \\      /  F ield         | OpenFOAM: The Open Source CFD Toolbox           |
|  \\    /   O peration     | Version:  2306                                  |
|   \\  /    A nd           | Website:  www.openfoam.com                      |
|    \\/     M anipulation  |                                                 |
\*---------------------------------------------------------------------------*/
FoamFile
{
    version     2.0;
    format      ascii;
    arch        "LSB;label=32;scalar=64";
    class       volScalarField;
    location    "0.6/electrolyte";
    object      T;
}
// * * * * * * * * * * * * * * * * * * * * * * * * * * * * * * * * * * * * * //

dimensions      [0 0 0 1 0 0 0];

internalField   nonuniform List<scalar> 
4000
(
1167.037
1166.889
1168.803
1167.044
1166.547
1168.793
1166.896
1170.416
1168.806
1167.05
1165.908
1168.768
1166.553
1170.444
1168.796
1166.902
1171.914
1170.415
1168.808
1167.056
1164.828
1168.717
1165.916
1170.505
1168.77
1166.56
1171.952
1170.442
1168.798
1166.908
1173.35
1171.91
1170.413
1168.81
1167.062
1163.234
1168.621
1164.842
1170.611
1168.717
1165.925
1172.037
1170.502
1168.771
1166.567
1173.39
1171.948
1170.441
1168.799
1166.915
1174.741
1173.343
1171.906
1170.412
1168.812
1161.418
1168.449
1163.262
1170.775
1168.618
1164.857
1172.187
1170.607
1168.717
1165.934
1173.479
1172.032
1170.5
1168.772
1166.574
1174.78
1173.383
1171.943
1170.439
1168.801
1176.092
1174.732
1173.336
1171.901
1170.41
1159.755
1168.17
1161.465
1170.983
1168.442
1163.29
1172.425
1170.767
1168.615
1164.872
1173.639
1172.18
1170.602
1168.717
1165.944
1174.868
1173.472
1172.026
1170.497
1168.773
1176.129
1174.771
1173.376
1171.938
1170.437
1177.402
1176.081
1174.723
1173.329
1171.896
1158.519
1167.844
1159.82
1171.141
1168.162
1161.511
1172.744
1170.968
1168.435
1163.318
1173.892
1172.415
1170.759
1168.612
1164.888
1175.024
1173.629
1172.173
1170.598
1168.716
1176.213
1174.858
1173.464
1172.021
1170.494
1177.437
1176.118
1174.762
1173.368
1171.933
1178.67
1177.39
1176.071
1174.714
1173.322
1157.867
1167.562
1158.597
1171.227
1167.839
1159.883
1173.036
1171.122
1168.155
1161.556
1174.235
1172.726
1170.953
1168.428
1163.345
1175.273
1173.879
1172.403
1170.75
1168.609
1176.362
1175.013
1173.62
1172.166
1170.593
1177.517
1176.202
1174.848
1173.456
1172.015
1178.704
1177.426
1176.108
1174.753
1173.361
1179.896
1178.658
1177.379
1176.06
1174.705
1157.867
1167.401
1157.951
1171.259
1167.56
1158.673
1173.253
1171.206
1167.833
1159.945
1174.562
1173.013
1171.103
1168.147
1161.6
1175.611
1174.216
1172.708
1170.938
1168.421
1176.601
1175.259
1173.866
1172.392
1170.741
1177.659
1176.35
1175.002
1173.61
1172.158
1178.78
1177.505
1176.19
1174.838
1173.447
1179.928
1178.692
1177.414
1176.097
1174.743
1181.078
1179.883
1178.645
1177.367
1176.049
1158.519
1167.401
1157.951
1171.267
1167.401
1158.034
1173.389
1171.238
1167.558
1158.747
1174.816
1173.227
1171.185
1167.828
1160.006
1175.938
1174.538
1172.991
1171.084
1168.139
1176.925
1175.592
1174.197
1172.691
1170.923
1177.886
1176.586
1175.244
1173.853
1172.38
1178.915
1177.646
1176.337
1174.99
1173.6
1180.001
1178.767
1177.492
1176.179
1174.828
1181.109
1179.915
1178.679
1177.402
1176.086
1182.216
1181.065
1179.87
1178.632
1177.355
1159.755
1167.562
1158.597
1171.267
1167.401
1158.034
1173.453
1171.246
1167.4
1158.115
1174.984
1173.362
1171.217
1167.555
1158.82
1176.197
1174.79
1173.202
1171.164
1167.822
1177.241
1175.915
1174.514
1172.968
1171.064
1178.195
1176.905
1175.572
1174.178
1172.672
1179.131
1177.871
1176.571
1175.23
1173.839
1180.13
1178.901
1177.632
1176.325
1174.978
1181.179
1179.987
1178.754
1177.48
1176.167
1182.246
1181.095
1179.902
1178.666
1177.389
1183.31
1182.202
1181.051
1179.856
1178.62
1161.418
1167.844
1159.82
1171.259
1167.56
1158.673
1173.453
1171.246
1167.4
1158.115
1175.066
1173.426
1171.224
1167.399
1158.194
1176.371
1174.956
1173.335
1171.195
1167.551
1177.493
1176.171
1174.763
1173.176
1171.142
1178.497
1177.218
1175.891
1174.49
1172.945
1179.425
1178.175
1176.886
1175.552
1174.158
1180.336
1179.115
1177.855
1176.555
1175.215
1181.302
1180.116
1178.887
1177.619
1176.311
1182.313
1181.165
1179.973
1178.74
1177.467
1183.339
1182.232
1181.081
1179.888
1178.653
1184.359
1183.296
1182.188
1181.037
1179.843
1163.234
1168.17
1161.465
1171.227
1167.839
1159.883
1173.389
1171.238
1167.558
1158.747
1175.066
1173.426
1171.224
1167.399
1158.194
1176.457
1175.037
1173.399
1171.203
1167.397
1177.663
1176.343
1174.927
1173.308
1171.173
1178.739
1177.467
1176.144
1174.736
1173.15
1179.713
1178.474
1177.194
1175.867
1174.466
1180.617
1179.405
1178.155
1176.866
1175.532
1181.5
1180.32
1179.099
1177.838
1176.539
1182.432
1181.288
1180.101
1178.873
1177.605
1183.403
1182.298
1181.15
1179.959
1178.727
1184.387
1183.324
1182.218
1181.067
1179.874
1185.365
1184.345
1183.281
1182.174
1181.023
1164.828
1168.449
1163.262
1171.141
1168.162
1161.511
1173.253
1171.206
1167.833
1159.945
1174.984
1173.362
1171.217
1167.555
1158.82
1176.457
1175.037
1173.399
1171.203
1167.397
1177.748
1176.428
1175.008
1173.371
1171.181
1178.902
1177.636
1176.315
1174.899
1173.281
1179.945
1178.713
1177.441
1176.118
1174.709
1180.892
1179.69
1178.45
1177.17
1175.843
1181.769
1180.597
1179.386
1178.135
1176.845
1182.622
1181.483
1180.303
1179.082
1177.822
1183.518
1182.417
1181.272
1180.086
1178.858
1184.449
1183.388
1182.284
1181.136
1179.945
1185.392
1184.373
1183.31
1182.203
1181.053
1186.326
1185.35
1184.331
1183.267
1182.16
1165.908
1168.621
1164.842
1170.983
1168.442
1163.29
1173.036
1171.122
1168.155
1161.556
1174.816
1173.227
1171.185
1167.828
1160.006
1176.371
1174.956
1173.335
1171.195
1167.551
1177.748
1176.428
1175.008
1173.371
1171.181
1178.984
1177.72
1176.4
1174.98
1173.344
1180.102
1178.876
1177.609
1176.287
1174.871
1181.114
1179.92
1178.688
1177.415
1176.091
1182.033
1180.87
1179.668
1178.427
1177.146
1182.88
1181.749
1180.577
1179.366
1178.115
1183.701
1182.605
1181.467
1180.286
1179.066
1184.561
1183.503
1182.401
1181.257
1180.071
1185.452
1184.435
1183.374
1182.269
1181.121
1186.353
1185.377
1184.358
1183.295
1182.189
1187.245
1186.312
1185.336
1184.316
1183.253
1166.547
1168.717
1165.916
1170.775
1168.618
1164.857
1172.744
1170.968
1168.435
1163.318
1174.562
1173.013
1171.103
1168.147
1161.6
1176.197
1174.79
1173.202
1171.164
1167.822
1177.663
1176.343
1174.927
1173.308
1171.173
1178.984
1177.72
1176.4
1174.98
1173.344
1180.18
1178.957
1177.692
1176.371
1174.951
1181.265
1180.076
1178.849
1177.581
1176.259
1182.246
1181.09
1179.896
1178.663
1177.389
1183.134
1182.011
1180.847
1179.645
1178.404
1183.95
1182.861
1181.729
1180.557
1179.345
1184.738
1183.684
1182.588
1181.45
1180.269
1185.56
1184.545
1183.487
1182.386
1181.242
1186.412
1185.438
1184.42
1183.359
1182.254
1187.271
1186.338
1185.363
1184.344
1183.281
1188.121
1187.231
1186.298
1185.322
1184.302
1166.889
1168.768
1166.553
1170.611
1168.717
1165.925
1172.425
1170.767
1168.615
1164.872
1174.235
1172.726
1170.953
1168.428
1163.345
1175.938
1174.538
1172.991
1171.084
1168.139
1177.493
1176.171
1174.763
1173.176
1171.142
1178.902
1177.636
1176.315
1174.899
1173.281
1180.18
1178.957
1177.692
1176.371
1174.951
1181.34
1180.154
1178.93
1177.664
1176.342
1182.391
1181.24
1180.051
1178.823
1177.554
1183.34
1182.223
1181.066
1179.871
1178.637
1184.196
1183.113
1181.989
1180.825
1179.622
1184.979
1183.931
1182.841
1181.71
1180.537
1185.732
1184.721
1183.668
1182.571
1181.433
1186.516
1185.545
1184.53
1183.472
1182.37
1187.328
1186.397
1185.423
1184.405
1183.344
1188.146
1187.256
1186.324
1185.348
1184.329
1188.955
1188.107
1187.217
1186.284
1185.307
1167.037
1168.793
1166.896
1170.505
1168.77
1166.56
1172.187
1170.607
1168.717
1165.934
1173.892
1172.415
1170.759
1168.612
1164.888
1175.611
1174.216
1172.708
1170.938
1168.421
1177.241
1175.915
1174.514
1172.968
1171.064
1178.739
1177.467
1176.144
1174.736
1173.15
1180.102
1178.876
1177.609
1176.287
1174.871
1181.34
1180.154
1178.93
1177.664
1176.342
1182.464
1181.315
1180.128
1178.903
1177.636
1183.48
1182.367
1181.215
1180.025
1178.797
1184.395
1183.317
1182.2
1181.042
1179.846
1185.217
1184.175
1183.092
1181.967
1180.803
1185.966
1184.96
1183.912
1182.822
1181.69
1186.684
1185.716
1184.705
1183.651
1182.554
1187.43
1186.501
1185.53
1184.515
1183.456
1188.202
1187.314
1186.382
1185.408
1184.39
1188.979
1188.132
1187.242
1186.31
1185.334
1189.747
1188.941
1188.093
1187.203
1186.269
1168.803
1167.044
1170.444
1168.796
1166.902
1172.037
1170.502
1168.771
1166.567
1173.639
1172.18
1170.602
1168.717
1165.944
1175.273
1173.879
1172.403
1170.75
1168.609
1176.925
1175.592
1174.197
1172.691
1170.923
1178.497
1177.218
1175.891
1174.49
1172.945
1179.945
1178.713
1177.441
1176.118
1174.709
1181.265
1180.076
1178.849
1177.581
1176.259
1182.464
1181.315
1180.128
1178.903
1177.636
1183.55
1182.439
1181.29
1180.102
1178.876
1184.53
1183.457
1182.343
1181.19
1180
1185.41
1184.373
1183.295
1182.176
1181.018
1186.197
1185.196
1184.154
1183.07
1181.946
1186.911
1185.948
1184.942
1183.893
1182.803
1187.593
1186.668
1185.699
1184.688
1183.634
1188.302
1187.415
1186.486
1185.514
1184.499
1189.034
1188.188
1187.299
1186.368
1185.393
1189.771
1188.965
1188.118
1187.228
1186.295
1190.498
1189.733
1188.927
1188.079
1187.188
1170.416
1168.806
1167.05
1171.952
1170.442
1168.798
1166.908
1173.479
1172.032
1170.5
1168.772
1166.574
1175.024
1173.629
1172.173
1170.598
1168.716
1176.601
1175.259
1173.866
1172.392
1170.741
1178.195
1176.905
1175.572
1174.178
1172.672
1179.713
1178.474
1177.194
1175.867
1174.466
1181.114
1179.92
1178.688
1177.415
1176.091
1182.391
1181.24
1180.051
1178.823
1177.554
1183.55
1182.439
1181.29
1180.102
1178.876
1184.598
1183.527
1182.415
1181.265
1180.076
1185.541
1184.508
1183.433
1182.319
1181.166
1186.385
1185.388
1184.351
1183.272
1182.153
1187.136
1186.177
1185.176
1184.133
1183.049
1187.815
1186.893
1185.929
1184.923
1183.874
1188.461
1187.578
1186.651
1185.683
1184.671
1189.132
1188.287
1187.4
1186.471
1185.499
1189.825
1189.02
1188.173
1187.285
1186.353
1190.522
1189.757
1188.951
1188.104
1187.213
1191.209
1190.485
1189.72
1188.913
1188.065
1171.914
1170.415
1168.808
1167.056
1173.39
1171.948
1170.441
1168.799
1166.915
1174.868
1173.472
1172.026
1170.497
1168.773
1176.362
1175.013
1173.62
1172.166
1170.593
1177.886
1176.586
1175.244
1173.853
1172.38
1179.425
1178.175
1176.886
1175.552
1174.158
1180.892
1179.69
1178.45
1177.17
1175.843
1182.246
1181.09
1179.896
1178.663
1177.389
1183.48
1182.367
1181.215
1180.025
1178.797
1184.598
1183.527
1182.415
1181.265
1180.076
1185.607
1184.576
1183.503
1182.391
1181.24
1186.513
1185.52
1184.485
1183.41
1182.295
1187.319
1186.364
1185.367
1184.329
1183.25
1188.035
1187.117
1186.157
1185.156
1184.113
1188.678
1187.798
1186.875
1185.911
1184.904
1189.288
1188.446
1187.562
1186.635
1185.666
1189.921
1189.117
1188.273
1187.385
1186.456
1190.574
1189.811
1189.006
1188.159
1187.27
1191.232
1190.508
1189.744
1188.937
1188.089
1191.879
1191.196
1190.471
1189.706
1188.899
1173.35
1171.91
1170.413
1168.81
1167.062
1174.78
1173.383
1171.943
1170.439
1168.801
1176.213
1174.858
1173.464
1172.021
1170.494
1177.659
1176.35
1175.002
1173.61
1172.158
1179.131
1177.871
1176.571
1175.23
1173.839
1180.617
1179.405
1178.155
1176.866
1175.532
1182.033
1180.87
1179.668
1178.427
1177.146
1183.34
1182.223
1181.066
1179.871
1178.637
1184.53
1183.457
1182.343
1181.19
1180
1185.607
1184.576
1183.503
1182.391
1181.24
1186.577
1185.585
1184.553
1183.48
1182.367
1187.444
1186.492
1185.498
1184.463
1183.387
1188.213
1187.299
1186.343
1185.346
1184.307
1188.893
1188.016
1187.098
1186.138
1185.136
1189.5
1188.661
1187.78
1186.858
1185.893
1190.073
1189.272
1188.43
1187.546
1186.619
1190.668
1189.906
1189.103
1188.258
1187.37
1191.284
1190.561
1189.797
1188.992
1188.145
1191.902
1191.219
1190.495
1189.73
1188.923
1192.51
1191.866
1191.182
1190.458
1189.692
1174.741
1173.343
1171.906
1170.412
1168.812
1176.129
1174.771
1173.376
1171.938
1170.437
1177.517
1176.202
1174.848
1173.456
1172.015
1178.915
1177.646
1176.337
1174.99
1173.6
1180.336
1179.115
1177.855
1176.555
1175.215
1181.769
1180.597
1179.386
1178.135
1176.845
1183.134
1182.011
1180.847
1179.645
1178.404
1184.395
1183.317
1182.2
1181.042
1179.846
1185.541
1184.508
1183.433
1182.319
1181.166
1186.577
1185.585
1184.553
1183.48
1182.367
1187.507
1186.556
1185.564
1184.53
1183.456
1188.336
1187.424
1186.471
1185.476
1184.441
1189.068
1188.194
1187.279
1186.323
1185.325
1189.71
1188.874
1187.997
1187.079
1186.118
1190.281
1189.483
1188.644
1187.763
1186.84
1190.819
1190.058
1189.257
1188.414
1187.529
1191.376
1190.655
1189.892
1189.088
1188.243
1191.953
1191.27
1190.547
1189.783
1188.977
1192.532
1191.889
1191.205
1190.481
1189.716
1193.101
1192.497
1191.853
1191.169
1190.444
1176.092
1174.732
1173.336
1171.901
1170.41
1177.437
1176.118
1174.762
1173.368
1171.933
1178.78
1177.505
1176.19
1174.838
1173.447
1180.13
1178.901
1177.632
1176.325
1174.978
1181.5
1180.32
1179.099
1177.838
1176.539
1182.88
1181.749
1180.577
1179.366
1178.115
1184.196
1183.113
1181.989
1180.825
1179.622
1185.41
1184.373
1183.295
1182.176
1181.018
1186.513
1185.52
1184.485
1183.41
1182.295
1187.507
1186.556
1185.564
1184.53
1183.456
1188.397
1187.486
1186.535
1185.542
1184.508
1189.187
1188.316
1187.403
1186.449
1185.454
1189.882
1189.049
1188.174
1187.259
1186.302
1190.488
1189.692
1188.856
1187.979
1187.059
1191.023
1190.265
1189.466
1188.626
1187.745
1191.524
1190.804
1190.043
1189.242
1188.398
1192.044
1191.362
1190.64
1189.878
1189.073
1192.583
1191.94
1191.257
1190.533
1189.769
1193.123
1192.519
1191.876
1191.192
1190.467
1193.654
1193.089
1192.484
1191.84
1191.156
1177.402
1176.081
1174.723
1173.329
1171.896
1178.704
1177.426
1176.108
1174.753
1173.361
1180.001
1178.767
1177.492
1176.179
1174.828
1181.302
1180.116
1178.887
1177.619
1176.311
1182.622
1181.483
1180.303
1179.082
1177.822
1183.95
1182.861
1181.729
1180.557
1179.345
1185.217
1184.175
1183.092
1181.967
1180.803
1186.385
1185.388
1184.351
1183.272
1182.153
1187.444
1186.492
1185.498
1184.463
1183.387
1188.397
1187.486
1186.535
1185.542
1184.508
1189.248
1188.377
1187.466
1186.513
1185.52
1189.999
1189.168
1188.296
1187.383
1186.428
1190.656
1189.863
1189.03
1188.155
1187.239
1191.226
1190.47
1189.675
1188.838
1187.96
1191.725
1191.007
1190.249
1189.45
1188.609
1192.189
1191.509
1190.789
1190.028
1189.226
1192.672
1192.03
1191.349
1190.626
1189.863
1193.173
1192.57
1191.926
1191.243
1190.519
1193.676
1193.111
1192.507
1191.863
1191.178
1194.168
1193.642
1193.076
1192.472
1191.827
1178.67
1177.39
1176.071
1174.714
1173.322
1179.928
1178.692
1177.414
1176.097
1174.743
1181.179
1179.987
1178.754
1177.48
1176.167
1182.432
1181.288
1180.101
1178.873
1177.605
1183.701
1182.605
1181.467
1180.286
1179.066
1184.979
1183.931
1182.841
1181.71
1180.537
1186.197
1185.196
1184.154
1183.07
1181.946
1187.319
1186.364
1185.367
1184.329
1183.25
1188.336
1187.424
1186.471
1185.476
1184.441
1189.248
1188.377
1187.466
1186.513
1185.52
1190.059
1189.228
1188.357
1187.445
1186.492
1190.772
1189.98
1189.149
1188.276
1187.362
1191.391
1190.638
1189.845
1189.011
1188.136
1191.924
1191.209
1190.453
1189.657
1188.82
1192.387
1191.709
1190.991
1190.232
1189.433
1192.816
1192.175
1191.495
1190.774
1190.013
1193.262
1192.659
1192.017
1191.335
1190.612
1193.725
1193.16
1192.557
1191.913
1191.23
1194.19
1193.663
1193.098
1192.494
1191.849
1194.644
1194.156
1193.629
1193.064
1192.459
1179.896
1178.658
1177.379
1176.06
1174.705
1181.109
1179.915
1178.679
1177.402
1176.086
1182.313
1181.165
1179.973
1178.74
1177.467
1183.518
1182.417
1181.272
1180.086
1178.858
1184.738
1183.684
1182.588
1181.45
1180.269
1185.966
1184.96
1183.912
1182.822
1181.69
1187.136
1186.177
1185.176
1184.133
1183.049
1188.213
1187.299
1186.343
1185.346
1184.307
1189.187
1188.316
1187.403
1186.449
1185.454
1190.059
1189.228
1188.357
1187.445
1186.492
1190.83
1190.04
1189.209
1188.337
1187.425
1191.505
1190.753
1189.962
1189.129
1188.256
1192.088
1191.374
1190.62
1189.826
1188.992
1192.584
1191.908
1191.192
1190.436
1189.639
1193.011
1192.372
1191.693
1190.975
1190.216
1193.403
1192.802
1192.161
1191.48
1190.759
1193.812
1193.249
1192.646
1192.003
1191.321
1194.238
1193.712
1193.148
1192.544
1191.9
1194.665
1194.178
1193.651
1193.086
1192.481
1195.082
1194.632
1194.144
1193.617
1193.051
1181.078
1179.883
1178.645
1177.367
1176.049
1182.246
1181.095
1179.902
1178.666
1177.389
1183.403
1182.298
1181.15
1179.959
1178.727
1184.561
1183.503
1182.401
1181.257
1180.071
1185.732
1184.721
1183.668
1182.571
1181.433
1186.911
1185.948
1184.942
1183.893
1182.803
1188.035
1187.117
1186.157
1185.156
1184.113
1189.068
1188.194
1187.279
1186.323
1185.325
1189.999
1189.168
1188.296
1187.383
1186.428
1190.83
1190.04
1189.209
1188.337
1187.425
1191.562
1190.812
1190.021
1189.189
1188.317
1192.2
1191.487
1190.735
1189.943
1189.11
1192.745
1192.07
1191.356
1190.602
1189.808
1193.205
1192.568
1191.891
1191.175
1190.418
1193.596
1192.996
1192.356
1191.678
1190.959
1193.952
1193.389
1192.788
1192.147
1191.465
1194.325
1193.8
1193.236
1192.632
1191.989
1194.713
1194.226
1193.7
1193.135
1192.53
1195.103
1194.654
1194.165
1193.639
1193.073
1195.483
1195.071
1194.62
1194.132
1193.605
1182.216
1181.065
1179.87
1178.632
1177.355
1183.339
1182.232
1181.081
1179.888
1178.653
1184.449
1183.388
1182.284
1181.136
1179.945
1185.56
1184.545
1183.487
1182.386
1181.242
1186.684
1185.716
1184.705
1183.651
1182.554
1187.815
1186.893
1185.929
1184.923
1183.874
1188.893
1188.016
1187.098
1186.138
1185.136
1189.882
1189.049
1188.174
1187.259
1186.302
1190.772
1189.98
1189.149
1188.276
1187.362
1191.562
1190.812
1190.021
1189.189
1188.317
1192.256
1191.544
1190.793
1190.002
1189.17
1192.856
1192.182
1191.469
1190.717
1189.924
1193.364
1192.728
1192.053
1191.339
1190.584
1193.788
1193.189
1192.552
1191.875
1191.158
1194.142
1193.581
1192.981
1192.341
1191.662
1194.463
1193.939
1193.376
1192.774
1192.132
1194.799
1194.312
1193.787
1193.222
1192.619
1195.151
1194.701
1194.214
1193.687
1193.122
1195.503
1195.092
1194.642
1194.153
1193.626
1195.846
1195.471
1195.059
1194.609
1194.12
1183.31
1182.202
1181.051
1179.856
1178.62
1184.387
1183.324
1182.218
1181.067
1179.874
1185.452
1184.435
1183.374
1182.269
1181.121
1186.516
1185.545
1184.53
1183.472
1182.37
1187.593
1186.668
1185.699
1184.688
1183.634
1188.678
1187.798
1186.875
1185.911
1184.904
1189.71
1188.874
1187.997
1187.079
1186.118
1190.656
1189.863
1189.03
1188.155
1187.239
1191.505
1190.753
1189.962
1189.129
1188.256
1192.256
1191.544
1190.793
1190.002
1189.17
1192.911
1192.239
1191.526
1190.775
1189.983
1193.473
1192.839
1192.165
1191.452
1190.699
1193.945
1193.348
1192.711
1192.036
1191.321
1194.332
1193.772
1193.173
1192.535
1191.858
1194.651
1194.128
1193.566
1192.966
1192.326
1194.936
1194.45
1193.925
1193.362
1192.76
1195.236
1194.787
1194.3
1193.774
1193.209
1195.551
1195.139
1194.689
1194.201
1193.675
1195.866
1195.492
1195.08
1194.63
1194.141
1196.171
1195.834
1195.46
1195.047
1194.597
1184.359
1183.296
1182.188
1181.037
1179.843
1185.392
1184.373
1183.31
1182.203
1181.053
1186.412
1185.438
1184.42
1183.359
1182.254
1187.43
1186.501
1185.53
1184.515
1183.456
1188.461
1187.578
1186.651
1185.683
1184.671
1189.5
1188.661
1187.78
1186.858
1185.893
1190.488
1189.692
1188.856
1187.979
1187.059
1191.391
1190.638
1189.845
1189.011
1188.136
1192.2
1191.487
1190.735
1189.943
1189.11
1192.911
1192.239
1191.526
1190.775
1189.983
1193.528
1192.894
1192.221
1191.509
1190.756
1194.053
1193.457
1192.822
1192.147
1191.434
1194.488
1193.929
1193.331
1192.695
1192.019
1194.839
1194.317
1193.757
1193.157
1192.519
1195.122
1194.637
1194.114
1193.552
1192.951
1195.371
1194.923
1194.437
1193.912
1193.348
1195.635
1195.224
1194.774
1194.287
1193.761
1195.913
1195.539
1195.127
1194.677
1194.189
1196.192
1195.855
1195.481
1195.068
1194.618
1196.46
1196.16
1195.823
1195.448
1195.036
1185.365
1184.345
1183.281
1182.174
1181.023
1186.353
1185.377
1184.358
1183.295
1182.189
1187.328
1186.397
1185.423
1184.405
1183.344
1188.302
1187.415
1186.486
1185.514
1184.499
1189.288
1188.446
1187.562
1186.635
1185.666
1190.281
1189.483
1188.644
1187.763
1186.84
1191.226
1190.47
1189.675
1188.838
1187.96
1192.088
1191.374
1190.62
1189.826
1188.992
1192.856
1192.182
1191.469
1190.717
1189.924
1193.528
1192.894
1192.221
1191.509
1190.756
1194.107
1193.512
1192.877
1192.204
1191.491
1194.595
1194.037
1193.44
1192.805
1192.13
1194.993
1194.472
1193.913
1193.315
1192.678
1195.308
1194.824
1194.302
1193.741
1193.142
1195.556
1195.109
1194.623
1194.099
1193.537
1195.769
1195.359
1194.91
1194.423
1193.898
1195.997
1195.623
1195.212
1194.762
1194.274
1196.238
1195.902
1195.527
1195.115
1194.665
1196.481
1196.181
1195.844
1195.469
1195.056
1196.712
1196.45
1196.149
1195.812
1195.437
1186.326
1185.35
1184.331
1183.267
1182.16
1187.271
1186.338
1185.363
1184.344
1183.281
1188.202
1187.314
1186.382
1185.408
1184.39
1189.132
1188.287
1187.4
1186.471
1185.499
1190.073
1189.272
1188.43
1187.546
1186.619
1191.023
1190.265
1189.466
1188.626
1187.745
1191.924
1191.209
1190.453
1189.657
1188.82
1192.745
1192.07
1191.356
1190.602
1189.808
1193.473
1192.839
1192.165
1191.452
1190.699
1194.107
1193.512
1192.877
1192.204
1191.491
1194.649
1194.091
1193.495
1192.86
1192.186
1195.099
1194.579
1194.02
1193.424
1192.788
1195.461
1194.978
1194.456
1193.897
1193.299
1195.741
1195.294
1194.809
1194.287
1193.726
1195.953
1195.543
1195.095
1194.609
1194.085
1196.13
1195.757
1195.346
1194.897
1194.41
1196.321
1195.985
1195.611
1195.199
1194.75
1196.527
1196.227
1195.89
1195.516
1195.103
1196.733
1196.47
1196.17
1195.833
1195.457
1196.928
1196.702
1196.439
1196.138
1195.801
1187.245
1186.312
1185.336
1184.316
1183.253
1188.146
1187.256
1186.324
1185.348
1184.329
1189.034
1188.188
1187.299
1186.368
1185.393
1189.921
1189.117
1188.273
1187.385
1186.456
1190.819
1190.058
1189.257
1188.414
1187.529
1191.725
1191.007
1190.249
1189.45
1188.609
1192.584
1191.908
1191.192
1190.436
1189.639
1193.364
1192.728
1192.053
1191.339
1190.584
1194.053
1193.457
1192.822
1192.147
1191.434
1194.649
1194.091
1193.495
1192.86
1192.186
1195.153
1194.633
1194.075
1193.478
1192.843
1195.567
1195.084
1194.563
1194.004
1193.407
1195.892
1195.446
1194.963
1194.441
1193.881
1196.136
1195.726
1195.279
1194.795
1194.272
1196.312
1195.939
1195.529
1195.081
1194.595
1196.454
1196.118
1195.745
1195.333
1194.884
1196.609
1196.31
1195.973
1195.599
1195.187
1196.779
1196.516
1196.216
1195.879
1195.504
1196.948
1196.722
1196.459
1196.159
1195.821
1197.106
1196.917
1196.691
1196.428
1196.127
1188.121
1187.231
1186.298
1185.322
1184.302
1188.979
1188.132
1187.242
1186.31
1185.334
1189.825
1189.02
1188.173
1187.285
1186.353
1190.668
1189.906
1189.103
1188.258
1187.37
1191.524
1190.804
1190.043
1189.242
1188.398
1192.387
1191.709
1190.991
1190.232
1189.433
1193.205
1192.568
1191.891
1191.175
1190.418
1193.945
1193.348
1192.711
1192.036
1191.321
1194.595
1194.037
1193.44
1192.805
1192.13
1195.153
1194.633
1194.075
1193.478
1192.843
1195.62
1195.137
1194.617
1194.059
1193.462
1195.997
1195.551
1195.068
1194.547
1193.988
1196.286
1195.878
1195.431
1194.947
1194.425
1196.494
1196.122
1195.712
1195.265
1194.78
1196.635
1196.299
1195.926
1195.516
1195.067
1196.741
1196.442
1196.106
1195.732
1195.321
1196.861
1196.598
1196.299
1195.962
1195.587
1196.994
1196.768
1196.505
1196.205
1195.867
1197.126
1196.937
1196.711
1196.448
1196.148
1197.248
1197.096
1196.907
1196.68
1196.417
1188.955
1188.107
1187.217
1186.284
1185.307
1189.771
1188.965
1188.118
1187.228
1186.295
1190.574
1189.811
1189.006
1188.159
1187.27
1191.376
1190.655
1189.892
1189.088
1188.243
1192.189
1191.509
1190.789
1190.028
1189.226
1193.011
1192.372
1191.693
1190.975
1190.216
1193.788
1193.189
1192.552
1191.875
1191.158
1194.488
1193.929
1193.331
1192.695
1192.019
1195.099
1194.579
1194.02
1193.424
1192.788
1195.62
1195.137
1194.617
1194.059
1193.462
1196.05
1195.604
1195.122
1194.601
1194.043
1196.39
1195.982
1195.536
1195.053
1194.532
1196.644
1196.272
1195.863
1195.417
1194.932
1196.816
1196.481
1196.108
1195.698
1195.251
1196.921
1196.622
1196.286
1195.913
1195.502
1196.992
1196.73
1196.43
1196.094
1195.719
1197.075
1196.85
1196.587
1196.287
1195.95
1197.172
1196.983
1196.757
1196.494
1196.194
1197.269
1197.116
1196.927
1196.701
1196.437
1197.354
1197.238
1197.086
1196.896
1196.67
1189.747
1188.941
1188.093
1187.203
1186.269
1190.522
1189.757
1188.951
1188.104
1187.213
1191.284
1190.561
1189.797
1188.992
1188.145
1192.044
1191.362
1190.64
1189.878
1189.073
1192.816
1192.175
1191.495
1190.774
1190.013
1193.596
1192.996
1192.356
1191.678
1190.959
1194.332
1193.772
1193.173
1192.535
1191.858
1194.993
1194.472
1193.913
1193.315
1192.678
1195.567
1195.084
1194.563
1194.004
1193.407
1196.05
1195.604
1195.122
1194.601
1194.043
1196.443
1196.035
1195.589
1195.106
1194.585
1196.747
1196.376
1195.967
1195.521
1195.038
1196.965
1196.63
1196.258
1195.849
1195.402
1197.101
1196.802
1196.467
1196.094
1195.684
1197.171
1196.909
1196.609
1196.273
1195.9
1197.206
1196.98
1196.718
1196.418
1196.081
1197.253
1197.064
1196.839
1196.576
1196.275
1197.314
1197.162
1196.972
1196.746
1196.483
1197.374
1197.258
1197.106
1196.916
1196.69
1197.423
1197.344
1197.228
1197.075
1196.886
1190.498
1189.733
1188.927
1188.079
1187.188
1191.232
1190.508
1189.744
1188.937
1188.089
1191.953
1191.27
1190.547
1189.783
1188.977
1192.672
1192.03
1191.349
1190.626
1189.863
1193.403
1192.802
1192.161
1191.48
1190.759
1194.142
1193.581
1192.981
1192.341
1191.662
1194.839
1194.317
1193.757
1193.157
1192.519
1195.461
1194.978
1194.456
1193.897
1193.299
1195.997
1195.551
1195.068
1194.547
1193.988
1196.443
1196.035
1195.589
1195.106
1194.585
1196.8
1196.428
1196.02
1195.574
1195.091
1197.068
1196.733
1196.361
1195.952
1195.506
1197.249
1196.951
1196.616
1196.244
1195.834
1197.35
1197.088
1196.789
1196.453
1196.08
1197.384
1197.158
1196.896
1196.597
1196.26
1197.383
1197.195
1196.969
1196.706
1196.406
1197.395
1197.243
1197.054
1196.827
1196.564
1197.419
1197.304
1197.151
1196.962
1196.735
1197.443
1197.364
1197.248
1197.095
1196.906
1197.456
1197.414
1197.334
1197.218
1197.065
1191.209
1190.485
1189.72
1188.913
1188.065
1191.902
1191.219
1190.495
1189.73
1188.923
1192.583
1191.94
1191.257
1190.533
1189.769
1193.262
1192.659
1192.017
1191.335
1190.612
1193.952
1193.389
1192.788
1192.147
1191.465
1194.651
1194.128
1193.566
1192.966
1192.326
1195.308
1194.824
1194.302
1193.741
1193.142
1195.892
1195.446
1194.963
1194.441
1193.881
1196.39
1195.982
1195.536
1195.053
1194.532
1196.8
1196.428
1196.02
1195.574
1195.091
1197.12
1196.785
1196.414
1196.005
1195.559
1197.352
1197.054
1196.719
1196.347
1195.938
1197.498
1197.236
1196.937
1196.602
1196.229
1197.563
1197.337
1197.075
1196.776
1196.44
1197.561
1197.372
1197.146
1196.884
1196.584
1197.525
1197.372
1197.183
1196.957
1196.694
1197.5
1197.385
1197.232
1197.043
1196.816
1197.488
1197.409
1197.293
1197.141
1196.951
1197.476
1197.433
1197.354
1197.238
1197.085
1197.446
1197.404
1197.324
1197.208
1191.879
1191.196
1190.471
1189.706
1188.899
1192.532
1191.889
1191.205
1190.481
1189.716
1193.173
1192.57
1191.926
1191.243
1190.519
1193.812
1193.249
1192.646
1192.003
1191.321
1194.463
1193.939
1193.376
1192.774
1192.132
1195.122
1194.637
1194.114
1193.552
1192.951
1195.741
1195.294
1194.809
1194.287
1193.726
1196.286
1195.878
1195.431
1194.947
1194.425
1196.747
1196.376
1195.967
1195.521
1195.038
1197.12
1196.785
1196.414
1196.005
1195.559
1197.404
1197.106
1196.771
1196.399
1195.99
1197.6
1197.338
1197.04
1196.705
1196.332
1197.71
1197.484
1197.222
1196.924
1196.588
1197.739
1197.55
1197.324
1197.062
1196.762
1197.702
1197.549
1197.36
1197.134
1196.871
1197.629
1197.514
1197.361
1197.172
1196.945
1197.569
1197.49
1197.374
1197.221
1197.032
1197.521
1197.478
1197.399
1197.283
1197.13
1197.466
1197.424
1197.344
1197.228
1197.437
1197.394
1197.314
1192.51
1191.866
1191.182
1190.458
1189.692
1193.123
1192.519
1191.876
1191.192
1190.467
1193.725
1193.16
1192.557
1191.913
1191.23
1194.325
1193.8
1193.236
1192.632
1191.989
1194.936
1194.45
1193.925
1193.362
1192.76
1195.556
1195.109
1194.623
1194.099
1193.537
1196.136
1195.726
1195.279
1194.795
1194.272
1196.644
1196.272
1195.863
1195.417
1194.932
1197.068
1196.733
1196.361
1195.952
1195.506
1197.404
1197.106
1196.771
1196.399
1195.99
1197.651
1197.39
1197.092
1196.757
1196.385
1197.812
1197.586
1197.324
1197.026
1196.691
1197.886
1197.697
1197.471
1197.209
1196.91
1197.879
1197.726
1197.537
1197.311
1197.049
1197.806
1197.69
1197.537
1197.348
1197.122
1197.698
1197.618
1197.503
1197.35
1197.16
1197.602
1197.559
1197.479
1197.363
1197.21
1197.511
1197.468
1197.389
1197.273
1197.457
1197.414
1197.334
1197.427
1197.384
1193.101
1192.497
1191.853
1191.169
1190.444
1193.676
1193.111
1192.507
1191.863
1191.178
1194.238
1193.712
1193.148
1192.544
1191.9
1194.799
1194.312
1193.787
1193.222
1192.619
1195.371
1194.923
1194.437
1193.912
1193.348
1195.953
1195.543
1195.095
1194.609
1194.085
1196.494
1196.122
1195.712
1195.265
1194.78
1196.965
1196.63
1196.258
1195.849
1195.402
1197.352
1197.054
1196.719
1196.347
1195.938
1197.651
1197.39
1197.092
1196.757
1196.385
1197.863
1197.638
1197.376
1197.078
1196.743
1197.987
1197.798
1197.573
1197.311
1197.012
1198.026
1197.873
1197.684
1197.458
1197.196
1197.983
1197.867
1197.714
1197.525
1197.299
1197.874
1197.794
1197.678
1197.525
1197.336
1197.731
1197.687
1197.608
1197.492
1197.339
1197.592
1197.549
1197.469
1197.353
1197.501
1197.458
1197.378
1197.447
1197.404
1197.417
1193.654
1193.089
1192.484
1191.84
1191.156
1194.19
1193.663
1193.098
1192.494
1191.849
1194.713
1194.226
1193.7
1193.135
1192.53
1195.236
1194.787
1194.3
1193.774
1193.209
1195.769
1195.359
1194.91
1194.423
1193.898
1196.312
1195.939
1195.529
1195.081
1194.595
1196.816
1196.481
1196.108
1195.698
1195.251
1197.249
1196.951
1196.616
1196.244
1195.834
1197.6
1197.338
1197.04
1196.705