/*--------------------------------*- C++ -*----------------------------------*\
| =========                 |                                                 |
| \\      /  F ield         | OpenFOAM: The Open Source CFD Toolbox           |
|  \\    /   O peration     | Version:  2306                                  |
|   \\  /    A nd           | Website:  www.openfoam.com                      |
|    \\/     M anipulation  |                                                 |
\*---------------------------------------------------------------------------*/
FoamFile
{
    version     2.0;
    format      ascii;
    arch        "LSB;label=32;scalar=64";
    class       volVectorField;
    location    "0.9/phiI";
    object      i;
}
// * * * * * * * * * * * * * * * * * * * * * * * * * * * * * * * * * * * * * //

dimensions      [0 -2 0 0 0 1 0];

internalField   nonuniform List<vector> 
12000
(
(33.29126 2.104991 1578.059)
(33.58053 5.910245 1592.067)
(66.31944 4.997715 1450.589)
(33.80114 1.544676 4765.077)
(34.07718 10.01078 1620.272)
(66.73976 13.76945 1459.774)
(34.1097 4.221734 4807.102)
(60.22579 6.30826 1343.415)
(67.25801 4.630291 4380.08)
(34.83124 0.4240031 8015.864)
(34.55631 16.59673 1662.412)
(67.48347 19.76856 1477.804)
(34.64705 7.196965 4891.696)
(60.4034 17.55061 1350.478)
(67.70612 12.68082 4407.644)
(35.17836 0.8454675 8086.503)
(49.55802 6.773824 1257.403)
(60.99853 6.02576 4055.858)
(69.15631 3.895136 7366.662)
(36.39794 -1.280857 11353.57)
(34.59755 28.71924 1716.414)
(68.26907 21.80043 1503.46)
(35.19211 12.75103 5018.066)
(60.74574 25.30386 1364.181)
(68.50783 18.02113 4461.747)
(35.79698 1.572208 8228.675)
(49.62272 18.96904 1263.205)
(61.18967 16.71997 4077.055)
(69.65995 10.50278 7413.009)
(36.80367 -4.290693 11454.39)
(40.93499 6.955255 1185.852)
(50.18828 6.541778 3795.494)
(62.56413 5.460402 6819.585)
(72.04313 2.776405 10429.15)
(38.52892 -3.608761 14822.58)
(33.67075 45.05307 1774.303)
(68.55847 19.86371 1533.809)
(35.32797 24.2436 5179.915)
(61.18542 27.34672 1383.24)
(69.38576 19.56023 4538.766)
(36.4735 5.068009 8441.038)
(49.76096 27.58881 1274.381)
(61.55944 23.99337 4118.184)
(70.57752 14.52367 7503.986)
(37.5458 -6.984445 11657.32)
(40.95456 19.57997 1190.793)
(50.26146 18.28994 3812.907)
(62.78234 15.05757 6855.228)
(72.63121 7.187858 10495.32)
(39.01465 -11.30461 14955.95)
(34.31947 6.969475 1124.216)
(41.46774 6.757605 3578.839)
(51.4661 6.077279 6380.208)
(64.94434 4.600038 9650.849)
(75.9672 1.248624 13605.86)
(41.26483 -6.615784 16633.95)
(31.81079 57.56036 1819.625)
(67.62133 17.18548 1562.699)
(34.51717 40.92465 5353.156)
(61.5747 22.24179 1404.885)
(69.80459 17.49417 4629.941)
(36.79744 15.31565 8712.885)
(49.96504 30.08999 1289.707)
(62.04043 25.71858 4175.432)
(71.63961 15.07265 7633.585)
(38.42193 -6.617362 11960.49)
(41.00801 28.72704 1200.267)
(50.41661 26.52872 3846.459)
(63.20689 21.36878 6924.405)
(73.72491 9.198106 10625.23)
(39.92535 -18.67177 15224.48)
(34.31451 19.69918 1128.521)
(41.49329 19.00336 3593.674)
(51.55625 16.93042 6409.492)
(65.20375 12.52719 9701.727)
(76.6706 2.659764 13693.38)
(41.85395 -20.36663 16783.83)
(29.27659 6.905655 1070.046)
(34.78269 6.797303 3392.189)
(42.54821 6.361873 6014.603)
(53.40821 5.370421 9026.183)
(68.17601 3.425287 12583.33)
(81.0001 -0.7245828 15263.62)
(44.01023 -9.603883 16710.7)
(29.63617 57.2829 1849.478)
(65.35388 17.21457 1582.603)
(32.75887 54.55336 5488.464)
(61.63908 13.00713 1424.056)
(69.02232 15.23374 4716.797)
(36.21619 32.71109 9003.419)
(50.20332 24.40033 1306.662)
(62.48329 20.60917 4240.54)
(72.31597 12.74248 7787.163)
(39.03085 1.748357 12348.52)
(41.10628 31.7703 1213.135)
(50.64546 28.79876 3892.511)
(63.77044 22.4525 7020.788)
(75.06676 8.23318 10810.43)
(41.07373 -22.57997 15625.79)
(34.3197 29.10607 1136.745)
(41.55855 27.83338 3622.12)
(51.74522 24.40466 6465.931)
(65.71166 17.37099 9800.511)
(78.00477 1.91895 13865.32)
(42.98245 -33.77796 17085.6)
(29.25834 19.58226 1073.858)
(34.78225 19.19805 3405.113)
(42.58573 17.84875 6039.55)
(53.52417 14.86103 9067.978)
(68.4917 9.071088 12650.62)
(81.85255 -3.190469 15361.95)
(44.70217 -29.37044 16859.64)
(25.33072 6.786908 1021.662)
(29.68681 6.753162 3228.119)
(35.72235 6.45251 5699.653)
(44.18996 5.759691 8506.659)
(56.04286 4.405478 11763.66)
(72.31312 1.908663 14111.8)
(86.05582 -2.68451 15335.61)
(46.7652 -12.57327 16787.78)
(27.83059 41.4914 1866.859)
(62.51186 17.48092 1594.232)
(30.65716 55.39351 5577.306)
(61.15706 6.465713 1435.784)
(66.88924 15.95321 4776.595)
(34.65826 48.59436 9229.783)
(50.3732 13.00912 1320.944)
(62.6061 11.77118 4298.349)
(71.84055 11.31934 7933.66)
(38.79621 20.24871 12762.84)
(41.2572 26.32339 1227.115)
(50.9144 23.15084 3943.553)
(64.32025 17.3251 7130.617)
(76.13366 5.491174 11030.19)
(42.07078 -16.7784 16139.57)
(34.35176 32.5819 1147.837)
(41.67376 30.69639 3660.793)
(52.02359 26.20625 6543.489)
(66.40082 17.47011 9938.297)
(79.72838 -1.12568 14110.66)
(44.48245 -43.22113 17536.75)
(29.23614 29.09955 1081.122)
(34.79628 28.33342 3429.809)
(42.67461 26.04225 6087.404)
(53.76462 21.16882 9148.567)
(69.11354 11.90599 12781.33)
(83.4975 -7.493007 15555.12)
(46.04725 -48.78851 17159.45)
(25.30405 19.29467 1025.079)
(29.6721 19.1392 3239.568)
(35.73093 18.19438 5721.389)
(44.24571 16.09131 8542.26)
(56.19411 12.03505 11818.92)
(72.7016 4.607378 14187.37)
(87.05645 -9.000199 15433.28)
(47.55938 -38.31684 16935.78)
(22.19921 6.638972 977.9825)
(25.69897 6.650225 3081.55)
(30.51915 6.447712 5422.809)
(37.14987 5.927873 8059.28)
(46.41582 4.937819 11082.56)
(59.41132 3.160252 13188.61)
(76.47607 0.4024872 14177.1)
(91.1345 -4.631463 15407.9)
(49.52972 -15.52423 16864.77)
(26.83216 15.04382 1874.768)
(60.06058 13.45122 1600.401)
(28.89642 40.4798 5628.863)
(60.28726 4.349923 1441.532)
(64.14365 16.76896 4811.435)
(32.69966 51.66693 9377.937)
(50.33727 3.696365 1328.845)
(62.1721 5.766668 4333.792)
(69.97257 13.42907 8034.474)
(37.54011 39.57265 13085.1)
(41.42604 14.34668 1238.47)
(51.11554 12.12181 3986.705)
(64.55945 9.277066 7228.468)
(76.12212 5.341284 11240.17)
(42.30686 3.248018 16687.95)
(34.43316 27.59788 1159.73)
(41.84492 25.30998 3702.899)
(52.35388 20.63257 6629.664)
(67.11329 12.30197 10095.63)
(81.32754 -4.447071 14402.22)
(45.98025 -40.73792 18114.59)
(29.22754 32.90487 1090.87)
(34.84082 31.66247 3463.153)
(42.82371 28.53913 6152.549)
(54.11842 22.24943 9259.455)
(69.97436 10.64773 12963.88)
(85.71441 -13.24305 15830.95)
(47.89689 -63.73984 17607.82)
(25.26379 28.79813 1031.576)
(29.65682 28.41908 3261.386)
(35.76263 26.78446 5762.936)
(44.37053 23.31345 8610.583)
(56.50493 16.74556 11925.53)
(73.47082 4.840627 14334.18)
(89.01041 -16.84127 15625.11)
(49.11984 -63.7055 17233.69)
(22.16774 18.9129 981.0744)
(25.67519 18.8981 3091.813)
(30.51154 18.25161 5442.064)
(37.17219 16.66675 8090.293)
(46.49647 13.69178 11129.61)
(59.60821 8.386572 13250.65)
(76.93688 0.1755286 14252.16)
(92.28247 -14.77046 15504.93)
(50.42557 -47.20685 17011.86)
(19.66002 6.472183 938.1976)
(22.53306 6.515297 2949.202)
(26.44639 6.376371 5175.487)
(31.78348 5.982967 7666.141)
(39.08442 5.211993 10496.4)
(49.259 3.877637 12421.64)
(62.80349 1.923588 13247.64)
(80.665 -1.093538 14242.7)
(96.2361 -6.565771 15480.14)
(52.3037 -18.45706 16941.25)
(26.83216 -15.04382 1874.768)
(58.67621 5.059494 1603.052)
(27.91902 14.72747 5652.266)
(59.41832 3.13492 1443.971)
(61.75213 13.09844 4829.836)
(31.0267 38.49298 9463.644)
(50.10353 0.09349695 1332.001)
(61.33619 4.022437 4351.185)
(67.41634 15.35124 8093.056)
(35.79668 46.03908 13295.58)
(41.5243 3.769038 1244.241)
(51.10344 3.254089 4010.7)
(64.22064 4.35227 7288.648)
(74.65378 9.577374 11384.69)
(41.45989 27.28491 17113.92)
(34.5607 15.68016 1169.127)
(42.03331 13.66162 3737.248)
(52.6176 10.32322 6702.878)
(67.52923 5.449942 10236.33)
(81.94661 -2.86087 14681.42)
(46.82233 -18.72537 18731.21)
(29.25943 28.41278 1101.218)
(34.93674 26.74626 3498.982)
(43.03548 23.26521 6223.669)
(54.54219 16.7753 9382.982)
(70.90907 5.403881 13172.81)
(88.0007 -17.3391 16159.17)
(49.89247 -64.55683 18182.46)
(25.22642 32.81476 1040.258)
(29.65786 32.10106 3290.692)
(35.83217 29.81497 5819.108)
(44.57129 25.24578 8703.724)
(56.96188 16.82964 12072.43)
(74.55374 1.810779 14539.4)
(91.71777 -25.28769 15899.15)
(51.31713 -84.14143 17679.36)
(22.11656 28.3232 986.9424)
(25.6405 28.19094 3111.331)
(30.51006 27.0546 5478.771)
(37.23081 24.42463 8149.605)
(46.67046 19.58368 11219.97)
(60.01008 11.02836 13370.38)
(77.85251 -2.175305 14397.92)
(94.54363 -26.12802 15695.46)
(52.20017 -78.53137 17307.88)
(19.62593 18.46824 941.016)
(22.50399 18.55451 2958.491)
(26.42836 18.10345 5192.75)
(31.78666 16.90072 7693.61)
(39.12553 14.5814 10537.38)
(49.37186 10.59497 12474.47)
(63.04571 4.764265 13309.26)
(81.19767 -4.225452 14317.26)
(97.53055 -20.50237 15576.55)
(53.30063 -56.04161 17087.45)
(17.57165 6.298087 901.7198)
(19.96507 6.359449 2828.622)
(23.21092 6.267427 4952.143)
(27.58164 5.959718 7315)
(33.49627 5.348943 9981.58)
(41.55378 4.288881 11761.73)
(52.12332 2.824692 12475.05)
(66.21951 0.6952149 13306.95)
(84.87988 -2.579726 14308.29)
(101.3604 -8.487782 15551.95)
(55.08694 -21.37212 15160.69)
(27.83059 -41.4914 1866.859)
(58.67621 -5.059493 1603.052)
(27.91902 -14.72747 5652.266)
(58.89158 1.20016 1444.816)
(60.39602 4.953471 4837.712)
(30.09037 14.10771 9502.458)
(49.81924 -0.5055742 1332.859)
(60.48849 3.003547 4358.565)
(65.14177 12.4001 8123.87)
(34.25552 35.49896 13417.1)
(41.51554 -0.8303774 1246.065)
(50.8854 -0.06707924 4020.371)
(63.45152 3.359007 7318.254)
(72.38238 13.19314 11468.55)
(40.00778 38.38684 17391.73)
(34.67849 4.591358 1173.57)
(42.1454 3.465254 3754.843)
(52.65307 2.349718 6743.869)
(67.33452 2.175199 10323.15)
(81.02036 4.294095 14873.64)
(46.50126 11.42132 19209.13)
(29.34345 16.80001 1109.221)
(35.07769 15.12657 3527.428)
(43.26315 12.26892 6282.034)
(54.90128 7.553587 9488.478)
(71.56623 0.1762832 13360.41)
(89.43225 -13.51534 16473.94)
(51.33595 -40.53364 18795.52)
(25.21918 28.75698 1049.403)
(29.70074 27.67874 3321.869)
(35.95727 25.02689 5879.643)
(44.84501 20.13057 8805.707)
(57.51357 11.47166 12236.55)
(75.77598 -3.559488 14774.68)
(94.68718 -30.1663 16225.63)
(53.8076 -88.24584 18250.98)
(22.06053 32.45881 994.7582)
(25.61086 32.10168 3137.439)
(30.5304 30.48553 5528.143)
(37.33844 26.99419 8229.914)
(46.94188 20.73417 11343.34)
(60.60056 9.80849 13535.5)
(79.15617 -6.972218 14601.77)
(97.73864 -37.2638 15967.79)
(54.74314 -104.4318 17750.94)
(19.56833 27.72612 946.3564)
(22.45744 27.77585 2976.122)
(26.40484 26.97312 5225.588)
(31.80621 24.9759 7746.006)
(39.22094 21.19964 10615.8)
(49.60944 14.7641 12575.92)
(63.53797 5.35166 13428.12)
(82.25877 -9.143827 14462.01)
(100.0971 -35.35561 15765.81)
(55.28815 -93.26885 17381.64)
(17.53659 17.99603 904.3046)
(19.93301 18.14189 2837.091)
(23.18663 17.8361 4967.767)
(27.57237 16.89406 7339.624)
(33.51421 15.05702 10017.86)
(41.61918 11.89102 11807.73)
(52.26817 7.520362 12527.52)
(66.50674 1.167236 13368.17)
(85.48394 -8.596609 14382.36)
(102.8005 -26.19713 15647.75)
(56.18437 -64.8224 15290.17)
(15.82895 6.121582 868.0856)
(17.8521 6.194697 2718.029)
(20.58471 6.133422 4748.631)
(24.24049 5.890321 6997.954)
(29.11914 5.391418 9521.943)
(35.68132 4.531674 11182.21)
(44.04212 3.371995 11810.15)
(55.00893 1.77874 12528.74)
(69.65936 -0.5251509 13366.28)
(89.12046 -4.056404 14373.53)
(106.507 -10.39787 13923.69)
(57.25173 -23.63632 11610.34)
(29.63617 -57.2829 1849.478)
(60.06058 -13.45121 1600.401)
(28.89642 -40.4798 5628.863)
(58.89158 -1.200159 1444.816)
(60.39602 -4.953469 4837.712)
(30.09037 -14.10771 9502.458)
(49.63403 -0.2078968 1332.955)
(59.97197 1.166337 4361.12)
(63.8408 4.744454 8137.008)
(33.38082 13.17491 13472.06)
(41.45181 -1.560134 1246.163)
(50.61047 -0.5437361 4023.06)
(62.64543 2.73752 7330.838)
(70.28336 11.34036 11512.55)
(38.64492 31.43367 17551.92)
(34.73912 -0.6314377 1174.632)
(42.14501 -0.907236 3760.516)
(52.46621 -0.4009226 6760.589)
(66.66606 2.334829 10366.02)
(79.13459 10.23707 14985.09)
(45.42325 28.51932 19519.92)
(29.44521 5.553258 1112.777)
(35.20435 4.371168 3541.01)
(43.40306 2.838303 6312.237)
(55.00908 0.9456553 9547.953)
(71.5676 -0.8352573 13476.59)
(89.20312 -2.56942 16690.5)
(51.53441 -4.263603 19268.97)
(25.26118 17.53797 1056.355)
(29.79454 16.33764 3346.105)
(36.12527 13.99904 5928.02)
(45.13274 10.11891 8889.924)
(58.00322 3.724406 12377.49)
(76.74493 -6.701163 14986.53)
(96.9253 -24.1142 16539.05)
(55.84823 -62.18561 18860.84)
(22.02548 28.76041 1002.937)
(25.6123 28.11313 3164.995)
(30.59538 26.19625 5580.825)
(37.50812 22.3898 8316.73)
(47.30049 15.81723 11478.87)
(61.31796 4.572778 13720.35)
(80.66437 -12.48157 14835.81)
(101.3873 -42.93483 16292.66)
(57.72577 -111.8164 18319.78)
(19.50029 31.9039 953.4493)
(22.40777 31.81905 2999.629)
(26.39067 30.66818 5269.576)
(31.85599 28.01888 7816.587)
(39.38072 23.12997 10722.16)
(49.97237 14.88961 12714.58)
(64.26114 2.830866 13592.13)
(83.78184 -15.70483 14664.55)
(103.777 -49.17577 16036.51)
(58.17486 -124.6172 17822.19)
(17.47602 27.06675 909.1951)
(19.87932 27.22879 2853.141)
(23.14932 26.67769 4997.436)
(27.56584 25.11788 7386.492)
(33.56251 22.13555 10087.12)
(41.7622 17.0335 11895.77)
(52.56888 9.97897 12628.25)
(67.08877 -0.2863329 13486.19)
(86.68957 -16.06704 14526.13)
(105.6707 -44.5265 15835.79)
(58.38358 -107.9209 15550.69)
(15.79375 17.51192 870.4681)
(17.81879 17.69702 2725.798)
(20.5567 17.48747 4762.878)
(24.22347 16.74279 7020.238)
(29.12185 15.24377 9554.458)
(35.71835 12.67919 11222.94)
(44.13163 9.219804 11855.85)
(55.18552 4.467152 12580.87)
(69.99128 -2.405451 13427.1)
(89.79545 -12.93904 14447.14)
(108.0918 -31.856 14008.57)
(58.42703 -71.64168 11708.5)
(14.36128 5.946017 836.9321)
(16.0881 6.026283 2616.02)
(18.42206 5.987319 4561.943)
(21.52587 5.789553 6709.097)
(25.63453 5.376057 9107.083)
(31.07963 4.659115 10664.86)
(37.88375 3.719828 11226.1)
(46.54958 2.461117 11858.83)
(57.9158 0.7395282 12582.46)
(73.12282 -1.737802 13425.34)
(93.38629 -5.523912 12872.81)
(110.512 -11.88332 10671.1)
(58.84392 -25.29818 8208.085)
(31.81079 -57.56036 1819.625)
(62.51186 -17.48092 1594.232)
(30.65716 -55.39351 5577.306)
(59.41832 -3.13492 1443.971)
(61.75213 -13.09844 4829.836)
(31.0267 -38.49298 9463.644)
(49.63403 0.2078974 1332.955)
(59.97197 -1.166337 4361.12)
(63.8408 -4.744453 8137.008)
(33.38082 -13.17491 13472.06)
(41.39954 -0.6519744 1245.913)
(50.42964 -0.2117324 4023.399)
(62.14884 1.097934 7335.2)
(69.06505 4.427964 11531.26)
(37.85357 11.90937 17624.3)
(34.75421 -1.665531 1174.335)
(42.08591 -1.55409 3760.934)
(52.20976 -0.626682 6765.383)
(65.92244 2.325726 10384.31)
(77.27295 9.891565 15043.48)
(44.28928 26.19634 19698.69)
(29.5181 -0.07320219 1113.377)
(35.26987 -0.6620157 3544.384)
(43.41948 -1.074047 6322.239)
(54.86947 -0.9276166 9572.522)
(71.03562 0.9127205 13534.2)
(87.8125 6.399528 16815.75)
(50.82445 18.80463 19575.34)
(25.3338 6.337854 1059.278)
(29.90238 5.387013 3356.998)
(36.26987 3.913108 5951.424)
(45.31518 1.85707 8933.955)
(58.20985 -1.012025 12457.51)
(76.99901 -4.776187 15118)
(97.38492 -9.378596 16754.27)
(56.56004 -19.77143 19329.91)
(22.03391 17.94616 1009.065)
(25.6618 17.14298 3186.051)
(30.70896 15.39486 5622.064)
(37.71757 12.25532 8386.598)
(47.67066 7.139012 11591.54)
(61.97679 -1.284992 13879.68)
(81.94327 -13.55621 15046.96)
(104.4265 -34.6612 16604.91)
(60.35968 -83.69085 18926.81)
(19.44566 28.49072 960.8305)
(22.37977 28.18814 3024.278)
(26.40955 26.8125 5316.143)
(31.95474 23.92191 7892.144)
(39.61153 18.75951 10837.54)
(50.44105 10.20278 12867.22)
(65.14341 -2.295338 13775.99)
(85.57452 -21.36703 14897.47)
(108.1012 -55.65104 16359.91)
(61.64705 -135.2806 18388.45)
(17.40136 31.2321 915.6747)
(19.81662 31.32493 2874.478)
(23.11238 30.5326 5037.044)
(27.57526 28.47949 7449.369)
(33.65258 24.63999 10180.58)
(41.98951 18.12459 12015.29)
(53.02273 9.082137 12765.96)
(67.9438 -4.106307 13649.15)
(88.43076 -24.39073 14727.44)
(109.8326 -61.02813 16104.94)
(61.61213 -144.7043 15940.88)
(15.73203 26.37382 874.9698)
(17.76157 26.61194 2740.501)
(20.51082 26.23061 4789.89)
(24.20024 25.00478 7062.578)
(29.13855 22.58331 9616.392)
(35.80383 18.46738 11300.69)
(44.32189 12.89728 11943.25)
(55.54891 5.226708 12680.88)
(70.66247 -5.887472 13544.33)
(91.14469 -22.94712 14589.96)
(111.2638 -53.64326 14175.16)
(60.79028 -119.2971 11905.95)
(14.32657 17.02679 839.1378)
(16.05441 17.23656 2623.184)
(18.39222 17.09714 4575.015)
(21.50402 16.49153 6729.415)
(25.62746 15.25115 9136.501)
(31.09782 13.11609 10701.36)
(37.9397 10.31811 11266.56)
(46.66303 6.567042 11904.23)
(58.12392 1.434507 12634.26)
(73.49914 -5.95477 13485.79)
(94.13177 -17.25388 12938.06)
(112.2089 -36.25619 10735.5)
(60.07634 -76.64668 8276.923)
(13.11105 5.774467 807.9622)
(14.60178 5.85779 2521.499)
(16.61507 5.83504 4389.71)
(19.28779 5.671816 6444.143)
(22.79996 5.320697 8729.223)
(27.41137 4.713596 10197.93)
(33.05627 3.931563 10704.57)
(40.10366 2.913212 11270.23)
(49.07616 1.556024 11907.56)
(60.84379 -0.2932029 12635.99)
(76.60954 -2.943042 12026.49)
(96.70925 -6.666614 9872.497)
(113.4584 -12.97394 7547.511)
(59.89403 -26.38983 4904.524)
(33.67075 -45.05307 1774.303)
(65.35388 -17.21457 1582.603)
(32.75887 -54.55336 5488.464)
(60.28726 -4.349922 1441.532)
(64.14365 -16.76896 4811.435)
(32.69966 -51.66693 9377.937)
(49.81924 0.5055749 1332.859)
(60.48849 -3.003546 4358.565)
(65.14177 -12.4001 8123.87)
(34.25552 -35.49895 13417.1)
(41.39954 0.6519747 1245.913)
(50.42964 0.211733 4023.399)
(62.14884 -1.097934 7335.2)
(69.06505 -4.427962 11531.26)
(37.85357 -11.90937 17624.3)
(34.75207 -0.7305484 1173.918)
(42.03569 -0.6420046 3760.244)
(52.03753 -0.2214187 6766.074)
(65.45571 0.9918534 10390.67)
(76.16634 3.99588 15068.28)
(43.6049 10.2798 19779.33)
(29.55657 -1.430598 1112.866)
(35.28739 -1.636954 3543.608)
(43.36962 -1.549234 6323.23)
(54.6409 -0.7631418 9579.797)
(70.37642 1.751227 13558.92)
(86.25535 8.012804 16881.17)
(49.91499 21.05727 19750.86)
(25.39558 0.4821432 1059.579)
(29.97832 -0.07677946 3358.966)
(36.34532 -0.7353394 5957.529)
(45.35725 -1.346945 8948.933)
(58.13454 -1.674707 12491.02)
(76.64231 -0.9583553 15183.25)
(96.48126 2.610384 16878.14)
(56.21205 9.243735 19631.86)
(22.07828 6.897242 1011.516)
(25.73884 6.208892 3195.019)
(30.82917 5.038829 5640.889)
(37.88974 3.190792 8420.853)
(47.91146 0.4779299 11651.06)
(62.3112 -3.595535 13970.57)
(82.44733 -8.704024 15178.07)
(105.5667 -16.13324 16818.81)
(61.57882 -35.10436 19391.63)
(19.42835 18.06597 966.2924)
(22.39416 17.60298 3042.842)
(26.47423 16.33701 5351.982)
(32.0987 13.93508 7951.737)
(39.87802 9.834107 10931.09)
(50.91833 3.231193 12994.66)
(65.9707 -6.284547 13934.86)
(87.16168 -20.39134 15108.03)
(111.9366 -45.16036 16671.18)
(64.87077 -105.0596 18993.05)
(17.33437 28.04106 922.3853)
(19.76787 27.97699 2896.729)
(23.09854 27.03187 5078.701)
(27.6208 24.8169 7516.154)
(33.79768 20.79025 10280.99)
(42.29964 14.03233 12145.23)
(53.60096 4.613996 12917.76)
(68.99017 -9.136463 13832.12)
(90.50653 -30.22063 14959.35)
(114.829 -68.32151 16427.03)
(65.57145 -158.6509 16442.65)
(15.65381 30.48737 880.9213)
(17.69148 30.70449 2759.999)
(20.4588 30.16038 4825.847)
(24.18268 28.56845 7119.189)
(29.18026 25.48168 9699.63)
(35.9461 20.26402 11405.69)
(44.61629 13.15172 12061.95)
(56.09311 3.309074 12817.7)
(71.64855 -11.00615 13706.28)
(93.10274 -33.03363 14790.12)
(115.9053 -72.82557 14413.67)
(64.2837 -160.2953 12201.65)
(14.26513 25.66738 843.3001)
(15.99561 25.95569 2636.723)
(18.3417 25.6987 4599.764)
(21.47001 24.71001 6767.959)
(25.62345 22.71967 9192.437)
(31.14457 19.31098 10770.88)
(38.06208 14.82554 11343.75)
(46.90018 8.789566 11991.02)
(58.54955 0.505676 12733.6)
(74.25888 -11.45366 13602.25)
(95.62372 -29.7863 13064.66)
(115.6148 -60.73046 10861.86)
(62.55993 -127.647 8415.407)
(13.07735 16.55033 810.0119)
(14.5684 16.77207 2528.133)
(16.58441 16.68383 4401.765)
(19.26324 16.18419 6462.783)
(22.78652 15.13298 8756.039)
(27.41715 13.32861 10230.95)
(33.08981 11.00312 10740.83)
(40.17841 7.973146 11310.43)
(49.21337 3.931994 11952.68)
(61.08322 -1.578434 12687.47)
(77.02996 -9.481725 12080.11)
(97.50932 -20.61321 9922.051)
(115.2376 -39.4866 7592.677)
(61.16402 -79.93457 4945.293)
(12.03301 5.609078 780.9356)
(13.33503 5.692479 2433.567)
(15.0911 5.680644 4230.079)
(17.41556 5.544076 6199.719)
(20.45957 5.241706 8382.724)
(24.42331 4.716912 9772.638)
(29.20343 4.055311 10233.71)
(35.04918 3.20859 10744.49)
(42.34109 2.111627 11314.42)
(51.62174 0.6564833 11956.15)
(63.7926 -1.319723 11321.49)
(79.32809 -3.882591 9228.87)
(99.15521 -7.506105 6985.574)
(115.402 -13.68998 4510.764)
(60.41896 -26.92896 1635.748)
(34.59755 -28.71924 1716.414)
(67.62133 -17.18547 1562.699)
(34.51717 -40.92465 5353.156)
(61.15706 -6.465713 1435.784)
(66.88924 -15.95321 4776.595)
(34.65826 -48.59435 9229.783)
(50.10353 -0.0934962 1332.001)
(61.33619 -4.022437 4351.185)
(67.41634 -15.35124 8093.056)
(35.79668 -46.03908 13295.58)
(41.45181 1.560134 1246.163)
(50.61047 0.5437368 4023.06)
(62.64543 -2.737519 7330.838)
(70.28336 -11.34036 11512.55)
(38.64492 -31.43366 17551.92)
(34.75207 0.7305486 1173.918)
(42.03569 0.6420048 3760.244)
(52.03753 0.2214193 6766.074)
(65.45571 -0.9918528 10390.67)
(76.16634 -3.995878 15068.28)
(43.6049 -10.2798 19779.33)
(29.57123 -0.6732857 1112.369)
(35.28625 -0.7138783 3542.412)
(43.32349 -0.6243499 6322.204)
(54.48162 -0.2393811 9580.986)
(69.94994 0.8433 13567.58)
(85.29193 3.43603 16908.88)
(49.33537 8.68373 19829.82)
(25.43406 -1.134278 1058.949)
(30.01811 -1.390261 3357.537)
(36.36779 -1.586649 5956.499)
(45.32144 -1.552728 8950.799)
(57.94379 -0.9652672 12501.29)
(76.0912 0.9906385 15211.28)
(95.22258 6.166543 16942.5)
(55.52273 16.01738 19804.1)
(22.12319 0.92942 1011.614)
(25.80263 0.4952873 3196.069)
(30.91137 -0.094782 5644.591)
(37.98046 -0.8650354 8430.233)
(47.98864 -1.747807 11671.88)
(62.31874 -2.678587 14008.91)
(82.263 -2.818758 15243.01)
(105.1418 -1.129397 16941.28)
(61.58678 -0.1629044 19689.15)
(19.44874 7.230687 968.3774)
(22.44188 6.795261 3050.372)
(26.5603 5.937132 5367.518)
(32.238 4.485923 7979.381)
(40.08816 2.167708 10977.6)
(51.23486 -1.35665 13062.48)
(66.43189 -6.181267 14025.77)
(87.91304 -12.61828 15238.79)
(113.7494 -22.83334 16883.78)
(66.59142 -50.2651 19453.74)
(17.29907 17.977 927.2957)
(19.75543 17.7641 2913.278)
(23.125 16.90238 5110.306)
(27.70883 15.08796 7567.962)
(33.98351 11.90539 10360.83)
(42.64039 6.653039 12251.08)
(54.18505 -0.6714162 13044.84)
(69.98527 -11.27607 13990.62)
(92.40042 -27.20909 15169.44)
(119.456 -55.61587 16737.49)
(69.38192 -126.3025 16978.48)
(15.57888 27.46774 887.0583)
(17.62946 27.57622 2780.233)
(20.42184 26.93875 4863.455)
(24.19052 25.25763 7178.93)
(29.2624 22.06877 9788.379)
(36.15137 16.7116 11518.76)
(45.00539 9.327848 12191.14)
(56.78044 -0.9523062 12968.74)
(72.85831 -15.95442 13888.46)
(95.46032 -39.04719 15021.13)
(121.5705 -80.95299 14699.29)
(68.62049 -176.7843 12581.85)
(14.1857 29.70062 848.792)
(15.92134 30.00383 2654.638)
(18.28073 29.64282 4632.627)
(21.43429 28.38234 6819.348)
(25.63246 25.87851 9267.365)
(31.2281 21.60002 10864.39)
(38.25617 15.91706 11448.03)
(47.26123 8.209016 12108.94)
(59.18356 -2.432282 12869.57)
(75.37527 -17.87182 13763.28)
(97.79742 -41.63736 13242.12)
(120.6277 -81.99316 11042.75)
(66.24772 -171.7402 8622.836)
(13.01731 24.96511 813.875)
(14.5095 25.28121 2540.656)
(16.53141 25.11565 4424.559)
(19.22289 24.30746 6498.096)
(22.76875 22.63326 8806.95)
(27.438 19.77023 10293.73)
(33.16636 16.06194 10809.86)
(40.33739 11.20877 11387.09)
(49.49707 4.708906 12038.89)
(61.57066 -4.185801 12786.16)
(77.87768 -16.98684 12183.39)
(99.11179 -35.10963 10018.17)
(118.8149 -65.93324 7681.292)
(63.72674 -133.1337 5027.316)
(12.00068 16.08945 782.8466)
(13.30252 16.31382 2439.734)
(15.06037 16.2605 4241.246)
(17.38949 15.84258 6216.908)
(20.44225 14.93903 8407.32)
(24.42074 13.38247 9802.736)
(29.22196 11.41904 10266.53)
(35.09796 8.904301 10780.53)
(42.43449 5.643641 11354.38)
(51.78254 1.313894 12000.99)
(64.06313 -4.57256 11367.18)
(79.78268 -12.23077 9269.627)
(99.99527 -23.08094 7020.34)
(117.2353 -41.60745 4537.495)
(61.70754 -81.55838 1649.226)
(11.09581 5.451202 755.6529)
(12.24225 5.532639 2351.497)
(13.79105 5.527768 4081.54)
(15.83446 5.411116 5973.188)
(18.49889 5.147474 8063.146)
(21.95209 4.687975 9382.622)
(26.06119 4.116802 9804.696)
(31.01086 3.40105 10269.69)
(37.0584 2.490018 10784.49)
(44.59594 1.314866 11358.51)
(54.18608 -0.2377434 10714.01)
(66.0937 -2.120767 8692.343)
(81.33016 -4.573309 6532.525)
(100.7692 -8.05728 4175.539)
(116.3743 -14.04316 1504.516)
(34.55631 -16.59673 1662.412)
(68.55847 -19.86371 1533.809)
(35.32797 -24.2436 5179.915)
(61.63908 -13.00713 1424.056)
(69.02231 -15.23374 4716.797)
(36.21619 -32.71109 9003.419)
(50.33727 -3.696364 1328.845)
(62.1721 -5.766667 4333.792)
(69.97257 -13.42907 8034.474)
(37.54011 -39.57264 13085.1)
(41.51554 0.8303778 1246.065)
(50.8854 0.06707999 4020.371)
(63.45152 -3.359006 7318.254)
(72.38238 -13.19314 11468.55)
(40.00778 -38.38684 17391.73)
(34.75421 1.665531 1174.335)
(42.08591 1.554091 3760.934)
(52.20976 0.6266826 6765.383)
(65.92244 -2.325726 10384.31)
(77.27295 -9.891564 15043.48)
(44.28928 -26.19634 19698.69)
(29.57123 0.6732856 1112.369)
(35.28625 0.7138785 3542.412)
(43.32349 0.6243502 6322.204)
(54.48162 0.2393817 9580.986)
(69.94994 -0.8432994 13567.58)
(85.29193 -3.436029 16908.88)
(49.33537 -8.683729 19829.82)
(25.4513 -0.5839443 1058.414)
(30.03324 -0.6533819 3356.094)
(36.36867 -0.6827286 5954.621)
(45.2815 -0.6009955 8949.553)
(57.80201 -0.2689809 12503.17)
(75.71614 0.6456146 15221.1)
(94.39926 2.887569 16969.63)
(55.04564 7.121476 19881.36)
(22.15398 -0.8733321 1010.919)
(25.84185 -1.087694 3194.271)
(30.95391 -1.315723 5642.443)
(38.01054 -1.520638 8429.199)
(47.97201 -1.574018 11675.01)
(62.17655 -1.248967 14020.85)
(81.81769 0.2372618 15270.8)
(104.1756 4.353356 17004.55)
(61.11321 11.07723 19858.1)
(19.47712 1.23913 968.3325)
(22.48818 0.9533126 3050.796)
(26.62826 0.5120415 5369.638)
(32.32988 -0.1389301 7985.282)
(40.19993 -1.069188 10990.96)
(51.3575 -2.304843 13086.59)
(66.52121 -3.686044 14064.19)
(87.89814 -4.667585 15303.39)
(113.7952 -4.818972 17004.82)
(66.94938 -9.415249 19746.86)
(17.30125 7.384881 929.0884)
(19.77846 7.149084 2919.69)
(23.17959 6.579084 5123.379)
(27.80888 5.502639 7590.842)
(34.14922 3.696994 10398.49)
(42.90002 0.796148 12304.19)
(54.57697 -3.198895 13112.8)
(70.57228 -8.768636 14081.54)
(93.39643 -16.51849 15299.86)
(121.9338 -29.47898 16948.83)
(71.59849 -65.25684 17385.67)
(15.53085 17.73478 891.5032)
(17.59822 17.70888 2795.114)
(20.41926 17.14753 4891.634)
(24.23555 15.81587 7224.629)
(29.38266 13.34948 9857.819)
(36.3918 9.23497 11609.1)
(45.42026 3.475557 12296.67)
(57.47109 -4.570225 13095.53)
(74.02069 -16.26139 14046.7)
(97.65958 -34.01208 15230.89)
(126.9852 -66.03209 14974.75)
(72.88569 -142.7805 12987.86)
(14.1063 26.81149 854.433)
(15.85069 27.04447 2673.148)
(18.22869 26.63647 4666.83)
(21.41535 25.34554 6873.279)
(25.67004 22.81424 9346.743)
(31.35779 18.48935 10964.31)
(38.52134 12.65368 11560.43)
(47.72897 4.643328 12237.47)
(59.97957 -6.499316 13019.94)
(76.74778 -22.75305 13944.76)
(100.4356 -47.85164 13447.1)
(126.8112 -90.76444 11259.3)
(70.86166 -190.0996 8889.654)
(12.93859 28.8991 818.9631)
(14.43354 29.2553 2557.194)
(16.46503 29.03036 4454.761)
(19.17582 28.02182 6545.06)
(22.75532 25.94759 8874.952)
(27.4814 22.39624 10377.9)
(33.29141 17.74439 10902.73)
(40.58296 11.59701 11490.68)
(49.92438 3.294094 12156.07)
(62.29397 -8.144665 12921.34)
(79.12365 -24.70652 12326.23)
(101.4525 -48.33139 10152.89)
(124.1003 -88.72289 7808.153)
(67.54243 -179.2651 5150.234)
(11.94286 24.27978 786.4439)
(13.24474 24.60706 2451.362)
(15.00657 24.50492 4262.335)
(17.34532 23.83587 6249.43)
(20.41581 22.40764 8453.952)
(24.42395 19.95349 9859.878)
(29.26746 16.84147 10328.88)
(35.20406 12.83507 10849.1)
(42.62979 7.615776 11430.53)
(52.11247 0.6538185 12086.65)
(64.61197 -8.849433 11454.74)
(80.69855 -21.29852 9348.116)
(101.6787 -39.01975 7087.77)
(120.9254 -69.34951 4589.937)
(64.30945 -135.8446 1676.344)
(11.0649 15.64878 757.4397)
(12.21097 15.86912 2357.249)
(13.76089 15.83851 4091.923)
(15.80777 15.48184 5989.11)
(18.4791 14.69538 8085.823)
(21.9441 13.33507 9410.228)
(26.06941 11.64339 9834.613)
(31.04202 9.521918 10302.31)
(37.1223 6.819046 10820.31)
(44.70785 3.328914 11398.23)
(54.37032 -1.288044 10753.83)
(66.38834 -6.908678 8727.102)
(81.80976 -14.25156 6561.134)
(101.6355 -24.70108 4196.112)
(118.2343 -42.65349 1513.346)
(10.27921 5.299928 731.945)
(11.29178 5.379729 2274.686)
(12.66853 5.378978 3942.863)
(14.4839 5.277142 5762.401)
(16.84037 5.043782 7767.024)
(19.87836 4.637019 9022.875)
(23.45862 4.137472 9411.105)
(27.71373 3.52023 9836.934)
(32.83367 2.750651 10305.75)
(39.08385 1.775662 10824.41)
(46.86801 0.5227165 10179.73)
(56.18877 -0.9362011 8229.721)
(67.78919 -2.710058 6154.721)
(82.6515 -5.026936 3905.195)
(101.5775 -8.329025 1392.671)
(34.07718 -10.01078 1620.272)
(68.26907 -21.80043 1503.46)
(35.19211 -12.75103 5018.066)
(61.5747 -22.24179 1404.885)
(69.80459 -17.49417 4629.941)
(36.79744 -15.31565 8712.885)
(50.3732 -13.00911 1320.944)
(62.6061 -11.77118 4298.349)
(71.84055 -11.31934 7933.66)
(38.79621 -20.24871 12762.84)
(41.5243 -3.769038 1244.241)
(51.10344 -3.254089 4010.7)
(64.22064 -4.352269 7288.648)
(74.65378 -9.577373 11384.69)
(41.45989 -27.28491 17113.92)
(34.73912 0.6314379 1174.632)
(42.14501 0.9072364 3760.516)
(52.46621 0.4009234 6760.589)
(66.66606 -2.334828 10366.02)
(79.13459 -10.23707 14985.09)
(45.42325 -28.51932 19519.92)
(29.55657 1.430598 1112.866)
(35.28739 1.636955 3543.608)
(43.36962 1.549235 6323.23)
(54.6409 0.7631424 9579.797)
(70.37642 -1.751227 13558.92)
(86.25535 -8.012803 16881.17)
(49.91499 -21.05727 19750.86)
(25.4513 0.5839446 1058.414)
(30.03324 0.6533819 3356.094)
(36.36867 0.6827288 5954.621)
(45.2815 0.6009958 8949.553)