/*--------------------------------*- C++ -*----------------------------------*\
| =========                 |                                                 |
| \\      /  F ield         | OpenFOAM: The Open Source CFD Toolbox           |
|  \\    /   O peration     | Version:  2306                                  |
|   \\  /    A nd           | Website:  www.openfoam.com                      |
|    \\/     M anipulation  |                                                 |
\*---------------------------------------------------------------------------*/
FoamFile
{
    version     2.0;
    format      ascii;
    arch        "LSB;label=32;scalar=64";
    class       volScalarField;
    location    "0.9/phiI";
    object      J;
}
// * * * * * * * * * * * * * * * * * * * * * * * * * * * * * * * * * * * * * //

dimensions      [0 -3 0 0 0 1 0];

internalField   nonuniform List<scalar> 
12000
(
-7.798089e+08
-7.869298e+08
-7.166387e+08
-7.860804e+08
-8.012769e+08
-7.213251e+08
-7.933261e+08
-6.638398e+08
-7.221758e+08
-8.023883e+08
-8.227013e+08
-7.305381e+08
-8.079235e+08
-6.674493e+08
-7.269479e+08
-8.099314e+08
-6.215767e+08
-6.688355e+08
-7.364495e+08
-8.292485e+08
-8.501373e+08
-7.436431e+08
-8.297129e+08
-6.744682e+08
-7.363317e+08
-8.251308e+08
-6.245436e+08
-6.725115e+08
-7.414183e+08
-8.372759e+08
-5.864676e+08
-6.261688e+08
-6.815686e+08
-7.598654e+08
-8.676734e+08
-8.796564e+08
-7.59107e+08
-8.575763e+08
-6.842324e+08
-7.496885e+08
-8.478228e+08
-6.302752e+08
-6.796629e+08
-7.511943e+08
-8.534595e+08
-5.889956e+08
-6.291904e+08
-6.853952e+08
-7.651506e+08
-8.764e+08
-5.562435e+08
-5.907383e+08
-6.377476e+08
-7.023674e+08
-7.932242e+08
0
-9.029537e+08
-7.737793e+08
-8.874545e+08
-6.952927e+08
-7.654687e+08
-8.768256e+08
-6.381412e+08
-6.896217e+08
-7.651258e+08
-8.77639e+08
-5.93858e+08
-6.350306e+08
-6.928443e+08
-7.755571e+08
-8.94007e+08
-5.58446e+08
-5.933128e+08
-6.408918e+08
-7.064341e+08
-7.989614e+08
0
-5.296976e+08
-5.602433e+08
-6.014026e+08
-6.565873e+08
-7.318822e+08
0
0
-9.185042e+08
-7.838841e+08
-9.109708e+08
-7.050222e+08
-7.804738e+08
-9.078578e+08
-6.468251e+08
-7.009306e+08
-7.816191e+08
-9.085553e+08
-6.004714e+08
-6.430558e+08
-7.032353e+08
-7.904117e+08
-9.20348e+08
-5.626688e+08
-5.982672e+08
-6.469735e+08
-7.143581e+08
-8.102686e+08
0
-5.316483e+08
-5.624861e+08
-6.040806e+08
-6.599262e+08
-7.362898e+08
0
0
-5.060036e+08
-5.334626e+08
-5.701459e+08
-6.186948e+08
-6.832337e+08
0
0
0
-9.276555e+08
-7.89873e+08
-9.266152e+08
-7.108974e+08
-7.90815e+08
-9.322297e+08
-6.540768e+08
-7.109355e+08
-7.97353e+08
-9.416032e+08
-6.076471e+08
-6.519437e+08
-7.150753e+08
-8.08047e+08
-9.54072e+08
-5.68376e+08
-6.05015e+08
-6.553469e+08
-7.254353e+08
-8.264424e+08
0
-5.353795e+08
-5.667883e+08
-6.092382e+08
-6.663909e+08
-7.448872e+08
0
0
-5.077519e+08
-5.354488e+08
-5.72478e+08
-6.215366e+08
-6.868475e+08
0
0
0
-4.846314e+08
-5.09561e+08
-5.427145e+08
-5.86155e+08
-6.430836e+08
0
0
0
0
-9.31848e+08
-7.931062e+08
-9.357934e+08
-7.137873e+08
-7.969246e+08
-9.483988e+08
-6.579888e+08
-7.170175e+08
-8.082123e+08
-9.675195e+08
-6.134221e+08
-6.594267e+08
-7.256234e+08
-8.249386e+08
-9.901306e+08
-5.744923e+08
-6.123629e+08
-6.646604e+08
-7.381101e+08
-8.457083e+08
0
-5.403988e+08
-5.726113e+08
-6.162779e+08
-6.753139e+08
-7.569363e+08
0
0
-5.110892e+08
-5.392497e+08
-5.769553e+08
-6.270156e+08
-6.938529e+08
0
0
0
-4.862129e+08
-5.113408e+08
-5.44779e+08
-5.88628e+08
-6.461558e+08
0
0
0
0
-4.651829e+08
-4.88003e+08
-5.182451e+08
-5.57632e+08
-6.08679e+08
0
0
0
0
0
-9.31848e+08
-7.945157e+08
-9.399894e+08
-7.150313e+08
-8.002051e+08
-9.578609e+08
-6.595234e+08
-7.200228e+08
-8.146155e+08
-9.846774e+08
-6.162538e+08
-6.635171e+08
-7.320872e+08
-8.366207e+08
-1.018386e+09
-5.792817e+08
-6.183346e+08
-6.725784e+08
-7.494899e+08
-8.642476e+08
0
-5.457294e+08
-5.788754e+08
-6.239808e+08
-6.852895e+08
-7.707876e+08
0
0
-5.155626e+08
-5.443703e+08
-5.830286e+08
-6.34514e+08
-7.035497e+08
0
0
0
-4.892268e+08
-5.147401e+08
-5.487332e+08
-5.933814e+08
-6.520866e+08
0
0
0
0
-4.66624e+08
-4.896128e+08
-5.200944e+08
-5.598199e+08
-6.113498e+08
0
0
0
0
0
-4.473702e+08
-4.683863e+08
-4.961851e+08
-5.322142e+08
-5.785754e+08
0
0
0
0
0
9.280615e+08
-9.276555e+08
-7.945157e+08
-9.399894e+08
-7.154721e+08
-8.016281e+08
-9.621791e+08
-6.599287e+08
-7.213195e+08
-8.1804e+08
-9.94699e+08
-6.171009e+08
-6.651553e+08
-7.353048e+08
-8.435036e+08
-1.037067e+09
-5.814465e+08
-6.213203e+08
-6.769732e+08
-7.565245e+08
-8.771004e+08
0
-5.498183e+08
-5.838341e+08
-6.303145e+08
-6.938611e+08
-7.833256e+08
0
0
-5.202801e+08
-5.498297e+08
-5.895961e+08
-6.427661e+08
-7.144515e+08
0
0
0
-4.932551e+08
-5.193031e+08
-5.540725e+08
-5.998474e+08
-6.602285e+08
0
0
0
0
-4.693662e+08
-4.926822e+08
-5.236295e+08
-5.640154e+08
-6.164901e+08
0
0
0
0
0
-4.486913e+08
-4.69853e+08
-4.978572e+08
-5.341729e+08
-5.80936e+08
0
0
0
0
0
9.359798e+08
-4.309658e+08
-4.504207e+08
-4.7612e+08
-5.093194e+08
-5.51789e+08
0
0
0
0
0
8.496354e+08
8.843943e+08
-9.185042e+08
-7.931062e+08
-9.357934e+08
-7.154721e+08
-8.016281e+08
-9.621791e+08
-6.599682e+08
-7.217793e+08
-8.1952e+08
-9.992668e+08
-6.171081e+08
-6.65611e+08
-7.367033e+08
-8.471755e+08
-1.047965e+09
-5.819074e+08
-6.222584e+08
-6.787796e+08
-7.600589e+08
-8.84674e+08
0
-5.515421e+08
-5.861323e+08
-6.335528e+08
-6.986961e+08
-7.911447e+08
0
0
-5.238399e+08
-5.540657e+08
-5.948632e+08
-6.496385e+08
-7.239218e+08
0
0
0
-4.974792e+08
-5.24134e+08
-5.597958e+08
-6.068828e+08
-6.692451e+08
0
0
0
0
-4.730226e+08
-4.967905e+08
-5.283859e+08
-5.696971e+08
-6.235052e+08
0
0
0
0
0
-4.512017e+08
-4.726454e+08
-5.010483e+08
-5.379216e+08
-5.85469e+08
0
0
0
0
0
9.519236e+08
-4.321829e+08
-4.51765e+08
-4.776429e+08
-5.110894e+08
-5.539005e+08
0
0
0
0
0
8.547991e+08
8.917103e+08
-4.157909e+08
-4.338762e+08
-4.577504e+08
-4.88511e+08
-5.276934e+08
0
0
0
0
0
7.826596e+08
8.117267e+08
8.536322e+08
-9.029537e+08
-7.89873e+08
-9.266152e+08
-7.150313e+08
-8.002051e+08
-9.578609e+08
-6.599682e+08
-7.217793e+08
-8.1952e+08
-9.992668e+08
-6.169648e+08
-6.6567e+08
-7.372024e+08
-8.487583e+08
-1.052928e+09
-5.817111e+08
-6.22311e+08
-6.793155e+08
-7.616116e+08
-8.887093e+08
0
-5.517728e+08
-5.866727e+08
-6.346299e+08
-7.007405e+08
-7.951133e+08
0
0
-5.25251e+08
-5.559061e+08
-5.973763e+08
-6.532356e+08
-7.293495e+08
0
0
0
-5.006237e+08
-5.278229e+08
-5.642993e+08
-6.126065e+08
-6.768526e+08
0
0
0
0
-4.768384e+08
-5.011153e+08
-5.334494e+08
-5.758268e+08
-6.311898e+08
0
0
0
0
0
-4.545418e+08
-4.763737e+08
-5.053293e+08
-5.429805e+08
-5.916283e+08
0
0
0
0
0
9.758993e+08
-4.344925e+08
-4.543208e+08
-4.80545e+08
-5.144714e+08
-5.579473e+08
0
0
0
0
0
8.649369e+08
9.064305e+08
-4.16917e+08
-4.351145e+08
-4.591459e+08
-4.901223e+08
-5.295999e+08
0
0
0
0
0
7.866094e+08
8.165217e+08
8.605496e+08
-4.016985e+08
-4.185724e+08
-4.408396e+08
-4.694744e+08
-5.05819e+08
0
0
0
0
0
7.286971e+08
7.494316e+08
7.848008e+08
8.347551e+08
-8.796564e+08
-7.838841e+08
-9.109708e+08
-7.137873e+08
-7.969246e+08
-9.483988e+08
-6.599287e+08
-7.213195e+08
-8.1804e+08
-9.94699e+08
-6.169648e+08
-6.6567e+08
-7.372024e+08
-8.487583e+08
-1.052928e+09
-5.814808e+08
-6.221858e+08
-6.794053e+08
-7.621716e+08
-8.90446e+08
0
-5.514696e+08
-5.865167e+08
-6.347485e+08
-7.013884e+08
-7.968785e+08
0
0
-5.253349e+08
-5.562065e+08
-5.980344e+08
-6.545034e+08
-7.317095e+08
0
0
0
-5.018025e+08
-5.293366e+08
-5.663255e+08
-6.154213e+08
-6.809267e+08
0
0
0
0
-4.796458e+08
-5.043741e+08
-5.373733e+08
-5.807254e+08
-6.375339e+08
0
0
0
0
0
-4.580131e+08
-4.802797e+08
-5.098613e+08
-5.48402e+08
-5.983208e+08
0
0
0
0
0
1.006984e+09
-4.375599e+08
-4.577261e+08
-4.844289e+08
-5.190224e+08
-5.634275e+08
0
0
0
0
0
8.795254e+08
9.28545e+08
-4.190513e+08
-4.374656e+08
-4.618012e+08
-4.931964e+08
-5.33248e+08
0
0
0
0
0
7.942734e+08
8.259304e+08
8.744648e+08
-4.027443e+08
-4.19718e+08
-4.421246e+08
-4.709499e+08
-5.075532e+08
0
0
0
0
0
7.319295e+08
7.53115e+08
7.893458e+08
8.414535e+08
-3.885703e+08
-4.04361e+08
-4.252019e+08
-4.519605e+08
-4.85828e+08
0
0
0
0
0
6.83797e+08
6.990839e+08
7.256873e+08
7.680509e+08
8.267506e+08
-8.501373e+08
-7.737793e+08
-8.874545e+08
-7.108974e+08
-7.90815e+08
-9.322297e+08
-6.595234e+08
-7.200228e+08
-8.146155e+08
-9.846774e+08
-6.171081e+08
-6.65611e+08
-7.367033e+08
-8.471755e+08
-1.047965e+09
-5.814808e+08
-6.221858e+08
-6.794053e+08
-7.621716e+08
-8.90446e+08
0
-5.511986e+08
-5.863026e+08
-6.346486e+08
-7.01521e+08
-7.975231e+08
0
0
-5.249742e+08
-5.559388e+08
-5.979339e+08
-6.547097e+08
-7.325044e+08
0
0
0
-5.017886e+08
-5.29482e+08
-5.667274e+08
-6.162381e+08
-6.824424e+08
0
0
0
0
-4.806445e+08
-5.056439e+08
-5.390499e+08
-5.830113e+08
-6.407469e+08
0
0
0
0
0
-4.605405e+08
-4.831891e+08
-5.133287e+08
-5.526725e+08
-6.037546e+08
0
0
0
0
0
1.040354e+09
-4.407357e+08
-4.612788e+08
-4.885209e+08
-5.238733e+08
-5.693439e+08
0
0
0
0
0
8.971836e+08
9.571855e+08
-4.21881e+08
-4.405922e+08
-4.653476e+08
-4.973233e+08
-5.381745e+08
0
0
0
0
0
8.050752e+08
8.394605e+08
8.953677e+08
-4.047238e+08
-4.218903e+08
-4.445666e+08
-4.737614e+08
-5.108667e+08
0
0
0
0
0
7.381544e+08
7.602584e+08
7.982618e+08
8.549325e+08
-3.895447e+08
-4.054249e+08
-4.263904e+08
-4.533186e+08
-4.874151e+08
0
0
0
0
0
6.865413e+08
7.021087e+08
7.291873e+08
7.724514e+08
8.333871e+08
-3.763083e+08
-3.911226e+08
-4.106846e+08
-4.357745e+08
-4.674536e+08
0
0
0
0
0
6.451864e+08
6.570815e+08
6.778321e+08
7.107762e+08
7.606753e+08
-8.227013e+08
-7.59107e+08
-8.575763e+08
-7.050222e+08
-7.804738e+08
-9.078578e+08
-6.579888e+08
-7.170175e+08
-8.082123e+08
-9.675195e+08
-6.171009e+08
-6.651553e+08
-7.353048e+08
-8.435036e+08
-1.037067e+09
-5.817111e+08
-6.22311e+08
-6.793155e+08
-7.616116e+08
-8.887093e+08
0
-5.511986e+08
-5.863026e+08
-6.346486e+08
-7.01521e+08
-7.975231e+08
0
0
-5.246853e+08
-5.556821e+08
-5.97741e+08
-6.546427e+08
-7.326929e+08
0
0
0
-5.013973e+08
-5.291526e+08
-5.665074e+08
-6.162096e+08
-6.827605e+08
0
0
0
0
-4.805624e+08
-5.056847e+08
-5.392841e+08
-5.835487e+08
-6.417674e+08
0
0
0
0
0
-4.613954e+08
-4.842692e+08
-5.14743e+08
-5.545763e+08
-6.063816e+08
0
0
0
0
0
1.065118e+09
-4.430257e+08
-4.638978e+08
-4.916171e+08
-5.276485e+08
-5.740834e+08
0
0
0
0
0
9.143755e+08
9.878929e+08
-4.248008e+08
-4.438419e+08
-4.690685e+08
-5.017017e+08
-5.434655e+08
0
0
0
0
0
8.177031e+08
8.55825e+08
9.224461e+08
-4.073443e+08
-4.247742e+08
-4.478218e+08
-4.775279e+08
-5.153312e+08
0
0
0
0
0
7.468106e+08
7.703208e+08
8.110811e+08
8.751961e+08
-3.913866e+08
-4.074393e+08
-4.286459e+08
-4.55903e+08
-4.904435e+08
0
0
0
0
0
6.917984e+08
7.07931e+08
7.35973e+08
7.810845e+08
8.467528e+08
-3.772187e+08
-3.921137e+08
-4.117879e+08
-4.370301e+08
-4.689134e+08
0
0
0
0
0
6.475701e+08
6.596569e+08
6.807125e+08
7.141669e+08
7.650238e+08
-3.648291e+08
-3.787582e+08
-3.971647e+08
-4.207562e+08
-4.504869e+08
0
0
0
0
0
6.112912e+08
6.208779e+08
6.378473e+08
6.64402e+08
7.040556e+08
-8.012769e+08
-7.436431e+08
-8.297129e+08
-6.952927e+08
-7.654687e+08
-8.768256e+08
-6.540768e+08
-7.109355e+08
-7.97353e+08
-9.416032e+08
-6.162538e+08
-6.635171e+08
-7.320872e+08
-8.366207e+08
-1.018386e+09
-5.819074e+08
-6.222584e+08
-6.787796e+08
-7.600589e+08
-8.84674e+08
0
-5.514696e+08
-5.865167e+08
-6.347485e+08
-7.013884e+08
-7.968785e+08
0
0
-5.246853e+08
-5.556821e+08
-5.97741e+08
-6.546427e+08
-7.326929e+08
0
0
0
-5.011024e+08
-5.288763e+08
-5.662689e+08
-6.160432e+08
-6.827344e+08
0
0
0
0
-4.801557e+08
-5.053212e+08
-5.389962e+08
-5.833896e+08
-6.418287e+08
0
0
0
0
0
-4.612643e+08
-4.84236e+08
-5.148622e+08
-5.549283e+08
-6.070917e+08
0
0
0
0
0
1.080357e+09
-4.437627e+08
-4.648259e+08
-4.928263e+08
-5.292638e+08
-5.762845e+08
0
0
0
0
0
9.258515e+08
1.010586e+09
-4.26887e+08
-4.462146e+08
-4.718559e+08
-5.050735e+08
-5.476566e+08
0
0
0
0
0
8.29333e+08
8.717423e+08
9.514959e+08
-4.100397e+08
-4.277613e+08
-4.512245e+08
-4.815078e+08
-5.201045e+08
0
0
0
0
0
7.566967e+08
7.820758e+08
8.265853e+08
9.014897e+08
-3.938214e+08
-4.101096e+08
-4.316476e+08
-4.593588e+08
-4.945156e+08
0
0
0
0
0
6.990381e+08
7.160229e+08
7.455293e+08
7.935013e+08
8.668782e+08
-3.789374e+08
-3.939878e+08
-4.138791e+08
-4.394161e+08
-4.716954e+08
0
0
0
0
0
6.521186e+08
6.645883e+08
6.862552e+08
7.207406e+08
7.735586e+08
-3.656821e+08
-3.796841e+08
-3.981923e+08
-4.219213e+08
-4.518357e+08
0
0
0
0
0
6.133974e+08
6.231208e+08
6.403047e+08
6.671949e+08
7.074026e+08
-3.540587e+08
-3.671837e+08
-3.845407e+08
-4.067767e+08
-4.347569e+08
0
0
0
0
0
5.810378e+08
5.89028e+08
6.033322e+08
6.256377e+08
6.582639e+08
-7.869298e+08
-7.305381e+08
-8.079235e+08
-6.842324e+08
-7.496885e+08
-8.478228e+08
-6.468251e+08
-7.009306e+08
-7.816191e+08
-9.085553e+08
-6.134221e+08
-6.594267e+08
-7.256234e+08
-8.249386e+08
-9.901306e+08
-5.814465e+08
-6.213203e+08
-6.769732e+08
-7.565245e+08
-8.771004e+08
0
-5.517728e+08
-5.866727e+08
-6.346299e+08
-7.007405e+08
-7.951133e+08
0
0
-5.249742e+08
-5.559388e+08
-5.979339e+08
-6.547097e+08
-7.325044e+08
0
0
0
-5.011024e+08
-5.288763e+08
-5.662689e+08
-6.160432e+08
-6.827344e+08
0
0
0
0
-4.79861e+08
-5.050374e+08
-5.387357e+08
-5.831731e+08
-6.416945e+08
0
0
0
0
0
-4.608512e+08
-4.83854e+08
-5.145353e+08
-5.546929e+08
-6.070075e+08
0
0
0
0
0
1.088748e+09
-4.435955e+08
-4.647389e+08
-4.928632e+08
-5.294869e+08
-5.76786e+08
0
0
0
0
0
9.321249e+08
1.024495e+09
-4.27526e+08
-4.47018e+08
-4.729004e+08
-5.064625e+08
-5.495346e+08
0
0
0
0
0
8.364907e+08
8.823325e+08
9.729023e+08
-4.11949e+08
-4.299228e+08
-4.5375e+08
-4.845441e+08
-5.238487e+08
0
0
0
0
0
7.654518e+08
7.928916e+08
8.416662e+08
9.297676e+08
-3.963184e+08
-4.128666e+08
-4.347745e+08
-4.629972e+08
-4.988524e+08
0
0
0
0
0
7.071648e+08
7.252575e+08
7.566908e+08
8.085303e+08
8.930691e+08
-3.812061e+08
-3.964686e+08
-4.166576e+08
-4.426015e+08
-4.754295e+08
0
0
0
0
0
6.583359e+08
6.713759e+08
6.939564e+08
7.299995e+08
7.858437e+08
-3.6729e+08
-3.814327e+08
-4.001374e+08
-4.241326e+08
-4.544028e+08
0
0
0
0
0
6.174042e+08
6.273985e+08
6.450084e+08
6.725688e+08
7.138932e+08
-3.548598e+08
-3.680511e+08
-3.855004e+08
-4.078614e+08
-4.360076e+08
0
0
0
0
0
5.829223e+08
5.910143e+08
6.05476e+08
6.280227e+08
6.6102e+08
-3.439361e+08
-3.563244e+08
-3.727258e+08
-3.937294e+08
-4.201255e+08
0
0
0
0
0
5.53723e+08
5.605435e+08
5.729248e+08
5.921567e+08
6.200068e+08
-7.798089e+08
-7.213251e+08
-7.933261e+08
-6.744682e+08
-7.363317e+08
-8.251308e+08
-6.381412e+08
-6.896217e+08
-7.651258e+08
-8.77639e+08
-6.076471e+08
-6.519437e+08
-7.150753e+08
-8.08047e+08
-9.54072e+08
-5.792817e+08
-6.183346e+08
-6.725784e+08
-7.494899e+08
-8.642476e+08
0
-5.515421e+08
-5.861323e+08
-6.335528e+08
-6.986961e+08
-7.911447e+08
0
0
-5.253349e+08
-5.562065e+08
-5.980344e+08
-6.545034e+08
-7.317095e+08
0
0
0
-5.013973e+08
-5.291526e+08
-5.665074e+08
-6.162096e+08
-6.827605e+08
0
0
0
0
-4.79861e+08
-5.050374e+08
-5.387357e+08
-5.831731e+08
-6.416945e+08
0
0
0
0
0
-4.605604e+08
-4.835694e+08
-5.142654e+08
-5.544513e+08
-6.068175e+08
0
0
0
0
0
1.092426e+09
-4.431812e+08
-4.64348e+08
-4.925137e+08
-5.292059e+08
-5.766148e+08
0
0
0
0
0
9.352203e+08
1.032131e+09
-4.273319e+08
-4.468906e+08
-4.728764e+08
-5.065918e+08
-5.498891e+08
0
0
0
0
0
8.399273e+08
8.881032e+08
9.859927e+08
-4.125053e+08
-4.306223e+08
-4.54659e+08
-4.857505e+08
-5.254721e+08
0
0
0
0
0
7.705052e+08
7.995276e+08
8.516705e+08
9.505753e+08
-3.980723e+08
-4.148446e+08
-4.370755e+08
-4.657488e+08
-5.022245e+08
0
0
0
0
0
7.141488e+08
7.334267e+08
7.669568e+08
8.231643e+08
9.213551e+08
-3.835261e+08
-3.990221e+08
-4.195431e+08
-4.45944e+08
-4.793924e+08
0
0
0
0
0
6.652207e+08
6.789889e+08
7.027421e+08
7.408175e+08
8.007355e+08
-3.694098e+08
-3.837439e+08
-4.027181e+08
-4.270802e+08
-4.578427e+08
0
0
0
0
0
6.228485e+08
6.332423e+08
6.514804e+08
6.800356e+08
7.230392e+08
-3.563675e+08
-3.696868e+08
-3.873147e+08
-4.099174e+08
-4.383854e+08
0
0
0
0
0
5.864987e+08
5.947911e+08
6.095633e+08
6.325872e+08
6.663239e+08
-3.446901e+08
-3.571389e+08
-3.736246e+08
-3.947421e+08
-4.212893e+08
0
0
0
0
0
5.554261e+08
5.623244e+08
5.748264e+08
5.942393e+08
6.223604e+08
-3.344062e+08
-3.461186e+08
-3.616433e+08
-3.815234e+08
-4.064788e+08
0
0
0
0
0
5.288257e+08
5.347777e+08
5.456936e+08
5.626409e+08
5.869705e+08
-7.166387e+08
-7.860804e+08
-6.674493e+08
-7.269479e+08
-8.099314e+08
-6.302752e+08
-6.796629e+08
-7.511943e+08
-8.534595e+08
-6.004714e+08
-6.430558e+08
-7.032353e+08
-7.904117e+08
-9.20348e+08
-5.744923e+08
-6.123629e+08
-6.646604e+08
-7.381101e+08
-8.457083e+08
0
-5.498183e+08
-5.838341e+08
-6.303145e+08
-6.938611e+08
-7.833256e+08
0
0
-5.25251e+08
-5.559061e+08
-5.973763e+08
-6.532356e+08
-7.293495e+08
0
0
0
-5.017886e+08
-5.29482e+08
-5.667274e+08
-6.162381e+08
-6.824424e+08
0
0
0
0
-4.801557e+08
-5.053212e+08
-5.389962e+08
-5.833896e+08
-6.418287e+08
0
0
0
0
0
-4.605604e+08
-4.835694e+08
-5.142654e+08
-5.544513e+08
-6.068175e+08
0
0
0
0
0
1.092426e+09
-4.428961e+08
-4.640662e+08
-4.922414e+08
-5.289525e+08
-5.763955e+08
0
0
0
0
0
9.364707e+08
1.035471e+09
-4.269202e+08
-4.464966e+08
-4.725147e+08
-5.062832e+08
-5.496642e+08
0
0
0
0
0
8.413421e+08
8.909429e+08
9.93168e+08
-4.122908e+08
-4.304644e+08
-4.545887e+08
-4.858097e+08
-5.257183e+08
0
0
0
0
0
7.726406e+08
8.027027e+08
8.571098e+08
9.632928e+08
-3.985579e+08
-4.154563e+08
-4.378713e+08
-4.668046e+08
-5.036421e+08
0
0
0
0
0
7.179701e+08
7.381265e+08
7.732352e+08
8.328487e+08
9.421696e+08
-3.851422e+08
-4.008392e+08
-4.216489e+08
-4.484514e+08
-4.824489e+08
0
0
0
0
0
6.709949e+08
6.855228e+08
7.105085e+08
7.507704e+08
8.152643e+08
-3.715715e+08
-3.861161e+08
-4.053901e+08
-4.301636e+08
-4.614819e+08
0
0
0
0
0
6.288112e+08
6.397079e+08
6.587362e+08
6.885546e+08
7.337344e+08
-3.583528e+08
-3.71846e+08
-3.897185e+08
-4.126542e+08
-4.41567e+08
0
0
0
0
0
5.913342e+08
5.9992e+08
6.15145e+08
6.388675e+08
6.736953e+08
-3.461069e+08
-3.586725e+08
-3.753214e+08
-3.966592e+08
-4.23499e+08
0
0
0
0
0
5.586519e+08
5.657026e+08
5.78441e+08
5.982093e+08
6.268654e+08
-3.351172e+08
-3.468851e+08
-3.624871e+08
-3.824715e+08
-4.075649e+08
0
0
0
0
0
5.303771e+08
5.363902e+08
5.474011e+08
5.644899e+08
5.890261e+08
-3.254261e+08
-3.365108e+08
-3.512298e+08
-3.700785e+08
-3.9372e+08
0
0
0
0
0
5.059644e+08
5.112509e+08
5.210294e+08
5.361897e+08
5.578468e+08
-6.638398e+08
-7.221758e+08
-8.023883e+08
-6.245436e+08
-6.725115e+08
-7.414183e+08
-8.372759e+08
-5.93858e+08
-6.350306e+08
-6.928443e+08
-7.755571e+08
-8.94007e+08
-5.68376e+08
-6.05015e+08
-6.553469e+08
-7.254353e+08
-8.264424e+08
0
-5.457294e+08
-5.788754e+08
-6.239808e+08
-6.852895e+08
-7.707876e+08
0
0
-5.238399e+08
-5.540657e+08
-5.948632e+08
-6.496385e+08
-7.239218e+08
0
0
0
-5.018025e+08
-5.293366e+08
-5.663255e+08
-6.154213e+08
-6.809267e+08
0
0
0
0
-4.805624e+08
-5.056847e+08
-5.392841e+08
-5.835487e+08
-6.417674e+08
0
0
0
0
0
-4.608512e+08
-4.83854e+08
-5.145353e+08
-5.546929e+08
-6.070075e+08
0
0
0
0
0
1.088748e+09
-4.428961e+08
-4.640662e+08
-4.922414e+08
-5.289525e+08
-5.763955e+08
0
0
0
0
0
9.364707e+08
1.035471e+09
-4.266418e+08
-4.462196e+08
-4.722439e+08
-5.060254e+08
-5.494301e+08
0
0
0
0
0
8.41812e+08
8.920877e+08
9.96304e+08
-4.11884e+08
-4.300711e+08
-4.54221e+08
-4.854845e+08
-5.254593e+08
0
0
0
0
0
7.733203e+08
8.040046e+08
8.597832e+08
9.702663e+08
-3.983281e+08
-4.152751e+08
-4.377654e+08
-4.668095e+08
-5.038061e+08
0
0
0
0
0
7.193897e+08
7.401035e+08
7.7623e+08
8.381083e+08
9.549078e+08
-3.855663e+08
-4.013757e+08
-4.223489e+08
-4.493811e+08
-4.83696e+08
0
0
0
0
0
6.740103e+08
6.890849e+08
7.149601e+08
7.568378e+08
8.248613e+08
-3.730651e+08
-3.877904e+08
-4.073248e+08
-4.324588e+08
-4.642676e+08
0
0
0
0
0
6.337113e+08
6.451222e+08
6.649569e+08
6.960832e+08
7.435827e+08
-3.603718e+08
-3.74056e+08
-3.922003e+08
-4.155088e+08
-4.449228e+08
0
0
0
0
0
5.965812e+08
6.05532e+08
6.213173e+08
6.459075e+08
6.821097e+08
-3.479702e+08
-3.606944e+08
-3.775666e+08
-3.992075e+08
-4.264516e+08
0
0
0
0
0
5.629954e+08
5.702674e+08
5.833477e+08
6.036303e+08
6.330647e+08
-3.364511e+08
-3.483261e+08
-3.640777e+08
-3.842639e+08
-4.096243e+08
0
0
0
0
0
5.33311e+08
5.394432e+08
5.506389e+08
5.680039e+08
5.929449e+08
-3.260977e+08
-3.372335e+08
-3.520237e+08
-3.709683e+08
-3.947363e+08
0
0
0
0
0
5.07387e+08
5.127224e+08
5.225776e+08
5.378514e+08
5.596724e+08
-3.169521e+08
-3.274576e+08
-3.414283e+08
-3.593283e+08
-3.817636e+08
0
0
0
0
0
4.848417e+08
4.896118e+08
4.984802e+08
5.122148e+08
5.317444e+08
-6.215767e+08
-6.688355e+08
-7.364495e+08
-8.292485e+08
-5.889956e+08
-6.291904e+08
-6.853952e+08
-7.651506e+08
-8.764e+08
-5.626688e+08
-5.982672e+08
-6.469735e+08
-7.143581e+08
-8.102686e+08
0
-5.403988e+08
-5.726113e+08
-6.162779e+08
-6.753139e+08
-7.569363e+08
0
0
-5.202801e+08
-5.498297e+08
-5.895961e+08
-6.427661e+08
-7.144515e+08
0
0
0
-5.006237e+08
-5.278229e+08
-5.642993e+08
-6.126065e+08
-6.768526e+08
0
0
0
0
-4.806445e+08
-5.056439e+08
-5.390499e+08
-5.830113e+08
-6.407469e+08
0
0
0
0
0
-4.612643e+08
-4.84236e+08
-5.148622e+08
-5.549283e+08
-6.070917e+08
0
0
0
0
0
1.080357e+09
-4.431812e+08
-4.64348e+08
-4.925137e+08
-5.292059e+08
-5.766148e+08
0
0
0
0
0
9.352203e+08
1.032131e+09
-4.266418e+08
-4.462196e+08
-4.722439e+08
-5.060254e+08
-5.494301e+08
0
0
0
0
0
8.41812e+08
8.920877e+08
9.96304e+08
-4.116129e+08
-4.298001e+08
-4.539539e+08
-4.852267e+08
-5.252185e+08
0
0
0
0
0
7.734589e+08
8.044351e+08
8.608605e+08
9.73316e+08
-3.979276e+08
-4.148851e+08
-4.373961e+08
-4.664748e+08
-5.035252e+08
0
0
0
0
0
7.196886e+08
7.407273e+08
7.774546e+08
8.406947e+08
9.619082e+08
-3.853247e+08
-4.011766e+08
-4.222153e+08
-4.493438e+08
-4.837958e+08
0
0
0
0
0
6.749891e+08
6.903995e+08
7.168239e+08
7.59725e+08
8.300736e+08
-3.734359e+08
-3.882616e+08
-4.079426e+08
-4.332815e+08
-4.653717e+08
0
0
0
0
0
6.361664e+08
6.479379e+08
6.683339e+08
7.003815e+08
7.495675e+08
-3.617557e+08
-3.756036e+08
-3.939834e+08
-4.17618e+08
-4.474734e+08
0
0
0
0
0
6.008186e+08
6.101358e+08
6.26479e+08
6.519393e+08
6.895468e+08
-3.498604e+08
-3.627583e+08
-3.798784e+08
-4.018583e+08
-4.295574e+08
0
0
0
0
0
5.67671e+08
5.752157e+08
5.88713e+08
6.096235e+08
6.400159e+08
-3.382033e+08
-3.502236e+08
-3.661797e+08
-3.866434e+08
-4.123724e+08
0
0
0
0
0
5.372472e+08
5.435513e+08
5.550124e+08
5.727734e+08
5.982967e+08
-3.273558e+08
-3.385901e+08
-3.53518e+08
-3.726479e+08
-3.966609e+08
0
0
0
0
0
5.100742e+08
5.15504e+08
5.255077e+08
5.410019e+08
5.63142e+08
-3.175878e+08
-3.281403e+08
-3.421767e+08
-3.601652e+08
-3.827169e+08
0
0
0
0
0
4.861536e+08
4.909634e+08
4.998949e+08
5.137228e+08
5.333856e+08
-3.089484e+08
-3.189151e+08
-3.321941e+08
-3.492133e+08
-3.70539e+08
0
0
0
0
0
4.652271e+08
4.695865e+08
4.777154e+08
4.902804e+08
5.080815e+08
-5.864676e+08
-6.261688e+08
-6.815686e+08
-7.598654e+08
-8.676734e+08
-5.58446e+08
-5.933128e+08
-6.408918e+08
-7.064341e+08
-7.989614e+08
0
-5.353795e+08
-5.667883e+08
-6.092382e+08
-6.663909e+08
-7.448872e+08
0
0
-5.155626e+08
-5.443703e+08
-5.830286e+08
-6.34514e+08
-7.035497e+08
0
0
0
-4.974792e+08
-5.24134e+08
-5.597958e+08
-6.068828e+08
-6.692451e+08
0
0
0
0
-4.796458e+08
-5.043741e+08
-5.373733e+08
-5.807254e+08
-6.375339e+08
0
0
0
0
0
-4.613954e+08
-4.842692e+08
-5.14743e+08
-5.545763e+08
-6.063816e+08
0
0
0
0
0
1.065118e+09
-4.435955e+08
-4.647389e+08
-4.928632e+08
-5.294869e+08
-5.76786e+08
0
0
0
0
0
9.321249e+08
1.024495e+09
-4.269202e+08
-4.464966e+08
-4.725147e+08
-5.062832e+08
-5.496642e+08
0
0
0
0
0
8.413421e+08
8.909429e+08
9.93168e+08
-4.116129e+08
-4.298001e+08
-4.539539e+08
-4.852267e+08
-5.252185e+08
0
0
0
0
0
7.734589e+08
8.044351e+08
8.608605e+08
9.73316e+08
-3.97664e+08
-4.146207e+08
-4.37134e+08
-4.662194e+08
-5.032825e+08
0
0
0
0
0
7.196629e+08
7.408517e+08
7.778586e+08
8.417382e+08
9.649758e+08
-3.849312e+08
-4.007915e+08
-4.218472e+08
-4.490044e+08
-4.83501e+08
0
0
0
0
0
6.750691e+08
6.906699e+08
7.174074e+08
7.609043e+08
8.326425e+08
-3.731854e+08
-3.880483e+08
-4.077873e+08
-4.332107e+08
-4.654207e+08
0
0
0
0
0
6.368564e+08
6.488432e+08
6.695715e+08
7.02173e+08
7.524102e+08
-3.620796e+08
-3.76018e+08
-3.945297e+08
-4.183488e+08
-4.484559e+08
0
0
0
0
0
6.028628e+08
6.124317e+08
6.291505e+08
6.551984e+08
6.93775e+08
-3.511455e+08
-3.641922e+08
-3.815268e+08
-4.038027e+08
-4.319017e+08
0
0
0
0
0
5.713898e+08
5.79204e+08
5.931076e+08
6.146305e+08
6.459694e+08
-3.399763e+08
-3.521556e+08
-3.683384e+08
-3.89112e+08
-4.152556e+08
0
0
0
0
0
5.414549e+08
5.479689e+08
5.597498e+08
5.779871e+08
6.04214e+08
-3.290063e+08
-3.403743e+08
-3.554904e+08
-3.748751e+08
-3.99226e+08
0
0
0
0
0
5.136679e+08
5.192335e+08
5.29449e+08
5.452567e+08
5.678516e+08
-3.187763e+08
-3.294196e+08
-3.435832e+08
-3.617428e+08
-3.845198e+08
0
0
0
0
0
4.886292e+08
4.935154e+08
5.025681e+08
5.165763e+08
5.364972e+08
-3.09551e+08
-3.195611e+08
-3.32901e+08
-3.50002e+08
-3.714352e+08
0
0
0
0
0
4.664426e+08
4.708349e+08
4.790164e+08
4.916593e+08
5.095714e+08
-3.013808e+08
-3.108468e+08
-3.234821e+08
-3.396866e+08
-3.599826e+08
0
0
0
0
0
4.469356e+08
4.509626e+08
4.58477e+08
4.700673e+08
4.864278e+08
-5.562435e+08
-5.907383e+08
-6.377476e+08
-7.023674e+08
-7.932242e+08
0
-5.316483e+08
-5.624861e+08
-6.040806e+08
-6.599262e+08
-7.362898e+08
0
0
-5.110892e+08
-5.392497e+08
-5.769553e+08
-6.270156e+08
-6.938529e+08
0
0
0
-4.932551e+08
-5.193031e+08
-5.540725e+08
-5.998474e+08
-6.602285e+08
0
0
0
0
-4.768384e+08
-5.011153e+08
-5.334494e+08
-5.758268e+08
-6.311898e+08
0
0
0
0
0
-4.605405e+08
-4.831891e+08
-5.133287e+08
-5.526725e+08
-6.037546e+08
0
0
0
0
0
1.040354e+09
-4.437627e+08
-4.648259e+08
-4.928263e+08
-5.292638e+08
-5.762845e+08
0
0
0
0
0
9.258515e+08
1.010586e+09
-4.273319e+08
-4.468906e+08
-4.728764e+08
-5.065918e+08
-5.498891e+08
0
0
0
0
0
8.399273e+08
8.881032e+08
9.859927e+08
-4.11884e+08
-4.300711e+08
-4.54221e+08
-4.854845e+08
-5.254593e+08
0
0
0
0
0
7.733203e+08
8.040046e+08
8.597832e+08
9.702663e+08
-3.97664e+08
-4.146207e+08
-4.37134e+08
-4.662194e+08
-5.032825e+08
0
0
0
0
0
7.196629e+08
7.408517e+08
7.778586e+08
8.417382e+08
9.649758e+08
-3.846751e+08
-4.005341e+08
-4.21591e+08
-4.48753e+08
-4.832591e+08
0
0
0
0
0
6.749542e+08
6.906413e+08
7.175213e+08
7.612933e+08
8.336818e+08
-3.727996e+08
-3.876691e+08
-4.074224e+08
-4.3287e+08
-4.651176e+08
0
0
0
0
0
6.368033e+08
6.489093e+08
6.698197e+08
7.027301e+08
7.535718e+08
-3.618224e+08
-3.757938e+08
-3.943569e+08
-4.182512e+08
-4.48464e+08
0
0
0
0
0
6.033527e+08
6.13068e+08
6.300004e+08
6.563841e+08
6.955297e+08
-3.514281e+08
-3.645568e+08
-3.820109e+08
-4.044535e+08
-4.327796e+08
0
0
0
0
0
5.731222e+08
5.811179e+08
5.952873e+08
6.172081e+08
6.491699e+08
-3.411721e+08
-3.534874e+08
-3.698661e+08
-3.909101e+08
-4.174175e+08
0
0
0
0
0
5.447565e+08
5.514749e+08
5.635615e+08
5.822523e+08
6.09154e+08
-3.30672e+08
-3.421863e+08
-3.575107e+08
-3.771798e+08
-4.019104e+08
0
0
0
0
0
5.174859e+08
5.232159e+08
5.33684e+08
5.498638e+08
5.729999e+08
-3.203338e+08
-3.311001e+08
-3.454375e+08
-3.63832e+08
-3.869198e+08
0
0
0
0
0
4.919306e+08
4.96926e+08
5.061508e+08
5.204138e+08
5.406997e+08
-3.106756e+08
-3.207695e+08
-3.342271e+08
-3.514864e+08
-3.731278e+08
0
0
0
0
0
4.687345e+08
4.731896e+08
4.814719e+08
4.942648e+08
5.123906e+08
-3.01953e+08
-3.114591e+08
-3.241509e+08
-3.404313e+08
-3.608269e+08
0
0
0
0
0
4.480665e+08
4.52121e+08
4.5968e+08
4.713365e+08
4.877907e+08
-2.942222e+08
-3.032184e+08
-3.15255e+08
-3.307012e+08
-3.500447e+08
0
0
0
0
0
4.298145e+08
4.335699e+08
4.40565e+08
4.51327e+08
4.664687e+08
-5.296976e+08
-5.602433e+08
-6.014026e+08
-6.565873e+08
-7.318822e+08
0
0
-5.077519e+08
-5.354488e+08
-5.72478e+08
-6.215366e+08
-6.868475e+08
0
0
0
-4.892268e+08
-5.147401e+08
-5.487332e+08
-5.933814e+08
-6.520866e+08
0
0
0
0
-4.730226e+08
-4.967905e+08
-5.283859e+08
-5.696971e+08
-6.235052e+08
0
0
0
0
0
-4.580131e+08
-4.802797e+08
-5.098613e+08
-5.48402e+08
-5.983208e+08
0
0
0
0
0
1.006984e+09
-4.430257e+08
-4.638978e+08
-4.916171e+08
-5.276485e+08
-5.740834e+08
0
0
0
0
0
9.143755e+08
9.878929e+08
-4.27526e+08
-4.47018e+08
-4.729004e+08
-5.064625e+08
-5.495346e+08
0
0
0
0
0
8.364907e+08
8.823325e+08
9.729023e+08
-4.122908e+08
-4.304644e+08
-4.545887e+08
-4.858097e+08
-5.257183e+08
0
0
0
0
0
7.726406e+08
8.027027e+08
8.571098e+08
9.632928e+08
-3.979276e+08
-4.148851e+08
-4.373961e+08
-4.664748e+08
-5.035252e+08
0
0
0
0
0
7.196886e+08
7.407273e+08
7.774546e+08
8.406947e+08
9.619082e+08
-3.846751e+08
-4.005341e+08
-4.21591e+08
-4.48753e+08
-4.832591e+08
0
0
0
0
0
6.749542e+08
6.906413e+08
7.175213e+08
7.612933e+08
8.336818e+08
-3.725509e+08
-3.874187e+08
-4.071725e+08
-4.326235e+08
-4.648784e+08
0
0
0
0
0
6.366382e+08
6.487971e+08
6.697883e+08
7.028373e+08
7.539559e+08
-3.614445e+08
-3.754212e+08
-3.939963e+08
-4.179114e+08
-4.481565e+08
0
0
0
0
0
6.032148e+08
6.130093e+08
6.300545e+08
6.566163e+08
6.960726e+08
-3.511661e+08
-3.643241e+08
-3.818243e+08
-4.04334e+08
-4.327546e+08
0
0
0
0
0
5.734682e+08
5.815675e+08
5.958823e+08
6.180193e+08
6.503257e+08
-3.41418e+08
-3.53808e+08
-3.702956e+08
-3.914912e+08
-4.182041e+08
0
0
0
0
0
5.462448e+08
5.530986e+08
5.653796e+08
5.843552e+08
6.116825e+08
-3.317862e+08
-3.434257e+08
-3.589301e+08
-3.788469e+08
-4.039102e+08
0
0
0
0
0
5.204454e+08
5.263335e+08
5.370385e+08
5.535653e+08
5.772075e+08
-3.219017e+08
-3.328024e+08
-3.473322e+08
-3.659888e+08
-3.894254e+08
0
0
0
0
0
4.954189e+08
5.005454e+08
5.099732e+08
5.245354e+08
5.4525e+08
-3.121476e+08
-3.223552e+08
-3.359733e+08
-3.534502e+08
-3.753785e+08
0
0
0
0
0
4.717834e+08
4.763278e+08
4.847523e+08
4.977558e+08
5.161821e+08
-3.030185e+08
-3.126025e+08
-3.254034e+08
-3.418306e+08
-3.624191e+08
0
0
0
0
0
4.501976e+08
4.543042e+08
4.619483e+08
4.737315e+08
4.903656e+08
-2.947663e+08
-3.037997e+08
-3.158889e+08
-3.314056e+08
-3.508416e+08
0
0
0
0
0
4.308705e+08
4.346491e+08
4.416824e+08
4.525014e+08
4.677234e+08
-2.87446e+08
-2.960025e+08
-3.074775e+08
-3.222181e+08
-3.406752e+08
0
0
0
0
0
4.137358e+08
4.172673e+08
4.238192e+08
4.338669e+08
4.47959e+08
-5.060036e+08
-5.334626e+08
-5.701459e+08
-6.186948e+08
-6.832337e+08
0
0
0
-4.862129e+08
-5.113408e+08
-5.44779e+08
-5.88628e+08
-6.461558e+08
0
0
0
0
-4.693662e+08
-4.926822e+08
-5.236295e+08
-5.640154e+08