/*--------------------------------*- C++ -*----------------------------------*\
| =========                 |                                                 |
| \\      /  F ield         | OpenFOAM: The Open Source CFD Toolbox           |
|  \\    /   O peration     | Version:  2306                                  |
|   \\  /    A nd           | Website:  www.openfoam.com                      |
|    \\/     M anipulation  |                                                 |
\*---------------------------------------------------------------------------*/
FoamFile
{
    version     2.0;
    format      ascii;
    arch        "LSB;label=32;scalar=64";
    class       volScalarField;
    location    "0.9/phiI";
    object      phi;
}
// * * * * * * * * * * * * * * * * * * * * * * * * * * * * * * * * * * * * * //

dimensions      [1 2 -3 0 0 -1 0];

internalField   nonuniform List<scalar> 
12000
(
1.598291
1.598263
1.593852
1.599133
1.598212
1.593785
1.599112
1.589448
1.594626
1.600832
1.598129
1.593668
1.599076
1.589364
1.594564
1.600827
1.585822
1.590165
1.596188
1.603408
1.597991
1.593522
1.599016
1.589214
1.594457
1.600821
1.585732
1.590084
1.596136
1.603425
1.582841
1.586493
1.591611
1.598555
1.606888
1.597746
1.593378
1.598906
1.589027
1.594324
1.600806
1.585569
1.589942
1.596048
1.603465
1.582748
1.586405
1.591539
1.598518
1.606936
1.580364
1.583473
1.587846
1.593802
1.60175
1.611313
1.59739
1.593257
1.598693
1.58885
1.594196
1.600753
1.585364
1.589765
1.595943
1.603518
1.58258
1.586249
1.591411
1.598459
1.607038
1.580271
1.583383
1.587765
1.593741
1.601734
1.611401
1.578265
1.580964
1.584749
1.589895
1.596759
1.605811
1.615759
1.596979
1.593149
1.598361
1.58873
1.59409
1.600601
1.585168
1.589599
1.595847
1.603553
1.582365
1.586052
1.591254
1.598395
1.607185
1.580101
1.58322
1.58762
1.593635
1.601715
1.611585
1.578173
1.580873
1.584664
1.589824
1.596713
1.605821
1.615887
1.57646
1.578835
1.582173
1.586681
1.59266
1.600513
1.609891
1.620225
1.596626
1.593027
1.597965
1.588676
1.593993
1.600317
1.585038
1.58949
1.595773
1.603495
1.582156
1.585865
1.591111
1.598349
1.607339
1.579883
1.583012
1.58744
1.593509
1.601708
1.611852
1.578004
1.580708
1.584511
1.589697
1.596638
1.605854
1.616151
1.57637
1.578745
1.582087
1.586604
1.592601
1.600488
1.609927
1.620393
1.574887
1.577005
1.579986
1.584003
1.589286
1.596169
1.604285
1.61399
1.624712
1.596426
1.592916
1.597622
1.588644
1.593878
1.599954
1.584994
1.589442
1.595696
1.603283
1.582014
1.585743
1.591023
1.598322
1.607408
1.579667
1.58281
1.587271
1.593402
1.60173
1.612161
1.577785
1.580495
1.584317
1.589541
1.596554
1.605921
1.616538
1.576203
1.57858
1.581931
1.586466
1.5925
1.600452
1.610011
1.620736
1.574799
1.576917
1.5799
1.583924
1.58922
1.596127
1.604279
1.614052
1.624919
1.573501
1.575409
1.578104
1.581727
1.586471
1.592592
1.599694
1.608074
1.618108
1.62922
1.596426
1.592848
1.597426
1.588618
1.593769
1.599628
1.584989
1.589413
1.595594
1.602967
1.581965
1.585703
1.590988
1.598278
1.607296
1.579515
1.582674
1.587165
1.593345
1.601767
1.612395
1.577565
1.580285
1.584131
1.589401
1.596496
1.60603
1.617
1.575986
1.578366
1.58173
1.586293
1.592378
1.600423
1.610151
1.621242
1.574635
1.576753
1.579743
1.583781
1.589104
1.596057
1.604282
1.614187
1.625342
1.573414
1.575322
1.578019
1.581648
1.586402
1.59254
1.599668
1.608089
1.618196
1.629466
1.572266
1.574001
1.57646
1.579766
1.584075
1.589601
1.595911
1.603235
1.611881
1.622246
1.633748
1.596626
1.592848
1.597426
1.588602
1.593703
1.59944
1.584993
1.589388
1.595491
1.602669
1.581964
1.5857
1.590965
1.598194
1.607044
1.579458
1.582628
1.587133
1.593329
1.601768
1.612411
1.577406
1.580139
1.584007
1.589318
1.596482
1.606152
1.617398
1.575766
1.578152
1.581533
1.58613
1.592275
1.600427
1.610348
1.621858
1.574421
1.576541
1.57954
1.583599
1.588959
1.59598
1.604308
1.6144
1.625967
1.573254
1.575161
1.577863
1.581502
1.586277
1.59245
1.599631
1.60813
1.618382
1.629967
1.572182
1.573916
1.576377
1.579686
1.584004
1.589544
1.595873
1.603225
1.611915
1.622359
1.634033
1.571158
1.572747
1.575009
1.57805
1.582005
1.587051
1.592744
1.599245
1.606791
1.615705
1.626403
1.637306
1.596979
1.592916
1.597622
1.588602
1.593703
1.59944
1.584996
1.589373
1.595428
1.602494
1.581976
1.585704
1.590943
1.598102
1.606784
1.579454
1.582628
1.587133
1.593316
1.60171
1.612243
1.577341
1.580084
1.583967
1.5893
1.596493
1.60621
1.617541
1.575603
1.577997
1.581396
1.586025
1.592225
1.60047
1.610553
1.622419
1.574202
1.576325
1.579336
1.583421
1.588827
1.595927
1.604375
1.614684
1.626734
1.573045
1.574952
1.577659
1.581315
1.586119
1.592343
1.599597
1.608211
1.618667
1.63071
1.572026
1.573759
1.576222
1.57954
1.583874
1.589443
1.595811
1.603219
1.611996
1.622595
1.634612
1.571076
1.572664
1.574927
1.577971
1.581933
1.586991
1.592699
1.599221
1.606798
1.615759
1.626541
1.637621
1.570155
1.571621
1.573715
1.576533
1.580192
1.584844
1.590039
1.5959
1.602593
1.610363
1.619547
1.629672
1.63994
1.59739
1.593027
1.597965
1.588618
1.593769
1.599628
1.584996
1.589373
1.595428
1.602494
1.581984
1.585707
1.590928
1.598043
1.606625
1.579466
1.58264
1.587139
1.593298
1.601632
1.61203
1.577332
1.58008
1.583969
1.589305
1.596493
1.606186
1.617455
1.575532
1.577934
1.581346
1.585995
1.592226
1.600517
1.61067
1.622687
1.574038
1.576166
1.57919
1.5833
1.588748
1.595919
1.604475
1.614973
1.627457
1.572829
1.574737
1.577454
1.581129
1.585969
1.592252
1.599593
1.60834
1.619038
1.631629
1.571821
1.573553
1.576021
1.579351
1.583708
1.589317
1.59574
1.603229
1.61213
1.622953
1.635472
1.570924
1.572511
1.574776
1.577827
1.581802
1.586882
1.592621
1.599185
1.606823
1.615878
1.626828
1.638261
1.570076
1.57154
1.573636
1.576456
1.580121
1.584782
1.589989
1.595867
1.602583
1.610387
1.61962
1.629831
1.640277
1.569243
1.570602
1.572553
1.57518
1.578587
1.582907
1.587693
1.593038
1.599069
1.605956
1.613951
1.622571
1.632094
1.641683
1.597746
1.593149
1.598361
1.588644
1.593878
1.599954
1.584993
1.589388
1.595491
1.602669
1.581984
1.585707
1.590928
1.598043
1.606625
1.579476
1.582649
1.587142
1.593285
1.601578
1.611893
1.577342
1.580093
1.583982
1.589312
1.596481
1.606125
1.61729
1.575518
1.577925
1.581344
1.586
1.592239
1.600534
1.610679
1.622683
1.573963
1.576097
1.579131
1.583258
1.588732
1.595944
1.604556
1.615146
1.62785
1.572665
1.574576
1.577302
1.580996
1.585869
1.592207
1.599628
1.608496
1.619409
1.632513
1.571609
1.573341
1.575815
1.579161
1.583546
1.589201
1.59569
1.603274
1.612321
1.623409
1.636541
1.570724
1.572309
1.574578
1.577638
1.581632
1.586744
1.592527
1.599151
1.606877
1.616065
1.627257
1.639211
1.569928
1.571391
1.573488
1.576314
1.579989
1.584669
1.589901
1.595813
1.602574
1.610443
1.619777
1.630155
1.640962
1.569166
1.570524
1.572475
1.575104
1.578516
1.582844
1.587641
1.592999
1.599048
1.605959
1.613991
1.62266
1.632267
1.642035
1.568407
1.569674
1.5715
1.573962
1.577152
1.581189
1.585631
1.590553
1.59605
1.602251
1.609332
1.616778
1.624812
1.633697
1.642556
1.597991
1.593257
1.598693
1.588676
1.593993
1.600317
1.584989
1.589413
1.595594
1.602967
1.581976
1.585704
1.590943
1.598102
1.606784
1.579476
1.582649
1.587142
1.593285
1.601578
1.611893
1.577351
1.580102
1.58399
1.589315
1.59647
1.606079
1.617174
1.575525
1.577935
1.581356
1.586013
1.592248
1.60053
1.610635
1.622564
1.573946
1.576083
1.579123
1.583258
1.588742
1.595967
1.604591
1.615188
1.627925
1.572588
1.574502
1.577236
1.580943
1.585837
1.592209
1.599677
1.608612
1.61964
1.63303
1.571447
1.57318
1.57566
1.57902
1.583431
1.58913
1.595679
1.603351
1.612533
1.623864
1.637587
1.570518
1.572101
1.574374
1.577446
1.581462
1.586612
1.592446
1.599141
1.60697
1.616318
1.627799
1.640398
1.569734
1.571194
1.573293
1.576127
1.579818
1.584524
1.589791
1.59575
1.602576
1.610539
1.620018
1.63064
1.641979
1.569022
1.570378
1.57233
1.574964
1.578386
1.582729
1.587546
1.592932
1.599017
1.605977
1.614078
1.622846
1.632621
1.642749
1.568332
1.569598
1.571424
1.573888
1.577082
1.581126
1.585577
1.59051
1.596021
1.602242
1.60935
1.616829
1.624912
1.63388
1.642915
1.567638
1.568824
1.570541
1.572858
1.575859
1.579651
1.583799
1.588365
1.593424
1.599073
1.605446
1.611994
1.618873
1.626296
1.6345
1.598129
1.593378
1.598906
1.58873
1.59409
1.600601
1.584994
1.589442
1.595696
1.603283
1.581964
1.5857
1.590965
1.598194
1.607044
1.579466
1.58264
1.587139
1.593298
1.601632
1.61203
1.577351
1.580102
1.58399
1.589315
1.59647
1.606079
1.617174
1.575533
1.577944
1.581365
1.586021
1.592252
1.600521
1.610596
1.622469
1.573951
1.57609
1.579132
1.583269
1.588755
1.59598
1.604594
1.615161
1.627852
1.572568
1.574485
1.577223
1.580936
1.58584
1.592225
1.59971
1.608664
1.619714
1.633184
1.57137
1.573104
1.57559
1.578959
1.583387
1.589113
1.595699
1.603424
1.612684
1.624151
1.638225
1.570358
1.571942
1.574218
1.577301
1.581338
1.586522
1.592403
1.599164
1.607089
1.616586
1.628336
1.641569
1.569532
1.570991
1.573092
1.575935
1.579644
1.584381
1.589689
1.595703
1.602606
1.610681
1.620332
1.631249
1.643252
1.568833
1.570187
1.57214
1.57478
1.578215
1.582581
1.587427
1.59285
1.598986
1.606015
1.614217
1.623128
1.633146
1.64381
1.568193
1.569456
1.571283
1.573751
1.576953
1.581011
1.585479
1.590434
1.595974
1.602233
1.609393
1.616941
1.62512
1.634252
1.643643
1.567566
1.56875
1.570467
1.572786
1.575791
1.579588
1.583744
1.58832
1.59339
1.599055
1.605449
1.612022
1.618934
1.626404
1.634687
1.566928
1.568041
1.569661
1.571851
1.574686
1.578262
1.582156
1.586418
1.591108
1.596305
1.602107
1.607965
1.613968
1.620262
1.627039
1.598212
1.593522
1.599016
1.58885
1.594196
1.600753
1.585038
1.58949
1.595773
1.603495
1.581965
1.585703
1.590988
1.598278
1.607296
1.579454
1.582628
1.587133
1.593316
1.60171
1.612243
1.577342
1.580093
1.583982
1.589312
1.596481
1.606125
1.61729
1.575533
1.577944
1.581365
1.586021
1.592252
1.600521
1.610596
1.622469
1.573957
1.576098
1.579141
1.583278
1.588763
1.595984
1.604588
1.61513
1.627778
1.572571
1.57449
1.577229
1.580945
1.585852
1.592239
1.599726
1.608674
1.619704
1.633155
1.571349
1.573085
1.575573
1.578947
1.583382
1.589119
1.595721
1.603468
1.612753
1.624257
1.638457
1.570281
1.571865
1.574145
1.577235
1.581284
1.586489
1.5924
1.599202
1.607187
1.616772
1.628679
1.642302
1.569376
1.570834
1.572938
1.575789
1.579514
1.584278
1.589623
1.595688
1.602663
1.610843
1.620656
1.63185
1.644514
1.568637
1.569988
1.571943
1.57459
1.57804
1.582431
1.58731
1.592777
1.598973
1.606085
1.614407
1.62349
1.633804
1.645139
1.568009
1.56927
1.571098
1.57357
1.576784
1.58086
1.585353
1.590339
1.59592
1.602233
1.609468
1.617113
1.625433
1.634805
1.644726
1.56743
1.568612
1.57033
1.572651
1.575663
1.579473
1.583644
1.588238
1.593333
1.599028
1.605463
1.612086
1.619063
1.626626
1.635069
1.566857
1.56797
1.56959
1.57178
1.574619
1.5782
1.582101
1.586371
1.591072
1.596281
1.6021
1.607978
1.614004
1.620329
1.62715
1.566268
1.567318
1.568852
1.570927
1.573614
1.577
1.580672
1.58467
1.589046
1.593861
1.599197
1.604502
1.609835
1.615276
1.620956
1.598263
1.593668
1.599076
1.589027
1.594324
1.600806
1.585168
1.589599
1.595847
1.603553
1.582014
1.585743
1.591023
1.598322
1.607408
1.579458
1.582628
1.587133
1.593329
1.601768
1.612411
1.577332
1.58008
1.583969
1.589305
1.596493
1.606186
1.617455
1.575525
1.577935
1.581356
1.586013
1.592248
1.60053
1.610635
1.622564
1.573957
1.576098
1.579141
1.583278
1.588763
1.595984
1.604588
1.61513
1.627778
1.572577
1.574496
1.577236
1.580952
1.58586
1.592247
1.599731
1.608671
1.61968
1.6331
1.571351
1.573088
1.575577
1.578952
1.58339
1.589131
1.595737
1.603487
1.61277
1.624263
1.638472
1.570259
1.571844
1.574125
1.577218
1.581273
1.586486
1.592411
1.599231
1.607241
1.616858
1.628817
1.642594
1.569301
1.570757
1.572863
1.575719
1.579453
1.584234
1.589601
1.595699
1.602719
1.610964
1.620876
1.632237
1.645317
1.568485
1.569834
1.571791
1.574444
1.577906
1.582319
1.587228
1.592735
1.598986
1.606176
1.614611
1.623857
1.634452
1.646462
1.567818
1.569076
1.570905
1.573383
1.576609
1.580707
1.585227
1.590249
1.595877
1.602255
1.609578
1.617341
1.62583
1.635494
1.646083
1.567251
1.568431
1.570148
1.572475
1.575496
1.579322
1.583514
1.588134
1.593262
1.599001
1.605494
1.612188
1.619261
1.626958
1.635634
1.566725
1.567836
1.569456
1.571649
1.574494
1.578086
1.582
1.586286
1.591007
1.596241
1.602094
1.608009
1.614083
1.620469
1.627379
1.566199
1.567248
1.568782
1.570858
1.573548
1.576939
1.580616
1.584622
1.589007
1.593833
1.599182
1.604503
1.609854
1.615317
1.621026
1.565653
1.566646
1.568102
1.570075
1.57263
1.575846
1.57932
1.583088
1.587191
1.591682
1.596624
1.601479
1.606279
1.611074
1.615931
1.598291
1.593785
1.599112
1.589214
1.594457
1.600821
1.585364
1.589765
1.595943
1.603518
1.582156
1.585865
1.591111
1.598349
1.607339
1.579515
1.582674
1.587165
1.593345
1.601767
1.612395
1.577341
1.580084
1.583967
1.5893
1.596493
1.60621
1.617541
1.575518
1.577925
1.581344
1.586
1.592239
1.600534
1.610679
1.622683
1.573951
1.57609
1.579132
1.583269
1.588755
1.59598
1.604594
1.615161
1.627852
1.572577
1.574496
1.577236
1.580952
1.58586
1.592247
1.599731
1.608671
1.61968
1.6331
1.571356
1.573093
1.575582
1.578959
1.583396
1.589138
1.595744
1.603492
1.612769
1.624246
1.638437
1.570261
1.571846
1.574128
1.577221
1.581277
1.586494
1.592422
1.599248
1.607263
1.616883
1.62884
1.642643
1.569279
1.570736
1.572842
1.5757
1.579437
1.584224
1.589602
1.595715
1.602755
1.611029
1.620979
1.6324
1.645653
1.568411
1.569759
1.571717
1.574373
1.577841
1.582267
1.587193
1.592725
1.599011
1.60625
1.614757
1.624104
1.634871
1.647311
1.56767
1.568926
1.570756
1.573238
1.576474
1.58059
1.585133
1.590187
1.595859
1.602296
1.609702
1.617577
1.626229
1.636174
1.647435
1.567065
1.568243
1.569961
1.572291
1.575323
1.579167
1.583382
1.588031
1.593198
1.598988
1.605549
1.612329
1.619516
1.627379
1.63634
1.566551
1.567659
1.569279
1.571476
1.574329
1.577936
1.581868
1.586176
1.590925
1.596195
1.602094
1.608064
1.614206
1.620683
1.627722
1.56607
1.567118
1.568651
1.57073
1.573426
1.576826
1.580515
1.584534
1.588936
1.593785
1.599161
1.604512
1.609899
1.615406
1.621173
1.565586
1.566578
1.568035
1.570008
1.572565
1.575786
1.579266
1.583039
1.58715
1.591651
1.596605
1.601472
1.606287
1.611098
1.615974
1.565077
1.56602
1.567406
1.569287
1.571722
1.574785
1.578083
1.581646
1.585511
1.58972
1.594327
1.598806
1.603174
1.607457
1.611694
1.593852
1.599133
1.589364
1.594564
1.600827
1.585569
1.589942
1.596048
1.603465
1.582365
1.586052
1.591254
1.598395
1.607185
1.579667
1.58281
1.587271
1.593402
1.60173
1.612161
1.577406
1.580139
1.584007
1.589318
1.596482
1.606152
1.617398
1.575532
1.577934
1.581346
1.585995
1.592226
1.600517
1.61067
1.622687
1.573946
1.576083
1.579123
1.583258
1.588742
1.595967
1.604591
1.615188
1.627925
1.572571
1.57449
1.577229
1.580945
1.585852
1.592239
1.599726
1.608674
1.619704
1.633155
1.571356
1.573093
1.575582
1.578959
1.583396
1.589138
1.595744
1.603492
1.612769
1.624246
1.638437
1.570266
1.571851
1.574132
1.577226
1.581283
1.586499
1.592428
1.599255
1.607269
1.616884
1.628829
1.642623
1.56928
1.570737
1.572843
1.575701
1.579439
1.584227
1.589608
1.595726
1.602773
1.611054
1.621011
1.632435
1.645727
1.56839
1.569737
1.571695
1.574352
1.577822
1.582252
1.587185
1.592729
1.599031
1.606293
1.614831
1.624221
1.635052
1.647676
1.567598
1.568853
1.570682
1.573167
1.576407
1.580532
1.585089
1.590162
1.59586
1.602335
1.609794
1.617742
1.626496
1.636614
1.648307
1.566922
1.568097
1.569815
1.572149
1.575189
1.579047
1.583281
1.587956
1.593157
1.598993
1.605618
1.61248
1.619777
1.627799
1.637035
1.56637
1.567476
1.569096
1.571297
1.574159
1.577781
1.581732
1.586065
1.590845
1.596157
1.60211
1.608146
1.61437
1.620956
1.628153
1.565901
1.566946
1.568479
1.570561
1.573264
1.576678
1.580382
1.584421
1.588846
1.593724
1.599139
1.604533
1.609972
1.615543
1.621394
1.56546
1.566451
1.567907
1.569883
1.572445
1.575675
1.579164
1.58295
1.587077
1.591595
1.596572
1.601465
1.606307
1.611151
1.616068
1.565011
1.565954
1.56734
1.569222
1.571659
1.574726
1.578029
1.581598
1.585469
1.589686
1.594303
1.598793
1.603173
1.607469
1.61172
1.564536
1.565433
1.566757
1.568554
1.57088
1.573805
1.576944
1.580325
1.583978
1.58794
1.592256
1.596416
1.600426
1.604298
1.608047
1.589448
1.594626
1.600832
1.585732
1.590084
1.596136
1.603425
1.58258
1.586249
1.591411
1.598459
1.607038
1.579883
1.583012
1.58744
1.593509
1.601708
1.611852
1.577565
1.580285
1.584131
1.589401
1.596496
1.60603
1.617
1.575603
1.577997
1.581396
1.586025
1.592225
1.60047
1.610553
1.622419
1.573963
1.576097
1.579131
1.583258
1.588732
1.595944
1.604556
1.615146
1.62785
1.572568
1.574485
1.577223
1.580936
1.58584
1.592225
1.59971
1.608664
1.619714
1.633184
1.571351
1.573088
1.575577
1.578952
1.58339
1.589131
1.595737
1.603487
1.61277
1.624263
1.638472
1.570266
1.571851
1.574132
1.577226
1.581283
1.586499
1.592428
1.599255
1.607269
1.616884
1.628829
1.642623
1.569285
1.570741
1.572847
1.575705
1.579443
1.584231
1.589613
1.595731
1.602779
1.611061
1.621015
1.632429
1.645718
1.568391
1.569738
1.571695
1.574351
1.577822
1.582252
1.587187
1.592735
1.599042
1.606311
1.61486
1.624258
1.635096
1.647766
1.567578
1.568832
1.57066
1.573144
1.576386
1.580513
1.585075
1.590157
1.595867
1.602359
1.609844
1.617825
1.626622
1.636806
1.648686
1.566852
1.568025
1.569743
1.572078
1.575121
1.578986
1.583231
1.58792
1.593142
1.599007
1.605672
1.612586
1.619955
1.628079
1.637485
1.566231
1.567334
1.568954
1.571157
1.574025
1.57766
1.581627
1.585981
1.590789
1.596137
1.602139
1.608237
1.61454
1.621232
1.628584
1.565726
1.566768
1.568301
1.570386
1.573097
1.576524
1.580245
1.584305
1.588757
1.593669
1.599127
1.604573
1.610073
1.615722
1.621676
1.565295
1.566284
1.56774
1.569718
1.572287
1.575528
1.579031
1.582834
1.586981
1.591525
1.596534
1.601462
1.606344
1.611236
1.616212
1.564889
1.56583
1.567216
1.569099
1.571541
1.574616
1.577928
1.581508
1.585393
1.589626
1.594263
1.598773
1.603176
1.607497
1.611777
1.564472
1.565369
1.566693
1.56849
1.570819
1.573747
1.576891
1.580276
1.583936
1.587905
1.59223
1.596399
1.600418
1.6043
1.60806
1.564027
1.564883
1.566149
1.56787
1.570098
1.572896
1.575891
1.579107
1.582572
1.586315
1.590376
1.59426
1.597968
1.6015
1.60486
1.585822
1.590165
1.596188
1.603408
1.582748
1.586405
1.591539
1.598518
1.606936
1.580101
1.58322
1.58762
1.593635
1.601715
1.611585
1.577785
1.580495
1.584317
1.589541
1.596554
1.605921
1.616538
1.575766
1.578152
1.581533
1.58613
1.592275
1.600427
1.610348
1.621858
1.574038
1.576166
1.57919
1.5833
1.588748
1.595919
1.604475
1.614973
1.627457
1.572588
1.574502
1.577236
1.580943
1.585837
1.592209
1.599677
1.608612
1.61964
1.63303
1.571349
1.573085
1.575573
1.578947
1.583382
1.589119
1.595721
1.603468
1.612753
1.624257
1.638457
1.570261
1.571846
1.574128
1.577221
1.581277
1.586494
1.592422
1.599248
1.607263
1.616883
1.62884
1.642643
1.569285
1.570741
1.572847
1.575705
1.579443
1.584231
1.589613
1.595731
1.602779
1.611061
1.621015
1.632429
1.645718
1.568396
1.569743
1.571699
1.574355
1.577825
1.582255
1.58719
1.592738
1.599047
1.606318
1.614867
1.624264
1.635094
1.647764
1.56758
1.568833
1.57066
1.573144
1.576385
1.580512
1.585074
1.590158
1.595872
1.602371
1.609864
1.617856
1.626664
1.636856
1.648785
1.566833
1.568005
1.569721
1.572055
1.575099
1.578965
1.583213
1.587908
1.593138
1.599016
1.605701
1.612641
1.620044
1.628211
1.637683
1.566164
1.567265
1.568884
1.571087
1.573958
1.577597
1.581572
1.585937
1.590761
1.596132
1.602165
1.608302
1.614657
1.62142
1.62887
1.565591
1.56663
1.568163
1.57025
1.572966
1.576403
1.580137
1.584214
1.588689
1.59363
1.599128
1.604621
1.61018
1.615904
1.621961
1.565125
1.566111
1.567566
1.569548
1.572123
1.575376
1.578894
1.582715
1.586884
1.591457
1.596501
1.60147
1.606401
1.61135
1.616398
1.564728
1.565666
1.567053
1.568939
1.571386
1.574472
1.577796
1.581391
1.585293
1.589549
1.594212
1.598752
1.603187
1.607544
1.611868
1.564353
1.565248
1.566571
1.568371
1.570704
1.573639
1.576791
1.580187
1.583858
1.587842
1.592183
1.59637
1.600408
1.60431
1.608092
1.563965
1.56482
1.566086
1.567808
1.570037
1.57284
1.575839
1.579059
1.582529
1.586279
1.590348
1.59424
1.597955
1.601496
1.604864
1.563546
1.564364
1.565578
1.567229
1.569366
1.57205
1.574914
1.577981
1.581275
1.584823
1.588659
1.592302
1.59575
1.598997
1.602038
1.582841
1.586493
1.591611
1.598555
1.606888
1.580271
1.583383
1.587765
1.593741
1.601734
1.611401
1.578004
1.580708
1.584511
1.589697
1.596638
1.605854
1.616151
1.575986
1.578366
1.58173
1.586293
1.592378
1.600423
1.610151
1.621242
1.574202
1.576325
1.579336
1.583421
1.588827
1.595927
1.604375
1.614684
1.626734
1.572665
1.574576
1.577302
1.580996
1.585869
1.592207
1.599628
1.608496
1.619409
1.632513
1.57137
1.573104
1.57559
1.578959
1.583387
1.589113
1.595699
1.603424
1.612684
1.624151
1.638225
1.570259
1.571844
1.574125
1.577218
1.581273
1.586486
1.592411
1.599231
1.607241
1.616858
1.628817
1.642594
1.56928
1.570737
1.572843
1.575701
1.579439
1.584227
1.589608
1.595726
1.602773
1.611054
1.621011
1.632435
1.645727
1.568396
1.569743
1.571699
1.574355
1.577825
1.582255
1.58719
1.592738
1.599047
1.606318
1.614867
1.624264
1.635094
1.647764
1.567584
1.568837
1.570664
1.573147
1.576387
1.580513
1.585076
1.590159
1.595874
1.602375
1.60987
1.617864
1.626671
1.636857
1.648786
1.566835
1.568006
1.569721
1.572054
1.575096
1.578962
1.583209
1.587906
1.593138
1.599021
1.605712
1.612662
1.620076
1.628255
1.637736
1.566146
1.567245
1.568863
1.571065
1.573935
1.577575
1.581552
1.58592
1.59075
1.59613
1.602177
1.608334
1.614715
1.621512
1.629006
1.565526
1.566563
1.568095
1.570181
1.572899
1.57634
1.58008
1.584165
1.588652
1.593611
1.599132
1.604655
1.610253
1.616028
1.622153
1.564994
1.565977
1.567432
1.569415
1.571994
1.575256
1.578785
1.582621
1.586808
1.591405
1.596481
1.601487
1.606462
1.611467
1.616587
1.564562
1.565498
1.566884
1.568772
1.571226
1.574322
1.577659
1.58127
1.585192
1.589471
1.594165
1.598738
1.60321
1.607612
1.611988
1.564196
1.565089
1.566412
1.568214
1.570552
1.573497
1.57666
1.580069
1.583756
1.587759
1.592124
1.596335
1.600399
1.60433
1.608145
1.563848
1.564701
1.565968
1.567691
1.569925
1.572733
1.57574
1.57897
1.58245
1.586213
1.590297
1.594204
1.597935
1.601491
1.604877
1.563485
1.564303
1.565517
1.567168
1.569308
1.571994
1.574863
1.577934
1.581232
1.584786
1.588629
1.592279
1.595734
1.598988
1.602035
1.563089
1.563874
1.56504
1.566627
1.568681
1.571259
1.574004
1.576935
1.580074
1.583446
1.58708
1.590512
1.593734
1.596738
1.599512
1.580364
1.583473
1.587846
1.593802
1.60175
1.611313
1.578173
1.580873
1.584664
1.589824
1.596713
1.605821
1.615887
1.576203
1.57858
1.581931
1.586466
1.5925
1.600452
1.610011
1.620736
1.574421
1.576541
1.57954
1.583599
1.588959
1.59598
1.604308
1.6144
1.625967
1.572829
1.574737
1.577454
1.581129
1.585969
1.592252
1.599593
1.60834
1.619038
1.631629
1.571447
1.57318
1.57566
1.57902
1.583431
1.58913
1.595679
1.603351
1.612533
1.623864
1.637587
1.570281
1.571865
1.574145
1.577235
1.581284
1.586489
1.5924
1.599202
1.607187
1.616772
1.628679
1.642302
1.569279
1.570736
1.572842
1.5757
1.579437
1.584224
1.589602
1.595715
1.602755
1.611029
1.620979
1.6324
1.645653
1.568391
1.569738
1.571695
1.574351
1.577822
1.582252
1.587187
1.592735
1.599042
1.606311
1.61486
1.624258
1.635096
1.647766
1.567584
1.568837
1.570664
1.573147
1.576387
1.580513
1.585076
1.590159
1.595874
1.602375
1.60987
1.617864
1.626671
1.636857
1.648786
1.56684
1.568011
1.569725
1.572057
1.575098
1.578963
1.58321
1.587906
1.593139
1.599022
1.605715
1.612668
1.620085
1.628264
1.637738
1.566149
1.567247
1.568863
1.571064
1.573933
1.577571
1.581547
1.585915
1.590746
1.596129
1.602181
1.608346
1.614737
1.621547
1.629051
1.565509
1.566545
1.568075
1.57016
1.572876
1.576317
1.580058
1.584145
1.588636
1.593601
1.599132
1.60467
1.610288
1.616089
1.622247
1.564932
1.565913
1.567366
1.569348
1.571929
1.575193
1.578727
1.582569
1.586766
1.591376
1.59647
1.601499
1.606503
1.611546
1.616714
1.564436
1.565369
1.566753
1.568643
1.5711
1.574204
1.57755
1.581173
1.585111
1.58941
1.59413
1.598732
1.603239
1.607682
1.612111
1.564034
1.564925
1.566248
1.568052
1.570395
1.57335
1.576524
1.579947
1.583651
1.587675
1.592066
1.596304
1.600398
1.604363
1.608217
1.563694
1.564546
1.565812
1.567538
1.569776
1.572594
1.575611
1.578853
1.582347
1.586127
1.590231
1.594159
1.597912
1.601491
1.604902
1.56337
1.564187
1.565401
1.567054
1.569197
1.57189
1.574765
1.577845
1.581153
1.584719
1.588574
1.592238
1.595706
1.598973
1.602033
1.56303
1.563814
1.56498
1.566568
1.568624
1.571204
1.573953
1.576888
1.580032
1.583409
1.587049
1.590486
1.593715
1.596724
1.599504
1.562655
1.563409
1.564532
1.56606
1.568037
1.570517
1.573152
1.575959
1.578958
1.58217
1.585622
1.588865
1.591889
1.594683
1.597232
1.578265
1.580964
1.584749
1.589895
1.596759
1.605811
1.615759
1.57637
1.578745
1.582087
1.586604
1.592601
1.600488
1.609927
1.620393
1.574635
1.576753
1.579743
1.583781
1.589104
1.596057
1.604282
1.614187
1.625342
1.573045
1.574952
1.577659
1.581315
1.586119
1.592343
1.599597
1.608211
1.618667
1.63071
1.571609
1.573341
1.575815
1.579161
1.583546
1.589201
1.59569
1.603274
1.612321
1.623409
1.636541
1.570358
1.571942
1.574218
1.577301
1.581338
1.586522
1.592403
1.599164
1.607089
1.616586
1.628336
1.641569
1.569301
1.570757
1.572863
1.575719
1.579453
1.584234
1.589601
1.595699
1.602719
1.610964
1.620876
1.632237
1.645317
1.56839
1.569737
1.571695
1.574352
1.577822
1.582252
1.587185
1.592729
1.599031
1.606293
1.614831
1.624221
1.635052
1.647676
1.56758
1.568833
1.57066
1.573144
1.576385
1.580512
1.585074
1.590158
1.595872
1.602371
1.609864
1.617856
1.626664
1.636856
1.648785
1.56684
1.568011
1.569725
1.572057
1.575098
1.578963
1.58321
1.587906
1.593139
1.599022
1.605715
1.612668
1.620085
1.628264
1.637738
1.566154
1.567252
1.568868
1.571067
1.573935
1.577572
1.581547
1.585915
1.590745
1.596128
1.602182
1.608348
1.614743
1.621555
1.62906
1.565513
1.566547
1.568076
1.570159
1.572874
1.576312
1.580052
1.584139
1.58863
1.593596
1.59913
1.604673
1.6103
1.616111
1.622282
1.564916
1.565896
1.567347
1.569328
1.571907
1.57517
1.578704
1.582547
1.586746
1.59136
1.596461
1.601501
1.60652
1.611582
1.616776
1.564376
1.565307
1.56669
1.568578
1.571036
1.574142
1.577492
1.581119
1.585064
1.589374
1.594107
1.598727
1.603256
1.607728
1.612192
1.563912
1.564799
1.566121
1.567926
1.570272
1.573233
1.576416
1.57985
1.583567
1.587607
1.592019
1.596281
1.600403
1.6044
1.608292
1.563537
1.564387
1.565652
1.567379
1.569623
1.572449
1.575477
1.578731
1.58224
1.586038
1.590164
1.594115
1.597893
1.601499
1.60494
1.563221
1.564035
1.565249
1.566904
1.569052
1.571753
1.574638
1.577728
1.581049
1.58463
1.588504
1.592185
1.595671
1.598957
1.602037
1.562918
1.563701
1.564867
1.566456
1.568515
1.571102
1.573857
1.5768
1.579952
1.58334
1.586992
1.590441
1.593681
1.596701
1.599492
1.562597
1.563351
1.564473
1.566002
1.567981
1.570464
1.573102
1.575913
1.578916
1.582133
1.58559
1.588838
1.591868
1.594666
1.597219
1.562242
1.562967
1.56405
1.565523
1.56743
1.56982
1.572354
1.575047
1.577916
1.580983
1.58427
1.587343
1.590192
1.592803
1.595158
1.57646
1.578835
1.582173
1.586681
1.59266
1.600513
1.609891
1.620225
1.574799
1.576917
1.5799
1.583924
1.58922
1.596127
1.604279
1.614052
1.624919
1.573254
1.575161
1.577863
1.581502
1.586277
1.59245
1.599631
1.60813
1.618382
1.629967
1.571821
1.573553
1.576021
1.579351
1.583708
1.589317
1.59574
1.603229
1.61213
1.622953
1.635472
1.570518
1.572101
1.574374
1.577446
1.581462
1.586612
1.592446
1.599141
1.60697
1.616318
1.627799
1.640398
1.569376
1.570834
1.572938
1.575789
1.579514
1.584278
1.589623
1.595688
1.602663
1.610843
1.620656
1.63185
1.644514
1.568411
1.569759
1.571717
1.574373
1.577841
1.582267
1.587193
1.592725
1.599011
1.60625
1.614757
1.624104
1.634871
1.647311
1.567578
1.568832
1.57066
1.573144
1.576386
1.580513
1.585075
1.590157
1.595867
1.602359
1.609844
1.617825
1.626622
1.636806
1.648686
1.566835
1.568006
1.569721
1.572054
1.575096
1.578962
1.583209
1.587906
1.593138
1.599021
1.605712
1.612662
1.620076
1.628255
1.637736
1.566154
1.567252
1.568868
1.571067
1.573935
1.577572
1.581547
1.585915
1.590745
1.596128
1.602182
1.608348
1.614743
1.621555
1.62906
1.565518
1.566553
1.56808
1.570163
1.572876
1.576313
1.580051
1.584137
1.588628
1.593594
1.599128
1.604673
1.610302
1.616117
1.62229
1.56492
1.565899
1.567349
1.569328
1.571905
1.575166
1.578698
1.582539
1.586738
1.591353
1.596455
1.601498
1.606523
1.611594
1.616798
1.564362
1.565291
1.566673
1.568559
1.571015
1.574119
1.577469
1.581096
1.585042
1.589354
1.594093
1.598719
1.603259
1.607745
1.612229
1.563854
1.56474
1.56606
1.567863
1.57021
1.573173
1.576358
1.579795
1.583518
1.587566
1.591989
1.596264
1.600403
1.604421
1.60834
1.563418
1.564265
1.565529
1.567257
1.569503
1.572335
1.57537
1.578633
1.582154
1.585966
1.59011
1.59408
1.597879
1.601511
1.60498
1.563067
1.56388
1.565093
1.56675
1.568902
1.571611
1.574505
1.577607
1.580941
1.584538
1.588431
1.592132
1.595639
1.598946
1.60205
1.562771
1.563552
1.564719
1.566309
1.568373
1.570967
1.573731
1.576684
1.579848
1.58325
1.586917
1.590383
1.593638
1.596674
1.59948
1.562487
1.56324
1.564362
1.565892
1.567875
1.570363
1.573008
1.575825
1.578836
1.582063
1.585531
1.58879
1.591829
1.594637
1.597199
1.562185
1.56291
1.563992
1.565467
1.567375
1.569768
1.572304
1.575
1.577874
1.580946
1.584237
1.587315
1.590169
1.592784
1.595142
1.561847
1.562546
1.563591
1.565015
1.566856
1.569163
1.571602
1.57419
1.576941
1.579875
1.583011
1.585931
1.588623
1.591072
1.593259
1.574887
1.577005
1.579986
1.584003
1.589286
1.596169
1.604285
1.61399
1.624712
1.573414
1.575322
1.578019
1.581648
1.586402
1.59254
1.599668
1.608089
1.618196
1.629466
1.572026
1.573759
1.576222
1.57954
1.583874
1.589443
1.595811
1.603219
1.611996
1.622595
1.634612
1.570724
1.572309
1.574578
1.577638
1.581632
1.586744
1.592527
1.599151
1.606877
1.616065
1.627257
1.639211
1.569532
1.570991
1.573092
1.575935
1.579644
1.584381
1.589689
1.595703
1.602606
1.610681
1.620332
1.631249
1.643252
1.568485
1.569834
1.571791
1.574444
1.577906
1.582319
1.587228
1.592735
1.598986
1.606176
1.614611
1.623857
1.634452
1.646462
1.567598