/*--------------------------------*- C++ -*----------------------------------*\
| =========                 |                                                 |
| \\      /  F ield         | OpenFOAM: The Open Source CFD Toolbox           |
|  \\    /   O peration     | Version:  2306                                  |
|   \\  /    A nd           | Website:  www.openfoam.com                      |
|    \\/     M anipulation  |                                                 |
\*---------------------------------------------------------------------------*/
FoamFile
{
    version     2.0;
    format      ascii;
    arch        "LSB;label=32;scalar=64";
    class       volScalarField;
    location    "0.9/phiI";
    object      T;
}
// * * * * * * * * * * * * * * * * * * * * * * * * * * * * * * * * * * * * * //

dimensions      [0 0 0 1 0 0 0];

internalField   nonuniform List<scalar> 
12000
(
1108.902
1108.769
1110.508
1108.969
1108.459
1110.498
1108.836
1112.006
1110.566
1109.021
1107.875
1110.475
1108.527
1112.031
1110.557
1108.889
1113.426
1112.057
1110.612
1109.06
1106.869
1110.427
1107.945
1112.086
1110.533
1108.58
1113.462
1112.081
1110.602
1108.927
1114.798
1113.469
1112.095
1110.644
1109.083
1105.348
1110.338
1106.947
1112.184
1110.484
1108.001
1113.542
1112.136
1110.578
1108.619
1114.836
1113.505
1112.12
1110.634
1108.951
1116.128
1114.835
1113.502
1112.121
1110.663
1109.09
1103.595
1110.178
1105.447
1112.341
1110.393
1107.011
1113.686
1112.232
1110.528
1108.042
1114.923
1113.584
1112.174
1110.609
1108.643
1116.166
1114.873
1113.537
1112.146
1110.653
1108.958
1117.416
1116.16
1114.862
1113.522
1112.135
1110.667
1109.096
1101.989
1109.885
1103.72
1112.546
1110.229
1105.53
1113.922
1112.385
1110.434
1107.06
1115.08
1113.727
1112.268
1110.558
1108.068
1116.252
1114.96
1113.616
1112.199
1110.627
1108.65
1117.453
1116.198
1114.9
1113.557
1112.159
1110.656
1108.964
1118.661
1117.443
1116.182
1114.878
1113.531
1112.136
1110.67
1109.102
1100.798
1109.527
1102.137
1112.679
1109.937
1103.828
1114.247
1112.583
1110.266
1105.596
1115.337
1113.959
1112.417
1110.462
1107.093
1116.409
1115.115
1113.757
1112.292
1110.574
1108.077
1117.536
1116.284
1114.986
1113.636
1112.212
1110.63
1108.656
1118.696
1117.48
1116.22
1114.916
1113.566
1112.159
1110.659
1108.97
1119.862
1118.685
1117.462
1116.194
1114.883
1113.529
1112.136
1110.673
1109.108
1100.171
1109.213
1100.963
1112.724
1109.583
1102.269
1114.528
1112.711
1109.975
1103.919
1115.697
1114.275
1112.607
1110.289
1105.647
1116.666
1115.369
1113.984
1112.436
1110.475
1107.107
1117.687
1116.44
1115.14
1113.775
1112.303
1110.575
1108.084
1118.776
1117.564
1116.306
1115.001
1113.644
1112.211
1110.632
1108.663
1119.895
1118.72
1117.499
1116.232
1114.921
1113.563
1112.159
1110.662
1108.975
1121.018
1119.883
1118.7
1117.471
1116.196
1114.877
1113.526
1112.136
1110.676
1109.113
1100.171
1109.032
1100.345
1112.717
1109.275
1101.111
1114.721
1112.755
1109.626
1102.382
1116.026
1114.551
1112.73
1109.998
1103.993
1117.026
1115.72
1114.292
1112.618
1110.298
1105.675
1117.935
1116.693
1115.39
1113.998
1112.442
1110.473
1107.119
1118.92
1117.714
1116.46
1115.154
1113.781
1112.3
1110.576
1108.092
1119.971
1118.8
1117.582
1116.317
1115.005
1113.64
1112.21
1110.634
1108.669
1121.05
1119.917
1118.735
1117.507
1116.233
1114.915
1113.56
1112.159
1110.664
1108.981
1122.13
1121.037
1119.896
1118.707
1117.47
1116.188
1114.872
1113.523
1112.135
1110.678
1109.119
1100.798
1109.032
1100.345
1112.702
1109.097
1100.501
1114.831
1112.749
1109.322
1101.241
1116.271
1114.74
1112.773
1109.654
1102.477
1117.364
1116.043
1114.562
1112.737
1110.007
1104.04
1118.282
1117.046
1115.732
1114.298
1112.616
1110.291
1105.699
1119.156
1117.959
1116.71
1115.399
1114
1112.435
1110.471
1107.132
1120.108
1118.943
1117.731
1116.47
1115.156
1113.776
1112.297
1110.577
1108.1
1121.122
1119.992
1118.815
1117.59
1116.318
1114.999
1113.636
1112.209
1110.635
1108.675
1122.16
1121.069
1119.929
1118.742
1117.506
1116.225
1114.909
1113.557
1112.158
1110.666
1108.987
1123.196
1122.146
1121.048
1119.9
1118.704
1117.46
1116.181
1114.867
1113.52
1112.135
1110.68
1109.129
1101.989
1109.213
1100.963
1112.702
1109.097
1100.501
1114.88
1112.734
1109.148
1100.639
1116.426
1114.85
1112.768
1109.355
1101.351
1117.623
1116.285
1114.748
1112.778
1109.667
1102.543
1118.612
1117.378
1116.05
1114.561
1112.73
1110.001
1104.081
1119.486
1118.299
1117.055
1115.734
1114.29
1112.601
1110.286
1105.723
1120.331
1119.176
1117.972
1116.716
1115.397
1113.989
1112.429
1110.469
1107.145
1121.252
1120.128
1118.957
1117.738
1116.47
1115.148
1113.77
1112.294
1110.577
1108.109
1122.228
1121.141
1120.005
1118.82
1117.588
1116.309
1114.992
1113.632
1112.207
1110.637
1108.682
1123.225
1122.176
1121.079
1119.933
1118.738
1117.496
1116.218
1114.903
1113.553
1112.157
1110.668
1108.998
1124.218
1123.211
1122.155
1121.05
1119.895
1118.692
1117.451
1116.173
1114.861
1113.516
1112.134
1110.687
1109.144
1103.595
1109.527
1102.137
1112.717
1109.275
1101.111
1114.88
1112.734
1109.148
1100.639
1116.5
1114.898
1112.754
1109.184
1100.757
1117.792
1116.438
1114.857
1112.774
1109.373
1101.431
1118.869
1117.633
1116.288
1114.744
1112.77
1109.664
1102.6
1119.802
1118.624
1117.382
1116.045
1114.547
1112.712
1109.996
1104.121
1120.644
1119.5
1118.306
1117.054
1115.724
1114.273
1112.589
1110.28
1105.747
1121.464
1120.349
1119.187
1117.976
1116.712
1115.385
1113.98
1112.422
1110.467
1107.159
1122.352
1121.27
1120.14
1118.962
1117.735
1116.459
1115.14
1113.764
1112.291
1110.577
1108.117
1123.29
1122.245
1121.151
1120.008
1118.817
1117.578
1116.301
1114.986
1113.628
1112.205
1110.638
1108.694
1124.245
1123.24
1122.185
1121.082
1119.928
1118.727
1117.487
1116.21
1114.898
1113.55
1112.156
1110.675
1109.013
1125.195
1124.231
1123.218
1122.156
1121.044
1119.883
1118.682
1117.442
1116.166
1114.855
1113.512
1112.137
1110.698
1109.164
1105.348
1109.885
1103.72
1112.724
1109.583
1102.269
1114.831
1112.749
1109.322
1101.241
1116.5
1114.898
1112.754
1109.184
1100.757
1117.874
1116.511
1114.905
1112.761
1109.204
1100.844
1119.037
1117.8
1116.439
1114.852
1112.766
1109.374
1101.499
1120.049
1118.877
1117.634
1116.28
1114.728
1112.75
1109.661
1102.655
1120.944
1119.811
1118.626
1117.375
1116.029
1114.524
1112.695
1109.99
1104.16
1121.76
1120.656
1119.505
1118.303
1117.042
1115.704
1114.257
1112.576
1110.275
1105.771
1122.553
1121.48
1120.358
1119.189
1117.97
1116.698
1115.374
1113.971
1112.415
1110.464
1107.173
1123.408
1122.368
1121.279
1120.142
1118.957
1117.723
1116.45
1115.132
1113.758
1112.287
1110.577
1108.131
1124.308
1123.305
1122.253
1121.153
1120.003
1118.804
1117.568
1116.293
1114.979
1113.623
1112.203
1110.644
1108.71
1125.222
1124.259
1123.247
1122.186
1121.075
1119.915
1118.716
1117.478
1116.202
1114.891
1113.545
1112.158
1110.685
1109.033
1126.129
1125.207
1124.237
1123.218
1122.149
1121.03
1119.872
1118.672
1117.433
1116.158
1114.849
1113.512
1112.144
1110.713
1109.188
1106.869
1110.178
1105.447
1112.679
1109.937
1103.828
1114.721
1112.755
1109.626
1102.382
1116.426
1114.85
1112.768
1109.355
1101.351
1117.874
1116.511
1114.905
1112.761
1109.204
1100.844
1119.12
1117.882
1116.512
1114.9
1112.754
1109.208
1100.917
1120.213
1119.044
1117.799
1116.43
1114.834
1112.747
1109.375
1101.565
1121.18
1120.055
1118.876
1117.624
1116.26
1114.702
1112.733
1109.658
1102.709
1122.045
1120.952
1119.812
1118.618
1117.357
1116.004
1114.504
1112.679
1109.984
1104.199
1122.834
1121.771
1120.66
1119.501
1118.29
1117.022
1115.687
1114.242
1112.564
1110.269
1105.795
1123.6
1122.567
1121.487
1120.358
1119.181
1117.954
1116.686
1115.363
1113.961
1112.408
1110.462
1107.192
1124.421
1123.423
1122.376
1121.28
1120.136
1118.943
1117.712
1116.44
1115.124
1113.752
1112.283
1110.582
1108.151
1125.282
1124.321
1123.312
1122.254
1121.146
1119.99
1118.794
1117.558
1116.285
1114.973
1113.618
1112.205
1110.654
1108.731
1126.155
1125.234
1124.265
1123.247
1122.179
1121.062
1119.904
1118.706
1117.469
1116.194
1114.885
1113.545
1112.165
1110.7
1109.058
1127.021
1126.14
1125.213
1124.236
1123.21
1122.135
1121.019
1119.86
1118.661
1117.424
1116.149
1114.846
1113.516
1112.155
1110.732
1107.875
1110.338
1106.947
1112.546
1110.229
1105.53
1114.528
1112.711
1109.975
1103.919
1116.271
1114.74
1112.773
1109.654
1102.477
1117.792
1116.438
1114.857
1112.774
1109.373
1101.431
1119.12
1117.882
1116.512
1114.9
1112.754
1109.208
1100.917
1120.294
1119.127
1117.88
1116.502
1114.882
1112.735
1109.211
1100.989
1121.338
1120.218
1119.041
1117.787
1116.408
1114.807
1112.73
1109.375
1101.629
1122.27
1121.186
1120.053
1118.865
1117.603
1116.232
1114.679
1112.716
1109.655
1102.761
1123.106
1122.052
1120.952
1119.803
1118.599
1117.332
1115.982
1114.484
1112.663
1109.978
1104.237
1123.868
1122.844
1121.773
1120.655
1119.487
1118.269
1117.004
1115.67
1114.226
1112.551
1110.263
1105.824
1124.605
1123.613
1122.573
1121.486
1120.349
1119.165
1117.941
1116.673
1115.351
1113.951
1112.401
1110.464
1107.217
1125.391
1124.434
1123.429
1122.376
1121.273
1120.122
1118.931
1117.701
1116.43
1115.115
1113.745
1112.283
1110.591
1108.175
1126.213
1125.294
1124.327
1123.312
1122.246
1121.132
1119.978
1118.783
1117.548
1116.276
1114.965
1113.617
1112.211
1110.668
1108.758
1127.045
1126.166
1125.239
1124.264
1123.238
1122.164
1121.05
1119.893
1118.695
1117.459
1116.185
1114.881
1113.548
1112.176
1110.719
1127.87
1127.031
1126.145
1125.211
1124.227
1123.195
1122.122
1121.007
1119.849
1118.651
1117.414
1116.144
1114.846
1113.524
1112.17
1108.459
1110.427
1107.945
1112.341
1110.393
1107.011
1114.247
1112.583
1110.266
1105.596
1116.026
1114.551
1112.73
1109.998
1103.993
1117.623
1116.285
1114.748
1112.778
1109.667
1102.543
1119.037
1117.8
1116.439
1114.852
1112.766
1109.374
1101.499
1120.294
1119.127
1117.88
1116.502
1114.882
1112.735
1109.211
1100.989
1121.416
1120.299
1119.123
1117.867
1116.48
1114.855
1112.718
1109.213
1101.06
1122.421
1121.342
1120.215
1119.029
1117.765
1116.379
1114.784
1112.713
1109.374
1101.693
1123.321
1122.275
1121.183
1120.042
1118.843
1117.574
1116.208
1114.657
1112.698
1109.651
1102.813
1124.127
1123.112
1122.051
1120.943
1119.785
1118.574
1117.31
1115.961
1114.464
1112.646
1109.972
1104.28
1124.86
1123.877
1122.846
1121.768
1120.641
1119.466
1118.251
1116.986
1115.653
1114.21
1112.537
1110.262
1105.858
1125.567
1124.616
1123.618
1122.571
1121.476
1120.333
1119.151
1117.927
1116.66
1115.339
1113.94
1112.397
1110.471
1107.247
1126.317
1125.402
1124.439
1123.428
1122.367
1121.258
1120.109
1118.919
1117.69
1116.42
1115.106
1113.741
1112.287
1110.604
1108.204
1127.101
1126.224
1125.299
1124.326
1123.303
1122.232
1121.12
1119.966
1118.772
1117.538
1116.266
1114.961
1113.619
1112.221
1110.687
1127.894
1127.056
1126.17
1125.237
1124.255
1123.224
1122.152
1121.038
1119.881
1118.685
1117.449
1116.18
1114.882
1113.555
1112.191
1128.678
1127.879
1127.034
1126.142
1125.201
1124.212
1123.183
1122.11
1120.995
1119.838
1118.639
1117.406
1116.142
1114.851
1113.535
1108.769
1110.475
1108.527
1112.184
1110.484
1108.001
1113.922
1112.385
1110.434
1107.06
1115.697
1114.275
1112.607
1110.289
1105.647
1117.364
1116.043
1114.562
1112.737
1110.007
1104.04
1118.869
1117.633
1116.288
1114.744
1112.77
1109.664
1102.6
1120.213
1119.044
1117.799
1116.43
1114.834
1112.747
1109.375
1101.565
1121.416
1120.299
1119.123
1117.867
1116.48
1114.855
1112.718
1109.213
1101.06
1122.496
1121.42
1120.295
1119.11
1117.844
1116.45
1114.832
1112.701
1109.214
1101.129
1123.465
1122.425
1121.338
1120.202
1119.006
1117.735
1116.354
1114.761
1112.695
1109.374
1101.755
1124.332
1123.325
1122.272
1121.172
1120.021
1118.815
1117.55
1116.184
1114.634
1112.681
1109.647
1102.87
1125.108
1124.133
1123.111
1122.042
1120.925
1119.76
1118.552
1117.288
1115.939
1114.443
1112.629
1109.97
1104.327
1125.812
1124.868
1123.878
1122.839
1121.753
1120.62
1119.448
1118.233
1116.968
1115.636
1114.193
1112.528
1110.265
1105.897
1126.487
1125.577
1124.62
1123.615
1122.56
1121.459
1120.318
1119.136
1117.913
1116.647
1115.326
1113.933
1112.397
1110.482
1107.282
1127.202
1126.328
1125.407
1124.437
1123.419
1122.352
1121.245
1120.096
1118.907
1117.678
1116.409
1115.1
1113.742
1112.295
1110.621
1127.948
1127.111
1126.228
1125.297
1124.317
1123.288
1122.219
1121.107
1119.954
1118.76
1117.527
1116.26
1114.96
1113.625
1112.235
1128.701
1127.903
1127.059
1126.168
1125.228
1124.24
1123.211
1122.14
1121.025
1119.87
1118.673
1117.441
1116.178
1114.886
1113.566
1129.445
1128.686
1127.882
1127.031
1126.133
1125.186
1124.2
1123.17
1122.097
1120.982
1119.825
1118.631
1117.402
1116.144
1114.859
1108.902
1110.498
1108.836
1112.086
1110.533
1108.58
1113.686
1112.232
1110.528
1108.042
1115.337
1113.959
1112.417
1110.462
1107.093
1117.026
1115.72
1114.292
1112.618
1110.298
1105.675
1118.612
1117.378
1116.05
1114.561
1112.73
1110.001
1104.081
1120.049
1118.877
1117.634
1116.28
1114.728
1112.75
1109.661
1102.655
1121.338
1120.218
1119.041
1117.787
1116.408
1114.807
1112.73
1109.375
1101.629
1122.496
1121.42
1120.295
1119.11
1117.844
1116.45
1114.832
1112.701
1109.214
1101.129
1123.536
1122.499
1121.415
1120.281
1119.087
1117.814
1116.424
1114.808
1112.684
1109.216
1101.196
1124.47
1123.468
1122.42
1121.325
1120.179
1118.977
1117.709
1116.328
1114.737
1112.678
1109.372
1101.822
1125.305
1124.336
1123.322
1122.26
1121.151
1119.993
1118.791
1117.525
1116.16
1114.612
1112.662
1109.647
1102.93
1126.05
1125.113
1124.131
1123.101
1122.024
1120.9
1119.738
1118.53
1117.266
1115.917
1114.422
1112.615
1109.972
1104.378
1126.722
1125.819
1124.868
1123.871
1122.825
1121.732
1120.601
1119.43
1118.214
1116.95
1115.617
1114.18
1112.522
1110.272
1105.941
1127.366
1126.496
1125.58
1124.616
1123.603
1122.543
1121.444
1120.303
1119.122
1117.899
1116.632
1115.316
1113.93
1112.402
1110.497
1128.045
1127.212
1126.332
1125.404
1124.427
1123.403
1122.338
1121.231
1120.083
1118.895
1117.666
1116.4
1115.097
1113.746
1112.307
1128.753
1127.957
1127.115
1126.225
1125.287
1124.302
1123.275
1122.206
1121.095
1119.942
1118.748
1117.519
1116.257
1114.963
1113.635
1129.467
1128.709
1127.906
1127.056
1126.158
1125.213
1124.227
1123.198
1122.127
1121.013
1119.857
1118.664
1117.437
1116.179
1114.893
1130.172
1129.453
1128.689
1127.879
1127.021
1126.118
1125.173
1124.187
1123.157
1122.085
1120.969
1119.815
1118.625
1117.402
1116.149
1110.508
1108.969
1112.031
1110.557
1108.889
1113.542
1112.136
1110.578
1108.619
1115.08
1113.727
1112.268
1110.558
1108.068
1116.666
1115.369
1113.984
1112.436
1110.475
1107.107
1118.282
1117.046
1115.732
1114.298
1112.616
1110.291
1105.699
1119.802
1118.624
1117.382
1116.045
1114.547
1112.712
1109.996
1104.121
1121.18
1120.055
1118.876
1117.624
1116.26
1114.702
1112.733
1109.658
1102.709
1122.421
1121.342
1120.215
1119.029
1117.765
1116.379
1114.784
1112.713
1109.374
1101.693
1123.536
1122.499
1121.415
1120.281
1119.087
1117.814
1116.424
1114.808
1112.684
1109.216
1101.196
1124.539
1123.539
1122.494
1121.402
1120.258
1119.057
1117.788
1116.398
1114.784
1112.667
1109.216
1101.268
1125.438
1124.474
1123.464
1122.408
1121.304
1120.151
1118.951
1117.683
1116.303
1114.714
1112.659
1109.375
1101.892
1126.239
1125.309
1124.333
1123.31
1122.24
1121.124
1119.97
1118.767
1117.501
1116.135
1114.588
1112.647
1109.652
1102.994
1126.951
1126.054
1125.111
1124.121
1123.083
1121.999
1120.879
1119.716
1118.508
1117.244
1115.894
1114.404
1112.606
1109.979
1104.434
1127.593
1126.729
1125.819
1124.861
1123.856
1122.804
1121.714
1120.583
1119.411
1118.196
1116.93
1115.602
1114.17
1112.521
1110.284
1128.203
1127.374
1126.499
1125.576
1124.605
1123.586
1122.528
1121.428
1120.288
1119.107
1117.884
1116.621
1115.31
1113.93
1112.41
1128.848
1128.054
1127.215
1126.329
1125.394
1124.412
1123.389
1122.324
1121.218
1120.07
1118.881
1117.656
1116.396
1115.099
1113.754
1129.518
1128.762
1127.96
1127.112
1126.215
1125.272
1124.288
1123.262
1122.193
1121.082
1119.929
1118.738
1117.514
1116.257
1114.97
1130.194
1129.475
1128.712
1127.903
1127.046
1126.143
1125.2
1124.214
1123.185
1122.114
1121
1119.847
1118.658
1117.436
1116.184
1130.86
1130.18
1129.455
1128.685
1127.869
1127.006
1126.104
1125.16
1124.173
1123.144
1122.071
1120.958
1119.808
1118.623
1117.405
1112.006
1110.566
1109.021
1113.462
1112.081
1110.602
1108.927
1114.923
1113.584
1112.174
1110.609
1108.643
1116.409
1115.115
1113.757
1112.292
1110.574
1108.077
1117.935
1116.693
1115.39
1113.998
1112.442
1110.473
1107.119
1119.486
1118.299
1117.055
1115.734
1114.29
1112.601
1110.286
1105.723
1120.944
1119.811
1118.626
1117.375
1116.029
1114.524
1112.695
1109.99
1104.16
1122.27
1121.186
1120.053
1118.865
1117.603
1116.232
1114.679
1112.716
1109.655
1102.761
1123.465
1122.425
1121.338
1120.202
1119.006
1117.735
1116.354
1114.761
1112.695
1109.374
1101.755
1124.539
1123.539
1122.494
1121.402
1120.258
1119.057
1117.788
1116.398
1114.784
1112.667
1109.216
1101.268
1125.504
1124.542
1123.535
1122.481
1121.38
1120.229
1119.031
1117.761
1116.373
1114.76
1112.649
1109.221
1101.344
1126.367
1125.441
1124.469
1123.451
1122.386
1121.276
1120.126
1118.926
1117.658
1116.277
1114.689
1112.644
1109.383
1101.966
1127.134
1126.242
1125.305
1124.321
1123.29
1122.214
1121.101
1119.946
1118.743
1117.476
1116.11
1114.567
1112.637
1109.661
1103.063
1127.814
1126.956
1126.052
1125.101
1124.103
1123.059
1121.979
1120.857
1119.694
1118.486
1117.22
1115.874
1114.39
1112.601
1109.991
1128.423
1127.598
1126.728
1125.811
1124.846
1123.835
1122.786
1121.695
1120.564
1119.392
1118.176
1116.914
1115.59
1114.165
1112.524
1129.001
1128.211
1127.376
1126.494
1125.564
1124.587
1123.571
1122.513
1121.413
1120.273
1119.091
1117.871
1116.613
1115.308
1113.934
1129.61
1128.856
1128.057
1127.211
1126.318
1125.378
1124.398
1123.375
1122.31
1121.204
1120.055
1118.87
1117.649
1116.395
1115.103
1130.244
1129.526
1128.764
1127.956
1127.102
1126.2
1125.259
1124.275
1123.248
1122.18
1121.068
1119.918
1118.732
1117.512
1116.261
1130.882
1130.202
1129.477
1128.708
1127.892
1127.031
1126.13
1125.186
1124.201
1123.172
1122.1
1120.988
1119.839
1118.655
1117.439
1131.51
1130.867
1130.181
1129.451
1128.675
1127.854
1126.993
1126.091
1125.147
1124.16
1123.13
1122.059
1120.95
1119.804
1118.624
1113.426
1112.057
1110.612
1109.06
1114.836
1113.505
1112.12
1110.634
1108.951
1116.252
1114.96
1113.616
1112.199
1110.627
1108.65
1117.687
1116.44
1115.14
1113.775
1112.303
1110.575
1108.084
1119.156
1117.959
1116.71
1115.399
1114
1112.435
1110.471
1107.132
1120.644
1119.5
1118.306
1117.054
1115.724
1114.273
1112.589
1110.28
1105.747
1122.045
1120.952
1119.812
1118.618
1117.357
1116.004
1114.504
1112.679
1109.984
1104.199
1123.321
1122.275
1121.183
1120.042
1118.843
1117.574
1116.208
1114.657
1112.698
1109.651
1102.813
1124.47
1123.468
1122.42
1121.325
1120.179
1118.977
1117.709
1116.328
1114.737
1112.678
1109.372
1101.822
1125.504
1124.542
1123.535
1122.481
1121.38
1120.229
1119.031
1117.761
1116.373
1114.76
1112.649
1109.221
1101.344
1126.431
1125.506
1124.537
1123.522
1122.459
1121.351
1120.204
1119.005
1117.735
1116.347
1114.735
1112.635
1109.23
1101.423
1127.258
1126.369
1125.436
1124.457
1123.43
1122.359
1121.252
1120.101
1118.901
1117.632
1116.251
1114.667
1112.634
1109.395
1102.044
1127.99
1127.137
1126.238
1125.294
1124.302
1123.265
1122.192
1121.078
1119.922
1118.718
1117.45
1116.087
1114.551
1112.631
1109.675
1128.637
1127.817
1126.953
1126.042
1125.084
1124.08
1123.039
1121.958
1120.836
1119.673
1118.462
1117.199
1115.858
1114.38
1112.601
1129.213
1128.428
1127.598
1126.721
1125.797
1124.826
1123.817
1122.768
1121.677
1120.546
1119.372
1118.159
1116.901
1115.582
1114.163
1129.759
1129.008
1128.213
1127.371
1126.482
1125.547
1124.572
1123.555
1122.497
1121.397
1120.256
1119.077
1117.862
1116.608
1115.309
1130.333
1129.618
1128.858
1128.053
1127.201
1126.302
1125.364
1124.384
1123.361
1122.296
1121.189
1120.043
1118.862
1117.646
1116.397
1130.93
1130.251
1129.528
1128.76
1127.946
1127.086
1126.187
1125.245
1124.261
1123.235
1122.165
1121.056
1119.91
1118.728
1117.514
1131.531
1130.889
1130.203
1129.474
1128.698
1127.877
1127.018
1126.116
1125.173
1124.187
1123.158
1122.088
1120.98
1119.835
1118.656
1132.122
1131.517
1130.869
1130.177
1129.441
1128.66
1127.841
1126.98
1126.078
1125.134
1124.146
1123.117
1122.05
1120.945
1119.804
1114.798
1113.469
1112.095
1110.644
1109.083
1116.166
1114.873
1113.537
1112.146
1110.653
1108.958
1117.536
1116.284
1114.986
1113.636
1112.212
1110.63
1108.656
1118.92
1117.714
1116.46
1115.154
1113.781
1112.3
1110.576
1108.092
1120.331
1119.176
1117.972
1116.716
1115.397
1113.989
1112.429
1110.469
1107.145
1121.76
1120.656
1119.505
1118.303
1117.042
1115.704
1114.257
1112.576
1110.275
1105.771
1123.106
1122.052
1120.952
1119.803
1118.599
1117.332
1115.982
1114.484
1112.663
1109.978
1104.237
1124.332
1123.325
1122.272
1121.172
1120.021
1118.815
1117.55
1116.184
1114.634
1112.681
1109.647
1102.87
1125.438
1124.474
1123.464
1122.408
1121.304
1120.151
1118.951
1117.683
1116.303
1114.714
1112.659
1109.375
1101.892
1126.431
1125.506
1124.537
1123.522
1122.459
1121.351
1120.204
1119.005
1117.735
1116.347
1114.735
1112.635
1109.23
1101.423
1127.319
1126.433
1125.502
1124.524
1123.5
1122.432
1121.327
1120.179
1118.979
1117.709
1116.319
1114.714
1112.624
1109.244
1101.507
1128.11
1127.26
1126.365
1125.424
1124.436
1123.404
1122.336
1121.228
1120.076
1118.875
1117.604
1116.226
1114.65
1112.628
1109.411
1128.808
1127.993
1127.133
1126.227
1125.275
1124.277
1123.243
1122.169
1121.055
1119.899
1118.693
1117.427
1116.068
1114.539
1112.629
1129.421
1128.64
1127.815
1126.943
1126.025
1125.061
1124.06
1123.019
1121.937
1120.815
1119.649
1118.441
1117.182
1115.846
1114.374
1129.965
1129.218
1128.427
1127.59
1126.706
1125.777
1124.809
1123.799
1122.749
1121.658
1120.525
1119.354
1118.145
1116.891
1115.578
1130.478
1129.766
1129.01
1128.208
1127.359
1126.465
1125.532
1124.557
1123.54
1122.481
1121.38
1120.241
1119.066
1117.856
1116.607
1131.017
1130.34
1129.62
1128.854
1128.042
1127.185
1126.288
1125.35
1124.369
1123.347
1122.281
1121.176
1120.034
1118.857
1117.646
1131.578
1130.937
1130.253
1129.524
1128.75
1127.931
1127.073
1126.173
1125.231
1124.248
1123.22
1122.153
1121.047
1119.905
1118.728
1132.142
1131.538
1130.89
1130.199
1129.463
1128.683
1127.864
1127.005
1126.103
1125.16
1124.172
1123.145
1122.079
1120.975
1119.835
1132.697
1132.128
1131.518
1130.865
1130.167
1129.426
1128.647
1127.828
1126.967
1126.065
1125.119
1124.133
1123.108
1122.044
1120.943
1116.128
1114.835
1113.502
1112.121
1110.663
1109.09
1117.453
1116.198
1114.9
1113.557
1112.159
1110.656
1108.964
1118.776
1117.564
1116.306
1115.001
1113.644
1112.211
1110.632
1108.663
1120.108
1118.943
1117.731
1116.47
1115.156
1113.776
1112.297
1110.577
1108.1
1121.464
1120.349
1119.187
1117.976
1116.712
1115.385
1113.98
1112.422
1110.467
1107.159
1122.834
1121.771
1120.66
1119.501
1118.29
1117.022
1115.687
1114.242
1112.564
1110.269
1105.795
1124.127
1123.112
1122.051
1120.943
1119.785
1118.574
1117.31
1115.961
1114.464
1112.646
1109.972
1104.28
1125.305
1124.336
1123.322
1122.26
1121.151
1119.993
1118.791
1117.525
1116.16
1114.612
1112.662
1109.647
1102.93
1126.367
1125.441
1124.469
1123.451
1122.386
1121.276
1120.126
1118.926
1117.658
1116.277
1114.689
1112.644
1109.383
1101.966
1127.319
1126.433
1125.502
1124.524
1123.5
1122.432
1121.327
1120.179
1118.979
1117.709
1116.319
1114.714
1112.624
1109.244
1101.507
1128.17
1127.321
1126.428
1125.489
1124.504
1123.474
1122.408
1121.303
1120.153
1118.953
1117.681
1116.294
1114.696
1112.618
1109.262
1128.924
1128.112
1127.255
1126.353
1125.404
1124.411
1123.382
1122.313
1121.204
1120.052
1118.848
1117.58
1116.206
1114.637
1112.626
1129.587
1128.81
1127.989
1127.122
1126.209
1125.251
1124.256
1123.221
1122.147
1121.032
1119.873
1118.669
1117.407
1116.053
1114.53
1130.167
1129.424
1128.637
1127.805
1126.926
1126.003
1125.042
1124.04
1122.998
1121.916
1120.792
1119.628
1118.424
1117.169
1115.838
1130.678
1129.97
1129.217
1128.42
1127.576
1126.687
1125.759
1124.791
1123.781
1122.731
1121.638
1120.507
1119.34
1118.134
1116.886
1131.158
1130.484
1129.767
1129.004
1128.196
1127.342
1126.45
1125.516
1124.541
1123.524
1122.464
1121.365
1120.23
1119.059
1117.853
1131.663
1131.024
1130.342
1129.615
1128.843
1128.026
1127.171
1126.274
1125.336
1124.355
1123.331
1122.267
1121.166
1120.028
1118.856
1132.189
1131.585
1130.939
1130.249
1129.514
1128.735
1127.918
1127.059
1126.159
1125.218
1124.232
1123.207
1122.143
1121.041
1119.904
1132.717
1132.149
1131.539
1130.886
1130.189
1129.449
1128.67
1127.851
1126.991
1126.09
1125.145
1124.16
1123.135
1122.073
1120.973
1133.235
1132.703
1132.129
1131.514
1130.855
1130.153
1129.413
1128.634
1127.814
1126.954
1126.05
1125.106
1124.123
1123.101
1122.042
1117.416
1116.16
1114.862
1113.522
1112.135
1110.667
1109.096
1118.696
1117.48
1116.22
1114.916
1113.566
1112.159
1110.659
1108.97
1119.971
1118.8
1117.582
1116.317
1115.005
1113.64
1112.21
1110.634
1108.669
1121.252
1120.128
1118.957
1117.738
1116.47
1115.148
1113.77
1112.294
1110.577
1108.109
1122.553
1121.48
1120.358
1119.189
1117.97
1116.698
1115.374
1113.971
1112.415
1110.464
1107.173
1123.868
1122.844
1121.773
1120.655
1119.487
1118.269
1117.004
1115.67
1114.226
1112.551
1110.263
1105.824
1125.108
1124.133
1123.111
1122.042
1120.925
1119.76
1118.552
1117.288
1115.939
1114.443
1112.629
1109.97
1104.327
1126.239
1125.309
1124.333
1123.31
1122.24
1121.124
1119.97
1118.767
1117.501
1116.135
1114.588
1112.647
1109.652
1102.994
1127.258
1126.369
1125.436
1124.457
1123.43
1122.359
1121.252
1120.101
1118.901
1117.632
1116.251
1114.667
1112.634
1109.395
1102.044
1128.17
1127.321
1126.428
1125.489
1124.504
1123.474
1122.408
1121.303
1120.153
1118.953
1117.681
1116.294
1114.696
1112.618
1109.262
1128.982
1128.171
1127.316
1126.416
1125.469
1124.478
1123.451
1122.385
1121.278
1120.128
1118.926
1117.655
1116.274
1114.682
1112.617
1129.7
1128.926
1128.107
1127.244
1126.334
1125.38
1124.389
1123.359
1122.29
1121.18
1120.025
1118.823
1117.558
1116.19
1114.627
1130.329
1129.59
1128.806
1127.978
1127.104
1126.186
1125.23
1124.235
1123.2
1122.124
1121.007
1119.85
1118.649
1117.391
1116.042
1130.875
1130.17
1129.421
1128.628
1127.789
1126.905
1125.984
1125.022
1124.02
1122.978
1121.893
1120.771
1119.611
1118.41
1117.159
1131.354
1130.683
1129.968
1129.21
1128.405
1127.556
1126.67
1125.742
1124.773
1123.763
1122.711
1121.62
1120.493
1119.329
1118.128
1131.801
1131.164
1130.485
1129.761
1128.992
1128.179
1127.327
1126.435
1125.501
1124.525
1123.507
1122.449
1121.353
1120.222
1119.055
1132.272
1131.67
1131.025
1130.337
1129.604
1128.828
1128.013
1127.157
1126.26
1125.321
1124.339
1123.317
1122.257
1121.159
1120.026
1132.762
1132.195
1131.586
1130.934
1130.238
1129.499
1128.722
1127.904
1127.046
1126.146
1125.202
1124.219
1123.197
1122.136
1121.039
1133.254
1132.723
1132.15
1131.534
1130.876
1130.174
1129.436
1128.657
1127.838
1126.978
1126.075
1125.132
1124.149
1123.129
1122.07
1133.736
1133.24
1132.703
1132.125
1131.504
1130.84
1130.14
1129.401
1128.621
1127.801
1126.939
1126.037
1125.096
1124.116
1123.098
1118.661
1117.443
1116.182
1114.878
1113.531
1112.136
1110.67
1109.102
1119.895
1118.72
1117.499
1116.232
1114.921
1113.563
1112.159
1110.662
1108.975
1121.122
1119.992
1118.815
1117.59
1116.318
1114.999
1113.636
1112.209
1110.635
1108.675
1122.352
1121.27
1120.14
1118.962
1117.735
1116.459
1115.14
1113.764
1112.291
1110.577
1108.117
1123.6
1122.567
1121.487
1120.358
1119.181
1117.954
1116.686
1115.363
1113.961
1112.408
1110.462
1107.192
1124.86
1123.877
1122.846
1121.768
1120.641
1119.466
1118.251
1116.986
1115.653
1114.21
1112.537
1110.262
1105.858
1126.05
1125.113
1124.131
1123.101
1122.024
1120.9
1119.738
1118.53
1117.266
1115.917
1114.422
1112.615
1109.972
1104.378
1127.134
1126.242
1125.305
1124.321
1123.29
1122.214
1121.101
1119.946
1118.743
1117.476
1116.11
1114.567
1112.637
1109.661
1103.063
1128.11
1127.26
1126.365
1125.424
1124.436
1123.404
1122.336
1121.228
1120.076
1118.875
1117.604
1116.226
1114.65
1112.628
1109.411
1128.982
1128.171
1127.316
1126.416
1125.469
1124.478
1123.451
1122.385
1121.278
1120.128
1118.926
1117.655
1116.274
1114.682
1112.617
1129.757
1128.984
1128.167
1127.305
1126.397
1125.444
1124.456
1123.428
1122.361
1121.254
1120.101
1118.9
1117.634
1116.257
1114.673
1130.439
1129.702
1128.921
1128.096
1127.225
1126.31
1125.359
1124.368
1123.337
1122.266
1121.154
1120.001
1118.802
1117.541
1116.178
1131.033
1130.331
1129.586
1128.796
1127.961
1127.082
1126.166
1125.21
1124.214
1123.178
1122.1
1120.984
1119.83
1118.633
1117.379
1131.545
1130.878
1130.167
1129.412
1128.612
1127.768
1126.887
1125.965
1125.003
1124
1122.956
1121.872
1120.753
1119.596
1118.4
1131.992
1131.358
1130.681
1129.961
1129.196
1128.386
1127.54
1126.653
1125.724
1124.755
1123.744
1122.693
1121.605
1120.481
1119.321
1132.406
1131.807
1131.165
1130.479
1129.749
1128.976
1128.164
1127.312
1126.419
1125.485
1124.508
1123.491
1122.436
1121.344
1120.217
1132.843
1132.278
1131.671
1131.021
1130.327
1129.589
1128.814
1127.999
1127.143
1126.245
1125.305
1124.325
1123.306
1122.249
1121.155
1133.299
1132.768
1132.196
1131.582
1130.924
1130.224
1129.486
1128.709
1127.891
1127.032
1126.13
1125.189
1124.209
1123.19
1122.133
1133.756
1133.26
1132.724
1132.145
1131.524
1130.861
1130.162
1129.423
1128.644
1127.825
1126.963
1126.061
1125.121
1124.142
1123.125
1134.203
1133.742
1133.241
1132.699
1132.115
1131.49
1130.828
1130.127
1129.388
1128.608
1127.787
1126.926
1126.026
1125.088
1124.112
1119.862
1118.685
1117.462
1116.194
1114.883
1113.529
1112.136
1110.673
1109.108
1121.05
1119.917
1118.735
1117.507
1116.233
1114.915
1113.56
1112.159
1110.664
1108.981
1122.228
1121.141
1120.005
1118.82
1117.588
1116.309
1114.992
1113.632
1112.207
1110.637
1108.682
1123.408
1122.368
1121.279
1120.142
1118.957
1117.723
1116.45
1115.132
1113.758
1112.287
1110.577
1108.131
1124.605
1123.613
1122.573
1121.486
1120.349
1119.165
1117.941
1116.673
1115.351
1113.951
1112.401
1110.464
1107.217
1125.812
1124.868
1123.878
1122.839
1121.753
1120.62
1119.448
1118.233
1116.968
1115.636
1114.193
1112.528
1110.265
1105.897
1126.951
1126.054
1125.111
1124.121
1123.083