/*--------------------------------*- C++ -*----------------------------------*\
| =========                 |                                                 |
| \\      /  F ield         | OpenFOAM: The Open Source CFD Toolbox           |
|  \\    /   O peration     | Version:  2306                                  |
|   \\  /    A nd           | Website:  www.openfoam.com                      |
|    \\/     M anipulation  |                                                 |
\*---------------------------------------------------------------------------*/
FoamFile
{
    version     2.0;
    format      ascii;
    arch        "LSB;label=32;scalar=64";
    class       volScalarField;
    location    "1.2/interconnect";
    object      T;
}
// * * * * * * * * * * * * * * * * * * * * * * * * * * * * * * * * * * * * * //

dimensions      [0 0 0 1 0 0 0];

internalField   nonuniform List<scalar> 
16000
(
1111.17
1111.168
1112.711
1111.116
1111.165
1112.71
1111.113
1114.801
1112.693
1111.009
1111.16
1112.709
1111.109
1114.8
1112.692
1111.005
1117.005
1114.799
1112.657
1110.853
1111.154
1112.707
1111.102
1114.799
1112.69
1110.997
1117.004
1114.798
1112.655
1110.845
1119.157
1117.01
1114.797
1112.608
1110.657
1111.148
1112.704
1111.094
1114.797
1112.687
1110.985
1117.003
1114.796
1112.652
1110.831
1119.156
1117.009
1114.796
1112.606
1110.643
1121.195
1119.164
1117.021
1114.797
1112.551
1110.496
1111.142
1112.701
1111.085
1114.795
1112.683
1110.972
1117.001
1114.794
1112.648
1110.811
1119.155
1117.007
1114.793
1112.601
1110.616
1121.194
1119.163
1117.02
1114.795
1112.547
1110.472
1123.104
1121.203
1119.179
1117.041
1114.804
1112.511
1110.392
1111.137
1112.699
1111.076
1114.792
1112.679
1110.957
1116.999
1114.791
1112.643
1110.788
1119.153
1117.005
1114.789
1112.594
1110.579
1121.193
1119.161
1117.017
1114.791
1112.54
1110.424
1123.104
1121.202
1119.178
1117.038
1114.801
1112.504
1110.361
1124.885
1123.111
1121.219
1119.205
1117.072
1114.819
1112.487
1110.298
1111.133
1112.696
1111.069
1114.79
1112.676
1110.942
1116.997
1114.787
1112.637
1110.764
1119.151
1117.002
1114.784
1112.586
1110.54
1121.192
1119.159
1117.013
1114.784
1112.53
1110.354
1123.102
1121.2
1119.175
1117.034
1114.795
1112.491
1110.299
1124.884
1123.111
1121.218
1119.203
1117.069
1114.815
1112.478
1110.261
1126.546
1124.892
1123.127
1121.246
1119.244
1117.107
1114.832
1112.469
1110.219
1111.131
1112.694
1111.063
1114.788
1112.672
1110.929
1116.994
1114.784
1112.631
1110.735
1119.148
1116.998
1114.778
1112.577
1110.512
1121.19
1119.156
1117.007
1114.776
1112.519
1110.265
1123.101
1121.198
1119.171
1117.027
1114.785
1112.474
1110.202
1124.884
1123.109
1121.215
1119.199
1117.063
1114.808
1112.461
1110.185
1126.545
1124.891
1123.126
1121.244
1119.241
1117.105
1114.828
1112.459
1110.177
1128.096
1126.552
1124.906
1123.152
1121.285
1119.285
1117.135
1114.85
1112.46
1110.16
1111.131
1112.694
1111.06
1114.786
1112.67
1110.919
1116.992
1114.781
1112.625
1110.708
1119.146
1116.995
1114.772
1112.566
1110.45
1121.188
1119.153
1117.002
1114.765
1112.51
1123.099
1121.195
1119.166
1117.018
1114.772
1112.455
1110.068
1124.882
1123.107
1121.211
1119.192
1117.054
1114.798
1112.436
1110.067
1126.544
1124.89
1123.124
1121.24
1119.236
1117.1
1114.819
1112.437
1110.091
1128.095
1126.551
1124.905
1123.151
1121.283
1119.283
1117.132
1114.845
1112.448
1110.115
1129.545
1128.101
1126.565
1124.93
1123.19
1121.326
1119.316
1117.166
1114.873
1112.462
1110.123
1111.133
1112.694
1111.06
1114.786
1112.669
1110.913
1116.991
1114.779
1112.621
1110.687
1119.144
1116.992
1114.768
1112.555
1110.389
1121.186
1119.149
1116.996
1114.755
1112.488
1123.097
1121.192
1119.161
1117.007
1114.752
1124.881
1123.105
1121.207
1119.183
1117.039
1114.787
1112.405
1109.898
1126.543
1124.888
1123.12
1121.234
1119.227
1117.092
1114.807
1112.404
1109.957
1128.094
1126.55
1124.903
1123.147
1121.278
1119.279
1117.127
1114.835
1112.423
1110.023
1129.544
1128.101
1126.564
1124.928
1123.188
1121.324
1119.314
1117.163
1114.868
1112.449
1110.077
1130.902
1129.55
1128.113
1126.587
1124.964
1123.228
1121.357
1119.35
1117.2
1114.903
1112.476
1110.11
1111.137
1112.694
1111.063
1114.786
1112.669
1110.913
1116.99
1114.778
1112.618
1110.676
1119.143
1116.99
1114.764
1112.546
1110.343
1121.184
1119.147
1116.991
1114.746
1112.463
1123.096
1121.19
1119.156
1116.997
1114.731
1124.879
1123.102
1121.202
1119.173
1117.014
1126.542
1124.886
1123.116
1121.226
1119.212
1117.084
1114.792
1112.36
1109.767
1128.093
1126.548
1124.9
1123.142
1121.269
1119.273
1117.12
1114.82
1112.384
1109.879
1129.544
1128.1
1126.562
1124.925
1123.183
1121.321
1119.311
1117.158
1114.857
1112.421
1109.982
1130.901
1129.549
1128.113
1126.585
1124.962
1123.227
1121.355
1119.348
1117.198
1114.898
1112.462
1110.063
1132.174
1130.906
1129.561
1128.133
1126.618
1125
1123.257
1121.39
1119.387
1117.239
1114.94
1112.502
1110.118
1111.142
1112.696
1111.069
1114.786
1112.67
1110.919
1116.99
1114.778
1112.618
1110.676
1119.142
1116.989
1114.762
1112.541
1110.319
1121.183
1119.145
1116.988
1114.739
1112.442
1123.094
1121.187
1119.151
1116.988
1114.712
1124.877
1123.1
1121.197
1119.163
1116.994
1126.54
1124.883
1123.112
1121.216
1119.188
1128.092
1126.546
1124.896
1123.134
1121.256
1119.267
1117.111
1114.8
1112.329
1109.677
1129.543
1128.098
1126.56
1124.92
1123.176
1121.316
1119.306
1117.15
1114.84
1112.378
1109.835
1130.9
1129.548
1128.111
1126.582
1124.958
1123.224
1121.352
1119.345
1117.192
1114.886
1112.434
1109.968
1132.173
1130.906
1129.56
1128.132
1126.616
1124.998
1123.256
1121.389
1119.386
1117.237
1114.934
1112.489
1110.073
1133.368
1132.178
1130.916
1129.579
1128.162
1126.65
1125.026
1123.288
1121.426
1119.427
1117.282
1114.983
1112.54
1110.149
1111.148
1112.699
1111.076
1114.788
1112.672
1110.929
1116.991
1114.779
1112.621
1110.687
1119.142
1116.989
1114.762
1112.541
1110.319
1121.182
1119.144
1116.986
1114.735
1112.43
1123.093
1121.185
1119.148
1116.982
1114.698
1124.876
1123.097
1121.193
1119.155
1116.978
1126.539
1124.881
1123.107
1121.207
1119.169
1128.091
1126.544
1124.892
1123.126
1121.233
1129.541
1128.096
1126.556
1124.913
1123.163
1121.311
1119.3
1117.139
1114.815
1112.317
1109.629
1130.9
1129.547
1128.108
1126.578
1124.951
1123.22
1121.349
1119.341
1117.184
1114.867
1112.391
1109.823
1132.173
1130.905
1129.559
1128.129
1126.613
1124.996
1123.254
1121.386
1119.383
1117.231
1114.923
1112.463
1109.98
1133.368
1132.178
1130.916
1129.578
1128.16
1126.649
1125.025
1123.287
1121.425
1119.426
1117.28
1114.978
1112.529
1110.104
1134.49
1133.372
1132.187
1130.933
1129.605
1128.191
1126.674
1125.054
1123.321
1121.464
1119.47
1117.329
1115.031
1112.589
1110.2
1111.154
1112.701
1111.085
1114.79
1112.676
1110.942
1116.992
1114.781
1112.625
1110.708
1119.143
1116.99
1114.764
1112.546
1110.343
1121.182
1119.144
1116.986
1114.735
1112.43
1123.092
1121.185
1119.146
1116.979
1114.69
1124.875
1123.096
1121.19
1119.149
1116.967
1126.537
1124.879
1123.104
1121.2
1119.154
1128.089
1126.542
1124.888
1123.117
1121.215
1129.54
1128.094
1126.552
1124.905
1123.142
1130.898
1129.545
1128.105
1126.572
1124.94
1123.215
1121.345
1119.334
1117.171
1114.84
1112.329
1109.623
1132.172
1130.904
1129.556
1128.125
1126.606
1124.992
1123.251
1121.383
1119.378
1117.223
1114.905
1112.422
1109.841
1133.367
1132.177
1130.914
1129.575
1128.157
1126.647
1125.023
1123.285
1121.423
1119.423
1117.276
1114.968
1112.506
1110.014
1134.49
1133.372
1132.187
1130.932
1129.604
1128.19
1126.673
1125.053
1123.32
1121.463
1119.469
1117.328
1115.028
1112.579
1110.155
1135.546
1134.494
1133.381
1132.203
1130.957
1129.632
1128.213
1126.7
1125.084
1123.356
1121.504
1119.515
1117.379
1115.085
1112.648
1111.16
1112.704
1111.094
1114.792
1112.679
1110.957
1116.994
1114.784
1112.631
1110.735
1119.144
1116.992
1114.768
1112.555
1110.389
1121.183
1119.145
1116.988
1114.739
1112.442
1123.092
1121.185
1119.146
1116.979
1114.69
1124.874
1123.095
1121.189
1119.147
1116.961
1126.536
1124.878
1123.101
1121.195
1119.145
1128.088
1126.54
1124.885
1123.111
1121.203
1129.539
1128.093
1126.549
1124.898
1123.126
1130.897
1129.544
1128.102
1126.564
1124.921
1132.171
1130.902
1129.554
1128.119
1126.596
1124.988
1123.247
1121.379
1119.371
1117.21
1114.878
1112.365
1109.652
1133.366
1132.176
1130.912
1129.571
1128.151
1126.643
1125.02
1123.283
1121.42
1119.419
1117.268
1114.953
1112.471
1109.882
1134.49
1133.371
1132.185
1130.929
1129.601
1128.188
1126.671
1125.052
1123.319
1121.462
1119.467
1117.324
1115.021
1112.56
1110.065
1135.545
1134.494
1133.38
1132.202
1130.956
1129.631
1128.212
1126.699
1125.084
1123.356
1121.503
1119.515
1117.379
1115.083
1112.639
1136.538
1135.549
1134.502
1133.395
1132.225
1130.982
1129.652
1128.236
1126.727
1125.116
1123.393
1121.545
1119.562
1117.431
1115.142
1111.165
1112.707
1111.102
1114.795
1112.683
1110.972
1116.997
1114.787
1112.637
1110.764
1119.146
1116.995
1114.772
1112.566
1110.45
1121.184
1119.147
1116.991
1114.746
1112.463
1123.093
1121.185
1119.148
1116.982
1114.698
1124.874
1123.095
1121.189
1119.147
1116.961
1126.536
1124.877
1123.1
1121.192
1119.14
1128.087
1126.539
1124.883
1123.106
1121.195
1129.538
1128.091
1126.546
1124.892
1123.115
1130.896
1129.542
1128.099
1126.558
1124.907
1132.17
1130.9
1129.55
1128.113
1126.579
1133.365
1132.174
1130.91
1129.566
1128.142
1126.64
1125.018
1123.28
1121.416
1119.412
1117.255
1114.929
1112.424
1109.71
1134.489
1133.37
1132.184
1130.926
1129.595
1128.185
1126.669
1125.05
1123.317
1121.459
1119.464
1117.319
1115.01
1112.533
1109.934
1135.545
1134.493
1133.379
1132.2
1130.953
1129.629
1128.21
1126.698
1125.083
1123.355
1121.503
1119.515
1117.377
1115.08
1112.622
1136.538
1135.549
1134.502
1133.394
1132.224
1130.981
1129.651
1128.236
1126.727
1125.116
1123.393
1121.546
1119.563
1117.432
1115.142
1137.471
1136.541
1135.557
1134.515
1133.416
1132.248
1131
1129.673
1128.261
1126.756
1125.149
1123.431
1121.588
1119.61
1117.483
1111.168
1112.709
1111.109
1114.797
1112.687
1110.985
1116.999
1114.791
1112.643
1110.788
1119.148
1116.998
1114.778
1112.577
1110.512
1121.186
1119.149
1116.996
1114.755
1112.488
1123.094
1121.187
1119.151
1116.988
1114.712
1124.875
1123.096
1121.19
1119.149
1116.967
1126.536
1124.877
1123.1
1121.192
1119.14
1128.087
1126.538
1124.882
1123.104
1121.191
1129.537
1128.09
1126.544
1124.888
1123.108
1130.895
1129.54
1128.096
1126.553
1124.897
1132.169
1130.899
1129.547
1128.107
1126.566
1133.364
1132.173
1130.907
1129.56
1128.126
1134.488
1133.369
1132.181
1130.921
1129.587
1128.181
1126.667
1125.048
1123.314
1121.455
1119.458
1117.309
1114.993
1112.499
1109.774
1135.544
1134.492
1133.377
1132.196
1130.948
1129.626
1128.208
1126.696
1125.081
1123.353
1121.501
1119.513
1117.375
1115.074
1112.602
1136.537
1135.548
1134.5
1133.392
1132.221
1130.979
1129.65
1128.234
1126.726
1125.115
1123.392
1121.546
1119.564
1117.433
1115.141
1137.471
1136.541
1135.556
1134.514
1133.414
1132.247
1130.999
1129.673
1128.261
1126.756
1125.149
1123.431
1121.589
1119.612
1117.485
1138.349
1137.474
1136.548
1135.569
1134.535
1133.437
1132.264
1131.019
1129.696
1128.287
1126.786
1125.184
1123.469
1121.631
1119.657
1111.17
1112.71
1111.113
1114.799
1112.69
1110.997
1117.001
1114.794
1112.648
1110.811
1119.151
1117.002
1114.784
1112.586
1110.54
1121.188
1119.153
1117.002
1114.765
1112.51
1123.096
1121.19
1119.156
1116.997
1114.731
1124.876
1123.097
1121.193
1119.155
1116.978
1126.536
1124.878
1123.101
1121.195
1119.145
1128.087
1126.538
1124.882
1123.104
1121.191
1129.537
1128.089
1126.543
1124.886
1123.105
1130.894
1129.539
1128.094
1126.549
1124.89
1132.168
1130.898
1129.545
1128.102
1126.557
1133.364
1132.171
1130.904
1129.555
1128.114
1134.487
1133.367
1132.179
1130.916
1129.572
1135.543
1134.491
1133.375
1132.192
1130.94
1129.623
1128.206
1126.694
1125.079
1123.351
1121.498
1119.509
1117.37
1115.068
1112.583
1136.536
1135.547
1134.499
1133.389
1132.217
1130.976
1129.648
1128.233
1126.725
1125.114
1123.392
1121.546
1119.565
1117.436
1115.143
1137.47
1136.54
1135.555
1134.513
1133.412
1132.245
1130.998
1129.672
1128.26
1126.756
1125.149
1123.432
1121.592
1119.616
1117.49
1138.348
1137.474
1136.548
1135.568
1134.534
1133.436
1132.264
1131.019
1129.696
1128.287
1126.786
1125.184
1123.471
1121.634
1119.66
1139.173
1138.352
1137.481
1136.56
1135.587
1134.554
1133.452
1132.282
1131.04
1129.72
1128.315
1126.817
1125.219
1123.508
1121.674
1112.711
1111.116
1114.8
1112.692
1111.005
1117.003
1114.796
1112.652
1110.831
1119.153
1117.005
1114.789
1112.594
1110.579
1121.19
1119.156
1117.007
1114.776
1112.519
1110.265
1123.097
1121.192
1119.161
1117.007
1114.752
1124.877
1123.1
1121.197
1119.163
1116.994
1126.537
1124.879
1123.104
1121.2
1119.154
1128.087
1126.539
1124.883
1123.106
1121.195
1129.537
1128.089
1126.543
1124.886
1123.105
1130.894
1129.539
1128.093
1126.547
1124.887
1132.167
1130.897
1129.543
1128.099
1126.551
1133.363
1132.17
1130.902
1129.551
1128.106
1134.486
1133.366
1132.176
1130.911
1129.562
1135.542
1134.49
1133.373
1132.187
1130.927
1136.536
1135.546
1134.497
1133.385
1132.209
1130.973
1129.646
1128.231
1126.723
1125.112
1123.39
1121.545
1119.565
1117.439
1115.149
1137.47
1136.539
1135.553
1134.51
1133.408
1132.243
1130.996
1129.67
1128.259
1126.755
1125.149
1123.433
1121.594
1119.621
1117.499
1138.348
1137.473
1136.547
1135.566
1134.531
1133.434
1132.262
1131.018
1129.695
1128.287
1126.787
1125.185
1123.473
1121.638
1119.667
1139.173
1138.351
1137.481
1136.559
1135.586
1134.553
1133.451
1132.282
1131.04
1129.72
1128.315
1126.818
1125.22
1123.51
1121.677
1139.947
1139.176
1138.358
1137.492
1136.577
1135.605
1134.569
1133.469
1132.302
1131.062
1129.745
1128.343
1126.849
1125.253
1123.546
1114.801
1112.693
1111.009
1117.004
1114.798
1112.655
1110.845
1119.155
1117.007
1114.793
1112.601
1110.616
1121.192
1119.159
1117.013
1114.784
1112.53
1110.354
1123.099
1121.195
1119.166
1117.018
1114.772
1112.455
1110.068
1124.879
1123.102
1121.202
1119.173
1117.014
1126.539
1124.881
1123.107
1121.207
1119.169
1128.088
1126.54
1124.885
1123.111
1121.203
1129.537
1128.09
1126.544
1124.888
1123.108
1130.894
1129.539
1128.093
1126.547
1124.887
1132.167
1130.896
1129.542
1128.097
1126.548
1133.362
1132.169
1130.9
1129.548
1128.101
1134.485
1133.365
1132.174
1130.907
1129.554
1135.541
1134.488
1133.37
1132.182
1130.917
1136.535
1135.545
1134.495
1133.38
1132.197
1137.469
1136.538
1135.552
1134.506
1133.401
1132.24
1130.994
1129.669
1128.257
1126.753
1125.148
1123.433
1121.596
1119.627
1117.514
1138.347
1137.473
1136.545
1135.564
1134.527
1133.432
1132.261
1131.017
1129.694
1128.286
1126.786
1125.186
1123.476
1121.644
1119.678
1139.172
1138.351
1137.48
1136.557
1135.584
1134.552
1133.45
1132.281
1131.039
1129.719
1128.315
1126.819
1125.222
1123.515
1121.684
1139.947
1139.176
1138.357
1137.491
1136.576
1135.605
1134.568
1133.468
1132.301
1131.062
1129.745
1128.344
1126.85
1125.256
1123.549
1140.672
1139.95
1139.182
1138.368
1137.508
1136.594
1135.619
1134.584
1133.487
1132.322
1131.085
1129.771
1128.372
1126.88
1125.287
1117.005
1114.799
1112.657
1110.853
1119.156
1117.009
1114.796
1112.606
1110.643
1121.193
1119.161
1117.017
1114.791
1112.54
1110.424
1123.101
1121.198
1119.171
1117.027
1114.785
1112.474
1110.202
1124.881
1123.105
1121.207
1119.183
1117.039
1114.787
1112.405
1109.898
1126.54
1124.883
1123.112
1121.216
1119.188
1128.089
1126.542
1124.888
1123.117
1121.215
1129.538
1128.091
1126.546
1124.892
1123.115
1130.894
1129.539
1128.094
1126.549
1124.89
1132.167
1130.896
1129.542
1128.097
1126.548
1133.362
1132.169
1130.899
1129.546
1128.098
1134.485
1133.364
1132.172
1130.904
1129.55
1135.541
1134.487
1133.368
1132.179
1130.91
1136.534
1135.544
1134.492
1133.376
1132.188
1137.468
1136.537
1135.549
1134.502
1133.39
1138.347
1137.472
1136.544
1135.56
1134.521
1133.43
1132.259
1131.015
1129.692
1128.285
1126.786
1125.187
1123.478
1121.651
1119.694
1139.172
1138.35
1137.478
1136.555
1135.58
1134.55
1133.449
1132.28
1131.038
1129.719
1128.315
1126.82
1125.225
1123.521
1121.695
1139.946
1139.175
1138.357
1137.49
1136.574
1135.603
1134.567
1133.468
1132.301
1131.062
1129.745
1128.345
1126.852
1125.26
1123.556
1140.672
1139.949
1139.181
1138.368
1137.507
1136.593
1135.618
1134.584
1133.487
1132.322
1131.085
1129.771
1128.373
1126.882
1125.29
1141.351
1140.675
1139.955
1139.192
1138.383
1137.524
1136.607
1135.633
1134.601
1133.506
1132.343
1131.109
1129.797
1128.4
1126.911
1119.157
1117.01
1114.797
1112.608
1110.657
1121.194
1119.163
1117.02
1114.795
1112.547
1110.472
1123.102
1121.2
1119.175
1117.034
1114.795
1112.491
1110.299
1124.882
1123.107
1121.211
1119.192
1117.054
1114.798
1112.436
1110.067
1126.542
1124.886
1123.116
1121.226
1119.212
1117.084
1114.792
1112.36
1109.767
1128.091
1126.544
1124.892
1123.126
1121.233
1129.539
1128.093
1126.549
1124.898
1123.126
1130.895
1129.54
1128.096
1126.553
1124.897
1132.167
1130.897
1129.543
1128.099
1126.551
1133.362
1132.169
1130.899
1129.546
1128.098
1134.484
1133.363
1132.172
1130.903
1129.547
1135.54
1134.486
1133.367
1132.176
1130.906
1136.533
1135.543
1134.491
1133.373
1132.182
1137.468
1136.536
1135.547
1134.498
1133.381
1138.346
1137.47
1136.542
1135.556
1134.51
1139.171
1138.349
1137.476
1136.552
1135.574
1134.548
1133.447
1132.279
1131.037
1129.718
1128.314
1126.82
1125.228
1123.528
1121.712
1139.946
1139.174
1138.355
1137.487
1136.571
1135.601
1134.566
1133.467
1132.3
1131.061
1129.745
1128.346
1126.855
1125.266
1123.566
1140.672
1139.949
1139.181
1138.366
1137.505
1136.592
1135.617
1134.583
1133.486
1132.322
1131.086
1129.772
1128.375
1126.886
1125.297
1141.351
1140.675
1139.955
1139.191
1138.383
1137.524
1136.606
1135.633
1134.601
1133.506
1132.343
1131.109
1129.798
1128.402
1126.914
1141.986
1141.354
1140.681
1139.965
1139.206
1138.399
1137.536
1136.621
1135.649
1134.619
1133.525
1132.365
1131.133
1129.823
1128.428
1121.195
1119.164
1117.021
1114.797
1112.551
1110.496
1123.104
1121.202
1119.178
1117.038
1114.801
1112.504
1110.361
1124.884
1123.109
1121.215
1119.199
1117.063
1114.808
1112.461
1110.185
1126.543
1124.888
1123.12
1121.234
1119.227
1117.092
1114.807
1112.404
1109.957
1128.092
1126.546
1124.896
1123.134
1121.256
1119.267
1117.111
1114.8
1112.329
1109.677
1129.54
1128.094
1126.552
1124.905
1123.142
1130.896
1129.542
1128.099
1126.558
1124.907
1132.168
1130.898
1129.545
1128.102
1126.557
1133.362
1132.169
1130.9
1129.548
1128.101
1134.484
1133.363
1132.172
1130.903
1129.547
1135.54
1134.486
1133.366
1132.175
1130.904
1136.533
1135.542
1134.489
1133.37
1132.178
1137.467
1136.535
1135.546
1134.495
1133.375
1138.345
1137.469
1136.54
1135.552
1134.503
1139.17
1138.348
1137.475
1136.548
1135.564
1139.945
1139.173
1138.354
1137.484
1136.565
1135.599
1134.564
1133.465
1132.299
1131.06
1129.745
1128.346
1126.858
1125.272
1123.582
1140.671
1139.948
1139.179
1138.364
1137.502
1136.59
1135.616
1134.582
1133.485
1132.321
1131.086
1129.773
1128.378
1126.892
1125.307
1141.351
1140.674
1139.954
1139.19
1138.381
1137.522
1136.605
1135.632
1134.6
1133.505
1132.344
1131.11
1129.8
1128.406
1126.92
1141.986
1141.354
1140.68
1139.964
1139.205
1138.398
1137.536
1136.62
1135.649
1134.619
1133.526
1132.366
1131.134
1129.825
1128.431
1142.577
1141.988
1141.359
1140.69
1139.979
1139.221
1138.41
1137.549
1136.635
1135.666
1134.637
1133.546
1132.387
1131.157
1129.848
1123.104
1121.203
1119.179
1117.041
1114.804
1112.511
1110.392
1124.884
1123.111
1121.218
1119.203
1117.069
1114.815
1112.478
1110.261
1126.544
1124.89
1123.124
1121.24
1119.236
1117.1
1114.819
1112.437
1110.091
1128.093
1126.548
1124.9
1123.142
1121.269
1119.273
1117.12
1114.82
1112.384
1109.879
1129.541
1128.096
1126.556
1124.913
1123.163
1121.311
1119.3
1117.139
1114.815
1112.317
1109.629
1130.897
1129.544
1128.102
1126.564
1124.921
1132.169
1130.899
1129.547
1128.107
1126.566
1133.363
1132.17
1130.902
1129.551
1128.106
1134.485
1133.364
1132.172
1130.904
1129.55
1135.54
1134.486
1133.366
1132.175
1130.904
1136.533
1135.541
1134.489
1133.369
1132.176
1137.466
1136.534
1135.544
1134.492
1133.372
1138.345
1137.468
1136.538
1135.549
1134.497
1139.17
1138.347
1137.473
1136.544
1135.557
1139.944
1139.172
1138.352
1137.481
1136.556
1140.671
1139.947
1139.178
1138.361
1137.497
1136.588
1135.615
1134.581
1133.484
1132.32
1131.085
1129.774
1128.38
1126.898
1125.321
1141.35
1140.674
1139.953
1139.188
1138.378
1137.521
1136.604
1135.631
1134.599
1133.505
1132.344
1131.111
1129.802
1128.411
1126.929
1141.985
1141.353
1140.679
1139.963
1139.204
1138.397
1137.535
1136.62
1135.648
1134.618
1133.526
1132.366
1131.136
1129.828
1128.436
1142.577
1141.988
1141.359
1140.689
1139.978
1139.22
1138.41
1137.549
1136.635
1135.666
1134.637
1133.546
1132.388
1131.159
1129.851
1143.126
1142.579
1141.993
1141.368
1140.703
1139.993
1139.232
1138.423
1137.563
1136.651
1135.683
1134.656
1133.566
1132.409
1131.18
1124.885
1123.111
1121.219
1119.205
1117.072
1114.819
1112.487
1110.298
1126.545
1124.891
1123.126
1121.244
1119.241
1117.105
1114.828
1112.459
1110.177
1128.094
1126.55
1124.903
1123.147
1121.278
1119.279
1117.127
1114.835
1112.423
1110.023
1129.543
1128.098
1126.56
1124.92
1123.176
1121.316
1119.306
1117.15
1114.84
1112.378
1109.835
1130.898
1129.545
1128.105
1126.572
1124.94
1123.215
1121.345
1119.334
1117.171
1114.84
1112.329
1109.623
1132.17
1130.9
1129.55
1128.113
1126.579
1133.364
1132.171
1130.904
1129.555
1128.114
1134.485
1133.365
1132.174
1130.907
1129.554
1135.54
1134.486
1133.367
1132.176
1130.906
1136.533
1135.541
1134.489
1133.369
1132.176
1137.466
1136.534
1135.544
1134.491
1133.37
1138.344
1137.468
1136.537
1135.547
1134.494
1139.169
1138.346
1137.471
1136.542
1135.552
1139.944
1139.171
1138.35
1137.477
1136.549
1140.67
1139.946
1139.176
1138.358
1137.488
1141.35
1140.673
1139.952
1139.185
1138.373
1137.519
1136.603
1135.63
1134.598
1133.504
1132.343
1131.112
1129.805
1128.417
1126.942
1141.985
1141.353
1140.678
1139.961
1139.201
1138.396
1137.534
1136.619
1135.648
1134.618
1133.526
1132.367
1131.138
1129.833
1128.445
1142.576
1141.988
1141.358
1140.688
1139.976
1139.219
1138.409
1137.548
1136.635
1135.665
1134.637
1133.547
1132.39
1131.162
1129.856
1143.126
1142.579
1141.993
1141.367
1140.702
1139.992
1139.232
1138.423
1137.563
1136.651
1135.683
1134.656
1133.567
1132.411
1131.182
1143.634
1143.128
1142.584
1142.002
1141.381
1140.716
1140.003
1139.244
1138.436
1137.578
1136.667
1135.701
1134.675
1133.587
1132.431
1126.546
1124.892
1123.127
1121.246
1119.244
1117.107
1114.832
1112.469
1110.219
1128.095
1126.551
1124.905
1123.151
1121.283
1119.283
1117.132
1114.845
1112.448
1110.115
1129.544
1128.1
1126.562
1124.925
1123.183
1121.321
1119.311
1117.158
1114.857
1112.421
1109.982
1130.9
1129.547
1128.108
1126.578
1124.951
1123.22
1121.349
1119.341
1117.184
1114.867
1112.391
1109.823
1132.171
1130.902
1129.554
1128.119
1126.596
1124.988
1123.247
1121.379
1119.371
1117.21
1114.878
1112.365
1109.652
1133.364
1132.173
1130.907
1129.56
1128.126
1134.486
1133.366
1132.176
1130.911
1129.562
1135.541
1134.487
1133.368
1132.179
1130.91
1136.533
1135.542
1134.489
1133.37
1132.178
1137.466
1136.534
1135.544
1134.491
1133.37
1138.344
1137.467
1136.536
1135.546
1134.492
1139.169
1138.345
1137.47
1136.54
1135.549
1139.943
1139.171
1138.349
1137.475
1136.544
1140.669
1139.945
1139.175
1138.354
1137.481
1141.349
1140.672
1139.95
1139.182
1138.364
1141.984
1141.352
1140.677
1139.958
1139.196
1138.394
1137.533
1136.618
1135.647
1134.617
1133.525
1132.368
1131.14
1129.838
1128.457
1142.576
1141.987
1141.357
1140.686
1139.974
1139.218
1138.408
1137.548
1136.634
1135.665
1134.637
1133.548
1132.392
1131.166
1129.864
1143.125
1142.578
1141.992
1141.366
1140.701
1139.991
1139.231
1138.422
1137.563
1136.651
1135.683
1134.657
1133.569
1132.414
1131.187
1143.634
1143.128
1142.584
1142.001
1141.38
1140.716
1140.003
1139.243
1138.436
1137.578
1136.667
1135.701
1134.676
1133.588
1132.433
1144.102
1143.636
1143.133
1142.592
1142.014
1141.394
1140.726
1140.014
1139.256
1138.45
1137.593
1136.684
1135.719
1134.694
1133.607
1128.096
1126.552
1124.906
1123.152
1121.285
1119.285
1117.135
1114.85
1112.46
1110.16
1129.544
1128.101
1126.564
1124.928
1123.188
1121.324
1119.314
1117.163
1114.868
1112.449
1110.077
1130.9
1129.548
1128.111
1126.582
1124.958
1123.224
1121.352
1119.345
1117.192
1114.886
1112.434
1109.968
1132.172
1130.904
1129.556
1128.125
1126.606
1124.992
1123.251
1121.383
1119.378
1117.223
1114.905
1112.422
1109.841
1133.365
1132.174
1130.91
1129.566
1128.142
1126.64
1125.018
1123.28
1121.416
1119.412
1117.255
1114.929
1112.424
1109.71
1134.487
1133.367
1132.179
1130.916
1129.572
1135.541
1134.488
1133.37
1132.182
1130.917
1136.533
1135.543
1134.491
1133.373
1132.182
1137.466
1136.534
1135.544
1134.492
1133.372
1138.344
1137.467
1136.536
1135.546
1134.492
1139.169
1138.345
1137.47
1136.539
1135.547
1139.943
1139.17
1138.348
1137.473
1136.541
1140.669
1139.945
1139.173
1138.352
1137.477
1141.349
1140.671
1139.948
1139.179
1138.358
1141.984
1141.351
1140.675
1139.955
1139.188
1142.575
1141.986
1141.356
1140.683
1139.969
1139.216
1138.407
1137.547
1136.633
1135.664
1134.637
1133.548
1132.394
1131.171
1129.875
1143.125
1142.578
1141.991
1141.365
1140.698
1139.99
1139.23
1138.421
1137.562
1136.65
1135.683
1134.658
1133.571
1132.418
1131.194
1143.634
1143.127
1142.583
1142
1141.379
1140.715
1140.002
1139.243
1138.435
1137.578
1136.667
1135.702
1134.677
1133.591
1132.437
1144.102
1143.636
1143.133
1142.592
1142.013
1141.393
1140.726
1140.014
1139.256
1138.45
1137.593
1136.684
1135.719
1134.695
1133.608
1144.532
1144.105
1143.641
1143.141
1142.604
1142.027
1141.403
1140.737
1140.027
1139.27
1138.464
1137.609
1136.701
1135.736
1134.713
1129.545
1128.101
1126.565
1124.93
1123.19
1121.326
1119.316
1117.166
1114.873
1112.462
1110.123
1130.901
1129.549
1128.113
1126.585
1124.962
1123.227
1121.355
1119.348
1117.198
1114.898
1112.462
1110.063
1132.173
1130.905
1129.559
1128.129
1126.613
1124.996
1123.254
1121.386
1119.383
1117.231
1114.923
1112.463
1109.98
1133.366
1132.176
1130.912
1129.571
1128.151
1126.643
1125.02
1123.283
1121.42
1119.419
1117.268
1114.953
1112.471
1109.882
1134.488
1133.369
1132.181
1130.921
1129.587
1128.181
1126.667
1125.048
1123.314
1121.455
1119.458
1117.309
1114.993
1112.499
1109.774
1135.542
1134.49
1133.373
1132.187
1130.927
1136.534
1135.544
1134.492
1133.376
1132.188
1137.467
1136.535
1135.546
1134.495
1133.375
1138.344
1137.468
1136.537
1135.547
1134.494
1139.169
1138.345
1137.47
1136.539
1135.547
1139.943
1139.17
1138.347
1137.472
1136.539
1140.669
1139.944
1139.172
1138.35
1137.474
1141.348
1140.67
1139.947
1139.176
1138.354
1141.983
1141.35
1140.674
1139.952
1139.182
1142.575
1141.985
1141.354
1140.68
1139.961
1143.124
1142.577
1141.99
1141.362
1140.694
1139.988
1139.229
1138.42
1137.561
1136.649
1135.683
1134.658
1133.572
1132.422
1131.205
1143.633
1143.127
1142.582
1141.998
1141.376
1140.714
1140.001
1139.242
1138.435
1137.577
1136.667
1135.702
1134.679
1133.595
1132.444
1144.102
1143.636
1143.132
1142.591
1142.012
1141.392
1140.725
1140.014
1139.256
1138.45
1137.594
1136.685
1135.721
1134.698
1133.612
1144.532
1144.104
1143.641
1143.14
1142.604
1142.026
1141.403
1140.737
1140.026
1139.27
1138.465
1137.609
1136.701
1135.738
1134.714
1144.923
1144.534
1144.109
1143.649
1143.152
1142.616
1142.036
1141.414
1140.749
1140.039
1139.283
1138.479
1137.625
1136.718
1135.754
1130.902
1129.55
1128.113
1126.587
1124.964
1123.228
1121.357
1119.35
1117.2
1114.903
1112.476
1110.11
1132.173
1130.906
1129.56
1128.132
1126.616
1124.998
1123.256
1121.389
1119.386
1117.237
1114.934
1112.489
1110.073
1133.367
1132.177
1130.914
1129.575
1128.157
1126.647
1125.023
1123.285
1121.423
1119.423
1117.276
1114.968
1112.506
1110.014
1134.489
1133.37
1132.184
1130.926
1129.595
1128.185
1126.669
1125.05
1123.317
1121.459
1119.464
1117.319
1115.01
1112.533
1109.934
1135.543
1134.491
1133.375
1132.192
1130.94
1129.623
1128.206
1126.694
1125.079
1123.351
1121.498
1119.509
1117.37
1115.068
1112.583
1136.535
1135.545
1134.495
1133.38
1132.197
1137.468
1136.536
1135.547
1134.498
1133.381
1138.345
1137.468
1136.538
1135.549
1134.497
1139.169
1138.345
1137.47
1136.54
1135.549
1139.943
1139.17
1138.347
1137.472
1136.539
1140.668
1139.944
1139.172
1138.349
1137.472
1141.348
1140.67
1139.946
1139.175
1138.351
1141.983
1141.349
1140.673
1139.95
1139.178
1142.574
1141.984
1141.353
1140.678
1139.956
1143.124
1142.576
1141.989
1141.359
1140.686
1143.633
1143.126
1142.581
1141.996
1141.372
1140.712
1140
1139.241
1138.434
1137.577
1136.667
1135.703
1134.681
1133.599
1132.454
1144.102
1143.635
1143.131
1142.589
1142.01
1141.391
1140.724
1140.013
1139.255
1138.449
1137.594
1136.685
1135.722
1134.702
1133.619
1144.532
1144.104
1143.64
1143.139
1142.602
1142.025
1141.402
1140.737
1140.026
1139.269
1138.465
1137.61
1136.703
1135.74
1134.718
1144.923
1144.534
1144.109
1143.648
1143.152
1142.616
1142.036
1141.414
1140.749
1140.039
1139.283
1138.48
1137.626
1136.719
1135.755
1145.278
1144.926
1144.539
1144.117
1143.66
1143.164
1142.625
1142.046
1141.425
1140.761
1140.052
1139.298
1138.495
1137.641
1136.734
1132.174
1130.906
1129.561
1128.133
1126.618
1125
1123.257
1121.39
1119.387
1117.239
1114.94
1112.502
1110.118
1133.368
1132.178
1130.916
1129.578
1128.16
1126.649
1125.025
1123.287
1121.425
1119.426
1117.28
1114.978
1112.529
1110.104
1134.49
1133.371
1132.185
1130.929
1129.601
1128.188
1126.671
1125.052
1123.319
1121.462
1119.467
1117.324
1115.021
1112.56
1110.065
1135.544
1134.492
1133.377
1132.196
1130.948
1129.626
1128.208
1126.696
1125.081
1123.353
1121.501
1119.513
1117.375
1115.074
1112.602
1136.536
1135.546
1134.497
1133.385
1132.209
1130.973
1129.646
1128.231
1126.723
1125.112
1123.39
1121.545
1119.565
1117.439
1115.149
1137.468
1136.537
1135.549
1134.502
1133.39
1138.345
1137.469
1136.54
1135.552
1134.503
1139.169
1138.346
1137.471
1136.542
1135.552
1139.943
1139.17
1138.348
1137.473
1136.541
1140.668
1139.944
1139.172
1138.349
1137.472
1141.348
1140.669
1139.946
1139.174
1138.35
1141.982
1141.349
1140.672
1139.948
1139.176
1142.574
1141.984
1141.352
1140.675
1139.952
1143.123
1142.576
1141.987
1141.357
1140.681
1143.632
1143.125