/*--------------------------------*- C++ -*----------------------------------*\
| =========                 |                                                 |
| \\      /  F ield         | OpenFOAM: The Open Source CFD Toolbox           |
|  \\    /   O peration     | Version:  2306                                  |
|   \\  /    A nd           | Website:  www.openfoam.com                      |
|    \\/     M anipulation  |                                                 |
\*---------------------------------------------------------------------------*/
FoamFile
{
    version     2.0;
    format      ascii;
    arch        "LSB;label=32;scalar=64";
    class       volVectorField;
    location    "1.5/phiI";
    object      i;
}
// * * * * * * * * * * * * * * * * * * * * * * * * * * * * * * * * * * * * * //

dimensions      [0 -2 0 0 0 1 0];

internalField   nonuniform List<vector> 
12000
(
(33.90037 5.752469 1606.075)
(34.07046 17.06781 1620.028)
(68.30609 7.453329 1476.1)
(34.42027 5.194344 4834.585)
(34.30602 28.62225 1648.08)
(68.55147 21.12431 1485.279)
(34.60945 15.38764 4876.618)
(63.02477 8.206278 1366.269)
(69.26531 7.08618 4443.269)
(35.46563 4.071157 8112.205)
(34.34381 41.81865 1689.978)
(68.91705 31.35575 1503.273)
(34.88525 25.82428 4961.117)
(63.111 23.17742 1373.342)
(69.53821 20.03741 4470.924)
(35.69323 12.00652 8183.083)
(52.30857 8.315636 1277.953)
(63.81736 7.923364 4112.608)
(71.19399 6.34714 7454.026)
(37.05299 2.359207 11476.59)
(33.7243 58.48811 1743.667)
(69.07919 36.00147 1528.898)
(34.98812 37.99514 5087.319)
(63.26401 33.89944 1387.052)
(69.96116 29.61098 4525.143)
(36.04992 20.1942 8325.577)
(52.31281 23.51678 1283.771)
(63.91703 22.34609 4133.918)
(71.52227 17.84935 7500.67)
(37.33911 6.852778 11577.87)
(43.48014 8.248611 1204.403)
(52.95604 8.082904 3846.724)
(65.41095 7.353892 6898.227)
(74.12122 5.220427 10540.41)
(39.21036 0.01985844 14972.29)
(31.93996 75.07732 1801.218)
(68.45891 34.44966 1559.257)
(34.46195 54.0385 5248.97)
(63.41717 37.23732 1406.155)
(70.21448 33.76212 4602.386)
(36.28354 30.30455 8538.389)
(52.32937 34.41754 1294.973)
(64.09721 32.58692 4175.233)
(72.06059 26.09727 7592.14)
(37.81899 11.61203 11781.52)
(43.45599 23.38537 1209.364)
(52.96872 22.83598 3864.253)
(65.53768 20.67245 6934.167)
(74.53388 14.51286 10607.07)
(39.57644 -0.1906785 15106.34)
(36.67216 8.074146 1141.002)
(44.02795 8.050195 3625.292)
(54.25784 7.614465 6451.484)
(67.82752 6.485763 9750.985)
(78.0964 3.680685 13740.79)
(41.979 -3.002652 16766.84)
(29.19455 83.53024 1846.155)
(66.36318 29.77983 1588.206)
(32.79201 70.97782 5422.045)
(63.42889 31.32807 1427.917)
(69.72191 32.07735 4693.947)
(35.9444 45.09906 8810.866)
(52.36167 37.65026 1310.371)
(64.29129 35.60272 4232.827)
(72.49716 29.24934 7722.523)
(38.25159 18.58358 12085.71)
(43.42301 34.38808 1218.87)
(53.0021 33.35356 3898.007)
(65.77256 29.9431 7003.869)
(75.24799 20.73687 10737.84)
(40.22463 -0.1194669 15375.94)
(36.63325 22.94544 1145.325)
(44.00978 22.80672 3640.236)
(54.28754 21.46544 6481.045)
(67.99553 18.12044 9802.34)
(78.62438 9.952048 13829.01)
(42.44843 -9.293074 16917.8)
(31.49394 7.859548 1085.23)
(37.14885 7.901209 3434.405)
(45.12942 7.650854 6079.525)
(56.23085 6.900462 9117.031)
(71.10445 5.299688 12704.55)
(83.19219 1.691706 15382.71)
(44.74685 -6.018868 16782.84)
(26.26062 76.94275 1875.634)
(62.90313 26.73686 1608.178)
(30.14646 80.5536 5557)
(63.05422 19.5195 1447.283)
(67.77892 27.82296 4781.329)
(34.50283 62.75612 9102.211)
(52.39579 30.82011 1327.481)
(64.35599 29.68294 4298.509)
(72.26075 27.29194 7877.218)
(38.19654 31.48565 12475.13)
(43.40538 37.90152 1231.818)
(53.05902 36.34995 3944.435)
(66.04898 32.30624 7101.114)
(75.96358 22.359 10924.38)
(40.92888 2.559884 15778.8)
(36.57196 33.91146 1153.582)
(43.98857 33.48992 3668.879)
(54.35478 31.21024 6537.988)
(68.31382 25.90907 9901.981)
(79.57873 13.40491 14002.15)
(43.31416 -15.28635 17221.51)
(31.44783 22.3834 1089.06)
(37.11447 22.4422 3447.429)
(45.12329 21.64188 6104.723)
(56.2865 19.37585 9159.261)
(71.32891 14.6326 12772.49)
(83.86929 4.058509 15482.02)
(45.31958 -18.37777 16933.5)
(27.45808 7.613132 1035.366)
(31.91648 7.706333 3266.478)
(38.10741 7.553176 5758.921)
(46.7982 7.04227 8589.524)
(58.90368 5.925253 11873.53)
(75.29658 3.768314 14219.04)
(88.28759 -0.2915594 15399.14)
(47.51381 -9.028748 16798.7)
(23.91487 53.68711 1892.719)
(59.02973 24.14594 1619.867)
(27.28369 75.08018 5645.379)
(62.13843 10.19567 1459.224)
(64.45085 25.47041 4841.605)
(32.05613 74.59686 9329.001)
(52.35715 16.87526 1342)
(64.03905 18.26723 4357.082)
(70.62303 23.87348 8025.052)
(37.10064 50.2524 12891.14)
(43.43051 31.28287 1245.96)
(53.12362 29.55496 3996.095)
(66.2203 26.35784 7212.196)
(76.11659 19.97619 11145.97)
(41.26107 12.88201 16294.64)
(36.51799 37.72524 1164.756)
(43.98784 36.81789 3707.921)
(54.46129 33.72672 6616.386)
(68.71583 27.26962 10041.14)
(80.67546 12.92427 14249.35)
(44.36938 -18.1644 17675.52)
(31.3713 33.23546 1096.357)
(37.06201 33.13422 3472.309)
(45.1258 31.68067 6153.039)
(56.40542 27.93993 9240.648)
(71.76132 20.39126 12904.38)
(85.13425 3.923134 15676.97)
(46.40279 -30.42803 17236.64)
(27.40754 21.71908 1038.8)
(31.87393 21.93829 3278.016)
(38.08213 21.42926 5780.879)
(46.81044 19.86617 8625.513)
(58.99484 16.52074 11929.37)
(75.59408 10.12748 14295.48)
(89.11368 -1.818366 15498.16)
(48.18977 -27.44482 16949.04)
(24.27225 7.354099 990.2999)
(27.8378 7.475781 3116.327)
(32.76625 7.398008 5476.904)
(39.55934 7.022871 8135.039)
(49.05738 6.211283 11182.71)
(62.31821 4.66676 13286.34)
(79.48995 2.242017 14235.28)
(93.38243 -2.269238 15415.47)
(50.27977 -12.03229 16814.34)
(22.63878 19.17365 1900.465)
(55.83562 17.46867 1626.073)
(24.98146 52.69389 5696.516)
(60.89101 6.267611 1465.164)
(60.67161 23.43014 4876.826)
(29.33484 71.3621 9477.218)
(52.14 5.104716 1350.154)
(63.17053 9.480459 4393.267)
(67.55806 22.91697 8127.026)
(34.95436 65.5533 13214.48)
(43.48825 16.96161 1257.556)
(53.11606 15.96833 4040.063)
(66.01928 15.72922 7311.563)
(74.94151 17.83065 11358.09)
(40.63501 33.18212 16845.45)
(36.51247 31.64875 1176.807)
(44.0332 30.25332 3750.629)
(54.58731 26.995 6703.796)
(69.04968 21.26495 10200.4)
(81.35969 9.943338 14543.45)
(45.2013 -11.1802 18257.13)
(31.29387 37.30658 1106.182)
(37.02053 36.79626 3505.999)
(45.15913 34.63152 6218.963)
(56.58762 29.71761 9352.833)
(72.33515 20.36951 13088.79)
(86.72363 0.707081 15955.48)
(47.80903 -38.86462 17689.97)
(27.32062 32.37176 1045.329)
(31.80431 32.55056 3300.003)
(38.04747 31.56867 5822.842)
(46.84915 28.92031 8694.557)
(59.18448 23.46736 12037.06)
(76.17418 13.25712 14443.92)
(90.68912 -5.533578 15692.58)
(49.49039 -45.54539 17251.62)
(24.21977 21.00881 993.4069)
(27.79015 21.32058 3126.67)
(32.73087 21.0424 5496.355)
(39.54794 19.88533 8166.394)
(49.09476 17.44056 11230.28)
(62.45532 12.83457 13349.15)
(79.86038 5.637441 14311.48)
(94.35737 -7.679103 15514.22)
(51.05885 -36.49441 16964.35)
(21.70444 7.088349 949.1991)
(24.61692 7.229818 2980.602)
(28.60158 7.199394 5224.75)
(34.05316 6.928286 7735.388)
(41.52396 6.298975 10587.93)
(51.94059 5.139389 12511.31)
(65.73461 3.412753 13302.17)
(83.68446 0.7206342 14251.47)
(98.47652 -4.241475 15431.64)
(53.04461 -15.02951 16829.66)
(22.63878 -19.17365 1900.465)
(54.06559 6.412714 1628.74)
(23.72568 18.86382 5719.672)
(59.74252 4.04578 1467.741)
(57.53553 17.11375 4895.481)
(27.11902 50.7154 9562.814)
(51.76094 0.1868009 1353.537)
(61.95633 5.926928 4411.286)
(63.9661 21.99092 8186.508)
(32.44653 65.72768 13425.44)
(43.50749 4.233512 1263.583)
(52.92256 4.64323 4064.857)
(65.24543 8.027508 7373.122)
(72.27437 19.01218 11504.44)
(38.89632 53.22466 17273.02)
(36.57352 17.64512 1186.435)
(44.11051 16.25671 3785.772)
(54.64239 14.12479 6778.517)
(69.02519 11.8302 10343.37)
(80.81409 9.534575 14825.57)
(45.18014 11.11717 18878.1)
(31.25945 31.8382 1116.678)
(37.02959 30.7816 3542.392)
(45.24532 28.16885 6291.242)
(56.80743 23.06974 9478.213)
(72.89131 14.26832 13300.32)
(88.09387 -3.072564 16287.2)
(49.14077 -35.22123 18271.14)
(27.2247 36.60678 1054.084)
(31.73655 36.49374 3329.625)
(38.03117 34.92193 5879.724)
(46.93449 31.28976 8788.883)
(59.47031 24.22415 12185.71)
(76.97042 11.43181 14651.6)
(92.77112 -11.48487 15970.41)
(51.24764 -59.5444 17704.32)
(24.12741 31.40708 999.3046)
(27.70884 31.76041 3146.34)
(32.67518 31.17111 5533.433)
(39.54043 29.18042 8226.347)
(49.183 25.14587 11321.61)
(62.73649 17.68652 13470.31)
(80.58797 6.146387 14459.42)
(96.2431 -14.9666 15708.12)
(52.57678 -60.63946 17266.39)
(21.65144 20.27076 952.031)
(24.56684 20.64862 2989.962)
(28.55976 20.51855 5242.185)
(34.02871 19.67712 7763.157)
(41.53156 17.77691 10629.36)
(52.01048 14.31022 12564.8)
(65.91756 9.161881 13364.76)
(84.12769 1.161883 14327.42)
(99.60015 -13.52428 15530.12)
(53.92672 -45.52679 16979.37)
(19.60694 6.824162 911.4603)
(22.0198 6.975071 2856.802)
(25.31034 6.979732 4996.824)
(29.75812 6.778393 7378.149)
(35.79381 6.287262 10065.21)
(44.02935 5.365615 11844.21)
(54.82588 4.07149 12526.64)
(69.15281 2.163066 13317.96)
(87.87999 -0.7960088 14267.53)
(103.5697 -6.208429 15447.55)
(55.80822 -18.02046 15034.42)
(23.91487 -53.68711 1892.719)
(54.06559 -6.412715 1628.74)
(23.72568 -18.86382 5719.672)
(59.06699 1.473395 1468.658)
(55.79282 6.306034 4903.479)
(25.90355 18.24741 9601.521)
(51.37284 -0.7715009 1354.56)
(60.82857 3.906005 4419.109)
(60.94525 16.40255 8217.924)
(30.36101 47.72175 13547.09)
(43.44605 -1.403966 1265.632)
(52.55906 0.01055749 4075.205)
(64.09749 5.233914 7403.846)
(68.9651 19.7942 11589.7)
(36.67782 58.05798 17551.59)
(36.65611 4.682744 1191.119)
(44.14363 3.910499 3804.143)
(54.49649 3.699028 6820.896)
(68.39505 5.789162 10432.22)
(78.68711 13.65273 15020.27)
(43.96538 37.30755 19359.4)
(31.29834 18.39806 1124.896)
(37.10416 17.07265 3571.581)
(45.36218 14.82104 6351.028)
(56.9582 11.28434 9585.917)
(73.10798 6.456324 13490.97)
(88.35943 -1.242121 16605.89)
(49.72386 -10.90892 18891.71)
(27.16237 31.69347 1063.366)
(31.71322 31.08964 3361.322)
(38.0697 29.02544 5941.32)
(47.08311 24.97072 8892.578)
(59.8186 17.67165 12352.29)
(77.81431 5.177705 14890.18)
(94.82747 -16.07295 16301.62)
(53.07936 -59.24977 18285.19)
(24.01978 35.724 1007.188)
(27.62068 35.8853 3172.736)
(32.62692 34.85382 5583.443)
(39.56261 32.05715 8307.723)
(49.33957 26.71067 11446.57)
(63.15651 17.10838 13637.66)
(81.60644 2.518959 14666.46)
(98.81768 -23.6547 15985.32)
(54.68506 -80.20765 17718.51)
(21.55662 30.37188 957.399)
(24.47913 30.85583 3007.73)
(28.48972 30.52914 5275.352)
(33.99428 29.06705 7816.119)
(41.56122 25.91551 10708.64)
(52.16284 20.26901 12667.52)
(66.29007 11.92702 13485.48)
(85.00258 -0.9423475 14474.9)
(101.796 -24.37739 15723.52)
(55.66184 -75.71145 17280.86)
(19.5546 19.53062 914.057)
(21.96884 19.94276 2865.333)
(25.26512 19.92371 5012.598)
(29.72518 19.2965 7403.034)
(35.78431 17.81314 10101.89)
(44.06152 15.05702 11890.79)
(54.92819 11.19201 12579.93)
(69.38149 5.502094 13380.34)
(88.39589 -3.299834 14343.25)
(104.8418 -19.35452 15545.77)
(56.79324 -54.54229 15167.35)
(17.86741 6.564971 876.6085)
(19.8973 6.72029 2743.109)
(22.65441 6.747123 4788.917)
(26.36025 6.598852 7055.306)
(31.32191 6.20401 9598.172)
(38.01219 5.461086 11258.06)
(46.53693 4.435835 11859.01)
(57.71322 3.007426 12541.94)
(72.57272 0.9175265 13333.66)
(92.07638 -2.308096 14283.38)
(108.6616 -8.170272 13805.87)
(57.95881 -20.34678 11512.51)
(26.26062 -76.94275 1875.634)
(55.83562 -17.46868 1626.073)
(24.98146 -52.69389 5696.516)
(59.06699 -1.473395 1468.658)
(55.79282 -6.306034 4903.479)
(25.90355 -18.24741 9601.521)
(51.13296 -0.3426004 1354.742)
(60.16298 1.436717 4421.891)
(59.25672 6.092772 8231.36)
(29.20632 17.31551 13602.04)
(43.34874 -2.233986 1265.894)
(52.18023 -0.819706 4078.378)
(63.01093 3.621586 7417.205)
(66.11796 15.31965 11634.63)
(34.76883 43.65157 17712.03)
(36.7024 -1.400757 1192.392)
(44.09063 -1.496429 3810.474)
(54.16419 -0.3540329 6838.747)
(67.34737 4.16359 10476.7)
(75.76107 16.78308 15133.6)
(42.11848 48.16743 19672.38)
(31.38384 5.522325 1128.674)
(37.19575 4.444439 3585.889)
(45.42336 3.24543 6382.547)
(56.88486 2.234023 9647.381)
(72.67365 2.694427 13609.82)
(86.92716 6.6909 16825.77)
(49.03086 21.45352 19371.64)
(27.16927 18.88898 1070.515)
(31.76201 17.91822 3386.241)
(38.17164 15.90524 5991.009)
(47.26054 12.60447 8978.854)
(60.10047 7.358033 12496.15)
(78.34286 -0.5499037 15105.75)
(95.9035 -12.00796 16620.16)
(54.26635 -32.9029 18905.67)
(23.93652 31.28385 1015.493)
(27.56711 31.03623 3200.765)
(32.62596 29.57355 5637.088)
(39.64621 26.3302 8396.096)
(49.57379 20.56999 11584.36)
(63.6713 10.65178 13825.51)
(82.73807 -3.897441 14904.51)
(101.5604 -29.06269 16316.14)
(57.01699 -83.27488 18299.24)
(21.44183 34.69783 964.5546)
(24.3779 35.07645 3031.497)
(28.41721 34.42977 5319.91)
(33.97581 32.34756 7887.651)
(41.6361 28.132 10816.41)
(52.41167 20.77991 12808.16)
(66.84408 10.01607 13652.23)
(86.24311 -6.371797 14681.34)
(104.863 -35.8056 16000.14)
(58.12112 -100.8585 17732.45)
(19.45983 29.31094 918.9733)
(21.87794 29.87093 2881.506)
(25.18675 29.74566 5042.557)
(29.67234 28.65139 7450.401)
(35.77896 26.19131 10171.9)
(44.13928 21.69845 11979.93)
(55.1445 15.41162 12682.26)
(69.84516 6.187551 13500.65)
(89.41787 -8.010524 14490.28)
(107.3475 -33.76746 15738.71)
(58.7454 -90.76265 15435.08)
(17.81637 18.79972 879.0015)
(19.84672 19.2301 2750.931)
(22.60757 19.28263 4803.293)
(26.32241 18.81931 7077.816)
(31.30112 17.62849 9631.032)
(38.02203 15.40952 11299.29)
(46.59359 12.34807 11905.42)
(57.84786 8.085368 12595.05)
(72.84702 1.854588 13395.83)
(92.66482 -7.748379 14358.88)
(110.0821 -25.17048 13893.11)
(59.02368 -61.55343 11613.42)
(16.40952 6.313853 844.273)
(18.13615 6.469249 2638.091)
(20.48178 6.511259 4597.971)
(23.61521 6.400006 6760.872)
(27.77945 6.079337 9176.275)
(33.31385 5.464005 10734.45)
(40.23287 4.638136 11272.31)
(49.04666 3.509483 11873.8)
(60.60253 1.947032 12557.17)
(75.99424 -0.3240471 13349.18)
(96.27348 -3.81582 12770.43)
(112.6256 -9.698027 10579.46)
(59.54041 -22.05671 8133.308)
(29.19455 -83.53024 1846.155)
(59.02973 -24.14594 1619.867)
(27.28369 -75.08018 5645.379)
(59.74252 -4.045781 1467.741)
(57.53553 -17.11375 4895.481)
(27.11902 -50.7154 9562.814)
(51.13296 0.3425998 1354.742)
(60.16298 -1.436718 4421.891)
(59.25672 -6.092773 8231.36)
(29.20632 -17.31551 13602.04)
(43.27962 -0.9254404 1265.731)
(51.94467 -0.3498708 4078.965)
(62.36505 1.362102 7421.962)
(64.51106 5.768604 11653.81)
(33.69645 16.04933 17784.45)
(36.71257 -2.4358 1192.248)
(43.99798 -2.237946 3811.36)
(53.80384 -0.9218815 6844.332)
(66.32294 3.181341 10496.1)
(73.14918 13.83791 15193.25)
(40.43613 38.40753 19852.38)
(31.45793 -0.8393692 1129.467)
(37.24706 -1.445946 3589.874)
(45.38738 -1.692655 6393.623)
(56.59996 -0.9269008 9673.547)
(71.76209 2.678598 13669.55)
(84.49326 12.87494 16953.53)
(47.5532 38.33881 19682.83)
(27.23306 6.27868 1073.64)
(31.85375 5.33948 3397.799)
(38.28149 3.951035 6015.63)
(47.3647 2.206723 9024.754)
(60.12637 0.1937939 12578.78)
(78.161 -1.354052 15240.4)
(95.16314 -0.2530691 16839.71)
(54.0931 5.662725 19384.27)
(23.91498 19.105 1021.802)
(27.58164 18.478 3222.445)
(32.69488 16.93895 5679.522)
(39.79019 14.10026 8467.851)
(49.83444 9.53402 11699.73)
(64.12316 2.22472 13988.27)
(83.57845 -7.552267 15119.93)
(103.4466 -22.76548 16634.66)
(58.80787 -54.87191 18919.91)
(21.34343 30.64548 972.0524)
(24.30177 30.69929 3056.576)
(28.38135 29.7051 5367.345)
(34.00912 27.24647 7964.611)
(41.78156 22.62032 10933.84)
(52.75692 14.8442 12963.51)
(67.52529 3.647177 13839.57)
(87.66253 -12.96083 14918.96)
(108.2924 -42.04682 16330.68)
(60.9536 -107.306 18313.2)
(19.34202 33.59207 925.511)
(21.76854 34.11169 2903.078)
(25.09841 33.77018 5082.673)
(29.62376 32.2056 7514.123)
(35.80132 28.91414 10266.61)
(44.28244 23.04919 12101.2)
(55.48541 14.87121 12822.35)
(70.53297 2.944815 13666.85)
(90.8803 -15.24325 14696.18)
(110.907 -47.94088 16014.8)
(61.55566 -121.5013 15836.18)
(17.72317 28.24614 883.527)
(19.75532 28.85278 2765.743)
(22.52457 28.86207 4830.559)
(26.25831 28.05284 7120.592)
(31.27183 26.08557 9693.625)
(38.05433 22.47822 11378)
(46.71931 17.49921 11994.2)
(58.12796 10.5725 12697)
(73.40167 0.4667728 13515.74)
(93.83371 -15.05963 14505.5)
(112.8974 -43.13842 14064.48)
(61.14426 -102.4648 11816.63)
(16.36027 18.08822 846.4877)
(18.08665 18.52298 2645.3)
(20.43473 18.62523 4611.154)
(23.57462 18.27706 6781.384)
(27.75172 17.31227 9205.99)
(33.30877 15.47837 10771.37)
(40.26198 13.01583 11313.38)
(49.12774 9.649553 11920.04)
(60.76941 4.989712 12610.1)
(76.31406 -1.781278 13411.16)
(96.93432 -12.18445 12837.51)
(114.1612 -29.69893 10645.74)
(60.66395 -66.70686 8204.196)
(15.17371 6.072474 814.1521)
(16.65935 6.225265 2540.634)
(18.6773 6.276602 4421.582)
(21.36663 6.192986 6490.501)
(24.91363 5.926656 8791.641)
(29.58637 5.410263 10261.49)
(35.3082 4.726917 10748.11)
(42.45582 3.818271 11286.55)
(51.5585 2.586407 11888.53)
(63.49373 0.8901387 12572.25)
(79.41723 -1.561843 11939.11)
(99.54344 -4.99136 9792.637)
(115.5411 -10.82134 7477.423)
(60.58235 -23.18229 4849.207)
(31.93996 -75.07732 1801.218)
(62.90313 -26.73686 1608.178)
(30.14646 -80.5536 5557)
(60.89101 -6.267612 1465.164)
(60.67161 -23.43014 4876.826)
(29.33484 -71.3621 9477.218)
(51.37284 0.7715003 1354.56)
(60.82857 -3.906006 4419.109)
(60.94525 -16.40255 8217.924)
(30.36101 -47.72175 13547.09)
(43.27962 0.92544 1265.731)
(51.94467 0.3498702 4078.965)
(62.36505 -1.362103 7421.962)
(64.51106 -5.768605 11653.81)
(33.69645 -16.04933 17784.45)
(36.70898 -1.03374 1191.911)
(43.93094 -0.9188956 3810.912)
(53.57688 -0.3660769 6845.428)
(65.70671 1.246438 10503.03)
(71.65273 5.325598 15218.67)
(39.46943 14.41876 19933.57)
(31.50276 -2.168175 1129.096)
(37.25976 -2.41657 3589.532)
(45.30412 -2.2515 6395.365)
(56.26759 -1.086953 9681.93)
(70.82175 2.56825 13695.72)
(82.18319 11.91704 17020.63)
(46.09582 33.2041 19861.47)
(27.30132 -0.2115154 1074.115)
(31.93104 -0.8562487 3400.324)
(38.343 -1.54648 6022.726)
(47.35471 -2.00913 9041.233)
(59.90606 -1.73598 12614.37)
(77.42433 0.7277026 15308.12)
(93.21811 8.988324 16966.88)
(52.98228 28.57431 19693.63)
(23.95319 6.842912 1024.437)
(27.65001 6.134672 3232.018)
(32.79933 4.959037 5699.458)
(39.9281 3.175758 8503.824)
(49.99759 0.7502778 11761.69)
(64.27741 -2.494403 14082.14)
(83.64817 -5.400456 15254.57)
(103.3954 -7.177952 16853.87)
(59.15245 -10.06494 19397.25)
(21.29876 19.05564 977.6793)
(24.28632 18.74727 3075.708)
(28.4114 17.63887 5404.268)
(34.10898 15.4234 8025.916)
(41.9834 11.59609 11029.86)
(53.12571 5.51123 13094.07)
(68.14718 -2.906941 14002.16)
(88.81486 -14.55231 15134.31)
(110.9889 -33.51735 16649.33)
(63.34867 -76.82336 18934.39)
(19.23425 29.85315 932.3287)
(21.67608 30.1205 2925.718)
(25.03671 29.51542 5125.11)
(29.61502 27.66191 7582.166)
(35.88168 24.04297 10368.86)
(44.50821 17.7922 12233.56)
(55.9416 9.13357 12977.19)
(71.38058 -3.345189 13853.74)
(92.58765 -22.01625 14933.44)
(115.0235 -55.03047 16345.16)
(64.88913 -131.3526 16352.25)
(17.60499 32.44205 889.5323)
(19.64211 33.05785 2785.453)
(22.42601 32.92934 4866.968)
(26.18967 31.77433 7177.951)
(31.25601 29.15917 9777.972)
(38.12956 24.46915 11484.54)
(46.93058 17.98705 12114.96)
(58.56077 8.982421 12836.58)
(74.22312 -4.107827 13681.44)
(95.5179 -24.09823 14710.89)
(116.9493 -60.0639 14309.75)
(64.22686 -137.5452 12121.01)
(16.26974 27.19709 850.6717)
(17.99637 27.82491 2658.936)
(20.35011 27.93006 4636.124)
(23.50367 27.32393 6820.308)
(27.70712 25.74025 9262.5)
(33.30993 22.77377 10841.73)
(40.33179 18.78146 11391.76)
(49.30128 13.31667 12008.48)
(61.11316 5.750438 12711.69)
(76.95952 -5.236679 13530.7)
(98.24991 -22.09119 12967.78)
(117.2167 -50.43295 10775.91)
(62.90826 -111.0666 8346.962)
(15.12652 17.40186 816.2092)
(16.61144 17.83227 2547.306)
(18.63087 17.96593 4433.731)
(21.32496 17.70396 6509.306)
(24.88161 16.9052 8818.71)
(29.5717 15.37033 10294.88)
(35.31877 13.33729 10784.89)
(42.50413 10.6316 11327.47)
(51.66393 6.960928 11934.6)
(63.69278 1.904449 12625.01)
(79.78247 -5.406166 11994.2)
(100.2604 -15.64266 9843.646)
(117.1612 -33.02836 7523.981)
(61.74454 -70.09956 4891.318)
(14.11567 5.841965 785.9996)
(15.40681 5.990188 2449.829)
(17.16257 6.046953 4257.875)
(19.49654 5.983304 6240.775)
(22.56217 5.759067 8438.553)
(26.5661 5.317247 9830.345)
(31.39586 4.743833 10274.53)
(37.30496 3.992616 10761.77)
(44.681 3.001348 11300.74)
(54.07237 1.666445 11903.13)
(66.38671 -0.1634329 11247.44)
(82.08619 -2.527965 9160.561)
(101.9491 -5.856191 6924.325)
(117.4616 -11.56036 4459.109)
(61.1008 -23.74116 1612.609)
(33.7243 -58.48811 1743.667)
(66.36318 -29.77983 1588.206)
(32.79201 -70.97783 5422.045)
(62.13843 -10.19567 1459.224)
(64.45085 -25.47041 4841.605)
(32.05613 -74.59687 9329.001)
(51.76094 -0.1868016 1353.537)
(61.95633 -5.926929 4411.286)
(63.9661 -21.99092 8186.508)
(32.44653 -65.72768 13425.44)
(43.34874 2.233986 1265.894)
(52.18023 0.8197054 4078.378)
(63.01093 -3.621587 7417.205)
(66.11796 -15.31965 11634.63)
(34.76883 -43.65157 17712.03)
(36.70898 1.033739 1191.911)
(43.93094 0.9188952 3810.912)
(53.57688 0.3660764 6845.428)
(65.70671 -1.246439 10503.03)
(71.65273 -5.325598 15218.67)
(39.46943 -14.41877 19933.57)
(31.52197 -0.9613078 1128.671)
(37.25722 -1.020269 3588.561)
(45.24124 -0.9074881 6394.724)
(56.05362 -0.3937063 9683.683)
(70.24557 1.084908 13705.11)
(80.82839 4.751807 17049.18)
(45.23399 12.80198 19941.95)
(27.34974 -1.795425 1073.611)
(31.97731 -2.136322 3399.29)
(38.36085 -2.383277 6022.389)
(47.28576 -2.28202 9044.141)
(59.61169 -1.327309 12626.06)
(76.59169 1.758821 15337.82)
(91.20743 10.01198 17033.46)
(51.74816 28.04292 19870.84)
(24.00569 0.3274627 1024.691)
(27.72043 -0.2103456 3233.571)
(32.88314 -0.899009 5704.062)
(40.0053 -1.716291 8514.584)
(50.02323 -2.468127 11784.45)
(64.14037 -2.818121 14122.78)
(83.0851 -1.218232 15322.16)
(101.9359 5.124956 16980.4)
(58.4061 18.87594 19704.72)
(21.31343 7.185788 979.93)
(24.32803 6.727354 3083.785)
(28.48912 5.833658 5420.813)
(34.23302 4.357905 8055.124)
(42.16001 2.081699 11078.59)
(53.36546 -1.181955 13164.62)
(68.42949 -5.186568 14096.14)
(89.13528 -9.443521 15268.94)
(111.6244 -14.0826 16868.2)
(64.2093 -25.72971 19410.52)
(19.1729 18.80501 937.39)
(21.63641 18.74053 2942.782)
(25.03363 18.01661 5157.696)
(29.66895 16.33929 7635.521)
(36.0242 13.31844 10450.93)
(44.78537 8.310094 12342.23)
(56.41859 1.489712 13107.56)
(72.17261 -8.038012 14016.24)
(94.05215 -21.55164 15148.85)
(118.5308 -44.26637 16664.1)
(67.88903 -98.7649 16904.43)
(17.49193 28.95428 895.7681)
(19.53939 29.37799 2806.04)
(22.34557 29.05734 4905.274)
(26.15005 27.69835 7238.817)
(31.28453 24.84919 9868.359)
(38.27103 19.87353 11599.76)
(47.23654 12.979 12246.84)
(59.12785 3.435541 12991)
(75.23714 -10.32836 13867.97)
(97.51336 -31.06753 14947.9)
(121.7536 -68.01892 14603.38)
(67.94909 -150.0359 12512.6)
(16.15323 31.27972 856.2131)
(17.88218 31.9524 2677.042)
(20.24617 31.98022 4669.387)
(23.42168 31.12308 6872.357)
(27.66548 29.04118 9338.403)
(33.33658 25.21622 10936.59)
(40.45976 20.04353 11497.83)
(49.5805 12.94366 12128.78)
(61.63771 3.1114 12850.81)
(77.91444 -11.14432 13695.94)
(100.1557 -32.93962 13150.3)
(121.6505 -69.49681 10962.17)
(66.19104 -149.3401 8560.858)
(15.03936 26.17574 820.092)
(16.52348 26.80807 2559.914)
(18.54648 26.97649 4456.718)
(21.25068 26.52343 6544.947)
(24.82715 25.22315 8870.116)
(29.55234 22.7563 10358.38)
(35.35028 19.47698 10854.95)
(42.61134 15.10004 11405.54)
(51.88516 9.149725 12022.73)
(64.10002 0.9441801 12726.27)
(80.51857 -10.9242 12100.45)
(101.6898 -27.57127 9942.691)
(120.3932 -55.79567 7615.421)
(64.07042 -116.7312 4976.148)
(14.07071 16.74466 787.9165)
(15.36081 17.16427 2456.028)
(17.11736 17.31701 4269.119)
(19.45479 17.11757 6258.102)
(22.52786 16.4474 8463.363)
(26.54513 15.13805 9860.755)
(31.39419 13.43662 10307.79)
(37.33112 11.2048 10798.42)
(44.74845 8.256317 11341.52)
(54.20207 4.281646 11949.06)
(66.61784 -1.171037 11294.36)
(82.48667 -8.23505 9202.494)
(102.7073 -18.18662 6960.169)
(119.1373 -35.21883 4486.745)
(62.28224 -71.78448 1626.581)
(13.2023 5.622861 759.6104)
(14.33384 5.765288 2364.936)
(15.8765 5.824533 4105.324)
(17.92438 5.775504 6009.027)
(20.6032 5.583522 8112.519)
(24.08312 5.200606 9434.578)
(28.22129 4.710237 9842.723)
(33.20791 4.079925 10287.58)
(39.30408 3.260967 10775.4)
(46.90835 2.18722 11314.83)
(56.58818 0.7494349 10651.51)
(68.64413 -0.986554 8634.355)
(84.05036 -3.239174 6479.948)
(103.5333 -6.42514 4130.248)
(118.417 -11.92678 1482.995)
(34.34381 -41.81866 1689.978)
(68.45891 -34.44966 1559.257)
(34.46195 -54.0385 5248.97)
(63.05422 -19.5195 1447.283)
(67.77892 -27.82297 4781.329)
(34.50283 -62.75612 9102.211)
(52.14 -5.104717 1350.154)
(63.17053 -9.48046 4393.267)
(67.55806 -22.91697 8127.026)
(34.95436 -65.5533 13214.48)
(43.44605 1.403965 1265.632)
(52.55906 -0.01055818 4075.205)
(64.09749 -5.233915 7403.846)
(68.9651 -19.7942 11589.7)
(36.67782 -58.05798 17551.59)
(36.71257 2.435799 1192.248)
(43.99798 2.237946 3811.36)
(53.80384 0.9218809 6844.332)
(66.32294 -3.181341 10496.1)
(73.14918 -13.83791 15193.25)
(40.43613 -38.40753 19852.38)
(31.52197 0.9613075 1128.671)
(37.25722 1.020269 3588.561)
(45.24124 0.9074877 6394.724)
(56.05362 0.3937058 9683.683)
(70.24557 -1.084909 13705.11)
(80.82839 -4.751808 17049.18)
(45.23399 -12.80198 19941.95)
(27.37339 -0.8417016 1073.141)
(31.99705 -0.9443058 3398.05)
(38.36043 -0.9948912 6020.865)
(47.22919 -0.8932717 9043.426)
(59.41531 -0.4361991 12628.67)
(76.06671 0.8708193 15348.48)
(89.99309 4.183701 17061.71)
(50.99037 11.19954 19950.59)
(24.04687 -1.447529 1024.107)
(27.7697 -1.756452 3232.129)
(32.93238 -2.077236 5702.542)
(40.03105 -2.342131 8514.507)
(49.97381 -2.339204 11788.92)
(63.89481 -1.659154 14136.29)
(82.35912 0.9538858 15351.71)
(100.2222 8.123753 17046.42)
(57.3935 22.9255 19880.47)
(21.34872 0.725333 980.0254)
(24.38205 0.3406266 3084.663)
(28.56397 -0.2159652 5423.748)
(34.32695 -0.9796214 8062.28)
(42.25882 -1.973807 11093.74)
(53.43723 -3.098321 13190.84)
(68.37519 -3.902175 14136.84)
(88.7445 -3.157748 15336.35)
(110.6472 1.286504 16994.03)
(63.82504 9.245602 19716.06)
(19.1688 7.342463 939.3332)
(21.65384 7.091943 2949.69)
(25.0825 6.484725 5171.681)
(29.76112 5.355471 7659.818)
(36.17535 3.504481 10490.62)
(45.01239 0.6207312 12397.82)
(56.73485 -3.120372 13178.26)
(72.58268 -7.881495 14110.31)
(94.62243 -13.48202 15283.44)
(119.8507 -20.96593 16882.61)
(69.26408 -41.33196 17326.88)
(17.41895 18.4011 900.3514)
(19.48222 18.52483 2821.388)
(22.31604 18.09676 4934.339)
(26.16604 16.88443 7285.91)
(31.37142 14.53279 9939.809)
(38.46919 10.55308 11692.65)
(47.58909 5.025554 12355.3)
(59.71314 -2.531321 13121.23)
(76.1995 -13.16959 14030.45)
(99.2904 -28.55193 15163.45)
(126.0727 -55.01543 14887)
(71.4184 -115.8084 12931.59)
(16.03814 27.99275 861.9449)
(17.77347 28.52151 2695.871)
(20.15364 28.41574 4704.217)
(23.35965 27.42565 6927.29)
(27.65621 25.19705 9419.241)
(33.41348 21.18843 11038.42)
(40.66223 15.71871 11612.6)
(49.9666 8.178528 12260.23)
(62.31565 -2.252449 13004.85)
(79.09494 -17.30544 13882.18)
(102.4396 -40.11859 13361)
(126.9885 -78.12058 11185.08)
(70.19919 -163.7755 8836.139)
(14.92589 30.12608 825.2253)
(16.41046 30.82879 2576.623)
(18.44031 30.96464 4487.272)
(21.1609 30.33414 6592.491)
(24.76785 28.65005 8938.974)
(29.54566 25.50468 10443.73)
(35.41924 21.29141 10949.38)
(42.79189 15.63556 11511.18)
(52.23218 7.917111 12142.59)
(64.71617 -2.74403 12864.96)
(81.60683 -18.16716 12247.33)
(103.7676 -39.82709 10081.42)
(125.1076 -76.43087 7746.263)
(67.48524 -157.1123 5103.308)
(13.98736 25.19075 791.5314)
(15.27592 25.8151 2467.729)
(17.03456 26.02444 4290.373)
(19.37938 25.68326 6290.906)
(22.46772 24.60267 8510.42)
(26.51199 22.51336 9918.514)
(31.39997 19.78615 10371.02)
(37.39287 16.19429 10868.19)
(44.89295 11.43293 11419.3)
(54.47087 4.997243 12036.88)
(67.08844 -3.847541 11384.39)
(83.2931 -15.36155 9283.341)
(104.2202 -31.60207 7029.763)
(122.4855 -59.32423 4541.026)
(64.64875 -119.5461 1654.732)
(13.15961 16.11878 761.4017)
(14.28994 16.52339 2370.713)
(15.8329 16.68586 4115.769)
(17.88329 16.53235 6025.061)
(20.56785 15.96068 8135.373)
(24.05831 14.82928 9462.447)
(28.21134 13.37841 9873.017)
(33.2192 11.51074 10320.72)
(39.34579 9.080438 10811.92)
(46.99488 5.889486 11355.47)
(56.7421 1.611139 10692.36)
(68.90016 -3.573469 8670.09)
(84.47669 -10.31734 6509.428)
(104.3187 -19.86021 4151.52)
(120.1204 -36.30503 1492.156)
(12.40892 5.415048 734.8123)
(13.40705 5.551209 2285.338)
(14.77364 5.610893 3962.683)
(16.58757 5.572371 5793.092)
(18.9533 5.405576 7810.035)
(22.01061 5.069153 9069.141)
(25.60698 4.644319 9446.251)
(29.87921 4.105511 9855.117)
(35.02248 3.418415 10300.6)
(41.30553 2.531833 10788.93)
(49.13779 1.375732 10127.35)
(58.55273 0.0323817 8180.708)
(70.30613 -1.592864 6109.908)
(85.34385 -3.707153 3866.073)
(104.3212 -6.707068 1373.758)
(34.30602 -28.62225 1648.08)
(69.07919 -36.00148 1528.898)
(34.98812 -37.99514 5087.319)
(63.42889 -31.32807 1427.917)
(69.72191 -32.07735 4693.947)
(35.9444 -45.09907 8810.866)
(52.35715 -16.87526 1342)
(64.03905 -18.26724 4357.082)
(70.62303 -23.87348 8025.052)
(37.10064 -50.2524 12891.14)
(43.50749 -4.233513 1263.583)
(52.92256 -4.643231 4064.857)
(65.24543 -8.027509 7373.122)
(72.27437 -19.01218 11504.44)
(38.89632 -53.22466 17273.02)
(36.7024 1.400757 1192.392)
(44.09063 1.496428 3810.474)
(54.16419 0.3540322 6838.747)
(67.34737 -4.163591 10476.7)
(75.76107 -16.78308 15133.6)
(42.11848 -48.16743 19672.38)
(31.50276 2.168175 1129.096)
(37.25976 2.41657 3589.532)
(45.30412 2.251499 6395.365)
(56.26759 1.086952 9681.93)
(70.82175 -2.568251 13695.72)
(82.18319 -11.91704 17020.63)
(46.09582 -33.2041 19861.47)
(27.37339 0.8417014 1073.141)
(31.99705 0.9443055 3398.05)
(38.36043 0.9948909 6020.865)
(47.22919 0.8932713 9043.426)
(59.41531 0.4361986 12628.67)
(76.06671 -0.8708199 15348.48)
(89.99309 -4.183701 17061.71)
(50.99037 -11.19954 19950.59)