/*--------------------------------*- C++ -*----------------------------------*\
| =========                 |                                                 |
| \\      /  F ield         | OpenFOAM: The Open Source CFD Toolbox           |
|  \\    /   O peration     | Version:  2306                                  |
|   \\  /    A nd           | Website:  www.openfoam.com                      |
|    \\/     M anipulation  |                                                 |
\*---------------------------------------------------------------------------*/
FoamFile
{
    version     2.0;
    format      ascii;
    arch        "LSB;label=32;scalar=64";
    class       volScalarField;
    location    "1.5/phiI";
    object      J;
}
// * * * * * * * * * * * * * * * * * * * * * * * * * * * * * * * * * * * * * //

dimensions      [0 -3 0 0 0 1 0];

internalField   nonuniform List<scalar> 
12000
(
-8.009318e+08
-8.079457e+08
-7.359362e+08
-8.071909e+08
-8.220365e+08
-7.40574e+08
-8.143295e+08
-6.810546e+08
-7.414517e+08
-8.235627e+08
-8.43068e+08
-7.496678e+08
-8.286698e+08
-6.846385e+08
-7.461754e+08
-8.309981e+08
-6.36952e+08
-6.86021e+08
-7.557523e+08
-8.505659e+08
-8.699992e+08
-7.626191e+08
-8.500635e+08
-6.915921e+08
-7.554403e+08
-8.459381e+08
-6.399049e+08
-6.896716e+08
-7.606728e+08
-8.584845e+08
-6.002425e+08
-6.415095e+08
-6.987489e+08
-7.792449e+08
-8.892256e+08
-8.989635e+08
-7.77932e+08
-8.774149e+08
-7.0129e+08
-7.686439e+08
-8.682295e+08
-6.455982e+08
-6.967579e+08
-7.703295e+08
-8.744048e+08
-6.027626e+08
-6.445173e+08
-7.025501e+08
-7.844815e+08
-8.978419e+08
-5.686098e+08
-6.044747e+08
-6.530598e+08
-7.195662e+08
-8.127385e+08
0
-9.216787e+08
-7.924826e+08
-9.067225e+08
-7.123213e+08
-7.842744e+08
-8.967101e+08
-6.53438e+08
-7.066513e+08
-7.841075e+08
-8.981759e+08
-6.076012e+08
-6.503192e+08
-7.09934e+08
-7.947674e+08
-9.151799e+08
-5.708079e+08
-6.070414e+08
-6.5619e+08
-7.236074e+08
-8.184266e+08
0
-5.407952e+08
-5.72568e+08
-6.150931e+08
-6.718757e+08
-7.491283e+08
0
0
-9.36709e+08
-8.02482e+08
-9.296376e+08
-7.22075e+08
-7.991598e+08
-9.271532e+08
-6.621427e+08
-7.179334e+08
-8.004517e+08
-9.285563e+08
-6.142077e+08
-6.583189e+08
-7.202598e+08
-8.094674e+08
-9.411018e+08
-5.750155e+08
-6.119719e+08
-6.622333e+08
-7.314654e+08
-8.296113e+08
0
-5.427436e+08
-5.748063e+08
-6.17763e+08
-6.752004e+08
-7.535099e+08
0
0
-5.159382e+08
-5.445162e+08
-5.824114e+08
-6.323302e+08
-6.985059e+08
0
0
0
-9.454735e+08
-8.083912e+08
-9.447442e+08
-7.279989e+08
-8.093963e+08
-9.509012e+08
-6.694723e+08
-7.27967e+08
-8.160677e+08
-9.609929e+08
-6.214242e+08
-6.672298e+08
-7.320753e+08
-8.269534e+08
-9.742718e+08
-5.807258e+08
-6.187133e+08
-6.705815e+08
-7.424773e+08
-8.456282e+08
0
-5.464651e+08
-5.790934e+08
-6.228965e+08
-6.81626e+08
-7.620401e+08
0
0
-5.176856e+08
-5.465e+08
-5.847388e+08
-6.351635e+08
-7.02105e+08
0
0
0
-4.934838e+08
-5.194496e+08
-5.536983e+08
-5.983413e+08
-6.566555e+08
0
0
0
0
-9.494606e+08
-8.115687e+08
-9.535228e+08
-7.30949e+08
-8.154249e+08
-9.665112e+08
-6.734853e+08
-7.341021e+08
-8.268225e+08
-9.862575e+08
-6.272942e+08
-6.747951e+08
-7.426569e+08
-8.437286e+08
-1.009692e+09
-5.868904e+08
-6.261037e+08
-6.7992e+08
-7.551295e+08
-8.647439e+08
0
-5.514929e+08
-5.849196e+08
-6.299297e+08
-6.905236e+08
-7.740232e+08
0
0
-5.210172e+08
-5.502911e+08
-5.892003e+08
-6.406174e+08
-7.090698e+08
0
0
0
-4.950653e+08
-5.212284e+08
-5.557601e+08
-6.008091e+08
-6.597186e+08
0
0
0
0
-4.730169e+08
-4.968076e+08
-5.280552e+08
-5.685176e+08
-6.207659e+08
0
0
0
0
0
-9.494606e+08
-8.129486e+08
-9.575067e+08
-7.322435e+08
-8.186477e+08
-9.755579e+08
-6.751246e+08
-7.3717e+08
-8.331433e+08
-1.00283e+09
-6.302404e+08
-6.789912e+08
-7.491784e+08
-8.553061e+08
-1.037261e+09
-5.917772e+08
-6.321742e+08
-6.879252e+08
-7.665483e+08
-8.831682e+08
0
-5.568733e+08
-5.912333e+08
-6.376767e+08
-7.005263e+08
-7.87854e+08
0
0
-5.255023e+08
-5.554202e+08
-5.952767e+08
-6.48109e+08
-7.187407e+08
0
0
0
-4.980765e+08
-5.246216e+08
-5.597037e+08
-6.055456e+08
-6.656228e+08
0
0
0
0
-4.744587e+08
-4.984172e+08
-5.299031e+08
-5.707022e+08
-6.234307e+08
0
0
0
0
0
-4.542363e+08
-4.761711e+08
-5.049041e+08
-5.419107e+08
-5.893332e+08
0
0
0
0
0
9.050894e+08
-9.454735e+08
-8.129486e+08
-9.575067e+08
-7.327118e+08
-8.200398e+08
-9.796558e+08
-6.756132e+08
-7.385184e+08
-8.365082e+08
-1.012417e+09
-6.312012e+08
-6.807373e+08
-7.524618e+08
-8.621049e+08
-1.055324e+09
-5.94055e+08
-6.352786e+08
-6.924309e+08
-7.736458e+08
-8.959159e+08
0
-5.610558e+08
-5.962925e+08
-6.441135e+08
-7.091906e+08
-8.004371e+08
0
0
-5.30269e+08
-5.609302e+08
-6.018948e+08
-6.564067e+08
-7.296717e+08
0
0
0
-5.021185e+08
-5.291962e+08
-5.65051e+08
-6.120139e+08
-6.737569e+08
0
0
0
0
-4.772005e+08
-5.014835e+08
-5.334314e+08
-5.748858e+08
-6.285523e+08
0
0
0
0
0
-4.555585e+08
-4.776382e+08
-5.065756e+08
-5.438673e+08
-5.916896e+08
0
0
0
0
0
9.133198e+08
-4.369045e+08
-4.572361e+08
-4.838131e+08
-5.17912e+08
-5.613349e+08
0
0
0
0
0
8.286323e+08
8.631418e+08
-9.36709e+08
-8.115687e+08
-9.535228e+08
-7.327118e+08
-8.200398e+08
-9.796558e+08
-6.756977e+08
-7.39006e+08
-8.379559e+08
-1.016754e+09
-6.312974e+08
-6.812782e+08
-7.539137e+08
-8.657152e+08
-1.065762e+09
-5.946252e+08
-6.363335e+08
-6.943494e+08
-7.7725e+08
-9.034034e+08
0
-5.628851e+08
-5.987072e+08
-6.474752e+08
-7.141426e+08
-8.083252e+08
0
0
-5.339166e+08
-5.652623e+08
-6.072658e+08
-6.633867e+08
-7.39241e+08
0
0
0
-5.063903e+08
-5.340768e+08
-5.708255e+08
-6.191007e+08
-6.828205e+08
0
0
0
0
-4.80872e+08
-5.056053e+08
-5.381986e+08
-5.805744e+08
-6.355685e+08
0
0
0
0
0
-4.580702e+08
-4.804296e+08
-5.097626e+08
-5.476077e+08
-5.962088e+08
0
0
0
0
0
9.299381e+08
-4.381231e+08
-4.585813e+08
-4.853359e+08
-5.196806e+08
-5.634432e+08
0
0
0
0
0
8.339968e+08
8.707697e+08
-4.208365e+08
-4.39763e+08
-4.644689e+08
-4.960671e+08
-5.361164e+08
0
0
0
0
0
7.642648e+08
7.922003e+08
8.335898e+08
-9.216787e+08
-8.083912e+08
-9.447442e+08
-7.322435e+08
-8.186477e+08
-9.755579e+08
-6.756977e+08
-7.39006e+08
-8.379559e+08
-1.016754e+09
-6.312023e+08
-6.813832e+08
-7.544414e+08
-8.672642e+08
-1.070481e+09
-5.945137e+08
-6.364771e+08
-6.949731e+08
-7.788585e+08
-9.073747e+08
0
-5.632158e+08
-5.993597e+08
-6.48673e+08
-7.163039e+08
-8.123684e+08
0
0
-5.354242e+08
-5.67211e+08
-6.098992e+08
-6.671126e+08
-7.447927e+08
0
0
0
-5.096165e+08
-5.378554e+08
-5.754276e+08
-6.249319e+08
-6.90541e+08
0
0
0
0
-4.847337e+08
-5.099781e+08
-5.43312e+08
-5.867556e+08
-6.433051e+08
0
0
0
0
0
-4.614267e+08
-4.841728e+08
-5.140562e+08
-5.52676e+08
-6.023732e+08
0
0
0
0
0
9.549412e+08
-4.404357e+08
-4.61138e+08
-4.88236e+08
-5.23057e+08
-5.674797e+08
0
0
0
0
0
8.445566e+08
8.861611e+08
-4.219642e+08
-4.410026e+08
-4.658647e+08
-4.976774e+08
-5.380204e+08
0
0
0
0
0
7.683651e+08
7.971961e+08
8.408179e+08
-4.058811e+08
-4.23565e+08
-4.46625e+08
-4.760466e+08
-5.131897e+08
0
0
0
0
0
7.126777e+08
7.322773e+08
7.663213e+08
8.154838e+08
-8.989635e+08
-8.02482e+08
-9.296376e+08
-7.30949e+08
-8.154249e+08
-9.665112e+08
-6.756132e+08
-7.385184e+08
-8.365082e+08
-1.012417e+09
-6.312023e+08
-6.813832e+08
-7.544414e+08
-8.672642e+08
-1.070481e+09
-5.943291e+08
-6.36401e+08
-6.951101e+08
-7.794481e+08
-9.090762e+08
0
-5.629897e+08
-5.992902e+08
-6.488851e+08
-7.170429e+08
-8.141924e+08
0
0
-5.35598e+08
-5.676138e+08
-6.106727e+08
-6.685057e+08
-7.472756e+08
0
0
0
-5.108828e+08
-5.394678e+08
-5.775653e+08
-6.278716e+08
-6.947502e+08
0
0
0
0
-4.876168e+08
-5.133199e+08
-5.473273e+08
-5.917553e+08
-6.497606e+08
0
0
0
0
0
-4.649422e+08
-4.881247e+08
-5.186359e+08
-5.581471e+08
-6.09117e+08
0
0
0
0
0
9.873774e+08
-4.435203e+08
-4.645592e+08
-4.921337e+08
-5.27619e+08
-5.729671e+08
0
0
0
0
0
8.597334e+08
9.092952e+08
-4.241026e+08
-4.433561e+08
-4.685199e+08
-5.007479e+08
-5.416607e+08
0
0
0
0
0
7.763412e+08
8.070253e+08
8.554003e+08
-4.069286e+08
-4.24712e+08
-4.479107e+08
-4.775217e+08
-5.149218e+08
0
0
0
0
0
7.160289e+08
7.361111e+08
7.710666e+08
8.224918e+08
-3.919154e+08
-4.084897e+08
-4.300891e+08
-4.575919e+08
-4.922016e+08
0
0
0
0
0
6.698447e+08
6.841159e+08
7.094176e+08
7.502442e+08
8.078611e+08
-8.699992e+08
-7.924826e+08
-9.067225e+08
-7.279989e+08
-8.093963e+08
-9.509012e+08
-6.751246e+08
-7.3717e+08
-8.331433e+08
-1.00283e+09
-6.312974e+08
-6.812782e+08
-7.539137e+08
-8.657152e+08
-1.065762e+09
-5.943291e+08
-6.36401e+08
-6.951101e+08
-7.794481e+08
-9.090762e+08
0
-5.6276e+08
-5.991226e+08
-6.488355e+08
-7.172245e+08
-8.148682e+08
0
0
-5.353058e+08
-5.674245e+08
-6.106611e+08
-6.688089e+08
-7.48166e+08
0
0
0
-5.109491e+08
-5.39705e+08
-5.780723e+08
-6.288078e+08
-6.963968e+08
0
0
0
0
-4.886949e+08
-5.146791e+08
-5.491052e+08
-5.941562e+08
-6.531036e+08
0
0
0
0
0
-4.675399e+08
-4.911107e+08
-5.221875e+08
-5.625108e+08
-6.146547e+08
0
0
0
0
0
1.022303e+09
-4.467388e+08
-4.681558e+08
-4.96271e+08
-5.325168e+08
-5.789322e+08
0
0
0
0
0
8.78073e+08
9.392717e+08
-4.269501e+08
-4.464995e+08
-4.720809e+08
-5.048867e+08
-5.465957e+08
0
0
0
0
0
7.875588e+08
8.211415e+08
8.773147e+08
-4.089131e+08
-4.268878e+08
-4.503539e+08
-4.803313e+08
-5.182294e+08
0
0
0
0
0
7.224991e+08
7.435657e+08
7.804009e+08
8.366344e+08
-3.928914e+08
-4.095548e+08
-4.312782e+08
-4.589497e+08
-4.937869e+08
0
0
0
0
0
6.726861e+08
6.872595e+08
7.130676e+08
7.548443e+08
8.148062e+08
-3.788367e+08
-3.944128e+08
-4.147043e+08
-4.405007e+08
-4.728748e+08
0
0
0
0
0
6.330237e+08
6.440297e+08
6.636171e+08
6.950789e+08
7.432068e+08
-8.43068e+08
-7.77932e+08
-8.774149e+08
-7.22075e+08
-7.991598e+08
-9.271532e+08
-6.734853e+08
-7.341021e+08
-8.268225e+08
-9.862575e+08
-6.312012e+08
-6.807373e+08
-7.524618e+08
-8.621049e+08
-1.055324e+09
-5.945137e+08
-6.364771e+08
-6.949731e+08
-7.788585e+08
-9.073747e+08
0
-5.6276e+08
-5.991226e+08
-6.488355e+08
-7.172245e+08
-8.148682e+08
0
0
-5.350536e+08
-5.672099e+08
-6.105159e+08
-6.687938e+08
-7.484056e+08
0
0
0
-5.106184e+08
-5.394454e+08
-5.779327e+08
-6.28871e+08
-6.968159e+08
0
0
0
0
-4.886843e+08
-5.148015e+08
-5.494334e+08
-5.948021e+08
-6.542484e+08
0
0
0
0
0
-4.684672e+08
-4.922716e+08
-5.23693e+08
-5.645185e+08
-6.174007e+08
0
0
0
0
0
1.048578e+09
-4.490946e+08
-4.708458e+08
-4.994445e+08
-5.363771e+08
-5.837666e+08
0
0
0
0
0
8.959458e+08
9.715074e+08
-4.299109e+08
-4.497914e+08
-4.758449e+08
-5.093092e+08
-5.519321e+08
0
0
0
0
0
8.006322e+08
8.381845e+08
9.057151e+08
-4.115517e+08
-4.297889e+08
-4.536245e+08
-4.841104e+08
-5.22703e+08
0
0
0
0
0
7.314747e+08
7.540428e+08
7.938032e+08
8.579031e+08
-3.94739e+08
-4.115737e+08
-4.335362e+08
-4.615335e+08
-4.968109e+08
0
0
0
0
0
6.781436e+08
6.933264e+08
7.201631e+08
7.63894e+08
8.288327e+08
-3.797486e+08
-3.954051e+08
-4.158082e+08
-4.41756e+08
-4.743329e+08
0
0
0
0
0
6.354884e+08
6.467024e+08
6.666161e+08
6.986192e+08
7.477543e+08
-3.665589e+08
-3.812309e+08
-4.003428e+08
-4.246089e+08
-4.54993e+08
0
0
0
0
0
6.007059e+08
6.094938e+08
6.254428e+08
6.506765e+08
6.886487e+08
-8.220365e+08
-7.626191e+08
-8.500635e+08
-7.123213e+08
-7.842744e+08
-8.967101e+08
-6.694723e+08
-7.27967e+08
-8.160677e+08
-9.609929e+08
-6.302404e+08
-6.789912e+08
-7.491784e+08
-8.553061e+08
-1.037261e+09
-5.946252e+08
-6.363335e+08
-6.943494e+08
-7.7725e+08
-9.034034e+08
0
-5.629897e+08
-5.992902e+08
-6.488851e+08
-7.170429e+08
-8.141924e+08
0
0
-5.350536e+08
-5.672099e+08
-6.105159e+08
-6.687938e+08
-7.484056e+08
0
0
0
-5.103557e+08
-5.392064e+08
-5.777372e+08
-6.287538e+08
-6.96844e+08
0
0
0
0
-4.88331e+08
-5.144995e+08
-5.492169e+08
-5.947258e+08
-6.54405e+08
0
0
0
0
0
-4.684001e+08
-4.923111e+08
-5.238957e+08
-5.649672e+08
-6.182232e+08
0
0
0
0
0
1.065081e+09
-4.498982e+08
-4.718474e+08
-5.007359e+08
-5.380856e+08
-5.860746e+08
0
0
0
0
0
9.080059e+08
9.956682e+08
-4.320588e+08
-4.522304e+08
-4.787035e+08
-5.127587e+08
-5.562092e+08
0
0
0
0
0
8.126584e+08
8.54777e+08
9.362704e+08
-4.142865e+08
-4.328164e+08
-4.570684e+08
-4.881318e+08
-5.275184e+08
0
0
0
0
0
7.41689e+08
7.662429e+08
8.099819e+08
8.855079e+08
-3.971921e+08
-4.142614e+08
-4.365535e+08
-4.650025e+08
-5.008926e+08
0
0
0
0
0
6.856417e+08
7.017372e+08
7.301325e+08
7.768908e+08
8.499582e+08
-3.814735e+08
-3.972843e+08
-4.179026e+08
-4.441426e+08
-4.771119e+08
0
0
0
0
0
6.402039e+08
6.518338e+08
6.724025e+08
7.055014e+08
7.567038e+08
-3.674131e+08
-3.821579e+08
-4.013709e+08
-4.257736e+08
-4.563401e+08
0
0
0
0
0
6.028804e+08
6.118178e+08
6.279972e+08
6.535877e+08
6.921449e+08
-3.550074e+08
-3.688569e+08
-3.868983e+08
-4.097824e+08
-4.383807e+08
0
0
0
0
0
5.718621e+08
5.791203e+08
5.925091e+08
6.136553e+08
6.447881e+08
-8.079457e+08
-7.496678e+08
-8.286698e+08
-7.0129e+08
-7.686439e+08
-8.682295e+08
-6.621427e+08
-7.179334e+08
-8.004517e+08
-9.285563e+08
-6.272942e+08
-6.747951e+08
-7.426569e+08
-8.437286e+08
-1.009692e+09
-5.94055e+08
-6.352786e+08
-6.924309e+08
-7.736458e+08
-8.959159e+08
0
-5.632158e+08
-5.993597e+08
-6.48673e+08
-7.163039e+08
-8.123684e+08
0
0
-5.353058e+08
-5.674245e+08
-6.106611e+08
-6.688089e+08
-7.48166e+08
0
0
0
-5.103557e+08
-5.392064e+08
-5.777372e+08
-6.287538e+08
-6.96844e+08
0
0
0
0
-4.880648e+08
-5.142486e+08
-5.489944e+08
-5.945536e+08
-6.543219e+08
0
0
0
0
0
-4.680342e+08
-4.919834e+08
-5.236317e+08
-5.648052e+08
-6.182249e+08
0
0
0
0
0
1.074371e+09
-4.497886e+08
-4.718252e+08
-5.008469e+08
-5.383944e+08
-5.86676e+08
0
0
0
0
0
9.147336e+08
1.010795e+09
-4.327592e+08
-4.53101e+08
-4.798225e+08
-5.142312e+08
-5.581826e+08
0
0
0
0
0
8.201033e+08
8.659403e+08
9.59113e+08
-4.162536e+08
-4.350397e+08
-4.5966e+08
-4.912391e+08
-5.313402e+08
0
0
0
0
0
7.507157e+08
7.774538e+08
8.257319e+08
9.152753e+08
-3.997269e+08
-4.170572e+08
-4.397197e+08
-4.686802e+08
-5.052686e+08
0
0
0
0
0
6.940293e+08
7.113002e+08
7.417375e+08
7.925903e+08
8.774529e+08
-3.837608e+08
-3.997826e+08
-4.20697e+08
-4.473413e+08
-4.808559e+08
0
0
0
0
0
6.466359e+08
6.588794e+08
6.804216e+08
7.151717e+08
7.695662e+08
-3.690274e+08
-3.83912e+08
-4.033197e+08
-4.279861e+08
-4.589049e+08
0
0
0
0
0
6.07028e+08
6.162622e+08
6.329002e+08
6.592045e+08
6.989428e+08
-3.558092e+08
-3.697251e+08
-3.878584e+08
-4.108666e+08
-4.396296e+08
0
0
0
0
0
5.738043e+08
5.811751e+08
5.947338e+08
6.161371e+08
6.476622e+08
-3.44119e+08
-3.572157e+08
-3.742812e+08
-3.959097e+08
-4.228945e+08
0
0
0
0
0
5.458241e+08
5.519606e+08
5.635065e+08
5.817003e+08
6.082402e+08
-8.009318e+08
-7.40574e+08
-8.143295e+08
-6.915921e+08
-7.554403e+08
-8.459381e+08
-6.53438e+08
-7.066513e+08
-7.841075e+08
-8.981759e+08
-6.214242e+08
-6.672298e+08
-7.320753e+08
-8.269534e+08
-9.742718e+08
-5.917772e+08
-6.321742e+08
-6.879252e+08
-7.665483e+08
-8.831682e+08
0
-5.628851e+08
-5.987072e+08
-6.474752e+08
-7.141426e+08
-8.083252e+08
0
0
-5.35598e+08
-5.676138e+08
-6.106727e+08
-6.685057e+08
-7.472756e+08
0
0
0
-5.106184e+08
-5.394454e+08
-5.779327e+08
-6.28871e+08
-6.968159e+08
0
0
0
0
-4.880648e+08
-5.142486e+08
-5.489944e+08
-5.945536e+08
-6.543219e+08
0
0
0
0
0
-4.677685e+08
-4.917276e+08
-5.233952e+08
-5.646028e+08
-6.180809e+08
0
0
0
0
0
1.078514e+09
-4.494166e+08
-4.714823e+08
-5.005528e+08
-5.381779e+08
-5.865807e+08
0
0
0
0
0
9.181434e+08
1.01929e+09
-4.326173e+08
-4.53032e+08
-4.798644e+08
-5.144364e+08
-5.586252e+08
0
0
0
0
0
8.237258e+08
8.72152e+08
9.733875e+08
-4.168669e+08
-4.358011e+08
-4.606369e+08
-4.925208e+08
-5.330488e+08
0
0
0
0
0
7.559393e+08
7.843736e+08
8.363007e+08
9.374992e+08
-4.015354e+08
-4.19093e+08
-4.420819e+08
-4.714972e+08
-5.087111e+08
0
0
0
0
0
7.012224e+08
7.197408e+08
7.523966e+08
8.078881e+08
9.072181e+08
-3.861174e+08
-4.023734e+08
-4.236197e+08
-4.507209e+08
-4.848554e+08
0
0
0
0
0
6.537369e+08
6.667535e+08
6.895349e+08
7.264312e+08
7.851248e+08
-3.711655e+08
-3.862409e+08
-4.059163e+08
-4.30947e+08
-4.623549e+08
0
0
0
0
0
6.126535e+08
6.223205e+08
6.396296e+08
6.669879e+08
7.084983e+08
-3.573235e+08
-3.713666e+08
-3.89677e+08
-4.129243e+08
-4.420058e+08
0
0
0
0
0
5.774997e+08
5.850927e+08
5.989874e+08
6.209003e+08
6.53208e+08
-3.448732e+08
-3.580305e+08
-3.751801e+08
-3.969217e+08
-4.240563e+08
0
0
0
0
0
5.475758e+08
5.537994e+08
5.654765e+08
5.838637e+08
6.106904e+08
-3.33838e+08
-3.462433e+08
-3.624143e+08
-3.828971e+08
-4.084156e+08
0
0
0
0
0
5.220944e+08
5.273995e+08
5.375396e+08
5.53543e+08
5.767016e+08
-7.359362e+08
-8.071909e+08
-6.846385e+08
-7.461754e+08
-8.309981e+08
-6.455982e+08
-6.967579e+08
-7.703295e+08
-8.744048e+08
-6.142077e+08
-6.583189e+08
-7.202598e+08
-8.094674e+08
-9.411018e+08
-5.868904e+08
-6.261037e+08
-6.7992e+08
-7.551295e+08
-8.647439e+08
0
-5.610558e+08
-5.962925e+08
-6.441135e+08
-7.091906e+08
-8.004371e+08
0
0
-5.354242e+08
-5.67211e+08
-6.098992e+08
-6.671126e+08
-7.447927e+08
0
0
0
-5.109491e+08
-5.39705e+08
-5.780723e+08
-6.288078e+08
-6.963968e+08
0
0
0
0
-4.88331e+08
-5.144995e+08
-5.492169e+08
-5.947258e+08
-6.54405e+08
0
0
0
0
0
-4.677685e+08
-4.917276e+08
-5.233952e+08
-5.646028e+08
-6.180809e+08
0
0
0
0
0
1.078514e+09
-4.491536e+08
-4.712259e+08
-5.003098e+08
-5.379589e+08
-5.86402e+08
0
0
0
0
0
9.195561e+08
1.023073e+09
-4.322435e+08
-4.526807e+08
-4.795516e+08
-5.141844e+08
-5.584669e+08
0
0
0
0
0
8.252525e+08
8.752946e+08
9.813956e+08
-4.167002e+08
-4.35696e+08
-4.606258e+08
-4.926472e+08
-5.333726e+08
0
0
0
0
0
7.581613e+08
7.877302e+08
8.421712e+08
9.513809e+08
-4.020742e+08
-4.197619e+08
-4.429399e+08
-4.726213e+08
-5.102048e+08
0
0
0
0
0
7.051642e+08
7.246094e+08
7.589557e+08
8.181308e+08
9.294393e+08
-3.877855e+08
-4.042447e+08
-4.257826e+08
-4.532884e+08
-4.87976e+08
0
0
0
0
0
6.596836e+08
6.734962e+08
6.975717e+08
7.36775e+08
8.00313e+08
-3.733625e+08
-3.88649e+08
-4.086239e+08
-4.340654e+08
-4.66028e+08
0
0
0
0
0
6.187995e+08
6.290024e+08
6.471458e+08
6.758333e+08
7.196329e+08
-3.593268e+08
-3.735432e+08
-3.920967e+08
-4.156743e+08
-4.451971e+08
0
0
0
0
0
5.824887e+08
5.904028e+08
6.047833e+08
6.274371e+08
6.608948e+08
-3.462966e+08
-3.5957e+08
-3.768814e+08
-3.98841e+08
-4.262649e+08
0
0
0
0
0
5.509021e+08
5.572967e+08
5.692316e+08
5.879996e+08
6.153934e+08
-3.345488e+08
-3.470097e+08
-3.632578e+08
-3.838441e+08
-4.094993e+08
0
0
0
0
0
5.236867e+08
5.290609e+08
5.39305e+08
5.554603e+08
5.788379e+08
-3.241174e+08
-3.358837e+08
-3.51232e+08
-3.706637e+08
-3.948438e+08
0
0
0
0
0
5.003108e+08
5.049782e+08
5.140283e+08
5.283169e+08
5.489128e+08
-6.810546e+08
-7.414517e+08
-8.235627e+08
-6.399049e+08
-6.896716e+08
-7.606728e+08
-8.584845e+08
-6.076012e+08
-6.503192e+08
-7.09934e+08
-7.947674e+08
-9.151799e+08
-5.807258e+08
-6.187133e+08
-6.705815e+08
-7.424773e+08
-8.456282e+08
0
-5.568733e+08
-5.912333e+08
-6.376767e+08
-7.005263e+08
-7.87854e+08
0
0
-5.339166e+08
-5.652623e+08
-6.072658e+08
-6.633867e+08
-7.39241e+08
0
0
0
-5.108828e+08
-5.394678e+08
-5.775653e+08
-6.278716e+08
-6.947502e+08
0
0
0
0
-4.886843e+08
-5.148015e+08
-5.494334e+08
-5.948021e+08
-6.542484e+08
0
0
0
0
0
-4.680342e+08
-4.919834e+08
-5.236317e+08
-5.648052e+08
-6.182249e+08
0
0
0
0
0
1.074371e+09
-4.491536e+08
-4.712259e+08
-5.003098e+08
-5.379589e+08
-5.86402e+08
0
0
0
0
0
9.195561e+08
1.023073e+09
-4.319848e+08
-4.524261e+08
-4.793065e+08
-5.139567e+08
-5.582683e+08
0
0
0
0
0
8.257762e+08
8.765953e+08
9.849603e+08
-4.163275e+08
-4.35341e+08
-4.603015e+08
-4.92372e+08
-5.331719e+08
0
0
0
0
0
7.588799e+08
7.891401e+08
8.451393e+08
9.591716e+08
-4.018884e+08
-4.196288e+08
-4.428875e+08
-4.726864e+08
-5.104374e+08
0
0
0
0
0
7.066338e+08
7.266711e+08
7.621287e+08
8.238153e+08
9.433332e+08
-3.882599e+08
-4.048345e+08
-4.265398e+08
-4.542804e+08
-4.892918e+08
0
0
0
0
0
6.627964e+08
6.771778e+08
7.021907e+08
7.431209e+08
8.104646e+08
-3.749055e+08
-3.903748e+08
-4.106119e+08
-4.364162e+08
-4.688722e+08
0
0
0
0
0
6.23848e+08
6.345889e+08
6.535748e+08
6.836312e+08
7.2987e+08
-3.613798e+08
-3.757877e+08
-3.946126e+08
-4.185619e+08
-4.485846e+08
0
0
0
0
0
5.878923e+08
5.961981e+08
6.111712e+08
6.347367e+08
6.696341e+08
-3.481774e+08
-3.61609e+08
-3.791422e+08
-4.014025e+08
-4.29227e+08
0
0
0
0
0
5.553753e+08
5.620152e+08
5.743191e+08
5.936341e+08
6.218483e+08
-3.35889e+08
-3.484565e+08
-3.648529e+08
-3.856388e+08
-4.11558e+08
0
0
0
0
0
5.267048e+08
5.322145e+08
5.426618e+08
5.591145e+08
5.829221e+08
-3.247884e+08
-3.366058e+08
-3.52025e+08
-3.715519e+08
-3.958574e+08
0
0
0
0
0
5.017674e+08
5.06491e+08
5.156256e+08
5.300365e+08
5.508066e+08
-3.14914e+08
-3.260893e+08
-3.406764e+08
-3.591409e+08
-3.820931e+08
0
0
0
0
0
4.801892e+08
4.84363e+08
4.925402e+08
5.054613e+08
5.240151e+08
-6.36952e+08
-6.86021e+08
-7.557523e+08
-8.505659e+08
-6.027626e+08
-6.445173e+08
-7.025501e+08
-7.844815e+08
-8.978419e+08
-5.750155e+08
-6.119719e+08
-6.622333e+08
-7.314654e+08
-8.296113e+08
0
-5.514929e+08
-5.849196e+08
-6.299297e+08
-6.905236e+08
-7.740232e+08
0
0
-5.30269e+08
-5.609302e+08
-6.018948e+08
-6.564067e+08
-7.296717e+08
0
0
0
-5.096165e+08
-5.378554e+08
-5.754276e+08
-6.249319e+08
-6.90541e+08
0
0
0
0
-4.886949e+08
-5.146791e+08
-5.491052e+08
-5.941562e+08
-6.531036e+08
0
0
0
0
0
-4.684001e+08
-4.923111e+08
-5.238957e+08
-5.649672e+08
-6.182232e+08
0
0
0
0
0
1.065081e+09
-4.494166e+08
-4.714823e+08
-5.005528e+08
-5.381779e+08
-5.865807e+08
0
0
0
0
0
9.181434e+08
1.01929e+09
-4.319848e+08
-4.524261e+08
-4.793065e+08
-5.139567e+08
-5.582683e+08
0
0
0
0
0
8.257762e+08
8.765953e+08
9.849603e+08
-4.160741e+08
-4.350899e+08
-4.600572e+08
-4.921405e+08
-5.329622e+08
0
0
0
0
0
7.590331e+08
7.896222e+08
8.463678e+08
9.626415e+08
-4.015189e+08
-4.192732e+08
-4.425569e+08
-4.72396e+08
-5.102078e+08
0
0
0
0
0
7.069466e+08
7.27332e+08
7.634585e+08
8.266914e+08
9.511445e+08
-3.880593e+08
-4.046795e+08
-4.264548e+08
-4.542971e+08
-4.894527e+08
0
0
0
0
0
6.638123e+08
6.785411e+08
7.041378e+08
7.461841e+08
8.160987e+08
-3.75324e+08
-3.908962e+08
-4.112828e+08
-4.37296e+08
-4.700384e+08
0
0
0
0
0
6.263884e+08
6.375008e+08
6.570704e+08
6.880959e+08
7.361317e+08
-3.628107e+08
-3.773839e+08
-3.96446e+08
-4.207226e+08
-4.511885e+08
0
0
0
0
0
5.922589e+08
6.009497e+08
6.165045e+08
6.40976e+08
6.773393e+08
-3.501001e+08
-3.63706e+08
-3.814865e+08
-4.040847e+08
-4.323621e+08
0
0
0
0
0
5.601847e+08
5.671201e+08
5.798674e+08
5.998423e+08
6.29058e+08
-3.376581e+08
-3.503705e+08
-3.669701e+08
-3.88031e+08
-4.143155e+08
0
0
0
0
0
5.3075e+08
5.364527e+08
5.471888e+08
5.640645e+08
5.884866e+08
-3.260524e+08
-3.379679e+08
-3.535236e+08
-3.732339e+08
-3.977813e+08
0
0
0
0
0
5.045244e+08
5.093571e+08
5.186564e+08
5.333058e+08
5.54416e+08
-3.155483e+08
-3.267709e+08
-3.414235e+08
-3.599757e+08
-3.830432e+08
0
0
0
0
0
4.815291e+08
4.857491e+08
4.939962e+08
5.070183e+08
5.257141e+08
-3.061907e+08
-3.168165e+08
-3.30699e+08
-3.482682e+08
-3.700904e+08
0
0
0
0
0
4.615087e+08
4.652919e+08
4.727605e+08
4.845587e+08
5.014541e+08
-6.002425e+08
-6.415095e+08
-6.987489e+08
-7.792449e+08
-8.892256e+08
-5.708079e+08
-6.070414e+08
-6.5619e+08
-7.236074e+08
-8.184266e+08
0
-5.464651e+08
-5.790934e+08
-6.228965e+08
-6.81626e+08
-7.620401e+08
0
0
-5.255023e+08
-5.554202e+08
-5.952767e+08
-6.48109e+08
-7.187407e+08
0
0
0
-5.063903e+08
-5.340768e+08
-5.708255e+08
-6.191007e+08
-6.828205e+08
0
0
0
0
-4.876168e+08
-5.133199e+08
-5.473273e+08
-5.917553e+08
-6.497606e+08
0
0
0
0
0
-4.684672e+08
-4.922716e+08
-5.23693e+08
-5.645185e+08
-6.174007e+08
0
0
0
0
0
1.048578e+09
-4.497886e+08
-4.718252e+08
-5.008469e+08
-5.383944e+08
-5.86676e+08
0
0
0
0
0
9.147336e+08
1.010795e+09
-4.322435e+08
-4.526807e+08
-4.795516e+08
-5.141844e+08
-5.584669e+08
0
0
0
0
0
8.252525e+08
8.752946e+08
9.813956e+08
-4.160741e+08
-4.350899e+08
-4.600572e+08
-4.921405e+08
-5.329622e+08
0
0
0
0
0
7.590331e+08
7.896222e+08
8.463678e+08
9.626415e+08
-4.012713e+08
-4.190268e+08
-4.423151e+08
-4.721639e+08
-5.099923e+08
0
0
0
0
0
7.069226e+08
7.274701e+08
7.639124e+08
8.278833e+08
9.546289e+08
-3.876944e+08
-4.043257e+08
-4.261215e+08
-4.539972e+08
-4.892033e+08
0
0
0
0
0
6.638993e+08
6.788242e+08
7.047572e+08
7.474668e+08
8.189548e+08
-3.751121e+08
-3.90724e+08
-4.111718e+08
-4.372741e+08
-4.701422e+08
0
0
0
0
0
6.27112e+08
6.38442e+08
6.583555e+08
6.899697e+08
7.391492e+08
-3.631803e+08
-3.778459e+08
-3.970421e+08
-4.21506e+08
-4.522275e+08
0
0
0
0
0
5.943804e+08
6.033296e+08
6.192713e+08
6.443529e+08
6.817331e+08
-3.514301e+08
-3.651862e+08
-3.831822e+08
-4.060773e+08
-4.347555e+08
0
0
0
0
0
5.640165e+08
5.712372e+08
5.844092e+08
6.050203e+08
6.35218e+08
-3.394623e+08
-3.523341e+08
-3.691598e+08
-3.905293e+08
-4.172262e+08
0
0
0
0
0
5.350713e+08
5.410042e+08
5.520826e+08
5.694606e+08
5.946182e+08
-3.277194e+08
-3.39768e+08
-3.555106e+08
-3.754733e+08
-4.003551e+08
0
0
0
0
0
5.082086e+08
5.131962e+08
5.227278e+08
5.377138e+08
5.593054e+08
-3.167424e+08
-3.280554e+08
-3.42834e+08
-3.615552e+08
-3.848453e+08
0
0
0
0
0
4.840615e+08
4.883712e+08
4.967541e+08
5.099724e+08
5.289442e+08
-3.067913e+08
-3.174608e+08
-3.314039e+08
-3.490543e+08
-3.709829e+08
0
0
0
0
0
4.627468e+08
4.665687e+08
4.740961e+08
4.85979e+08
5.029929e+08
-2.97913e+08
-3.080279e+08
-3.212547e+08
-3.379949e+08
-3.587714e+08
0
0
0
0
0
4.440905e+08
4.47561e+08
4.544424e+08
4.653052e+08
4.808169e+08
-5.686098e+08
-6.044747e+08
-6.530598e+08
-7.195662e+08
-8.127385e+08
0
-5.427436e+08
-5.748063e+08
-6.17763e+08
-6.752004e+08
-7.535099e+08
0
0
-5.210172e+08
-5.502911e+08
-5.892003e+08
-6.406174e+08
-7.090698e+08
0
0
0
-5.021185e+08
-5.291962e+08
-5.65051e+08
-6.120139e+08
-6.737569e+08
0
0
0
0
-4.847337e+08
-5.099781e+08
-5.43312e+08
-5.867556e+08
-6.433051e+08
0
0
0
0
0
-4.675399e+08
-4.911107e+08
-5.221875e+08
-5.625108e+08
-6.146547e+08
0
0
0
0
0
1.022303e+09
-4.498982e+08
-4.718474e+08
-5.007359e+08
-5.380856e+08
-5.860746e+08
0
0
0
0
0
9.080059e+08
9.956682e+08
-4.326173e+08
-4.53032e+08
-4.798644e+08
-5.144364e+08
-5.586252e+08
0
0
0
0
0
8.237258e+08
8.72152e+08
9.733875e+08
-4.163275e+08
-4.35341e+08
-4.603015e+08
-4.92372e+08
-5.331719e+08
0
0
0
0
0
7.588799e+08
7.891401e+08
8.451393e+08
9.591716e+08
-4.012713e+08
-4.190268e+08
-4.423151e+08
-4.721639e+08
-5.099923e+08
0
0
0
0
0
7.069226e+08
7.274701e+08
7.639124e+08
8.278833e+08
9.546289e+08
-3.87453e+08
-4.040844e+08
-4.258835e+08
-4.537664e+08
-4.889854e+08
0
0
0
0
0
6.637832e+08
6.787968e+08
7.048842e+08
7.479046e+08
8.201413e+08
-3.747528e+08
-3.903736e+08
-4.108385e+08
-4.369687e+08
-4.698793e+08
0
0
0
0
0
6.270661e+08
6.385141e+08
6.586158e+08
6.90562e+08
7.404134e+08
-3.629597e+08
-3.776601e+08
-3.969104e+08
-4.214529e+08
-4.52285e+08
0
0
0
0
0
5.949032e+08
6.039983e+08
6.201562e+08
6.455856e+08
6.835697e+08
-3.517566e+08
-3.655961e+08
-3.837133e+08
-4.067771e+08
-4.35685e+08
0
0
0
0
0
5.658194e+08
5.732271e+08
5.86672e+08
6.076926e+08
6.38536e+08
-3.40701e+08
-3.537099e+08
-3.707323e+08
-3.923725e+08
-4.194334e+08
0
0
0
0
0
5.384712e+08
5.446228e+08
5.560224e+08
5.738724e+08
5.997285e+08
-3.294152e+08
-3.416102e+08
-3.575604e+08
-3.77806e+08
-4.03065e+08
0
0
0
0
0
5.121218e+08
5.172924e+08
5.270965e+08
5.424769e+08
5.646356e+08
-3.183155e+08
-3.297513e+08
-3.447022e+08
-3.63656e+08
-3.872534e+08
0
0
0
0
0
4.874368e+08
4.918731e+08
5.004465e+08
5.139399e+08
5.332995e+08
-3.079209e+08
-3.18674e+08
-3.327338e+08
-3.505405e+08
-3.726744e+08
0
0
0
0
0
4.650842e+08
4.689808e+08
4.766221e+08
4.886691e+08
5.059124e+08
-2.984824e+08
-3.086378e+08
-3.219209e+08
-3.387363e+08
-3.596114e+08
0
0
0
0
0
4.452392e+08
4.487424e+08
4.556739e+08
4.666091e+08
4.822211e+08
-2.900524e+08
-2.996887e+08
-3.123053e+08
-3.282739e+08
-3.480821e+08
0
0
0
0
0
4.277885e+08
4.310055e+08
4.373936e+08
4.474629e+08
4.61804e+08
-5.407952e+08
-5.72568e+08
-6.150931e+08
-6.718757e+08
-7.491283e+08
0
0
-5.176856e+08
-5.465e+08
-5.847388e+08
-6.351635e+08
-7.02105e+08
0
0
0
-4.980765e+08
-5.246216e+08
-5.597037e+08
-6.055456e+08
-6.656228e+08
0
0
0
0
-4.80872e+08
-5.056053e+08
-5.381986e+08
-5.805744e+08
-6.355685e+08
0
0
0
0
0
-4.649422e+08
-4.881247e+08
-5.186359e+08
-5.581471e+08
-6.09117e+08
0
0
0
0
0
9.873774e+08
-4.490946e+08
-4.708458e+08
-4.994445e+08
-5.363771e+08
-5.837666e+08
0
0
0
0
0
8.959458e+08
9.715074e+08
-4.327592e+08
-4.53101e+08
-4.798225e+08
-5.142312e+08
-5.581826e+08
0
0
0
0
0
8.201033e+08
8.659403e+08
9.59113e+08
-4.167002e+08
-4.35696e+08
-4.606258e+08
-4.926472e+08
-5.333726e+08
0
0
0
0
0
7.581613e+08
7.877302e+08
8.421712e+08
9.513809e+08
-4.015189e+08
-4.192732e+08
-4.425569e+08
-4.72396e+08
-5.102078e+08
0
0
0
0
0
7.069466e+08
7.27332e+08
7.634585e+08
8.266914e+08
9.511445e+08
-3.87453e+08
-4.040844e+08
-4.258835e+08
-4.537664e+08
-4.889854e+08
0
0
0
0
0
6.637832e+08
6.787968e+08
7.048842e+08
7.479046e+08
8.201413e+08
-3.745177e+08
-3.901379e+08
-4.106049e+08
-4.367406e+08
-4.696614e+08
0
0
0
0
0
6.269003e+08
6.384001e+08
6.585851e+08
6.906818e+08
7.408459e+08
-3.626068e+08
-3.773142e+08
-3.965788e+08
-4.211451e+08
-4.520134e+08
0
0
0
0
0
5.947746e+08
6.039457e+08
6.202157e+08
6.458294e+08
6.841474e+08
-3.515295e+08
-3.653998e+08
-3.83565e+08
-4.066988e+08
-4.357047e+08
0
0
0
0
0
5.661984e+08
5.737082e+08
5.872984e+08
6.085381e+08
6.397385e+08
-3.409894e+08
-3.540739e+08
-3.712062e+08
-3.929994e+08
-4.202679e+08
0
0
0
0
0
5.400237e+08
5.463157e+08
5.579156e+08
5.760578e+08
6.023513e+08
-3.30571e+08
-3.428916e+08
-3.590221e+08
-3.795153e+08
-4.051067e+08
0
0
0
0
0
5.15166e+08
5.205079e+08
5.305631e+08
5.463061e+08
5.689892e+08
-3.199121e+08
-3.314826e+08
-3.466248e+08
-3.65839e+08
-3.897827e+08
0
0
0
0
0
4.910034e+08
4.95588e+08
5.043828e+08
5.18195e+08
5.380054e+08
-3.094076e+08
-3.202742e+08
-3.344933e+08
-3.52515e+08
-3.749324e+08
0
0
0
0
0
4.681921e+08
4.721936e+08
4.799939e+08
4.922698e+08
5.098336e+08
-2.995523e+08
-3.097854e+08
-3.231767e+08
-3.40137e+08
-3.612021e+08
0
0
0
0
0
4.474056e+08
4.509719e+08
4.580001e+08
4.690747e+08
4.848806e+08
-2.90593e+08
-3.002669e+08
-3.129359e+08
-3.289743e+08
-3.48874e+08
0
0
0
0
0
4.288581e+08
4.32103e+08
4.385343e+08
4.48666e+08
4.630934e+08
-2.825807e+08
-2.9177e+08
-3.03815e+08
-3.190653e+08
-3.379725e+08
0
0
0
0
0
4.124811e+08
4.154904e+08
4.214588e+08
4.308464e+08
4.441805e+08
-5.159382e+08
-5.445162e+08
-5.824114e+08
-6.323302e+08
-6.985059e+08
0
0
0
-4.950653e+08
-5.212284e+08
-5.557601e+08
-6.008091e+08
-6.597186e+08
0
0
0
0
-4.772005e+08
-5.014835e+08
-5.334314e+08
-5.748858e+08
-6.285523e+08
0
0
0
0