/*--------------------------------*- C++ -*----------------------------------*\
| =========                 |                                                 |
| \\      /  F ield         | OpenFOAM: The Open Source CFD Toolbox           |
|  \\    /   O peration     | Version:  2306                                  |
|   \\  /    A nd           | Website:  www.openfoam.com                      |
|    \\/     M anipulation  |                                                 |
\*---------------------------------------------------------------------------*/
FoamFile
{
    version     2.0;
    format      ascii;
    arch        "LSB;label=32;scalar=64";
    class       volScalarField;
    location    "1.5/phiI";
    object      phi;
}
// * * * * * * * * * * * * * * * * * * * * * * * * * * * * * * * * * * * * * //

dimensions      [1 2 -3 0 0 -1 0];

internalField   nonuniform List<scalar> 
12000
(
1.605736
1.605659
1.601215
1.606592
1.605508
1.601116
1.606523
1.596628
1.602003
1.608314
1.605277
1.600934
1.606387
1.596519
1.601908
1.60826
1.592812
1.597357
1.603585
1.610919
1.60495
1.600698
1.606179
1.596319
1.601736
1.608154
1.592701
1.597251
1.603501
1.610887
1.589654
1.593494
1.598821
1.605978
1.614435
1.604497
1.600454
1.60588
1.596067
1.601513
1.60799
1.592499
1.597059
1.603347
1.610827
1.589544
1.593386
1.598723
1.605909
1.614435
1.587015
1.590296
1.594864
1.601036
1.609207
1.618904
1.603949
1.600239
1.605458
1.595823
1.601285
1.60775
1.592242
1.596817
1.603153
1.610732
1.589342
1.593189
1.598546
1.605785
1.614437
1.586907
1.590189
1.594762
1.600949
1.609158
1.618944
1.584764
1.587623
1.591587
1.596935
1.604022
1.613307
1.623377
1.603384
1.600057
1.604934
1.595649
1.601086
1.607389
1.591997
1.596584
1.602957
1.610579
1.589085
1.592941
1.598324
1.605632
1.614436
1.586709
1.589992
1.594578
1.600794
1.609074
1.619028
1.584659
1.587518
1.591485
1.596843
1.603951
1.613284
1.623457
1.582816
1.585343
1.588847
1.593538
1.599726
1.607812
1.617411
1.627855
1.602923
1.599882
1.604384
1.595562
1.600914
1.606913
1.591831
1.596421
1.602789
1.610313
1.588836
1.592705
1.598115
1.605487
1.614403
1.586455
1.589742
1.594346
1.600604
1.608979
1.619148
1.584466
1.587324
1.591299
1.596676
1.603827
1.613253
1.623622
1.582714
1.58524
1.588746
1.593444
1.599647
1.607761
1.617415
1.627975
1.581103
1.583368
1.586506
1.590695
1.596168
1.603267
1.611605
1.62152
1.632336
1.602668
1.599735
1.603933
1.595513
1.600746
1.606394
1.591772
1.596341
1.602639
1.609909
1.588668
1.592547
1.597973
1.605366
1.614264
1.586206
1.589501
1.594128
1.600431
1.608902
1.61927
1.584216
1.587076
1.591063
1.59647
1.603679
1.613232
1.623863
1.582526
1.58505
1.588561
1.593273
1.599506
1.607677
1.617435
1.628221
1.581005
1.583268
1.586407
1.590601
1.596085
1.603205
1.611576
1.62155
1.632497
1.579579
1.581631
1.584478
1.588264
1.593185
1.599502
1.606812
1.615404
1.625632
1.636822
1.602668
1.599649
1.603681
1.595479
1.600602
1.605962
1.591763
1.596294
1.602483
1.609438
1.58861
1.592492
1.597905
1.605249
1.613961
1.586033
1.589339
1.593986
1.60032
1.608846
1.619297
1.583968
1.586834
1.590837
1.59628
1.603555
1.613243
1.62414
1.582283
1.584806
1.588325
1.593059
1.599334
1.607585
1.617489
1.628582
1.580823
1.583084
1.586226
1.59043
1.595936
1.603096
1.61153
1.621622
1.632823
1.579485
1.581535
1.584382
1.588171
1.593101
1.599434
1.606767
1.615394
1.625689
1.637023
1.578209
1.580086
1.582693
1.586154
1.590632
1.596342
1.602841
1.610362
1.619206
1.62975
1.641312
1.602923
1.599649
1.603681
1.595459
1.600518
1.605718
1.591769
1.596261
1.602346
1.609033
1.588612
1.592485
1.597866
1.605112
1.613555
1.585971
1.589284
1.59394
1.600273
1.608775
1.619122
1.583792
1.586666
1.590687
1.596162
1.603489
1.613273
1.624333
1.582038
1.584564
1.588095
1.592856
1.599183
1.607524
1.617588
1.629015
1.580586
1.582845
1.585992
1.590212
1.59575
1.602969
1.611494
1.621749
1.633305
1.579309
1.581356
1.584204
1.588001
1.592948
1.599312
1.60669
1.615388
1.625813
1.637429
1.578118
1.579993
1.582599
1.586064
1.590548
1.59627
1.602787
1.610333
1.619217
1.629833
1.641553
1.576965
1.578695
1.581103
1.584296
1.588413
1.593632
1.599502
1.606183
1.613915
1.623013
1.633871
1.644841
1.603384
1.599735
1.603933
1.595459
1.600518
1.605718
1.591774
1.596242
1.602264
1.608802
1.588629
1.592492
1.597836
1.604985
1.613187
1.585971
1.589287
1.593937
1.600243
1.608664
1.618799
1.583723
1.586606
1.590639
1.59613
1.603469
1.61326
1.624286
1.58186
1.584391
1.587938
1.592726
1.599099
1.607516
1.617703
1.629372
1.580346
1.582605
1.585761
1.590002
1.595579
1.602868
1.611497
1.621937
1.633892
1.57908
1.581123
1.583975
1.587784
1.592756
1.599164
1.606608
1.615407
1.626014
1.638032
1.577949
1.57982
1.582427
1.585897
1.590394
1.596141
1.602692
1.610288
1.61925
1.630008
1.642039
1.576878
1.578605
1.581013
1.584208
1.58833
1.593559
1.599443
1.606143
1.613903
1.623044
1.63398
1.645112
1.575827
1.577433
1.579672
1.58264
1.586455
1.591273
1.596636
1.602666
1.60953
1.617473
1.626824
1.637113
1.647452
1.603949
1.599882
1.604384
1.595479
1.600602
1.605962
1.591774
1.596242
1.602264
1.608802
1.588641
1.592496
1.597817
1.604908
1.612973
1.585989
1.589304
1.593944
1.600217
1.608551
1.618479
1.583718
1.586607
1.590644
1.596133
1.603453
1.613184
1.624047
1.581786
1.584325
1.587883
1.592688
1.599085
1.607531
1.617748
1.629453
1.580169
1.582431
1.585598
1.589861
1.595476
1.602827
1.611546
1.622137
1.634416
1.578846
1.580888
1.583745
1.58757
1.592573
1.599035
1.606557
1.615473
1.62629
1.638774
1.577727
1.579594
1.582203
1.585682
1.590199
1.595981
1.602581
1.61025
1.619324
1.630283
1.642763
1.576714
1.578439
1.580846
1.584045
1.588178
1.593426
1.599337
1.606076
1.61389
1.623116
1.634207
1.645661
1.575742
1.577346
1.579585
1.582554
1.586374
1.591201
1.596574
1.60262
1.609504
1.617477
1.626875
1.637242
1.647746
1.574777
1.576277
1.578372
1.581147
1.584709
1.58919
1.594138
1.599644
1.605835
1.61288
1.621035
1.629824
1.639514
1.649178
1.604497
1.600057
1.604934
1.595513
1.600746
1.606394
1.591769
1.596261
1.602346
1.609033
1.588641
1.592496
1.597817
1.604908
1.612973
1.586003
1.589316
1.593949
1.600201
1.60848
1.618287
1.583734
1.586625
1.590662
1.596142
1.603433
1.613088
1.623775
1.581776
1.58432
1.587885
1.592696
1.599096
1.607534
1.617706
1.629297
1.580092
1.582359
1.585535
1.589814
1.595452
1.602838
1.611597
1.622241
1.634624
1.578671
1.580714
1.583579
1.587421
1.592454
1.598966
1.606559
1.615579
1.626575
1.639463
1.577501
1.579365
1.581977
1.585468
1.590009
1.595834
1.602493
1.610249
1.619453
1.630647
1.64366
1.576501
1.578221
1.580628
1.583834
1.587982
1.593259
1.59921
1.606002
1.613897
1.623245
1.634555
1.646478
1.575585
1.577186
1.579424
1.582396
1.586225
1.591067
1.596462
1.602538
1.609463
1.617497
1.626987
1.637509
1.648342
1.574696
1.576194
1.578288
1.581065
1.58463
1.589118
1.594075
1.599593
1.6058
1.612869
1.621056
1.62989
1.639658
1.649488
1.573803
1.575211
1.577182
1.579791
1.583134
1.587329
1.591928
1.597006
1.602655
1.609007
1.616235
1.62384
1.632047
1.641101
1.650039
1.60495
1.600239
1.605458
1.595562
1.600914
1.606913
1.591763
1.596294
1.602483
1.609438
1.588629
1.592492
1.597836
1.604985
1.613187
1.586003
1.589316
1.593949
1.600201
1.60848
1.618287
1.583747
1.586639
1.590674
1.596147
1.603419
1.613025
1.623604
1.581789
1.584336
1.587904
1.592715
1.599108
1.607522
1.617629
1.629072
1.580078
1.582349
1.585531
1.589819
1.595466
1.60286
1.611618
1.622233
1.63455
1.578592
1.580638
1.58351
1.587364
1.592418
1.598961
1.606595
1.615667
1.626737
1.639798
1.577329
1.579193
1.581809
1.585313
1.589878
1.595744
1.602459
1.610295
1.619617
1.631016
1.644514
1.576282
1.577998
1.580407
1.583621
1.587789
1.5931
1.599098
1.605956
1.613945
1.623438
1.635008
1.647495
1.57538
1.576975
1.579213
1.58219
1.586031
1.590897
1.596324
1.602442
1.609427
1.617547
1.627169
1.637915
1.649227
1.574545
1.576039
1.578133
1.580911
1.584483
1.588985
1.59396
1.599502
1.605742
1.612855
1.621107
1.630033
1.639954
1.650113
1.573726
1.575131
1.577101
1.579711
1.583057
1.587258
1.591865
1.596952
1.602615
1.608985
1.616237
1.623874
1.632125
1.641255
1.650355
1.572895
1.574223
1.576084
1.578548
1.5817
1.585648
1.589952
1.59467
1.599877
1.605671
1.612183
1.618879
1.62592
1.633517
1.641892
1.605277
1.600454
1.60588
1.595649
1.601086
1.607389
1.591772
1.596341
1.602639
1.609909
1.588612
1.592485
1.597866
1.605112
1.613555
1.585989
1.589304
1.593944
1.600217
1.608551
1.618479
1.583747
1.586639
1.590674
1.596147
1.603419
1.613025
1.623604
1.5818
1.584349
1.587917
1.592727
1.599114
1.60751
1.617573
1.628923
1.580087
1.582362
1.585547
1.589837
1.595485
1.602876
1.611614
1.622173
1.634372
1.578575
1.580624
1.583501
1.587362
1.592426
1.598982
1.606628
1.615705
1.626762
1.639806
1.57725
1.579115
1.581736
1.58525
1.589831
1.595723
1.602473
1.610356
1.619741
1.631237
1.644976
1.576115
1.577829
1.580241
1.583465
1.587651
1.592994
1.599037
1.605956
1.614034
1.623659
1.635462
1.648479
1.575168
1.57676
1.578997
1.581981
1.585837
1.590731
1.596195
1.602365
1.609422
1.617645
1.627426
1.638435
1.650333
1.574347
1.575836
1.577929
1.580711
1.584293
1.588814
1.593815
1.599392
1.605678
1.612856
1.621201
1.630258
1.640402
1.651044
1.57358
1.574983
1.576951
1.579563
1.582914
1.587127
1.591749
1.596856
1.602545
1.60895
1.616251
1.62395
1.632289
1.64157
1.650996
1.57282
1.574146
1.576006
1.578471
1.581626
1.585579
1.589889
1.594615
1.599834
1.605642
1.612173
1.618892
1.625964
1.633603
1.642051
1.572043
1.5733
1.575065
1.577401
1.580386
1.584117
1.588165
1.592578
1.597415
1.602753
1.60869
1.614688
1.62084
1.627296
1.63425
1.605508
1.600698
1.606179
1.595823
1.601285
1.60775
1.591831
1.596421
1.602789
1.610313
1.58861
1.592492
1.597905
1.605249
1.613961
1.585971
1.589287
1.593937
1.600243
1.608664
1.618799
1.583734
1.586625
1.590662
1.596142
1.603433
1.613088
1.623775
1.5818
1.584349
1.587917
1.592727
1.599114
1.60751
1.617573
1.628923
1.580097
1.582372
1.585559
1.58985
1.595497
1.602882
1.611605
1.622124
1.634244
1.578583
1.580634
1.583513
1.587378
1.592445
1.599002
1.606647
1.615709
1.62672
1.639675
1.577231
1.579098
1.581723
1.585242
1.589831
1.595735
1.602501
1.6104
1.619797
1.631296
1.645065
1.576037
1.577751
1.580166
1.583396
1.587595
1.592959
1.599031
1.60599
1.614121
1.623818
1.635741
1.649039
1.575007
1.576595
1.578834
1.581824
1.585695
1.590614
1.596114
1.602333
1.609457
1.617778
1.627704
1.638956
1.651411
1.574143
1.575628
1.57772
1.580507
1.584101
1.588645
1.593676
1.599294
1.605636
1.612892
1.621349
1.630564
1.640973
1.652208
1.57339
1.574787
1.576754
1.579369
1.582729
1.586957
1.591601
1.596737
1.602463
1.608918
1.616289
1.624079
1.632546
1.642046
1.651949
1.57268
1.574002
1.575861
1.578327
1.581488
1.58545
1.589773
1.594516
1.599756
1.605592
1.612162
1.618927
1.626058
1.633782
1.642376
1.571971
1.573226
1.57499
1.577327
1.580314
1.58405
1.588103
1.592523
1.597369
1.602719
1.608672
1.614687
1.620861
1.627346
1.634339
1.571241
1.572435
1.574114
1.576336
1.579173
1.582713
1.586537
1.590686
1.595208
1.600163
1.605631
1.611072
1.616546
1.622138
1.627982
1.605659
1.600934
1.606387
1.596067
1.601513
1.60799
1.591997
1.596584
1.602957
1.610579
1.588668
1.592547
1.597973
1.605366
1.614264
1.585971
1.589284
1.59394
1.600273
1.608775
1.619122
1.583718
1.586607
1.590644
1.596133
1.603453
1.613184
1.624047
1.581789
1.584336
1.587904
1.592715
1.599108
1.607522
1.617629
1.629072
1.580097
1.582372
1.585559
1.58985
1.595497
1.602882
1.611605
1.622124
1.634244
1.578591
1.580643
1.583523
1.587389
1.592457
1.599014
1.606655
1.615703
1.626679
1.639568
1.577237
1.579105
1.581732
1.585253
1.589846
1.595754
1.602523
1.610423
1.619809
1.631271
1.644981
1.576017
1.577732
1.580149
1.583383
1.587589
1.592963
1.599048
1.606024
1.614175
1.623892
1.635833
1.649191
1.57493
1.576518
1.578758
1.581753
1.585633
1.590569
1.596091
1.602342
1.609509
1.617889
1.6279
1.63928
1.652044
1.573987
1.575469
1.57756
1.580352
1.583958
1.588522
1.593581
1.599237
1.605633
1.612962
1.621525
1.630887
1.641542
1.653348
1.573194
1.574586
1.576552
1.57917
1.58254
1.586787
1.591456
1.596625
1.602395
1.608911
1.616365
1.624265
1.632888
1.64265
1.653142
1.572497
1.573814
1.575672
1.57814
1.581307
1.585284
1.589625
1.594391
1.599662
1.605538
1.612162
1.618993
1.626212
1.634059
1.642865
1.571836
1.573088
1.57485
1.577188
1.58018
1.583925
1.587989
1.592423
1.597287
1.60266
1.608643
1.614694
1.620911
1.627452
1.634525
1.571171
1.572364
1.574042
1.576264
1.579104
1.582647
1.586477
1.590631
1.595161
1.600127
1.605607
1.611062
1.616553
1.622164
1.628035
1.570481
1.57162
1.573222
1.575342
1.578047
1.581416
1.585043
1.58896
1.59321
1.597841
1.602915
1.607904
1.61284
1.617776
1.622785
1.605736
1.601116
1.606523
1.596319
1.601736
1.608154
1.592242
1.596817
1.603153
1.610732
1.588836
1.592705
1.598115
1.605487
1.614403
1.586033
1.589339
1.593986
1.60032
1.608846
1.619297
1.583723
1.586606
1.590639
1.59613
1.603469
1.61326
1.624286
1.581776
1.58432
1.587885
1.592696
1.599096
1.607534
1.617706
1.629297
1.580087
1.582362
1.585547
1.589837
1.595485
1.602876
1.611614
1.622173
1.634372
1.578591
1.580643
1.583523
1.587389
1.592457
1.599014
1.606655
1.615703
1.626679
1.639568
1.577244
1.579113
1.58174
1.585263
1.589857
1.595766
1.602535
1.610431
1.619805
1.631237
1.644894
1.576021
1.577737
1.580155
1.583391
1.587599
1.592977
1.599067
1.606048
1.614202
1.623912
1.635825
1.649143
1.57491
1.576498
1.578739
1.581737
1.585621
1.590564
1.596098
1.602364
1.609551
1.617955
1.627992
1.639398
1.652242
1.573913
1.575393
1.577484
1.580279
1.583892
1.588469
1.593546
1.599227
1.605657
1.613033
1.621662
1.63111
1.6419
1.65403
1.573043
1.574432
1.576397
1.579018
1.582397
1.586661
1.591352
1.596551
1.602364
1.608937
1.61647
1.624475
1.633244
1.643252
1.654314
1.572308
1.573621
1.575476
1.577947
1.581122
1.585115
1.589476
1.59427
1.599576
1.605501
1.61219
1.619102
1.626427
1.634425
1.643486
1.57166
1.572907
1.574668
1.577007
1.580005
1.583761
1.587841
1.592295
1.597184
1.60259
1.608616
1.614719
1.620999
1.627623
1.634813
1.571041
1.572231
1.573907
1.576131
1.578974
1.582525
1.586364
1.590531
1.595076
1.600061
1.605567
1.61105
1.616573
1.622225
1.628147
1.570414
1.571551
1.573153
1.575273
1.577979
1.581352
1.584983
1.588906
1.593162
1.597802
1.602887
1.607887
1.612836
1.617788
1.622814
1.56976
1.570849
1.572382
1.57441
1.576995
1.580211
1.583661
1.587375
1.591386
1.595736
1.600477
1.605089
1.609591
1.614011
1.61839
1.601215
1.606592
1.596519
1.601908
1.60826
1.592499
1.597059
1.603347
1.610827
1.589085
1.592941
1.598324
1.605632
1.614436
1.586206
1.589501
1.594128
1.600431
1.608902
1.61927
1.583792
1.586666
1.590687
1.596162
1.603489
1.613273
1.624333
1.581786
1.584325
1.587883
1.592688
1.599085
1.607531
1.617748
1.629453
1.580078
1.582349
1.585531
1.589819
1.595466
1.60286
1.611618
1.622233
1.63455
1.578583
1.580634
1.583513
1.587378
1.592445
1.599002
1.606647
1.615709
1.62672
1.639675
1.577244
1.579113
1.58174
1.585263
1.589857
1.595766
1.602535
1.610431
1.619805
1.631237
1.644894
1.576028
1.577744
1.580163
1.583399
1.587608
1.592987
1.599078
1.606059
1.614211
1.623911
1.635799
1.649072
1.574914
1.576502
1.578744
1.581742
1.585628
1.590574
1.596112
1.602383
1.609576
1.617985
1.628019
1.639404
1.65222
1.573893
1.575373
1.577465
1.580261
1.583876
1.588458
1.593544
1.599237
1.605684
1.613081
1.621738
1.631216
1.642037
1.654258
1.572971
1.574358
1.576322
1.578945
1.582329
1.586602
1.591307
1.596526
1.602365
1.608976
1.61656
1.624631
1.633488
1.643631
1.655019
1.572163
1.573472
1.575326
1.577799
1.580981
1.584987
1.589367
1.594185
1.599524
1.605494
1.612244
1.619234
1.626661
1.634803
1.644103
1.571478
1.572721
1.574479
1.57682
1.579825
1.583595
1.587692
1.592168
1.597087
1.602532
1.60861
1.614774
1.621131
1.627857
1.63519
1.570871
1.572056
1.573731
1.575956
1.578804
1.582366
1.586218
1.590402
1.594968
1.599981
1.605522
1.611045
1.616616
1.622326
1.628326
1.570289
1.571423
1.573023
1.575144
1.577854
1.581233
1.584873
1.588807
1.593076
1.597732
1.602838
1.607861
1.612836
1.617817
1.622879
1.569695
1.570782
1.572315
1.574343
1.57693
1.580149
1.583603
1.587321
1.591339
1.595697
1.600446
1.605067
1.60958
1.614011
1.618403
1.569072
1.570116
1.571587
1.573532
1.576008
1.579085
1.582377
1.585908
1.589709
1.593815
1.598266
1.602559
1.606703
1.610708
1.614594
1.596628
1.602003
1.608314
1.592701
1.597251
1.603501
1.610887
1.589342
1.593189
1.598546
1.605785
1.614437
1.586455
1.589742
1.594346
1.600604
1.608979
1.619148
1.583968
1.586834
1.590837
1.59628
1.603555
1.613243
1.62414
1.58186
1.584391
1.587938
1.592726
1.599099
1.607516
1.617703
1.629372
1.580092
1.582359
1.585535
1.589814
1.595452
1.602838
1.611597
1.622241
1.634624
1.578575
1.580624
1.583501
1.587362
1.592426
1.598982
1.606628
1.615705
1.626762
1.639806
1.577237
1.579105
1.581732
1.585253
1.589846
1.595754
1.602523
1.610423
1.619809
1.631271
1.644981
1.576028
1.577744
1.580163
1.583399
1.587608
1.592987
1.599078
1.606059
1.614211
1.623911
1.635799
1.649072
1.57492
1.576508
1.57875
1.581749
1.585635
1.590582
1.596121
1.602394
1.609587
1.617995
1.628021
1.639383
1.652162
1.573897
1.575376
1.577468
1.580264
1.58388
1.588464
1.593552
1.59925
1.605703
1.613108
1.621771
1.631249
1.642052
1.654254
1.572952
1.574339
1.576302
1.578925
1.582311
1.586588
1.591298
1.596526
1.602379
1.609007
1.616616
1.624716
1.633604
1.643781
1.655263
1.572094
1.573401
1.575254
1.577727
1.580913
1.584925
1.589316
1.594149
1.599509
1.605507
1.612298
1.619339
1.626832
1.63506
1.644494
1.571339
1.572578
1.574335
1.576677
1.579687
1.583467
1.58758
1.592076
1.597021
1.602501
1.608627
1.614851
1.621283
1.628107
1.635579
1.570697
1.571877
1.57355
1.575776
1.57863
1.582203
1.58607
1.590273
1.594863
1.599908
1.60549
1.611062
1.616691
1.622474
1.628569
1.570125
1.571255
1.572853
1.574975
1.577689
1.581078
1.58473
1.588678
1.592966
1.597645
1.60278
1.607836
1.612847
1.617872
1.622988
1.569574
1.570659
1.57219
1.574219
1.576808
1.580034
1.583495
1.587223
1.591252
1.595624
1.600391
1.605032
1.609565
1.614018
1.618437
1.569009
1.570052
1.571522
1.573467
1.575945
1.579025
1.58232
1.585856
1.589663
1.593774
1.598234
1.602535
1.606687
1.610701
1.614597
1.568414
1.569418
1.570832
1.572701
1.575079
1.578029
1.581177
1.584545
1.588158
1.592047
1.596246
1.600265
1.604107
1.607772
1.611266
1.592812
1.597357
1.603585
1.610919
1.589544
1.593386
1.598723
1.605909
1.614435
1.586709
1.589992
1.594578
1.600794
1.609074
1.619028
1.584216
1.587076
1.591063
1.59647
1.603679
1.613232
1.623863
1.582038
1.584564
1.588095
1.592856
1.599183
1.607524
1.617588
1.629015
1.580169
1.582431
1.585598
1.589861
1.595476
1.602827
1.611546
1.622137
1.634416
1.578592
1.580638
1.58351
1.587364
1.592418
1.598961
1.606595
1.615667
1.626737
1.639798
1.577231
1.579098
1.581723
1.585242
1.589831
1.595735
1.602501
1.6104
1.619797
1.631296
1.645065
1.576021
1.577737
1.580155
1.583391
1.587599
1.592977
1.599067
1.606048
1.614202
1.623912
1.635825
1.649143
1.57492
1.576508
1.57875
1.581749
1.585635
1.590582
1.596121
1.602394
1.609587
1.617995
1.628021
1.639383
1.652162
1.573903
1.575382
1.577474
1.58027
1.583886
1.58847
1.593559
1.599258
1.605713
1.613119
1.621782
1.631253
1.642036
1.654203
1.572956
1.574342
1.576305
1.578928
1.582313
1.58659
1.591303
1.596534
1.602392
1.609027
1.616644
1.624752
1.633641
1.643802
1.655267
1.572077
1.573382
1.575234
1.577707
1.580893
1.584908
1.589302
1.594141
1.599512
1.605524
1.612334
1.6194
1.626923
1.635183
1.644649
1.571273
1.572509
1.574265
1.576607
1.579619
1.583405
1.587525
1.592032
1.596993
1.602496
1.608653
1.614916
1.621399
1.628287
1.635843
1.570563
1.57174
1.57341
1.575637
1.578495
1.582077
1.585956
1.590175
1.594787
1.59986
1.605481
1.611098
1.616785
1.622639
1.628828
1.569957
1.571083
1.572678
1.574801
1.57752
1.580919
1.584583
1.588548
1.592856
1.597561
1.602731
1.607825
1.612881
1.61796
1.623143
1.569416
1.570497
1.572026
1.574056
1.576649
1.579883
1.583355
1.587096
1.59114
1.595532
1.600324
1.604991
1.609553
1.61404
1.618498
1.568893
1.569933
1.571401
1.573347
1.575828
1.578913
1.582216
1.58576
1.589576
1.5937
1.598175
1.602492
1.60666
1.610693
1.614608
1.568354
1.569356
1.570769
1.572639
1.575018
1.577971
1.581122
1.584494
1.588112
1.592006
1.596212
1.600239
1.604087
1.607759
1.61126
1.567783
1.56875
1.570112
1.571912
1.574199
1.577034
1.580052
1.583272
1.586716
1.590411
1.594387
1.598168
1.601751
1.605132
1.608305
1.589654
1.593494
1.598821
1.605978
1.614435
1.586907
1.590189
1.594762
1.600949
1.609158
1.618944
1.584466
1.587324
1.591299
1.596676
1.603827
1.613253
1.623622
1.582283
1.584806
1.588325
1.593059
1.599334
1.607585
1.617489
1.628582
1.580346
1.582605
1.585761
1.590002
1.595579
1.602868
1.611497
1.621937
1.633892
1.578671
1.580714
1.583579
1.587421
1.592454
1.598966
1.606559
1.615579
1.626575
1.639463
1.57725
1.579115
1.581736
1.58525
1.589831
1.595723
1.602473
1.610356
1.619741
1.631237
1.644976
1.576017
1.577732
1.580149
1.583383
1.587589
1.592963
1.599048
1.606024
1.614175
1.623892
1.635833
1.649191
1.574914
1.576502
1.578744
1.581742
1.585628
1.590574
1.596112
1.602383
1.609576
1.617985
1.628019
1.639404
1.65222
1.573903
1.575382
1.577474
1.58027
1.583886
1.58847
1.593559
1.599258
1.605713
1.613119
1.621782
1.631253
1.642036
1.654203
1.572962
1.574348
1.576311
1.578933
1.582318
1.586595
1.591308
1.59654
1.602399
1.609036
1.616655
1.624764
1.633647
1.643788
1.65522
1.57208
1.573385
1.575236
1.577709
1.580894
1.584908
1.589303
1.594145
1.599519
1.605537
1.612354
1.619429
1.626961
1.635223
1.644674
1.571257
1.572491
1.574245
1.576587
1.579598
1.583385
1.587508
1.592019
1.596988
1.602501
1.608673
1.614957
1.621464
1.628382
1.635969
1.5705
1.571674
1.573343
1.575569
1.578428
1.582014
1.585899
1.590127
1.594751
1.599841
1.605486
1.611134
1.616859
1.622761
1.629013
1.569829
1.570951
1.572544
1.574667
1.577389
1.580796
1.58447
1.588448
1.592774
1.597502
1.602703
1.607832
1.612932
1.618065
1.623315
1.569254
1.570331
1.571858
1.573888
1.576486
1.579728
1.583212
1.586966
1.591028
1.595442
1.600263
1.60496
1.609558
1.614086
1.618593
1.56874
1.569777
1.571243
1.57319
1.575674
1.578767
1.582079
1.585634
1.589465
1.593606
1.598102
1.602441
1.606633
1.610691
1.614635
1.568241
1.569241
1.570653
1.572522
1.574904
1.577863
1.58102
1.5844
1.588027
1.591932
1.596151
1.600191
1.604053
1.607739
1.611255
1.567725
1.568691
1.570052
1.571852
1.57414
1.576978
1.579998
1.583222
1.58667
1.59037
1.594353
1.59814
1.601729
1.605115
1.608294
1.567176
1.56811
1.569425
1.57116
1.573364
1.576093
1.578991
1.582076
1.585368
1.588889
1.592666
1.596238
1.599597
1.602736
1.605643
1.587015
1.590296
1.594864
1.601036
1.609207
1.618904
1.584659
1.587518
1.591485
1.596843
1.603951
1.613284
1.623457
1.582526
1.58505
1.588561
1.593273
1.599506
1.607677
1.617435
1.628221
1.580586
1.582845
1.585992
1.590212
1.59575
1.602969
1.611494
1.621749
1.633305
1.578846
1.580888
1.583745
1.58757
1.592573
1.599035
1.606557
1.615473
1.62629
1.638774
1.577329
1.579193
1.581809
1.585313
1.589878
1.595744
1.602459
1.610295
1.619617
1.631016
1.644514
1.576037
1.577751
1.580166
1.583396
1.587595
1.592959
1.599031
1.60599
1.614121
1.623818
1.635741
1.649039
1.57491
1.576498
1.578739
1.581737
1.585621
1.590564
1.596098
1.602364
1.609551
1.617955
1.627992
1.639398
1.652242
1.573897
1.575376
1.577468
1.580264
1.58388
1.588464
1.593552
1.59925
1.605703
1.613108
1.621771
1.631249
1.642052
1.654254
1.572962
1.574348
1.576311
1.578933
1.582318
1.586595
1.591308
1.59654
1.602399
1.609036
1.616655
1.624764
1.633647
1.643788
1.65522
1.572086
1.573391
1.575242
1.577713
1.580898
1.584912
1.589307
1.594149
1.599524
1.605543
1.612363
1.61944
1.626973
1.63523
1.644662
1.571261
1.572495
1.574248
1.576588
1.579599
1.583385
1.587507
1.59202
1.59699
1.602507
1.608685
1.614977
1.621494
1.628422
1.636011
1.570485
1.571658
1.573325
1.575549
1.578408
1.581994
1.58588
1.59011
1.59474
1.599837
1.605494
1.611157
1.616902
1.622829
1.62911
1.569769
1.570888
1.57248
1.574602
1.577324
1.580734
1.584412
1.588396
1.592732
1.597474
1.602692
1.607846
1.612975
1.618144
1.623441
1.569132
1.570204
1.571729
1.573759
1.576359
1.579608
1.5831
1.586865
1.590942
1.595375
1.60022
1.604947
1.609578
1.614146
1.618702
1.568585
1.569617
1.571082
1.573028
1.575516
1.578617
1.581938
1.585506
1.589351
1.593511
1.598031
1.602396
1.606616
1.610706
1.614687
1.568094
1.56909
1.5705
1.57237
1.574755
1.577721
1.580887
1.584276
1.587916
1.591836
1.596074
1.600132
1.604013
1.60772
1.611258
1.567615
1.568579
1.569939
1.571739
1.57403
1.576873
1.579899
1.583129
1.586586
1.590296
1.59429
1.598089
1.601689
1.605086
1.608277
1.567119
1.568052
1.569366
1.571102
1.573307
1.576038
1.578939
1.582028
1.585323
1.588849
1.592631
1.596208
1.599573
1.602716
1.605628
1.56659
1.567494
1.568765
1.570442
1.572569
1.5752
1.577989
1.58095
1.584102
1.587466
1.591064
1.59445
1.597613
1.600544
1.603227
1.584764
1.587623
1.591587
1.596935
1.604022
1.613307
1.623377
1.582714
1.58524
1.588746
1.593444
1.599647
1.607761
1.617415
1.627975
1.580823
1.583084
1.586226
1.59043
1.595936
1.603096
1.61153
1.621622
1.632823
1.57908
1.581123
1.583975
1.587784
1.592756
1.599164
1.606608
1.615407
1.626014
1.638032
1.577501
1.579365
1.581977
1.585468
1.590009
1.595834
1.602493
1.610249
1.619453
1.630647
1.64366
1.576115
1.577829
1.580241
1.583465
1.587651
1.592994
1.599037
1.605956
1.614034
1.623659
1.635462
1.648479
1.57493
1.576518
1.578758
1.581753
1.585633
1.590569
1.596091
1.602342
1.609509
1.617889
1.6279
1.63928
1.652044
1.573893
1.575373
1.577465
1.580261
1.583876
1.588458
1.593544
1.599237
1.605684
1.613081
1.621738
1.631216
1.642037
1.654258
1.572956
1.574342
1.576305
1.578928
1.582313
1.58659
1.591303
1.596534
1.602392
1.609027
1.616644
1.624752
1.633641
1.643802
1.655267
1.572086
1.573391
1.575242
1.577713
1.580898
1.584912
1.589307
1.594149
1.599524
1.605543
1.612363
1.61944
1.626973
1.63523
1.644662
1.571267
1.572501
1.574253
1.576592
1.579603
1.583388
1.587509
1.592022
1.596993
1.602511
1.608691
1.614985
1.621505
1.628434
1.636018
1.57049
1.571661
1.573327
1.575551
1.578408
1.581993
1.585878
1.590108
1.594739
1.599839
1.605499
1.611169
1.616922
1.62286
1.62915
1.569756
1.570873
1.572463
1.574583
1.577305
1.580713
1.584392
1.588378
1.592716
1.597463
1.60269
1.607855
1.613
1.618189
1.62351
1.569075
1.570145
1.571667
1.573696
1.576296
1.579547
1.583042
1.586812
1.590896
1.595339
1.600199
1.604943
1.609597
1.614193
1.618785
1.568467
1.569496
1.570958
1.572904
1.575394
1.5785
1.581828
1.585406
1.589263
1.593439
1.597979
1.602367
1.606613
1.610734
1.614751
1.567944
1.568936
1.570344
1.572215
1.574603
1.577575
1.58075
1.58415
1.587803
1.591739
1.595997
1.600077
1.603981
1.607712
1.611278
1.567473
1.568433
1.569792
1.571593
1.573886
1.576735
1.579769
1.583009
1.586476
1.5902
1.59421
1.598024
1.601641
1.605055
1.608262
1.567014
1.567944
1.569257
1.570993
1.573201
1.575936
1.578843
1.581937
1.58524
1.588775
1.592568
1.596155
1.599529
1.602681
1.605602
1.566535
1.567438
1.568708
1.570385
1.572514
1.575147
1.577938
1.580903
1.584059
1.587426
1.591029
1.594419
1.597588
1.600522
1.603208
1.566024
1.566899
1.568131
1.569753
1.57181
1.57435
1.577037
1.579885
1.58291
1.58613
1.589566
1.592785
1.595776
1.598525
1.601016
1.582816
1.585343
1.588847
1.593538
1.599726
1.607812
1.617411
1.627855
1.581005
1.583268
1.586407
1.590601
1.596085
1.603205
1.611576
1.62155
1.632497
1.579309
1.581356
1.584204
1.588001
1.592948
1.599312
1.60669
1.615388
1.625813
1.637429
1.577727
1.579594
1.582203
1.585682
1.590199
1.595981
1.602581
1.61025
1.619324
1.630283
1.642763
1.576282
1.577998
1.580407
1.583621
1.587789
1.5931
1.599098
1.605956
1.613945
1.623438
1.635008
1.647495
1.575007
1.576595
1.578834
1.581824
1.585695
1.590614
1.596114
1.602333
1.609457
1.617778
1.627704
1.638956
1.651411
1.573913
1.575393
1.577484
1.580279
1.583892
1.588469
1.593546
1.599227
1.605657
1.613033
1.621662
1.63111
1.6419
1.65403
1.572952
1.574339
1.576302
1.578925
1.582311
1.586588
1.591298
1.596526
1.602379
1.609007
1.616616
1.624716
1.633604
1.643781
1.655263
1.57208
1.573385
1.575236
1.577709
1.580894
1.584908
1.589303
1.594145
1.599519
1.605537
1.612354
1.619429
1.626961
1.635223
1.644674
1.571267
1.572501
1.574253
1.576592
1.579603
1.583388
1.587509
1.592022
1.596993
1.602511
1.608691
1.614985
1.621505
1.628434
1.636018
1.570496
1.571667
1.573333
1.575555
1.578411
1.581995
1.58588
1.59011
1.59474
1.59984
1.605502
1.611173
1.61693
1.622871
1.629162
1.569761
1.570877
1.572466
1.574585
1.577305
1.580712
1.584389
1.588374
1.592713
1.597461
1.602691
1.60786
1.613011
1.61821
1.623541
1.569063
1.570131
1.571652
1.573679
1.576277
1.579527
1.583021
1.586792
1.590878
1.595325
1.60019
1.604942
1.609608
1.614219
1.618831
1.568414
1.569439
1.570899
1.572844
1.575333
1.578441
1.581771
1.585352
1.589215
1.593399
1.59795
1.602351
1.606614
1.610756
1.614801
1.567832
1.56882
1.570226
1.572095
1.574485
1.577462
1.580643
1.584051
1.587714
1.591663
1.595938
1.600036
1.603961
1.607716
1.61131
1.567329
1.568285
1.569642
1.571442
1.573739
1.576594
1.579636
1.582885
1.586364
1.590102
1.594129
1.597962
1.601597
1.60503
1.608259
1.566876
1.567803
1.569115
1.570851
1.573062
1.575803
1.578717
1.581819
1.585132
1.588679
1.592486
1.596087
1.599474
1.60264
1.605574
1.566433
1.567333
1.568603
1.57028
1.572411
1.575048
1.577844
1.580814
1.583977
1.587353
1.590965
1.594364
1.597541
1.600483
1.603176
1.56597
1.566845
1.568076
1.569699
1.571756
1.574298
1.576988
1.579839
1.582867
1.586091
1.589532
1.592755
1.595749
1.598502
1.600996
1.565474
1.566325
1.567519
1.569091
1.571082
1.573538
1.576131
1.578875
1.581783
1.584872
1.58816
1.591228
1.594065
1.596655
1.59898
1.581103
1.583368
1.586506
1.590695
1.596168
1.603267
1.611605
1.62152
1.632336
1.579485
1.581535
1.584382
1.588171
1.593101
1.599434
1.606767
1.615394
1.625689
1.637023
1.577949
1.57982
1.582427
1.585897
1.590394
1.596141
1.602692
1.610288
1.61925
1.630008
1.642039
1.576501
1.578221
1.580628
1.583834
1.587982
1.593259
1.59921
1.606002
1.613897
1.623245
1.634555
1.646478
1.575168
1.57676
1.578997
1.581981
1.585837
1.590731
1.596195
1.602365
1.609422
1.617645
1.627426
1.638435
1.650333
1.573987
1.575469
1.57756
1.580352
1.583958
1.588522