/*--------------------------------*- C++ -*----------------------------------*\
| =========                 |                                                 |
| \\      /  F ield         | OpenFOAM: The Open Source CFD Toolbox           |
|  \\    /   O peration     | Version:  2306                                  |
|   \\  /    A nd           | Website:  www.openfoam.com                      |
|    \\/     M anipulation  |                                                 |
\*---------------------------------------------------------------------------*/
FoamFile
{
    version     2.0;
    format      ascii;
    arch        "LSB;label=32;scalar=64";
    class       volScalarField;
    location    "1.5/phiI";
    object      T;
}
// * * * * * * * * * * * * * * * * * * * * * * * * * * * * * * * * * * * * * //

dimensions      [0 0 0 1 0 0 0];

internalField   nonuniform List<scalar> 
12000
(
1122.945
1122.803
1124.648
1123.016
1122.474
1124.637
1122.874
1126.231
1124.71
1123.072
1121.854
1124.612
1122.546
1126.257
1124.7
1122.931
1127.725
1126.284
1124.759
1123.114
1120.789
1124.561
1121.929
1126.315
1124.674
1122.603
1127.763
1126.31
1124.748
1122.973
1129.164
1127.771
1126.326
1124.794
1123.14
1119.181
1124.469
1120.873
1126.419
1124.622
1121.989
1127.847
1126.368
1124.722
1122.646
1129.205
1127.809
1126.352
1124.783
1122.999
1130.556
1129.204
1127.806
1126.354
1124.815
1123.149
1117.327
1124.302
1119.286
1126.587
1124.527
1120.941
1128.001
1126.47
1124.669
1122.034
1129.297
1127.893
1126.409
1124.756
1122.672
1130.597
1129.245
1127.843
1126.38
1124.804
1123.008
1131.901
1130.591
1129.233
1127.829
1126.37
1124.821
1123.156
1115.629
1123.995
1117.46
1126.808
1124.356
1119.375
1128.252
1126.634
1124.571
1120.994
1129.463
1128.045
1126.509
1124.702
1122.062
1130.688
1129.336
1127.927
1126.436
1124.776
1122.681
1131.94
1130.631
1129.273
1127.866
1126.395
1124.809
1123.015
1133.198
1131.931
1130.615
1129.251
1127.839
1126.372
1124.825
1123.163
1114.37
1123.62
1115.787
1126.953
1124.051
1117.576
1128.599
1126.847
1124.396
1119.447
1129.737
1128.291
1126.668
1124.601
1121.03
1130.854
1129.501
1128.077
1126.535
1124.72
1122.073
1132.029
1130.722
1129.364
1127.949
1126.451
1124.78
1122.689
1133.235
1131.97
1130.655
1129.291
1127.876
1126.396
1124.813
1123.022
1134.446
1133.224
1131.951
1130.628
1129.257
1127.837
1126.373
1124.829
1123.17
1113.706
1123.291
1114.545
1127.005
1123.68
1115.927
1128.901
1126.987
1124.092
1117.673
1130.12
1128.63
1126.873
1124.421
1119.501
1131.128
1129.771
1128.319
1126.69
1124.616
1121.047
1132.189
1130.887
1129.528
1128.097
1126.548
1124.723
1122.082
1133.319
1132.058
1130.746
1129.381
1127.958
1126.451
1124.784
1122.696
1134.481
1133.261
1131.99
1130.668
1129.297
1127.874
1126.397
1124.817
1123.03
1135.644
1134.469
1133.241
1131.961
1130.631
1129.252
1127.835
1126.373
1124.833
1123.177
1113.706
1123.101
1113.891
1127.001
1123.357
1114.703
1129.109
1127.037
1123.726
1116.049
1130.473
1128.925
1127.008
1124.118
1117.753
1131.511
1130.145
1128.648
1126.885
1124.432
1119.533
1132.452
1131.156
1129.793
1128.334
1126.697
1124.615
1121.061
1133.472
1132.217
1130.909
1129.543
1128.104
1126.546
1124.724
1122.092
1134.561
1133.345
1132.077
1130.758
1129.386
1127.955
1126.451
1124.787
1122.704
1135.677
1134.504
1133.278
1132
1130.671
1129.291
1127.871
1126.398
1124.82
1123.037
1136.793
1135.664
1134.482
1133.248
1131.961
1130.623
1129.247
1127.833
1126.374
1124.836
1123.184
1114.37
1123.101
1113.891
1126.986
1123.17
1114.058
1129.229
1127.035
1123.408
1114.842
1130.735
1129.13
1127.057
1123.757
1116.151
1131.871
1130.491
1128.937
1127.016
1124.128
1117.805
1132.82
1131.531
1130.159
1128.654
1126.884
1124.426
1119.56
1133.721
1132.477
1131.175
1129.804
1128.337
1126.691
1124.614
1121.076
1134.705
1133.496
1132.235
1130.92
1129.547
1128.099
1126.544
1124.726
1122.102
1135.753
1134.583
1133.361
1132.087
1130.76
1129.38
1127.952
1126.451
1124.789
1122.712
1136.824
1135.697
1134.518
1133.285
1131.999
1130.663
1129.287
1127.869
1126.398
1124.824
1123.044
1137.892
1136.81
1135.676
1134.487
1133.245
1131.951
1130.616
1129.242
1127.83
1126.374
1124.84
1123.196
1115.629
1123.291
1114.545
1126.986
1123.17
1114.058
1129.282
1127.021
1123.224
1114.205
1130.901
1129.249
1127.055
1123.443
1114.961
1132.148
1130.75
1129.138
1127.064
1123.772
1116.223
1133.172
1131.886
1130.498
1128.937
1127.009
1124.123
1117.85
1134.072
1132.838
1131.542
1130.161
1128.648
1126.87
1124.422
1119.587
1134.942
1133.743
1132.491
1131.182
1129.803
1128.327
1126.685
1124.613
1121.092
1135.89
1134.727
1133.511
1132.243
1130.921
1129.539
1128.094
1126.542
1124.728
1122.112
1136.896
1135.773
1134.597
1133.368
1132.086
1130.752
1129.375
1127.949
1126.45
1124.792
1122.72
1137.922
1136.842
1135.709
1134.522
1133.282
1131.989
1130.656
1129.281
1127.866
1126.398
1124.827
1123.056
1138.942
1137.907
1136.82
1135.679
1134.483
1133.234
1131.943
1130.61
1129.237
1127.828
1126.374
1124.848
1123.213
1117.327
1123.62
1115.787
1127.001
1123.357
1114.703
1129.282
1127.021
1123.224
1114.205
1130.981
1129.302
1127.042
1123.263
1114.333
1132.328
1130.914
1129.256
1127.062
1123.463
1115.047
1133.445
1132.159
1130.753
1129.135
1127.056
1123.77
1116.284
1134.407
1133.184
1131.89
1130.494
1128.924
1126.991
1124.118
1117.894
1135.273
1134.087
1132.846
1131.541
1130.151
1128.63
1126.858
1124.417
1119.614
1136.114
1134.961
1133.755
1132.496
1131.178
1129.791
1128.318
1126.679
1124.612
1121.107
1137.026
1135.909
1134.739
1133.517
1132.241
1130.91
1129.531
1128.089
1126.539
1124.729
1122.122
1137.99
1136.914
1135.784
1134.601
1133.365
1132.075
1130.744
1129.369
1127.945
1126.449
1124.795
1122.734
1138.97
1137.938
1136.852
1135.712
1134.518
1133.271
1131.981
1130.649
1129.276
1127.863
1126.397
1124.834
1123.073
1139.943
1138.956
1137.915
1136.821
1135.673
1134.47
1133.224
1131.934
1130.602
1129.232
1127.825
1126.378
1124.859
1123.233
1119.181
1123.995
1117.46
1127.005
1123.68
1115.927
1129.229
1127.035
1123.408
1114.842
1130.981
1129.302
1127.042
1123.263
1114.333
1132.416
1130.993
1129.309
1127.05
1123.286
1114.427
1133.625
1132.337
1130.916
1129.252
1127.055
1123.466
1115.121
1134.67
1133.453
1132.159
1130.745
1129.118
1127.036
1123.768
1116.344
1135.591
1134.417
1133.186
1131.883
1130.477
1128.9
1126.975
1124.113
1117.937
1136.427
1135.286
1134.093
1132.844
1131.53
1130.132
1128.615
1126.845
1124.412
1119.641
1137.239
1136.131
1134.971
1133.758
1132.49
1131.164
1129.78
1128.309
1126.673
1124.611
1121.123
1138.114
1137.043
1135.92
1134.743
1133.512
1132.229
1130.901
1129.524
1128.084
1126.536
1124.73
1122.138
1139.036
1138.006
1136.923
1135.787
1134.596
1133.353
1132.066
1130.736
1129.363
1127.941
1126.448
1124.801
1122.752
1139.971
1138.985
1137.946
1136.853
1135.706
1134.505
1133.26
1131.972
1130.641
1129.27
1127.859
1126.401
1124.846
1123.094
1140.898
1139.956
1138.962
1137.916
1136.814
1135.659
1134.46
1133.214
1131.925
1130.595
1129.226
1127.825
1126.386
1124.876
1123.259
1120.789
1124.302
1119.286
1126.953
1124.051
1117.576
1129.109
1127.037
1123.726
1116.049
1130.901
1129.249
1127.055
1123.443
1114.961
1132.416
1130.993
1129.309
1127.05
1123.286
1114.427
1133.714
1132.424
1130.994
1129.304
1127.043
1123.291
1114.506
1134.845
1133.632
1132.336
1130.906
1129.234
1127.035
1123.467
1115.192
1135.842
1134.677
1133.452
1132.149
1130.725
1129.092
1127.019
1123.766
1116.403
1136.729
1135.6
1134.418
1133.178
1131.866
1130.452
1128.88
1126.958
1124.108
1117.98
1137.535
1136.438
1135.29
1134.089
1132.831
1131.509
1130.115
1128.599
1126.833
1124.407
1119.668
1138.316
1137.254
1136.139
1134.971
1133.75
1132.475
1131.152
1129.769
1128.3
1126.666
1124.61
1121.145
1139.154
1138.129
1137.052
1135.921
1134.737
1133.499
1132.218
1130.892
1129.516
1128.078
1126.533
1124.736
1122.159
1140.034
1139.05
1138.014
1136.924
1135.78
1134.583
1133.342
1132.057
1130.728
1129.356
1127.936
1126.45
1124.813
1122.775
1140.924
1139.984
1138.991
1137.946
1136.846
1135.692
1134.494
1133.25
1131.963
1130.633
1129.264
1127.86
1126.409
1124.862
1123.12
1141.805
1140.909
1139.962
1138.962
1137.908
1136.8
1135.648
1134.448
1133.204
1131.916
1130.587
1129.224
1127.83
1126.398
1124.896
1121.854
1124.469
1120.873
1126.808
1124.356
1119.375
1128.901
1126.987
1124.092
1117.673
1130.735
1129.13
1127.057
1123.757
1116.151
1132.328
1130.914
1129.256
1127.062
1123.463
1115.047
1133.714
1132.424
1130.994
1129.304
1127.043
1123.291
1114.506
1134.931
1133.72
1132.423
1130.984
1129.286
1127.024
1123.295
1114.584
1136.009
1134.851
1133.629
1132.324
1130.885
1129.207
1127.018
1123.469
1115.263
1136.967
1135.848
1134.675
1133.441
1132.128
1130.697
1129.069
1127.001
1123.764
1116.461
1137.822
1136.736
1135.6
1134.41
1133.16
1131.84
1130.43
1128.859
1126.942
1124.103
1118.021
1138.598
1137.545
1136.442
1135.285
1134.075
1132.81
1131.491
1130.097
1128.583
1126.82
1124.402
1119.7
1139.347
1138.33
1137.26
1136.138
1134.962
1133.734
1132.461
1131.139
1129.758
1128.29
1126.659
1124.613
1121.172
1140.147
1139.168
1138.137
1137.052
1135.914
1134.723
1133.488
1132.208
1130.882
1129.508
1128.071
1126.534
1124.746
1122.185
1140.984
1140.047
1139.057
1138.014
1136.917
1135.766
1134.572
1133.331
1132.047
1130.72
1129.349
1127.936
1126.457
1124.828
1122.802
1141.831
1140.936
1139.989
1138.99
1137.938
1136.832
1135.68
1134.483
1133.24
1131.953
1130.625
1129.261
1127.863
1126.42
1124.882
1142.667
1141.816
1140.914
1139.96
1138.953
1137.893
1136.788
1135.636
1134.437
1133.193
1131.906
1130.582
1129.225
1127.838
1126.414
1122.474
1124.561
1121.929
1126.587
1124.527
1120.941
1128.599
1126.847
1124.396
1119.447
1130.473
1128.925
1127.008
1124.118
1117.753
1132.148
1130.75
1129.138
1127.064
1123.772
1116.223
1133.625
1132.337
1130.916
1129.252
1127.055
1123.466
1115.121
1134.931
1133.72
1132.423
1130.984
1129.286
1127.024
1123.295
1114.584
1136.092
1134.936
1133.717
1132.41
1130.962
1129.259
1127.008
1123.299
1114.661
1137.127
1136.014
1134.847
1133.617
1132.301
1130.855
1129.183
1127.001
1123.469
1115.332
1138.049
1136.973
1135.845
1134.664
1133.42
1132.099
1130.672
1129.046
1126.984
1123.761
1116.518
1138.87
1137.828
1136.736
1135.591
1134.391
1133.134
1131.817
1130.408
1128.839
1126.925
1124.097
1118.068
1139.615
1138.607
1137.547
1136.436
1135.271
1134.054
1132.791
1131.473
1130.08
1128.567
1126.807
1124.401
1119.736
1140.331
1139.359
1138.335
1137.258
1136.128
1134.946
1133.72
1132.448
1131.126
1129.746
1128.28
1126.656
1124.62
1121.204
1141.093
1140.159
1139.174
1138.136
1137.044
1135.899
1134.71
1133.476
1132.196
1130.872
1129.499
1128.068
1126.538
1124.76
1122.216
1141.889
1140.996
1140.052
1139.056
1138.005
1136.902
1135.754
1134.56
1133.32
1132.037
1130.71
1129.345
1127.939
1126.468
1124.848
1142.692
1141.842
1140.941
1139.988
1138.982
1137.923
1136.819
1135.668
1134.471
1133.229
1131.943
1130.62
1129.262
1127.871
1126.436
1143.485
1142.677
1141.82
1140.912
1139.951
1138.938
1137.88
1136.775
1135.624
1134.426
1133.182
1131.899
1130.58
1129.23
1127.85
1122.803
1124.612
1122.546
1126.419
1124.622
1121.989
1128.252
1126.634
1124.571
1120.994
1130.12
1128.63
1126.873
1124.421
1119.501
1131.871
1130.491
1128.937
1127.016
1124.128
1117.805
1133.445
1132.159
1130.753
1129.135
1127.056
1123.77
1116.284
1134.845
1133.632
1132.336
1130.906
1129.234
1127.035
1123.467
1115.192
1136.092
1134.936
1133.717
1132.41
1130.962
1129.259
1127.008
1123.299
1114.661
1137.206
1136.097
1134.932
1133.703
1132.386
1130.931
1129.235
1126.991
1123.302
1114.736
1138.201
1137.131
1136.01
1134.834
1133.593
1132.271
1130.829
1129.159
1126.984
1123.47
1115.4
1139.087
1138.053
1136.969
1135.834
1134.642
1133.391
1132.074
1130.647
1129.023
1126.966
1123.758
1116.579
1139.876
1138.877
1137.827
1136.726
1135.572
1134.365
1133.111
1131.795
1130.386
1128.818
1126.908
1124.096
1118.119
1140.588
1139.623
1138.608
1137.541
1136.421
1135.25
1134.035
1132.772
1131.454
1130.062
1128.55
1126.798
1124.405
1119.778
1141.27
1140.342
1139.363
1138.332
1137.248
1136.111
1134.931
1133.705
1132.434
1131.113
1129.733
1128.273
1126.657
1124.632
1121.241
1141.994
1141.104
1140.164
1139.172
1138.127
1137.028
1135.886
1134.697
1133.463
1132.185
1130.861
1129.493
1128.069
1126.547
1124.778
1142.748
1141.9
1141.001
1140.05
1139.046
1137.99
1136.889
1135.742
1134.548
1133.309
1132.026
1130.704
1129.345
1127.945
1126.482
1143.509
1142.702
1141.845
1140.938
1139.978
1138.967
1137.91
1136.807
1135.656
1134.46
1133.217
1131.936
1130.618
1129.267
1127.883
1144.259
1143.494
1142.68
1141.817
1140.902
1139.936
1138.925
1137.868
1136.763
1135.612
1134.413
1133.173
1131.895
1130.582
1129.238
1122.945
1124.637
1122.874
1126.315
1124.674
1122.603
1128.001
1126.47
1124.669
1122.034
1129.737
1128.291
1126.668
1124.601
1121.03
1131.511
1130.145
1128.648
1126.885
1124.432
1119.533
1133.172
1131.886
1130.498
1128.937
1127.009
1124.123
1117.85
1134.67
1133.453
1132.159
1130.745
1129.118
1127.036
1123.768
1116.344
1136.009
1134.851
1133.629
1132.324
1130.885
1129.207
1127.018
1123.469
1115.263
1137.206
1136.097
1134.932
1133.703
1132.386
1130.931
1129.235
1126.991
1123.302
1114.736
1138.277
1137.21
1136.092
1134.919
1133.679
1132.355
1130.904
1129.21
1126.974
1123.304
1114.81
1139.233
1138.205
1137.127
1135.997
1134.811
1133.563
1132.244
1130.802
1129.135
1126.966
1123.47
1115.472
1140.083
1139.091
1138.05
1136.958
1135.812
1134.614
1133.366
1132.048
1130.622
1129
1126.947
1123.759
1116.644
1140.837
1139.881
1138.875
1137.817
1136.708
1135.547
1134.343
1133.089
1131.772
1130.364
1128.796
1126.895
1124.1
1118.174
1141.515
1140.595
1139.624
1138.602
1137.526
1136.4
1135.231
1134.016
1132.754
1131.436
1130.044
1128.537
1126.792
1124.414
1119.825
1142.163
1141.28
1140.346
1139.36
1138.321
1137.23
1136.096
1134.916
1133.691
1132.42
1131.099
1129.724
1128.27
1126.661
1124.649
1142.849
1142.004
1141.109
1140.162
1139.162
1138.111
1137.015
1135.872
1134.684
1133.451
1132.173
1130.853
1129.491
1128.074
1126.56
1143.563
1142.758
1141.903
1140.998
1140.041
1139.031
1137.977
1136.876
1135.729
1134.536
1133.297
1132.018
1130.702
1129.349
1127.956
1144.282
1143.518
1142.705
1141.843
1140.928
1139.963
1138.954
1137.897
1136.794
1135.644
1134.447
1133.208
1131.932
1130.62
1129.275
1144.99
1144.267
1143.497
1142.677
1141.807
1140.887
1139.923
1138.912
1137.855
1136.75
1135.598
1134.403
1133.168
1131.895
1130.588
1124.648
1123.016
1126.257
1124.7
1122.931
1127.847
1126.368
1124.722
1122.646
1129.463
1128.045
1126.509
1124.702
1122.062
1131.128
1129.771
1128.319
1126.69
1124.616
1121.047
1132.82
1131.531
1130.159
1128.654
1126.884
1124.426
1119.56
1134.407
1133.184
1131.89
1130.494
1128.924
1126.991
1124.118
1117.894
1135.842
1134.677
1133.452
1132.149
1130.725
1129.092
1127.019
1123.766
1116.403
1137.127
1136.014
1134.847
1133.617
1132.301
1130.855
1129.183
1127.001
1123.469
1115.332
1138.277
1137.21
1136.092
1134.919
1133.679
1132.355
1130.904
1129.21
1126.974
1123.304
1114.81
1139.306
1138.28
1137.205
1136.078
1134.895
1133.649
1132.328
1130.878
1129.186
1126.956
1123.306
1114.887
1140.223
1139.236
1138.201
1137.114
1135.975
1134.782
1133.537
1132.217
1130.776
1129.111
1126.947
1123.474
1115.547
1141.036
1140.087
1139.088
1138.038
1136.937
1135.785
1134.59
1133.341
1132.023
1130.597
1128.976
1126.932
1123.764
1116.713
1141.755
1140.842
1139.879
1138.865
1137.799
1136.683
1135.525
1134.321
1133.066
1131.749
1130.34
1128.778
1126.886
1124.107
1118.234
1142.399
1141.522
1140.595
1139.617
1138.586
1137.505
1136.381
1135.212
1133.998
1132.735
1131.416
1130.028
1128.527
1126.791
1124.426
1143.013
1142.172
1141.283
1140.342
1139.348
1138.303
1137.215
1136.08
1134.901
1133.676
1132.404
1131.087
1129.718
1128.27
1126.67
1143.66
1142.858
1142.007
1141.105
1140.152
1139.146
1138.097
1137.001
1135.859
1134.671
1133.437
1132.163
1130.849
1129.493
1128.082
1144.334
1143.572
1142.761
1141.9
1140.988
1140.025
1139.018
1137.964
1136.863
1135.716
1134.522
1133.287
1132.013
1130.702
1129.356
1145.013
1144.29
1143.521
1142.702
1141.833
1140.913
1139.95
1138.94
1137.884
1136.781
1135.63
1134.437
1133.203
1131.931
1130.625
1145.68
1144.998
1144.27
1143.493
1142.667
1141.792
1140.874
1139.909
1138.899
1137.841
1136.736
1135.587
1134.396
1133.166
1131.898
1126.231
1124.71
1123.072
1127.763
1126.31
1124.748
1122.973
1129.297
1127.893
1126.409
1124.756
1122.672
1130.854
1129.501
1128.077
1126.535
1124.72
1122.073
1132.452
1131.156
1129.793
1128.334
1126.697
1124.615
1121.061
1134.072
1132.838
1131.542
1130.161
1128.648
1126.87
1124.422
1119.587
1135.591
1134.417
1133.186
1131.883
1130.477
1128.9
1126.975
1124.113
1117.937
1136.967
1135.848
1134.675
1133.441
1132.128
1130.697
1129.069
1127.001
1123.764
1116.461
1138.201
1137.131
1136.01
1134.834
1133.593
1132.271
1130.829
1129.159
1126.984
1123.47
1115.4
1139.306
1138.28
1137.205
1136.078
1134.895
1133.649
1132.328
1130.878
1129.186
1126.956
1123.306
1114.887
1140.292
1139.309
1138.276
1137.192
1136.055
1134.865
1133.622
1132.301
1130.851
1129.162
1126.938
1123.312
1114.968
1141.17
1140.226
1139.232
1138.188
1137.092
1135.946
1134.756
1133.511
1132.191
1130.75
1129.085
1126.933
1123.482
1115.627
1141.946
1141.039
1140.083
1139.076
1138.018
1136.91
1135.761
1134.565
1133.316
1131.998
1130.571
1128.955
1126.922
1123.774
1116.786
1142.629
1141.759
1140.839
1139.869
1138.847
1137.775
1136.661
1135.503
1134.299
1133.044
1131.725
1130.32
1128.764
1126.881
1124.12
1143.24
1142.406
1141.522
1140.588
1139.602
1138.566
1137.487
1136.362
1135.193
1133.978
1132.715
1131.399
1130.016
1128.522
1126.795
1143.818
1143.021
1142.175
1141.278
1140.33
1139.331
1138.288
1137.199
1136.065
1134.885
1133.659
1132.391
1131.08
1129.716
1128.275
1144.429
1143.669
1142.861
1142.004
1141.095
1140.136
1139.132
1138.083
1136.987
1135.845
1134.656
1133.426
1132.156
1130.848
1129.498
1145.063
1144.343
1143.575
1142.758
1141.89
1140.973
1140.012
1139.004
1137.95
1136.85
1135.702
1134.511
1133.281
1132.012
1130.707
1145.702
1145.02
1144.293
1143.517
1142.692
1141.817
1140.9
1139.937
1138.927
1137.871
1136.767
1135.619
1134.43
1133.2
1131.934
1146.329
1145.687
1145
1144.266
1143.483
1142.652
1141.779
1140.86
1139.896
1138.885
1137.827
1136.724
1135.579
1134.393
1133.167
1127.725
1126.284
1124.759
1123.114
1129.205
1127.809
1126.352
1124.783
1122.999
1130.688
1129.336
1127.927
1126.436
1124.776
1122.681
1132.189
1130.887
1129.528
1128.097
1126.548
1124.723
1122.082
1133.721
1132.477
1131.175
1129.804
1128.337
1126.691
1124.614
1121.076
1135.273
1134.087
1132.846
1131.541
1130.151
1128.63
1126.858
1124.417
1119.614
1136.729
1135.6
1134.418
1133.178
1131.866
1130.452
1128.88
1126.958
1124.108
1117.98
1138.049
1136.973
1135.845
1134.664
1133.42
1132.099
1130.672
1129.046
1126.984
1123.761
1116.518
1139.233
1138.205
1137.127
1135.997
1134.811
1133.563
1132.244
1130.802
1129.135
1126.966
1123.47
1115.472
1140.292
1139.309
1138.276
1137.192
1136.055
1134.865
1133.622
1132.301
1130.851
1129.162
1126.938
1123.312
1114.968
1141.237
1140.295
1139.304
1138.262
1137.169
1136.026
1134.839
1133.595
1132.274
1130.824
1129.136
1126.924
1123.323
1115.053
1142.075
1141.172
1140.221
1139.219
1138.166
1137.064
1135.921
1134.731
1133.485
1132.164
1130.722
1129.063
1126.922
1123.495
1115.71
1142.814
1141.949
1141.035
1140.071
1139.056
1137.992
1136.887
1135.738
1134.541
1133.291
1131.971
1130.548
1128.938
1126.916
1123.789
1143.462
1142.633
1141.756
1140.829
1139.851
1138.823
1137.754
1136.64
1135.481
1134.276
1133.02
1131.704
1130.303
1128.754
1126.88
1144.038
1143.245
1142.405
1141.514
1140.573
1139.581
1138.547
1137.468
1136.344
1135.174
1133.958
1132.697
1131.386
1130.008
1128.521
1144.581
1143.826
1143.023
1142.17
1141.266
1140.312
1139.315
1138.272
1137.183
1136.049
1134.868
1133.645
1132.382
1131.075
1129.717
1145.155
1144.437
1143.671
1142.857
1141.993
1141.079
1140.122
1139.118
1138.069
1136.973
1135.83
1134.644
1133.418
1132.153
1130.85
1145.751
1145.071
1144.345
1143.571
1142.747
1141.875
1140.959
1139.998
1138.991
1137.937
1136.835
1135.69
1134.504
1133.277
1132.014
1146.35
1145.709
1145.022
1144.289
1143.507
1142.677
1141.804
1140.886
1139.923
1138.914
1137.856
1136.755
1135.611
1134.426
1133.201
1146.938
1146.335
1145.689
1144.996
1144.255
1143.468
1142.639
1141.765
1140.847
1139.883
1138.871
1137.815
1136.716
1135.574
1134.392
1129.164
1127.771
1126.326
1124.794
1123.14
1130.597
1129.245
1127.843
1126.38
1124.804
1123.008
1132.029
1130.722
1129.364
1127.949
1126.451
1124.78
1122.689
1133.472
1132.217
1130.909
1129.543
1128.104
1126.546
1124.724
1122.092
1134.942
1133.743
1132.491
1131.182
1129.803
1128.327
1126.685
1124.613
1121.092
1136.427
1135.286
1134.093
1132.844
1131.53
1130.132
1128.615
1126.845
1124.412
1119.641
1137.822
1136.736
1135.6
1134.41
1133.16
1131.84
1130.43
1128.859
1126.942
1124.103
1118.021
1139.087
1138.053
1136.969
1135.834
1134.642
1133.391
1132.074
1130.647
1129.023
1126.966
1123.758
1116.579
1140.223
1139.236
1138.201
1137.114
1135.975
1134.782
1133.537
1132.217
1130.776
1129.111
1126.947
1123.474
1115.547
1141.237
1140.295
1139.304
1138.262
1137.169
1136.026
1134.839
1133.595
1132.274
1130.824
1129.136
1126.924
1123.323
1115.053
1142.14
1141.239
1140.29
1139.291
1138.241
1137.141
1136.001
1134.813
1133.569
1132.247
1130.796
1129.114
1126.913
1123.337
1115.142
1142.938
1142.077
1141.168
1140.209
1139.198
1138.14
1137.04
1135.897
1134.705
1133.458
1132.136
1130.698
1129.045
1126.916
1123.512
1143.64
1142.816
1141.945
1141.024
1140.052
1139.031
1137.97
1136.864
1135.714
1134.517
1133.265
1131.947
1130.528
1128.925
1126.913
1144.252
1143.465
1142.631
1141.747
1140.812
1139.828
1138.803
1137.733
1136.619
1135.459
1134.253
1132.998
1131.686
1130.29
1128.747
1144.793
1144.043
1143.244
1142.397
1141.5
1140.553
1139.563
1138.529
1137.449
1136.325
1135.154
1133.94
1132.683
1131.377
1130.004
1145.303
1144.589
1143.827
1143.017
1142.158
1141.249
1140.297
1139.299
1138.256
1137.167
1136.032
1134.854
1133.635
1132.376
1131.074
1145.839
1145.162
1144.439
1143.667
1142.846
1141.977
1141.065
1140.107
1139.104
1138.054
1136.957
1135.817
1134.635
1133.414
1132.154
1146.398
1145.758
1145.073
1144.341
1143.56
1142.732
1141.861
1140.945
1139.984
1138.977
1137.922
1136.823
1135.681
1134.499
1133.277
1146.958
1146.357
1145.71
1145.018
1144.278
1143.492
1142.663
1141.791
1140.873
1139.91
1138.899
1137.844
1136.746
1135.606
1134.425
1147.507
1146.944
1146.337
1145.684
1144.986
1144.241
1143.455
1142.626
1141.752
1140.833
1139.868
1138.858
1137.805
1136.71
1135.572
1130.556
1129.204
1127.806
1126.354
1124.815
1123.149
1131.94
1130.631
1129.273
1127.866
1126.395
1124.809
1123.015
1133.319
1132.058
1130.746
1129.381
1127.958
1126.451
1124.784
1122.696
1134.705
1133.496
1132.235
1130.92
1129.547
1128.099
1126.544
1124.726
1122.102
1136.114
1134.961
1133.755
1132.496
1131.178
1129.791
1128.318
1126.679
1124.612
1121.107
1137.535
1136.438
1135.29
1134.089
1132.831
1131.509
1130.115
1128.599
1126.833
1124.407
1119.668
1138.87
1137.828
1136.736
1135.591
1134.391
1133.134
1131.817
1130.408
1128.839
1126.925
1124.097
1118.068
1140.083
1139.091
1138.05
1136.958
1135.812
1134.614
1133.366
1132.048
1130.622
1129
1126.947
1123.759
1116.644
1141.17
1140.226
1139.232
1138.188
1137.092
1135.946
1134.756
1133.511
1132.191
1130.75
1129.085
1126.933
1123.482
1115.627
1142.14
1141.239
1140.29
1139.291
1138.241
1137.141
1136.001
1134.813
1133.569
1132.247
1130.796
1129.114
1126.913
1123.337
1115.142
1143.001
1142.142
1141.234
1140.277
1139.27
1138.213
1137.117
1135.976
1134.787
1133.542
1132.218
1130.771
1129.095
1126.907
1123.356
1143.76
1142.94
1142.073
1141.156
1140.188
1139.173
1138.116
1137.017
1135.872
1134.68
1133.431
1132.111
1130.677
1129.031
1126.913
1144.424
1143.642
1142.812
1141.934
1141.005
1140.028
1139.01
1137.947
1136.841
1135.69
1134.491
1133.241
1131.927
1130.513
1128.916
1145.001
1144.255
1143.462
1142.621
1141.73
1140.79
1139.808
1138.783
1137.712
1136.597
1135.436
1134.231
1132.98
1131.672
1130.282
1145.508
1144.798
1144.042
1143.237
1142.383
1141.48
1140.535
1139.545
1138.511
1137.431
1136.304
1135.135
1133.925
1132.672
1131.371
1145.983
1145.309
1144.589
1143.822
1143.005
1142.14
1141.233
1140.281
1139.284
1138.24
1137.15
1136.017
1134.842
1133.627
1132.373
1146.484
1145.847
1145.164
1144.434
1143.656
1142.831
1141.963
1141.051
1140.093
1139.089
1138.038
1136.943
1135.807
1134.629
1133.412
1147.005
1146.404
1145.76
1145.069
1144.33
1143.545
1142.718
1141.847
1140.932
1139.97
1138.961
1137.909
1136.813
1135.676
1134.498
1147.527
1146.965
1146.358
1145.706
1145.008
1144.264
1143.479
1142.65
1141.777
1140.859
1139.895
1138.886
1137.834
1136.739
1135.603
1148.039
1147.513
1146.945
1146.332
1145.674
1144.971
1144.228
1143.442
1142.612
1141.739
1140.818
1139.855
1138.848
1137.798
1136.707
1131.901
1130.591
1129.233
1127.829
1126.37
1124.821
1123.156
1133.235
1131.97
1130.655
1129.291
1127.876
1126.396
1124.813
1123.022
1134.561
1133.345
1132.077
1130.758
1129.386
1127.955
1126.451
1124.787
1122.704
1135.89
1134.727
1133.511
1132.243
1130.921
1129.539
1128.094
1126.542
1124.728
1122.112
1137.239
1136.131
1134.971
1133.758
1132.49
1131.164
1129.78
1128.309
1126.673
1124.611
1121.123
1138.598
1137.545
1136.442
1135.285
1134.075
1132.81
1131.491
1130.097
1128.583
1126.82
1124.402
1119.7
1139.876
1138.877
1137.827
1136.726
1135.572
1134.365
1133.111
1131.795
1130.386
1128.818
1126.908
1124.096
1118.119
1141.036
1140.087
1139.088
1138.038
1136.937
1135.785
1134.59
1133.341
1132.023
1130.597
1128.976
1126.932
1123.764
1116.713
1142.075
1141.172
1140.221
1139.219
1138.166
1137.064
1135.921
1134.731
1133.485
1132.164
1130.722
1129.063
1126.922
1123.495
1115.71
1143.001
1142.142
1141.234
1140.277
1139.27
1138.213
1137.117
1135.976
1134.787
1133.542
1132.218
1130.771
1129.095
1126.907
1123.356
1143.82
1143.002
1142.137
1141.222
1140.257
1139.243
1138.19
1137.093
1135.951
1134.761
1133.514
1132.192
1130.749
1129.081
1126.905
1144.541
1143.762
1142.936
1142.061
1141.136
1140.163
1139.15
1138.093
1136.993
1135.847
1134.653
1133.405
1132.089
1130.66
1129.021
1145.168
1144.426
1143.638
1142.801
1141.915
1140.981
1140.007
1138.988
1137.925
1136.818
1135.665
1134.467
1133.22
1131.91
1130.501
1145.709
1145.004
1144.252
1143.453
1142.604
1141.708
1140.77
1139.788
1138.762
1137.691
1136.574
1135.414
1134.213
1132.965
1131.662
1146.182
1145.512
1144.797
1144.034
1143.222
1142.363
1141.462
1140.517
1139.527
1138.492
1137.41
1136.286
1135.12
1133.914
1132.665
1146.623
1145.989
1145.31
1144.584
1143.81
1142.988
1142.125
1141.218
1140.266
1139.268
1138.223
1137.134
1136.004
1134.834
1133.623
1147.089
1146.49
1145.848
1145.159
1144.423
1143.641
1142.817
1141.949
1141.036
1140.078
1139.073
1138.024
1136.933
1135.8
1134.626
1147.573
1147.011
1146.406
1145.755
1145.058
1144.315
1143.532
1142.705
1141.834
1140.918
1139.955
1138.948
1137.898
1136.806
1135.673
1148.058
1147.533
1146.966
1146.353
1145.696
1144.993
1144.251
1143.465
1142.637
1141.764
1140.844
1139.881
1138.875
1137.827
1136.736
1148.533
1148.045
1147.514
1146.94
1146.322
1145.66
1144.958
1144.215
1143.429
1142.599
1141.724
1140.805
1139.844
1138.841
1137.795
1133.198
1131.931
1130.615
1129.251
1127.839
1126.372
1124.825
1123.163
1134.481
1133.261
1131.99
1130.668
1129.297
1127.874
1126.397
1124.817
1123.03
1135.753
1134.583
1133.361
1132.087
1130.76
1129.38
1127.952
1126.451
1124.789
1122.712
1137.026
1135.909
1134.739
1133.517
1132.241
1130.91
1129.531
1128.089
1126.539
1124.729
1122.122
1138.316
1137.254
1136.139
1134.971
1133.75
1132.475
1131.152
1129.769
1128.3
1126.666
1124.61
1121.145
1139.615
1138.607
1137.547
1136.436
1135.271
1134.054
1132.791
1131.473
1130.08
1128.567
1126.807
1124.401
1119.736
1140.837
1139.881
1138.875
1137.817
1136.708
1135.547
1134.343
1133.089
1131.772
1130.364
1128.796
1126.895
1124.1
1118.174
1141.946
1141.039
1140.083
1139.076
1138.018
1136.91
1135.761
1134.565
1133.316
1131.998
1130.571
1128.955
1126.922
1123.774
1116.786
1142.938
1142.077
1141.168
1140.209
1139.198
1138.14
1137.04
1135.897
1134.705
1133.458
1132.136
1130.698
1129.045
1126.916
1123.512
1143.82
1143.002
1142.137
1141.222
1140.257
1139.243
1138.19
1137.093
1135.951
1134.761
1133.514
1132.192
1130.749
1129.081
1126.905
1144.599
1143.822
1142.997
1142.125
1141.202
1140.231
1139.221
1138.167
1137.069
1135.926
1134.734
1133.487
1132.169
1130.732
1129.071
1145.281
1144.542
1143.757
1142.924
1142.042
1141.112
1140.142
1139.128
1138.07
1136.969
1135.821
1134.627
1133.383
1132.071
1130.647
1145.871
1145.17
1144.422
1143.627
1142.783
1141.892
1140.961
1139.986
1138.966
1137.903
1136.793
1135.641
1134.446
1133.203
1131.897
1146.377
1145.712
1145.001
1144.243
1143.436
1142.583
1141.689
1140.751
1139.769
1138.742
1137.669
1136.553
1135.396
1134.198
1132.954
1146.817
1146.186
1145.511
1144.789
1144.02
1143.203
1142.346
1141.445
1140.5
1139.509
1138.472
1137.392
1136.27
1135.108
1133.906
1147.224
1146.629
1145.99
1145.304
1144.572
1143.793
1142.974
1142.11
1141.202
1140.25
1139.25
1138.207
1137.122
1135.995
1134.828
1147.654
1147.095
1146.491
1145.843
1145.148
1144.408
1143.627
1142.803
1141.934
1141.022
1140.062
1139.059
1138.013
1136.925
1135.796
1148.103
1147.579
1147.012
1146.401
1145.745
1145.043
1144.302
1143.518
1142.691
1141.82
1140.902
1139.941
1138.937
1137.891
1136.803
1148.552
1148.064
1147.534
1146.961
1146.343
1145.681
1144.98
1144.238
1143.452
1142.623
1141.749
1140.831
1139.871
1138.868
1137.823
1148.99
1148.538
1148.045
1147.51
1146.93
1146.308
1145.647
1144.945
1144.202
1143.415
1142.584
1141.71
1140.794
1139.836
1138.836
1134.446
1133.224
1131.951
1130.628
1129.257
1127.837
1126.373
1124.829
1123.17
1135.677
1134.504
1133.278
1132
1130.671
1129.291
1127.871
1126.398
1124.82
1123.037
1136.896
1135.773
1134.597
1133.368
1132.086
1130.752
1129.375
1127.949
1126.45
1124.792
1122.72
1138.114
1137.043
1135.92
1134.743
1133.512
1132.229
1130.901
1129.524
1128.084
1126.536
1124.73
1122.138
1139.347
1138.33
1137.26
1136.138
1134.962
1133.734
1132.461
1131.139
1129.758
1128.29
1126.659
1124.613
1121.172
1140.588
1139.623
1138.608
1137.541
1136.421
1135.25
1134.035
1132.772
1131.454
1130.062
1128.55
1126.798
1124.405
1119.778