/*--------------------------------*- C++ -*----------------------------------*\
| =========                 |                                                 |
| \\      /  F ield         | OpenFOAM: The Open Source CFD Toolbox           |
|  \\    /   O peration     | Version:  2306                                  |
|   \\  /    A nd           | Website:  www.openfoam.com                      |
|    \\/     M anipulation  |                                                 |
\*---------------------------------------------------------------------------*/
FoamFile
{
    version     2.0;
    format      ascii;
    arch        "LSB;label=32;scalar=64";
    class       volScalarField;
    location    "0.9";
    object      contErrCp;
}
// * * * * * * * * * * * * * * * * * * * * * * * * * * * * * * * * * * * * * //

dimensions      [1 -1 -3 -1 0 0 0];

internalField   nonuniform List<scalar> 
52000
(
0
0
0
0
0
0
0
0
0
0
0
0
0
0
0
0
0
0
0
0
0
0
0
0
0
0
0
0
0
0
0
0
0
0
0
0
0
0
0
0
0
0
0
0
0
0
0
0
0
0
0
0
0
0
0
0
0
0
0
0
0
0
0
0
0
0
0
0
0
0
0
0
0
0
0
0
0
0
0
0
0
0
0
0
0
0
0
0
0
0
0
0
0
0
0
0
0
0
0
0
0
0
0
0
0
0
0
0
0
0
0
0
0
0
0
0
0
0
0
0
0
0
0
0
0
0
0
0
0
0
0
0
0
0
0
0
0
0
0
0
0
0
0
0
0
0
0
0
0
0
0
0
0
0
0
0
0
0
0
0
0
0
0
0
0
0
0
0
0
0
0
0
0
0
0
0
0
0
0
0
0
0
0
0
0
0
0
0
0
0
0
0
0
0
0
0
0
0
0
0
0
0
0
0
0
0
0
0
0
0
0
0
0
0
0
0
0
0
0
0
0
0
0
0
0
0
0
0
0
0
0
0
0
0
0
0
0
0
0
0
-0.0001221147
0
0
0
0
0
0
0
0
0
0
0
0
0
0
0
0
0
0
0
0
0
0
0
0
0
0
0
0
0
0
0
0
0
0
0
0
0
0
0
0
0
0
0
0
0
0
0
0
0
0
0
0
0
0
0
0
0
0
0
0
0
0
0
0
0
-0.0006874701
0
0
0
0
0
5.912635e-05
-1.750713e-05
0
0
0
0
0
0
0
0
0
0
0
0
0
0
0
0
0
0
0
0
0
0
0
0
0
0
0
0
0
0
0
0
0
0
0
0
0
0
0
0
0
0
0
0
0
0
0
0
0
0
0
0
0
0
0
0
0
0
0
0
0
0
0
0
0
0
0
0
0
0
0.0004568591
0
0
0
0
0
8.737516e-05
0.000323842
0
0
0
0
0
3.278438e-05
-0.0005297664
0.0001723435
0
0
0
0
0
0
0
0
0
0
0
0
0
0
0
0
0
0
0
0
0
0
0
0
0
0
0
0
0
0
0
0
0
0
0
0
0
0
0
0
0
0
0
0
0
0
0
0
0
0
0
0
0
0
0
0
0
0
0
0
0
0
0
0
0
0
0
0
0
0
0
0
0
0
0
-0.0003510149
0
0
0
0
0
-0.0001666635
-0.001096183
0
0
0
0
0
0.0007324965
-0.0005456204
0.001511675
0
0
0
0
0
0.0003092842
0.0005216761
-9.428621e-05
0.0006348693
0
0
0
0
0
0
0
0
0
0
0
0
0
0
0
0
0
0
0
0
0
0
0
0
0
0
0
0
0
0
0
0
0
0
0
0
0
0
0
0
0
0
0
0
0
0
0
0
0
0
0
0
0
0
0
0
0
0
0
0
0
0
0
0
0
0
0
0
0
0
0
0
0
0
0
0
0
0
0
0
-0.0004700466
0
0
0
0
0
0.0002178985
0.0005655145
0
0
0
0
0
-0.0006467602
-0.0002259361
-0.001793546
0
0
0
0
0
0.0001103585
-0.0009503724
0.002053967
-0.002343296
0
0
0
0
0
-0.000311863
-0.0001759886
-0.0003641845
6.398818e-05
0.0001337922
0
0
0
0
0
0
0
0
0
0
0
0
0
0
0
0
0
0
0
0
0
0
0
0
0
0
0
0
0
0
0
0
0
0
0
0
0
0
0
0
0
0
0
0
0
0
0
0
0
0
0
0
0
0
0
0
0
0
0
0
0
0
0
0
0
0
0
0
0
0
0
0
0
0
0
0
0
0
0
0
0
0
0
0
0
0.0003803122
0
0
0
0
0
0.0001560808
0.001080829
0
0
0
0
0
-0.0006477329
0.0005504584
0.000918444
0
0
0
0
0
-7.968982e-05
0.0009368135
0.0004126846
0.0023838
0
0
0
0
0
0.0004413679
-7.091055e-05
0.0005920808
0.0009836641
0.000808205
0
0
0
0
0
0.0001289729
0.0002725417
4.473862e-05
-0.0004775894
1.298709e-05
-0.0001684416
0
0
0
0
0
0
0
0
0
0
0
0
0
0
0
0
0
0
0
0
0
0
0
0
0
0
0
0
0
0
0
0
0
0
0
0
0
0
0
0
0
0
0
0
0
0
0
0
0
0
0
0
0
0
0
0
0
0
0
0
0
0
0
0
0
0
0
0
0
-6.468063e-07
0
0
0
0
0
0
0
0
0
0
0
0
0
0
0
0
0
0
0
0
-0.0008457971
0
0
0
0
0
0.000194164
8.205318e-05
0
0
0
0
0
-0.0001141209
-0.0008679659
-0.001505322
0
0
0
0
0
-3.244288e-05
0.0007375679
0.0004484836
-0.003413867
0
0
0
0
0
-0.0005961151
0.0001359272
-0.0005411306
-0.002234196
-0.001483402
0
0
0
0
0
-0.0001740106
-9.69486e-05
-0.0003313079
4.266173e-05
-0.0008350903
-0.001569692
0
0
0
0
0
-0.0006134264
-0.0002829352
-0.000269618
-0.0001220591
0.0002915238
-0.0002632864
0.0008428984
0
0
0
0
0
0
0
0
0
0
0
0
0
0
0
0
0
0
0
0
0
0
0
0
0
0
0
0
0
0
0
0
0
0
0
0
0
0
0
0
0
0
0
0
0
0
0
0
0
0
0
0
0
0
0
0
0
-2.872186e-06
0
0
0
0
0
0
0
0
0
0
0
0
0
0
0
9.192692e-07
-7.863553e-07
0
0
0
0
0
0
0
0
0
0
0
0
0
0
0
0
0
0
0
0
0.0001562716
0
0
0
0
0
-0.0006966996
8.004427e-05
0
0
0
0
0
0.000267291
0.0003502099
0.00134959
0
0
0
0
0
5.836194e-05
1.77184e-07
0.0001876204
0.0005876362
0
0
0
0
0
0.0006548267
-0.001201403
0.0007803439
-0.000313875
0.002529216
0
0
0
0
0
0.0006483784
-0.0008907541
-0.0002613186
-0.001154836
0.00015989
-0.001223693
0
0
0
0
0
0.0006085211
-0.0002995112
0.001536632
0.0006671429
0.0003485861
0.0006878833
-0.001490814
0
0
0
0
0
-3.312945e-05
0.001336736
0.0006418131
-0.0008137593
8.372188e-06
-0.0005287854
6.478591e-05
0.0002809091
0
0
0
0
0
0
0
0
0
0
0
0
0
0
0
0
0
0
0
0
0
0
0
0
0
0
0
0
0
0
0
0
0
0
0
0
0
0
0
0
0
0
0
0
6.225457e-07
0
0
0
0
0
0
0
0
0
0
0
0
0
0
0
-6.554547e-08
-3.47544e-06
0
0
0
0
0
0
0
0
0
0
0
0
0
0
0
8.659972e-07
-6.257169e-06
2.487372e-06
0
0
0
0
0
0
0
0
0
0
0
0
0
0
0
0
0
0
0
0
0.0007184163
0
0
0
0
0
0.0003044393
0.0001516093
0
0
0
0
0
0.0002712775
0.000556959
0.0002070215
0
0
0
0
0
-0.0003189089
0.0006858536
1.282008e-05
0.0008213488
0
0
0
0
0
-0.0004106468
0.002541356
-0.001005398
-0.0001110169
-0.001371081
0
0
0
0
0
-0.000405153
0.0003858245
0.0002661271
0.0005505423
0.001000287
0.0005940299
0
0
0
0
0
8.086873e-05
-9.2209e-05
-0.0005697615
-0.0003954647
0.0003429291
0.001225033
0.001126797
0
0
0
0
0
7.393515e-05
-0.001083869
7.191498e-05
0.00121752
-0.0007184994
0.0006984013
-0.0005519366
0.0007177595
0
0
0
0
0
0.000180132
0.0007859524
-0.0006839646
-0.0002736831
0.0004773019
0.0001951741
8.731278e-05
0.0004967062
1.429729e-05
0
0
0
0
0
0
0
0
0
0
0
0
0
0
0
0
0
0
0
0
0
0
0
0
0
0
0
0
0
0
-9.156234e-07
0
0
0
0
0
0
0
0
0
0
0
0
0
0
0
-3.327526e-06
2.445388e-07
0
0
0
0
0
0
0
0
0
0
0
0
0
0
0
-1.631328e-06
-1.588684e-06
2.878382e-08
0
0
0
0
0
0
0
0
0
0
0
0
0
0
0
6.084729e-07
-5.809536e-06
-3.805202e-07
7.682372e-07
0
0
0
0
0
0
0
0
0
0
0
0
0
0
0
0
0
0
0
0
-0.0003253239
0
0
0
0
0
0.0002851059
-3.658023e-05
0
0
0
0
0
0.0005723325
0.0007954022
-0.002070262
0
0
0
0
0
0.000465076
-0.0002642575
-0.001160929
0.001133152
0
0
0
0
0
0.000392792
-0.001628276
-0.001061748
-7.701772e-05
0.0003441204
0
0
0
0
0
-0.0003592126
0.0008591991
-0.0006225857
0.0006971634
0.001209498
0.001506525
0
0
0
0
0
0.0007551438
0.0002774642
-0.0008744946
0.0006498819
-4.701571e-05
0.000115016
0.0006503046
0
0
0
0
0
0.0003173513
0.0003248978
-0.001212507
-0.0003056201
0.00104827
-4.019003e-05
-0.001458067
-0.0001141207
0
0
0
0
0
-0.0004935158
-0.0006476115
-0.0002357338
0.0007204557
-0.0009834611
0.0006623296
-0.0005339562
4.91822e-06
-0.0002630424
0
0
0
0
0
0.0001184596
-0.0002947513
-0.0007044937
-0.0002808911
-0.0002669017
-0.000922125
0.0005331521
-0.0008754112
-0.0002843827
-0.0001546912
0
0
0
0
0
0
0
0
0
0
0
0
0
0
0
-1.190907e-06
0
0
0
0
0
0
0
0
0
0
0
0
0
0
0
-2.096388e-06
6.770076e-06
0
0
0
0
0
0
0
0
0
0
0
0
0
0
0
-1.278742e-06
2.03955e-06
-4.955358e-06
0
0
0
0
0
0
0
0
0
0
0
0
0
0
0
3.824842e-07
1.45226e-06
4.550207e-07
8.419961e-06
0
0
0
0
0
0
0
0
0
0
0
0
0
0
0
-7.69814e-07
-6.101167e-06
-3.998928e-06
-3.426354e-06
-3.859249e-06
0
0
0
0
0
0
0
0
0
0
0
0
0
0
0
0
0
0
0
0
0
0
0
0
0
0.0002720793
-9.470274e-05
0
0
0
0
0
-0.0007818498
-0.001931624
0.002314679
0
0
0
0
0
-0.0008252851
-0.00196159
-0.0002682288
0.0007010799
0
0
0
0
0
-0.0002306924
-0.0005341028
0.001598485
0.000529098
-0.002062859
0
0
0
0
0
0.0002899151
-0.0006388813
0.0008572886
0.0004319444
-0.002636181
-0.0003769619
0
0
0
0
0
-0.001489635
-0.0005075064
0.001402701
0.0005319788
0.0003610295
-0.001244693
0.0005726391
0
0
0
0
0
0.0004218096
0.0001211241
0.000245225
-0.0005764978
0.000341282
-0.000432343
0.0004695818
-0.002000663
0
0
0
0
0
0.0003128755
-0.0005380599
-0.00108783
0.0005321359
0.0004658715
-0.001584783
-0.0005492676
0.001513792
-0.000144007
0
0
0
0
0
-8.20414e-05
0.0008072955
0.0004519714
0.002590749
-0.001564166
0.002275095
-0.0005414674
-0.0005080251
-0.0004298253
0.001149863
0
0
0
0
0
0.0001025192
-0.0009007606
0.0006629963
0.0009314973
2.012643e-05
0.0002861045
0.001001893
-8.850528e-05
0.0009163295
-3.95959e-05
-3.262345e-05
0
0
0
0
0
0
0
0
0
0
0
0
0
0
0
4.21409e-08
-6.458387e-06
0
0
0
0
0
0
0
0
0
0
0
0
0
0
0
-6.418759e-07
1.704569e-06
3.748281e-06
0
0
0
0
0
0
0
0
0
0
0
0
0
0
0
-2.203273e-06
4.400358e-07
-8.062058e-06
-1.53958e-07
0
0
0
0
0
0
0
0
0
0
0
0
0
0
0
-5.945031e-07
1.405809e-07
4.450894e-07
2.762957e-06
-2.853793e-06
0
0
0
0
0
0
0
0
0
0
0
0
0
0
0
-5.529362e-07
-1.499787e-06
-5.753884e-06
4.44665e-07
5.2984e-06
4.046006e-05
0
0
0
0
0
0
0
0
0
0
0
0
0
0
0
0
0
0
0
0
0
0
0
0
0
0
0
0
0
0
0.0002196718
-0.0004870482
-0.0009499999
0
0
0
0
0
-0.0002585975
0.001638443
0.0007964047
-0.0004743499
0
0
0
0
0
0.0008712269
0.001322828
0.0008443825
0.0002626919
0.0002095535
0
0
0
0
0
1.261267e-05
0.001138984
0.0006494914
-0.0006937165
-6.986614e-05
-0.0008125252
0
0
0
0
0
0.0002147663
-0.0002124576
0.0005377614
0.0003686336
-8.928112e-05
0.001629404
0.0002980577
0
0
0
0
0
-0.0004441416
0.0004192661
0.001590341
-0.0003941423
-0.001932487
-0.001741305
0.0002635791
0.0001027219
0
0
0
0
0
0.0002303399
0.0004908651
0.0004752655
-0.0001910222
-0.0004189911
0.001632095
0.0001717121
-0.001443971
-0.000998531
0
0
0
0
0
-0.0001046137
-0.0005415901
2.173189e-05
0.001483002
0.000801588
-0.0006801246
-0.0002312698
0.0009036697
4.580202e-05
-0.001375224
0
0
0
0
0
0.0002303285
0.001379873
7.102515e-05
-0.0009749913
-0.0007326367
-5.311697e-05
-0.002903498
0.001178103
0.0005508872
0.0004877291
1.54391e-05
0
0
0
0
0
-0.0003179186
0.0001692753
0.0005643335
0.0001000128
-2.636633e-05
-0.001185013
-0.0007562542
-0.0004711615
-0.0001525675
-0.0007012204
-5.779379e-06
1.058673e-05
0
0
0
0
0
0
0
0
0
0
0
0
0
0
0
2.40584e-06
-8.145567e-07
3.277955e-06
0
0
0
0
0
0
0
0
0
0
0
0
0
0
0
-6.570481e-07
1.34926e-06
1.273142e-06
-9.939223e-06
0
0
0
0
0
0
0
0
0
0
0
0
0
0
0
-2.190107e-06
-1.315469e-06
-2.426283e-06
4.856601e-06
8.738328e-06
0
0
0
0
0
0
0
0
0
0
0
0
0
0
0
-2.015617e-06
-4.881799e-06
2.083718e-06
3.355598e-07
-5.314791e-07
-3.055926e-05
0
0
0
0
0
0
0
0
0
0
0
0
0
0
0
-1.793377e-06
-2.309587e-06
-2.506024e-06
1.454761e-06
6.966644e-07
4.220346e-06
1.287823e-05
0
0
0
0
0
0
0
0
0
0
0
0
0
0
0
0
0
0
0
0
0
0
0
0
0
0
0
0
0
0
0
0
0
0
0
-8.572541e-05
1.254514e-05
6.037315e-05
0.0004543111
0
0
0
0
0
-0.000300187
0.0002499549
-0.0009129617
0.001894297
-0.0006934211
0
0
0
0
0
3.835308e-05
-0.001748631
-0.001624738
-0.001858505
-0.000162203
0.001346722
0
0
0
0
0
-0.0003791949
0.0009915527
-0.001459051
-0.000479774
0.002146597
0.001906761
-9.646376e-05
0
0
0
0
0
-0.0003709771
0.001435317
5.631906e-05
-0.0003098936
0.0002963587
-0.0001718201
-0.0003649313
-0.002929334
0
0
0
0
0
0.0002093638
-0.0008089717
-0.0002909206
-0.001241746
0.001475189
0.0004796672
0.001258815
-0.0006607242
0.001719453
0
0
0
0
0
0.0002764687
0.0002076783
-0.0009984782
-0.001754319
0.0008559694
0.000675098
-0.0006914345
-5.808366e-06
-0.0002597079
0.00132668
0
0
0
0
0
-0.0003991597
0.0004449162
-0.0007180097
0.001582376
-0.0007192417
-4.326645e-05
0.001541915
0.0007910677
-0.0006048614
-0.0008261344
0.0007755001
0
0
0
0
0
-0.0001558087
-0.0002533398
-0.001355575
0.00036177
-0.0006904104
0.00119978
0.002551256
-0.0007852564
-0.0004191003
0.001306374
0.0001973075
-4.674144e-06
0
0
0
0
0
6.569105e-05
0.0003842572
-0.0002451384
-7.820075e-05
-0.0007565737
0.0005178583
0.0009481344
-0.0003129448
-0.0001454147
-0.0001198191
-6.822479e-05
1.774486e-06
-5.690649e-06
0
0
0
0
0
0
0
0
0
0
0
0
0
0
0
3.251973e-06
-3.647931e-07
6.39621e-07
-3.692098e-06
0
0
0
0
0
0
0
0
0
0
0
0
0
0
0
-4.364141e-07
-2.466464e-06
4.790295e-07
-2.297266e-06
7.330868e-06
0
0
0
0
0
0
0
0
0
0
0
0
0
0
0
-3.663792e-07
2.628587e-06
2.231719e-06
4.098396e-07
-2.077792e-06
-1.458287e-05
0
0
0
0
0
0
0
0
0
0
0
0
0
0
0
-1.753582e-06
4.337689e-07
1.890425e-06
4.308217e-06
-1.347517e-06
4.012061e-05
3.477868e-05
0
0
0
0
0
0
0
0
0
0
0
0
0
0
0
9.766437e-07
1.275397e-06
-3.934537e-06
2.113835e-06
-2.178367e-06
-2.311378e-06
3.570679e-05
-3.221045e-05
0
0
0
0
0
0
0
0
0
0
0
0
0
0
0
0
0
0
0
0
0
0
0
0
0
0
0
0
0
0
0
0
0
0
0
0
0
0
0
0
-6.761784e-05
0.0004745436
-0.0004776631
-0.0001031254
0.0002557168
0
0
0
0
0
-0.0003609064
0.001574727
-0.0005069816
0.001333772
-3.51748e-06
-0.001007961
0
0
0
0
0
0.0001173201
-0.0007587881
7.441833e-05
0.0004446084
-0.002105718
-0.0004065242
0.0004079175
0
0
0
0
0
0.0006323945
-0.001525439
-0.001173923
-0.000849195
0.0009999821
0.0006715657
-0.001581252
0.00300897
0
0
0
0
0
-0.0002785493
0.001963646
-5.335884e-05
-9.173347e-05
-0.000599801
0.0003920039
0.0006699568
-0.0001896656
0.00015954
0
0
0
0
0
5.407044e-05
-0.001984686
0.001115709
0.0003516014
-0.0007793556
-0.00134391
-0.0009168461
-0.0004934546
0.001440148
-0.0005073135
0
0
0
0
0
0.0006965284
-0.002531611
0.001004492
0.000685537
0.0007937181
-0.0004861287
-0.0003915226
0.00115202
0.002490502
0.0004125478
-0.0002831662
0
0
0
0
0
-0.0001125031
-8.787803e-05
-0.0008589974
-0.001198407
-0.0007759185
-0.0001987239
-0.002531176
0.0004130684
-0.001425462
-0.002252516
0.0004458943
-8.181698e-06
0
0
0
0
0
-6.798812e-05
0.0006051789
0.0008080001
0.0009235426
0.001497339
-0.0007081781
-0.0009151361
0.000280505
0.002622393
-9.155086e-05
-0.0005356206
1.143994e-06
-3.082406e-06
0
0
0
0
0
2.586819e-06
-0.0001234149
-0.0005648416
-0.000378478
0.0003278414
-5.811898e-05
-0.0006998203
-0.0006295262
0.0008456959
0.0001414478
8.049638e-05
2.449856e-06
-5.765808e-07
2.798098e-06
0
0
0
0
0
0
0
0
0
0
0
0
0
0
0
2.77471e-06
-8.893717e-07
-2.988328e-06
-2.342812e-06
-9.82615e-07
0
0
0
0
0
0
0
0
0
0
0
0
0
0
0
-1.703846e-06
-1.956531e-07
5.11955e-06
1.245648e-06
4.754982e-06
5.535955e-05
0
0
0
0
0
0
0
0
0
0
0
0
0
0
0
-3.488684e-07
-3.18436e-06
2.068936e-06
2.398016e-06
1.806279e-06
-5.539905e-06
-1.258561e-05
0
0
0
0
0
0
0
0
0
0
0
0
0
0
0
5.507661e-07
-2.682476e-06
2.535036e-07
-3.539685e-06
-2.004905e-06
7.022629e-06
-2.080011e-05
3.570206e-05
0
0
0
0
0
0
0
0
0
0
0
0
0
0
0
7.216511e-08
-4.26103e-06
3.14966e-06
-1.510661e-06
2.018087e-07
3.20315e-05
-2.150239e-06
-2.141298e-05
2.129027e-05
0
0
0
0
0
0
0
0
0
0
0
0
0
0
0
0
0
0
0
0
0
0
0
0
0
0
0
0
0
0
0
0
0
0
0
0
0
0
0
0
0
0
0
0
0
-1.061126e-05
-0.0004040656
-0.0001355776
0.0001689161
-0.0004062035
0.0001796822
0
0
0
0
0
-0.000546453
0.001056069
-0.000861247
0.002284487
-0.0004494189
0.0004678456
-0.001053433
0
0
0
0
0
-0.0002828756
-0.0006802171
0.0009497779
0.0006992033
-0.001693024
0.0009856262
-0.0004309
-0.001468828
0
0
0
0
0
-1.627833e-05
-0.0003359105
-0.0006597586
-0.0003905285
0.0009589779
-0.0003722897
-0.0007395004
0.001515589
-0.0008259333
0
0
0
0
0
0.000562453
0.0002629286
-0.002562278
-0.001622058
0.0008239761
-1.460565e-05
0.0004710631
-0.000349619
-8.049181e-05
-0.00117316
0
0
0
0
0
-0.00051509
0.001469192
-5.173918e-05
-5.645153e-05
0.0008030548
0.0001397029
0.000828065
-0.0009269732
-0.001464174
-0.0008850914
0.0003315441
0
0
0
0
0
2.429035e-05
-0.0003322605
0.001100353
-0.0001885889
0.0004125522
-0.001861856
0.0006021491
-0.0009045003
-0.0009015161
0.0002799342
-0.0005706238
-4.214717e-06
0
0
0
0
0
0.0006338541
0.00207272
0.0007123603
0.0009775948
2.253554e-05
0.001223031
0.001084614
-6.886628e-05
-0.001634976
0.0005918066
0.001038883
-2.882108e-06
-1.031115e-06
0
0
0
0
0
3.766388e-05
0.0002404326
-0.0001475974
-0.001542088
-0.002273551
-8.589236e-05
0.0005013355
-0.0005811325
-0.0002290013
-0.001528755
7.685248e-05
1.369318e-07
-1.297851e-06
-3.840682e-06
0
0
0
0
0
0.0001509189
0.0003477137
-0.0003008732
0.0006490343
-0.0002233805
0.0001443972
0.0004331648
-0.0003811376
0.0003881589
-0.0002371932
0.0001377104
3.284028e-06
1.692527e-06
1.208409e-06
-1.048239e-05
0
0
0
0
0
0
0
0
0
0
0
0
0
0
0
1.531003e-08
1.771692e-06
1.958809e-06
2.209325e-06
3.290234e-08
7.754148e-06
0
0
0
0
0
0
0
0
0
0
0
0
0
0
0
-1.727395e-06
1.852568e-06
1.955405e-06
-2.881635e-06
6.541487e-06
1.11131e-05
5.711449e-06
0
0
0
0
0
0
0
0
0
0
0
0
0
0
0
-2.703974e-06
2.65418e-06
1.887778e-06
1.408136e-06
3.513246e-06
-7.168243e-07
-7.811002e-06
-6.955562e-06
0
0
0
0
0
0
0
0
0
0
0
0
0
0
0
-5.196224e-07
3.40665e-06
-3.88457e-07
2.946443e-06
9.802457e-07
1.032333e-05
-2.195521e-05
2.952947e-06
1.105142e-05
0
0
0
0
0
0
0
0
0
0
0
0
0
0
0
-1.271225e-06
-2.790847e-06
-4.682785e-06
1.519433e-06
1.71853e-06
3.146394e-06
-1.553422e-05
2.770854e-05
-4.421755e-06
-4.163814e-05
0
0
0
0
0
0
0
0
0
0
0
0
0
0
0
0
0
0
0
0
0
0
0
0
0
0
0
0
0
0
0
0
0
0
0
0
0
0
0
0
0
0
0
0
0
0
0
0
0
0
-5.82077e-05
-8.030903e-05
0.0003698485
-0.0006562745
0.0001237602
0.000238552
0.0006115127
0
0
0
0
0
0.0003925085
0.00187422
-0.002185565
0.0001970087
-0.0004413931
0.001022253
0.0004948434
0.0001726747
0
0
0
0
0
-0.0004116393
-0.001913904
0.001797201
-0.0004980596
-0.0003298448
0.0005426607
-0.001790663
0.001218768
-0.0002590669
0
0
0
0
0
0.0005371065
0.00210048
-0.0005012038
0.00175145
0.0002778013
0.0005639629
-0.000635199
0.001076754
-0.000719613
0.001061106
0
0
0
0
0
0.0008422748
8.851356e-05
0.0007176279
0.002061844
-0.0006566042
-1.819602e-06
0.0001860525
-0.0005636737
0.001901191
0.001161327
0.0006275113
0
0
0
0
0
5.856041e-05
0.0003970298
0.0007702364
0.001040623
-6.383183e-05
-8.880234e-05
-0.001354806
0.0002577294
-0.0003283773
0.0001685404
0.0002738565
8.51775e-06
0
0
0
0
0
-0.0002999305
-0.0001657137
-0.0008661566
3.660594e-05
-0.001006686
-0.002239299
-0.0009077507
0.0004119053
0.0009665083
0.0004533354
-0.0002117704
4.454039e-06
-6.725046e-07
0
0
0
0
0
-0.0001742683
-0.0005377469
-0.002445698
-0.001309014
0.000345071
0.0004458103
-0.0005862638
7.835806e-05
0.0005777397
-1.990419e-05
-0.0002157291
-2.450397e-06
2.593669e-06
-8.822398e-06
0
0
0
0
0
6.727558e-05
-0.0008401974
-0.0003235744
-0.0002658646
0.001655483
0.0005627905
-0.0002938789
0.002362387
0.0004257739
-0.0006555412
7.181701e-05
-1.159539e-06
1.001275e-08
3.527109e-06
2.085832e-06
0
0
0
0
0
9.844063e-05
-0.0002612831
0.0001111993
0.0002891303
-0.0006248428
-0.0005155992
0.0004099034
0.0003900862
0.0001490219
0.0003663738
8.382713e-05
-7.802304e-07
1.15771e-06
3.853658e-06
-3.301158e-08
-5.408078e-05
0
0
0
0
0
0
0
0
0
0
0
0
0
0
0
-1.964998e-06
-1.287041e-06
-1.838185e-06
-2.620969e-06
1.50495e-07
1.139673e-05
2.944457e-05
0
0
0
0
0
0
0
0
0
0
0
0
0
0
0
5.213574e-07
-4.841039e-07
-3.152073e-08
-1.468867e-08
6.541488e-06
1.528038e-05
-9.328815e-06
-4.716335e-05
0
0
0
0
0
0
0
0
0
0
0
0
0
0
0
1.265274e-06
-2.78748e-07
-3.961431e-07
-2.990619e-07
4.576472e-06
-2.087813e-05
1.010035e-05
9.346702e-06
1.15453e-05
0
0
0
0
0
0
0
0
0
0
0
0
0
0
0
-3.296669e-07
-4.240413e-08
1.341518e-06
-1.154536e-06
-7.556683e-07
-1.171205e-05
7.97125e-06
2.812266e-05
6.968762e-06
-6.620406e-06
0
0
0
0
0
0
0
0
0
0
0
0
0
0
0
9.218582e-07
-2.872253e-06
1.527023e-06
2.177208e-06
5.553212e-07
4.579305e-06
2.008157e-05
4.756287e-06
-2.615808e-05
1.430519e-06
-75825.13
0
0
0
0
0
0
0
0
0
0
0
0
0
0
0
0
0
0
0
0
0
0
0
0
0
0
0
0
0
0
0
0
0
0
0
0
0
0
0
0
0
0
0
0
0
0
0
0
0
0
0
0
0
0
0
0.0002300272
-0.0006786857
0.0005753354
-0.0004091225
0.00012125
-0.0004066642
-0.0009276594
-0.0001994072
0
0
0
0
0
0.0003993786
0.00133967
-0.0008227082
0.001696228
-0.000148829
-0.0001828425
0.0005683303
-0.0002676057
3.311266e-05
0
0
0
0
0
-0.0002877583
0.001058019
0.001504907
9.215814e-05
0.001158281
0.001294727
7.380611e-05
-0.0005280437
-0.001091485
5.174891e-05
0
0
0
0
0
-0.0004973349
-0.001567245
-0.001922213
0.001199021
0.0002149066
-1.425692e-05
-0.001378885
-0.0005570479
-0.0007251025
0.0001508397
-0.0002505908
0
0
0
0
0
4.635592e-06
-0.001749634
-0.002737664
-0.0006033232
-0.0007234767
0.001998771
0.0002559216
9.112837e-05
0.001384069
-0.001088966
-4.027787e-05
-6.521063e-07
0
0
0
0
0
0.0001052623
0.0005470059
-0.0002026896
-0.0014474
0.0006869848
-0.001002309
0.0002048205
0.0004190015
-0.0001465821
0.0009856905
0.0002205523
2.789618e-06
-3.210615e-06
0
0
0
0
0
0.000324328
-6.726252e-05
7.817562e-05
0.001625509
-0.001232823
-0.0002294628
0.001616105
0.0006574861
-0.0003240279
0.0007665244
-0.0001858685
2.729355e-06
6.826599e-08
6.283389e-08
0
0
0
0
0
0.000565579
-0.0001007264
-0.0003679994
-1.568137e-05
0.0009035003
6.265175e-05
-0.0005544997
-0.0003785957
0.000406101
-0.0004320788
7.203094e-05
-2.675934e-06
-6.180465e-07
3.414758e-06
-1.293469e-06
0
0
0
0
0
-1.255411e-05
0.0002970521
0.0007772859
0.0003233503
-0.0008255863
0.0005032847
-0.0001747677
0.001014186
-0.0004412115
-0.0002711258
0.0004605652
6.790173e-07
-2.236648e-06
2.599737e-06
7.045724e-06
9.408886e-06
0
0
0
0
0
1.414651e-05
-0.0004057375
0.0001279246
-4.019687e-05
-7.50186e-05
0.0006097906
-0.0001460517
-0.0003501433
-0.0004729787
-0.0006089403
-0.0002915178
1.648513e-06
2.446151e-06
2.456423e-06
-4.70208e-07
-2.546378e-05
-6.150217e-06
0
0
0
0
0
0
0
0
0
0
0
0
0
0
0
-8.347756e-07
2.825377e-07
1.745839e-06
-2.061738e-07
-5.954867e-06
9.762091e-06
4.585441e-06
2.570818e-06
0
0
0
0
0
0
0
0
0
0
0
0
0
0
0
-1.28569e-06
-5.122685e-06
1.723159e-06
-1.525908e-06
3.003726e-06
1.517891e-05
-3.376613e-06
1.42673e-05
-1.757277e-05
0
0
0
0
0
0
0
0
0
0
0
0
0
0
0
-2.505759e-06
-1.268485e-07
-3.185182e-07
1.443487e-06
1.558804e-06
9.152793e-06
2.346352e-05
-1.336353e-05
2.54043e-06
2.122692e-06
0
0
0
0
0
0
0
0
0
0
0
0
0
0
0
4.356862e-07
-2.464169e-06
3.937549e-07
1.608391e-06
-1.207247e-06
-3.672956e-06
2.754209e-05
-9.713899e-06
-1.655898e-05
3.189025e-06
-76509.15
0
0
0
0
0
0
0
0
0
0
0
0
0
0
0
2.401333e-06
-6.381055e-07
-1.179911e-06
-8.789159e-07
-1.708818e-06
2.445526e-05
5.253845e-06
6.426629e-06
-1.043144e-05
-8.997747e-07
-69701.81
-76437.49
0
0
0
0
0
0
0
0
0
0
0
0
0
0
0
0
0
0
0
0
0
0
0
0
0
0
0
0
0
0
0
0
0
0
0
0
0
0
0
0
0
0
0
0
0
0
0
0
0
0
0
0
0
0
0
0
0
0
0
0
2.718246e-05
-0.0003376881
6.830283e-05
-0.0001178243
-3.087819e-05
-0.0002592422
0.0004253434
0.0002810838
-5.112654e-06
0
0
0
0
0
0.0001179752
0.000109357
0.0006139704
-0.002276389
-0.001121897
0.001059419
0.0001040953
0.0004783111
-0.000300455
0.0003255589
0
0
0
0
0
9.880836e-05
-0.0001860001
-0.000735948
-0.001490426
-0.0006339352
-0.000649308
-0.0002582745
9.827356e-05
-0.0007271903
-0.0001965722
0.0005517826
0
0
0
0
0
-0.0004351648
0.0003016166
0.00105876
-7.503086e-05
-0.0002072303
-0.0001758737
-0.0006023243
0.000690534
-0.0005625861
0.000763549
-3.442014e-06
-4.542182e-06
0
0
0
0
0
-0.0006167178
-0.0006585086
0.0002066831
0.002441446
-0.0009737011
0.0003526108
-0.0005661502
0.0001884546
-0.001229926
-0.0002256019
-0.0001411489
-9.569706e-07
5.121547e-06
0
0
0
0
0
0.0003242733
0.0001190311
-0.001526162
-0.0008671501
-0.0002213498
0.0006781363
0.0006448423
-0.001448413
0.0001581914
-0.0001474121
-0.0004244274
-1.236428e-06
2.731203e-06
-9.817886e-07
0
0
0
0
0
0.0005832123
-0.0007255776
0.0008829525
0.0008491765
-0.0001004197
0.002447076
0.0007390996
-0.001609703
-0.0004658563
0.00029986
-0.0003557653
2.906456e-06
3.486864e-06
7.319526e-07
5.902741e-06
0
0
0
0
0
-0.0001489315
-0.001088406
0.0005667387
0.0002747109
0.001373351
-0.0007928987
-5.235856e-05
-0.0008604921
0.0001325678
0.0007439344
5.590729e-05
8.642226e-07
3.43044e-06
-8.708259e-06
2.549338e-06
3.04782e-05
0
0
0
0
0
-8.738671e-06
7.45046e-06
-0.0004375704
5.161004e-06
-0.000986163
-0.0004418216
-0.000353123
0.0001905775
-0.00132264
-0.0007918566
-0.0001346098
9.552465e-07
-3.335697e-06
-5.987557e-06
7.699998e-06
2.633753e-05
-1.446505e-05
0
0
0
0
0
2.852913e-05
-0.0001629877
0.0002594109
0.0003294728
0.000150666
7.168029e-05
-0.0003925036
0.0008387244
4.846087e-05
-9.831052e-05
0.0002727902
-1.653042e-06
6.860119e-07
1.313044e-06
2.957232e-06
-2.445767e-05
3.616246e-05
2.046037e-05
0
0
0
0
0
0
0
0
0
0
0
0
0
0
0
9.711369e-07
6.773052e-07
-4.166511e-06
-4.785596e-06
-2.38355e-06
-2.042174e-05
7.690682e-06
1.332022e-06
-1.752007e-05
0
0
0
0
0
0
0
0
0
0
0
0
0
0
0
-1.087131e-06
2.053983e-06
3.612294e-07
1.74084e-06
2.737137e-06
9.157742e-06
8.844675e-06
2.459875e-05
-1.583155e-05
-5.997392e-06
0
0
0
0
0
0
0
0
0
0
0
0
0
0
0
-1.108424e-06
-5.154324e-07
3.147315e-06
1.331995e-06
-1.021121e-06
1.513389e-06
-4.830878e-06
-1.473261e-05
2.459004e-05
-6.701309e-06
-77886.67
0
0
0
0
0
0
0
0
0
0
0
0
0
0
0
-4.447466e-08
-5.163467e-06
3.399343e-06
-2.68642e-06
2.611572e-06
-6.035883e-06
-1.087708e-05
-1.402794e-05
1.879213e-05
2.586667e-06
-70151.45
-77133.62
0
0
0
0
0
0
0
0
0
0
0
0
0
0
0
-9.582393e-07
-5.060877e-06
-3.521916e-06
-7.778887e-07
3.601391e-06
5.650537e-06
-3.451183e-06
-7.72603e-06
-2.222798e-06
9.127295e-06
-64578.86
-70242.52
-78025.35
0
0
0
0
0
0
0
0
0
0
0
0
0
0
0
0
0
0
0
0
0
0
0
0
0
0
0
0
0
0
0
0
0
0
0
0
0
0
0
0
0
0
0
0
0
0
0
0
0
0
0
0
0
0
0
0
0
0
0
0
0
0
0
0
0
8.356573e-05
-0.0003125124
-0.0008563645
0.0009300828
0.0005330818
-0.0006288984
0.0001261021
-0.0005738943
0.0001047355
0.0002571095
0
0
0
0
0
-4.761515e-05
0.0002320621
0.0001763532
-0.0003838698
0.0007778802
-5.001237e-05
-0.0009806107
0.0006124792
-0.0002684677
8.400757e-05
-0.0003114015
0
0
0
0
0
-0.0001491139
0.0003063804
3.497213e-05
0.0007867165
0.001087948
-7.566298e-05
0.0005316073
0.0004557793
0.0006753188
0.00254226
-0.0004036309
8.78423e-07
0
0
0
0
0
0.0004676403
0.001311513
-1.424293e-05
0.0002749585
0.0003821941
-0.0005947483
1.10104e-07
0.0008045695
0.0003890913
0.0009144937
-0.0007418751
-3.583813e-06
2.686986e-06
0
0
0
0
0
-0.001096366
0.001481017
0.001173211
0.0009499316
8.387538e-05
-0.0006645577
0.0004282366
0.0001607651
0.001251898
-0.0001483626
7.862581e-05
3.717227e-06
-7.589291e-06
3.165816e-06
0
0
0
0
0
-1.709953e-05
0.0007443531
-0.0005720618
-0.00138446
0.000605688
-0.001034883
9.200053e-05
0.0008137223
0.001380828
-0.0002198764
0.0003217584
1.031079e-06
2.22932e-07
5.834313e-07
4.418195e-06
0
0
0
0
0
0.0007193937
-0.001231555
0.0002976179
-0.0006585147
-0.0005435189
0.0003175883
-0.0005572593
0.0001591783
-0.0004174564
-0.0005351977
-5.12911e-05
2.193845e-07
-1.881939e-06
5.940557e-06
-3.979153e-06
2.223002e-05
0
0
0
0
0
0.0003843937
0.0004144618
-0.0002885449
-0.001313255
-0.0002997958
-0.001469168
-0.00078908
-0.0009539468
0.001469763
0.001909105
-7.325204e-05
-1.816634e-07
4.008633e-07
-2.566891e-06
-9.241371e-07
2.112683e-05
5.90402e-06
0
0
0
0
0
-0.0004659018
0.0005567061
-0.0003469432
0.000120452
-0.00111913
-0.0006028608
0.002393212
-0.001095691
0.0001201646
0.001040871
0.0004632555
-1.728237e-06
-2.255259e-06
-4.734401e-07
-3.034791e-06
2.847807e-05
-6.493338e-06
1.243109e-05
0
0
0
0
0
1.046661e-05
0.0002302512
0.0002588109
-0.0001188411
-0.0001804275
0.0001086077
0.0002072579
-0.0007413066
-0.0002109537
-0.0004901495
5.386714e-05
-6.185624e-07
1.598376e-06
4.697074e-06
-6.807772e-07
-1.843579e-05
1.951062e-05
-2.503857e-06
-9.353959e-06
0
0
0
0
0
0
0
0
0
0
0
0
0
0
0
1.285202e-06
1.601517e-06
2.564537e-06
-1.793592e-06
-7.742647e-07
-1.114088e-05
-3.084543e-06
2.244165e-06
1.310428e-05
1.627195e-05
0
0
0
0
0
0
0
0
0
0
0
0
0
0
0
-1.01258e-06
9.808342e-07
-2.0429e-06
-3.61784e-06
1.860606e-06
2.771119e-05
-5.61869e-06
-1.916638e-05
1.813874e-05
-1.289687e-05
-79941.68
0
0
0
0
0
0
0
0
0
0
0
0
0
0
0
2.065857e-06
1.978879e-06
3.937385e-07
5.328403e-06
9.007093e-07
-2.709667e-05
-5.247724e-06
8.236648e-06
9.265992e-06
-4.972008e-06
-71035.01
-78535.41
0
0
0
0
0
0
0
0
0
0
0
0
0
0
0
-1.593914e-06
1.487148e-06
9.507584e-07
2.119363e-07
1.014892e-06
-2.126233e-05
1.191691e-05
2.24358e-05
-8.269404e-06
-1.994883e-05
-64924.89
-70700.46
-78750.24
0
0
0
0
0
0
0
0
0
0
0
0
0
0
0
6.573698e-07
-1.55776e-06
1.853193e-06
1.470822e-06
-2.934274e-07
3.191065e-06
4.080611e-06
1.927925e-05
1.509102e-06
-1.095266e-05
-60477.92
-65066.66
-71632.61
-80638.88
0
0
0
0
0
0
0
0
0
0
0
0
0
0
0
0
0
0
0
0
0
0
0
0
0
0
0
0
0
0
0
0
0
0
0
0
0
0
0
0
0
0
0
0
0
0
0
0
0
0
0
0
0
0
0
0
0
0
0
0
0
0
0
0
0
0
0
0
0
0
-0.0003067428
-0.0001246779
-0.0001819299
0.0006409265
-0.000163713
0.0002272727
0.001134122
-8.352656e-05
-0.0008585582
0.0001602295
-0.0001863735
0
0
0
0
0
-0.0001179159
-0.001071933
0.0005465287
0.001707834
0.0002561182
-0.0003573125
-0.0003042486
-0.0003064557
-0.0006906869
-0.001152758
0.0001681829
1.566836e-06
0
0
0
0
0
1.680673e-05
-3.783477e-05
0.0009380305
0.0001720473
-0.0008658861
-0.001246383
0.0002620673
-0.0005419087
0.0003948922
-0.0002520489
-0.000742441
5.181755e-06
-2.703064e-07
0
0
0
0
0
0.0005305741
-0.001048335
-0.001539479
-0.0004649338
-2.891443e-05
-0.0007148379
0.000413963
-0.0009555237
-0.0003502633
0.0004978827
-0.0004837725
1.523949e-06
-8.947304e-07
-3.569342e-06
0
0
0
0
0
-0.0003253558
0.001124128
-0.0003730385
-9.487473e-05
-0.0007286598
-0.0001736455
-2.158631e-06
-5.861634e-06
0.001980026
-0.001368796
-4.166044e-05
2.73486e-07
4.780044e-07
-3.181254e-06
2.158289e-06
0
0
0
0
0
0.000191994
-0.0001377901
-0.001665217
-0.001113662
0.001411918
-0.001094279
0.0001338097
-0.0007520523
-0.000209474
-0.0003264732
8.119424e-05
1.919746e-06
-7.964451e-07
-4.736839e-06
2.906507e-06
9.557281e-06
0
0
0
0
0
0.0004060348
-0.001856983
0.0002718541
0.001102365
0.001169708
-0.0009930765
-0.0003673269
0.000494011
-0.00132055
-0.001101517
0.0002904338
1.262554e-06
-1.325774e-07
1.51017e-06
4.353745e-06
-1.482236e-05
1.329197e-06
0
0
0
0
0
0.0006190941
-0.0009580289
0.0009767793
0.0002769519
0.002200605
0.0004818687
0.0005114025
0.001144973
0.001327747
-6.615723e-05
-0.000671724
-3.048588e-06
-9.938863e-07
-1.68949e-06
-2.959667e-06
1.174459e-05
4.527757e-05
-2.445574e-06
0
0
0
0
0
-0.001002177
0.0004587623
0.0002398128
-0.0001328765
-0.0001264865
0.0008133894
0.0009822738
-8.054494e-05
0.0001588806
0.000467855
-0.0003057135
1.019275e-06
3.13144e-07
-1.858618e-07
-7.906824e-07
-6.313594e-06
-2.31226e-06
-6.070029e-06
-3.714477e-05
0
0
0
0
0
-0.0001168885
0.0002528846
0.000334328
-0.0004495106
0.0002593218
-0.0002257862
0.0003018329
0.0001908454
0.0002519728
0.0008062524
0.0002311994
-1.223103e-06
-5.495212e-06
1.958971e-07
-1.574924e-06
-3.015519e-06
2.230935e-05
-1.579608e-06
-7.337946e-06
2.055022e-05
0
0
0
0
0
0
0
0
0
0
0
0
0
0
0
1.326994e-06
-9.730863e-07
4.199301e-06
-3.589814e-06
-4.390151e-06
-5.524902e-06
1.819865e-05
2.201327e-06
1.858329e-05
3.954866e-06
-82569.2
0
0
0
0
0
0
0
0
0
0
0
0
0
0
0
-1.667417e-06
-2.483861e-06
-4.555258e-07
-1.679731e-06
2.604889e-07
9.837954e-06
-4.932443e-06
1.003106e-05
1.037344e-06
-4.535668e-05
-72290.58
-80625.8
0
0
0
0
0
0
0
0
0
0
0
0
0
0
0
-7.314e-07
-1.676545e-06
1.373446e-06
5.112446e-07
1.696641e-06
-7.651461e-06
2.312419e-05
5.541743e-06
-1.229491e-05
-5.325156e-07
-65597.47
-71600.59
-80210.25
0
0
0
0
0
0
0
0
0
0
0
0
0
0
0
-3.528681e-06
-4.764916e-06
7.056686e-07
-2.164217e-06
-1.855329e-06
-1.694966e-05