/*--------------------------------*- C++ -*----------------------------------*\
| =========                 |                                                 |
| \\      /  F ield         | OpenFOAM: The Open Source CFD Toolbox           |
|  \\    /   O peration     | Version:  2306                                  |
|   \\  /    A nd           | Website:  www.openfoam.com                      |
|    \\/     M anipulation  |                                                 |
\*---------------------------------------------------------------------------*/
FoamFile
{
    version     2.0;
    format      ascii;
    arch        "LSB;label=32;scalar=64";
    class       volScalarField;
    location    "0.9";
    object      k;
}
// * * * * * * * * * * * * * * * * * * * * * * * * * * * * * * * * * * * * * //

dimensions      [1 1 -3 -1 0 0 0];

internalField   nonuniform List<scalar> 
52000
(
20
20
20
20
20
20
20
20
20
20
20
20
20
20
20
20
20
20
20
20
20
20
20
20
20
20
20
20
20
20
20
20
20
20
20
20
20
20
20
20
20
20
20
20
20
20
20
20
20
20
20
20
20
20
20
20
20
20
20
20
20
20
20
20
20
20
20
20
20
20
20
20
20
20
20
20
20
20
20
20
20
20
20
20
20
20
20
20
20
20
20
20
20
20
20
20
20
20
20
20
20
20
20
20
20
20
20
20
20
20
20
20
20
20
20
20
20
20
20
20
20
20
20
20
20
20
20
20
20
20
20
20
20
20
20
20
20
20
20
20
20
20
20
20
20
20
20
20
20
20
20
20
20
20
20
20
20
20
20
20
20
20
20
20
20
20
20
20
20
20
20
20
20
20
20
20
20
20
20
20
20
20
20
20
20
20
20
20
20
20
20
20
20
20
20
20
20
20
20
20
20
20
20
20
20
20
20
20
20
20
20
20
20
20
20
20
20
20
20
20
20
20
20
20
20
20
20
20
20
20
20
20
20
20
20
20
20
20
20
20
0.07959406
20
20
20
20
20
20
20
20
20
20
20
20
20
20
20
20
20
20
20
20
20
20
20
20
20
20
20
20
20
20
20
20
20
20
20
20
20
20
20
20
20
20
20
20
20
20
20
20
20
20
20
20
20
20
20
20
20
20
20
20
20
20
20
20
20
0.07899317
20
20
20
20
20
0.08029616
0.07898355
20
20
20
20
20
20
20
20
20
20
20
20
20
20
20
20
20
20
20
20
20
20
20
20
20
20
20
20
20
20
20
20
20
20
20
20
20
20
20
20
20
20
20
20
20
20
20
20
20
20
20
20
20
20
20
20
20
20
20
20
20
20
20
20
20
20
20
20
20
20
0.07866688
20
20
20
20
20
0.08013026
0.0775268
20
20
20
20
20
0.08047881
0.08012901
0.07864903
20
20
20
20
20
20
20
20
20
20
20
20
20
20
20
20
20
20
20
20
20
20
20
20
20
20
20
20
20
20
20
20
20
20
20
20
20
20
20
20
20
20
20
20
20
20
20
20
20
20
20
20
20
20
20
20
20
20
20
20
20
20
20
20
20
20
20
20
20
20
20
20
20
20
20
0.07848433
20
20
20
20
20
0.07998723
0.07662771
20
20
20
20
20
0.08040338
0.07963954
0.07661406
20
20
20
20
20
0.08063199
0.08040705
0.07998523
0.07845669
20
20
20
20
20
20
20
20
20
20
20
20
20
20
20
20
20
20
20
20
20
20
20
20
20
20
20
20
20
20
20
20
20
20
20
20
20
20
20
20
20
20
20
20
20
20
20
20
20
20
20
20
20
20
20
20
20
20
20
20
20
20
20
20
20
20
20
20
20
20
20
20
20
20
20
20
20
20
20
20
0.07840006
20
20
20
20
20
0.07988229
0.07609304
20
20
20
20
20
0.08033543
0.07921107
0.07525768
20
20
20
20
20
0.08059288
0.08018563
0.07920619
0.0760564
20
20
20
20
20
0.08076949
0.08059852
0.08034345
0.07987931
0.07835984
20
20
20
20
20
20
20
20
20
20
20
20
20
20
20
20
20
20
20
20
20
20
20
20
20
20
20
20
20
20
20
20
20
20
20
20
20
20
20
20
20
20
20
20
20
20
20
20
20
20
20
20
20
20
20
20
20
20
20
20
20
20
20
20
20
20
20
20
20
20
20
20
20
20
20
20
20
20
20
20
20
20
20
20
20
0.07840006
20
20
20
20
20
0.07982686
0.07584096
20
20
20
20
20
0.08028338
0.07889375
0.07441088
20
20
20
20
20
0.08055808
0.07998315
0.07851105
0.07437869
20
20
20
20
20
0.08074659
0.0804872
0.07998653
0.07887901
0.07576743
20
20
20
20
20
0.08089524
0.08075271
0.08057012
0.08029676
0.07982288
0.07834329
20
20
20
20
20
20
20
20
20
20
20
20
20
20
20
20
20
20
20
20
20
20
20
20
20
20
20
20
20
20
20
20
20
20
20
20
20
20
20
20
20
20
20
20
20
20
20
20
20
20
20
20
20
20
20
20
20
20
20
20
20
20
20
20
20
20
20
20
20
0.356382
20
20
20
20
20
20
20
20
20
20
20
20
20
20
20
20
20
20
20
20
0.07848433
20
20
20
20
20
0.07982686
0.07584096
20
20
20
20
20
0.08025508
0.07872527
0.07399898
20
20
20
20
20
0.08053151
0.0798266
0.07798948
0.07328589
20
20
20
20
20
0.08072675
0.08038615
0.07965473
0.07797375
0.07390772
20
20
20
20
20
0.08088017
0.08069022
0.08039291
0.07983282
0.07869552
0.07571484
20
20
20
20
20
0.08101119
0.08088615
0.08073977
0.08055155
0.0802754
0.07982316
0.07840682
20
20
20
20
20
20
20
20
20
20
20
20
20
20
20
20
20
20
20
20
20
20
20
20
20
20
20
20
20
20
20
20
20
20
20
20
20
20
20
20
20
20
20
20
20
20
20
20
20
20
20
20
20
20
20
20
20
0.3563737
20
20
20
20
20
20
20
20
20
20
20
20
20
20
20
0.3564785
0.3564442
20
20
20
20
20
20
20
20
20
20
20
20
20
20
20
20
20
20
20
20
0.07866688
20
20
20
20
20
0.07988229
0.07609304
20
20
20
20
20
0.08025508
0.07872527
0.07399898
20
20
20
20
20
0.08051704
0.07974103
0.07771028
0.07274123
20
20
20
20
20
0.08071187
0.0803081
0.07939515
0.0772868
0.07266763
20
20
20
20
20
0.08086747
0.08063472
0.08022914
0.07939607
0.07766668
0.07381865
20
20
20
20
20
0.08099997
0.08084687
0.08064254
0.08032345
0.0797506
0.07867836
0.07589795
20
20
20
20
20
0.08111877
0.08100559
0.08088024
0.08073358
0.08054731
0.08028517
0.07988284
0.078564
20
20
20
20
20
20
20
20
20
20
20
20
20
20
20
20
20
20
20
20
20
20
20
20
20
20
20
20
20
20
20
20
20
20
20
20
20
20
20
20
20
20
20
20
0.3563564
20
20
20
20
20
20
20
20
20
20
20
20
20
20
20
0.3564727
0.3564348
20
20
20
20
20
20
20
20
20
20
20
20
20
20
20
0.3565704
0.3565359
0.3565076
20
20
20
20
20
20
20
20
20
20
20
20
20
20
20
20
20
20
20
20
0.07899317
20
20
20
20
20
0.07998723
0.07662771
20
20
20
20
20
0.08028338
0.07889375
0.07441088
20
20
20
20
20
0.08051704
0.07974103
0.07771028
0.07274123
20
20
20
20
20
0.08070384
0.08026533
0.07925229
0.07691648
0.07204286
20
20
20
20
20
0.08085813
0.08059261
0.08010092
0.07905095
0.07688051
0.07254797
20
20
20
20
20
0.08099072
0.08081285
0.08055456
0.08010965
0.07925257
0.07763101
0.07411428
20
20
20
20
20
0.08110958
0.08097744
0.08082071
0.08061098
0.08029234
0.07975749
0.0788344
0.07634551
20
20
20
20
20
0.08121901
0.08111479
0.08100278
0.0808795
0.08073663
0.0805607
0.08032821
0.0800007
0.07885529
20
20
20
20
20
20
20
20
20
20
20
20
20
20
20
20
20
20
20
20
20
20
20
20
20
20
20
20
20
20
0.3563277
20
20
20
20
20
20
20
20
20
20
20
20
20
20
20
0.3564613
0.3564145
20
20
20
20
20
20
20
20
20
20
20
20
20
20
20
0.3565655
0.3565302
0.3564973
20
20
20
20
20
20
20
20
20
20
20
20
20
20
20
0.3566557
0.3566214
0.3565941
0.3565725
20
20
20
20
20
20
20
20
20
20
20
20
20
20
20
20
20
20
20
20
0.07959406
20
20
20
20
20
0.08013026
0.0775268
20
20
20
20
20
0.08033543
0.07921107
0.07525768
20
20
20
20
20
0.08053151
0.0798266
0.07798948
0.07328589
20
20
20
20
20
0.08070384
0.08026533
0.07925229
0.07691648
0.07204286
20
20
20
20
20
0.08085316
0.08056978
0.08003011
0.07885988
0.07645485
0.07190611
20
20
20
20
20
0.08098404
0.08078759
0.08048685
0.07994034
0.07885647
0.07682908
0.07293331
20
20
20
20
20
0.08110213
0.08095365
0.08076817
0.08049836
0.08005094
0.07925474
0.07787766
0.07482042
20
20
20
20
20
0.08121101
0.08109237
0.08096116
0.08080628
0.08060258
0.08030921
0.07985868
0.07915505
0.07713374
20
20
20
20
20
0.08131277
0.08121582
0.08111336
0.08100429
0.08088548
0.08075078
0.08059315
0.08040354
0.08017379
0.07939322
20
20
20
20
20
20
20
20
20
20
20
20
20
20
20
0.3562726
20
20
20
20
20
20
20
20
20
20
20
20
20
20
20
0.3564442
0.3563785
20
20
20
20
20
20
20
20
20
20
20
20
20
20
20
0.3565559
0.3565188
0.3564749
20
20
20
20
20
20
20
20
20
20
20
20
20
20
20
0.3566513
0.3566168
0.3565884
0.3565616
20
20
20
20
20
20
20
20
20
20
20
20
20
20
20
0.356735
0.3567005
0.356673
0.3566533
0.3566389
20
20
20
20
20
20
20
20
20
20
20
20
20
20
20
20
20
20
20
20
20
20
20
20
20
0.08029616
0.07898355
20
20
20
20
20
0.08040338
0.07963954
0.07661406
20
20
20
20
20
0.08055808
0.07998315
0.07851105
0.07437869
20
20
20
20
20
0.08071187
0.0803081
0.07939515
0.0772868
0.07266763
20
20
20
20
20
0.08085316
0.08056978
0.08003011
0.07885988
0.07645485
0.07190611
20
20
20
20
20
0.08098054
0.08077409
0.08044984
0.07984619
0.0786363
0.07639434
0.07233982
20
20
20
20
20
0.08109682
0.08093638
0.08072862
0.0804106
0.07985823
0.0788537
0.07714698
0.07384161
20
20
20
20
20
0.08120457
0.08107374
0.08092534
0.08074068
0.08047796
0.08006941
0.07941026
0.07838654
0.07600914
20
20
20
20
20
0.08130554
0.08119657
0.08108078
0.08095432
0.08080763
0.08062247
0.08037742
0.0800471
0.07961733
0.07843581
20
20
20
20
20
0.08140069
0.08130999
0.081215
0.08111576
0.08101122
0.08089934
0.08077712
0.08064501
0.08051065
0.08040845
0.3560295
20
20
20
20
20
20
20
20
20
20
20
20
20
20
20
0.3564234
0.356307
20
20
20
20
20
20
20
20
20
20
20
20
20
20
20
0.356542
0.3565023
0.3564346
20
20
20
20
20
20
20
20
20
20
20
20
20
20
20
0.3566425
0.356608
0.3565771
0.3565379
20
20
20
20
20
20
20
20
20
20
20
20
20
20
20
0.3567309
0.3566965
0.3566687
0.3566476
0.3566278
20
20
20
20
20
20
20
20
20
20
20
20
20
20
20
0.3568093
0.3567745
0.356746
0.3567253
0.3567133
0.6323874
20
20
20
20
20
20
20
20
20
20
20
20
20
20
20
20
20
20
20
20
20
20
20
20
20
20
20
20
20
20
0.08047881
0.08012901
0.07864903
20
20
20
20
20
0.08059288
0.08018563
0.07920619
0.0760564
20
20
20
20
20
0.08072675
0.08038615
0.07965473
0.07797375
0.07390772
20
20
20
20
20
0.08085813
0.08059261
0.08010092
0.07905095
0.07688051
0.07254797
20
20
20
20
20
0.08098054
0.08077409
0.08044984
0.07984619
0.0786363
0.07639434
0.07233982
20
20
20
20
20
0.08109405
0.08092728
0.0807073
0.08036228
0.07975054
0.07863044
0.07675158
0.07335592
20
20
20
20
20
0.08120001
0.08106044
0.08089903
0.08069067
0.08037991
0.07987693
0.07905224
0.07780252
0.07531085
20
20
20
20
20
0.08129974
0.08118073
0.08105327
0.08091073
0.08073696
0.0805018
0.08016959
0.07970303
0.07910738
0.07783405
20
20
20
20
20
0.08139403
0.08129271
0.08118729
0.08107732
0.08095956
0.08082777
0.08067299
0.08049438
0.08030726
0.08018946
0.3557735
20
20
20
20
20
0.08148334
0.08139816
0.08130944
0.08121767
0.08112283
0.0810244
0.08092199
0.08081668
0.08071877
0.08066291
0.3564317
0.3561186
20
20
20
20
20
20
20
20
20
20
20
20
20
20
20
0.3565284
0.3564835
0.3563597
20
20
20
20
20
20
20
20
20
20
20
20
20
20
20
0.3566302
0.3565965
0.3565608
0.3564961
20
20
20
20
20
20
20
20
20
20
20
20
20
20
20
0.3567227
0.3566889
0.3566606
0.3566362
0.3566036
20
20
20
20
20
20
20
20
20
20
20
20
20
20
20
0.3568054
0.3567708
0.3567423
0.3567212
0.3567076
0.632381
20
20
20
20
20
20
20
20
20
20
20
20
20
20
20
0.356879
0.3568442
0.3568145
0.356792
0.3567783
0.6324276
0.6323901
20
20
20
20
20
20
20
20
20
20
20
20
20
20
20
20
20
20
20
20
20
20
20
20
20
20
20
20
20
20
20
20
20
20
20
0.08063199
0.08040705
0.07998523
0.07845669
20
20
20
20
20
0.08074659
0.0804872
0.07998653
0.07887901
0.07576743
20
20
20
20
20
0.08086747
0.08063472
0.08022914
0.07939607
0.07766668
0.07381865
20
20
20
20
20
0.08098404
0.08078759
0.08048685
0.07994034
0.07885647
0.07682908
0.07293331
20
20
20
20
20
0.08109405
0.08092728
0.0807073
0.08036228
0.07975054
0.07863044
0.07675158
0.07335592
20
20
20
20
20
0.08119764
0.08105352
0.08088507
0.0806635
0.08032558
0.07976903
0.07885293
0.07748758
0.07497279
20
20
20
20
20
0.08129564
0.08116955
0.08103344
0.08087832
0.08068248
0.08040598
0.08000172
0.07942722
0.07871969
0.07746383
20
20
20
20
20
0.08138868
0.08127858
0.08116419
0.08104448
0.0809139
0.08076173
0.08057275
0.08034372
0.08009763
0.07996422
0.3555745
20
20
20
20
20
0.08147714
0.08138228
0.08128469
0.08118531
0.0810839
0.08097885
0.08086854
0.08075424
0.08065505
0.0806253
0.3563861
0.3559123
20
20
20
20
20
0.08156118
0.08148099
0.08139774
0.08131213
0.08122454
0.08113523
0.08104459
0.08095471
0.0808733
0.08083133
0.3565791
0.3564761
0.3562099
20
20
20
20
20
20
20
20
20
20
20
20
20
20
20
0.3566193
0.3565891
0.3565417
0.3564239
20
20
20
20
20
20
20
20
20
20
20
20
20
20
20
0.3567113
0.3566794
0.3566504
0.3566197
0.3565621
20
20
20
20
20
20
20
20
20
20
20
20
20
20
20
0.3567977
0.3567638
0.3567355
0.3567134
0.3566961
0.6323673
20
20
20
20
20
20
20
20
20
20
20
20
20
20
20
0.3568753
0.3568407
0.3568112
0.3567885
0.3567742
0.6324243
0.6323837
20
20
20
20
20
20
20
20
20
20
20
20
20
20
20
0.3569445
0.35691
0.3568797
0.3568551
0.3568385
0.6324623
0.63243
0.6323928
20
20
20
20
20
20
20
20
20
20
20
20
20
20
20
20
20
20
20
20
20
20
20
20
20
20
20
20
20
20
20
20
20
20
20
20
20
20
20
20
0.08076949
0.08059852
0.08034345
0.07987931
0.07835984
20
20
20
20
20
0.08088017
0.08069022
0.08039291
0.07983282
0.07869552
0.07571484
20
20
20
20
20
0.08099072
0.08081285
0.08055456
0.08010965
0.07925257
0.07763101
0.07411428
20
20
20
20
20
0.08109682
0.08093638
0.08072862
0.0804106
0.07985823
0.0788537
0.07714698
0.07384161
20
20
20
20
20
0.08119764
0.08105352
0.08088507
0.0806635
0.08032558
0.07976903
0.07885293
0.07748758
0.07497279
20
20
20
20
20
0.08129352
0.08116378
0.08102306
0.08086101
0.08065267
0.08035262
0.07990733
0.07927354
0.07851088
0.07728506
20
20
20
20
20
0.08138491
0.08126866
0.08114774
0.08102058
0.08087957
0.08071013
0.0804919
0.08021965
0.07992534
0.07978652
0.3554415
20
20
20
20
20
0.08147215
0.08136931
0.08126419
0.08115805
0.08105028
0.08093781
0.08081708
0.08068815
0.08057534
0.08055165
0.3563265
0.3557444
20
20
20
20
20
0.08155536
0.0814662
0.08137502
0.08128336
0.08119216
0.08110204
0.08101375
0.08093112
0.08086647
0.08085868
0.3565859
0.3564382
0.356044
20
20
20
20
20
0.08163459
0.08155897
0.08148063
0.08140035
0.0813187
0.08123619
0.08115366
0.08107314
0.08100164
0.08096428
0.3566793
0.3566158
0.3565258
0.3563032
20
20
20
20
20
20
20
20
20
20
20
20
20
20
20
0.3567015
0.3566756
0.3566441
0.3565995
0.3564956
20
20
20
20
20
20
20
20
20
20
20
20
20
20
20
0.3567869
0.3567553
0.3567277
0.3567036
0.3566791
0.6323441
20
20
20
20
20
20
20
20
20
20
20
20
20
20
20
0.356868
0.3568342
0.3568051
0.3567822
0.3567666
0.6324178
0.63237
20
20
20
20
20
20
20
20
20
20
20
20
20
20
20
0.3569409
0.3569067
0.3568765
0.356852
0.3568352
0.6324601
0.6324267
0.6323864
20
20
20
20
20
20
20
20
20
20
20
20
20
20
20
0.3570061
0.3569722
0.3569416
0.3569156
0.3568961
0.6324947
0.6324645
0.6324324
0.6323955
20
20
20
20
20
20
20
20
20
20
20
20
20
20
20
20
20
20
20
20
20
20
20
20
20
20
20
20
20
20
20
20
20
20
20
20
20
20
20
20
20
20
20
20
20
0.08089524
0.08075271
0.08057012
0.08029676
0.07982288
0.07834329
20
20
20
20
20
0.08099997
0.08084687
0.08064254
0.08032345
0.0797506
0.07867836
0.07589795
20
20
20
20
20
0.08110213
0.08095365
0.08076817
0.08049836
0.08005094
0.07925474
0.07787766
0.07482042
20
20
20
20
20
0.08120001
0.08106044
0.08089903
0.08069067
0.08037991
0.07987693
0.07905224
0.07780252
0.07531085
20
20
20
20
20
0.08129352
0.08116378
0.08102306
0.08086101
0.08065267
0.08035262
0.07990733
0.07927354
0.07851088
0.07728506
20
20
20
20
20
0.08138296
0.08126355
0.08113921
0.08100799
0.0808611
0.08068167
0.08044651
0.08014932
0.07982849
0.07968953
0.3553752
20
20
20
20
20
0.08146863
0.08136023
0.0812497
0.08113849
0.08102555
0.08090644
0.08077569
0.08063214
0.08050417
0.08048245
0.3562757
0.3556299
20
20
20
20
20
0.08155068
0.08145413
0.08135627
0.08125932
0.08116462
0.08107277
0.08098415
0.08090261
0.08084164
0.08084631
0.3565741
0.3563898
0.3559046
20
20
20
20
20
0.08162912
0.0815451
0.08145949
0.08137399
0.08129006
0.08120909
0.08113306
0.08106585
0.08101791
0.08101436
0.3567035
0.3566205
0.3564925
0.3561705
20
20
20
20
20
0.0817039
0.08163251
0.08155866
0.08148314
0.08140659
0.08132965
0.08125324
0.0811794
0.0811141
0.08107929
0.35676
0.356711
0.3566561
0.3565786
0.356398
20
20
20
20
20
20
20
20
20
20
20
20
20
20
20
0.3567775
0.3567525
0.3567255
0.3566961
0.3566575
0.6323082
20
20
20
20
20
20
20
20
20
20
20
20
20
20
20
0.3568576
0.3568262
0.3567983
0.356775
0.3567565
0.6324079
0.6323469
20
20
20
20
20
20
20
20
20
20
20
20
20
20
20
0.3569339
0.3569004
0.3568708
0.3568464
0.3568291
0.6324557
0.6324202
0.6323728
20
20
20
20
20
20
20
20
20
20
20
20
20
20
20
0.3570027
0.356969
0.3569386
0.3569127
0.3568932
0.6324928
0.6324622
0.6324292
0.6323891
20
20
20
20
20
20
20
20
20
20
20
20
20
20
20
0.3570642
0.3570311
0.3570005
0.3569736
0.356952
0.6325259
0.6324966
0.6324667
0.6324348
0.6323982
20
20
20
20
20
20
20
20
20
20
20
20
20
20
20
20
20
20
20
20
20
20
20
20
20
20
20
20
20
20
20
20
20
20
20
20
20
20
20
20
20
20
20
20
20
20
20
20
20
20
0.08101119
0.08088615
0.08073977
0.08055155
0.0802754
0.07982316
0.07840682
20
20
20
20
20
0.08110958
0.08097744
0.08082071
0.08061098
0.08029234
0.07975749
0.0788344
0.07634551
20
20
20
20
20
0.08120457
0.08107374
0.08092534
0.08074068
0.08047796
0.08006941
0.07941026
0.07838654
0.07600914
20
20
20
20
20
0.08129564
0.08116955
0.08103344
0.08087832
0.08068248
0.08040598
0.08000172
0.07942722
0.07871969
0.07746383
20
20
20
20
20
0.08138296
0.08126355
0.08113921
0.08100799
0.0808611
0.08068167
0.08044651
0.08014932
0.07982849
0.07968953
0.3553752
20
20
20
20
20
0.08146681
0.08135557
0.08124222
0.0811283
0.08101243
0.08088939
0.08075251
0.08059998
0.08046261
0.08044187
0.3562471
0.3555722
20
20
20
20
20
0.08154737
0.08144569
0.08134305
0.0812422
0.08114468
0.08105086
0.08096051
0.08087701
0.0808146
0.08082497
0.3565588
0.3563484
0.3558077
20
20
20
20
20
0.0816247
0.08153379
0.08144205
0.08135204
0.08126591
0.08118558
0.0811134
0.08105348
0.08101643
0.08102616
0.3567099
0.3566117
0.3564527
0.3560569
20
20
20
20
20
0.08169874
0.08161946
0.08153884
0.08145861
0.08138038
0.08130587
0.0812373
0.08117867
0.0811383
0.08113548
0.3567891
0.3567298
0.3566572
0.3565483
0.3562933
20
20
20
20
20
0.0817694
0.08170194
0.08163224
0.08156107
0.08148908
0.08141693
0.08134558
0.0812769
0.08121629
0.08118277
0.3568312
0.3567882
0.3567454
0.3566981
0.3566331
0.6322584
20
20
20
20
20
20
20
20
20
20
20
20
20
20
20
0.3568484
0.3568235
0.3567973
0.3567719
0.3567467
0.6323951
0.6323112
20
20
20
20
20
20
20
20
20
20
20
20
20
20
20
0.356924
0.3568927
0.3568645
0.3568403
0.3568217
0.6324497
0.6324103
0.6323497
20
20
20
20
20
20
20
20
20
20
20
20
20
20
20
0.3569959
0.356963
0.3569331
0.3569075
0.3568878
0.6324894
0.6324578
0.6324226
0.6323755
20
20
20
20
20
20
20
20
20
20
20
20
20
20
20
0.3570609
0.357028
0.3569976
0.3569708
0.3569492
0.6325242
0.6324948
0.6324644
0.6324316
0.6323919
20
20
20
20
20
20
20
20
20
20
20
20
20
20
20
0.357119
0.3570868
0.3570566
0.3570292
0.357006
0.6325563
0.6325276
0.6324985
0.6324688
0.6324373
0.7243007
20
20
20
20
20
20
20
20
20
20
20
20
20
20
20
20
20
20
20
20
20
20
20
20
20
20
20
20
20
20
20
20
20
20
20
20
20
20
20
20
20
20
20
20
20
20
20
20
20
20
20
20
20
20
20
0.08111877
0.08100559
0.08088024
0.08073358
0.08054731
0.08028517
0.07988284
0.078564
20
20
20
20
20
0.08121101
0.08109237
0.08096116
0.08080628
0.08060258
0.08030921
0.07985868
0.07915505
0.07713374
20
20
20
20
20
0.08129974
0.08118073
0.08105327
0.08091073
0.08073696
0.0805018
0.08016959
0.07970303
0.07910738
0.07783405
20
20
20
20
20
0.08138491
0.08126866
0.08114774
0.08102058
0.08087957
0.08071013
0.0804919
0.08021965
0.07992534
0.07978652
0.3554415
20
20
20
20
20
0.08146681
0.08135557
0.08124222
0.0811283
0.08101243
0.08088939
0.08075251
0.08059998
0.08046261
0.08044187
0.3562471
0.3555722
20
20
20
20
20
0.08154566
0.08144136
0.08133624
0.08123333
0.08113423
0.08103911
0.08094735
0.08086196
0.08079773
0.08081058
0.356549
0.356325
0.3557585
20
20
20
20
20
0.08162158
0.08152587
0.08142978
0.08133647
0.08124859
0.08116826
0.08109785
0.08104116
0.08100856
0.08102479
0.3567092
0.3565999
0.3564189
0.3559767
20
20
20
20
20
0.08169457
0.08160881
0.08152248
0.08143821
0.08135838
0.08128542
0.0812222
0.08117312
0.08114588
0.08115626
0.3568021
0.3567359
0.3566498
0.3565151
0.3562029
20
20
20
20
20
0.08176453
0.08168965
0.08161358
0.08153806
0.08146467
0.08139518
0.08133188
0.08127845
0.08124215
0.08123809
0.3568604
0.3568109
0.3567582
0.3566955
0.3566049
0.632206
20
20
20
20
20
0.08183133
0.08176757
0.08170172
0.08163456
0.08156672
0.08149886
0.0814319
0.0813676
0.08131075
0.08127834
0.3568963
0.3568565
0.3568184
0.3567809
0.3567409
0.6323803
0.6322621
20
20
20
20
20
20
20
20
20
20
20
20
20
20
20
0.3569148
0.3568898
0.3568637
0.3568386
0.3568162
0.6324433
0.6323975
0.6323143
20
20
20
20
20
20
20
20
20
20
20
20
20
20
20
0.3569863
0.3569555
0.356927
0.3569019
0.3568816
0.632485
0.6324519
0.6324128
0.6323525
20
20
20
20
20
20
20
20
20
20
20
20
20
20
20
0.3570544
0.3570222
0.3569924
0.3569659
0.3569443
0.6325212
0.6324913
0.63246
0.6324251
0.6323783
20
20
20
20
20
20
20
20
20
20
20
20
20
20
20
0.3571158
0.3570839
0.3570538
0.3570266
0.3570034
0.6325548
0.6325259
0.6324967
0.6324665
0.632434
0.724296
20
20
20
20
20
20
20
20
20
20
20
20
20
20
20
0.3571709
0.3571397
0.35711
0.3570825
0.3570583
0.6325859
0.6325578
0.6325293
0.6325005
0.632471
0.7243298
0.7243025
20
20
20
20
20
20
20
20
20
20
20
20
20
20
20
20
20
20
20
20
20
20
20
20
20
20
20
20
20
20
20
20
20
20
20
20
20
20
20
20
20
20
20
20
20
20
20
20
20
20
20
20
20
20
20
20
20
20
20
20
0.08121901
0.08111479
0.08100278
0.0808795
0.08073663
0.0805607
0.08032821
0.0800007
0.07885529
20
20
20
20
20
0.08130554
0.08119657
0.08108078
0.08095432
0.08080763
0.08062247
0.08037742
0.0800471
0.07961733
0.07843581
20
20
20
20
20
0.08138868
0.08127858
0.08116419
0.08104448
0.0809139
0.08076173
0.08057275
0.08034372
0.08009763
0.07996422
0.3555745
20
20
20
20
20
0.08146863
0.08136023
0.0812497
0.08113849
0.08102555
0.08090644
0.08077569
0.08063214
0.08050417
0.08048245
0.3562757
0.3556299
20
20
20
20
20
0.08154566
0.08144136
0.08133624
0.08123333
0.08113423
0.08103911
0.08094735
0.08086196
0.08079773
0.08081058
0.356549
0.356325
0.3557585
20
20
20
20
20
0.08161996
0.08152181
0.08142347
0.08132843
0.08123956
0.08115907
0.08108924
0.08103364
0.08100254
0.08102165
0.3567074
0.3565923
0.3563999
0.3559356
20
20
20
20
20
0.08169162
0.08160136
0.08151098
0.08142377
0.08134266
0.0812705
0.08121038
0.08116654
0.0811459
0.08116295
0.3568071
0.3567361
0.3566405
0.3564877
0.3561383
20
20
20
20
20
0.08176058
0.0816796
0.08159819
0.08151892
0.08144421
0.08137657
0.081319
0.08127556
0.08125276
0.08126111
0.3568752
0.3568223
0.3567629
0.3566884
0.3565771
0.6321607
20
20
20
20
20
0.08182673
0.08175597
0.08168413
0.08161289
0.0815438
0.08147857
0.08141939
0.08136968
0.08133572
0.08133026
0.3569237
0.3568793
0.3568345
0.3567879
0.3567345
0.6323647
0.6322105
20
20
20
20
20
0.0818899
0.08182962
0.08176739
0.08170396
0.08163995
0.08157602
0.08151301
0.08145256
0.08139902
0.08136761
0.3569571
0.3569193
0.3568835
0.3568494
0.3568168
0.632438
0.6323826
0.6322658
20
20
20
20
20
20
20
20
20
20
20
20
20
20
20
0.3569772
0.3569522
0.3569259
0.3569005
0.3568778
0.632481
0.6324454
0.6323999
0.6323174
20
20
20
20
20
20
20
20
20
20
20
20
20
20
20
0.3570451
0.3570149
0.3569864
0.3569606
0.3569387
0.6325175
0.6324869
0.632454
0.6324152
0.6323554
20
20
20
20
20
20
20
20
20
20
20
20
20
20
20
0.3571096
0.3570783
0.3570487
0.3570218
0.3569988
0.632552
0.6325229
0.6324932
0.6324622
0.6324275
0.7242858
20
20
20
20
20
20
20
20
20
20
20
20
20
20
20
0.3571678
0.3571368
0.3571073
0.35708
0.3570558
0.6325845
0.6325563
0.6325276
0.6324986
0.6324687
0.7243274
0.7242977
20
20
20
20
20
20
20
20
20
20
20
20
20
20
20
0.3572199
0.3571898
0.3571608
0.3571335
0.3571088
0.6326148
0.6325873
0.6325594
0.632531
0.6325024
0.7243549
0.7243314
0.7243038
20
20
20
20
20
20
20
20
20
20
20
20
20
20
20
20
20
20
20
20
20
20
20
20
20
20
20
20
20
20
20
20
20
20
20
20
20
20
20
20
20
20
20
20
20
20
20
20
20
20
20
20
20
20
20
20
20
20
20
20
20
20
20
20
20
0.08131277
0.08121582
0.08111336
0.08100429
0.08088548
0.08075078
0.08059315
0.08040354
0.08017379
0.07939322
20
20
20
20
20
0.08139403
0.08129271
0.08118729
0.08107732
0.08095956
0.08082777
0.08067299
0.08049438
0.08030726
0.08018946
0.3557735
20
20
20
20
20
0.08147215
0.08136931
0.08126419
0.08115805
0.08105028
0.08093781
0.08081708
0.08068815
0.08057534
0.08055165
0.3563265
0.3557444
20
20
20
20
20
0.08154737
0.08144569
0.08134305
0.0812422
0.08114468
0.08105086
0.08096051
0.08087701
0.0808146
0.08082497
0.3565588
0.3563484
0.3558077
20
20
20
20
20
0.08161996
0.08152181
0.08142347
0.08132843
0.08123956
0.08115907
0.08108924
0.08103364
0.08100254
0.08102165
0.3567074
0.3565923
0.3563999
0.3559356
20
20
20
20
20
0.08169009
0.08159753
0.08150507
0.08141632
0.0813345
0.08126265
0.08120389
0.08116232
0.08114443
0.0811645
0.3568086
0.3567351
0.3566345
0.3564724
0.356105
20
20
20
20
20
0.08175779
0.08167257
0.08158737
0.08150539
0.08142963
0.08136306
0.08130899
0.08127137
0.08125577
0.08127056
0.3568822
0.3568271
0.3567633
0.3566807
0.356555
0.6321283
20
20
20
20
20
0.08182299
0.08174648
0.08166961
0.08159487
0.0815246
0.08146125
0.08140769
0.08136773
0.08134676
0.08135288
0.3569383
0.3568921
0.3568435
0.3567906
0.3567272
0.6323502
0.6321658
20
20
20
20
20
0.08188555
0.08181867
0.0817508
0.08168352
0.08161836
0.08155691
0.08150126
0.08145451
0.08142227
0.08141546
0.3569822
0.3569407
0.3568999
0.3568593
0.3568183
0.6324333
0.6323671
0.6322149
20
20
20
20
20
0.08194529
0.08188831
0.08182949
0.08176956
0.08170913
0.08164882
0.08158943
0.0815325
0.08148196
0.08145162
0.3570146
0.3569783
0.3569437
0.356911
0.3568805
0.6324791
0.6324399
0.6323849
0.6322695
20
20
20
20
20
20
20
20
20
20
20
20
20
20
20
0.3570361
0.3570112
0.3569849
0.356959
0.3569354
0.6325145
0.6324828
0.6324474
0.6324023
0.6323205
20
20
20
20
20
20
20
20
20
20
20
20
20
20
20
0.3571006
0.3570711
0.3570429
0.3570166
0.3569934
0.6325486
0.6325192
0.6324888
0.6324562
0.6324176
0.7242687
20
20
20
20
20
20
20
20
20
20
20
20
20
20
20
0.3571617
0.3571314
0.3571024
0.3570754
0.3570514
0.6325819
0.6325535
0.6325246
0.6324951
0.6324643
0.7243225
0.7242876
20
20
20
20
20
20
20
20
20
20
20
20
20
20
20
0.3572169
0.3571871
0.3571582
0.3571311
0.3571064
0.6326134
0.6325859
0.6325579
0.6325294
0.6325005
0.7243532
0.7243289
0.7242991
20
20
20
20
20
20
20
20
20
20
20
20
20
20
20
0.3572663
0.3572374
0.3572092
0.3571823
0.3571574
0.6326427
0.6326161
0.6325887
0.6325609
0.6325327
0.7243782
0.7243562
0.7243326
0.7243048
20
20
20
20
20
20
20
20
20
20
20
20
20
20
20
20
20
20
20
20
20
20
20
20
20
20
20
20
20
20
20
20
20
20
20
20
20
20
20
20
20
20
20
20
20
20
20
20
20
20
20
20
20
20
20
20
20
20
20
20
20
20
20
20
20
20
20
20
20
20
0.08140069
0.08130999
0.081215
0.08111576
0.08101122
0.08089934
0.08077712
0.08064501
0.08051065
0.08040845
0.3560295
20
20
20
20
20
0.08147714
0.08138228
0.08128469
0.08118531
0.0810839
0.08097885
0.08086854
0.08075424
0.08065505
0.0806253
0.3563861
0.3559123
20
20
20
20
20
0.08155068
0.08145413
0.08135627
0.08125932
0.08116462
0.08107277
0.08098415
0.08090261
0.08084164
0.08084631
0.3565741
0.3563898
0.3559046
20
20
20
20
20
0.08162158
0.08152587
0.08142978
0.08133647
0.08124859
0.08116826
0.08109785
0.08104116
0.08100856
0.08102479
0.3567092
0.3565999
0.3564189
0.3559767
20
20
20
20
20
0.08169009
0.08159753
0.08150507
0.08141632
0.0813345
0.08126265
0.08120389
0.08116232
0.08114443
0.0811645
0.3568086
0.3567351
0.3566345
0.3564724
0.356105
20
20
20
20
20
0.08175634
0.08166896
0.0815818
0.08149842
0.08142208
0.08135598
0.08130354
0.08126855
0.08125613
0.08127385
0.3568849
0.3568287
0.3567627
0.356676
0.3565429
0.6321115
20
20
20
20
20
0.08182034
0.08173983
0.0816594
0.08158213
0.08151092
0.0814487
0.08139866
0.0813645
0.08135066
0.08136286
0.3569457
0.3568985
0.3568477
0.3567907
0.3567206
0.632339
0.6321339
20
20
20
20
20
0.08188201
0.0818097
0.08173709
0.08166652
0.08160025
0.08154061
0.08149031
0.08145279
0.08143279
0.08143667
0.356996
0.3569532
0.35691
0.3568655
0.3568188
0.632429
0.6323527
0.632171
20
20
20
20
20
0.08194118
0.08187798
0.08181383
0.08175028
0.08168875
0.08163077
0.08157828
0.08153413
0.08150332
0.0814955
0.3570373
0.3569977
0.3569591
0.3569214
0.3568847
0.6324785
0.6324351
0.6323694
0.6322194
20
20
20
20
20
0.08199767
0.08194382
0.08188824
0.08183161
0.08177454
0.0817176
0.08166159
0.0816079
0.08156017
0.08153097
0.3570691
0.3570341
0.3570005
0.3569684
0.3569385
0.6325139
0.6324807
0.6324418
0.6323873
0.6322732
20
20
20
20
20
20
20
20
20
20
20
20
20
20
20
0.3570916
0.3570671
0.3570409
0.3570147
0.3569903
0.6325461
0.6325161
0.6324846
0.6324495
0.6324047
0.7242427
20
20
20
20
20
20
20
20
20
20
20
20
20
20
20
0.357153
0.3571244
0.3570966
0.3570702
0.3570462
0.6325787
0.6325502
0.6325209
0.6324907
0.6324583
0.7243151
0.7242705
20
20
20
20
20
20
20
20
20
20
20
20
20
20
20
0.3572111
0.3571818
0.3571534
0.3571266
0.3571021
0.6326109
0.6325833
0.6325551
0.6325263
0.632497
0.7243499
0.724324
0.724289
20
20
20
20
20
20
20
20
20
20
20
20
20
20
20
0.3572635
0.3572347
0.3572067
0.35718
0.3571551
0.6326414
0.6326147
0.6325873
0.6325594
0.6325311
0.7243769
0.7243545
0.7243301
0.7243001
20
20
20
20
20
20
20
20
20
20
20
20
20
20
20
0.3573103
0.3572826
0.3572553
0.357229
0.3572042
0.6326698
0.6326439
0.6326173
0.6325901
0.6325625
0.7244009
0.7243795
0.7243573
0.7243334
0.7243054
20
20
20
20
20
20
20
20
20
20
20
20
20
20
20
20
20
20
20
20
20
20
20
20
20
20
20
20
20
20
20
20
20
20
20
20
20
20
20
20
20
20
20
20
20
20
20
20
20
20
20
20
20
20
20
20
20
20
20
20
20
20
20
20
20
20
20
20
20
0.3562726
20
20
20
20
20
0.08148334
0.08139816
0.08130944
0.08121767
0.08112283
0.0810244
0.08092199
0.08081668
0.08071877
0.08066291
0.3564317
0.3561186
20
20
20
20
20
0.08155536
0.0814662
0.08137502
0.08128336
0.08119216
0.08110204
0.08101375
0.08093112
0.08086647
0.08085868
0.3565859
0.3564382
0.356044
20
20
20
20
20
0.0816247
0.08153379
0.08144205
0.08135204
0.08126591
0.08118558
0.0811134
0.08105348
0.08101643
0.08102616
0.3567099
0.3566117
0.3564527
0.3560569
20
20
20
20
20
0.08169162
0.08160136
0.08151098
0.08142377
0.08134266
0.0812705
0.08121038
0.08116654
0.0811459
0.08116295
0.3568071
0.3567361
0.3566405
0.3564877
0.3561383
20
20
20
20
20
0.08175634
0.08166896
0.0815818
0.08149842
0.08142208
0.08135598
0.08130354
0.08126855
0.08125613
0.08127385
0.3568849
0.3568287
0.3567627
0.356676
0.3565429
0.6321115
20
20
20
20
20
0.08181897
0.08173642
0.08165415
0.08157556
0.08150384
0.08144214
0.08139375
0.08136228
0.08135164
0.08136665
0.3569488
0.3569011
0.3568492
0.3567903
0.3567168
0.6323329
0.6321173
20
20
20
20
20
0.0818795
0.08180342
0.08172744
0.0816545
0.08158736
0.08152882
0.08148189
0.08144991
0.08143671
0.08144629
0.3570031
0.3569598
0.3569154
0.3568687
0.3568183
0.6324254
0.6323417
0.6321395
20
20
20
20
20
0.08193782
0.08186951
0.08180088
0.08173422