/*--------------------------------*- C++ -*----------------------------------*\
| =========                 |                                                 |
| \\      /  F ield         | OpenFOAM: The Open Source CFD Toolbox           |
|  \\    /   O peration     | Version:  2306                                  |
|   \\  /    A nd           | Website:  www.openfoam.com                      |
|    \\/     M anipulation  |                                                 |
\*---------------------------------------------------------------------------*/
FoamFile
{
    version     2.0;
    format      ascii;
    arch        "LSB;label=32;scalar=64";
    class       volScalarField;
    location    "0.9";
    object      rhoCp;
}
// * * * * * * * * * * * * * * * * * * * * * * * * * * * * * * * * * * * * * //

dimensions      [1 -1 -2 -1 0 0 0];

internalField   nonuniform List<scalar> 
52000
(
5346000
5346000
5346000
5346000
5346000
5346000
5346000
5346000
5346000
5346000
5346000
5346000
5346000
5346000
5346000
5346000
5346000
5346000
5346000
5346000
5346000
5346000
5346000
5346000
5346000
5346000
5346000
5346000
5346000
5346000
5346000
5346000
5346000
5346000
5346000
5346000
5346000
5346000
5346000
5346000
5346000
5346000
5346000
5346000
5346000
5346000
5346000
5346000
5346000
5346000
5346000
5346000
5346000
5346000
5346000
5346000
5346000
5346000
5346000
5346000
5346000
5346000
5346000
5346000
5346000
5346000
5346000
5346000
5346000
5346000
5346000
5346000
5346000
5346000
5346000
5346000
5346000
5346000
5346000
5346000
5346000
5346000
5346000
5346000
5346000
5346000
5346000
5346000
5346000
5346000
5346000
5346000
5346000
5346000
5346000
5346000
5346000
5346000
5346000
5346000
5346000
5346000
5346000
5346000
5346000
5346000
5346000
5346000
5346000
5346000
5346000
5346000
5346000
5346000
5346000
5346000
5346000
5346000
5346000
5346000
5346000
5346000
5346000
5346000
5346000
5346000
5346000
5346000
5346000
5346000
5346000
5346000
5346000
5346000
5346000
5346000
5346000
5346000
5346000
5346000
5346000
5346000
5346000
5346000
5346000
5346000
5346000
5346000
5346000
5346000
5346000
5346000
5346000
5346000
5346000
5346000
5346000
5346000
5346000
5346000
5346000
5346000
5346000
5346000
5346000
5346000
5346000
5346000
5346000
5346000
5346000
5346000
5346000
5346000
5346000
5346000
5346000
5346000
5346000
5346000
5346000
5346000
5346000
5346000
5346000
5346000
5346000
5346000
5346000
5346000
5346000
5346000
5346000
5346000
5346000
5346000
5346000
5346000
5346000
5346000
5346000
5346000
5346000
5346000
5346000
5346000
5346000
5346000
5346000
5346000
5346000
5346000
5346000
5346000
5346000
5346000
5346000
5346000
5346000
5346000
5346000
5346000
5346000
5346000
5346000
5346000
5346000
5346000
5346000
5346000
5346000
5346000
5346000
5346000
5346000
5346000
5346000
5346000
5346000
5346000
372.0219
5346000
5346000
5346000
5346000
5346000
5346000
5346000
5346000
5346000
5346000
5346000
5346000
5346000
5346000
5346000
5346000
5346000
5346000
5346000
5346000
5346000
5346000
5346000
5346000
5346000
5346000
5346000
5346000
5346000
5346000
5346000
5346000
5346000
5346000
5346000
5346000
5346000
5346000
5346000
5346000
5346000
5346000
5346000
5346000
5346000
5346000
5346000
5346000
5346000
5346000
5346000
5346000
5346000
5346000
5346000
5346000
5346000
5346000
5346000
5346000
5346000
5346000
5346000
5346000
5346000
375.1675
5346000
5346000
5346000
5346000
5346000
368.3647
375.2186
5346000
5346000
5346000
5346000
5346000
5346000
5346000
5346000
5346000
5346000
5346000
5346000
5346000
5346000
5346000
5346000
5346000
5346000
5346000
5346000
5346000
5346000
5346000
5346000
5346000
5346000
5346000
5346000
5346000
5346000
5346000
5346000
5346000
5346000
5346000
5346000
5346000
5346000
5346000
5346000
5346000
5346000
5346000
5346000
5346000
5346000
5346000
5346000
5346000
5346000
5346000
5346000
5346000
5346000
5346000
5346000
5346000
5346000
5346000
5346000
5346000
5346000
5346000
5346000
5346000
5346000
5346000
5346000
5346000
5346000
376.8946
5346000
5346000
5346000
5346000
5346000
369.2137
383.0354
5346000
5346000
5346000
5346000
5346000
367.4521
369.2223
376.9904
5346000
5346000
5346000
5346000
5346000
5346000
5346000
5346000
5346000
5346000
5346000
5346000
5346000
5346000
5346000
5346000
5346000
5346000
5346000
5346000
5346000
5346000
5346000
5346000
5346000
5346000
5346000
5346000
5346000
5346000
5346000
5346000
5346000
5346000
5346000
5346000
5346000
5346000
5346000
5346000
5346000
5346000
5346000
5346000
5346000
5346000
5346000
5346000
5346000
5346000
5346000
5346000
5346000
5346000
5346000
5346000
5346000
5346000
5346000
5346000
5346000
5346000
5346000
5346000
5346000
5346000
5346000
5346000
5346000
5346000
5346000
5346000
5346000
5346000
5346000
377.8668
5346000
5346000
5346000
5346000
5346000
369.9479
387.9984
5346000
5346000
5346000
5346000
5346000
367.8354
371.7479
388.075
5346000
5346000
5346000
5346000
5346000
366.6775
367.8192
369.9649
378.0158
5346000
5346000
5346000
5346000
5346000
5346000
5346000
5346000
5346000
5346000
5346000
5346000
5346000
5346000
5346000
5346000
5346000
5346000
5346000
5346000
5346000
5346000
5346000
5346000
5346000
5346000
5346000
5346000
5346000
5346000
5346000
5346000
5346000
5346000
5346000
5346000
5346000
5346000
5346000
5346000
5346000
5346000
5346000
5346000
5346000
5346000
5346000
5346000
5346000
5346000
5346000
5346000
5346000
5346000
5346000
5346000
5346000
5346000
5346000
5346000
5346000
5346000
5346000
5346000
5346000
5346000
5346000
5346000
5346000
5346000
5346000
5346000
5346000
5346000
5346000
5346000
5346000
5346000
5346000
5346000
378.317
5346000
5346000
5346000
5346000
5346000
370.488
391.0018
5346000
5346000
5346000
5346000
5346000
368.1808
373.9822
395.7745
5346000
5346000
5346000
5346000
5346000
366.8747
368.9498
374.0121
391.2098
5346000
5346000
5346000
5346000
5346000
365.9929
366.849
368.1475
370.5174
378.5345
5346000
5346000
5346000
5346000
5346000
5346000
5346000
5346000
5346000
5346000
5346000
5346000
5346000
5346000
5346000
5346000
5346000
5346000
5346000
5346000
5346000
5346000
5346000
5346000
5346000
5346000
5346000
5346000
5346000
5346000
5346000
5346000
5346000
5346000
5346000
5346000
5346000
5346000
5346000
5346000
5346000
5346000
5346000
5346000
5346000
5346000
5346000
5346000
5346000
5346000
5346000
5346000
5346000
5346000
5346000
5346000
5346000
5346000
5346000
5346000
5346000
5346000
5346000
5346000
5346000
5346000
5346000
5346000
5346000
5346000
5346000
5346000
5346000
5346000
5346000
5346000
5346000
5346000
5346000
5346000
5346000
5346000
5346000
5346000
5346000
378.317
5346000
5346000
5346000
5346000
5346000
370.7738
392.4316
5346000
5346000
5346000
5346000
5346000
368.4456
375.6514
400.7138
5346000
5346000
5346000
5346000
5346000
367.0496
369.9883
377.6861
400.9032
5346000
5346000
5346000
5346000
5346000
366.1074
367.4131
369.9758
375.7402
392.8509
5346000
5346000
5346000
5346000
5346000
365.3657
366.0795
366.9975
368.393
370.8191
378.6256
5346000
5346000
5346000
5346000
5346000
5346000
5346000
5346000
5346000
5346000
5346000
5346000
5346000
5346000
5346000
5346000
5346000
5346000
5346000
5346000
5346000
5346000
5346000
5346000
5346000
5346000
5346000
5346000
5346000
5346000
5346000
5346000
5346000
5346000
5346000
5346000
5346000
5346000
5346000
5346000
5346000
5346000
5346000
5346000
5346000
5346000
5346000
5346000
5346000
5346000
5346000
5346000
5346000
5346000
5346000
5346000
5346000
5346000
5346000
5346000
5346000
5346000
5346000
5346000
5346000
5346000
5346000
5346000
5346000
367.4838
5346000
5346000
5346000
5346000
5346000
5346000
5346000
5346000
5346000
5346000
5346000
5346000
5346000
5346000
5346000
5346000
5346000
5346000
5346000
5346000
377.8668
5346000
5346000
5346000
5346000
5346000
370.7738
392.4316
5346000
5346000
5346000
5346000
5346000
368.5898
376.5427
403.1324
5346000
5346000
5346000
5346000
5346000
367.1831
370.7946
380.4827
407.3161
5346000
5346000
5346000
5346000
5346000
366.206
367.9257
371.6886
380.5738
403.6672
5346000
5346000
5346000
5346000
5346000
365.4403
366.394
367.8972
370.7749
376.7212
393.1514
5346000
5346000
5346000
5346000
5346000
364.791
365.4131
366.1492
367.0994
368.5131
370.8321
378.2923
5346000
5346000
5346000
5346000
5346000
5346000
5346000
5346000
5346000
5346000
5346000
5346000
5346000
5346000
5346000
5346000
5346000
5346000
5346000
5346000
5346000
5346000
5346000
5346000
5346000
5346000
5346000
5346000
5346000
5346000
5346000
5346000
5346000
5346000
5346000
5346000
5346000
5346000
5346000
5346000
5346000
5346000
5346000
5346000
5346000
5346000
5346000
5346000
5346000
5346000
5346000
5346000
5346000
5346000
5346000
5346000
5346000
367.5327
5346000
5346000
5346000
5346000
5346000
5346000
5346000
5346000
5346000
5346000
5346000
5346000
5346000
5346000
5346000
366.7835
367.0366
5346000
5346000
5346000
5346000
5346000
5346000
5346000
5346000
5346000
5346000
5346000
5346000
5346000
5346000
5346000
5346000
5346000
5346000
5346000
5346000
376.8946
5346000
5346000
5346000
5346000
5346000
370.488
391.0018
5346000
5346000
5346000
5346000
5346000
368.5898
376.5427
403.1324
5346000
5346000
5346000
5346000
5346000
367.2557
371.2365
381.9942
410.5136
5346000
5346000
5346000
5346000
5346000
366.2797
368.3223
373.0379
384.3122
410.9447
5346000
5346000
5346000
5346000
5346000
365.5026
366.673
368.7312
373.0402
382.2462
404.1883
5346000
5346000
5346000
5346000
5346000
364.8462
365.6096
366.6394
368.2587
371.2103
376.8258
392.1133
5346000
5346000
5346000
5346000
5346000
364.2581
364.8208
365.4471
366.188
367.1323
368.4784
370.5427
377.4662
5346000
5346000
5346000
5346000
5346000
5346000
5346000
5346000
5346000
5346000
5346000
5346000
5346000
5346000
5346000
5346000
5346000
5346000
5346000
5346000
5346000
5346000
5346000
5346000
5346000
5346000
5346000
5346000
5346000
5346000
5346000
5346000
5346000
5346000
5346000
5346000
5346000
5346000
5346000
5346000
5346000
5346000
5346000
5346000
367.6342
5346000
5346000
5346000
5346000
5346000
5346000
5346000
5346000
5346000
5346000
5346000
5346000
5346000
5346000
5346000
366.8144
367.0932
5346000
5346000
5346000
5346000
5346000
5346000
5346000
5346000
5346000
5346000
5346000
5346000
5346000
5346000
5346000
366.1234
366.3718
366.5835
5346000
5346000
5346000
5346000
5346000
5346000
5346000
5346000
5346000
5346000
5346000
5346000
5346000
5346000
5346000
5346000
5346000
5346000
5346000
5346000
375.1675
5346000
5346000
5346000
5346000
5346000
369.9479
387.9984
5346000
5346000
5346000
5346000
5346000
368.4456
375.6514
400.7138
5346000
5346000
5346000
5346000
5346000
367.2557
371.2365
381.9942
410.5136
5346000
5346000
5346000
5346000
5346000
366.3194
368.5399
373.7841
386.3534
414.6225
5346000
5346000
5346000
5346000
5346000
365.5482
366.8847
369.3862
374.8468
386.5609
411.6453
5346000
5346000
5346000
5346000
5346000
364.891
365.7791
367.0831
369.3502
373.7998
382.4526
402.4559
5346000
5346000
5346000
5346000
5346000
364.3029
364.9607
365.7453
366.8065
368.4286
371.1891
376.0161
389.5949
5346000
5346000
5346000
5346000
5346000
363.7629
364.2795
364.8389
365.4581
366.1838
367.08
368.2786
369.9599
375.9423
5346000
5346000
5346000
5346000
5346000
5346000
5346000
5346000
5346000
5346000
5346000
5346000
5346000
5346000
5346000
5346000
5346000
5346000
5346000
5346000
5346000
5346000
5346000
5346000
5346000
5346000
5346000
5346000
5346000
5346000
367.8077
5346000
5346000
5346000
5346000
5346000
5346000
5346000
5346000
5346000
5346000
5346000
5346000
5346000
5346000
5346000
366.8756
367.2159
5346000
5346000
5346000
5346000
5346000
5346000
5346000
5346000
5346000
5346000
5346000
5346000
5346000
5346000
5346000
366.1489
366.4025
366.6462
5346000
5346000
5346000
5346000
5346000
5346000
5346000
5346000
5346000
5346000
5346000
5346000
5346000
5346000
5346000
365.4988
365.7591
365.957
366.1208
5346000
5346000
5346000
5346000
5346000
5346000
5346000
5346000
5346000
5346000
5346000
5346000
5346000
5346000
5346000
5346000
5346000
5346000
5346000
5346000
372.0219
5346000
5346000
5346000
5346000
5346000
369.2137
383.0354
5346000
5346000
5346000
5346000
5346000
368.1808
373.9822
395.7745
5346000
5346000
5346000
5346000
5346000
367.1831
370.7946
380.4827
407.3161
5346000
5346000
5346000
5346000
5346000
366.3194
368.5399
373.7841
386.3534
414.6225
5346000
5346000
5346000
5346000
5346000
365.5724
366.9995
369.7488
375.8535
388.9318
415.4261
5346000
5346000
5346000
5346000
5346000
364.9231
365.9048
367.425
370.2182
375.881
386.8574
409.3815
5346000
5346000
5346000
5346000
5346000
364.3387
365.0783
366.008
367.3754
369.6621
373.802
381.1294
398.3214
5346000
5346000
5346000
5346000
5346000
363.8018
364.3904
365.0462
365.8251
366.86
368.3577
370.6853
374.3492
385.2272
5346000
5346000
5346000
5346000
5346000
363.3004
363.7804
364.2905
364.8382
365.4388
366.1275
366.9354
367.9197
369.1028
373.1533
5346000
5346000
5346000
5346000
5346000
5346000
5346000
5346000
5346000
5346000
5346000
5346000
5346000
5346000
5346000
368.1525
5346000
5346000
5346000
5346000
5346000
5346000
5346000
5346000
5346000
5346000
5346000
5346000
5346000
5346000
5346000
366.9671
367.4421
5346000
5346000
5346000
5346000
5346000
5346000
5346000
5346000
5346000
5346000
5346000
5346000
5346000
5346000
5346000
366.1984
366.4626
366.7845
5346000
5346000
5346000
5346000
5346000
5346000
5346000
5346000
5346000
5346000
5346000
5346000
5346000
5346000
5346000
365.5214
365.7822
365.9875
366.1876
5346000
5346000
5346000
5346000
5346000
5346000
5346000
5346000
5346000
5346000
5346000
5346000
5346000
5346000
5346000
364.9237
365.1792
365.3926
365.5367
365.656
5346000
5346000
5346000
5346000
5346000
5346000
5346000
5346000
5346000
5346000
5346000
5346000
5346000
5346000
5346000
5346000
5346000
5346000
5346000
5346000
5346000
5346000
5346000
5346000
5346000
368.3647
375.2186
5346000
5346000
5346000
5346000
5346000
367.8354
371.7479
388.075
5346000
5346000
5346000
5346000
5346000
367.0496
369.9883
377.6861
400.9032
5346000
5346000
5346000
5346000
5346000
366.2797
368.3223
373.0379
384.3122
410.9447
5346000
5346000
5346000
5346000
5346000
365.5724
366.9995
369.7488
375.8535
388.9318
415.4261
5346000
5346000
5346000
5346000
5346000
364.9399
365.972
367.6121
370.7024
377.0463
389.2815
412.8688
5346000
5346000
5346000
5346000
5346000
364.3639
365.1635
366.2058
367.8194
370.6516
375.9084
385.1142
404.0591
5346000
5346000
5346000
5346000
5346000
363.8325
364.4819
365.2239
366.1535
367.4896
369.5819
373.0073
378.4131
391.5028
5346000
5346000
5346000
5346000
5346000
363.3353
363.8752
364.452
365.0872
365.8288
366.7741
368.0292
369.739
371.965
378.1942
5346000
5346000
5346000
5346000
5346000
362.8673
363.3156
363.7881
364.2851
364.8138
365.3837
366.0139
366.6974
367.406
367.9452
369.8576
5346000
5346000
5346000
5346000
5346000
5346000
5346000
5346000
5346000
5346000
5346000
5346000
5346000
5346000
5346000
367.0681
367.9082
5346000
5346000
5346000
5346000
5346000
5346000
5346000
5346000
5346000
5346000
5346000
5346000
5346000
5346000
5346000
366.269
366.5499
367.0413
5346000
5346000
5346000
5346000
5346000
5346000
5346000
5346000
5346000
5346000
5346000
5346000
5346000
5346000
5346000
365.565
365.8252
366.0473
366.3348
5346000
5346000
5346000
5346000
5346000
5346000
5346000
5346000
5346000
5346000
5346000
5346000
5346000
5346000
5346000
364.9445
365.1988
365.4138
365.567
365.7245
5346000
5346000
5346000
5346000
5346000
5346000
5346000
5346000
5346000
5346000
5346000
5346000
5346000
5346000
5346000
364.3831
364.643
364.8577
365.0219
365.1181
365.3823
5346000
5346000
5346000
5346000
5346000
5346000
5346000
5346000
5346000
5346000
5346000
5346000
5346000
5346000
5346000
5346000
5346000
5346000
5346000
5346000
5346000
5346000
5346000
5346000
5346000
5346000
5346000
5346000
5346000
5346000
367.4521
369.2223
376.9904
5346000
5346000
5346000
5346000
5346000
366.8747
368.9498
374.0121
391.2098
5346000
5346000
5346000
5346000
5346000
366.206
367.9257
371.6886
380.5738
403.6672
5346000
5346000
5346000
5346000
5346000
365.5482
366.8847
369.3862
374.8468
386.5609
411.6453
5346000
5346000
5346000
5346000
5346000
364.9399
365.972
367.6121
370.7024
377.0463
389.2815
412.8688
5346000
5346000
5346000
5346000
5346000
364.377
365.2083
366.3124
368.0643
371.2065
377.0898
387.3001
406.9054
5346000
5346000
5346000
5346000
5346000
363.854
364.5469
365.3543
366.4039
367.986
370.5692
374.8787
381.5515
395.4875
5346000
5346000
5346000
5346000
5346000
363.3628
363.9525
364.5875
365.3037
366.1825
367.3829
369.0869
371.5082
374.6194
381.4196
5346000
5346000
5346000
5346000
5346000
362.8994
363.4004
363.9249
364.4757
365.071
365.7417
366.5373
367.4578
368.4355
369.0502
371.7093
5346000
5346000
5346000
5346000
5346000
362.4607
362.8813
363.3218
363.7812
364.2596
364.7617
365.2883
365.838
366.3543
366.673
366.9437
369.2236
5346000
5346000
5346000
5346000
5346000
5346000
5346000
5346000
5346000
5346000
5346000
5346000
5346000
5346000
5346000
366.3202
366.6386
367.5352
5346000
5346000
5346000
5346000
5346000
5346000
5346000
5346000
5346000
5346000
5346000
5346000
5346000
5346000
5346000
365.6258
365.8784
366.1338
366.6028
5346000
5346000
5346000
5346000
5346000
5346000
5346000
5346000
5346000
5346000
5346000
5346000
5346000
5346000
5346000
364.9846
365.2344
365.4521
365.6271
365.8748
5346000
5346000
5346000
5346000
5346000
5346000
5346000
5346000
5346000
5346000
5346000
5346000
5346000
5346000
5346000
364.4026
364.6607
364.8749
365.0417
365.1485
365.4506
5346000
5346000
5346000
5346000
5346000
5346000
5346000
5346000
5346000
5346000
5346000
5346000
5346000
5346000
5346000
363.8793
364.1356
364.3606
364.5326
364.6541
364.8735
365.3481
5346000
5346000
5346000
5346000
5346000
5346000
5346000
5346000
5346000
5346000
5346000
5346000
5346000
5346000
5346000
5346000
5346000
5346000
5346000
5346000
5346000
5346000
5346000
5346000
5346000
5346000
5346000
5346000
5346000
5346000
5346000
5346000
5346000
5346000
5346000
366.6775
367.8192
369.9649
378.0158
5346000
5346000
5346000
5346000
5346000
366.1074
367.4131
369.9758
375.7402
392.8509
5346000
5346000
5346000
5346000
5346000
365.5026
366.673
368.7312
373.0402
382.2462
404.1883
5346000
5346000
5346000
5346000
5346000
364.9231
365.9048
367.425
370.2182
375.881
386.8574
409.3815
5346000
5346000
5346000
5346000
5346000
364.377
365.2083
366.3124
368.0643
371.2065
377.0898
387.3001
406.9054
5346000
5346000
5346000
5346000
5346000
363.865
364.5807
365.4234
366.54
368.2615
371.1247
375.9274
383.2622
397.4417
5346000
5346000
5346000
5346000
5346000
363.382
364.0069
364.685
365.4645
366.4552
367.8673
369.9448
372.9366
376.6589
383.4271
5346000
5346000
5346000
5346000
5346000
362.9247
363.4691
364.0382
364.6376
365.2976
366.0715
367.0412
368.2198
369.5008
370.1941
373.17
5346000
5346000
5346000
5346000
5346000
362.4905
362.959
363.4436
363.9409
364.4523
364.9879
365.5545
366.1495
366.6708
366.8511
367.2409
370.7007
5346000
5346000
5346000
5346000
5346000
362.0783
362.4737
362.8867
363.3145
363.7563
364.2109
364.6781
365.1466
365.5813
365.8232
365.8951
366.6387
368.5766
5346000
5346000
5346000
5346000
5346000
5346000
5346000
5346000
5346000
5346000
5346000
5346000
5346000
5346000
5346000
365.6601
365.8882
366.2268
367.0781
5346000
5346000
5346000
5346000
5346000
5346000
5346000
5346000
5346000
5346000
5346000
5346000
5346000
5346000
5346000
365.0402
365.2744
365.496
365.7152
366.1404
5346000
5346000
5346000
5346000
5346000
5346000
5346000
5346000
5346000
5346000
5346000
5346000
5346000
5346000
5346000
364.4401
364.6926
364.9045
365.0774
365.2092
365.5994
5346000
5346000
5346000
5346000
5346000
5346000
5346000
5346000
5346000
5346000
5346000
5346000
5346000
5346000
5346000
363.8978
364.1521
364.3758
364.548
364.6731
364.9037
365.4162
5346000
5346000
5346000
5346000
5346000
5346000
5346000
5346000
5346000
5346000
5346000
5346000
5346000
5346000
5346000
363.4062
363.6599
363.8864
364.0748
364.2105
364.4389
364.8428
365.3143
5346000
5346000
5346000
5346000
5346000
5346000
5346000
5346000
5346000
5346000
5346000
5346000
5346000
5346000
5346000
5346000
5346000
5346000
5346000
5346000
5346000
5346000
5346000
5346000
5346000
5346000
5346000
5346000
5346000
5346000
5346000
5346000
5346000
5346000
5346000
5346000
5346000
5346000
5346000
5346000
365.9929
366.849
368.1475
370.5174
378.5345
5346000
5346000
5346000
5346000
5346000
365.4403
366.394
367.8972
370.7749
376.7212
393.1514
5346000
5346000
5346000
5346000
5346000
364.891
365.7791
367.0831
369.3502
373.7998
382.4526
402.4559
5346000
5346000
5346000
5346000
5346000
364.3639
365.1635
366.2058
367.8194
370.6516
375.9084
385.1142
404.0591
5346000
5346000
5346000
5346000
5346000
363.865
364.5807
365.4234
366.54
368.2615
371.1247
375.9274
383.2622
397.4417
5346000
5346000
5346000
5346000
5346000
363.3918
364.0348
364.736
365.5503
366.6046
368.1375
370.4287
373.7366
377.7653
384.4029
5346000
5346000
5346000
5346000
5346000
362.9422
363.5171
364.1186
364.7552
365.4677
366.3292
367.4482
368.8491
370.3805
371.102
374.153
5346000
5346000
5346000
5346000
5346000
362.514
363.0218
363.5437
364.0746
364.6179
365.1908
365.81
366.4787
367.0677
367.2131
367.6548
371.9219
5346000
5346000
5346000
5346000
5346000
362.1061
362.5459
362.9981
363.456
363.9159
364.3747
364.8301
365.2616
365.6102
365.6738
365.815
366.8783
369.752
5346000
5346000
5346000
5346000
5346000
361.7179
362.0905
362.4787
362.8796
363.2909
363.711
364.1357
364.5567
364.9381
365.1589
365.1727
365.6465
366.2976
367.9101
5346000
5346000
5346000
5346000
5346000
5346000
5346000
5346000
5346000
5346000
5346000
5346000
5346000
5346000
5346000
365.0691
365.2602
365.5003
365.8183
366.5757
5346000
5346000
5346000
5346000
5346000
5346000
5346000
5346000
5346000
5346000
5346000
5346000
5346000
5346000
5346000
364.4923
364.7273
364.9329
365.1188
365.3007
365.8582
5346000
5346000
5346000
5346000
5346000
5346000
5346000
5346000
5346000
5346000
5346000
5346000
5346000
5346000
5346000
363.9335
364.1817
364.4015
364.5741
364.708
364.9645
365.5647
5346000
5346000
5346000
5346000
5346000
5346000
5346000
5346000
5346000
5346000
5346000
5346000
5346000
5346000
5346000
363.4238
363.6755
363.9004
364.0882
364.2249
364.4576
364.8729
365.3824
5346000
5346000
5346000
5346000
5346000
5346000
5346000
5346000
5346000
5346000
5346000
5346000
5346000
5346000
5346000
362.9625
363.2103
363.4387
363.634
363.792
364.021
364.4116
364.8127
365.28
5346000
5346000
5346000
5346000
5346000
5346000
5346000
5346000
5346000
5346000
5346000
5346000
5346000
5346000
5346000
5346000
5346000
5346000
5346000
5346000
5346000
5346000
5346000
5346000
5346000
5346000
5346000
5346000
5346000
5346000
5346000
5346000
5346000
5346000
5346000
5346000
5346000
5346000
5346000
5346000
5346000
5346000
5346000
5346000
5346000
365.3657
366.0795
366.9975
368.393
370.8191
378.6256
5346000
5346000
5346000
5346000
5346000
364.8462
365.6096
366.6394
368.2587
371.2103
376.8258
392.1133
5346000
5346000
5346000
5346000
5346000
364.3387
365.0783
366.008
367.3754
369.6621
373.802
381.1294
398.3214
5346000
5346000
5346000
5346000
5346000
363.854
364.5469
365.3543
366.4039
367.986
370.5692
374.8787
381.5515
395.4875
5346000
5346000
5346000
5346000
5346000
363.3918
364.0348
364.736
365.5503
366.6046
368.1375
370.4287
373.7366
377.7653
384.4029
5346000
5346000
5346000
5346000
5346000
362.9512
363.5417
364.1602
364.8171
365.5592
366.4714
367.6771
369.2067
370.8768
371.5995
374.6452
5346000
5346000
5346000
5346000
5346000
362.5303
363.0656
363.6142
364.1702
364.7394
365.3457
366.0155
366.7581
367.4233
367.5565
368.0127
372.7609
5346000
5346000
5346000
5346000
5346000
362.1281
362.6042
363.0894
363.5735
364.0507
364.5181
364.975
365.4004
365.7287
365.7254
365.8823
367.209
370.7555
5346000
5346000
5346000
5346000
5346000
361.744
362.158
362.5821
363.0089
363.4315
363.8439
364.2361
364.5899
364.8512
364.8965
364.9697
365.5803
366.5025
368.8395
5346000
5346000
5346000
5346000
5346000
361.3779
361.7294
362.0951
362.4719
362.8573
363.2486
363.6422
364.0278
364.3776
364.5822
364.596
364.9597
365.3734
365.929
367.2409
5346000
5346000
5346000
5346000
5346000
5346000
5346000
5346000
5346000
5346000
5346000
5346000
5346000
5346000
5346000
364.5201
364.7077
364.9096
365.1336
365.4157
366.2671
5346000
5346000
5346000
5346000
5346000
5346000
5346000
5346000
5346000
5346000
5346000
5346000
5346000
5346000
5346000
363.9832
364.2139
364.4241
364.5985
364.7519
365.0575
365.8225
5346000
5346000
5346000
5346000
5346000
5346000
5346000
5346000
5346000
5346000
5346000
5346000
5346000
5346000
5346000
363.4578
363.7036
363.924
364.1101
364.2496
364.4925
364.9336
365.5305
5346000
5346000
5346000
5346000
5346000
5346000
5346000
5346000
5346000
5346000
5346000
5346000
5346000
5346000
5346000
362.9793
363.2253
363.452
363.6462
363.8042
364.0351
364.4303
364.8428
365.3479
5346000
5346000
5346000
5346000
5346000
5346000
5346000
5346000
5346000
5346000
5346000
5346000
5346000
5346000
5346000
362.5448
362.7865
363.0128
363.2144
363.3843
363.6245
363.9968
364.3849
364.782
365.2469
5346000
5346000
5346000
5346000
5346000
5346000
5346000
5346000
5346000
5346000
5346000
5346000
5346000
5346000
5346000
5346000
5346000
5346000
5346000
5346000
5346000
5346000
5346000
5346000
5346000
5346000
5346000
5346000
5346000
5346000
5346000
5346000
5346000
5346000
5346000
5346000
5346000
5346000
5346000
5346000
5346000
5346000
5346000
5346000
5346000
5346000
5346000
5346000
5346000
5346000
364.791
365.4131
366.1492
367.0994
368.5131
370.8321
378.2923
5346000
5346000
5346000
5346000
5346000
364.3029
364.9607
365.7453
366.8065
368.4286
371.1891
376.0161
389.5949
5346000
5346000
5346000
5346000
5346000
363.8325
364.4819
365.2239
366.1535
367.4896
369.5819
373.0073
378.4131
391.5028
5346000
5346000
5346000
5346000
5346000
363.382
364.0069
364.685
365.4645
366.4552
367.8673
369.9448
372.9366
376.6589
383.4271
5346000
5346000
5346000
5346000
5346000
362.9512
363.5417
364.1602
364.8171
365.5592
366.4714
367.6771
369.2067
370.8768
371.5995
374.6452
5346000
5346000
5346000
5346000
5346000
362.5386
363.088
363.6505
364.22
364.8038
365.4299
366.1306
366.9187
367.6316
367.7587
368.2152
373.1849
5346000
5346000
5346000
5346000
5346000
362.1433
362.6447
363.1535
363.6568
364.148
364.6251
365.0906
365.5253
365.8597
365.8253
365.982
367.4973
371.4579
5346000
5346000
5346000
5346000
5346000
361.7646
362.2125
362.6668
363.1158
363.5492
363.9583
364.331
364.6474
364.8523
364.8271
364.9072
365.6251
366.7691
369.6489
5346000
5346000
5346000
5346000
5346000
361.4025
361.7928
362.1919
362.5919
362.9856
363.3649
363.7191
364.0282
364.2514
364.2904
364.3603
364.7941
365.3317
366.1121
367.9641
5346000
5346000
5346000
5346000
5346000
361.0569
361.3887
361.7337
362.0886
362.4508
362.8177
363.185
363.544
363.8685
364.066
364.0851
364.4085
364.7286
365.0825
365.5535
366.8568
5346000
5346000
5346000
5346000
5346000
5346000
5346000
5346000
5346000
5346000
5346000
5346000
5346000
5346000
5346000
364.0115
364.1955
364.3941
364.5844
364.7845
365.1785
366.2283
5346000
5346000
5346000
5346000
5346000
5346000
5346000
5346000
5346000
5346000
5346000
5346000
5346000
5346000
5346000
363.5055
363.7347
363.9444
364.128
364.2757
364.5388
365.0268
365.7874
5346000
5346000
5346000
5346000
5346000
5346000
5346000
5346000
5346000
5346000
5346000
5346000
5346000
5346000
5346000
363.012
363.2523
363.4744
363.666
363.8245
364.0598
364.4652
364.9034
365.4956
5346000
5346000
5346000
5346000
5346000
5346000
5346000
5346000
5346000
5346000
5346000
5346000
5346000
5346000
5346000
362.5609
362.8009
363.0255
363.2259
363.3954
363.6364
364.0109
364.4036
364.812
365.3147
5346000
5346000
5346000
5346000
5346000
5346000
5346000
5346000
5346000
5346000
5346000
5346000
5346000
5346000
5346000
362.1513
362.3857
362.6089
362.8122
362.9927
363.2353
363.6028
363.9732
364.3578
364.7525
365.21
5346000
5346000
5346000
5346000
5346000
5346000
5346000
5346000
5346000
5346000
5346000
5346000
5346000
5346000
5346000
5346000
5346000
5346000
5346000
5346000
5346000
5346000
5346000
5346000
5346000
5346000
5346000
5346000
5346000
5346000
5346000
5346000
5346000
5346000
5346000
5346000
5346000
5346000
5346000
5346000
5346000
5346000
5346000
5346000
5346000
5346000
5346000
5346000
5346000
5346000
5346000
5346000
5346000
5346000
5346000
364.2581
364.8208
365.4471
366.188
367.1323
368.4784
370.5427
377.4662
5346000
5346000
5346000
5346000
5346000
363.8018
364.3904
365.0462
365.8251
366.86
368.3577
370.6853
374.3492
385.2272
5346000
5346000
5346000
5346000
5346000
363.3628
363.9525
364.5875
365.3037
366.1825
367.3829
369.0869
371.5082
374.6194
381.4196
5346000
5346000
5346000
5346000
5346000
362.9422
363.5171
364.1186
364.7552
365.4677
366.3292
367.4482
368.8491
370.3805
371.102
374.153
5346000
5346000
5346000
5346000
5346000
362.5386
363.088
363.6505
364.22
364.8038
365.4299
366.1306
366.9187
367.6316
367.7587
368.2152
373.1849
5346000
5346000
5346000
5346000
5346000
362.1511
362.6654
363.1864
363.6998
364.1989
364.6825
365.1549
365.5989
365.9419
365.894
366.0477
367.6613
371.8162
5346000
5346000
5346000
5346000
5346000
361.779
362.2504
362.726
363.1912
363.6333
364.0422
364.4058
364.7054
364.8867
364.8267
364.9023
365.6982
367.0003
370.2241
5346000
5346000
5346000
5346000
5346000
361.4219
361.8439
362.271
362.6909
363.0925
363.4638
363.7911
364.0517
364.2075
364.1768
364.2522
364.7332
365.3651
366.3293
368.6
5346000
5346000
5346000
5346000
5346000
361.08
361.4483
361.8245
362.2009
362.57
362.9237
363.2507
363.5332
363.7345
363.7798
363.8508
364.2169
364.6056
365.0683
365.7214
367.4844
5346000
5346000
5346000
5346000
5346000
360.7535
361.067
361.3927
361.7275
362.0687
362.4137
362.7584
363.0945
363.3992
363.5894
363.6208
363.9176
364.2072
364.4843
364.7909
365.3275
366.8096
5346000
5346000
5346000
5346000
5346000
5346000
5346000
5346000
5346000
5346000
5346000
5346000
5346000
5346000
5346000
363.5348
363.72
363.9153
364.1057
364.2795
364.5818
365.1481
366.19
5346000
5346000
5346000
5346000
5346000
5346000
5346000
5346000
5346000
5346000
5346000
5346000
5346000
5346000
5346000
363.058
363.2826
363.4942
363.6815
363.8435
364.0882
364.5117
364.9966
365.7514
5346000
5346000
5346000
5346000
5346000
5346000
5346000
5346000
5346000
5346000
5346000
5346000
5346000
5346000
5346000
362.5923
362.8269
363.0471
363.2446