/*--------------------------------*- C++ -*----------------------------------*\
| =========                 |                                                 |
| \\      /  F ield         | OpenFOAM: The Open Source CFD Toolbox           |
|  \\    /   O peration     | Version:  2306                                  |
|   \\  /    A nd           | Website:  www.openfoam.com                      |
|    \\/     M anipulation  |                                                 |
\*---------------------------------------------------------------------------*/
FoamFile
{
    version     2.0;
    format      ascii;
    arch        "LSB;label=32;scalar=64";
    class       volScalarField;
    location    "0.9";
    object      T;
}
// * * * * * * * * * * * * * * * * * * * * * * * * * * * * * * * * * * * * * //

dimensions      [0 0 0 1 0 0 0];

internalField   nonuniform List<scalar> 
52000
(
1101.484
1101.482
1102.961
1101.432
1101.479
1102.961
1101.429
1104.966
1102.944
1101.329
1101.474
1102.959
1101.425
1104.966
1102.943
1101.325
1107.083
1104.965
1102.909
1101.18
1101.468
1102.957
1101.418
1104.964
1102.941
1101.317
1107.083
1104.964
1102.908
1101.172
1109.152
1107.088
1104.963
1102.862
1100.992
1101.462
1102.955
1101.41
1104.963
1102.938
1101.307
1107.081
1104.962
1102.905
1101.159
1109.151
1107.087
1104.961
1102.86
1100.978
1111.114
1109.159
1107.099
1104.963
1102.808
1100.837
1101.457
1102.952
1101.402
1104.96
1102.935
1101.294
1107.08
1104.96
1102.901
1101.14
1109.15
1107.085
1104.958
1102.855
1100.952
1111.114
1109.158
1107.097
1104.961
1102.804
1100.814
1112.954
1111.122
1109.174
1107.117
1104.969
1102.768
1100.738
1101.452
1102.949
1101.394
1104.958
1102.931
1101.28
1107.078
1104.957
1102.896
1101.118
1109.148
1107.083
1104.955
1102.849
1100.917
1111.113
1109.156
1107.094
1104.956
1102.797
1100.769
1112.954
1111.121
1109.172
1107.115
1104.966
1102.762
1100.708
1114.673
1112.961
1111.137
1109.198
1107.147
1104.983
1102.746
1100.648
1101.448
1102.947
1101.387
1104.956
1102.927
1101.266
1107.075
1104.953
1102.89
1101.094
1109.146
1107.08
1104.95
1102.841
1100.88
1111.111
1109.154
1107.09
1104.95
1102.787
1100.702
1112.953
1111.119
1109.17
1107.111
1104.96
1102.75
1100.648
1114.672
1112.961
1111.136
1109.196
1107.144
1104.979
1102.737
1100.612
1116.278
1114.68
1112.976
1111.162
1109.235
1107.181
1104.995
1102.729
1100.572
1101.446
1102.945
1101.381
1104.954
1102.924
1101.253
1107.073
1104.95
1102.884
1101.067
1109.144
1107.077
1104.944
1102.833
1100.853
1111.109
1109.151
1107.086
1104.942
1102.776
1100.616
1112.951
1111.117
1109.166
1107.104
1104.951
1102.733
1100.556
1114.672
1112.959
1111.133
1109.192
1107.139
1104.972
1102.721
1100.539
1116.277
1114.679
1112.975
1111.161
1109.233
1107.178
1104.991
1102.718
1100.532
1117.778
1116.284
1114.693
1113
1111.2
1109.275
1107.206
1105.012
1102.72
1100.516
1101.446
1102.944
1101.378
1104.953
1102.922
1101.243
1107.071
1104.948
1102.879
1101.041
1109.142
1107.074
1104.939
1102.822
1100.793
1111.107
1109.148
1107.08
1104.932
1102.768
1088.749
1112.95
1111.115
1109.161
1107.096
1104.938
1102.715
1100.427
1114.67
1112.957
1111.13
1109.186
1107.129
1104.963
1102.697
1100.426
1116.276
1114.678
1112.973
1111.157
1109.228
1107.173
1104.983
1102.698
1100.45
1117.777
1116.283
1114.692
1112.999
1111.198
1109.273
1107.204
1105.007
1102.708
1100.472
1119.182
1117.783
1116.296
1114.716
1113.036
1111.239
1109.304
1107.236
1105.034
1102.721
1100.48
1101.448
1102.944
1101.378
1104.952
1102.921
1101.238
1107.07
1104.946
1102.875
1101.021
1109.14
1107.071
1104.934
1102.811
1100.735
1111.105
1109.145
1107.075
1104.922
1102.747
1078.081
1112.948
1111.112
1109.156
1107.085
1104.919
1101.177
1077.907
1114.669
1112.955
1111.126
1109.177
1107.115
1104.952
1102.667
1100.265
1116.275
1114.676
1112.97
1111.151
1109.219
1107.166
1104.971
1102.666
1100.321
1117.777
1116.282
1114.69
1112.995
1111.193
1109.269
1107.199
1104.998
1102.684
1100.384
1119.182
1117.783
1116.295
1114.714
1113.034
1111.238
1109.302
1107.233
1105.029
1102.708
1100.435
1120.499
1119.187
1117.795
1116.317
1114.749
1113.073
1111.268
1109.337
1107.269
1105.063
1102.734
1100.467
1101.452
1102.945
1101.381
1104.952
1102.921
1101.238
1107.069
1104.945
1102.872
1101.01
1109.139
1107.069
1104.931
1102.803
1100.692
1111.104
1109.143
1107.07
1104.913
1102.723
1072.306
1112.946
1111.109
1109.151
1107.075
1104.899
1098.222
1052.219
1114.667
1112.952
1111.121
1109.167
1107.092
1104.259
1098.181
1071.979
1116.274
1114.674
1112.966
1111.143
1109.205
1107.158
1104.957
1102.623
1100.139
1117.775
1116.28
1114.687
1112.99
1111.185
1109.263
1107.192
1104.984
1102.646
1100.246
1119.181
1117.782
1116.294
1114.711
1113.03
1111.234
1109.299
1107.228
1105.019
1102.682
1100.344
1120.498
1119.186
1117.794
1116.315
1114.747
1113.072
1111.267
1109.335
1107.267
1105.057
1102.721
1100.422
1121.735
1120.503
1119.198
1117.813
1116.347
1114.783
1113.1
1111.3
1109.372
1107.306
1105.098
1102.759
1100.475
1101.457
1102.947
1101.387
1104.953
1102.922
1101.243
1107.069
1104.945
1102.872
1101.01
1109.138
1107.068
1104.929
1102.798
1100.669
1111.102
1109.141
1107.067
1104.906
1102.703
1069.081
1112.945
1111.107
1109.147
1107.067
1104.881
1095.68
1036.489
1114.666
1112.95
1111.116
1109.158
1107.072
1102.922
1089.469
1036.243
1116.272
1114.671
1112.961
1111.134
1109.181
1106.786
1102.96
1095.587
1068.567
1117.774
1116.278
1114.684
1112.983
1111.172
1109.257
1107.184
1104.964
1102.593
1100.053
1119.18
1117.78
1116.291
1114.706
1113.023
1111.23
1109.294
1107.221
1105.002
1102.641
1100.204
1120.498
1119.186
1117.792
1116.313
1114.743
1113.069
1111.265
1109.332
1107.261
1105.046
1102.695
1100.331
1121.735
1120.503
1119.197
1117.812
1116.345
1114.781
1113.099
1111.299
1109.371
1107.304
1105.092
1102.747
1100.431
1122.898
1121.74
1120.513
1119.215
1117.841
1116.378
1114.808
1113.13
1111.334
1109.41
1107.348
1105.139
1102.796
1100.504
1101.462
1102.949
1101.394
1104.954
1102.924
1101.253
1107.07
1104.946
1102.875
1101.021
1109.138
1107.068
1104.929
1102.798
1100.669
1111.102
1109.14
1107.065
1104.903
1102.692
1067.594
1112.944
1111.105
1109.144
1107.061
1104.867
1093.818
1027.178
1114.664
1112.948
1111.112
1109.15
1107.057
1101.724
1081.868
1012.69
1116.271
1114.669
1112.957
1111.126
1109.163
1106.099
1099.02
1081.745
1026.521
1117.773
1116.276
1114.68
1112.975
1111.15
1109.029
1106.17
1101.784
1093.644
1066.831
1119.179
1117.778
1116.288
1114.7
1113.011
1111.225
1109.289
1107.211
1104.978
1102.582
1100.007
1120.497
1119.184
1117.79
1116.308
1114.736
1113.065
1111.261
1109.327
1107.253
1105.028
1102.653
1100.192
1121.735
1120.502
1119.195
1117.81
1116.342
1114.779
1113.097
1111.297
1109.368
1107.299
1105.082
1102.722
1100.343
1122.898
1121.739
1120.512
1119.213
1117.839
1116.377
1114.807
1113.129
1111.333
1109.409
1107.345
1105.134
1102.785
1100.461
1123.993
1122.902
1121.749
1120.529
1119.24
1117.869
1116.401
1114.835
1113.161
1111.371
1109.451
1107.392
1105.185
1102.843
1100.553
1101.468
1102.952
1101.402
1104.956
1102.927
1101.266
1107.071
1104.948
1102.879
1101.041
1109.139
1107.069
1104.931
1102.803
1100.692
1111.102
1109.14
1107.065
1104.903
1102.692
1067.594
1112.943
1111.104
1109.142
1107.058
1104.86
1092.835
1022.8
1114.663
1112.946
1111.11
1109.145
1107.046
1100.809
1076.254
998.0931
1116.27
1114.667
1112.954
1111.119
1109.15
1105.494
1095.428
1069.458
997.5295
1117.772
1116.274
1114.676
1112.967
1111.134
1108.632
1104.195
1095.434
1075.899
1021.483
1119.177
1117.776
1116.284
1114.692
1112.99
1111.068
1108.712
1105.62
1100.88
1092.55
1066.492
1120.496
1119.183
1117.787
1116.303
1114.726
1113.06
1111.257
1109.321
1107.241
1105.002
1102.594
1100
1121.734
1120.501
1119.193
1117.806
1116.336
1114.775
1113.094
1111.294
1109.363
1107.29
1105.064
1102.683
1100.209
1122.897
1121.738
1120.511
1119.211
1117.836
1116.374
1114.805
1113.127
1111.332
1109.407
1107.341
1105.125
1102.762
1100.375
1123.992
1122.902
1121.748
1120.528
1119.239
1117.868
1116.4
1114.834
1113.161
1111.37
1109.45
1107.391
1105.182
1102.833
1100.51
1125.023
1123.996
1122.91
1121.763
1120.552
1119.266
1117.89
1116.425
1114.863
1113.195
1111.409
1109.494
1107.44
1105.237
1102.899
1101.362
1101.474
1102.955
1101.41
1104.958
1102.931
1101.28
1107.073
1104.95
1102.884
1101.067
1109.14
1107.071
1104.934
1102.811
1100.735
1111.102
1109.141
1107.067
1104.906
1102.703
1069.081
1112.943
1111.104
1109.142
1107.058
1104.86
1092.835
1022.8
1114.663
1112.946
1111.108
1109.142
1107.041
1100.312
1073.278
991.0546
1116.269
1114.666
1112.951
1111.114
1109.141
1105.034
1092.656
1060.276
978.9933
1117.77
1116.273
1114.673
1112.961
1111.122
1108.294
1102.411
1089.551
1059.946
989.4743
1119.176
1117.775
1116.281
1114.685
1112.975
1110.811
1107.61
1102.472
1092.63
1072.573
1020.531
1120.495
1119.181
1117.784
1116.296
1114.707
1112.94
1110.889
1108.439
1105.213
1100.392
1092.425
1067.529
1121.733
1120.499
1119.19
1117.8
1116.326
1114.771
1113.091
1111.29
1109.357
1107.278
1105.038
1102.628
1100.029
1122.897
1121.737
1120.509
1119.208
1117.831
1116.371
1114.802
1113.125
1111.329
1109.402
1107.333
1105.11
1102.729
1100.248
1123.992
1122.901
1121.747
1120.526
1119.236
1117.866
1116.398
1114.833
1113.16
1111.369
1109.449
1107.388
1105.175
1102.814
1100.424
1125.023
1123.996
1122.91
1121.762
1120.551
1119.265
1117.889
1116.425
1114.863
1113.195
1111.409
1109.494
1107.439
1105.235
1102.89
1101.304
1125.994
1125.027
1124.004
1122.924
1121.785
1120.576
1119.285
1117.912
1116.452
1114.894
1113.23
1111.449
1109.539
1107.489
1105.291
1103.648
1102.917
1101.479
1102.957
1101.418
1104.96
1102.935
1101.294
1107.075
1104.953
1102.89
1101.094
1109.142
1107.074
1104.939
1102.822
1100.793
1111.104
1109.143
1107.07
1104.913
1102.723
1072.306
1112.944
1111.105
1109.144
1107.061
1104.867
1093.818
1027.178
1114.663
1112.946
1111.108
1109.142
1107.041
1100.312
1073.278
991.0546
1116.268
1114.665
1112.95
1111.111
1109.136
1104.785
1091.143
1055.373
969.8939
1117.77
1116.271
1114.671
1112.956
1111.114
1108.044
1101.035
1084.959
1047.903
968.6555
1119.175
1117.773
1116.278
1114.68
1112.965
1110.6
1106.638
1099.575
1084.895
1054.476
987.9312
1120.494
1119.179
1117.781
1116.289
1114.694
1112.751
1110.201
1106.719
1101.162
1091.065
1072.148
1023.635
1121.732
1120.498
1119.187
1117.794
1116.309
1114.671
1112.824
1110.743
1108.255
1105.026
1100.417
1093.308
1070.164
1122.896
1121.736
1120.506
1119.203
1117.822
1116.368
1114.8
1113.122
1111.325
1109.396
1107.321
1105.087
1102.684
1100.084
1123.991
1122.9
1121.745
1120.522
1119.231
1117.863
1116.396
1114.831
1113.158
1111.366
1109.445
1107.382
1105.164
1102.788
1100.298
1125.022
1123.995
1122.909
1121.76
1120.548
1119.263
1117.888
1116.423
1114.862
1113.194
1111.408
1109.494
1107.438
1105.231
1102.874
1101.173
1125.994
1125.026
1124.003
1122.923
1121.783
1120.575
1119.284
1117.912
1116.451
1114.894
1113.23
1111.449
1109.54
1107.49
1105.291
1103.64
1102.83
1126.909
1125.997
1125.034
1124.017
1122.944
1121.806
1120.593
1119.305
1117.936
1116.479
1114.926
1113.266
1111.49
1109.585
1107.54
1105.958
1105.085
1104.481
1101.482
1102.959
1101.425
1104.963
1102.938
1101.307
1107.078
1104.957
1102.896
1101.118
1109.144
1107.077
1104.944
1102.833
1100.853
1111.105
1109.145
1107.075
1104.922
1102.747
1078.081
1112.945
1111.107
1109.147
1107.067
1104.881
1095.68
1036.489
1114.663
1112.946
1111.11
1109.145
1107.046
1100.809
1076.254
998.0931
1116.268
1114.665
1112.95
1111.111
1109.136
1104.785
1091.143
1055.373
969.8939
1117.769
1116.271
1114.67
1112.954
1111.11
1107.909
1100.282
1082.435
1041.433
958.3313
1119.175
1117.772
1116.276
1114.676
1112.958
1110.448
1105.904
1097.31
1078.8
1040.732
966.6441
1120.493
1119.178
1117.778
1116.284
1114.684
1112.601
1109.613
1105.172
1097.378
1082.254
1053.739
992.8963
1121.731
1120.496
1119.185
1117.788
1116.297
1114.518
1112.335
1109.696
1106.085
1100.498
1091.044
1074.739
1031.292
1122.895
1121.734
1120.504
1119.197
1117.807
1116.28
1114.585
1112.735
1110.659
1108.2
1105.112
1100.988
1095.169
1075.088
1123.99
1122.899
1121.743
1120.518
1119.222
1117.86
1116.394
1114.828
1113.155
1111.363
1109.439
1107.373
1105.148
1102.756
1100.145
1125.022
1123.994
1122.907
1121.757
1120.543
1119.26
1117.886
1116.422
1114.861
1113.192
1111.407
1109.492
1107.436
1105.226
1102.854
1100.919
1125.993
1125.026
1124.002
1122.921
1121.781
1120.573
1119.282
1117.911
1116.45
1114.893
1113.23
1111.45
1109.541
1107.492
1105.29
1103.626
1102.623
1126.908
1125.997
1125.033
1124.016
1122.943
1121.806
1120.592
1119.305
1117.936
1116.479
1114.926
1113.267
1111.491
1109.587
1107.542
1105.962
1105.077
1104.371
1127.77
1126.912
1126.004
1125.046
1124.035
1122.964
1121.823
1120.612
1119.327
1117.961
1116.508
1114.959
1113.304
1111.531
1109.63
1108.126
1107.233
1106.522
1106.058
1101.484
1102.961
1101.429
1104.964
1102.941
1101.317
1107.08
1104.96
1102.901
1101.14
1109.146
1107.08
1104.95
1102.841
1100.88
1111.107
1109.148
1107.08
1104.932
1102.768
1088.749
1112.946
1111.109
1109.151
1107.075
1104.899
1098.222
1052.219
1114.664
1112.948
1111.112
1109.15
1107.057
1101.724
1081.868
1012.69
1116.269
1114.666
1112.951
1111.114
1109.141
1105.034
1092.656
1060.276
978.9933
1117.769
1116.271
1114.67
1112.954
1111.11
1107.909
1100.282
1082.435
1041.433
958.3313
1119.174
1117.771
1116.275
1114.674
1112.955
1110.367
1105.506
1096.06
1075.432
1033.319
956.0613
1120.492
1119.177
1117.776
1116.281
1114.678
1112.496
1109.179
1103.984
1094.388
1075.268
1039.731
972.9996
1121.73
1120.495
1119.182
1117.784
1116.288
1114.4
1111.928
1108.781
1104.103
1096.228
1082.156
1057.917
1004.911
1122.894
1121.733
1120.501
1119.192
1117.795
1116.147
1114.197
1112.008
1109.371
1105.828
1100.65
1092.655
1080.192
1044.854
1123.989
1122.897
1121.74
1120.513
1119.208
1117.781
1116.208
1114.523
1112.695
1110.66
1108.304
1105.495
1102.084
1097.944
1084.25
1125.021
1123.993
1122.905
1121.753
1120.536
1119.257
1117.883
1116.42
1114.858
1113.19
1111.404
1109.488
1107.431
1105.219
1102.837
1100.205
1125.993
1125.025
1124.001
1122.918
1121.777
1120.57
1119.281
1117.909
1116.449
1114.892
1113.229
1111.45
1109.542
1107.494
1105.292
1103.618
1102.175
1126.908
1125.996
1125.032
1124.014
1122.94
1121.804
1120.591
1119.304
1117.935
1116.479
1114.926
1113.268
1111.493
1109.59
1107.546
1105.974
1105.065
1104.106
1127.77
1126.911
1126.004
1125.045
1124.034
1122.963
1121.822
1120.611
1119.327
1117.961
1116.508
1114.959
1113.305
1111.533
1109.633
1108.134
1107.245
1106.514
1105.932
1128.581
1127.773
1126.918
1126.015
1125.063
1124.054
1122.979
1121.84
1120.632
1119.35
1117.988
1116.538
1114.992
1113.341
1111.572
1110.147
1109.248
1108.506
1107.96
1107.651
1102.961
1101.432
1104.966
1102.943
1101.325
1107.081
1104.962
1102.905
1101.159
1109.148
1107.083
1104.955
1102.849
1100.917
1111.109
1109.151
1107.086
1104.942
1102.776
1100.616
1112.948
1111.112
1109.156
1107.085
1104.919
1101.177
1077.907
1114.666
1112.95
1111.116
1109.158
1107.072
1102.922
1089.469
1036.243
1116.27
1114.667
1112.954
1111.119
1109.15
1105.494
1095.428
1069.458
997.5295
1117.77
1116.271
1114.671
1112.956
1111.114
1108.044
1101.035
1084.959
1047.903
968.6555
1119.174
1117.771
1116.275
1114.674
1112.955
1110.367
1105.506
1096.06
1075.432
1033.319
956.0613
1120.492
1119.176
1117.775
1116.279
1114.675
1112.441
1108.947
1103.336
1092.726
1071.393
1032.169
963.1558
1121.729
1120.494
1119.18
1117.78
1116.283
1114.318
1111.636
1108.095
1102.561
1092.827
1075.089
1045.143
988.1813
1122.893
1121.732
1120.499
1119.187
1117.788
1116.046
1113.882
1111.391
1108.226
1103.635
1096.413
1084.733
1066.669
1025.309
1123.988
1122.896
1121.738
1120.508
1119.198
1117.661
1115.877
1113.956
1111.821
1109.292
1106.038
1101.674
1095.772
1088.111
1067.431
1125.02
1123.992
1122.902
1121.748
1120.523
1119.184
1117.717
1116.159
1114.501
1112.718
1110.766
1108.586
1106.178
1103.689
1101.726
1095.137
1125.992
1125.024
1123.999
1122.915
1121.77
1120.568
1119.279
1117.907
1116.447
1114.89
1113.228
1111.449
1109.542
1107.497
1105.298
1103.698
1101.009
1126.907
1125.995
1125.031
1124.011
1122.936
1121.802
1120.589
1119.302
1117.934
1116.478
1114.926
1113.268
1111.496
1109.595
1107.554
1106.018
1105.066
1103.54
1127.769
1126.911
1126.003
1125.043
1124.032
1122.962
1121.821
1120.611
1119.326
1117.961
1116.508
1114.96
1113.307
1111.538
1109.639
1108.155
1107.28
1106.501
1105.631
1128.58
1127.773
1126.918
1126.014
1125.062
1124.053
1122.979
1121.84
1120.632
1119.35
1117.988
1116.539
1114.994
1113.343
1111.575
1110.156
1109.266
1108.525
1107.951
1107.518
1129.343
1128.583
1127.779
1126.929
1126.032
1125.081
1124.068
1122.995
1121.859
1120.653
1119.374
1118.015
1116.568
1115.026
1113.377
1112.029
1111.134
1110.367
1109.776
1109.399
1108.503
1104.966
1102.944
1101.329
1107.083
1104.964
1102.908
1101.172
1109.15
1107.085
1104.958
1102.855
1100.952
1111.111
1109.154
1107.09
1104.95
1102.787
1100.702
1112.95
1111.115
1109.161
1107.096
1104.938
1102.715
1100.427
1114.667
1112.952
1111.121
1109.167
1107.092
1104.259
1098.181
1071.979
1116.271
1114.669
1112.957
1111.126
1109.163
1106.099
1099.02
1081.745
1026.521
1117.77
1116.273
1114.673
1112.961
1111.122
1108.294
1102.411
1089.551
1059.946
989.4743
1119.175
1117.772
1116.276
1114.676
1112.958
1110.448
1105.904
1097.31
1078.8
1040.732
966.6441
1120.492
1119.176
1117.775
1116.279
1114.675
1112.441
1108.947
1103.336
1092.726
1071.393
1032.169
963.1558
1121.729
1120.493
1119.18
1117.779
1116.28
1114.276
1111.483
1107.726
1101.713
1090.928
1071.162
1038.256
979.997
1122.892
1121.731
1120.497
1119.185
1117.783
1115.978
1113.66
1110.94
1107.357
1101.914
1093.019
1078.428
1056.441
1013.253
1123.988
1122.895
1121.736
1120.504
1119.191
1117.571
1115.611
1113.487
1111.069
1108.06
1103.918
1098.011
1089.706
1079.148
1056.94
1125.019
1123.99
1122.9
1121.744
1120.514
1119.075
1117.42
1115.679
1113.833
1111.816
1109.511
1106.754
1103.527
1100.123
1097.952
1088.976
1125.991
1125.022
1123.997
1122.91
1121.758
1120.5
1119.126
1117.674
1116.145
1114.531
1112.818
1110.989
1109.061
1107.202
1106.025
1104.889
1097.078
1126.907
1125.994
1125.029
1124.008
1122.93
1121.799
1120.588
1119.301
1117.932
1116.476
1114.925
1113.268
1111.497
1109.601
1107.568
1106.242
1105.168
1102.244
1127.769
1126.91
1126.001
1125.041
1124.028
1122.96
1121.819
1120.609
1119.325
1117.96
1116.508
1114.961
1113.31
1111.544
1109.65
1108.213
1107.379
1106.497
1105.015
1128.58
1127.772
1126.917
1126.013
1125.06
1124.052
1122.977
1121.839
1120.631
1119.35
1117.988
1116.54
1114.996
1113.347
1111.581
1110.179
1109.315
1108.574
1107.935
1107.202
1129.343
1128.583
1127.779
1126.928
1126.031
1125.08
1124.068
1122.995
1121.858
1120.653
1119.374
1118.016
1116.57
1115.028
1113.38
1112.037
1111.154
1110.393
1109.798
1109.389
1108.369
1130.059
1129.346
1128.589
1127.789
1126.944
1126.048
1125.094
1124.083
1123.013
1121.878
1120.676
1119.399
1118.043
1116.599
1115.058
1113.783
1112.901
1112.118
1111.481
1111.042
1110.159
1108.594
1107.083
1104.965
1102.909
1101.18
1109.151
1107.087
1104.961
1102.86
1100.978
1111.113
1109.156
1107.094
1104.956
1102.797
1100.769
1112.951
1111.117
1109.166
1107.104
1104.951
1102.733
1100.556
1114.669
1112.955
1111.126
1109.177
1107.115
1104.952
1102.667
1100.265
1116.272
1114.671
1112.961
1111.134
1109.181
1106.786
1102.96
1095.587
1068.567
1117.772
1116.274
1114.676
1112.967
1111.134
1108.632
1104.195
1095.434
1075.899
1021.483
1119.175
1117.773
1116.278
1114.68
1112.965
1110.6
1106.638
1099.575
1084.895
1054.476
987.9312
1120.492
1119.177
1117.776
1116.281
1114.678
1112.496
1109.179
1103.984
1094.388
1075.268
1039.731
972.9996
1121.729
1120.493
1119.18
1117.779
1116.28
1114.276
1111.483
1107.726
1101.713
1090.928
1071.162
1038.256
979.997
1122.892
1121.731
1120.497
1119.183
1117.78
1115.943
1113.546
1110.702
1106.885
1100.961
1091.118
1074.924
1050.942
1007.437
1123.987
1122.894
1121.734
1120.501
1119.186
1117.51
1115.426
1113.151
1110.513
1107.114
1102.24
1095.058
1084.856
1072.355
1050.51
1125.019
1123.989
1122.898
1121.74
1120.507
1118.992
1117.184
1115.287
1113.271
1111.03
1108.365
1105.004
1100.889
1096.462
1094.062
1084.106
1125.99
1125.021
1123.994
1122.906
1121.749
1120.398
1118.853
1117.246
1115.584
1113.857
1112.028
1110.062
1107.981
1106.121
1105.474
1104.052
1092.238
1126.906
1125.993
1125.027
1124.004
1122.919
1121.736
1120.445
1119.086
1117.663
1116.176
1114.624
1113.006
1111.353
1109.794
1108.851
1108.448
1105.745
1099.148
1127.768
1126.909
1125.999
1125.037
1124.022
1122.957
1121.818
1120.608
1119.324
1117.959
1116.508
1114.961
1113.312
1111.55
1109.666
1108.47
1107.731
1106.56
1103.757
1128.579
1127.771
1126.915
1126.011
1125.057
1124.05
1122.976
1121.838
1120.63
1119.349
1117.988
1116.541
1114.999
1113.353
1111.592
1110.239
1109.441
1108.699
1107.917
1106.586
1129.342
1128.583
1127.778
1126.927
1126.029
1125.079
1124.067
1122.994
1121.858
1120.653
1119.374
1118.016
1116.572
1115.032
1113.386
1112.06
1111.205
1110.461
1109.855
1109.368
1108.055
1130.058
1129.345
1128.589
1127.788
1126.943
1126.048
1125.094
1124.083
1123.012
1121.878
1120.676
1119.4
1118.044
1116.601
1115.061
1113.791
1112.92
1112.146
1111.513
1111.066
1110.15
1108.46
1130.73
1130.061
1129.351
1128.599
1127.804
1126.96
1126.061
1125.108
1124.099
1123.031
1121.899
1120.698
1119.424
1118.07
1116.628
1115.421
1114.558
1113.77
1113.098
1112.59
1111.708
1110.24
1108.685
1109.152
1107.088
1104.963
1102.862
1100.992
1111.114
1109.158
1107.097
1104.961
1102.804
1100.814
1112.953
1111.119
1109.17
1107.111
1104.96
1102.75
1100.648
1114.67
1112.957
1111.13
1109.186
1107.129
1104.963
1102.697
1100.426
1116.274
1114.674
1112.966
1111.143
1109.205
1107.158
1104.957
1102.623
1100.139
1117.773
1116.276
1114.68
1112.975
1111.15
1109.029
1106.17
1101.784
1093.644
1066.831
1119.176
1117.775
1116.281
1114.685
1112.975
1110.811
1107.61
1102.472
1092.63
1072.573
1020.531
1120.493
1119.178
1117.778
1116.284
1114.684
1112.601
1109.613
1105.172
1097.378
1082.254
1053.739
992.8963
1121.729
1120.494
1119.18
1117.78
1116.283
1114.318
1111.636
1108.095
1102.561
1092.827
1075.089
1045.143
988.1813
1122.892
1121.731
1120.497
1119.183
1117.78
1115.943
1113.546
1110.702
1106.885
1100.961
1091.118
1074.924
1050.942
1007.437
1123.987
1122.894
1121.733
1120.5
1119.184
1117.479
1115.332
1112.976
1110.216
1106.596
1101.305
1093.399
1082.158
1068.703
1047.412
1125.018
1123.989
1122.897
1121.738
1120.503
1118.936
1117.021
1115.011
1112.866
1110.442
1107.473
1103.595
1098.721
1093.455
1090.986
1080.841
1125.99
1125.02
1123.993
1122.902
1121.743
1120.322
1118.637
1116.9
1115.121
1113.284
1111.326
1109.18
1106.848
1104.766
1104.272
1102.716
1088.194
1126.905
1125.992
1125.025
1124
1122.911
1121.641
1120.192
1118.694
1117.166
1115.617
1114.053
1112.482
1110.966
1109.726
1109.453
1108.925
1105.155
1095.352
1127.767
1126.908
1125.997
1125.033
1124.012
1122.898
1121.684
1120.408
1119.076
1117.693
1116.26
1114.788
1113.306
1111.927
1111.078
1110.856
1109.126
1106.795
1101.316
1128.579
1127.77
1126.914
1126.007
1125.051
1124.048
1122.974
1121.836
1120.629
1119.348
1117.987
1116.541
1115.001
1113.36
1111.608
1110.493
1109.853
1109.049
1107.924
1105.45
1129.342
1128.582
1127.776
1126.924
1126.026
1125.077
1124.065
1122.993
1121.857
1120.652
1119.374
1118.017
1116.574
1115.037
1113.397
1112.118
1111.335
1110.623
1109.983
1109.334
1107.457
1130.058
1129.345
1128.588
1127.787
1126.942
1126.047
1125.093
1124.082
1123.012
1121.878
1120.676
1119.4
1118.046
1116.604
1115.067
1113.813
1112.97
1112.218
1111.592
1111.124
1110.126
1108.147
1130.73
1130.061
1129.351
1128.598
1127.803
1126.96
1126.06
1125.108
1124.099
1123.031
1121.899
1120.699
1119.425
1118.072
1116.631
1115.429
1114.576
1113.798
1113.132
1112.625
1111.733
1110.231
1108.551
1131.358
1130.732
1130.067
1129.36
1128.613
1127.819
1126.972
1126.074
1125.123
1124.116
1123.05
1121.92
1120.722
1119.449
1118.097
1116.954
1116.114
1115.33
1114.635
1114.071
1113.173
1111.779
1110.322
1108.776
1111.114
1109.159
1107.099
1104.963
1102.808
1100.837
1112.954
1111.121
1109.172
1107.115
1104.966
1102.762
1100.708
1114.672
1112.959
1111.133
1109.192
1107.139
1104.972
1102.721
1100.539
1116.275
1114.676
1112.97
1111.151
1109.219
1107.166
1104.971
1102.666
1100.321
1117.774
1116.278
1114.684
1112.983
1111.172
1109.257
1107.184
1104.964
1102.593
1100.053
1119.177
1117.776
1116.284
1114.692
1112.99
1111.068
1108.712
1105.62
1100.88
1092.55
1066.492
1120.494
1119.179
1117.781
1116.289
1114.694
1112.751
1110.201
1106.719
1101.162
1091.065
1072.148
1023.635
1121.73
1120.495
1119.182
1117.784
1116.288
1114.4
1111.928
1108.781
1104.103
1096.228
1082.156
1057.917
1004.911
1122.892
1121.731
1120.497
1119.185
1117.783
1115.978
1113.66
1110.94
1107.357
1101.914
1093.019
1078.428
1056.441
1013.253
1123.987
1122.894
1121.733
1120.5
1119.184
1117.479
1115.332
1112.976
1110.216
1106.596
1101.305
1093.399
1082.158
1068.703
1047.412
1125.018
1123.988
1122.896
1121.736
1120.501
1118.908
1116.938
1114.869
1112.654
1110.127
1106.981
1102.805
1097.492
1091.765
1089.306
1079.21
1125.989
1125.019
1123.991
1122.9
1121.739
1120.27
1118.489
1116.658
1114.793
1112.867
1110.794
1108.473
1105.888
1103.551
1103.117
1101.534
1085.411
1126.904
1125.991
1125.023
1123.996
1122.905
1121.569
1119.991
1118.378
1116.759
1115.152
1113.561
1111.988
1110.501
1109.347
1109.337
1108.797
1104.138
1092.054
1127.767
1126.907
1125.996
1125.03
1124.004
1122.809
1121.447
1120.044
1118.621
1117.2
1115.798
1114.446
1113.209
1112.269
1112.08
1111.76
1109.598
1106.339
1098.366
1128.578
1127.769
1126.912
1126.004
1125.041
1123.992
1122.849
1121.649
1120.399
1119.104
1117.77
1116.408
1115.048
1113.786
1112.991
1112.797
1111.425
1109.952
1107.96
1103.554
1129.341
1128.581
1127.775
1126.921
1126.02
1125.075
1124.064
1122.992
1121.856
1120.651
1119.374
1118.018
1116.577
1115.044
1113.412
1112.357
1111.745
1111.047
1110.277
1109.285
1106.405
1130.058
1129.344
1128.587
1127.785
1126.938
1126.045
1125.091
1124.081
1123.011
1121.877
1120.676
1119.401
1118.048
1116.61
1115.077
1113.867
1113.096
1112.386
1111.762
1111.239
1110.083
1107.551
1130.729
1130.061
1129.35
1128.597
1127.801
1126.958
1126.059
1125.107
1124.099
1123.031
1121.899
1120.7
1119.427
1118.075
1116.636
1115.449
1114.624
1113.868
1113.215
1112.707
1111.789
1110.207
1108.239
1131.358
1130.732
1130.066
1129.36
1128.612
1127.818
1126.971
1126.074
1125.123
1124.116
1123.05
1121.92
1120.722
1119.451
1118.099
1116.962
1116.131
1115.357
1114.669
1114.109
1113.208
1111.804
1110.312
1108.643
1131.944
1131.36
1130.738
1130.076
1129.374
1128.627
1127.83
1126.985
1126.089
1125.139
1124.134
1123.07
1121.941
1120.745
1119.474
1118.392
1117.578
1116.804
1116.098
1115.494
1114.582
1113.235
1111.85
1110.403
1108.868
1112.954
1111.122
1109.174
1107.117
1104.969
1102.768
1100.738
1114.672
1112.961
1111.136
1109.196
1107.144
1104.979
1102.737
1100.612
1116.276
1114.678
1112.973
1111.157
1109.228
1107.173
1104.983
1102.698
1100.45
1117.775
1116.28
1114.687
1112.99
1111.185
1109.263
1107.192
1104.984
1102.646
1100.246
1119.179
1117.778
1116.288
1114.7
1113.011
1111.225
1109.289
1107.211
1104.978
1102.582
1100.007
1120.495
1119.181
1117.784
1116.296
1114.707
1112.94
1110.889
1108.439
1105.213
1100.392
1092.425
1067.529
1121.731
1120.496
1119.185
1117.788
1116.297
1114.518
1112.335
1109.696
1106.085
1100.498
1091.044
1074.739
1031.292
1122.893
1121.732
1120.499
1119.187
1117.788
1116.046
1113.882
1111.391
1108.226
1103.635
1096.413
1084.733
1066.669
1025.309
1123.987
1122.894
1121.734
1120.501
1119.186
1117.51
1115.426
1113.151
1110.513
1107.114
1102.24
1095.058
1084.856
1072.355
1050.51
1125.018
1123.988
1122.896
1121.736
1120.501
1118.908
1116.938
1114.869
1112.654
1110.127
1106.981
1102.805
1097.492
1091.765
1089.306
1079.21
1125.989
1125.019
1123.991
1122.899
1121.737
1120.244
1118.413
1116.534
1114.623
1112.646
1110.505
1108.077
1105.337
1102.84
1102.433
1100.86
1084.006
1126.904
1125.991
1125.022
1123.994
1122.901
1121.521
1119.854
1118.158
1116.474
1114.819
1113.196
1111.597
1110.082
1108.915
1109.03
1108.51
1103.209
1089.731
1127.766
1126.906
1125.994
1125.027
1123.999
1122.741
1121.259
1119.75
1118.251
1116.794
1115.407
1114.129
1113.031
1112.304
1112.39
1112.085
1109.576
1105.562
1095.735
1128.577
1127.768
1126.91
1126
1125.034
1123.908
1122.626
1121.308
1119.976
1118.654
1117.366
1116.148
1115.066
1114.268
1114.098
1113.809
1112.236
1110.351
1107.584
1101.312
1129.34
1128.58
1127.773
1126.918
1126.011
1125.023
1123.946
1122.816
1121.64
1120.424
1119.175
1117.904
1116.639
1115.466
1114.706
1114.496
1113.288
1112.115
1110.859
1109.196
1104.759
1130.057
1129.343
1128.585
1127.782
1126.933
1126.043
1125.09
1124.08
1123.01
1121.876
1120.675
1119.402
1118.05
1116.615
1115.091
1114.087
1113.483
1112.815
1112.137
1111.459
1110.008
1106.508
1130.729
1130.06
1129.349
1128.595
1127.798
1126.957
1126.058
1125.106
1124.098
1123.03
1121.899
1120.7
1119.429
1118.08
1116.645
1115.5
1114.741
1114.031
1113.394
1112.868
1111.893
1110.163
1107.645
1131.357
1130.732
1130.066
1129.358
1128.611
1127.817
1126.971
1126.073
1125.123
1124.116
1123.05
1121.921
1120.724
1119.454
1118.104
1116.981
1116.176
1115.423
1114.751
1114.197
1113.289
1111.86
1110.289
1108.331
1131.944
1131.36
1130.737
1130.075
1129.373
1128.627
1127.83
1126.984
1126.088
1125.139
1124.134
1123.07
1121.942
1120.746
1119.476
1118.399
1117.594
1116.829
1116.13
1115.531
1114.621
1113.27
1111.875
1110.393
1108.735
1132.49
1131.946
1131.365
1130.746
1130.089
1129.388
1128.638
1127.842
1126.998
1126.104
1125.156
1124.153
1123.09
1121.963
1120.767
1119.743
1118.957
1118.198
1117.49
1116.86
1115.944
1114.637
1113.297
1111.922
1110.484
1108.954
1114.673
1112.961
1111.137
1109.198
1107.147
1104.983
1102.746
1100.648
1116.277
1114.679
1112.975
1111.161
1109.233
1107.178
1104.991
1102.718
1100.532
1117.777
1116.282
1114.69
1112.995
1111.193
1109.269
1107.199
1104.998
1102.684
1100.384
1119.18
1117.78
1116.291
1114.706
1113.023
1111.23
1109.294
1107.221
1105.002
1102.641
1100.204
1120.496
1119.183
1117.787
1116.303
1114.726
1113.06
1111.257
1109.321
1107.241
1105.002
1102.594
1100
1121.732
1120.498
1119.187
1117.794
1116.309
1114.671
1112.824