/*--------------------------------*- C++ -*----------------------------------*\
| =========                 |                                                 |
| \\      /  F ield         | OpenFOAM: The Open Source CFD Toolbox           |
|  \\    /   O peration     | Version:  2306                                  |
|   \\  /    A nd           | Website:  www.openfoam.com                      |
|    \\/     M anipulation  |                                                 |
\*---------------------------------------------------------------------------*/
FoamFile
{
    version     2.0;
    format      ascii;
    arch        "LSB;label=32;scalar=64";
    class       volScalarField;
    location    "1.5/electrolyte";
    object      T;
}
// * * * * * * * * * * * * * * * * * * * * * * * * * * * * * * * * * * * * * //

dimensions      [0 0 0 1 0 0 0];

internalField   nonuniform List<scalar> 
4000
(
1169.51
1169.354
1171.374
1169.519
1168.992
1171.363
1169.363
1173.08
1171.379
1169.528
1168.318
1171.336
1169.001
1173.109
1171.368
1169.372
1174.668
1173.081
1171.384
1169.537
1167.182
1171.28
1168.33
1173.173
1171.34
1169.011
1174.709
1173.11
1171.372
1169.381
1176.187
1174.666
1173.082
1171.389
1169.545
1165.506
1171.176
1167.2
1173.286
1171.283
1168.341
1174.8
1173.173
1171.343
1169.02
1176.231
1174.706
1173.11
1171.377
1169.39
1177.653
1176.182
1174.663
1173.083
1171.393
1163.593
1170.992
1165.538
1173.461
1171.176
1167.217
1174.963
1173.284
1171.285
1168.353
1176.328
1174.797
1173.173
1171.347
1169.03
1177.696
1176.225
1174.704
1173.111
1171.381
1179.07
1177.646
1176.177
1174.661
1173.083
1161.841
1170.688
1163.645
1173.682
1170.987
1165.57
1175.222
1173.455
1171.175
1167.236
1176.503
1174.958
1173.282
1171.287
1168.366
1177.792
1176.322
1174.794
1173.173
1171.35
1179.111
1177.689
1176.22
1174.701
1173.111
1180.436
1179.061
1177.639
1176.172
1174.658
1160.538
1170.33
1161.912
1173.847
1170.683
1163.696
1175.569
1173.669
1170.982
1165.602
1176.782
1175.213
1173.448
1171.174
1167.255
1177.964
1176.495
1174.953
1173.279
1171.289
1179.203
1177.784
1176.316
1174.79
1173.172
1180.475
1179.101
1177.681
1176.214
1174.697
1181.752
1180.425
1179.051
1177.631
1176.166
1159.851
1170.02
1160.623
1173.929
1170.328
1161.981
1175.885
1173.829
1170.677
1163.747
1177.159
1175.552
1173.655
1170.977
1165.633
1178.24
1176.77
1175.203
1173.441
1171.173
1179.367
1177.955
1176.487
1174.947
1173.276
1180.562
1179.193
1177.776
1176.31
1174.785
1181.788
1180.464
1179.092
1177.673
1176.208
1183.016
1181.74
1180.415
1179.042
1177.623
1159.851
1169.842
1159.943
1173.955
1170.021
1160.706
1176.117
1173.91
1170.325
1162.05
1177.519
1175.863
1173.811
1170.672
1163.796
1178.615
1177.141
1175.535
1173.642
1170.972
1179.631
1178.226
1176.758
1175.193
1173.434
1180.718
1179.356
1177.944
1176.479
1174.94
1181.871
1180.551
1179.183
1177.767
1176.303
1183.051
1181.777
1180.453
1179.082
1177.665
1184.228
1183.003
1181.728
1180.404
1179.032
1160.538
1169.842
1159.943
1173.958
1169.846
1160.033
1176.26
1173.936
1170.022
1160.788
1177.797
1176.091
1173.89
1170.322
1162.117
1178.977
1177.495
1175.84
1173.792
1170.666
1179.991
1178.595
1177.122
1175.518
1173.628
1180.968
1179.617
1178.213
1176.746
1175.182
1182.019
1180.706
1179.344
1177.934
1176.47
1183.129
1181.859
1180.539
1179.172
1177.758
1184.261
1183.038
1181.765
1180.442
1179.072
1185.389
1184.215
1182.991
1181.716
1180.393
1161.841
1170.02
1160.623
1173.958
1169.846
1160.033
1176.328
1173.938
1169.849
1160.121
1177.98
1176.234
1173.915
1170.022
1160.867
1179.263
1177.77
1176.066
1173.87
1170.319
1180.341
1178.953
1177.471
1175.817
1173.774
1181.31
1179.971
1178.576
1177.104
1175.5
1182.256
1180.953
1179.602
1178.199
1176.733
1183.269
1182.006
1180.693
1179.333
1177.923
1184.336
1183.116
1181.846
1180.528
1179.161
1185.42
1184.248
1183.025
1181.752
1180.431
1186.498
1185.375
1184.202
1182.978
1181.704
1163.593
1170.33
1161.912
1173.955
1170.021
1160.706
1176.328
1173.938
1169.849
1160.121
1178.069
1176.3
1173.919
1169.851
1160.208
1179.454
1177.951
1176.207
1173.895
1170.022
1180.62
1179.236
1177.743
1176.04
1173.85
1181.643
1180.317
1178.929
1177.447
1175.795
1182.578
1181.29
1179.951
1178.556
1177.085
1183.493
1182.24
1180.938
1179.587
1178.185
1184.469
1183.255
1181.992
1180.68
1179.32
1185.491
1184.322
1183.103
1181.834
1180.516
1186.528
1185.407
1184.235
1183.012
1181.74
1187.556
1186.484
1185.362
1184.189
1182.965
1165.506
1170.688
1163.645
1173.929
1170.328
1161.981
1176.26
1173.936
1170.022
1160.788
1178.069
1176.3
1173.919
1169.851
1160.208
1179.549
1178.04
1176.273
1173.899
1169.853
1180.808
1179.426
1177.922
1176.18
1173.875
1181.911
1180.594
1179.209
1177.716
1176.015
1182.895
1181.62
1180.293
1178.904
1177.423
1183.799
1182.559
1181.27
1179.931
1178.537
1184.682
1183.477
1182.224
1180.922
1179.572
1185.618
1184.455
1183.241
1181.978
1180.667
1186.596
1185.477
1184.308
1183.089
1181.821
1187.585
1186.514
1185.393
1184.221
1182.999
1188.564
1187.542
1186.47
1185.348
1184.175
1167.182
1170.992
1165.538
1173.847
1170.683
1163.696
1176.117
1173.91
1170.325
1162.05
1177.98
1176.234
1173.915
1170.022
1160.867
1179.549
1178.04
1176.273
1173.899
1169.853
1180.902
1179.52
1178.01
1176.246
1173.878
1182.091
1180.78
1179.397
1177.894
1176.153
1183.149
1181.885
1180.567
1179.182
1177.689
1184.1
1182.872
1181.596
1180.269
1178.88
1184.973
1183.78
1182.539
1181.25
1179.911
1185.821
1184.666
1183.461
1182.208
1180.906
1186.717
1185.604
1184.44
1183.227
1181.964
1187.65
1186.582
1185.463
1184.294
1183.076
1188.592
1187.571
1186.5
1185.379
1184.207
1189.524
1188.551
1187.528
1186.456
1185.334
1168.318
1171.176
1167.2
1173.682
1170.987
1165.57
1175.885
1173.829
1170.677
1163.747
1177.797
1176.091
1173.89
1170.322
1162.117
1179.454
1177.951
1176.207
1173.895
1170.022
1180.902
1179.52
1178.01
1176.246
1173.878
1182.182
1180.873
1179.49
1177.981
1176.219
1183.322
1182.064
1180.752
1179.368
1177.865
1184.342
1183.124
1181.859
1180.54
1179.155
1185.258
1184.077
1182.849
1181.572
1180.245
1186.098
1184.953
1183.76
1182.519
1181.23
1186.911
1185.805
1184.649
1183.445
1182.191
1187.766
1186.702
1185.589
1184.425
1183.212
1188.655
1187.636
1186.567
1185.449
1184.28
1189.55
1188.578
1187.557
1186.486
1185.365
1190.435
1189.51
1188.537
1187.514
1186.442
1168.992
1171.28
1168.33
1173.461
1171.176
1167.217
1175.569
1173.669
1170.982
1165.602
1177.519
1175.863
1173.811
1170.672
1163.796
1179.263
1177.77
1176.066
1173.87
1170.319
1180.808
1179.426
1177.922
1176.18
1173.875
1182.182
1180.873
1179.49
1177.981
1176.219
1183.408
1182.154
1180.845
1179.461
1177.952
1184.506
1183.296
1182.037
1180.724
1179.34
1185.489
1184.318
1183.099
1181.833
1180.514
1186.371
1185.236
1184.055
1182.826
1181.549
1187.176
1186.079
1184.933
1183.74
1182.499
1187.952
1186.895
1185.788
1184.633
1183.428
1188.766
1187.752
1186.687
1185.574
1184.41
1189.611
1188.64
1187.621
1186.553
1185.434
1190.461
1189.536
1188.564
1187.543
1186.472
1191.299
1190.421
1189.496
1188.522
1187.5
1169.354
1171.336
1169.001
1173.286
1171.283
1168.341
1175.222
1173.455
1171.175
1167.236
1177.159
1175.552
1173.655
1170.977
1165.633
1178.977
1177.495
1175.84
1173.792
1170.666
1180.62
1179.236
1177.743
1176.04
1173.85
1182.091
1180.78
1179.397
1177.894
1176.153
1183.408
1182.154
1180.845
1179.461
1177.952
1184.589
1183.382
1182.126
1180.816
1179.432
1185.646
1184.481
1183.27
1182.01
1180.696
1186.591
1185.466
1184.293
1183.074
1181.807
1187.436
1186.349
1185.214
1184.032
1182.802
1188.206
1187.157
1186.059
1184.914
1183.72
1188.945
1187.936
1186.878
1185.772
1184.616
1189.718
1188.752
1187.736
1186.672
1185.558
1190.519
1189.596
1188.626
1187.607
1186.538
1191.324
1190.447
1189.522
1188.55
1187.528
1192.117
1191.285
1190.407
1189.482
1188.508
1169.51
1171.363
1169.363
1173.173
1171.34
1169.011
1174.963
1173.284
1171.285
1168.353
1176.782
1175.213
1173.448
1171.174
1167.255
1178.615
1177.141
1175.535
1173.642
1170.972
1180.341
1178.953
1177.471
1175.817
1173.774
1181.911
1180.594
1179.209
1177.716
1176.015
1183.322
1182.064
1180.752
1179.368
1177.865
1184.589
1183.382
1182.126
1180.816
1179.432
1185.725
1184.563
1183.355
1182.099
1180.788
1186.741
1185.622
1184.456
1183.243
1181.983
1187.648
1186.568
1185.442
1184.269
1183.049
1188.456
1187.416
1186.328
1185.192
1184.009
1189.188
1188.187
1187.138
1186.04
1184.894
1189.89
1188.929
1187.92
1186.862
1185.755
1190.622
1189.703
1188.737
1187.721
1186.657
1191.38
1190.504
1189.582
1188.611
1187.592
1192.141
1191.31
1190.433
1189.508
1188.535
1192.89
1192.103
1191.271
1190.393
1189.467
1171.374
1169.519
1173.109
1171.368
1169.372
1174.8
1173.173
1171.343
1169.02
1176.503
1174.958
1173.282
1171.287
1168.366
1178.24
1176.77
1175.203
1173.441
1171.173
1179.991
1178.595
1177.122
1175.518
1173.628
1181.643
1180.317
1178.929
1177.447
1175.795
1183.149
1181.885
1180.567
1179.182
1177.689
1184.506
1183.296
1182.037
1180.724
1179.34
1185.725
1184.563
1183.355
1182.099
1180.788
1186.817
1185.7
1184.537
1183.328
1182.071
1187.792
1186.718
1185.597
1184.431
1183.217
1188.659
1187.625
1186.545
1185.418
1184.245
1189.429
1188.435
1187.395
1186.306
1185.17
1190.124
1189.17
1188.168
1187.119
1186.021
1190.788
1189.874
1188.913
1187.903
1186.845
1191.48
1190.608
1189.688
1188.721
1187.706
1192.195
1191.366
1190.49
1189.567
1188.597
1192.913
1192.127
1191.296
1190.418
1189.494
1193.618
1192.876
1192.09
1191.257
1190.379
1173.08
1171.379
1169.528
1174.709
1173.11
1171.372
1169.381
1176.328
1174.797
1173.173
1171.347
1169.03
1177.964
1176.495
1174.953
1173.279
1171.289
1179.631
1178.226
1176.758
1175.193
1173.434
1181.31
1179.971
1178.576
1177.104
1175.5
1182.895
1181.62
1180.293
1178.904
1177.423
1184.342
1183.124
1181.859
1180.54
1179.155
1185.646
1184.481
1183.27
1182.01
1180.696
1186.817
1185.7
1184.537
1183.328
1182.071
1187.864
1186.793
1185.675
1184.512
1183.302
1188.797
1187.769
1186.694
1185.573
1184.405
1189.624
1188.637
1187.603
1186.523
1185.395
1190.356
1189.409
1188.415
1187.374
1186.285
1191.014
1190.106
1189.152
1188.15
1187.1
1191.64
1190.772
1189.858
1188.896
1187.886
1192.292
1191.466
1190.593
1189.673
1188.706
1192.965
1192.181
1191.352
1190.476
1189.553
1193.641
1192.899
1192.113
1191.282
1190.404
1194.304
1193.605
1192.863
1192.076
1191.243
1174.668
1173.081
1171.384
1169.537
1176.231
1174.706
1173.11
1171.377
1169.39
1177.792
1176.322
1174.794
1173.173
1171.35
1179.367
1177.955
1176.487
1174.947
1173.276
1180.968
1179.617
1178.213
1176.746
1175.182
1182.578
1181.29
1179.951
1178.556
1177.085
1184.1
1182.872
1181.596
1180.269
1178.88
1185.489
1184.318
1183.099
1181.833
1180.514
1186.741
1185.622
1184.456
1183.243
1181.983
1187.864
1186.793
1185.675
1184.512
1183.302
1188.866
1187.841
1186.769
1185.651
1184.486
1189.757
1188.775
1187.746
1186.671
1185.549
1190.544
1189.603
1188.616
1187.581
1186.5
1191.238
1190.336
1189.389
1188.394
1187.353
1191.858
1190.996
1190.088
1189.133
1188.131
1192.447
1191.625
1190.757
1189.842
1188.88
1193.06
1192.278
1191.451
1190.578
1189.658
1193.692
1192.952
1192.167
1191.337
1190.461
1194.326
1193.628
1192.886
1192.1
1191.268
1194.947
1194.291
1193.592
1192.849
1192.062
1176.187
1174.666
1173.082
1171.389
1169.545
1177.696
1176.225
1174.704
1173.111
1171.381
1179.203
1177.784
1176.316
1174.79
1173.172
1180.718
1179.356
1177.944
1176.479
1174.94
1182.256
1180.953
1179.602
1178.199
1176.733
1183.799
1182.559
1181.27
1179.931
1178.537
1185.258
1184.077
1182.849
1181.572
1180.245
1186.591
1185.466
1184.293
1183.074
1181.807
1187.792
1186.718
1185.597
1184.431
1183.217
1188.866
1187.841
1186.769
1185.651
1184.486
1189.824
1188.844
1187.818
1186.745
1185.626
1190.673
1189.736
1188.753
1187.723
1186.647
1191.419
1190.524
1189.582
1188.594
1187.559
1192.075
1191.219
1190.317
1189.369
1188.374
1192.658
1191.841
1190.979
1190.07
1189.115
1193.21
1192.432
1191.609
1190.741
1189.826
1193.783
1193.046
1192.263
1191.436
1190.563
1194.375
1193.679
1192.938
1192.153
1191.323
1194.969
1194.313
1193.614
1192.872
1192.086
1195.549
1194.934
1194.278
1193.578
1192.835
1177.653
1176.182
1174.663
1173.083
1171.393
1179.111
1177.689
1176.22
1174.701
1173.111
1180.562
1179.193
1177.776
1176.31
1174.785
1182.019
1180.706
1179.344
1177.934
1176.47
1183.493
1182.24
1180.938
1179.587
1178.185
1184.973
1183.78
1182.539
1181.25
1179.911
1186.371
1185.236
1184.055
1182.826
1181.549
1187.648
1186.568
1185.442
1184.269
1183.049
1188.797
1187.769
1186.694
1185.573
1184.405
1189.824
1188.844
1187.818
1186.745
1185.626
1190.737
1189.803
1188.822
1187.795
1186.721
1191.544
1190.652
1189.714
1188.731
1187.7
1192.251
1191.4
1190.504
1189.561
1188.573
1192.868
1192.056
1191.2
1190.298
1189.349
1193.415
1192.642
1191.824
1190.961
1190.052
1193.929
1193.195
1192.417
1191.594
1190.725
1194.464
1193.769
1193.031
1192.249
1191.421
1195.017
1194.362
1193.665
1192.924
1192.139
1195.57
1194.956
1194.3
1193.601
1192.858
1196.111
1195.537
1194.922
1194.265
1193.565
1179.07
1177.646
1176.177
1174.661
1173.083
1180.475
1179.101
1177.681
1176.214
1174.697
1181.871
1180.551
1179.183
1177.767
1176.303
1183.269
1182.006
1180.693
1179.333
1177.923
1184.682
1183.477
1182.224
1180.922
1179.572
1186.098
1184.953
1183.76
1182.519
1181.23
1187.436
1186.349
1185.214
1184.032
1182.802
1188.659
1187.625
1186.545
1185.418
1184.245
1189.757
1188.775
1187.746
1186.671
1185.549
1190.737
1189.803
1188.822
1187.795
1186.721
1191.607
1190.717
1189.781
1188.8
1187.772
1192.371
1191.524
1190.631
1189.693
1188.709
1193.039
1192.232
1191.38
1190.483
1189.541
1193.618
1192.85
1192.038
1191.181
1190.278
1194.128
1193.398
1192.625
1191.807
1190.944
1194.606
1193.915
1193.18
1192.401
1191.578
1195.103
1194.451
1193.756
1193.017
1192.234
1195.617
1195.004
1194.349
1193.651
1192.91
1196.131
1195.558
1194.943
1194.286
1193.587
1196.633
1196.098
1195.524
1194.909
1194.252
1180.436
1179.061
1177.639
1176.172
1174.658
1181.788
1180.464
1179.092
1177.673
1176.208
1183.129
1181.859
1180.539
1179.172
1177.758
1184.469
1183.255
1181.992
1180.68
1179.32
1185.821
1184.666
1183.461
1182.208
1180.906
1187.176
1186.079
1184.933
1183.74
1182.499
1188.456
1187.416
1186.328
1185.192
1184.009
1189.624
1188.637
1187.603
1186.523
1185.395
1190.673
1189.736
1188.753
1187.723
1186.647
1191.607
1190.717
1189.781
1188.8
1187.772
1192.432
1191.586
1190.696
1189.76
1188.777
1193.156
1192.352
1191.504
1190.611
1189.672
1193.784
1193.02
1192.213
1191.361
1190.463
1194.326
1193.601
1192.832
1192.02
1191.162
1194.8
1194.112
1193.382
1192.608
1191.79
1195.241
1194.592
1193.9
1193.165
1192.386
1195.701
1195.09
1194.437
1193.742
1193.003
1196.177
1195.604
1194.991
1194.336
1193.638
1196.652
1196.119
1195.545
1194.93
1194.273
1197.116
1196.621
1196.086
1195.511
1194.896
1181.752
1180.425
1179.051
1177.631
1176.166
1183.051
1181.777
1180.453
1179.082
1177.665
1184.336
1183.116
1181.846
1180.528
1179.161
1185.618
1184.455
1183.241
1181.978
1180.667
1186.911
1185.805
1184.649
1183.445
1182.191
1188.206
1187.157
1186.059
1184.914
1183.72
1189.429
1188.435
1187.395
1186.306
1185.17
1190.544
1189.603
1188.616
1187.581
1186.5
1191.544
1190.652
1189.714
1188.731
1187.7
1192.432
1191.586
1190.696
1189.76
1188.777
1193.215
1192.413
1191.566
1190.675
1189.738
1193.898
1193.137
1192.333
1191.484
1190.59
1194.487
1193.766
1193.002
1192.194
1191.341
1194.992
1194.309
1193.583
1192.815
1192.002
1195.43
1194.784
1194.096
1193.366
1192.592
1195.836
1195.228
1194.578
1193.885
1193.15
1196.259
1195.688
1195.077
1194.423
1193.727
1196.697
1196.165
1195.592
1194.978
1194.322
1197.135
1196.64
1196.106
1195.532
1194.917
1197.56
1197.104
1196.609
1196.074
1195.499
1183.016
1181.74
1180.415
1179.042
1177.623
1184.261
1183.038
1181.765
1180.442
1179.072
1185.491
1184.322
1183.103
1181.834
1180.516
1186.717
1185.604
1184.44
1183.227
1181.964
1187.952
1186.895
1185.788
1184.633
1183.428
1189.188
1188.187
1187.138
1186.04
1184.894
1190.356
1189.409
1188.415
1187.374
1186.285
1191.419
1190.524
1189.582
1188.594
1187.559
1192.371
1191.524
1190.631
1189.693
1188.709
1193.215
1192.413
1191.566
1190.675
1189.738
1193.955
1193.196
1192.393
1191.546
1190.654
1194.598
1193.879
1193.118
1192.313
1191.464
1195.149
1194.47
1193.748
1192.983
1192.175
1195.617
1194.976
1194.292
1193.566
1192.797
1196.02
1195.415
1194.769
1194.08
1193.349
1196.391
1195.822
1195.214
1194.563
1193.87
1196.778
1196.247
1195.675
1195.063
1194.409
1197.179
1196.685
1196.152
1195.579
1194.965
1197.579
1197.123
1196.628
1196.094
1195.519
1197.967
1197.549
1197.092
1196.596
1196.061
1184.228
1183.003
1181.728
1180.404
1179.032
1185.42
1184.248
1183.025
1181.752
1180.431
1186.596
1185.477
1184.308
1183.089
1181.821
1187.766
1186.702
1185.589
1184.425
1183.212
1188.945
1187.936
1186.878
1185.772
1184.616
1190.124
1189.17
1188.168
1187.119
1186.021
1191.238
1190.336
1189.389
1188.394
1187.353
1192.251
1191.4
1190.504
1189.561
1188.573
1193.156
1192.352
1191.504
1190.611
1189.672
1193.955
1193.196
1192.393
1191.546
1190.654
1194.654
1193.937
1193.177
1192.373
1191.526
1195.257
1194.58
1193.861
1193.099
1192.294
1195.771
1195.132
1194.452
1193.73
1192.965
1196.203
1195.601
1194.959
1194.275
1193.549
1196.57
1196.005
1195.4
1194.753
1194.064
1196.906
1196.377
1195.809
1195.199
1194.549
1197.257
1196.765
1196.234
1195.662
1195.05
1197.622
1197.167
1196.673
1196.139
1195.566
1197.986
1197.568
1197.111
1196.616
1196.081
1198.337
1197.956
1197.537
1197.08
1196.584
1185.389
1184.215
1182.991
1181.716
1180.393
1186.528
1185.407
1184.235
1183.012
1181.74
1187.65
1186.582
1185.463
1184.294
1183.076
1188.766
1187.752
1186.687
1185.574
1184.41
1189.89
1188.929
1187.92
1186.862
1185.755
1191.014
1190.106
1189.152
1188.15
1187.1
1192.075
1191.219
1190.317
1189.369
1188.374
1193.039
1192.232
1191.38
1190.483
1189.541
1193.898
1193.137
1192.333
1191.484
1190.59
1194.654
1193.937
1193.177
1192.373
1191.526
1195.311
1194.636
1193.918
1193.158
1192.354
1195.876
1195.24
1194.562
1193.843
1193.081
1196.352
1195.754
1195.115
1194.435
1193.712
1196.749
1196.187
1195.585
1194.943
1194.258
1197.081
1196.556
1195.99
1195.384
1194.737
1197.383
1196.893
1196.364
1195.795
1195.185
1197.699
1197.245
1196.753
1196.221
1195.649
1198.028
1197.611
1197.155
1196.661
1196.127
1198.356
1197.975
1197.556
1197.099
1196.604
1198.671
1198.326
1197.945
1197.525
1197.068
1186.498
1185.375
1184.202
1182.978
1181.704
1187.585
1186.514
1185.393
1184.221
1182.999
1188.655
1187.636
1186.567
1185.449
1184.28
1189.718
1188.752
1187.736
1186.672
1185.558
1190.788
1189.874
1188.913
1187.903
1186.845
1191.858
1190.996
1190.088
1189.133
1188.131
1192.868
1192.056
1191.2
1190.298
1189.349
1193.784
1193.02
1192.213
1191.361
1190.463
1194.598
1193.879
1193.118
1192.313
1191.464
1195.311
1194.636
1193.918
1193.158
1192.354
1195.929
1195.294
1194.618
1193.9
1193.139
1196.455
1195.859
1195.222
1194.545
1193.825
1196.895
1196.336
1195.738
1195.098
1194.417
1197.256
1196.734
1196.172
1195.569
1194.926
1197.555
1197.067
1196.541
1195.975
1195.369
1197.822
1197.37
1196.88
1196.35
1195.781
1198.104
1197.687
1197.233
1196.74
1196.208
1198.397
1198.017
1197.599
1197.143
1196.648
1198.689
1198.345
1197.963
1197.544
1197.087
1198.969
1198.66
1198.315
1197.933
1197.514
1187.556
1186.484
1185.362
1184.189
1182.965
1188.592
1187.571
1186.5
1185.379
1184.207
1189.611
1188.64
1187.621
1186.553
1185.434
1190.622
1189.703
1188.737
1187.721
1186.657
1191.64
1190.772
1189.858
1188.896
1187.886
1192.658
1191.841
1190.979
1190.07
1189.115
1193.618
1192.85
1192.038
1191.181
1190.278
1194.487
1193.766
1193.002
1192.194
1191.341
1195.257
1194.58
1193.861
1193.099
1192.294
1195.929
1195.294
1194.618
1193.9
1193.139
1196.507
1195.912
1195.277
1194.6
1193.881
1196.996
1196.439
1195.842
1195.205
1194.527
1197.4
1196.879
1196.32
1195.721
1195.081
1197.726
1197.242
1196.718
1196.156
1195.553
1197.99
1197.541
1197.053
1196.527
1195.961
1198.224
1197.81
1197.358
1196.867
1196.337
1198.471
1198.092
1197.675
1197.221
1196.727
1198.73
1198.386
1198.005
1197.587
1197.131
1198.987
1198.678
1198.333
1197.952
1197.532
1199.232
1198.959
1198.65
1198.304
1197.922
1188.564
1187.542
1186.47
1185.348
1184.175
1189.55
1188.578
1187.557
1186.486
1185.365
1190.519
1189.596
1188.626
1187.607
1186.538
1191.48
1190.608
1189.688
1188.721
1187.706
1192.447
1191.625
1190.757
1189.842
1188.88
1193.415
1192.642
1191.824
1190.961
1190.052
1194.326
1193.601
1192.832
1192.02
1191.162
1195.149
1194.47
1193.748
1192.983
1192.175
1195.876
1195.24
1194.562
1193.843
1193.081
1196.507
1195.912
1195.277
1194.6
1193.881
1197.047
1196.491
1195.895
1195.259
1194.582
1197.498
1196.98
1196.423
1195.826
1195.188
1197.866
1197.384
1196.864
1196.304
1195.705
1198.158
1197.711
1197.227
1196.703
1196.14
1198.389
1197.977
1197.527
1197.039
1196.512
1198.59
1198.212
1197.797
1197.345
1196.853
1198.803
1198.46
1198.08
1197.663
1197.208
1199.027
1198.719
1198.375
1197.993
1197.575
1199.249
1198.976
1198.667
1198.322
1197.94
1199.46
1199.221
1198.948
1198.639
1198.293
1189.524
1188.551
1187.528
1186.456
1185.334
1190.461
1189.536
1188.564
1187.543
1186.472
1191.38
1190.504
1189.582
1188.611
1187.592
1192.292
1191.466
1190.593
1189.673
1188.706
1193.21
1192.432
1191.609
1190.741
1189.826
1194.128
1193.398
1192.625
1191.807
1190.944
1194.992
1194.309
1193.583
1192.815
1192.002
1195.771
1195.132
1194.452
1193.73
1192.965
1196.455
1195.859
1195.222
1194.545
1193.825
1197.047
1196.491
1195.895
1195.259
1194.582
1197.548
1197.031
1196.474
1195.878
1195.242
1197.963
1197.483
1196.964
1196.406
1195.809
1198.296
1197.851
1197.369
1196.848
1196.288
1198.554
1198.144
1197.697
1197.212
1196.688
1198.751
1198.376
1197.964
1197.514
1197.025
1198.919
1198.578
1198.2
1197.785
1197.332
1199.098
1198.791
1198.448
1198.068
1197.651
1199.289
1199.016
1198.708
1198.363
1197.982
1199.477
1199.239
1198.965
1198.656
1198.311
1199.653
1199.449
1199.211
1198.937
1198.628
1190.435
1189.51
1188.537
1187.514
1186.442
1191.324
1190.447
1189.522
1188.55
1187.528
1192.195
1191.366
1190.49
1189.567
1188.597
1193.06
1192.278
1191.451
1190.578
1189.658
1193.929
1193.195
1192.417
1191.594
1190.725
1194.8
1194.112
1193.382
1192.608
1191.79
1195.617
1194.976
1194.292
1193.566
1192.797
1196.352
1195.754
1195.115
1194.435
1193.712
1196.996
1196.439
1195.842
1195.205
1194.527
1197.548
1197.031
1196.474
1195.878
1195.242
1198.012
1197.532
1197.015
1196.458
1195.862
1198.391
1197.948
1197.467
1196.948
1196.39
1198.689
1198.281
1197.837
1197.354
1196.833
1198.913
1198.54
1198.13
1197.683
1197.197
1199.078
1198.739
1198.363
1197.95
1197.5
1199.213
1198.907
1198.566
1198.187
1197.772
1199.359
1199.087
1198.78
1198.436
1198.056
1199.515
1199.278
1199.005
1198.697
1198.352
1199.67
1199.466
1199.228
1198.955
1198.645
1199.812
1199.643
1199.439
1199.2
1198.926
1191.299
1190.421
1189.496
1188.522
1187.5
1192.141
1191.31
1190.433
1189.508
1188.535
1192.965
1192.181
1191.352
1190.476
1189.553
1193.783
1193.046
1192.263
1191.436
1190.563
1194.606
1193.915
1193.18
1192.401
1191.578
1195.43
1194.784
1194.096
1193.366
1192.592
1196.203
1195.601
1194.959
1194.275
1193.549
1196.895
1196.336
1195.738
1195.098
1194.417
1197.498
1196.98
1196.423
1195.826
1195.188
1198.012
1197.532
1197.015
1196.458
1195.862
1198.439
1197.997
1197.517
1196.999
1196.442
1198.782
1198.376
1197.933
1197.452
1196.932
1199.046
1198.675
1198.267
1197.822
1197.339
1199.237
1198.9
1198.526
1198.116
1197.668
1199.369
1199.066
1198.726
1198.35
1197.937
1199.472
1199.201
1198.896
1198.554
1198.175
1199.585
1199.348
1199.076
1198.769
1198.425
1199.708
1199.505
1199.267
1198.994
1198.685
1199.829
1199.66
1199.456
1199.218
1198.944
1199.939
1199.803
1199.633
1199.429
1199.19
1192.117
1191.285
1190.407
1189.482
1188.508
1192.913
1192.127
1191.296
1190.418
1189.494
1193.692
1192.952
1192.167
1191.337
1190.461
1194.464
1193.769
1193.031
1192.249
1191.421
1195.241
1194.592
1193.9
1193.165
1192.386
1196.02
1195.415
1194.769
1194.08
1193.349
1196.749
1196.187
1195.585
1194.943
1194.258
1197.4
1196.879
1196.32
1195.721
1195.081
1197.963
1197.483
1196.964
1196.406
1195.809
1198.439
1197.997
1197.517
1196.999
1196.442
1198.829
1198.424
1197.981
1197.501
1196.983
1199.138
1198.768
1198.361
1197.918
1197.436
1199.368
1199.032
1198.661
1198.253
1197.807
1199.526
1199.224
1198.886
1198.513
1198.102
1199.626
1199.357
1199.053
1198.713
1198.337
1199.696
1199.46
1199.19
1198.884
1198.541
1199.777
1199.574
1199.337
1199.065
1198.757
1199.867
1199.698
1199.495
1199.257
1198.983
1199.955
1199.819
1199.65
1199.446
1199.207
1200.032
1199.929
1199.793
1199.623
1199.418
1192.89
1192.103
1191.271
1190.393
1189.467
1193.641
1192.899
1192.113
1191.282
1190.404
1194.375
1193.679
1192.938
1192.153
1191.323
1195.103
1194.451
1193.756
1193.017
1192.234
1195.836
1195.228
1194.578
1193.885
1193.15
1196.57
1196.005
1195.4
1194.753
1194.064
1197.256
1196.734
1196.172
1195.569
1194.926
1197.866
1197.384
1196.864
1196.304
1195.705
1198.391
1197.948
1197.467
1196.948
1196.39
1198.829
1198.424
1197.981
1197.501
1196.983
1199.184
1198.815
1198.409
1197.966
1197.486
1199.458
1199.124
1198.754
1198.347
1197.903
1199.655
1199.355
1199.019
1198.647
1198.238
1199.78
1199.513
1199.211
1198.873
1198.499
1199.848
1199.614
1199.345
1199.04
1198.7
1199.886
1199.685
1199.449
1199.178
1198.872
1199.934
1199.766
1199.564
1199.326
1199.054
1199.992
1199.857
1199.688
1199.484
1199.246
1200.048
1199.945
1199.809
1199.64
1199.435
1200.093
1200.022
1199.919
1199.783
1199.613
1193.618
1192.876
1192.09
1191.257
1190.379
1194.326
1193.628
1192.886
1192.1
1191.268
1195.017
1194.362
1193.665
1192.924
1192.139
1195.701
1195.09
1194.437
1193.742
1193.003
1196.391
1195.822
1195.214
1194.563
1193.87
1197.081
1196.556
1195.99
1195.384
1194.737
1197.726
1197.242
1196.718
1196.156
1195.553
1198.296
1197.851
1197.369
1196.848
1196.288
1198.782
1198.376
1197.933
1197.452
1196.932
1199.184
1198.815
1198.409
1197.966
1197.486
1199.504
1199.17
1198.801
1198.395
1197.951
1199.744
1199.445
1199.11
1198.739
1198.332
1199.907
1199.642
1199.341
1199.005
1198.633
1200
1199.768
1199.5
1199.198
1198.86
1200.036
1199.836
1199.602
1199.333
1199.028
1200.043
1199.875
1199.674
1199.438
1199.167
1200.059
1199.924
1199.756
1199.553
1199.315
1200.085
1199.983
1199.847
1199.677
1199.474
1200.109
1200.038
1199.936
1199.799
1199.629
1200.122
1200.083
1200.013
1199.909
1199.773
1194.304
1193.605
1192.863
1192.076
1191.243
1194.969
1194.313
1193.614
1192.872
1192.086
1195.617
1195.004
1194.349
1193.651
1192.91
1196.259
1195.688
1195.077
1194.423
1193.727
1196.906
1196.377
1195.809
1195.199
1194.549
1197.555
1197.067
1196.541
1195.975
1195.369
1198.158
1197.711
1197.227
1196.703
1196.14
1198.689
1198.281
1197.837
1197.354
1196.833
1199.138
1198.768
1198.361
1197.918
1197.436
1199.504
1199.17
1198.801
1198.395
1197.951
1199.789
1199.49
1199.156
1198.786
1198.38
1199.995
1199.731
1199.431
1199.096
1198.725
1200.126
1199.894
1199.629
1199.328
1198.991
1200.187
1199.988
1199.755
1199.488
1199.185
1200.191
1200.025
1199.824
1199.59
1199.32
1200.166
1200.032
1199.865
1199.663
1199.426
1200.151
1200.049
1199.914
1199.745
1199.542
1200.145
1200.075
1199.973
1199.837
1199.667
1200.138
1200.099
1200.029
1199.926
1199.789
1200.113
1200.074
1200.003
1199.9
1194.947
1194.291
1193.592
1192.849
1192.062
1195.57
1194.956
1194.3
1193.601
1192.858
1196.177
1195.604
1194.991
1194.336
1193.638
1196.778
1196.247
1195.675
1195.063
1194.409
1197.383
1196.893
1196.364
1195.795
1195.185
1197.99
1197.541
1197.053
1196.527
1195.961
1198.554
1198.144
1197.697
1197.212
1196.688
1199.046
1198.675
1198.267
1197.822
1197.339
1199.458
1199.124
1198.754
1198.347
1197.903
1199.789
1199.49
1199.156
1198.786
1198.38
1200.04
1199.776
1199.477
1199.142
1198.772
1200.213
1199.982
1199.717
1199.418
1199.082
1200.311
1200.113
1199.882
1199.615
1199.314
1200.34
1200.175
1199.976
1199.743
1199.475
1200.313
1200.18
1200.013
1199.813
1199.578
1200.257
1200.156
1200.022
1199.854
1199.652
1200.211
1200.141
1200.039
1199.904
1199.735
1200.174
1200.136
1200.066
1199.963
1199.827
1200.129
1200.09
1200.019
1199.916
1200.103
1200.064
1199.993
1195.549
1194.934
1194.278
1193.578
1192.835
1196.131
1195.558
1194.943
1194.286
1193.587
1196.697
1196.165
1195.592
1194.978
1194.322
1197.257
1196.765
1196.234
1195.662
1195.05
1197.822
1197.37
1196.88
1196.35
1195.781
1198.389
1197.977
1197.527
1197.039
1196.512
1198.913
1198.54
1198.13
1197.683
1197.197
1199.368
1199.032
1198.661
1198.253
1197.807
1199.744
1199.445
1199.11
1198.739
1198.332
1200.04
1199.776
1199.477
1199.142
1198.772
1200.257
1200.027
1199.762
1199.463
1199.128
1200.397
1200.2
1199.969
1199.704
1199.404
1200.463
1200.298
1200.101
1199.869
1199.602
1200.461
1200.328
1200.163
1199.963
1199.73
1200.403
1200.302
1200.168
1200.002
1199.801
1200.317
1200.247
1200.146
1200.011
1199.843
1200.24
1200.202
1200.131
1200.029
1199.893
1200.165
1200.126
1200.056
1199.953
1200.119
1200.08
1200.01
1200.094
1200.055
1196.111
1195.537
1194.922
1194.265
1193.565
1196.652
1196.119
1195.545
1194.93
1194.273
1197.179
1196.685
1196.152
1195.579
1194.965
1197.699
1197.245
1196.753
1196.221
1195.649
1198.224
1197.81
1197.358
1196.867
1196.337
1198.751
1198.376
1197.964
1197.514
1197.025
1199.237
1198.9
1198.526
1198.116
1197.668
1199.655
1199.355
1199.019
1198.647
1198.238
1199.995
1199.731
1199.431
1199.096
1198.725
1200.257
1200.027
1199.762
1199.463
1199.128
1200.44
1200.244
1200.014
1199.749
1199.449
1200.548
1200.384
1200.187
1199.956
1199.691
1200.582
1200.45
1200.286
1200.088
1199.856
1200.549
1200.449
1200.316
1200.151
1199.951
1200.461
1200.392
1200.291
1200.157
1199.99
1200.345
1200.307
1200.237
1200.135
1200
1200.231
1200.192
1200.122
1200.019
1200.156
1200.117
1200.046
1200.11
1200.071
1200.085
1196.633
1196.098
1195.524
1194.909
1194.252
1197.135
1196.64
1196.106
1195.532
1194.917
1197.622
1197.167
1196.673
1196.139
1195.566
1198.104
1197.687
1197.233
1196.74
1196.208
1198.59
1198.212
1197.797
1197.345
1196.853
1199.078
1198.739
1198.363
1197.95
1197.5
1199.526
1199.224
1198.886
1198.513
1198.102
1199.907
1199.642
1199.341
1199.005
1198.633
1200.213
1199.982
1199.717
1199.418
1199.082
1200.44
1200.244
1200.014