/*--------------------------------*- C++ -*----------------------------------*\
| =========                 |                                                 |
| \\      /  F ield         | OpenFOAM: The Open Source CFD Toolbox           |
|  \\    /   O peration     | Version:  2306                                  |
|   \\  /    A nd           | Website:  www.openfoam.com                      |
|    \\/     M anipulation  |                                                 |
\*---------------------------------------------------------------------------*/
FoamFile
{
    version     2.0;
    format      ascii;
    arch        "LSB;label=32;scalar=64";
    class       volScalarField;
    location    "0.9/fuel";
    object      diffSp.H2;
}
// * * * * * * * * * * * * * * * * * * * * * * * * * * * * * * * * * * * * * //

dimensions      [0 2 -1 0 0 0 0];

internalField   nonuniform List<scalar> 
16000
(
9.935584e-05
9.934415e-05
9.960105e-05
9.93683e-05
9.931497e-05
9.960404e-05
9.935682e-05
9.98197e-05
9.961117e-05
9.93945e-05
9.926028e-05
9.960873e-05
9.93281e-05
9.982637e-05
9.961423e-05
9.938343e-05
0.0001000163
9.982786e-05
9.963282e-05
9.942513e-05
9.915907e-05
9.961563e-05
9.927424e-05
9.983966e-05
9.961904e-05
9.93556e-05
0.0001000238
9.983455e-05
9.963607e-05
9.941453e-05
0.0001001985
0.000100023
9.984575e-05
9.965822e-05
9.948686e-05
9.901829e-05
9.961695e-05
9.91744e-05
9.986217e-05
9.96261e-05
9.930321e-05
0.0001000391
9.984788e-05
9.964125e-05
9.938771e-05
0.0001002058
0.0001000304
9.985255e-05
9.966169e-05
9.94772e-05
0.0001003704
0.0001002039
0.000100038
9.986684e-05
9.970967e-05
0.0001492524
9.883518e-05
9.961958e-05
9.903561e-05
9.989025e-05
9.962751e-05
9.920554e-05
0.0001000653
9.987036e-05
9.964883e-05
9.933699e-05
0.0001002211
0.0001000457
9.986607e-05
9.966732e-05
9.945233e-05
0.0001003774
0.0001002113
0.0001000455
9.987377e-05
9.971365e-05
0.0001492382
0.0001005339
0.0001003749
0.0001002167
0.0001000558
9.990985e-05
0.0001495828
0.000149263
9.866741e-05
9.959416e-05
9.885476e-05
9.993031e-05
9.963012e-05
9.90696e-05
0.0001001007
9.989825e-05
9.965078e-05
9.924175e-05
0.0001002475
0.0001000719
9.988878e-05
9.967553e-05
9.940473e-05
0.000100392
0.0001002265
0.0001000609
9.988754e-05
9.972028e-05
0.0001492018
0.0001005404
0.0001003819
0.0001002241
0.0001000634
9.991711e-05
0.0001495889
0.0001492491
0.0001006899
0.0001005376
0.0001003859
0.000100232
0.0001000924
0.00014988
0.0001495916
0.0001492774
9.854041e-05
9.956313e-05
9.8689e-05
9.995073e-05
9.96049e-05
9.889158e-05
0.0001001509
9.993787e-05
9.965387e-05
9.910887e-05
0.000100284
0.000100107
9.991678e-05
9.967816e-05
9.931377e-05
0.0001004173
0.0001002528
0.0001000872
9.991054e-05
9.972993e-05
0.0001491318
0.0001005542
0.0001003965
0.0001002394
0.000100079
9.99315e-05
0.0001495991
0.0001492131
0.000100696
0.0001005441
0.0001003929
0.0001002394
0.0001001003
0.0001498909
0.0001495977
0.0001492638
0.000100839
0.000100693
0.0001005472
0.0001003992
0.0001002637
0.0001501515
0.0001498872
0.0001496035
0.0001492904
9.847331e-05
9.953404e-05
9.856345e-05
9.996252e-05
9.957426e-05
9.872819e-05
0.0001001861
9.995799e-05
9.962915e-05
9.893382e-05
0.0001003356
0.0001001567
9.99563e-05
9.968188e-05
9.918605e-05
0.0001004527
0.000100289
0.0001001223
9.993874e-05
9.973429e-05
0.0001489975
0.0001005781
0.0001004217
0.0001002658
0.0001001054
9.995535e-05
0.0001496138
0.0001491441
0.000100709
0.0001005579
0.0001004076
0.0001002549
0.0001001163
0.0001499125
0.0001496079
0.0001492284
0.0001008447
0.0001006991
0.0001005537
0.0001004062
0.0001002714
0.0001501632
0.0001498981
0.0001496096
0.000149277
0.0001009815
0.0001008415
0.0001007014
0.0001005588
0.000100427
0.0001504065
0.0001501574
0.000149897
0.0001496141
0.0001493052
9.847331e-05
9.951731e-05
9.84971e-05
9.996631e-05
9.954558e-05
9.860427e-05
0.0001002122
9.996969e-05
9.959909e-05
9.877286e-05
0.0001003748
0.0001001914
9.997633e-05
9.965776e-05
9.901538e-05
0.0001005027
0.0001003401
0.0001001716
9.997829e-05
9.973978e-05
0.0001488086
0.0001006117
0.0001004568
0.0001003019
0.0001001405
9.998445e-05
0.0001496206
0.0001490113
0.0001007314
0.0001005816
0.0001004328
0.0001002813
0.0001001433
0.0001499483
0.0001496226
0.0001491605
0.0001008569
0.000100712
0.0001005675
0.0001004209
0.0001002871
0.0001501872
0.0001499196
0.0001496199
0.0001492423
0.000100987
0.0001008473
0.0001007075
0.0001005654
0.0001004342
0.0001504179
0.0001501691
0.0001499079
0.0001496203
0.0001492921
0.0001011178
0.0001009837
0.000100849
0.0001007116
0.0001005835
0.0001506499
0.0001504114
0.0001501655
0.0001499057
0.0001496262
0.0003636481
9.854041e-05
9.951731e-05
9.84971e-05
9.996722e-05
9.952908e-05
9.853874e-05
0.0001002275
9.99735e-05
9.95709e-05
9.865061e-05
0.0001004054
0.0001002172
9.998805e-05
9.962832e-05
9.885772e-05
0.0001005421
0.0001003789
0.000100206
9.999828e-05
9.971699e-05
0.0001485557
0.0001006591
0.0001005063
0.0001003526
0.0001001897
0.0001000248
0.0001496288
0.0001488243
0.0001007632
0.000100615
0.0001004678
0.0001003173
0.0001001789
0.0001499917
0.0001496292
0.0001490294
0.000100878
0.0001007343
0.0001005912
0.0001004461
0.0001003139
0.0001502275
0.0001499551
0.0001496347
0.0001491754
0.0001009984
0.0001008594
0.0001007204
0.0001005792
0.0001004492
0.0001504415
0.0001501929
0.0001499293
0.0001496306
0.0001492581
0.0001011229
0.0001009891
0.0001008547
0.0001007178
0.0001005902
0.0001506607
0.0001504228
0.0001501772
0.0001499166
0.0001496325
0.0003636191
0.000101248
0.0001011196
0.0001009903
0.0001008581
0.0001007337
0.0001508833
0.0001506539
0.0001504182
0.0001501728
0.0001499157
0.0003644075
0.000363757
9.866741e-05
9.953404e-05
9.856345e-05
9.996722e-05
9.952908e-05
9.853874e-05
0.0001002347
9.997445e-05
9.955469e-05
9.858591e-05
0.0001004245
0.0001002324
9.999194e-05
9.960064e-05
9.873761e-05
0.0001005733
0.0001004091
0.0001002318
0.0001000101
9.96886e-05
0.000148322
0.0001006972
0.0001005453
0.000100391
0.0001002238
0.0001000452
0.0001495949
0.0001485738
0.0001008078
0.000100662
0.0001005169
0.0001003678
0.0001002284
0.0001500516
0.000149637
0.0001488446
0.000100908
0.0001007659
0.0001006245
0.0001004811
0.0001003502
0.0001502805
0.000149998
0.0001496412
0.000149046
0.0001010183
0.0001008804
0.0001007427
0.0001006029
0.0001004747
0.0001504815
0.000150233
0.0001499647
0.0001496455
0.0001491925
0.0001011337
0.0001010005
0.0001008669
0.0001007307
0.0001006042
0.000150683
0.0001504462
0.0001502009
0.000149938
0.000149643
0.0003635428
0.0001012528
0.0001011247
0.0001009957
0.0001008639
0.00010074
0.0001508934
0.0001506646
0.0001504295
0.0001501844
0.0001499266
0.000364423
0.0003637339
0.0001013723
0.0001012495
0.0001011255
0.0001009984
0.000100878
0.0001511076
0.0001508866
0.0001506597
0.0001504242
0.0001501811
0.0003650946
0.0003644898
0.0003639082
9.883518e-05
9.956313e-05
9.8689e-05
9.996631e-05
9.954558e-05
9.860427e-05
0.0001002347
9.997445e-05
9.955469e-05
9.858591e-05
0.0001004338
0.0001002396
9.999295e-05
9.958472e-05
9.867395e-05
0.0001005933
0.0001004281
0.0001002469
0.000100014
9.966166e-05
0.0001481438
0.0001007276
0.0001005762
0.000100421
0.0001002494
0.0001000573
0.0001495528
0.0001483425
0.0001008442
0.0001006997
0.0001005556
0.0001004059
0.0001002627
0.0001500818
0.000149603
0.0001485966
0.00010095
0.0001008101
0.0001006711
0.00010053
0.0001004009
0.0001503542
0.0001500571
0.0001496488
0.0001488631
0.0001010466
0.0001009102
0.0001007741
0.0001006361
0.0001005098
0.0001505356
0.0001502854
0.0001500071
0.0001496519
0.0001490648
0.0001011525
0.0001010203
0.0001008878
0.000100753
0.0001006282
0.0001507211
0.0001504859
0.0001502408
0.0001499731
0.000149658
0.0003633949
0.0001012631
0.0001011355
0.0001010071
0.000100876
0.0001007531
0.0001509143
0.0001506869
0.0001504529
0.000150208
0.0001499479
0.0003644487
0.0003636713
0.0001013769
0.0001012543
0.0001011306
0.0001010039
0.0001008839
0.000151117
0.0001508966
0.0001506703
0.0001504355
0.0001501927
0.0003651204
0.0003645051
0.0003638937
0.0001014909
0.0001013735
0.0001012548
0.0001011328
0.0001010165
0.0001513232
0.0001511104
0.0001508915
0.0001506647
0.0001504312
0.0003657262
0.0003651586
0.0003646028
0.0003640469
9.901829e-05
9.959416e-05
9.885476e-05
9.996252e-05
9.957426e-05
9.872819e-05
0.0001002275
9.99735e-05
9.95709e-05
9.865061e-05
0.0001004338
0.0001002396
9.999295e-05
9.958472e-05
9.867395e-05
0.0001006032
0.0001004374
0.000100254
0.0001000151
9.964612e-05
0.0001480494
0.0001007472
0.000100596
0.0001004399
0.0001002644
0.0001000615
0.0001495129
0.0001481661
0.0001008733
0.0001007298
0.0001005862
0.0001004357
0.0001002883
0.0001500998
0.0001495613
0.0001483677
0.0001009846
0.0001008461
0.0001007086
0.0001005683
0.000100439
0.0001504049
0.0001500866
0.0001496148
0.0001486174
0.0001010864
0.0001009519
0.0001008181
0.0001006825
0.0001005587
0.0001506108
0.0001503581
0.0001500655
0.0001496592
0.0001488841
0.0001011794
0.0001010485
0.0001009175
0.0001007843
0.0001006615
0.0001507734
0.0001505394
0.0001502926
0.0001500151
0.0001496644
0.0003631012
0.0001012809
0.0001011542
0.0001010268
0.0001008969
0.0001007755
0.0001509501
0.0001507247
0.0001504923
0.0001502476
0.000149983
0.0003644851
0.0003635481
0.0001013867
0.0001012645
0.0001011414
0.0001010153
0.0001008961
0.0001511366
0.0001509174
0.0001506924
0.0001504587
0.0001502162
0.000365171
0.0003645306
0.000363851
0.0001014953
0.0001013781
0.0001012596
0.0001011379
0.000101022
0.0001513319
0.0001511197
0.0001509014
0.0001506753
0.0001504424
0.0003657536
0.0003651827
0.0003646189
0.0003640426
0.000101604
0.0001014919
0.0001013783
0.0001012614
0.0001011493
0.0001515302
0.0001513255
0.0001511145
0.0001508957
0.0001506706
0.0003663232
0.0003657755
0.0003652468
0.0003647019
0.0003641898
9.915907e-05
9.961958e-05
9.903561e-05
9.995073e-05
9.96049e-05
9.889158e-05
0.0001002122
9.996969e-05
9.959909e-05
9.877286e-05
0.0001004245
0.0001002324
9.999194e-05
9.960064e-05
9.873761e-05
0.0001006032
0.0001004374
0.000100254
0.0001000151
9.964612e-05
0.0001480494
0.000100757
0.0001006058
0.0001004491
0.0001002716
0.0001000627
0.00014949
0.0001480727
0.0001008922
0.0001007493
0.0001006059
0.0001004545
0.0001003034
0.0001501062
0.0001495219
0.0001481932
0.0001010124
0.000100875
0.0001007385
0.0001005987
0.0001004687
0.000150443
0.0001501044
0.0001495735
0.0001483908
0.0001011193
0.0001009862
0.0001008539
0.0001007196
0.000100597
0.0001506673
0.0001504081
0.0001500945
0.0001496252
0.0001486407
0.0001012171
0.0001010879
0.0001009589
0.0001008281
0.0001007079
0.0001508462
0.0001506138
0.0001503645
0.0001500727
0.0001496716
0.0003626784
0.0001013066
0.0001011809
0.0001010549
0.0001009265
0.0001008069
0.0001509997
0.0001507764
0.0001505453
0.0001502989
0.0001500245
0.0003644984
0.0003632834
0.0001014037
0.0001012823
0.00010116
0.000101035
0.0001009172
0.0001511701
0.000150953
0.00015073
0.0001504979
0.0001502555
0.0003652531
0.0003645667
0.0003637639
0.0001015047
0.0001013879
0.0001012698
0.0001011487
0.0001010335
0.0001513503
0.0001511392
0.0001509221
0.0001506973
0.0001504655
0.000365809
0.0003652294
0.0003646462
0.0003640236
0.0001016082
0.0001014963
0.0001013829
0.0001012663
0.0001011545
0.0001515384
0.0001513342
0.0001511238
0.0001509056
0.0001506812
0.0003663497
0.0003658007
0.0003652693
0.000364719
0.0003641968
0.0001017117
0.0001016048
0.0001014962
0.0001013844
0.0001012765
0.0001517288
0.0001515321
0.000151329
0.0001511181
0.0001509007
0.000366896
0.0003663598
0.0003658446
0.0003653218
0.000364802
9.926028e-05
9.961695e-05
9.91744e-05
9.993031e-05
9.963012e-05
9.90696e-05
0.0001001861
9.995799e-05
9.962915e-05
9.893382e-05
0.0001004054
0.0001002172
9.998805e-05
9.962832e-05
9.885772e-05
0.0001005933
0.0001004281
0.0001002469
0.000100014
9.966166e-05
0.0001481438
0.000100757
0.0001006058
0.0001004491
0.0001002716
0.0001000627
0.00014949
0.0001480727
0.0001009017
0.0001007591
0.0001006157
0.0001004636
0.0001003105
0.000150108
0.0001494992
0.0001481007
0.0001010305
0.0001008939
0.0001007579
0.0001006183
0.0001004874
0.0001504654
0.0001501107
0.0001495345
0.0001482181
0.0001011458
0.0001010137
0.0001008825
0.0001007493
0.0001006273
0.0001507115
0.0001504457
0.000150112
0.0001495842
0.0001484164
0.0001012485
0.0001011206
0.000100993
0.0001008636
0.0001007448
0.0001509029
0.0001506696
0.0001504138
0.0001501011
0.0001496375
0.0003621093
0.0001013424
0.0001012183
0.0001010941
0.0001009678
0.0001008507
0.0001510687
0.0001508484
0.0001506189
0.00015037
0.0001500815
0.0003645099
0.0003628733
0.0001014281
0.0001013078
0.0001011867
0.000101063
0.0001009468
0.0001512169
0.0001510021
0.0001507813
0.0001505503
0.0001503063
0.0003653477
0.0003645758
0.0003635403
0.0001015209
0.0001014048
0.0001012875
0.0001011674
0.0001010534
0.0001513817
0.0001511724
0.0001509574
0.0001507346
0.0001505044
0.0003659007
0.0003653047
0.0003646867
0.000363982
0.0001016171
0.0001015056
0.0001013926
0.0001012765
0.0001011654
0.0001515557
0.0001513524
0.0001511431
0.0001509262
0.000150703
0.0003664039
0.0003658511
0.0003653126
0.0003647491
0.0003642048
0.0001017157
0.000101609
0.0001015006
0.000101389
0.0001012814
0.0001517365
0.0001515402
0.0001513376
0.0001511273
0.0001509105
0.0003669209
0.0003663841
0.0003658676
0.0003653427
0.0003648205
0.0001018141
0.0001017123
0.0001016087
0.0001015018
0.0001013983
0.0001519191
0.0001517303
0.000151535
0.0001513319
0.0001511223
0.000367448
0.000366922
0.0003664134
0.0003659019
0.0003653967
9.931497e-05
9.961563e-05
9.927424e-05
9.989025e-05
9.962751e-05
9.920554e-05
0.0001001509
9.993787e-05
9.965387e-05
9.910887e-05
0.0001003748
0.0001001914
9.997633e-05
9.965776e-05
9.901538e-05
0.0001005733
0.0001004091
0.0001002318
0.0001000101
9.96886e-05
0.000148322
0.0001007472
0.000100596
0.0001004399
0.0001002644
0.0001000615
0.0001495129
0.0001481661
0.0001009017
0.0001007591
0.0001006157
0.0001004636
0.0001003105
0.000150108
0.0001494992
0.0001481007
0.0001010396
0.0001009033
0.0001007675
0.000100628
0.0001004966
0.0001504761
0.0001501125
0.0001495121
0.0001481265
0.0001011632
0.0001010318
0.0001009013
0.0001007686
0.0001006468
0.0001507393
0.0001504679
0.0001501182
0.0001495457
0.0001482454
0.0001012738
0.0001011469
0.0001010204
0.0001008921
0.0001007744
0.000150948
0.0001507133
0.000150451
0.0001501183
0.0001495968
0.0003615875
0.0001013725
0.0001012495
0.0001011266
0.0001010016
0.000100886
0.0001511236
0.0001509045
0.000150674
0.0001504185
0.0001501094
0.0003644258
0.0003623176
0.0001014623
0.0001013433
0.0001012239
0.000101102
0.0001009881
0.000151282
0.0001510704
0.0001508526
0.0001506232
0.0001503768
0.0003654762
0.0003645781
0.0003631339
0.0001015443
0.0001014291
0.0001013129
0.0001011939
0.0001010814
0.0001514259
0.0001512188
0.0001510061
0.0001507854
0.0001505564
0.000366017
0.0003653872
0.0003646974
0.0003638181
0.0001016327
0.0001015217
0.0001014095
0.0001012942
0.0001011841
0.0001515853
0.0001513836
0.0001511762
0.0001509612
0.00015074
0.0003664945
0.0003659343
0.0003653832
0.0003647969
0.0003642203
0.0001017243
0.0001016179
0.0001015099
0.0001013987
0.0001012917
0.0001517528
0.0001515574
0.0001513558
0.0001511465
0.000150931
0.0003669722
0.0003664332
0.0003659129
0.0003653825
0.0003648542
0.000101818
0.0001017164
0.0001016129
0.0001015062
0.0001014029
0.0001519264
0.000151738
0.0001515432
0.0001513406
0.0001511315
0.0003674712
0.0003669447
0.0003664353
0.0003659224
0.000365416
0.0001019115
0.0001018146
0.0001017159
0.0001016138
0.0001015146
0.0001521012
0.0001519203
0.0001517329
0.0001515376
0.0001513356
0.0003679806
0.0003674649
0.0003669627
0.0003664565
0.0003659587
9.934415e-05
9.960873e-05
9.93281e-05
9.986217e-05
9.96261e-05
9.930321e-05
0.0001001007
9.989825e-05
9.965078e-05
9.924175e-05
0.0001003356
0.0001001567
9.99563e-05
9.968188e-05
9.918605e-05
0.0001005421
0.0001003789
0.000100206
9.999828e-05
9.971699e-05
0.0001485557
0.0001007276
0.0001005762
0.000100421
0.0001002494
0.0001000573
0.0001495528
0.0001483425
0.0001008922
0.0001007493
0.0001006059
0.0001004545
0.0001003034
0.0001501062
0.0001495219
0.0001481932
0.0001010396
0.0001009033
0.0001007675
0.000100628
0.0001004966
0.0001504761
0.0001501125
0.0001495121
0.0001481265
0.0001011718
0.0001010408
0.0001009106
0.0001007782
0.0001006565
0.000150753
0.0001504785
0.0001501201
0.0001495236
0.0001481547
0.0001012905
0.0001011641
0.0001010383
0.0001009107
0.0001007936
0.000150977
0.0001507408
0.000150473
0.0001501246
0.0001495587
0.0003611903
0.0001013967
0.0001012746
0.0001011527
0.0001010288
0.0001009144
0.0001511676
0.0001509492
0.0001507172
0.0001504553
0.0001501263
0.0003643299
0.0003618198
0.0001014912
0.0001013732
0.0001012549
0.0001011343
0.0001010218
0.0001513345
0.0001511248
0.000150908
0.0001506775
0.0001504246
0.0003655367
0.0003644833
0.0003625694
0.000101577
0.000101463
0.0001013483
0.000101231
0.0001011204
0.0001514873
0.0001512833
0.0001510738
0.000150856
0.0001506286
0.0003661776
0.0003655027
0.000364698
0.0003633777
0.0001016552
0.0001015451
0.0001014337
0.0001013195
0.0001012107
0.000151627
0.0001514274
0.0001512221
0.0001510094
0.0001507903
0.0003666138
0.0003660368
0.0003654564
0.0003648156
0.0003641581
0.0001017392
0.0001016334
0.000101526
0.0001014155
0.0001013095
0.0001517807
0.0001515868
0.0001513868
0.0001511793
0.0001509658
0.0003670585
0.0003665152
0.0003659885
0.0003654489
0.0003649134
0.0001018262
0.0001017249
0.0001016218
0.0001015155
0.0001014127
0.0001519418
0.0001517542
0.0001515602
0.0001513586
0.0001511506
0.0003675192
0.000366991
0.000366479
0.0003659623
0.0003654524
0.0001019152
0.0001018185
0.0001017199
0.000101618
0.000101519
0.0001521082
0.0001519276
0.0001517405
0.0001515456
0.0001513441
0.0003680022
0.000367486
0.000366983
0.0003664756
0.0003659766
0.0001020038
0.0001019119
0.0001018179
0.0001017206
0.0001016257
0.0001522754
0.0001521022
0.0001519225
0.000151735
0.0001515406
0.000368494
0.0003679898
0.0003674948
0.0003669939
0.0003664988
9.935584e-05
9.960404e-05
9.935682e-05
9.983966e-05
9.961904e-05
9.93556e-05
0.0001000653
9.987036e-05
9.964883e-05
9.933699e-05
0.000100284
0.000100107
9.991678e-05
9.967816e-05
9.931377e-05
0.0001005027
0.0001003401
0.0001001716
9.997829e-05
9.973978e-05
0.0001488086
0.0001006972
0.0001005453
0.000100391
0.0001002238
0.0001000452
0.0001495949
0.0001485738
0.0001008733
0.0001007298
0.0001005862
0.0001004357
0.0001002883
0.0001500998
0.0001495613
0.0001483677
0.0001010305
0.0001008939
0.0001007579
0.0001006183
0.0001004874
0.0001504654
0.0001501107
0.0001495345
0.0001482181
0.0001011718
0.0001010408
0.0001009106
0.0001007782
0.0001006565
0.000150753
0.0001504785
0.0001501201
0.0001495236
0.0001481547
0.0001012988
0.0001011728
0.0001010473
0.00010092
0.0001008032
0.0001509915
0.0001507544
0.0001504835
0.0001501265
0.0001495369
0.0003609798
0.0001014127
0.0001012912
0.0001011699
0.0001010467
0.000100933
0.0001511962
0.0001509779
0.0001507445
0.0001504771
0.0001501325
0.0003642418
0.0003614449
0.0001015144
0.0001013973
0.0001012799
0.0001011603
0.0001010489
0.0001513768
0.0001511684
0.0001509522
0.0001507203
0.0001504609
0.0003655746
0.0003643867
0.000362081
0.0001016048
0.0001014917
0.000101378
0.0001012618
0.0001011525
0.0001515374
0.0001513354
0.0001511276
0.0001509108
0.0001506822
0.0003662853
0.0003655471
0.0003645865
0.0003627836
0.0001016865
0.0001015775
0.0001014675
0.0001013547
0.0001012477
0.0001516851
0.0001514883
0.0001512861
0.0001510766
0.0001508604
0.0003667795
0.0003661846
0.0003655692
0.0003648052
0.0003636772
0.0001017608
0.0001016557
0.0001015492
0.0001014397
0.0001013348
0.0001518204
0.0001516282
0.0001514302
0.0001512249
0.0001510136
0.0003671743
0.0003666209
0.0003660787
0.0003655148
0.0003649538
0.0001018406
0.0001017397
0.0001016372
0.0001015315
0.0001014296
0.0001519683
0.0001517819
0.0001515894
0.0001513894
0.0001511832
0.0003676003
0.000367069
0.0003665525
0.0003660299
0.0003655159
0.0001019231
0.0001018267
0.0001017285
0.0001016269
0.0001015284
0.0001521228
0.0001519429
0.0001517566
0.0001515626
0.0001513621
0.0003680471
0.0003675293
0.000367024
0.0003665133
0.0003660109
0.0001020074
0.0001019156
0.0001018218
0.0001017246
0.0001016299
0.000152282
0.0001521091
0.0001519297
0.0001517426
0.0001515487
0.0003685142
0.0003680095
0.0003675136
0.0003670115
0.0003665151
0.0001020913
0.0001020041
0.0001019149
0.0001018222
0.0001017317
0.0001524417
0.0001522762
0.0001521041
0.0001519243
0.0001517376
0.0003689885
0.0003684969
0.0003680108
0.0003675162
0.0003670244
9.960105e-05
9.93683e-05
9.982637e-05
9.961423e-05
9.938343e-05
0.0001000391
9.984788e-05
9.964125e-05
9.938771e-05
0.0001002475
0.0001000719
9.988878e-05
9.967553e-05
9.940473e-05
0.0001004527
0.000100289
0.0001001223
9.993874e-05
9.973429e-05
0.0001489975
0.0001006591
0.0001005063
0.0001003526
0.0001001897
0.0001000248
0.0001496288
0.0001488243
0.0001008442
0.0001006997
0.0001005556
0.0001004059
0.0001002627
0.0001500818
0.000149603
0.0001485966
0.0001010124
0.000100875
0.0001007385
0.0001005987
0.0001004687
0.000150443
0.0001501044
0.0001495735
0.0001483908
0.0001011632
0.0001010318
0.0001009013
0.0001007686
0.0001006468
0.0001507393
0.0001504679
0.0001501182
0.0001495457
0.0001482454
0.0001012988
0.0001011728
0.0001010473
0.00010092
0.0001008032
0.0001509915
0.0001507544
0.0001504835
0.0001501265
0.0001495369
0.0003609798
0.0001014207
0.0001012995
0.0001011785
0.0001010556
0.0001009422
0.0001512105
0.0001509922
0.000150758
0.0001504875
0.0001501344
0.0003641917
0.0003612474
0.0001015298
0.0001014132
0.0001012963
0.0001011774
0.0001010666
0.0001514044
0.0001511968
0.0001509808
0.0001507474
0.0001504825
0.0003655889
0.0003643021
0.0003617206
0.0001016272
0.0001015149
0.000101402
0.0001012867
0.0001011784
0.0001515778
0.0001513772
0.0001511708
0.0001509546
0.0001507246
0.0003663683
0.0003655765
0.0003644844
0.0003622936
0.0001017133
0.0001016052
0.000101496
0.0001013843
0.0001012784
0.000151733
0.000151538
0.0001513377
0.0001511298
0.0001509145
0.0003669015
0.000366276
0.0003655958
0.0003646727
0.0003630161
0.000101791
0.0001016869
0.0001015816
0.0001014734
0.00010137
0.0001518755
0.0001516859
0.0001514907
0.0001512884
0.0001510802
0.0003673358
0.0003667755
0.0003662246
0.0003656237
0.0003649586
0.0009758614
0.0001018615
0.0001017613
0.0001016595
0.0001015547
0.0001014538
0.0001520061
0.0001518213
0.0001516305
0.0001514324
0.0001512284
0.0003677105
0.0003671723
0.0003666456
0.0003661078
0.0003655785
0.0001019369
0.000101841
0.0001017433
0.0001016423
0.0001015445
0.000152148
0.0001519692
0.0001517842
0.0001515916
0.0001513927
0.0003681231
0.0003676027
0.0003670935
0.0003665776
0.0003660706
0.0001020151
0.0001019235
0.00010183
0.0001017331
0.0001016389
0.000152296
0.0001521237
0.000151945
0.0001517586
0.0001515655
0.0003685562
0.00036805
0.0003675518
0.0003670465
0.0003665464
0.0001020947
0.0001020077
0.0001019186
0.0001018261
0.0001017357
0.000152448
0.0001522827
0.000152111
0.0001519315
0.0001517452
0.0003690074
0.0003685153
0.0003680283
0.0003675324
0.0003670391
0.000102174
0.0001020915
0.0001020069
0.0001019188
0.0001018326
0.0001526003
0.0001524423
0.0001522778
0.0001521056
0.0001519266
0.000369464
0.0003689861
0.0003685104
0.0003680239
0.0003675368
9.98197e-05
9.961117e-05
9.93945e-05
0.0001000238
9.983455e-05
9.963607e-05
9.941453e-05
0.0001002211
0.0001000457
9.986607e-05
9.966732e-05
9.945233e-05
0.0001004173
0.0001002528
0.0001000872
9.991054e-05
9.972993e-05
0.0001491318
0.0001006117
0.0001004568
0.0001003019
0.0001001405
9.998445e-05
0.0001496206
0.0001490113
0.0001008078
0.000100662
0.0001005169
0.0001003678
0.0001002284
0.0001500516
0.000149637
0.0001488446
0.0001009846
0.0001008461
0.0001007086
0.0001005683
0.000100439
0.0001504049
0.0001500866
0.0001496148
0.0001486174
0.0001011458
0.0001010137
0.0001008825
0.0001007493
0.0001006273
0.0001507115
0.0001504457
0.000150112
0.0001495842
0.0001484164
0.0001012905
0.0001011641
0.0001010383
0.0001009107
0.0001007936
0.000150977
0.0001507408
0.000150473
0.0001501246
0.0001495587
0.0003611903
0.0001014207
0.0001012995
0.0001011785
0.0001010556
0.0001009422
0.0001512105
0.0001509922
0.000150758
0.0001504875
0.0001501344
0.0003641917
0.0003612474
0.0001015375
0.0001014212
0.0001013046
0.0001011859
0.0001010755
0.0001514182
0.0001512109
0.000150995
0.0001507607
0.0001504928
0.0003655936
0.0003642551
0.0003615323
0.000101642
0.0001015302
0.0001014178
0.0001013031
0.0001011954
0.0001516043
0.0001514047
0.000151199
0.0001509828
0.0001507514
0.0003664183
0.0003655872
0.0003644004
0.0003619413
0.0001017349
0.0001016275
0.0001015191
0.0001014081
0.0001013032
0.0001517715
0.000151578
0.0001513792
0.0001511726
0.0001509579
0.000366999
0.0003663485
0.0003656148
0.0003645628
0.0003625038
0.0001018169
0.0001017136
0.0001016091
0.0001015017
0.0001013995
0.0001519213
0.0001517333
0.0001515399
0.0001513394
0.0001511329
0.0003674599
0.0003668826
0.0003662995
0.0003656322
0.0003647869
0.0009730538
0.0001018905
0.0001017913
0.0001016906
0.0001015869
0.0001014874
0.0001520586
0.0001518761
0.0001516878
0.0001514925
0.0001512914
0.000367865
0.0003673246
0.0003667995
0.0003662538
0.0003657154
0.0009797511
0.0009766953
0.0001019571
0.0001018618
0.0001017647
0.0001016645
0.0001015677
0.0001521841
0.0001520067
0.0001518232
0.0001516324
0.0001514353
0.0003682276
0.0003677016
0.0003671847
0.0003666571
0.0003661362
0.0001020284
0.0001019373
0.0001018442
0.0001017479
0.0001016543
0.00015232
0.0001521488
0.0001519712
0.000151786
0.0001515944
0.0003686277
0.0003681188
0.000367617
0.0003671066
0.0003666011
0.0001021022
0.0001020153
0.0001019265
0.0001018343
0.0001017443
0.0001524613
0.0001522966
0.0001521254
0.0001519466
0.0001517611
0.000369047
0.0003685532
0.0003680639
0.0003675647
0.0003670677
0.0001021773
0.0001020949
0.0001020104
0.0001019225
0.0001018364
0.0001526063
0.0001524486
0.0001522843
0.0001521124
0.0001519337
0.0003694818
0.0003690033
0.0003685266
0.0003680389
0.0003675502
0.0001022521
0.0001021741
0.000102094
0.0001020105
0.0001019285
0.0001527514
0.0001526008
0.0001524437
0.0001522791
0.0001521076
0.0003699206
0.0003694573
0.0003689933
0.0003685166
0.0003680363
0.0001000163
9.982786e-05
9.963282e-05
9.942513e-05
0.0001002058
0.0001000304
9.985255e-05
9.966169e-05
9.94772e-05
0.000100392
0.0001002265
0.0001000609
9.988754e-05
9.972028e-05
0.0001492018
0.0001005781
0.0001004217
0.0001002658
0.0001001054
9.995535e-05
0.0001496138
0.0001491441
0.0001007632
0.000100615
0.0001004678
0.0001003173
0.0001001789
0.0001499917
0.0001496292
0.0001490294
0.00010095
0.0001008101
0.0001006711
0.00010053
0.0001004009
0.0001503542
0.0001500571
0.0001496488
0.0001488631
0.0001011193
0.0001009862
0.0001008539
0.0001007196
0.000100597
0.0001506673
0.0001504081
0.0001500945
0.0001496252
0.0001486407
0.0001012738
0.0001011469
0.0001010204
0.0001008921
0.0001007744
0.000150948
0.0001507133
0.000150451
0.0001501183
0.0001495968
0.0003615875
0.0001014127
0.0001012912
0.0001011699
0.0001010467
0.000100933
0.0001511962
0.0001509779
0.0001507445
0.0001504771
0.0001501325
0.0003642418
0.0003614449
0.0001015375
0.0001014212
0.0001013046
0.0001011859
0.0001010755
0.0001514182
0.0001512109
0.000150995
0.0001507607
0.0001504928
0.0003655936
0.0003642551
0.0003615323
0.0001016494
0.0001015379
0.0001014257
0.0001013113
0.000101204
0.0001516176
0.0001514184
0.0001512131
0.0001509969
0.0001507646
0.0003664425
0.000365591
0.000364355
0.0003617593
0.0001017493
0.0001016422
0.0001015343
0.0001014239
0.0001013195
0.0001517969
0.0001516044
0.0001514065
0.0001512006
0.0001509859
0.0003670611
0.0003663928
0.000365621
0.0003644779
0.0003621523
0.0001018378
0.0001017351
0.0001016313
0.0001015247
0.0001014232
0.0001519582
0.0001517716
0.0001515797
0.0001513806
0.0001511753
0.0003675602
0.0003669698
0.0003663609
0.0003656409
0.0003646573
0.0009711187
0.0001019156
0.0001018171
0.0001017171
0.0001016143
0.0001015157
0.0001521025
0.0001519215
0.0001517349
0.0001515413
0.000151342
0.0003679864
0.0003674358
0.0003668924
0.0003663136
0.0003656935
0.0009790055
0.0009741676
0.0001019852
0.0001018907
0.0001017946
0.0001016955
0.0001015999
0.0001522343
0.0001520589
0.0001518777
0.0001516893
0.000151495
0.0003683744
0.0003678487
0.000367338
0.0003668143
0.0003663144
0.0009822049
0.0009800843
0.0009771727
0.000102048
0.0001019574
0.0001018649
0.0001017693
0.0001016765
0.0001523546
0.0001521846
0.0001520084
0.0001518248
0.0001516348
0.0003687267
0.0003682131
0.0003677047
0.0003671841
0.0003666648
0.0001021151
0.0001020286
0.0001019402
0.0001018485
0.0001017591
0.0001524844
0.0001523206
0.0001521504
0.0001519727
0.0001517883
0.0003691143
0.000368618
0.0003681249
0.0003676206
0.0003671175
0.0001021845
0.0001021023
0.0001020181
0.0001019304
0.0001018447
0.0001526191
0.0001524618
0.0001522981
0.0001521268
0.0001519488
0.0003695191
0.000369039
0.0003685599
0.0003680689
0.0003675763
0.0001022553
0.0001021775
0.0001020975
0.0001020141
0.0001019322
0.0001527572
0.0001526068
0.0001524499
0.0001522856
0.0001521144
0.0003699375
0.0003694735
0.0003690085
0.0003685305
0.0003680486
0.0001023255
0.0001022521
0.0001021765
0.0001020974
0.0001020196
0.0001528951
0.0001527517
0.000152602
0.0001524448
0.0001522808
0.0003703584
0.0003699103
0.0003694593
0.0003689939
0.0003685222
0.0001001985
0.000100023
9.984575e-05
9.965822e-05
9.948686e-05
0.0001003774
0.0001002113
0.0001000455
9.987377e-05
9.971365e-05
0.0001492382
0.0001005542
0.0001003965
0.0001002394
0.000100079
9.99315e-05
0.0001495991
0.0001492131
0.0001007314
0.0001005816
0.0001004328
0.0001002813
0.0001001433
0.0001499483
0.0001496226
0.0001491605
0.000100908
0.0001007659
0.0001006245
0.0001004811
0.0001003502
0.0001502805
0.000149998
0.0001496412
0.000149046
0.0001010864
0.0001009519
0.0001008181
0.0001006825
0.0001005587
0.0001506108
0.0001503581
0.0001500655
0.0001496592
0.0001488841
0.0001012485
0.0001011206
0.000100993
0.0001008636
0.0001007448
0.0001509029
0.0001506696
0.0001504138
0.0001501011
0.0001496375
0.0003621093
0.0001013967
0.0001012746
0.0001011527
0.0001010288
0.0001009144
0.0001511676
0.0001509492
0.0001507172
0.0001504553
0.0001501263
0.0003643299
0.0003618198
0.0001015298
0.0001014132
0.0001012963
0.0001011774
0.0001010666
0.0001514044
0.0001511968
0.0001509808
0.0001507474