/*--------------------------------*- C++ -*----------------------------------*\
| =========                 |                                                 |
| \\      /  F ield         | OpenFOAM: The Open Source CFD Toolbox           |
|  \\    /   O peration     | Version:  2306                                  |
|   \\  /    A nd           | Website:  www.openfoam.com                      |
|    \\/     M anipulation  |                                                 |
\*---------------------------------------------------------------------------*/
FoamFile
{
    version     2.0;
    format      ascii;
    arch        "LSB;label=32;scalar=64";
    class       volScalarField;
    location    "0.9/fuel";
    object      H2;
}
// * * * * * * * * * * * * * * * * * * * * * * * * * * * * * * * * * * * * * //

dimensions      [0 0 0 0 0 0 0];

internalField   nonuniform List<scalar> 
16000
(
0.6071995
0.6120527
0.5393791
0.6074772
0.621918
0.542512
0.6123365
0.4769776
0.5395881
0.6080207
0.6369018
0.5488391
0.6222148
0.4792866
0.5427243
0.6128919
0.4265746
0.4771354
0.5399976
0.608822
0.6564642
0.5583525
0.6372202
0.4839392
0.5490582
0.6227955
0.4283813
0.4794465
0.5431401
0.6137106
0.3857284
0.4266978
0.4774449
0.5406018
0.6098774
0.6777357
0.5706175
0.6568151
0.4909109
0.5585826
0.6378427
0.4320146
0.4841032
0.5494874
0.6236514
0.3871881
0.4285059
0.4797598
0.5437536
0.614789
0.352045
0.3858273
0.4269395
0.4779017
0.5413978
0.6109245
0.6940794
0.583801
0.678129
0.4998578
0.5708639
0.6575014
0.437443
0.4910817
0.5590332
0.6387603
0.3901191
0.432142
0.4844248
0.5501204
0.6247787
0.3532515
0.3872881
0.4287503
0.4802225
0.5445619
0.6158589
0.3237917
0.3521263
0.3860216
0.4272966
0.4785038
0.5421874
0.6117927
0.70465
0.5939301
0.6944991
0.5094246
0.5840679
0.6788984
0.4443824
0.5000386
0.5713462
0.6585131
0.3944879
0.437575
0.4914165
0.5596978
0.6399688
0.3556708
0.390221
0.4323919
0.4848995
0.5509543
0.6258972
0.3248067
0.3533336
0.3874843
0.4291112
0.4808321
0.5453636
0.616746
0.2997433
0.3238598
0.3522862
0.3863088
0.4277672
0.479101
0.5428418
0.6126562
0.7107291
0.6005387
0.7050843
0.5167443
0.5942084
0.69532
0.4517703
0.5096182
0.5845907
0.6800331
0.4000555
0.4445212
0.5003931
0.5720579
0.6598459
0.3592701
0.3945931
0.4378338
0.4919107
0.5605733
0.641168
0.3268399
0.3557543
0.3904212
0.432761
0.4855251
0.5517816
0.6268251
0.3006098
0.3248753
0.3534948
0.3877742
0.429587
0.481437
0.5460282
0.6176285
0.2790169
0.2998012
0.3239936
0.3525224
0.3866874
0.4282341
0.4795958
0.5434925
0.6135151
0.7134797
0.6043872
0.7111712
0.521512
0.6008225
0.7059333
0.457403
0.5169443
0.5947535
0.6965304
0.4059624
0.4519178
0.5099978
0.5853623
0.6815288
0.3638457
0.4001656
0.4447935
0.5009165
0.5729955
0.6611687
0.3298604
0.3593561
0.3947997
0.4382161
0.4925619
0.5614419
0.6421648
0.3023439
0.3269097
0.3559185
0.390717
0.4332475
0.4861456
0.5524675
0.6277487
0.2797656
0.3006681
0.3250103
0.3537331
0.3881566
0.4300591
0.481938
0.5466889
0.6185063
0.2609618
0.2790667
0.299915
0.3241917
0.3528341
0.3870631
0.4286209
0.4800876
0.5441394
0.6143692
0.7134797
0.6061469
0.7139253
0.5242887
0.6046738
0.7120353
0.4610649
0.5217147
0.6013784
0.707185
0.4104536
0.4575546
0.5173365
0.5955579
0.698126
0.3686868
0.406079
0.4522074
0.5105584
0.5863795
0.6830143
0.3336923
0.3639354
0.4003819
0.4451957
0.5016062
0.5739259
0.6622741
0.3049168
0.329932
0.3595251
0.395105
0.4387201
0.493208
0.5621632
0.6431587
0.2812631
0.3024032
0.3270469
0.3561612
0.391107
0.4337303
0.48666
0.5531499
0.6286679
0.2616156
0.2798158
0.3007828
0.3252099
0.3540475
0.3885359
0.4304501
0.4824361
0.5473459
0.6193793
0.2450882
0.2610052
0.2791648
0.3000835
0.3244529
0.3531434
0.3873742
0.4290051
0.4805764
0.5447824
0.6185009
0.7107291
0.6061469
0.7139253
0.5255592
0.6064347
0.7147961
0.4631962
0.5244926
0.6052351
0.713309
0.4133687
0.461218
0.5221121
0.6021986
0.7088345
0.3723593
0.4105729
0.4578521
0.5179156
0.5966182
0.6997107
0.3377375
0.3687814
0.4063079
0.4526353
0.5112976
0.5873892
0.6842673
0.3081755
0.3337668
0.3641117
0.4007016
0.445726
0.5022905
0.574702
0.6633823
0.2834824
0.3049775
0.330073
0.3597749
0.3955075
0.4392201
0.4937443
0.5628819
0.6441498
0.2629222
0.281314
0.3025196
0.3272499
0.3564813
0.391494
0.4341302
0.4871714
0.5538286
0.6295825
0.2456641
0.2616592
0.2799146
0.3009526
0.3254733
0.3543595
0.3888501
0.4308386
0.4829311
0.547999
0.6236027
0.2310201
0.2451263
0.2610906
0.27931
0.3003059
0.3247123
0.3533994
0.3876833
0.4293869
0.481062
0.5478918
0.6213418
0.70465
0.6043872
0.7111712
0.5255592
0.6064347
0.7147961
0.4641713
0.5257637
0.6069983
0.7160795
0.4150642
0.4633499
0.5248925
0.606063
0.7149873
0.3747398
0.4134889
0.4615185
0.522699
0.6032795
0.7104728
0.3408004
0.3724558
0.4108072
0.4582918
0.5186791
0.5976708
0.7010478
0.3116092
0.3378158
0.3689673
0.4066464
0.4531996
0.5120314
0.5882382
0.6855351
0.2862893
0.3082385
0.3339135
0.3643724
0.4011232
0.4462521
0.5028611
0.5754786
0.6644932
0.2648569
0.2835345
0.3050969
0.3302814
0.3601043
0.3959069
0.439635
0.4942783
0.5635978
0.6451379
0.2468146
0.2629664
0.2814142
0.302692
0.3275177
0.356799
0.3918146
0.4345279
0.48768
0.5545036
0.6340095
0.2315314
0.2457024
0.2617452
0.2800608
0.3011766
0.3257347
0.3546178
0.3891622
0.4312246
0.4834231
0.5511573
0.6265199
0.2184641
0.2310538
0.2452014
0.2612171
0.2795017
0.3005267
0.3249269
0.3536537
0.3879903
0.4297662
0.4834097
0.5500232
0.6234945
0.6940794
0.6005387
0.7050843
0.5242887
0.6046738
0.7120353
0.4641713
0.5257637
0.6069983
0.7160795
0.4158398
0.4643252
0.5261645
0.6078297
0.7177707
0.3761234
0.4151847
0.4636515
0.5254828
0.6071542
0.7166542
0.3427836
0.3748368
0.4137249
0.4619624
0.5234728
0.6043525
0.7118524
0.3142051
0.3408803
0.3726455
0.4111536
0.4588715
0.519437
0.5985561
0.7024009
0.2892423
0.3116753
0.33797
0.3692423
0.4070929
0.4537598
0.512648
0.5890946
0.6868179
0.267301
0.2863432
0.3083625
0.3341304
0.3647162
0.4015416
0.4466907
0.5034318
0.5762557
0.6656066
0.2485167
0.2649022
0.283637
0.3052736
0.3305564
0.3604313
0.3962383
0.4400481
0.4948102
0.5643109
0.6499297
0.2325523
0.2468534
0.2630535
0.2815625
0.3029195
0.3277835
0.3570621
0.3921332
0.4349231
0.4881856
0.5577691
0.6371187
0.2189211
0.2315653
0.245778
0.2618725
0.2802538
0.301399
0.3259511
0.3548745
0.3894722
0.4316082
0.4858012
0.5533298
0.6287411
0.2071876
0.2184942
0.2311203
0.2453125
0.2613841
0.279692
0.3007094
0.3251401
0.3539063
0.3882952
0.4315993
0.4850154
0.5516351
0.624941
0.6777357
0.5939301
0.6944991
0.521512
0.6008225
0.7059333
0.4631962
0.5244926
0.6052351
0.713309
0.4158398
0.4643252
0.5261645
0.6078297
0.7177707
0.3767561
0.4159604
0.4646272
0.5267563
0.6089252
0.7194503
0.3439357
0.3762206
0.4154213
0.4640971
0.526261
0.6082373
0.7180557
0.3158842
0.3428638
0.3750276
0.4140739
0.4625478
0.5242407
0.6052534
0.7132459
0.2914719
0.3142723
0.3410373
0.3729262
0.4116106
0.459447
0.5200741
0.5994494
0.7037704
0.2698689
0.2892988
0.3118053
0.3381982
0.3696051
0.4075361
0.4542305
0.5132696
0.5899586
0.6881159
0.2506647
0.2673478
0.2864495
0.308546
0.3344166
0.3650575
0.4018902
0.4471292
0.5040026
0.5770333
0.6710356
0.2340617
0.2485563
0.2649912
0.2837888
0.3055068
0.3308293
0.3607025
0.3965681
0.4404594
0.4953397
0.567766
0.6534818
0.2198333
0.2325866
0.2469298
0.2631826
0.2817583
0.3031453
0.3280036
0.3573236
0.3924499
0.435316
0.4906307
0.5600456
0.6395306
0.2075986
0.2189514
0.2316322
0.2458898
0.2620405
0.2804454
0.3015831
0.3261661
0.3551293
0.3897803
0.433462
0.4874332
0.5549792
0.6302404
0.1970041
0.2072146
0.2185535
0.2312188
0.2454594
0.2615499
0.2798495
0.3008908
0.3253519
0.3541572
0.3897686
0.4328509
0.4862284
0.5527167
0.6256678
0.6564642
0.583801
0.678129
0.5167443
0.5942084
0.69532
0.4610649
0.5217147
0.6013784
0.707185
0.4150642
0.4633499
0.5248925
0.606063
0.7149873
0.3767561
0.4159604
0.4646272
0.5267563
0.6089252
0.7194503
0.3444624
0.3768534
0.4161972
0.4650735
0.5275363
0.6100127
0.7208615
0.3168592
0.3440159
0.3764117
0.4157711
0.4646846
0.5270334
0.6091455
0.7194692
0.2929129
0.3159516
0.3430214
0.3753098
0.4145342
0.4631288
0.5248851
0.6061609
0.7146534
0.2718055
0.2915292
0.3144045
0.3412696
0.3732965
0.4120642
0.4599307
0.5207166
0.6003507
0.7051563
0.252919
0.2699178
0.28941
0.3119979
0.3384993
0.3699654
0.4079085
0.4547048
0.5138963
0.5908302
0.6945054
0.2359649
0.2507057
0.2674399
0.2866068
0.3087881
0.3347007
0.3653419
0.4022388
0.4475677
0.5045734
0.580818
0.6756679
0.2211812
0.2340968
0.2486344
0.2651231
0.2839892
0.3057383
0.3310557
0.3609724
0.3968965
0.4408688
0.4979046
0.570285
0.6564151
0.2084187
0.2198639
0.2326543
0.2470431
0.2633529
0.2819526
0.3033323
0.3282223
0.3575835
0.3927647
0.4372156
0.4923305
0.5618005
0.6411887
0.1973757
0.2076258
0.219011
0.2317313
0.2460375
0.2622074
0.280604
0.3017659
0.3263796
0.3553825
0.3912686
0.434732
0.4886707
0.55609
0.6309962
0.1877617
0.1970284
0.2072679
0.2186414
0.231349
0.2456052
0.2616871
0.2800059
0.301071
0.3255621
0.3553692
0.3907735
0.4337957
0.4870415
0.5532596
0.6369018
0.5706175
0.6568151
0.5094246
0.5840679
0.6788984
0.457403
0.5169443
0.5947535
0.6965304
0.4133687
0.461218
0.5221121
0.6021986
0.7088345
0.3761234
0.4151847
0.4636515
0.5254828
0.6071542
0.7166542
0.3444624
0.3768534
0.4161972
0.4650735
0.5275363
0.6100127
0.7208615
0.3173048
0.3445426
0.3770445
0.4165472
0.4656618
0.5283105
0.610924
0.7222838
0.2937492
0.3169266
0.3441736
0.3766942
0.4162324
0.4652678
0.5276807
0.6100591
0.7208949
0.2730563
0.2929704
0.3160842
0.3432547
0.3756821
0.414991
0.4636163
0.5255339
0.6070751
0.7160751
0.2546174
0.2718551
0.2916422
0.3146002
0.3415763
0.3736642
0.4124454
0.4604183
0.5213645
0.6012601
0.7119783
0.2379601
0.2529617
0.2700141
0.2895748
0.3122521
0.3387984
0.370268
0.4082837
0.455183
0.5145283
0.595108
0.7013195
0.2228793
0.236001
0.2507864
0.2675764
0.2868145
0.3090285
0.3349374
0.3656261
0.4025873
0.4480062
0.5073508
0.5839339
0.680167
0.2096297
0.2212124
0.2341658
0.2487501
0.2652972
0.2841881
0.3059303
0.331281
0.3612411
0.3972233
0.4428514
0.4997674
0.5723322
0.6585706
0.1981168
0.2084461
0.2199242
0.2327546
0.2471927
0.2635221
0.2821136
0.3035182
0.3284396
0.3578417
0.3942861
0.4385339
0.4936387
0.5630002
0.6420366
0.1880993
0.1974001
0.2076793
0.2190994
0.2318622
0.2461843
0.2623456
0.2807615
0.3019475
0.3265916
0.3566056
0.392287
0.4356943
0.4895032
0.5566491
0.1793359
0.1877838
0.1970765
0.2073468
0.2187575
0.2314783
0.2457259
0.2618234
0.2801612
0.3012499
0.3265777
0.356195
0.3915316
0.4344287
0.4874495
0.621918
0.5583525
0.6372202
0.4998578
0.5708639
0.6575014
0.4517703
0.5096182
0.5845907
0.6800331
0.4104536
0.4575546
0.5173365
0.5955579
0.698126
0.3747398
0.4134889
0.4615185
0.522699
0.6032795
0.7104728
0.3439357
0.3762206
0.4154213
0.4640971
0.526261
0.6082373
0.7180557
0.3173048
0.3445426
0.3770445
0.4165472
0.4656618
0.5283105
0.610924
0.7222838
0.2941314
0.3173722
0.3447003
0.3773271
0.4170088
0.4662458
0.5289589
0.6118401
0.7237173
0.2737819
0.2938066
0.3170592
0.344407
0.3770669
0.4166902
0.4657563
0.5283315
0.6109781
0.7223328
0.2557137
0.2731059
0.2930835
0.3162805
0.3435626
0.3760517
0.4153742
0.4641069
0.5261871
0.6079958
0.7230597
0.2394622
0.2546607
0.2719527
0.2918095
0.3148587
0.3418808
0.3739731
0.4128297
0.4609099
0.5220179
0.6057238
0.7191555
0.2246581
0.2379978
0.253046
0.2701568
0.2897925
0.3125046
0.3390495
0.3705729
0.4086619
0.4556651
0.5176283
0.5994256
0.7098831
0.2111544
0.2229115
0.2360723
0.2509059
0.2677566
0.2870208
0.3092288
0.3351739
0.3659103
0.4029357
0.450139
0.5096249
0.5868639
0.684181
0.199211
0.2096577
0.2212739
0.2342681
0.2489029
0.2654701
0.2843531
0.3061214
0.3315052
0.3615085
0.3988055
0.4442886
0.5012774
0.5738142
0.659742
0.1887725
0.1981416
0.2085002
0.2200136
0.2328871
0.2473413
0.2636621
0.2822735
0.3037028
0.3286555
0.3590897
0.3953407
0.4395476
0.4945318
0.5636111
0.179644
0.1881215
0.1974484
0.2077586
0.2192162
0.2319922
0.2463057
0.2624827
0.2809179
0.3021278
0.3276158
0.3574418
0.3930582
0.4363412
0.489922
0.1716234
0.179356
0.1878274
0.1971477
0.2074511
0.2188729
0.2315852
0.2458457
0.2619587
0.2803154
0.302114
0.3272692
0.3568177
0.3920393
0.4347462
0.6120527
0.5488391
0.6222148
0.4909109
0.5585826
0.6378427
0.4443824
0.5000386
0.5713462
0.6585131
0.4059624
0.4519178
0.5099978
0.5853623
0.6815288
0.3723593
0.4105729
0.4578521
0.5179156
0.5966182
0.6997107
0.3427836
0.3748368
0.4137249
0.4619624
0.5234728
0.6043525
0.7118524
0.3168592
0.3440159
0.3764117
0.4157711
0.4646846
0.5270334
0.6091455
0.7194692
0.2941314
0.3173722
0.3447003
0.3773271
0.4170088
0.4662458
0.5289589
0.6118401
0.7237173
0.2741135
0.2941888
0.3175047
0.3449337
0.3776999
0.417467
0.4667347
0.5296104
0.6127612
0.725162
0.2563495
0.2738315
0.2939197
0.3172554
0.344715
0.3774369
0.4170738
0.4662475
0.5289859
0.6119027
0.7293865
0.2404311
0.255757
0.2732037
0.2932511
0.3165397
0.3438683
0.3763617
0.4157599
0.4646007
0.5268447
0.6125074
0.7300732
0.2259961
0.2395003
0.254746
0.2720974
0.2920304
0.3151153
0.3421366
0.3742844
0.413217
0.4614055
0.5252232
0.6101816
0.7278403
0.2127503
0.2246916
0.2380721
0.2531708
0.2703453
0.2900086
0.3127166
0.3393026
0.3708802
0.4090431
0.4580292
0.5207375
0.6046275
0.7209671
0.2005875
0.2111832
0.2229749
0.2361779
0.2510638
0.2679355
0.2871926
0.309429
0.3354104
0.3661944
0.4046301
0.4518822
0.5117545
0.5894025
0.6869547
0.1897658
0.1992361
0.2097128
0.221365
0.2344032
0.2490546
0.2656135
0.2845173
0.3063115
0.3317283
0.3628028
0.3999512
0.4454525
0.502368
0.5746102
0.180258
0.1887949
0.1981904
0.2085804
0.2201318
0.2330187
0.2474643
0.2638012
0.2824324
0.3038861
0.3296991
0.3599539
0.3961511
0.4402391
0.4949862
0.1719056
0.1796642
0.1881653
0.1975201
0.2078635
0.2193322
0.2320998
0.2464262
0.2626189
0.2810732
0.3029987
0.3283155
0.3580747
0.3935764
0.4366666
0.1645377
0.1716418
0.1793957
0.1878921
0.197242
0.2075548
0.2189684
0.2316914
0.2459646
0.262093
0.28106
0.302702
0.3277904
0.3572346
0.3922939
0.6071995
0.542512
0.6123365
0.4839392
0.5490582
0.6227955
0.437443
0.4910817
0.5590332
0.6387603
0.4000555
0.4445212
0.5003931
0.5720579
0.6598459
0.3686868
0.406079
0.4522074
0.5105584
0.5863795
0.6830143
0.3408004
0.3724558
0.4108072
0.4582918
0.5186791
0.5976708
0.7010478
0.3158842
0.3428638
0.3750276
0.4140739
0.4625478
0.5242407
0.6052534
0.7132459
0.2937492
0.3169266
0.3441736
0.3766942
0.4162324
0.4652678
0.5276807
0.6100591
0.7208949
0.2741135
0.2941888
0.3175047
0.3449337
0.3776999
0.417467
0.4667347
0.5296104
0.6127612
0.725162
0.2566399
0.274163
0.2943018
0.3177009
0.3452416
0.37807
0.4178506
0.4672259
0.5302652
0.6136871
0.7322447
0.2409929
0.2563927
0.2739291
0.2940872
0.3175145
0.3450208
0.3777468
0.4174593
0.4667412
0.5296439
0.6164268
0.7362377
0.2268588
0.2404692
0.2558424
0.2733485
0.2934724
0.316797
0.3441246
0.3766736
0.416148
0.4650978
0.5300653
0.6168261
0.738191
0.2139499
0.22603
0.2395755
0.2548725
0.2722885
0.2922498
0.3153309
0.3423944
0.3745982
0.4136075
0.4638366
0.5284087
0.6153672
0.7382073
0.2020273
0.2127802
0.2247576
0.2381823
0.2533357
0.2705326
0.2901901
0.3129302
0.3395576
0.3711899
0.4109124
0.4603975
0.5244652
0.6111321
0.736076
0.1910148
0.2006134
0.21124
0.2230688
0.2363174
0.2512206
0.2680846
0.2873643
0.3096291
0.3356468
0.3675757
0.4060136
0.4535131
0.5135928
0.5911138
0.1811638
0.1897886
0.1992858
0.2097945
0.2214854
0.2345375
0.2491804
0.2657562
0.2846807
0.3065006
0.3328082
0.3637392
0.4008784
0.4462926
0.5029529
0.172468
0.1802784
0.1888391
0.1982628
0.2086864
0.2202491
0.2331276
0.2475865
0.2639395
0.2825902
0.3047724
0.3304211
0.3606178
0.3967038
0.4405909
0.1647972
0.1719241
0.1797041
0.1882303
0.1976148
0.2079677
0.2194282
0.2322066
0.2465459
0.2627541
0.2818233
0.3035932
0.3288448
0.3584998
0.393837
0.158006
0.1645546
0.1716781
0.1794547
0.1879776
0.1973356
0.2076405
0.2190632
0.2317968
0.2460827
0.2627416
0.2815664
0.303145
0.3281393
0.3574436
0.5393791
0.6074772
0.4792866
0.5427243
0.6128919
0.4320146
0.4841032
0.5494874
0.6236514
0.3944879
0.437575
0.4914165
0.5596978
0.6399688
0.3638457
0.4001656
0.4447935
0.5009165
0.5729955
0.6611687
0.3377375
0.3687814
0.4063079
0.4526353
0.5112976
0.5873892
0.6842673
0.3142051
0.3408803
0.3726455
0.4111536
0.4588715
0.519437
0.5985561
0.7024009
0.2929129
0.3159516
0.3430214
0.3753098
0.4145342
0.4631288
0.5248851
0.6061609
0.7146534
0.2737819
0.2938066
0.3170592
0.344407
0.3770669
0.4166902
0.4657563
0.5283315
0.6109781
0.7223328
0.2566399
0.274163
0.2943018
0.3177009
0.3452416
0.37807
0.4178506
0.4672259
0.5302652
0.6136871
0.7322447
0.2412495
0.2566831
0.2742606
0.2944692
0.3179599
0.3455474
0.3783798
0.4182359
0.4677193
0.5309231
0.6182155
0.7390181
0.2273589
0.2410309
0.2564779
0.2740738
0.2943083
0.3177717
0.3452768
0.3780583
0.4178467
0.4672374
0.5328622
0.6206281
0.7439508
0.214723
0.2268927
0.2405444
0.2559688
0.2735398
0.2936922
0.3170128
0.3443825
0.3769874
0.4165386
0.4675315
0.5331365
0.6216373
0.7474246
0.203109
0.2139801
0.2260967
0.2396869
0.2550395
0.2724784
0.292434
0.3155481
0.3426543
0.3749145
0.4155224
0.4662508
0.5321007
0.6213569
0.7504018
0.1923204
0.2020543
0.2128393
0.2248555
0.2383278
0.2534996
0.2706898
0.290373
0.3131455
0.3398146
0.3727084
0.4127843
0.4632341
0.5291033
0.6197531
0.762051
0.1823022
0.1910383
0.2006646
0.2113241
0.223193
0.236456
0.2513512
0.2682336
0.2875359
0.309829
0.3367961
0.3687029
0.4073075
0.4549196
0.5148285
0.1732973
0.1811846
0.1898336
0.1993595
0.2099025
0.2216051
0.2346488
0.2493056
0.2658981
0.2848432
0.3074161
0.3335888
0.3644968
0.4015474
0.446743
0.1653141
0.1724867
0.1803187
0.1889048
0.1983584
0.2087918
0.2203463
0.2332358
0.2477079
0.2640767
0.2833527
0.3053853
0.3309756
0.3610703
0.3969848
0.1582453
0.1648141
0.1719606
0.1797633
0.1883162
0.1977088
0.2080539
0.2195236
0.2323127
0.2466648
0.2634072
0.2823351
0.3040429
0.3292003
0.3587135
0.1519663
0.1580216
0.164588
0.1717321
0.1795326
0.1880625
0.197413
0.2077257
0.2191573
0.2319015
0.2466529
0.2631824
0.2819479
0.3034415
0.3283142
0.4769776
0.5395881
0.6080207
0.4283813
0.4794465
0.5431401
0.6137106
0.3901191
0.432142
0.4844248
0.5501204
0.6247787
0.3592701
0.3945931
0.4378338
0.4919107
0.5605733
0.641168
0.3336923
0.3639354
0.4003819
0.4451957
0.5016062
0.5739259
0.6622741
0.3116092
0.3378158
0.3689673
0.4066464
0.4531996
0.5120314
0.5882382
0.6855351
0.2914719
0.3142723
0.3410373
0.3729262
0.4116106
0.459447
0.5200741
0.5994494
0.7037704
0.2730563
0.2929704
0.3160842
0.3432547
0.3756821
0.414991
0.4636163
0.5255339
0.6070751
0.7160751
0.2563495
0.2738315
0.2939197
0.3172554
0.344715
0.3774369
0.4170738
0.4662475
0.5289859
0.6119027
0.7293865
0.2412495
0.2566831
0.2742606
0.2944692
0.3179599
0.3455474
0.3783798
0.4182359
0.4677193
0.5309231
0.6182155
0.7390181
0.2275873
0.2412875
0.2567683
0.2744051
0.2946902
0.318217
0.3458033
0.3786909
0.4186229
0.4682151
0.5341392
0.6223617
0.7465486
0.215171
0.2273927
0.241106
0.2566042
0.2742649
0.2945279
0.3179871
0.3455342
0.3783712
0.4182361
0.4696642
0.5358413
0.6251839
0.7525192
0.2038059
0.2147532
0.2269594
0.2406558
0.2561359
0.2737299
0.2938765
0.3172298
0.344642
0.3773032
0.4184508
0.4698509
0.5365487
0.6269301
0.7577386
0.1933007
0.2031362
0.2140398
0.2261957
0.2398342
0.2552054
0.2726378
0.2926198
0.3157671
0.3429162
0.3764656
0.4174236
0.469047
0.5363495
0.6282016
0.7668061
0.1834915
0.1923448
0.2021074
0.2129269
0.224985
0.2384725
0.2536372
0.2708482
0.2905573
0.3133624
0.3410745
0.3742288
0.4150258
0.4667579
0.5352181
0.6342568
0.7766947
0.174339
0.1823235
0.1910846
0.2007404
0.2114354
0.2233164
0.2365714
0.2514817
0.2683824
0.2877074
0.3108013
0.3377336
0.3697568
0.4084231
0.4558646
0.1660761
0.1733162
0.1812255
0.1899004
0.1994569
0.2100098
0.2217042
0.2347595
0.2494301
0.2660393
0.2856297
0.3080776
0.3342203
0.3650433
0.4019061
0.158722
0.1653312
0.1725235
0.1803785
0.1889916
0.1984535
0.208879
0.2204428
0.2333433
0.2478285
0.2647401
0.2838798
0.3058558
0.3313535
0.3613005
0.1521877
0.1582609
0.1648477
0.1720148
0.1798416
0.1884016
0.1977867
0.2081395
0.2196182
0.232418
0.2472387
0.2638527
0.2827221
0.3043449
0.329379
0.1463658
0.1519807
0.1580523
0.1646375
0.1718034
0.1796101
0.1881328
0.1974899
0.2078102
0.2192507
0.2324068
0.2470404
0.2635145
0.2822031
0.3035901
0.4265746
0.4771354
0.5399976
0.608822
0.3871881
0.4285059
0.4797598
0.5437536
0.614789
0.3556708
0.390221
0.4323919
0.4848995
0.5509543
0.6258972
0.3298604
0.3593561
0.3947997
0.4382161
0.4925619
0.5614419
0.6421648
0.3081755
0.3337668
0.3641117
0.4007016
0.445726
0.5022905
0.574702
0.6633823
0.2892423
0.3116753
0.33797
0.3692423
0.4070929
0.4537598
0.512648
0.5890946
0.6868179
0.2718055
0.2915292
0.3144045
0.3412696
0.3732965
0.4120642
0.4599307
0.5207166
0.6003507
0.7051563
0.2557137
0.2731059
0.2930835
0.3162805
0.3435626
0.3760517
0.4153742
0.4641069
0.5261871
0.6079958
0.7230597
0.2409929
0.2563927
0.2739291
0.2940872
0.3175145
0.3450208
0.3777468
0.4174593
0.4667412
0.5296439
0.6164268
0.7362377
0.2275873
0.2412875
0.2567683
0.2744051
0.2946902
0.318217
0.3458033
0.3786909
0.4186229
0.4682151
0.5341392
0.6223617
0.7465486
0.2153756
0.227621
0.2413624
0.2568944
0.274596
0.2949096
0.3184322
0.3460602
0.3790034
0.4190116
0.4706377
0.5370753
0.6268037
0.7548327
0.2042096
0.2152012
0.2274592
0.2412172
0.256771
0.2744547
0.2947118
0.3182036
0.3457927
0.3786857
0.4201399
0.4719093
0.5390653
0.6300769
0.7619124
0.1939321
0.203833
0.2148129
0.2270584
0.2408031
0.2563019
0.2738892
0.2940619
0.3174482
0.3449031
0.3788492
0.4202727
0.472427
0.5402925
0.6326641
0.7710295
0.184384
0.1933253
0.2031899
0.2141284
0.2263266
0.2399805
0.2553448
0.2727985
0.2928069
0.3159877
0.3442003
0.3780056
0.4196255
0.4722613
0.5411868
0.6371669
0.7787707
0.1754268
0.1835136
0.1923929
0.2021863
0.2130428
0.2251136
0.2385939
0.2537758
0.2710079
0.290743
0.3144258
0.342336
0.3760491
0.4178078
0.4713928
0.5454495
0.6429093
0.7877814
0.1670329
0.1743585
0.1823656
0.1911532
0.2008407
0.211546
0.2234191
0.2366867
0.2516122
0.2685312
0.2885411
0.311594
0.33861
0.3706653
0.4091725
0.1594245
0.1660935
0.1733537
0.1812863
0.1899886
0.1995537
0.2100987
0.2218029
0.2348697
0.249554
0.2667227
0.2861978
0.3086125
0.3346757
0.3653362
0.1526287
0.1587378
0.1653651
0.1725782
0.1804576
0.1890778
0.1985322
0.2089656
0.2205387
0.23345
0.248411
0.2651984
0.2842843
0.3061763
0.3315456
0.1465712
0.1522022
0.1582918
0.1648974
0.1720864
0.1799194
0.1884722
0.197864
0.2082245
0.2197121
0.2329265
0.24763
0.2641894
0.282982
0.3044966
0.1411589
0.1463791
0.1520091
0.158098
0.1647031
0.1718743
0.1796742
0.1882026
0.1975662
0.2078941
0.2197017
0.2327501
0.2473321
0.2637367
0.282331
0.3857284
0.4266978
0.4774449
0.5406018
0.6098774
0.3532515
0.3872881
0.4287503
0.4802225
0.5445619
0.6158589
0.3268399
0.3557543
0.3904212
0.432761
0.4855251
0.5517816
0.6268251
0.3049168
0.329932
0.3595251
0.395105
0.4387201
0.493208
0.5621632
0.6431587
0.2862893
0.3082385
0.3339135
0.3643724
0.4011232
0.4462521
0.5028611
0.5754786
0.6644932
0.2698689
0.2892988
0.3118053
0.3381982
0.3696051
0.4075361
0.4542305
0.5132696
0.5899586
0.6881159
0.2546174
0.2718551
0.2916422
0.3146002
0.3415763
0.3736642
0.4124454
0.4604183
0.5213645
0.6012601
0.7119783
0.2404311
0.255757
0.2732037
0.2932511
0.3165397
0.3438683
0.3763617
0.4157599
0.4646007
0.5268447
0.6125074
0.7300732
0.2273589
0.2410309
0.2564779
0.2740738
0.2943083
0.3177717
0.3452768
0.3780583
0.4178467
0.4672374
0.5328622
0.6206281
0.7439508
0.2153756
0.227621
0.2413624
0.2568944
0.274596
0.2949096
0.3184322
0.3460602
0.3790034
0.4190116
0.4706377
0.5370753
0.6268037
0.7548327
0.2043939
0.2154057
0.2276875
0.2414735
0.2570611
0.2747856
0.2950933
0.3186482
0.3463182
0.3793172
0.4209109
0.4728482
0.5402155
0.6315274
0.7638518
0.1942977
0.2042367
0.2152607
0.227558
0.2413641
0.2569367
0.2746135
0.2948965
0.318421
0.3460525
0.3802233
0.4219008
0.4743385
0.5425208
0.6352741
0.7738948
0.1849586
0.1939566
0.2038867
0.2149013
0.2271891
0.2409494
0.2564411
0.2740494
0.2942484
0.317668
0.3461811
0.3803221
0.4222963
0.4752513
0.5443378
0.6398384
0.7811956
0.1762428
0.1844064
0.1933739
0.2032696
0.2142454
0.2264566
0.2401034
0.2554852
0.2729604
0.2929955
0.3170696
0.3454752
0.3797891
0.422155
0.475915
0.5475011
0.64431
0.788833
0.1680316
0.175447
0.1835574
0.1924643
0.2022907
0.2131579
0.2252216
0.2387162
0.2539155
0.2711687
0.2916532
0.3154905
0.3438462
0.3783072
0.4214616
0.4791244
0.5515205
0.6499184
0.7964478
0.1603063
0.1670508
0.174397
0.1824281
0.191244
0.2009403
0.211638
0.2235218
0.236802
0.2517425
0.2692545
0.2892207
0.312335
0.3393653
0.3712756
0.1532783
0.1594405
0.1661278
0.1734092
0.1813667
0.1900764
0.1996339
0.2101872
0.2219011
0.2349793
0.2501535
0.2672161
0.2866571
0.3089983
0.3349199
0.1469802
0.1526432
0.1587689
0.1654153
0.1726505
0.1805362
0.1891492
0.1986104
0.2090516
0.2206339
0.2339658
0.2488134
0.2655501
0.2845598
0.3063393
0.1413499
0.1465846
0.1522307
0.1583377
0.1649632
0.1721577
0.1799838
0.1885424
0.1979407
0.2083089
0.2201658
0.233273
0.2479258
0.2644154
0.2831125
0.1363062
0.1411712
0.1464055
0.1520513
0.1581584
0.1647682
0.171933
0.1797378
0.1882719
0.197642
0.2082991
0.220008
0.2330085
0.2475273
0.263848
0.352045
0.3858273
0.4269395
0.4779017
0.5413978
0.6109245
0.3248067
0.3533336
0.3874843
0.4291112
0.4808321
0.5453636
0.616746
0.3023439
0.3269097
0.3559185
0.390717
0.4332475
0.4861456
0.5524675
0.6277487
0.2834824
0.3049775
0.330073
0.3597749
0.3955075
0.4392201
0.4937443
0.5628819
0.6441498
0.267301
0.2863432
0.3083625
0.3341304
0.3647162
0.4015416
0.4466907
0.5034318
0.5762557
0.6656066
0.252919
0.2699178
0.28941
0.3119979
0.3384993
0.3699654
0.4079085
0.4547048
0.5138963
0.5908302
0.6945054
0.2394622
0.2546607
0.2719527
0.2918095
0.3148587
0.3418808
0.3739731
0.4128297
0.4609099
0.5220179
0.6057238
0.7191555
0.2268588
0.2404692
0.2558424
0.2733485
0.2934724
0.316797
0.3441246
0.3766736
0.416148
0.4650978
0.5300653
0.6168261
0.738191
0.215171
0.2273927
0.241106
0.2566042
0.2742649
0.2945279
0.3179871
0.3455342
0.3783712
0.4182361
0.4696642
0.5358413
0.6251839
0.7525192
0.2043939
0.2154057
0.2276875
0.2414735
0.2570611
0.2747856
0.2950933
0.3186482
0.3463182
0.3793172
0.4209109
0.4728482
0.5402155
0.6315274
0.7638518
0.1944647
0.204421
0.2154652
0.2277861
0.2416203
0.2572266
0.2749443
0.2952776
0.3188652
0.3465773
0.3808503
0.4226435
0.4752121
0.543549
0.6365086
0.7753201
0.1852914
0.1943222
0.2042902
0.2153489
0.2276884
0.2415101
0.2570755
0.2747732
0.2950821
0.3186395
0.3473224
0.3816452
0.4238063
0.476941
0.5461843
0.6417034
0.7830808
0.176768
0.1849809
0.1940051
0.2039662
0.2150183
0.2273191
0.241072
0.2565811
0.2742107
0.294436
0.3187433
0.3473987
0.3819581
0.4245142
0.4783
0.5493878
0.6459771
0.7902471
0.1687804
0.1762632
0.1844505
0.1934459
0.2033749
0.2143618
0.2265659
0.2402273
0.2556268
0.2731235
0.2939201
0.3181437
0.3469517
0.3818371
0.4250273
0.4806749
0.5525195
0.6507573
0.7970702
0.1612263
0.1680501
0.1754869
0.1836223
0.1925587
0.2023944
0.2132546
0.2253304
0.2388395
0.2540562
0.2719571
0.2925645
0.3167649
0.3457187
0.3812696
0.4275435
0.483688
0.5564354
0.6557323
0.8032541
0.1540935
0.1603227
0.1670861
0.1744541
0.1825108
0.1913343
0.2010233
0.21173
0.2236244
0.2369171
0.2523762
0.2698439
0.2898559
0.3129736
0.3398728
0.1475826
0.1532931
0.1594721
0.1661788
0.1734827
0.1814466
0.1901491
0.1997137
0.2102753
0.2219987
0.2355095
0.2505861
0.2676149
0.2869882
0.3092051
0.1417303
0.1469937
0.152672
0.1588152
0.1654817
0.1727224
0.1806012
0.1892201
0.198688
0.2091371
0.2210938
0.2343219
0.249122
0.2657896
0.2846999
0.1364843
0.1413623
0.146611
0.1522731
0.1583983
0.1650286
0.1722166
0.1800477
0.188612
0.1980169
0.2087162
0.220475
0.2335349
0.2481243
0.264529
0.1317735
0.1363177
0.1411957
0.1464446
0.1521072
0.1582184
0.1648221
0.1719912
0.1798009
0.1883406
0.1980077
0.2085741
0.2202386
0.2331814
0.2476251
0.3237917
0.3521263
0.3860216
0.4272966
0.4785038
0.5421874
0.6117927
0.3006098
0.3248753
0.3534948
0.3877742
0.429587
0.481437
0.5460282
0.6176285
0.2812631
0.3024032
0.3270469
0.3561612
0.391107
0.4337303
0.48666
0.5531499
0.6286679
0.2648569
0.2835345
0.3050969
0.3302814
0.3601043
0.3959069
0.439635
0.4942783
0.5635978
0.6451379
0.2506647
0.2673478
0.2864495
0.308546
0.3344166
0.3650575
0.4018902
0.4471292
0.5040026
0.5770333
0.6710356
0.2379601
0.2529617
0.2700141
0.2895748
0.3122521
0.3387984
0.370268
0.4082837
0.455183
0.5145283
0.595108
0.7013195
0.2259961
0.2395003
0.254746
0.2720974
0.2920304
0.3151153
0.3421366
0.3742844
0.413217
0.4614055
0.5252232
0.6101816
0.7278403
0.214723
0.2268927
0.2405444
0.2559688
0.2735398
0.2936922
0.3170128
0.3443825
0.3769874
0.4165386
0.4675315
0.5331365
0.6216373
0.7474246
0.2042096
0.2152012
0.2274592
0.2412172
0.256771
0.2744547
0.2947118
0.3182036
0.3457927
0.3786857
0.4201399
0.4719093
0.5390653
0.6300769
0.7619124
0.1944647
0.204421
0.2154652
0.2277861
0.2416203
0.2572266
0.2749443
0.2952776
0.3188652
0.3465773
0.3808503
0.4226435
0.4752121
0.543549
0.6365086
0.7753201
0.1854433
0.1944891
0.2044744
0.2155533
0.2279164
0.2417662
0.2573651
0.2751036
0.2954628
0.319083
0.3478431
0.3822486
0.4244965
0.4777208
0.5470589
0.6426481
0.7840808
0.1770721
0.1853136
0.1943706
0.2043695
0.2154656
0.2278181
0.2416324
0.2572149
0.2749335
0.2952686
0.3197074
0.3484968
0.383184
0.4258474
0.4796983
0.5507088
0.6472997
0.7914508
0.1692622
0.1767883
0.185025
0.194077
0.2040714
0.2151345
0.227428
0.2411954
0.2567219
0.2743728
0.2953542
0.3197679
0.3487511
0.3837508
0.4269067
0.4821011
0.5537092
0.651874
0.7979519
0.1619158
0.1687991
0.1763034
0.184516
0.1935412
0.2034796
0.2144595
0.2266759
0.2403521
0.2557694
0.2739234
0.2948382
0.3193876
0.3486467
0.3841608
0.4287642
0.4844466
0.5570479
0.6563429
0.8036818
0.1549435
0.1612433
0.1680867
0.1755462
0.1837082
0.1926526
0.2024814
0.213352
0.22544
0.2389637
0.2547459
0.2727464
0.2936554
0.3183446
0.3481731
0.3861924
0.43112
0.4873728
0.5605108
0.6605129
0.8085219
0.1483383
0.1541086
0.1603552
0.1671384
0.1745296
0.1825929
0.1914095
0.2011062
0.2118219
0.2237269
0.237477
0.2528924
0.2703948
0.2904033
0.3134026
0.1422904
0.1475963
0.1533223
0.1595191
0.1662463
0.1735558
0.1815128
0.1902215
0.1997931
0.2103628