/*--------------------------------*- C++ -*----------------------------------*\
| =========                 |                                                 |
| \\      /  F ield         | OpenFOAM: The Open Source CFD Toolbox           |
|  \\    /   O peration     | Version:  2306                                  |
|   \\  /    A nd           | Website:  www.openfoam.com                      |
|    \\/     M anipulation  |                                                 |
\*---------------------------------------------------------------------------*/
FoamFile
{
    version     2.0;
    format      ascii;
    arch        "LSB;label=32;scalar=64";
    class       volScalarField;
    location    "0.9/fuel";
    object      iDmdtfuel.H2;
}
// * * * * * * * * * * * * * * * * * * * * * * * * * * * * * * * * * * * * * //

dimensions      [1 -3 -1 0 0 0 0];

internalField   nonuniform List<scalar> 
16000
(
-9.871886
-9.954888
-9.024296
-9.425637
-10.12206
-9.077788
-9.502469
-8.298686
-8.638736
-9.110874
-10.37364
-9.182751
-9.657101
-8.339363
-8.688505
-9.183608
-7.714066
-7.962411
-8.364543
-8.91745
-10.70017
-9.333737
-9.889584
-8.418226
-8.786108
-9.329959
-7.74728
-8.000421
-8.411779
-8.98792
-7.227363
-7.415722
-7.721829
-8.193742
-8.834659
-11.051
-9.516435
-10.19101
-8.529302
-8.926416
-9.549966
-7.811195
-8.074076
-8.504393
-9.12976
-7.255532
-7.446867
-7.757997
-8.239507
-8.904464
-6.808829
-6.959338
-7.201375
-7.570555
-8.11792
-0
-11.31256
-9.69408
-10.51443
-8.659063
-9.096064
-9.835273
-7.90003
-8.17776
-8.637501
-9.343138
-7.309464
-7.506772
-7.828063
-8.329242
-9.045073
-6.833286
-6.985832
-7.231077
-7.605622
-8.163142
-0
-6.441384
-6.565916
-6.766166
-7.06576
-7.501897
-0
-0
-11.47469
-9.812821
-10.75459
-8.778332
-9.260864
-10.14155
-8.001454
-8.298803
-8.798437
-9.620275
-7.383728
-7.589991
-7.926672
-8.458252
-9.256919
-6.879935
-7.036531
-7.288191
-7.673551
-8.251846
-0
-6.462985
-6.588978
-6.791483
-7.094586
-7.536515
-0
-0
-6.113484
-6.219747
-6.390404
-6.643411
-7.003403
-0
-0
-0
-11.56476
-9.877857
-10.90288
-8.851693
-9.370674
-10.36832
-8.091159
-8.409957
-8.954765
-9.918458
-7.467123
-7.684935
-8.041766
-8.614339
-9.532827
-6.943722
-7.106307
-7.367511
-7.769163
-8.379465
-0
-6.504072
-6.632945
-6.839916
-7.150008
-7.603589
-0
-0
-6.132804
-6.240164
-6.412482
-6.668005
-7.031854
-0
-0
-0
-5.817486
-5.910194
-6.059279
-6.278505
-6.586497
-0
-0
-0
-0
-11.60452
-9.910071
-10.98502
-8.886816
-9.430639
-10.50801
-8.142959
-8.478127
-9.058633
-10.1389
-7.538802
-7.76882
-8.147412
-8.766097
-9.830854
-7.014444
-7.184602
-7.457974
-7.880792
-8.534083
-0
-6.559943
-6.693033
-6.906553
-7.226977
-7.698033
-0
-0
-6.169473
-6.278979
-6.45456
-6.715049
-7.086562
-0
-0
-0
-5.834939
-5.928493
-6.078857
-6.299973
-6.610775
-0
-0
-0
-0
-5.547792
-5.630217
-5.762755
-5.956707
-6.226331
-0
-0
-0
-0
-0
-11.60452
-9.923129
-11.02121
-8.90122
-9.460269
-10.58528
-8.164805
-8.510662
-9.115232
-10.2746
-7.578159
-7.817112
-8.212004
-8.866681
-10.05114
-7.073871
-7.251813
-7.537841
-7.983278
-8.684674
-0
-6.621261
-6.759598
-6.981291
-7.314765
-7.808384
-0
-0
-6.219113
-6.331732
-6.512046
-6.77977
-7.162557
-0
-0
-0
-5.868008
-5.963208
-6.116065
-6.340884
-6.657216
-0
-0
-0
-0
-5.563684
-5.64678
-5.780329
-5.975763
-6.247529
-0
-0
-0
-0
-0
-5.300273
-5.374658
-5.494197
-5.668316
-5.908693
-0
-0
-0
-0
-0
-0
-11.56476
-9.923129
-11.02121
-8.905976
-9.472259
-10.6193
-8.171726
-8.523957
-9.143167
-10.34968
-7.592862
-7.837394
-8.24274
-8.921427
-10.18689
-7.105148
-7.288593
-7.583657
-8.045735
-8.784286
-0
-6.671844
-6.815451
-7.045382
-7.392245
-7.909764
-0
-0
-6.273133
-6.389576
-6.575694
-6.852352
-7.24927
-0
-0
-0
-5.912605
-6.010177
-6.166616
-6.396769
-6.721116
-0
-0
-0
-0
-5.593753
-5.678148
-5.813658
-6.011973
-6.287925
-0
-0
-0
-0
-0
-5.314837
-5.389766
-5.510126
-5.685438
-5.927514
-0
-0
-0
-0
-0
-0
-5.071714
-5.139707
-5.248741
-5.406924
-5.62398
-0
-0
-0
-0
-0
-0
-0
-11.47469
-9.910071
-10.98502
-8.905976
-9.472259
-10.6193
-8.173114
-8.52833
-9.154467
-10.38275
-7.596028
-7.84377
-8.255268
-8.948459
-10.26213
-7.115506
-7.302253
-7.602813
-8.075381
-8.838492
-0
-6.697511
-6.844735
-7.080313
-7.436515
-7.971345
-0
-0
-6.317007
-6.437214
-6.62903
-6.914549
-7.3258
-0
-0
-0
-5.960791
-6.06124
-6.222011
-6.458631
-6.792792
-0
-0
-0
-0
-5.634175
-5.720427
-5.858734
-6.061162
-6.343111
-0
-0
-0
-0
-0
-5.342369
-5.41834
-5.540284
-5.717902
-5.963279
-0
-0
-0
-0
-0
-0
-5.085136
-5.153577
-5.26329
-5.422456
-5.640897
-0
-0
-0
-0
-0
-0
-0
-4.859607
-4.922402
-5.0228
-5.167837
-5.365865
-0
-0
-0
-0
-0
-0
-0
-0
-11.31256
-9.877857
-10.90288
-8.90122
-9.460269
-10.58528
-8.173114
-8.52833
-9.154467
-10.38275
-7.595812
-7.845023
-8.259379
-8.959406
-10.29534
-7.116557
-7.305135
-7.608789
-8.087449
-8.86531
-0
-6.705034
-6.854352
-7.0932
-7.454942
-8.000512
-0
-0
-6.338557
-6.461284
-6.656868
-6.948293
-7.369341
-0
-0
-0
-5.999406
-6.102638
-6.267564
-6.510419
-6.854185
-0
-0
-0
-0
-5.677579
-5.766062
-5.907706
-6.115047
-6.404204
-0
-0
-0
-0
-0
-5.379276
-5.45673
-5.580916
-5.761801
-6.011866
-0
-0
-0
-0
-0
-0
-5.110489
-5.179784
-5.290799
-5.451857
-5.672974
-0
-0
-0
-0
-0
-0
-0
-4.872036
-4.935204
-5.036173
-5.182034
-5.381216
-0
-0
-0
-0
-0
-0
-0
-0
-4.661916
-4.720426
-4.813578
-4.947594
-5.129713
-0
-0
-0
-0
-0
-0
-0
-0
-0
-11.051
-9.812821
-10.75459
-8.886816
-9.430639
-10.50801
-8.171726
-8.523957
-9.143167
-10.34968
-7.595812
-7.845023
-8.259379
-8.959406
-10.29534
-7.115495
-7.30489
-7.60994
-8.091407
-8.876198
-0
-6.704815
-6.855255
-7.095859
-7.460651
-8.012383
-0
-0
-6.344116
-6.468256
-6.665923
-6.960654
-7.387378
-0
-0
-0
-6.017823
-6.122875
-6.290465
-6.53731
-6.887324
-0
-0
-0
-0
-5.711958
-5.802561
-5.947342
-6.159305
-6.455308
-0
-0
-0
-0
-0
-5.41869
-5.497908
-5.624741
-5.809478
-6.065091
-0
-0
-0
-0
-0
-0
-5.144393
-5.214894
-5.327742
-5.491462
-5.716349
-0
-0
-0
-0
-0
-0
-0
-4.895499
-4.959375
-5.061434
-5.208875
-5.410276
-0
-0
-0
-0
-0
-0
-0
-0
-4.673472
-4.732298
-4.825936
-4.960654
-5.143751
-0
-0
-0
-0
-0
-0
-0
-0
-0
-4.477009
-4.5319
-4.618896
-4.743501
-4.912115
-0
-0
-0
-0
-0
-0
-0
-0
-0
-0
-10.70017
-9.69408
-10.51443
-8.851693
-9.370674
-10.36832
-8.164805
-8.510662
-9.115232
-10.2746
-7.596028
-7.84377
-8.255268
-8.948459
-10.26213
-7.115495
-7.30489
-7.60994
-8.091407
-8.876198
-0
-6.703287
-6.854215
-7.095584
-7.461732
-8.016283
-0
-0
-6.343091
-6.467966
-6.6667
-6.963147
-7.392931
-0
-0
-0
-6.021968
-6.128011
-6.297012
-6.545968
-6.89937
-0
-0
-0
-0
-5.727916
-5.819878
-5.966612
-6.181429
-6.481694
-0
-0
-0
-0
-0
-5.449588
-5.530456
-5.65973
-5.848013
-6.108764
-0
-0
-0
-0
-0
-0
-5.180427
-5.252349
-5.367338
-5.534163
-5.763456
-0
-0
-0
-0
-0
-0
-0
-4.926808
-4.99168
-5.095262
-5.244913
-5.449423
-0
-0
-0
-0
-0
-0
-0
-0
-4.695281
-4.754701
-4.849262
-4.98532
-5.170289
-0
-0
-0
-0
-0
-0
-0
-0
-0
-4.487792
-4.542955
-4.630369
-4.75558
-4.925033
-0
-0
-0
-0
-0
-0
-0
-0
-0
-0
-4.303489
-4.355318
-4.43698
-4.553459
-4.710415
-0
-0
-0
-0
-0
-0
-0
-0
-0
-0
-10.37364
-9.516435
-10.19101
-8.778332
-9.260864
-10.14155
-8.142959
-8.478127
-9.058633
-10.1389
-7.592862
-7.837394
-8.24274
-8.921427
-10.18689
-7.116557
-7.305135
-7.608789
-8.087449
-8.86531
-0
-6.703287
-6.854215
-7.095584
-7.461732
-8.016283
-0
-0
-6.341298
-6.466485
-6.665666
-6.962842
-7.393968
-0
-0
-0
-6.02042
-6.126963
-6.296651
-6.546637
-6.901743
-0
-0
-0
-0
-5.73101
-5.823691
-5.971417
-6.187666
-6.490097
-0
-0
-0
-0
-0
-5.463577
-5.545479
-5.676232
-5.866634
-6.130462
-0
-0
-0
-0
-0
-0
-5.208418
-5.281646
-5.398575
-5.568202
-5.801486
-0
-0
-0
-0
-0
-0
-0
-4.959943
-5.025976
-5.131321
-5.283523
-5.491625
-0
-0
-0
-0
-0
-0
-0
-0
-4.724327
-4.784577
-4.880424
-5.018346
-5.205923
-0
-0
-0
-0
-0
-0
-0
-0
-0
-4.508139
-4.563807
-4.652012
-4.778374
-4.949429
-0
-0
-0
-0
-0
-0
-0
-0
-0
-0
-4.313584
-4.365647
-4.447673
-4.564679
-4.722365
-0
-0
-0
-0
-0
-0
-0
-0
-0
-0
-4.140246
-4.189389
-4.266411
-4.375757
-4.522546
-0
-0
-0
-0
-0
-0
-0
-0
-0
-0
-10.12206
-9.333737
-9.889584
-8.659063
-9.096064
-9.835273
-8.091159
-8.409957
-8.954765
-9.918458
-7.578159
-7.817112
-8.212004
-8.866681
-10.05114
-7.115506
-7.302253
-7.602813
-8.075381
-8.838492
-0
-6.704815
-6.855255
-7.095859
-7.460651
-8.012383
-0
-0
-6.341298
-6.466485
-6.665666
-6.962842
-7.393968
-0
-0
-0
-6.018477
-6.125228
-6.295193
-6.545595
-6.901406
-0
-0
-0
-0
-5.729114
-5.822147
-5.970332
-6.187235
-6.490673
-0
-0
-0
-0
-0
-5.465875
-5.548307
-5.679781
-5.871191
-6.136489
-0
-0
-0
-0
-0
-0
-5.220802
-5.29483
-5.412902
-5.584153
-5.819743
-0
-0
-0
-0
-0
-0
-0
-4.985472
-5.052554
-5.15947
-5.313933
-5.525225
-0
-0
-0
-0
-0
-0
-0
-0
-4.75495
-4.81616
-4.91348
-5.053534
-5.244094
-0
-0
-0
-0
-0
-0
-0
-0
-0
-4.535192
-4.591562
-4.680863
-4.808818
-4.982095
-0
-0
-0
-0
-0
-0
-0
-0
-0
-0
-4.332632
-4.385127
-4.467839
-4.585844
-4.744918
-0
-0
-0
-0
-0
-0
-0
-0
-0
-0
-4.149723
-4.19907
-4.276412
-4.386222
-4.533651
-0
-0
-0
-0
-0
-0
-0
-0
-0
-0
-3.986264
-4.033087
-4.105972
-4.20903
-4.346825
-0
-0
-0
-0
-0
-0
-0
-0
-0
-0
-9.954888
-9.182751
-9.657101
-8.529302
-8.926416
-9.549966
-8.001454
-8.298803
-8.798437
-9.620275
-7.538802
-7.76882
-8.147412
-8.766097
-9.830854
-7.105148
-7.288593
-7.583657
-8.045735
-8.784286
-0
-6.705034
-6.854352
-7.0932
-7.454942
-8.000512
-0
-0
-6.343091
-6.467966
-6.6667
-6.963147
-7.392931
-0
-0
-0
-6.018477
-6.125228
-6.295193
-6.545595
-6.901406
-0
-0
-0
-0
-5.727093
-5.820269
-5.968631
-6.185781
-6.489607
-0
-0
-0
-0
-0
-5.463749
-5.546433
-5.678223
-5.87006
-6.135985
-0
-0
-0
-0
-0
-0
-5.222486
-5.296911
-5.415515
-5.587499
-5.824124
-0
-0
-0
-0
-0
-0
-0
-4.996529
-5.064237
-5.172052
-5.327786
-5.540863
-0
-0
-0
-0
-0
-0
-0
-0
-4.778373
-4.840436
-4.939044
-5.080956
-5.27412
-0
-0
-0
-0
-0
-0
-0
-0
-0
-4.563619
-4.620792
-4.711337
-4.841098
-5.016895
-0
-0
-0
-0
-0
-0
-0
-0
-0
-0
-4.357921
-4.411014
-4.494671
-4.614051
-4.77504
-0
-0
-0
-0
-0
-0
-0
-0
-0
-0
-4.167606
-4.21733
-4.295271
-4.405956
-4.554598
-0
-0
-0
-0
-0
-0
-0
-0
-0
-0
-3.995185
-4.042186
-4.115356
-4.218824
-4.357186
-0
-0
-0
-0
-0
-0
-0
-0
-0
-0
-3.840735
-3.88547
-3.954698
-4.052106
-4.18191
-0
-0
-0
-0
-0
-0
-0
-0
-0
-0
-9.871886
-9.077788
-9.502469
-8.418226
-8.786108
-9.329959
-7.90003
-8.17776
-8.637501
-9.343138
-7.467123
-7.684935
-8.041766
-8.614339
-9.532827
-7.073871
-7.251813
-7.537841
-7.983278
-8.684674
-0
-6.697511
-6.844735
-7.080313
-7.436515
-7.971345
-0
-0
-6.344116
-6.468256
-6.665923
-6.960654
-7.387378
-0
-0
-0
-6.02042
-6.126963
-6.296651
-6.546637
-6.901743
-0
-0
-0
-0
-5.727093
-5.820269
-5.968631
-6.185781
-6.489607
-0
-0
-0
-0
-0
-5.461697
-5.544478
-5.676383
-5.868369
-6.134515
-0
-0
-0
-0
-0
-0
-5.220214
-5.29482
-5.413642
-5.585911
-5.822935
-0
-0
-0
-0
-0
-0
-0
-4.997737
-5.065743
-5.173956
-5.330231
-5.544061
-0
-0
-0
-0
-0
-0
-0
-0
-4.78832
-4.850877
-4.950201
-5.093126
-5.2877
-0
-0
-0
-0
-0
-0
-0
-0
-0
-4.585222
-4.643094
-4.73471
-4.866019
-5.043978
-0
-0
-0
-0
-0
-0
-0
-0
-0
-0
-4.384413
-4.438182
-4.522903
-4.64383
-4.806974
-0
-0
-0
-0
-0
-0
-0
-0
-0
-0
-4.191319
-4.241558
-4.32032
-4.432205
-4.582515
-0
-0
-0
-0
-0
-0
-0
-0
-0
-0
-4.012023
-4.05935
-4.133049
-4.23729
-4.376723
-0
-0
-0
-0
-0
-0
-0
-0
-0
-0
-3.849152
-3.894045
-3.963525
-4.0613
-4.191609
-0
-0
-0
-0
-0
-0
-0
-0
-0
-0
-3.702937
-3.745794
-3.811699
-3.904055
-4.026647
-0
-0
-0
-0
-0
-0
-0
-0
-0
-0
-9.024296
-9.425637
-8.339363
-8.688505
-9.183608
-7.811195
-8.074076
-8.504393
-9.12976
-7.383728
-7.589991
-7.926672
-8.458252
-9.256919
-7.014444
-7.184602
-7.457974
-7.880792
-8.534083
-0
-6.671844
-6.815451
-7.045382
-7.392245
-7.909764
-0
-0
-6.338557
-6.461284
-6.656868
-6.948293
-7.369341
-0
-0
-0
-6.021968
-6.128011
-6.297012
-6.545968
-6.89937
-0
-0
-0
-0
-5.729114
-5.822147
-5.970332
-6.187235
-6.490673
-0
-0
-0
-0
-0
-5.461697
-5.544478
-5.676383
-5.868369
-6.134515
-0
-0
-0
-0
-0
-0
-5.21816
-5.292832
-5.411728
-5.584087
-5.821234
-0
-0
-0
-0
-0
-0
-0
-4.995378
-5.063512
-5.171875
-5.32834
-5.542427
-0
-0
-0
-0
-0
-0
-0
-0
-4.789156
-4.851936
-4.95156
-5.094889
-5.290019
-0
-0
-0
-0
-0
-0
-0
-0
-0
-4.594232
-4.652497
-4.744688
-4.876815
-5.055909
-0
-0
-0
-0
-0
-0
-0
-0
-0
-0
-4.404432
-4.458778
-4.544398
-4.66663
-4.831595
-0
-0
-0
-0
-0
-0
-0
-0
-0
-0
-0
-4.216093
-4.266911
-4.346588
-4.459812
-4.611985
-0
-0
-0
-0
-0
-0
-0
-0
-0
-0
-4.034324
-4.082096
-4.156516
-4.261812
-4.402711
-0
-0
-0
-0
-0
-0
-0
-0
-0
-0
-3.865046
-3.910225
-3.980172
-4.078635
-4.209896
-0
-0
-0
-0
-0
-0
-0
-0
-0
-0
-3.710897
-3.753894
-3.820024
-3.912709
-4.035755
-0
-0
-0
-0
-0
-0
-0
-0
-0
-0
-3.572232
-3.61339
-3.676273
-3.764019
-3.880122
-0
-0
-0
-0
-0
-0
-0
-0
-0
-0
-8.298686
-8.638736
-9.110874
-7.74728
-8.000421
-8.411779
-8.98792
-7.309464
-7.506772
-7.828063
-8.329242
-9.045073
-6.943722
-7.106307
-7.367511
-7.769163
-8.379465
-0
-6.621261
-6.759598
-6.981291
-7.314765
-7.808384
-0
-0
-6.317007
-6.437214
-6.62903
-6.914549
-7.3258
-0
-0
-0
-6.017823
-6.122875
-6.290465
-6.53731
-6.887324
-0
-0
-0
-0
-5.73101
-5.823691
-5.971417
-6.187666
-6.490097
-0
-0
-0
-0
-0
-5.463749
-5.546433
-5.678223
-5.87006
-6.135985
-0
-0
-0
-0
-0
-0
-5.21816
-5.292832
-5.411728
-5.584087
-5.821234
-0
-0
-0
-0
-0
-0
-0
-4.993341
-5.061521
-5.169929
-5.326443
-5.540595
-0
-0
-0
-0
-0
-0
-0
-0
-4.786753
-4.849622
-4.949346
-5.092798
-5.28809
-0
-0
-0
-0
-0
-0
-0
-0
-0
-4.594776
-4.653208
-4.745623
-4.878054
-5.057563
-0
-0
-0
-0
-0
-0
-0
-0
-0
-0
-4.412646
-4.467303
-4.55339
-4.676289
-4.84218
-0
-0
-0
-0
-0
-0
-0
-0
-0
-0
-0
-4.234719
-4.286019
-4.366456
-4.480793
-4.634517
-0
-0
-0
-0
-0
-0
-0
-0
-0
-0
-0
-0
-4.057568
-4.105832
-4.181051
-4.287514
-4.43004
-0
-0
-0
-0
-0
-0
-0
-0
-0
-0
-3.886075
-3.931641
-4.002222
-4.101623
-4.234181
-0
-0
-0
-0
-0
-0
-0
-0
-0
-0
-3.725933
-3.769183
-3.83573
-3.929028
-4.052927
-0
-0
-0
-0
-0
-0
-0
-0
-0
-0
-3.579774
-3.621057
-3.684143
-3.772186
-3.888697
-0
-0
-0
-0
-0
-0
-0
-0
-0
-0
-3.448064
-3.487665
-3.547788
-3.631324
-3.741493
-0
-0
-0
-0
-0
-0
-0
-0
-0
-0
-7.714066
-7.962411
-8.364543
-8.91745
-7.255532
-7.446867
-7.757997
-8.239507
-8.904464
-6.879935
-7.036531
-7.288191
-7.673551
-8.251846
-0
-6.559943
-6.693033
-6.906553
-7.226977
-7.698033
-0
-0
-6.273133
-6.389576
-6.575694
-6.852352
-7.24927
-0
-0
-0
-5.999406
-6.102638
-6.267564
-6.510419
-6.854185
-0
-0
-0
-0
-5.727916
-5.819878
-5.966612
-6.18143
-6.481694
-0
-0
-0
-0
-0
-5.465875
-5.548307
-5.679781
-5.871191
-6.136489
-0
-0
-0
-0
-0
-0
-5.220214
-5.29482
-5.413642
-5.585911
-5.822935
-0
-0
-0
-0
-0
-0
-0
-4.993341
-5.061521
-5.169929
-5.326443
-5.540595
-0
-0
-0
-0
-0
-0
-0
-0
-4.784749
-4.847647
-4.947395
-5.090871
-5.286189
-0
-0
-0
-0
-0
-0
-0
-0
-0
-4.592359
-4.650851
-4.74333
-4.875836
-5.055441
-0
-0
-0
-0
-0
-0
-0
-0
-0
-0
-4.412962
-4.46774
-4.553994
-4.677121
-4.843324
-0
-0
-0
-0
-0
-0
-0
-0
-0
-0
-0
-4.242249
-4.293798
-4.374615
-4.489501
-4.643988
-0
-0
-0
-0
-0
-0
-0
-0
-0
-0
-0
-0
-4.074966
-4.123632
-4.199502
-4.30692
-4.45078
-0
-0
-0
-0
-0
-0
-0
-0
-0
-0
-0
-0
-0
-3.907946
-3.953938
-4.025214
-4.125644
-4.259632
-0
-0
-0
-0
-0
-0
-0
-0
-0
-0
-3.745811
-3.7894
-3.85651
-3.95064
-4.075699
-0
-0
-0
-0
-0
-0
-0
-0
-0
-0
-3.594029
-3.635537
-3.698996
-3.787591
-3.904868
-0
-0
-0
-0
-0
-0
-0
-0
-0
-0
-3.455223
-3.494937
-3.555244
-3.639049
-3.749588
-0
-0
-0
-0
-0
-0
-0
-0
-0
-0
-3.329966
-3.368105
-3.425688
-3.505363
-3.610096
-0
-0
-0
-0
-0
-0
-0
-0
-0
-0
-7.227363
-7.415722
-7.721829
-8.193742
-8.834659
-6.833286
-6.985832
-7.231077
-7.605622
-8.163142
-0
-6.504072
-6.632945
-6.839916
-7.150008
-7.603589
-0
-0
-6.219113
-6.331732
-6.512046
-6.77977
-7.162557
-0
-0
-0
-5.960791
-6.06124
-6.222011
-6.458631
-6.792792
-0
-0
-0
-0
-5.711958
-5.802561
-5.947342
-6.159305
-6.455308
-0
-0
-0
-0
-0
-5.463577
-5.545479
-5.676232
-5.866634
-6.130462
-0
-0
-0
-0
-0
-0
-5.222486
-5.296911
-5.415515
-5.587499
-5.824124
-0
-0
-0
-0
-0
-0
-0
-4.995378
-5.063512
-5.171875
-5.32834
-5.542427
-0
-0
-0
-0
-0
-0
-0
-0
-4.784749
-4.847647
-4.947395
-5.090871
-5.286189
-0
-0
-0
-0
-0
-0
-0
-0
-0
-4.590398
-4.648906
-4.741394
-4.873904
-5.053511
-0
-0
-0
-0
-0
-0
-0
-0
-0
-0
-4.410557
-4.465371
-4.551661
-4.674827
-4.84108
-0
-0
-0
-0
-0
-0
-0
-0
-0
-0
-0
-4.242386
-4.294023
-4.374961
-4.490017
-4.644737
-0
-0
-0
-0
-0
-0
-0
-0
-0
-0
-0
-0
-4.081907
-4.13077
-4.206952
-4.314824
-4.459321
-0
-0
-0
-0
-0
-0
-0
-0
-0
-0
-0
-0
-0
-3.924253
-3.970583
-4.042417
-4.143676
-4.278821
-0
-0
-0
-0
-0
-0
-0
-0
-0
-0
-0
-0
-0
-0
-3.766447
-3.810402
-3.878125
-3.973164
-4.099492
-0
-0
-0
-0
-0
-0
-0
-0
-0
-0
-3.612859
-3.654667
-3.718629
-3.80797
-3.926283
-0
-0
-0
-0
-0
-0
-0
-0
-0
-0
-3.468762
-3.508678
-3.569322
-3.653626
-3.764856
-0
-0
-0
-0
-0
-0
-0
-0
-0
-0
-3.336773
-3.375013
-3.432764
-3.512684
-3.617754
-0
-0
-0
-0
-0
-0
-0
-0
-0
-0
-3.217496
-3.254277
-3.309483
-3.385596
-3.485335
-0
-0
-0
-0
-0
-0
-0
-0
-0
-0
-6.808829
-6.959338
-7.201375
-7.570555
-8.11792
-0
-6.462985
-6.588978
-6.791483
-7.094586
-7.536515
-0
-0
-6.169473
-6.278979
-6.45456
-6.715049
-7.086562
-0
-0
-0
-5.912605
-6.010177
-6.166616
-6.396769
-6.721116
-0
-0
-0
-0
-5.677579
-5.766062
-5.907706
-6.115047
-6.404204
-0
-0
-0
-0
-0
-5.449588
-5.530456
-5.65973
-5.848013
-6.108764
-0
-0
-0
-0
-0
-0
-5.220802
-5.29483
-5.412902
-5.584153
-5.819743
-0
-0
-0
-0
-0
-0
-0
-4.997737
-5.065743
-5.173956
-5.330231
-5.544061
-0
-0
-0
-0
-0
-0
-0
-0
-4.786753
-4.849622
-4.949346
-5.092798
-5.28809
-0
-0
-0
-0
-0
-0
-0
-0
-0
-4.590398
-4.648906
-4.741394
-4.873904
-5.053511
-0
-0
-0
-0
-0
-0
-0
-0
-0
-0
-4.408645
-4.463465
-4.549754
-4.672911
-4.839148
-0
-0
-0
-0
-0
-0
-0
-0
-0
-0
-0
-4.240008
-4.291664
-4.372616
-4.487686
-4.642423
-0
-0
-0
-0
-0
-0
-0
-0
-0
-0
-0
-0
-4.081905
-4.130828
-4.207098
-4.315092
-4.459763
-0
-0
-0
-0
-0
-0
-0
-0
-0
-0
-0
-0
-0
-3.930683
-3.977169
-4.049258
-4.150897
-4.286574
-0
-0
-0
-0
-0
-0
-0
-0
-0
-0
-0
-0
-0
-0
-3.781781
-3.826022
-3.894226
-3.989986
-4.117328
-0
-0
-0
-0
-0
-0
-0
-0
-0
-0
-0
-0
-0
-0
-0
-3.632375
-3.674504
-3.739006
-3.829156
-3.948599
-0
-0
-0
-0
-0
-0
-0
-0
-0
-0
-3.486636
-3.526818
-3.587914
-3.672889
-3.785054
-0
-0
-0
-0
-0
-0
-0
-0
-0
-0
-3.349658
-3.388077
-3.446134
-3.526508
-3.632206
-0
-0
-0
-0
-0
-0
-0
-0
-0
-0
-3.223979
-3.260852
-3.31621
-3.392548
-3.492595
-0
-0
-0
-0
-0
-0
-0
-0
-0
-0
-3.110253
-3.14577
-3.198767
-3.271555
-3.366681
-0
-0
-0
-0
-0
-0
-0
-0
-0
-0
-6.441384
-6.565916
-6.766166
-7.06576
-7.501897
-0
-0
-6.132804
-6.240164
-6.412482
-6.668005
-7.031854
-0
-0
-0
-5.868008
-5.963208
-6.116065
-6.340884
-6.657216
-0
-0
-0
-0
-5.634175
-5.720427
-5.858734
-6.061162
-6.343111
-0
-0
-0
-0
-0
-5.41869
-5.497908
-5.624741
-5.809478
-6.065091
-0
-0
-0
-0
-0
-0
-5.208418
-5.281646
-5.398575
-5.568202
-5.801486
-0
-0
-0
-0
-0
-0
-0
-4.996529
-5.064237
-5.172052
-5.327786
-5.540863
-0
-0
-0
-0
-0
-0
-0
-0
-4.789156
-4.851936
-4.95156
-5.094889
-5.290019
-0
-0
-0
-0
-0
-0
-0
-0
-0
-4.592359
-4.650851
-4.74333
-4.875836
-5.055441
-0
-0
-0
-0
-0
-0
-0
-0
-0
-0
-4.408645
-4.463465
-4.549754
-4.672911
-4.839148
-0
-0
-0
-0
-0
-0
-0
-0
-0
-0
-0
-4.23815
-4.289805
-4.370747
-4.485798
-4.640506
-0
-0
-0
-0
-0
-0
-0
-0
-0
-0
-0
-0
-4.079568
-4.128496
-4.204764
-4.312752
-4.457414
-0
-0
-0
-0
-0
-0
-0
-0
-0
-0
-0
-0
-0
-3.930574
-3.977098
-4.049247
-4.150974
-4.286777
-0
-0
-0
-0
-0
-0
-0
-0
-0
-0
-0
-0
-0
-0
-3.787765
-3.832128
-3.900543
-3.99662
-4.124413
-0
-0
-0
-0
-0
-0
-0
-0
-0
-0
-0
-0
-0
-0
-0
-3.646836
-3.689207
-3.754127
-3.84491
-3.965244
-0
-0
-0
-0
-0
-0
-0
-0
-0
-0
-0
-0
-0
-0
-0
-0
-3.505134
-3.545598
-3.607176
-3.692874
-3.806051
-0
-0
-0
-0
-0
-0
-0
-0
-0
-0
-3.366657
-3.405313
-3.463777
-3.544759
-3.651303
-0
-0
-0
-0
-0
-0
-0
-0
-0
-0
-3.23626
-3.273295
-3.328931
-3.405682
-3.506303
-0
-0
-0
-0
-0
-0
-0
-0
-0
-0
-3.116437
-3.152037
-3.205174
-3.278167
-3.373576
-0
-0
-0
-0
-0
-0
-0
-0
-0
-0
-3.007897
-3.04221
-3.093151
-3.162847
-3.253671
-0
-0
-0
-0
-0
-0
-0
-0
-0
-0
-6.113484
-6.219747
-6.390404
-6.643411
-7.003403
-0
-0
-0
-5.834939
-5.928493
-6.078857
-6.299973
-6.610775
-0
-0
-0
-0
-5.593753
-5.678148
-5.813658
-6.011973
-6.287925
-0
-0
-0
-0
-0
-5.379276
-5.45673
-5.580916
-5.761801
-6.011866
-0
-0
-0
-0
-0
-0
-5.180427
-5.252349
-5.367338
-5.534163
-5.763456
-0
-0
-0
-0
-0
-0
-0
-4.985472
-5.052554
-5.15947
-5.313933
-5.525225
-0
-0
-0
-0
-0
-0
-0
-0
-4.78832
-4.850877
-4.950201
-5.093126
-5.2877
-0
-0
-0
-0
-0
-0
-0
-0
-0
-4.594776
-4.653208
-4.745623
-4.878054
-5.057563
-0
-0
-0
-0
-0
-0
-0
-0
-0
-0
-4.410557
-4.465371
-4.551661
-4.674827
-4.84108
-0
-0
-0
-0
-0
-0
-0
-0
-0
-0
-0
-4.23815
-4.289805
-4.370747
-4.485798
-4.640506
-0
-0
-0
-0
-0
-0
-0
-0
-0
-0
-0
-0
-4.077766
-4.126688
-4.202939
-4.3109
-4.455526
-0
-0
-0
-0
-0
-0
-0
-0
-0
-0
-0
-0
-0
-3.928288
-3.974805
-4.04694
-4.148646
-4.284422
-0
-0
-0
-0
-0
-0
-0
-0
-0
-0
-0
-0
-0
-0
-3.787576
-3.831959
-3.90041
-3.996547
-4.124431
-0
-0
-0
-0
-0
-0
-0
-0
-0
-0
-0
-0
-0
-0
-0
-3.65243
-3.694896
-3.759989
-3.851038
-3.971753
-0
-0
-0
-0
-0
-0
-0
-0
-0
-0
-0
-0
-0
-0
-0
-0
-3.518807
-3.559478
-3.621422
-3.707677
-3.821643
-0
-0
-0
-0
-0
-0
-0
-0
-0
-0
-0
-0
-0
-0
-0
-0
-0
-3.384228
-3.42313
-3.482026
-3.56366
-3.671115
-0
-0
-0
-0
-0
-0
-0
-0
-0
-0
-3.252455
-3.289703
-3.345706
-3.423011
-3.524402
-0
-0
-0
-0
-0
-0
-0
-0
-0
-0
-3.128163
-3.163908
-3.217298
-3.290669
-3.386603
-0
-0
-0
-0
-0
-0
-0
-0
-0
-0
-3.013804
-3.048194
-3.099262
-3.169147
-3.260231
-0
-0
-0
-0
-0
-0
-0
-0
-0
-0
-2.910153
-2.943284
-2.99228
-3.059098
-3.145922
-0
-0
-0
-0
-0
-0
-0
-0
-0
-0
-5.817486
-5.910194
-6.059279
-6.278505
-6.586497
-0
-0
-0
-0
-5.563684
-5.64678
-5.780329
-5.975763
-6.247529
-0
-0
-0
-0
-0
-5.342369
-5.41834
-5.540284
-5.717902
-5.963279
-0
-0
-0
-0
-0
-0
-5.144393
-5.214894
-5.327742
-5.491462
-5.716349
-0
-0
-0
-0
-0
-0
-0
-4.959943
-5.025976
-5.131321
-5.283523
-5.491625
-0
-0
-0
-0
-0
-0
-0
-0
-4.778373
-4.840436
-4.939044
-5.080956
-5.27412
-0
-0
-0
-0
-0
-0
-0
-0
-0
-4.594232
-4.652497
-4.744688
-4.876815
-5.055909
-0
-0
-0
-0
-0
-0
-0
-0
-0
-0
-4.412962
-4.46774
-4.553994
-4.677121
-4.843324
-0
-0
-0
-0
-0
-0
-0
-0
-0
-0
-0
-4.240008
-4.291664
-4.372616
-4.487686
-4.642423
-0
-0
-0
-0
-0
-0
-0
-0
-0
-0
-0
-0
-4.077766
-4.126688
-4.202939
-4.3109
-4.455526
-0
-0
-0
-0
-0
-0
-0
-0
-0
-0
-0
-0
-0
-3.926545
-3.97305
-4.045164
-4.146839
-4.282571
-0
-0
-0
-0
-0
-0
-0
-0
-0
-0
-0
-0
-0
-0
-3.785347
-3.829716
-3.898142
-3.994247
-4.12209
-0
-0
-0
-0
-0
-0
-0
-0
-0
-0
-0
-0
-0
-0
-0
-3.652181
-3.694653
-3.759765
-3.850851
-3.971628
-0
-0
-0
-0
-0
-0
-0
-0
-0
-0
-0
-0
-0
-0
-0
-0
-3.524057
-3.564802
-3.626887
-3.713366
-3.827658
-0
-0
-0
-0
-0
-0
-0
-0
-0
-0
-0
-0
-0
-0
-0
-0
-0
-3.397191
-3.436268
-3.495485
-3.577613
-3.685769
-0
-0
-0
-0
-0
-0
-0
-0
-0
-0
-0
-0
-0
-0
-0
-0
-0
-0
-3.269176
-3.306644
-3.363033
-3.440927
-3.543143
-0
-0
-0
-0
-0
-0
-0
-0
-0
-0
-3.143621
-3.179553
-3.233279
-3.307153
-3.403791
-0
-0
-0
-0
-0
-0
-0
-0
-0
-0
-3.025017
-3.059538
-3.110836
-3.181068
-3.272633
-0
-0
-0
-0
-0
-0
-0
-0
-0
-0
-2.915805
-2.949004
-2.998118
-3.06511
-3.152173
-0
-0
-0
-0
-0
-0
-0
-0
-0
-0
-2.816719
-2.848734
-2.895858
-2.959965
-3.043064
-0
-0
-0
-0
-0
-0
-0
-0
-0
-0
-5.547792
-5.630217
-5.762755
-5.956707
-6.226331
-0
-0
-0
-0
-0
-5.314837
-5.389766
-5.510126
-5.685438
-5.927514
-0
-0
-0
-0
-0
-0
-5.110489
-5.179784
-5.290799
-5.451857
-5.672974
-0
-0
-0
-0
-0
-0
-0
-4.926808
-4.99168
-5.095262
-5.244913
-5.449423
-0
-0
-0
-0
-0
-0
-0
-0
-4.75495
-4.81616
-4.91348
-5.053534
-5.244094
-0
-0
-0
-0
-0
-0
-0
-0
-0
-4.585222
-4.643094
-4.73471
-4.866019
-5.043978
-0
-0
-0
-0
-0
-0
-0
-0
-0
-0
-4.412646
-4.467303
-4.55339
-4.676289
-4.84218
-0
-0
-0
-0
-0
-0
-0
-0
-0
-0
-0
-4.242386
-4.294023
-4.374961
-4.490017
-4.644737
-0
-0
-0
-0
-0
-0
-0
-0
-0
-0
-0
-0
-4.079568
-4.128496
-4.204764
-4.312752
-4.457414
-0
-0
-0
-0
-0
-0
-0
-0
-0
-0
-0
-0
-0
-3.926545
-3.97305
-4.045164
-4.146839
-4.282571
-0
-0
-0
-0
-0
-0
-0
-0
-0
-0
-0
-0
-0
-0
-3.783663
-3.828016
-3.896418
-3.992488
-4.120284
-0
-0
-0
-0
-0
-0
-0
-0
-0
-0
-0
-0
-0
-0
-0
-3.650016
-3.692466
-3.757546
-3.848591
-3.969316
-0
-0
-0
-0
-0
-0
-0
-0
-0
-0
-0
-0
-0
-0
-0
-0
-3.523765
-3.564505
-3.626595
-3.713093
-3.827423
-0
-0
-0
-0
-0
-0
-0
-0
-0
-0
-0
-0
-0
-0
-0
-0
-0
-3.402138
-3.441269
-3.500603
-3.582921
-3.691355
-0
-0
-0
-0
-0
-0
-0
-0
-0
-0
-0
-0
-0
-0
-0
-0
-0
-0
-3.281491
-3.31911
-3.375781
-3.454117
-3.55696
-0
-0
-0
-0
-0
-0
-0
-0
-0
-0
-0
-0
-0
-0
-0
-0
-0
-0
-0
-3.159567
-3.195689
-3.249765
-3.324172
-3.42156
-0
-0
-0
-0
-0
-0
-0
-0
-0
-0
-3.039793
-3.074485
-3.126084
-3.196779
-3.288987
-0
-0
-0
-0
-0
-0
-0
-0
-0
-0
-2.926543
-2.95986
-3.009186
-3.076495
-3.164002
-0
-0
-0
-0
-0
-0
-0
-0
-0
-0
-2.822132
-2.854211
-2.901443
-2.965711
-3.04903
-0
-0
-0
-0
-0
-0
-0
-0
-0
-0
-2.727411
-2.758281
-2.803644
-2.865163
-2.944762
-0
-0
-0
-0
-0
-0
-0
-0
-0
-0
-5.300273
-5.374658
-5.494197
-5.668316
-5.908693
-0
-0
-0
-0
-0
-0
-5.085136
-5.153577
-5.26329
-5.422456
-5.640897
-0
-0
-0
-0
-0
-0
-0
-4.895499
-4.959375
-5.061434
-5.208875
-5.410276
-0
-0
-0
-0
-0
-0
-0
-0
-4.724327
-4.784577
-4.880424
-5.018346
-5.205923
-0
-0
-0
-0
-0
-0
-0
-0
-0
-4.563619
-4.620792
-4.711337
-4.841098
-5.016895
-0
-0
-0
-0
-0
-0
-0
-0
-0
-0
-4.404432
-4.458778
-4.544398
-4.66663
-4.831595
-0
-0
-0
-0
-0
-0
-0
-0
-0
-0
-0
-4.242249
-4.293798
-4.374615
-4.489501
-4.643988
-0
-0
-0
-0
-0
-0
-0
-0
-0
-0
-0
-0
-4.081905
-4.130828
-4.207098
-4.315092
-4.459763
-0
-0
-0
-0
-0
-0
-0
-0
-0
-0
-0
-0
-0
-3.928288
-3.974805
-4.04694
-4.148646
-4.284422
-0
-0
-0
-0
-0
-0
-0
-0
-0
-0
-0
-0
-0
-0
-3.783663
-3.828016
-3.896418
-3.992488
-4.120284
-0
-0
-0
-0
-0
-0
-0
-0
-0
-0
-0
-0
-0
-0
-0
-3.64839
-3.690822
-3.755875
-3.846882
-3.967558
-0
-0
-0
-0
-0
-0
-0
-0
-0
-0
-0
-0
-0
-0
-0
-0
-3.521666
-3.562378
-3.62443
-3.710881
-3.825152
-0
-0
-0
-0
-0
-0
-0
-0
-0
-0
-0
-0
-0
-0
-0
-0
-0
-3.401818
-3.440934
-3.500262
-3.582584
-3.691038
-0
-0
-0
-0
-0
-0
-0
-0
-0
-0
-0
-0
-0
-0
-0
-0
-0
-0
-3.286168
-3.323828
-3.380593
-3.45909
-3.562172
-0
-0
-0
-0
-0
-0
-0
-0
-0
-0
-0
-0
-0
-0
-0
-0
-0
-0
-0
-3.171297
-3.207544
-3.261872
-3.336672
-3.434625
-0
-0
-0
-0
-0
-0
-0
-0
-0
-0
-0
-0
-0
-0
-0
-0
-0
-0
-0
-0
-3.055025
-3.089885
-3.141798
-3.212979
-3.30587
-0
-0
-0
-0
-0
-0
-0
-0
-0
-0
-2.940692
-2.974159
-3.023762
-3.091492
-3.179592
-0
-0
-0
-0
-0
-0
-0
-0
-0
-0
-2.832428
-2.864617
-2.91204
-2.976602
-3.06033
-0
-0
-0
-0
-0
-0
-0
-0
-0
-0
-2.732603
-2.76353
-2.808994
-2.870661
-2.950465
-0
-0
-0
-0
-0
-0
-0
-0
-0
-0
-2.641962
-2.671756
-2.715371
-2.77446
-2.850734
-0
-0
-0
-0
-0
-0
-0
-0
-0
-0
-5.071714
-5.139707
-5.248741
-5.406924
-5.62398
-0
-0
-0
-0
-0
-0
-0
-4.872036
-4.935204
-5.036173
-5.182034
-5.381216
-0
-0
-0
-0
-0
-0
-0
-0
-4.695281
-4.754701
-4.849262
-4.98532
-5.170289
-0
-0
-0
-0
-0
-0
-0
-0
-0
-4.535193
-4.591562
-4.680863
-4.808818
-4.982095
-0
-0
-0
-0
-0
-0
-0
-0
-0
-0
-4.384413
-4.438182
-4.522903
-4.64383
-4.806974
-0
-0
-0
-0
-0
-0
-0
-0
-0
-0
-4.234719
-4.286019
-4.366456
-4.480793
-4.634517
-0
-0
-0
-0
-0
-0
-0
-0
-0
-0
-0
-0
-4.081907
-4.13077
-4.206952
-4.314824
-4.459321
-0
-0
-0
-0
-0
-0
-0
-0
-0
-0
-0
-0
-0
-3.930574
-3.977098
-4.049247
-4.150974
-4.286777
-0
-0
-0
-0
-0
-0
-0
-0
-0
-0
-0
-0
-0
-0
-3.785347
-3.829716
-3.898142
-3.994247
-4.12209
-0
-0
-0
-0
-0
-0
-0
-0
-0
-0
-0
-0
-0
-0
-0
-3.64839
-3.690822
-3.755875
-3.846882
-3.967558
-0
-0
-0
-0
-0
-0
-0
-0
-0
-0
-0
-0
-0
-0
-0
-0
-3.520098
-3.560791
-3.622814
-3.709226
-3.823445
-0
-0
-0
-0
-0
-0
-0
-0
-0
-0
-0
-0
-0
-0
-0
-0
-0
-3.399787
-3.438871
-3.498157
-3.580427
-3.688817
-0
-0
-0
-0
-0
-0
-0
-0
-0
-0
-0
-0
-0
-0
-0
-0
-0
-0
-3.285828
-3.323469
-3.380217
-3.458708
-3.561795
-0
-0
-0
-0
-0
-0
-0
-0
-0
-0
-0
-0
-0
-0
-0
-0
-0
-0
-0
-3.175736
-3.212008
-3.266414
-3.341349
-3.43951
-0
-0
-0
-0
-0
-0
-0
-0
-0
-0
-0
-0
-0
-0
-0
-0
-0
-0
-0
-0
-3.06622
-3.101187
-3.153319
-3.224856
-3.318255
-0
-0
-0
-0
-0
-0
-0
-0
-0
-0
-0
-0
-0
-0
-0
-0
-0
-0
-0
-0
-2.955268
-2.988882
-3.03877
-3.106939
-3.195666
-0
-0
-0
-0
-0
-0
-0
-0
-0
-0
-2.845992
-2.878319
-2.925994
-2.990944
-3.075214
-0
-0
-0
-0
-0
-0
-0
-0
-0
-0
-2.742489
-2.773515
-2.819158
-2.881094
-2.961277
-0
-0
-0
-0
-0
-0
-0
-0
-0
-0
-2.646946
-2.676793
-2.720501
-2.779729
-2.856193
-0
-0
-0
-0
-0
-0
-0
-0
-0
-0
-2.560275
-2.588906
-2.630881
-2.687598
-2.760755
-0
-0
-0
-0
-0
-0
-0
-0
-0
-0
-4.859607
-4.922402
-5.0228
-5.167837
-5.365865
-0
-0
-0
-0
-0
-0
-0
-0
-4.673472
-4.732298
-4.825936
-4.960654
-5.143751
-0
-0
-0
-0
-0
-0
-0
-0
-0
-4.508139
-4.563807
-4.652012
-4.778374
-4.949429
-0
-0
-0
-0
-0
-0
-0
-0
-0
-0
-4.357921
-4.411014
-4.494671
-4.614051
-4.77504
-0
-0
-0
-0
-0
-0
-0
-0
-0
-0
-4.216093
-4.266911
-4.346588
-4.459812
-4.611985
-0
-0
-0
-0
-0
-0
-0
-0
-0
-0
-4.074966
-4.123632
-4.199502
-4.30692
-4.45078
-0
-0
-0
-0
-0
-0
-0
-0
-0
-0
-0
-0
-0
-3.930683
-3.977169
-4.049258
-4.150897
-4.286574
-0
-0
-0
-0
-0
-0
-0
-0
-0
-0
-0
-0
-0
-0
-3.787576
-3.831959
-3.90041
-3.996547
-4.124431
-0
-0
-0
-0
-0
-0
-0
-0
-0
-0
-0
-0
-0
-0
-0
-3.650016
-3.692466
-3.757546
-3.848591
-3.969316
-0
-0
-0
-0
-0
-0
-0
-0
-0
-0
-0
-0
-0
-0
-0
-0
-3.520098
-3.560791
-3.622814
-3.709226
-3.823445
-0
-0
-0
-0
-0
-0
-0
-0
-0
-0
-0
-0
-0
-0
-0
-0
-0
-3.398278
-3.43734
-3.496596
-3.578825
-3.687163
-0
-0
-0
-0
-0
-0
-0
-0
-0
-0
-0
-0
-0
-0
-0
-0
-0
-0
-3.283865
-3.321472
-3.378176
-3.456611
-3.55963
-0
-0
-0
-0
-0
-0
-0
-0
-0
-0
-0
-0
-0
-0
-0
-0
-0
-0
-0
-3.17539
-3.211633
-3.266018
-3.340937
-3.439091
-0
-0
-0
-0
-0
-0
-0
-0
-0
-0
-0
-0
-0
-0
-0
-0
-0
-0
-0
-0
-3.070448
-3.10543
-3.15762
-3.229274
-3.322851
-0
-0
-0
-0
-0
-0
-0
-0
-0
-0
-0
-0
-0
-0
-0
-0
-0
-0
-0
-0
-2.965976
-2.999679
-3.049761
-3.118247
-3.207436
-0
-0
-0
-0
-0
-0
-0
-0
-0
-0
-0
-0
-0
-0
-0
-0
-0
-0
-0
-0
-2.859957
-2.89242
-2.940351
-3.005704
-3.090545
-0
-0
-0
-0
-0
-0
-0
-0
-0
-0
-2.75551
-2.786661
-2.832537
-2.894829
-2.975514
-0
-0
-0
-0
-0
-0
-0
-0
-0
-0
-2.656448
-2.686387
-2.730259
-2.789739
-2.866552
-0
-0
-0
-0
-0
-0
-0
-0
-0
-0
-2.565067
-2.593746
-2.635807
-2.692653
-2.765986
-0
-0
-0
-0
-0
-0
-0
-0
-0
-0
-2.482116