/*--------------------------------*- C++ -*----------------------------------*\
| =========                 |                                                 |
| \\      /  F ield         | OpenFOAM: The Open Source CFD Toolbox           |
|  \\    /   O peration     | Version:  2306                                  |
|   \\  /    A nd           | Website:  www.openfoam.com                      |
|    \\/     M anipulation  |                                                 |
\*---------------------------------------------------------------------------*/
FoamFile
{
    version     2.0;
    format      ascii;
    arch        "LSB;label=32;scalar=64";
    class       volScalarField;
    location    "0.9/fuel";
    object      iDmdtfuel.H2O;
}
// * * * * * * * * * * * * * * * * * * * * * * * * * * * * * * * * * * * * * //

dimensions      [1 -3 -1 0 0 0 0];

internalField   nonuniform List<scalar> 
16000
(
88.21938
88.96113
80.64496
84.23152
90.45504
81.12298
84.91812
74.1606
77.19943
81.41866
92.70323
82.06098
86.29998
74.52411
77.64419
82.06864
68.93619
71.1555
74.74913
79.69014
95.62133
83.41025
88.37754
75.22886
78.51641
83.3765
69.233
71.49517
75.17125
80.31989
64.5868
66.27005
69.00556
73.22278
78.95028
98.75643
85.04292
91.07121
76.22148
79.77026
85.34257
69.80417
72.15338
75.99888
81.58743
64.83853
66.54838
69.32877
73.63175
79.57409
60.8466
62.19162
64.35456
67.65371
72.54519
0
101.0939
86.63044
93.96148
77.38108
81.28631
87.8922
70.59804
73.07995
77.1884
83.49427
65.32049
67.08372
69.95491
74.43366
80.83064
61.06516
62.42838
64.61999
67.96708
72.94932
0
57.56296
58.67583
60.46535
63.14264
67.04016
0
0
102.5427
87.69155
96.10763
78.44692
82.75904
90.62919
71.5044
74.16165
78.62659
85.97088
65.98414
67.8274
70.83612
75.58655
82.72378
61.48203
62.88144
65.13039
68.57413
73.74202
0
57.75599
58.88192
60.69159
63.40024
67.34951
0
0
54.6327
55.58232
57.10738
59.36835
62.5854
0
0
0
103.3476
88.27274
97.43278
79.10251
83.74034
92.65572
72.30605
75.15496
80.0236
88.63557
66.72939
68.67586
71.86465
76.98141
85.18941
62.05206
63.50499
65.83922
69.42855
74.88248
0
58.12316
59.27483
61.12441
63.89552
67.94891
0
0
54.80536
55.76477
57.30468
59.58814
62.83965
0
0
0
51.98753
52.81601
54.1483
56.1074
58.85975
0
0
0
0
103.703
88.56062
98.16681
79.41638
84.27621
93.90409
72.76896
75.76416
80.95181
90.60552
67.36995
69.42549
72.80875
78.33758
87.8527
62.68406
64.20467
66.64764
70.42612
76.2642
0
58.62245
59.8118
61.7199
64.58335
68.79291
0
0
55.13305
56.11163
57.6807
60.00854
63.32854
0
0
0
52.1435
52.97955
54.32326
56.29925
59.07671
0
0
0
0
49.57744
50.31402
51.49843
53.23168
55.64115
0
0
0
0
0
103.703
88.67732
98.49023
79.5451
84.541
94.59458
72.96418
76.05491
81.4576
91.81824
67.72166
69.85705
73.38597
79.23645
89.82128
63.21513
64.8053
67.36136
71.34198
77.60995
0
59.17042
60.40665
62.38779
65.36786
69.77905
0
0
55.57665
56.58306
58.19442
60.58692
64.00767
0
0
0
52.43902
53.28977
54.65577
56.66485
59.49172
0
0
0
0
49.71945
50.46204
51.65549
53.40197
55.83059
0
0
0
0
0
47.3655
48.03024
49.09849
50.65449
52.8026
0
0
0
0
0
0
103.3476
88.67732
98.49023
79.58761
84.64815
94.89858
73.02603
76.17372
81.70724
92.48916
67.85306
70.0383
73.66065
79.72568
91.03439
63.49463
65.13398
67.77079
71.90012
78.50013
0
59.62245
60.90578
62.96054
66.06025
70.68503
0
0
56.05939
57.09998
58.76321
61.23554
64.78257
0
0
0
52.83756
53.7095
55.10751
57.16426
60.06276
0
0
0
0
49.98816
50.74235
51.95333
53.72556
56.19158
0
0
0
0
0
47.49565
48.16525
49.24084
50.8075
52.97079
0
0
0
0
0
0
45.323
45.93062
46.90499
48.31858
50.25829
0
0
0
0
0
0
0
102.5427
88.56062
98.16681
79.58761
84.64815
94.89858
73.03843
76.2128
81.80822
92.78469
67.88135
70.09527
73.7726
79.96725
91.70681
63.5872
65.25605
67.94198
72.16505
78.98454
0
59.85182
61.16747
63.2727
66.45588
71.23534
0
0
56.45147
57.52569
59.23984
61.79136
65.46647
0
0
0
53.26817
54.16583
55.60255
57.71708
60.70329
0
0
0
0
50.3494
51.12018
52.35614
54.16513
56.68475
0
0
0
0
0
47.74169
48.4206
49.51034
51.09761
53.29041
0
0
0
0
0
0
45.44295
46.05457
47.03501
48.45738
50.40946
0
0
0
0
0
0
0
43.42752
43.98868
44.88588
46.18199
47.95166
0
0
0
0
0
0
0
0
101.0939
88.27274
97.43278
79.5451
84.541
94.59458
73.03843
76.2128
81.80822
92.78469
67.87942
70.10647
73.80933
80.06508
92.00353
63.59659
65.2818
67.99538
72.27289
79.22419
0
59.91905
61.25341
63.38786
66.62054
71.49599
0
0
56.64405
57.74079
59.48861
62.09291
65.85557
0
0
0
53.61325
54.53578
56.00963
58.17988
61.25192
0
0
0
0
50.73727
51.52799
52.79378
54.64667
57.2307
0
0
0
0
0
48.0715
48.76367
49.87345
51.48992
53.7246
0
0
0
0
0
0
45.66951
46.28876
47.28084
48.72012
50.69611
0
0
0
0
0
0
0
43.53859
44.10309
45.00539
46.30887
48.08885
0
0
0
0
0
0
0
0
41.66087
42.18374
43.01619
44.21381
45.84131
0
0
0
0
0
0
0
0
0
98.75643
87.69155
96.10763
79.41638
84.27621
93.90409
73.02603
76.17372
81.70724
92.48916
67.87942
70.10647
73.80933
80.06508
92.00353
63.5871
65.27961
68.00567
72.30827
79.32149
0
59.91709
61.26148
63.41162
66.67156
71.60207
0
0
56.69372
57.8031
59.56953
62.20337
66.01676
0
0
0
53.77784
54.71662
56.21428
58.42019
61.54806
0
0
0
0
51.04449
51.85416
53.14799
55.04218
57.68739
0
0
0
0
0
48.42373
49.13166
50.26509
51.91598
54.20024
0
0
0
0
0
0
45.97249
46.60252
47.61097
49.07405
51.08374
0
0
0
0
0
0
0
43.74827
44.31909
45.23113
46.54873
48.34854
0
0
0
0
0
0
0
0
41.76414
42.28984
43.12663
44.33052
45.96676
0
0
0
0
0
0
0
0
0
40.00846
40.499
41.27643
42.38995
43.89675
0
0
0
0
0
0
0
0
0
0
95.62133
86.63044
93.96148
79.10251
83.74034
92.65572
72.96418
76.05491
81.4576
91.81824
67.88135
70.09527
73.7726
79.96725
91.70681
63.5871
65.27961
68.00567
72.30827
79.32149
0
59.90343
61.25219
63.40916
66.68122
71.63692
0
0
56.68457
57.80051
59.57647
62.22565
66.06639
0
0
0
53.81488
54.76253
56.27278
58.49756
61.65572
0
0
0
0
51.1871
52.00891
53.32019
55.23989
57.92318
0
0
0
0
0
48.69984
49.42251
50.57776
52.26034
54.59052
0
0
0
0
0
0
46.29451
46.93723
47.96482
49.45564
51.5047
0
0
0
0
0
0
0
44.02806
44.60778
45.53344
46.87078
48.69837
0
0
0
0
0
0
0
0
41.95903
42.49004
43.33508
44.55095
46.20391
0
0
0
0
0
0
0
0
0
40.10483
40.59778
41.37895
42.49789
44.01219
0
0
0
0
0
0
0
0
0
0
38.45782
38.92098
39.65074
40.69165
42.09428
0
0
0
0
0
0
0
0
0
0
92.70323
85.04292
91.07121
78.44692
82.75904
90.62919
72.76896
75.76416
80.95181
90.60552
67.85306
70.0383
73.66065
79.72568
91.03439
63.59659
65.2818
67.99538
72.27289
79.22419
0
59.90343
61.25219
63.40916
66.68122
71.63692
0
0
56.66854
57.78727
59.56723
62.22293
66.07565
0
0
0
53.80104
54.75315
56.26956
58.50354
61.67692
0
0
0
0
51.21475
52.04299
53.36313
55.29563
57.99827
0
0
0
0
0
48.82486
49.55676
50.72523
52.42674
54.78443
0
0
0
0
0
0
46.54464
47.19904
48.24397
49.75983
51.84455
0
0
0
0
0
0
0
44.32417
44.91426
45.85568
47.21582
49.0755
0
0
0
0
0
0
0
0
42.2186
42.75702
43.61355
44.84608
46.52234
0
0
0
0
0
0
0
0
0
40.28665
40.78413
41.57236
42.70158
44.23021
0
0
0
0
0
0
0
0
0
0
38.54803
39.01328
39.7463
40.79192
42.20107
0
0
0
0
0
0
0
0
0
0
36.99901
37.43817
38.12647
39.10363
40.4154
0
0
0
0
0
0
0
0
0
0
90.45504
83.41025
88.37754
77.38108
81.28631
87.8922
72.30605
75.15496
80.0236
88.63557
67.72166
69.85705
73.38597
79.23645
89.82128
63.5872
65.25605
67.94198
72.16505
78.98454
0
59.91709
61.26148
63.41162
66.67156
71.60207
0
0
56.66854
57.78727
59.56723
62.22293
66.07565
0
0
0
53.78368
54.73765
56.25653
58.49423
61.6739
0
0
0
0
51.1978
52.02919
53.35344
55.29177
58.00342
0
0
0
0
0
48.84539
49.58204
50.75694
52.46746
54.83828
0
0
0
0
0
0
46.65531
47.31686
48.372
49.90238
52.0077
0
0
0
0
0
0
0
44.55231
45.15178
46.10723
47.48758
49.37577
0
0
0
0
0
0
0
0
42.49226
43.03926
43.90895
45.16053
46.86346
0
0
0
0
0
0
0
0
0
40.52842
41.03216
41.83019
42.97365
44.52213
0
0
0
0
0
0
0
0
0
0
38.71825
39.18737
39.92652
40.98105
42.40261
0
0
0
0
0
0
0
0
0
0
37.0837
37.52468
38.21585
39.19715
40.51464
0
0
0
0
0
0
0
0
0
0
35.62295
36.04139
36.69272
37.61369
38.84508
0
0
0
0
0
0
0
0
0
0
88.96113
82.06098
86.29998
76.22148
79.77026
85.34257
71.5044
74.16165
78.62659
85.97088
67.36995
69.42549
72.80875
78.33758
87.8527
63.49463
65.13398
67.77079
71.90012
78.50013
0
59.91905
61.25341
63.38786
66.62054
71.49599
0
0
56.68457
57.80051
59.57647
62.22565
66.06639
0
0
0
53.78368
54.73765
56.25653
58.49423
61.6739
0
0
0
0
51.17975
52.01241
53.33823
55.27878
57.9939
0
0
0
0
0
48.8264
49.56529
50.74302
52.45736
54.83378
0
0
0
0
0
0
46.67036
47.33546
48.39535
49.93228
52.04686
0
0
0
0
0
0
0
44.65111
45.25618
46.21966
47.61137
49.51551
0
0
0
0
0
0
0
0
42.70158
43.2562
44.1374
45.40559
47.13179
0
0
0
0
0
0
0
0
0
40.78245
41.29337
42.10251
43.26211
44.83311
0
0
0
0
0
0
0
0
0
0
38.94424
39.4187
40.16629
41.23312
42.67179
0
0
0
0
0
0
0
0
0
0
37.24351
37.68786
38.38437
39.3735
40.70183
0
0
0
0
0
0
0
0
0
0
35.70268
36.1227
36.77657
37.70122
38.93767
0
0
0
0
0
0
0
0
0
0
34.32244
34.72222
35.34087
36.21135
37.37133
0
0
0
0
0
0
0
0
0
0
88.21938
81.12298
84.91812
75.22886
78.51641
83.3765
70.59804
73.07995
77.1884
83.49427
66.72939
68.67586
71.86465
76.98141
85.18941
63.21513
64.8053
67.36136
71.34198
77.60995
0
59.85182
61.16747
63.2727
66.45588
71.23534
0
0
56.69372
57.8031
59.56953
62.20337
66.01676
0
0
0
53.80104
54.75315
56.26956
58.50354
61.67692
0
0
0
0
51.17975
52.01241
53.33823
55.27878
57.9939
0
0
0
0
0
48.80805
49.54782
50.72658
52.44225
54.82064
0
0
0
0
0
0
46.65006
47.31677
48.37861
49.91809
52.03623
0
0
0
0
0
0
0
44.66191
45.26964
46.23668
47.63322
49.54409
0
0
0
0
0
0
0
0
42.79047
43.3495
44.23711
45.51435
47.25314
0
0
0
0
0
0
0
0
0
40.9755
41.49267
42.31139
43.48482
45.07514
0
0
0
0
0
0
0
0
0
0
39.18099
39.66149
40.41859
41.49924
42.95717
0
0
0
0
0
0
0
0
0
0
37.45541
37.90438
38.60822
39.60808
40.95131
0
0
0
0
0
0
0
0
0
0
35.85315
36.27608
36.93469
37.86623
39.11226
0
0
0
0
0
0
0
0
0
0
34.39767
34.79885
35.41975
36.29351
37.45801
0
0
0
0
0
0
0
0
0
0
33.09102
33.47401
34.06297
34.8883
35.98383
0
0
0
0
0
0
0
0
0
0
80.64496
84.23152
74.52411
77.64419
82.06864
69.80417
72.15338
75.99888
81.58743
65.98414
67.8274
70.83612
75.58655
82.72378
62.68406
64.20467
66.64764
70.42612
76.2642
0
59.62245
60.90578
62.96054
66.06025
70.68503
0
0
56.64405
57.74079
59.48861
62.09291
65.85557
0
0
0
53.81488
54.76253
56.27278
58.49756
61.65572
0
0
0
0
51.1978
52.02919
53.35344
55.29177
58.00342
0
0
0
0
0
48.80805
49.54782
50.72658
52.44225
54.82064
0
0
0
0
0
0
46.6317
47.29901
48.36151
49.90178
52.02103
0
0
0
0
0
0
0
44.64083
45.24971
46.21808
47.61632
49.52949
0
0
0
0
0
0
0
0
42.79794
43.35897
44.24925
45.5301
47.27387
0
0
0
0
0
0
0
0
0
41.05602
41.5767
42.40056
43.5813
45.18176
0
0
0
0
0
0
0
0
0
0
39.35989
39.84554
40.61068
41.70299
43.17719
0
0
0
0
0
0
0
0
0
0
0
37.67681
38.13093
38.84296
39.85478
41.21467
0
0
0
0
0
0
0
0
0
0
36.05244
36.47935
37.1444
38.08537
39.34451
0
0
0
0
0
0
0
0
0
0
34.5397
34.94344
35.56851
36.44843
37.62143
0
0
0
0
0
0
0
0
0
0
33.16216
33.5464
34.13737
34.96564
36.06522
0
0
0
0
0
0
0
0
0
0
31.92299
32.29079
32.85274
33.63688
34.67443
0
0
0
0
0
0
0
0
0
0
74.1606
77.19943
81.41866
69.233
71.49517
75.17125
80.31989
65.32049
67.08372
69.95491
74.43366
80.83064
62.05206
63.50499
65.83922
69.42855
74.88248
0
59.17042
60.40666
62.38779
65.36786
69.77905
0
0
56.45147
57.52569
59.23984
61.79136
65.46647
0
0
0
53.77784
54.71662
56.21428
58.42019
61.54806
0
0
0
0
51.21475
52.04299
53.36313
55.29563
57.99827
0
0
0
0
0
48.8264
49.56529
50.74302
52.45736
54.83378
0
0
0
0
0
0
46.6317
47.29901
48.36151
49.90178
52.02103
0
0
0
0
0
0
0
44.62263
45.23191
46.20069
47.59937
49.51312
0
0
0
0
0
0
0
0
42.77647
43.33829
44.22947
45.51142
47.25663
0
0
0
0
0
0
0
0
0
41.06088
41.58305
42.40891
43.59237
45.19654
0
0
0
0
0
0
0
0
0
0
39.43329
39.92172
40.69103
41.78931
43.27179
0
0
0
0
0
0
0
0
0
0
0
37.84326
38.3017
39.02051
40.04228
41.41602
0
0
0
0
0
0
0
0
0
0
0
0
36.26016
36.69147
37.36365
38.31505
39.58873
0
0
0
0
0
0
0
0
0
0
34.72762
35.13483
35.76557
36.65385
37.83845
0
0
0
0
0
0
0
0
0
0
33.29653
33.68303
34.27772
35.11147
36.21868
0
0
0
0
0
0
0
0
0
0
31.99039
32.35931
32.92307
33.70987
34.75106
0
0
0
0
0
0
0
0
0
0
30.81337
31.16727
31.70455
32.45106
33.43558
0
0
0
0
0
0
0
0
0
0
68.93619
71.1555
74.74913
79.69014
64.83853
66.54838
69.32877
73.63175
79.57409
61.48203
62.88144
65.13039
68.57413
73.74202
0
58.62245
59.8118
61.7199
64.58335
68.79291
0
0
56.05939
57.09998
58.76321
61.23554
64.78257
0
0
0
53.61325
54.53578
56.00963
58.17988
61.25192
0
0
0
0
51.1871
52.00891
53.32019
55.23989
57.92318
0
0
0
0
0
48.84539
49.58204
50.75694
52.46746
54.83828
0
0
0
0
0
0
46.65006
47.31677
48.37861
49.91809
52.03623
0
0
0
0
0
0
0
44.62263
45.23191
46.20069
47.59937
49.51312
0
0
0
0
0
0
0
0
42.75856
43.32064
44.21203
45.49419
47.23964
0
0
0
0
0
0
0
0
0
41.03928
41.56199
42.38842
43.57255
45.17758
0
0
0
0
0
0
0
0
0
0
39.43611
39.92563
40.69644
41.79675
43.28201
0
0
0
0
0
0
0
0
0
0
0
37.91055
38.37121
39.09342
40.1201
41.50066
0
0
0
0
0
0
0
0
0
0
0
0
36.41564
36.85054
37.52854
38.48847
39.77407
0
0
0
0
0
0
0
0
0
0
0
0
0
34.92308
35.33407
35.97103
36.86851
38.06589
0
0
0
0
0
0
0
0
0
0
33.47417
33.8637
34.46342
35.30461
36.42218
0
0
0
0
0
0
0
0
0
0
32.11777
32.48871
33.05581
33.84753
34.89556
0
0
0
0
0
0
0
0
0
0
30.87734
31.23225
31.77118
32.5201
33.50791
0
0
0
0
0
0
0
0
0
0
29.758
30.09882
30.61341
31.32542
32.26136
0
0
0
0
0
0
0
0
0
0
64.5868
66.27005
69.00556
73.22278
78.95028
61.06516
62.42838
64.61999
67.96708
72.94932
0
58.12316
59.27483
61.12441
63.89552
67.94891
0
0
55.57665
56.58306
58.19442
60.58692
64.00767
0
0
0
53.26817
54.16583
55.60255
57.71708
60.70329
0
0
0
0
51.04449
51.85416
53.14799
55.04218
57.68739
0
0
0
0
0
48.82486
49.55676
50.72523
52.42674
54.78443
0
0
0
0
0
0
46.67036
47.33546
48.39535
49.93228
52.04686
0
0
0
0
0
0
0
44.64083
45.24971
46.21808
47.61632
49.52949
0
0
0
0
0
0
0
0
42.75856
43.32064
44.21203
45.49419
47.23964
0
0
0
0
0
0
0
0
0
41.02175
41.54461
42.37112
43.55529
45.16033
0
0
0
0
0
0
0
0
0
0
39.41462
39.90446
40.67559
41.77625
43.26196
0
0
0
0
0
0
0
0
0
0
0
37.91177
38.37322
39.09652
40.12471
41.50736
0
0
0
0
0
0
0
0
0
0
0
0
36.47766
36.91433
37.59512
38.55911
39.85039
0
0
0
0
0
0
0
0
0
0
0
0
0
35.0688
35.48283
36.12477
37.02966
38.23737
0
0
0
0
0
0
0
0
0
0
0
0
0
0
33.65858
34.05138
34.65658
35.50589
36.63481
0
0
0
0
0
0
0
0
0
0
32.28605
32.65967
33.23125
34.02964
35.08694
0
0
0
0
0
0
0
0
0
0
30.99834
31.35504
31.89699
32.65036
33.64436
0
0
0
0
0
0
0
0
0
0
29.81883
30.16056
30.67664
31.39085
32.3298
0
0
0
0
0
0
0
0
0
0
28.75292
29.0816
29.57495
30.25513
31.14644
0
0
0
0
0
0
0
0
0
0
60.8466
62.19162
64.35456
67.65371
72.54519
0
57.756
58.88192
60.69159
63.40024
67.34952
0
0
55.13305
56.11163
57.6807
60.00854
63.32854
0
0
0
52.83756
53.7095
55.10751
57.16426
60.06276
0
0
0
0
50.73727
51.52799
52.79378
54.64667
57.2307
0
0
0
0
0
48.69984
49.42251
50.57776
52.26034
54.59052
0
0
0
0
0
0
46.65531
47.31686
48.372
49.90238
52.0077
0
0
0
0
0
0
0
44.66191
45.26964
46.23668
47.63322
49.54409
0
0
0
0
0
0
0
0
42.77647
43.33829
44.22947
45.51142
47.25663
0
0
0
0
0
0
0
0
0
41.02175
41.54461
42.37112
43.55529
45.16033
0
0
0
0
0
0
0
0
0
0
39.39753
39.88743
40.65854
41.75912
43.24469
0
0
0
0
0
0
0
0
0
0
0
37.89052
38.35214
39.07556
40.10388
41.48667
0
0
0
0
0
0
0
0
0
0
0
0
36.47764
36.91484
37.59642
38.5615
39.85434
0
0
0
0
0
0
0
0
0
0
0
0
0
35.12626
35.54168
36.1859
37.09419
38.30666
0
0
0
0
0
0
0
0
0
0
0
0
0
0
33.79561
34.19096
34.80047
35.65622
36.7942
0
0
0
0
0
0
0
0
0
0
0
0
0
0
0
32.46045
32.83694
33.41336
34.21898
35.28637
0
0
0
0
0
0
0
0
0
0
31.15807
31.51715
32.06313
32.8225
33.82486
0
0
0
0
0
0
0
0
0
0
29.93397
30.27731
30.79612
31.51438
32.45894
0
0
0
0
0
0
0
0
0
0
28.81085
29.14036
29.63507
30.31726
31.21132
0
0
0
0
0
0
0
0
0
0
27.79455
28.11194
28.58554
29.23601
30.0861
0
0
0
0
0
0
0
0
0
0
57.56296
58.67583
60.46535
63.14264
67.04016
0
0
54.80536
55.76477
57.30468
59.58814
62.83965
0
0
0
52.43902
53.28977
54.65577
56.66485
59.49172
0
0
0
0
50.3494
51.12018
52.35614
54.16513
56.68475
0
0
0
0
0
48.42373
49.13166
50.26509
51.91598
54.20024
0
0
0
0
0
0
46.54464
47.19904
48.24397
49.75983
51.84455
0
0
0
0
0
0
0
44.65111
45.25618
46.21966
47.61137
49.51551
0
0
0
0
0
0
0
0
42.79794
43.35897
44.24925
45.5301
47.27387
0
0
0
0
0
0
0
0
0
41.03928
41.56199
42.38842
43.57255
45.17758
0
0
0
0
0
0
0
0
0
0
39.39753
39.88743
40.65854
41.75912
43.24469
0
0
0
0
0
0
0
0
0
0
0
37.87391
38.33553
39.05886
40.087
41.46954
0
0
0
0
0
0
0
0
0
0
0
0
36.45676
36.894
37.57557
38.54059
39.83335
0
0
0
0
0
0
0
0
0
0
0
0
0
35.12529
35.54104
36.18579
37.09487
38.30847
0
0
0
0
0
0
0
0
0
0
0
0
0
0
33.84909
34.24553
34.85691
35.7155
36.85751
0
0
0
0
0
0
0
0
0
0
0
0
0
0
0
32.58968
32.96833
33.54848
34.35976
35.43511
0
0
0
0
0
0
0
0
0
0
0
0
0
0
0
0
31.32337
31.68497
32.23527
33.0011
34.0125
0
0
0
0
0
0
0
0
0
0
30.08588
30.43133
30.95379
31.67748
32.6296
0
0
0
0
0
0
0
0
0
0
28.9206
29.25156
29.74874
30.43463
31.33382
0
0
0
0
0
0
0
0
0
0
27.84981
28.16795
28.6428
29.2951
30.14771
0
0
0
0
0
0
0
0
0
0
26.87985
27.18649
27.64171
28.26455
29.07619
0
0
0
0
0
0
0
0
0
0
54.6327
55.58232
57.10738
59.36835
62.5854
0
0
0
52.1435
52.97955
54.32326
56.29925
59.07671
0
0
0
0
49.98816
50.74235
51.95333
53.72556
56.19158
0
0
0
0
0
48.0715
48.76367
49.87345
51.48992
53.7246
0
0
0
0
0
0
46.29451
46.93723
47.96482
49.45564
51.5047
0
0
0
0
0
0
0
44.55231
45.15178
46.10723
47.48758
49.37577
0
0
0
0
0
0
0
0
42.79047
43.3495
44.23711
45.51435
47.25314
0
0
0
0
0
0
0
0
0
41.06088
41.58305
42.40891
43.59237
45.19654
0
0
0
0
0
0
0
0
0
0
39.41462
39.90446
40.67559
41.77625
43.26196
0
0
0
0
0
0
0
0
0
0
0
37.87391
38.33553
39.05886
40.087
41.46954
0
0
0
0
0
0
0
0
0
0
0
0
36.44065
36.87784
37.55926
38.52405
39.81648
0
0
0
0
0
0
0
0
0
0
0
0
0
35.10486
35.52056
36.16518
37.07407
38.28742
0
0
0
0
0
0
0
0
0
0
0
0
0
0
33.84739
34.24402
34.85573
35.71485
36.85767
0
0
0
0
0
0
0
0
0
0
0
0
0
0
0
32.63967
33.01917
33.60086
34.41452
35.49328
0
0
0
0
0
0
0
0
0
0
0
0
0
0
0
0
31.44556
31.80901
32.36257
33.13338
34.15183
0
0
0
0
0
0
0
0
0
0
0
0
0
0
0
0
0
30.24291
30.59055
31.11687
31.84638
32.80665
0
0
0
0
0
0
0
0
0
0
29.06532
29.39819
29.89866
30.58949
31.49556
0
0
0
0
0
0
0
0
0
0
27.9546
28.27403
28.75115
29.40682
30.26413
0
0
0
0
0
0
0
0
0
0
26.93264
27.23996
27.69633
28.32085
29.13481
0
0
0
0
0
0
0
0
0
0
26.00637
26.30244
26.74029
27.3374
28.1133
0
0
0
0
0
0
0
0
0
0
51.98753
52.81601
54.1483
56.1074
58.85975
0
0
0
0
49.71945
50.46204
51.65549
53.40197
55.83059
0
0
0
0
0
47.74169
48.4206
49.51034
51.09761
53.29041
0
0
0
0
0
0
45.97249
46.60252
47.61097
49.07405
51.08374
0
0
0
0
0
0
0
44.32417
44.91426
45.85568
47.21582
49.0755
0
0
0
0
0
0
0
0
42.70158
43.2562
44.1374
45.40559
47.13179
0
0
0
0
0
0
0
0
0
41.05602
41.5767
42.40056
43.5813
45.18176
0
0
0
0
0
0
0
0
0
0
39.43611
39.92563
40.69644
41.79675
43.28201
0
0
0
0
0
0
0
0
0
0
0
37.89052
38.35214
39.07556
40.10388
41.48667
0
0
0
0
0
0
0
0
0
0
0
0
36.44065
36.87784
37.55926
38.52405
39.81648
0
0
0
0
0
0
0
0
0
0
0
0
0
35.08928
35.50487
36.14931
37.05792
38.27088
0
0
0
0
0
0
0
0
0
0
0
0
0
0
33.82748
34.22397
34.83546
35.6943
36.83675
0
0
0
0
0
0
0
0
0
0
0
0
0
0
0
32.63745
33.017
33.59886
34.41285
35.49216
0
0
0
0
0
0
0
0
0
0
0
0
0
0
0
0
31.49248
31.85659
32.41141
33.18423
34.20559
0
0
0
0
0
0
0
0
0
0
0
0
0
0
0
0
0
30.35875
30.70795
31.23715
31.97108
32.93761
0
0
0
0
0
0
0
0
0
0
0
0
0
0
0
0
0
0
29.21475
29.54958
30.0535
30.74959
31.66304
0
0
0
0
0
0
0
0
0
0
28.09274
28.41385
28.89396
29.55413
30.41773
0
0
0
0
0
0
0
0
0
0
27.03284
27.34134
27.79975
28.42739
29.24565
0
0
0
0
0
0
0
0
0
0
26.05688
26.35356
26.79246
27.39113
28.16916
0
0
0
0
0
0
0
0
0
0
25.1714
25.45751
25.87862
26.45151
27.19412
0
0
0
0
0
0
0
0
0
0
49.57744
50.31402
51.49843
53.23168
55.64115
0
0
0
0
0
47.49565
48.16525
49.24084
50.8075
52.97079
0
0
0
0
0
0
45.66951
46.28876
47.28084
48.72012
50.69611
0
0
0
0
0
0
0
44.02806
44.60778
45.53344
46.87078
48.69837
0
0
0
0
0
0
0
0
42.49226
43.03926
43.90895
45.16053
46.86346
0
0
0
0
0
0
0
0
0
40.9755
41.49267
42.31139
43.48482
45.07514
0
0
0
0
0
0
0
0
0
0
39.43329
39.92172
40.69103
41.78931
43.27179
0
0
0
0
0
0
0
0
0
0
0
37.91177
38.37322
39.09652
40.12471
41.50736
0
0
0
0
0
0
0
0
0
0
0
0
36.45676
36.894
37.57557
38.54059
39.83335
0
0
0
0
0
0
0
0
0
0
0
0
0
35.08928
35.50487
36.14931
37.05792
38.27088
0
0
0
0
0
0
0
0
0
0
0
0
0
0
33.81242
34.20879
34.82005
35.67857
36.82061
0
0
0
0
0
0
0
0
0
0
0
0
0
0
0
32.6181
32.99745
33.57903
34.39265
35.4715
0
0
0
0
0
0
0
0
0
0
0
0
0
0
0
0
31.48987
31.85394
32.4088
33.18178
34.20348
0
0
0
0
0
0
0
0
0
0
0
0
0
0
0
0
0
30.40296
30.75265
31.28288
32.01851
32.98752
0
0
0
0
0
0
0
0
0
0
0
0
0
0
0
0
0
0
29.32481
29.66099
30.16742
30.86746
31.78652
0
0
0
0
0
0
0
0
0
0
0
0
0
0
0
0
0
0
0
28.23524
28.55804
29.04129
29.70622
30.57652
0
0
0
0
0
0
0
0
0
0
27.16489
27.47491
27.93602
28.56778
29.3918
0
0
0
0
0
0
0
0
0
0
26.15284
26.45057
26.89137
27.49287
28.27487
0
0
0
0
0
0
0
0
0
0
25.21978
25.50645
25.92853
26.50286
27.24744
0
0
0
0
0
0
0
0
0
0
24.37331
24.64918
25.05456
25.60432
26.31565
0
0
0
0
0
0
0
0
0
0
47.3655
48.03024
49.09849
50.65449
52.8026
0
0
0
0
0
0
45.44295
46.05457
47.03501
48.45738
50.40946
0
0
0
0
0
0
0
43.74827
44.31909
45.23113
46.54873
48.34854
0
0
0
0
0
0
0
0
42.2186
42.75702
43.61355
44.84608
46.52234
0
0
0
0
0
0
0
0
0
40.78245
41.29337
42.10251
43.26211
44.83311
0
0
0
0
0
0
0
0
0
0
39.35989
39.84554
40.61068
41.70299
43.17719
0
0
0
0
0
0
0
0
0
0
0
37.91055
38.37122
39.09342
40.1201
41.50066
0
0
0
0
0
0
0
0
0
0
0
0
36.47764
36.91484
37.59642
38.5615
39.85434
0
0
0
0
0
0
0
0
0
0
0
0
0
35.10486
35.52056
36.16518
37.07407
38.28742
0
0
0
0
0
0
0
0
0
0
0
0
0
0
33.81242
34.20879
34.82005
35.67857
36.82061
0
0
0
0
0
0
0
0
0
0
0
0
0
0
0
32.60357
32.98276
33.5641
34.37738
35.45579
0
0
0
0
0
0
0
0
0
0
0
0
0
0
0
0
31.47111
31.83493
32.38946
33.16202
34.18319
0
0
0
0
0
0
0
0
0
0
0
0
0
0
0
0
0
30.4001
30.74965
31.27983
32.0155
32.98469
0
0
0
0
0
0
0
0
0
0
0
0
0
0
0
0
0
0
29.3666
29.70315
30.21042
30.9119
31.83309
0
0
0
0
0
0
0
0
0
0
0
0
0
0
0
0
0
0
0
28.34006
28.66398
29.14948
29.81792
30.69327
0
0
0
0
0
0
0
0
0
0
0
0
0
0
0
0
0
0
0
0
27.301
27.61253
28.07644
28.71255
29.54266
0
0
0
0
0
0
0
0
0
0
26.27928
26.57835
27.02163
27.62689
28.41419
0
0
0
0
0
0
0
0
0
0
25.31179
25.59944
26.02323
26.60019
27.34841
0
0
0
0
0
0
0
0
0
0
24.4197
24.69609
25.10237
25.65345
26.36662
0
0
0
0
0
0
0
0
0
0
23.6097
23.87595
24.26571
24.79376
25.47538
0
0
0
0
0
0
0
0
0
0
45.323
45.93062
46.90499
48.31858
50.25829
0
0
0
0
0
0
0
43.53859
44.10309
45.00539
46.30887
48.08885
0
0
0
0
0
0
0
0
41.95903
42.49004
43.33508
44.55095
46.20391
0
0
0
0
0
0
0
0
0
40.52842
41.03216
41.83019
42.97365
44.52213
0
0
0
0
0
0
0
0
0
0
39.18099
39.66149
40.41859
41.49924
42.95717
0
0
0
0
0
0
0
0
0
0
37.84326
38.3017
39.02052
40.04228
41.41602
0
0
0
0
0
0
0
0
0
0
0
0
36.47766
36.91433
37.59512
38.55911
39.85039
0
0
0
0
0
0
0
0
0
0
0
0
0
35.12529
35.54104
36.18579
37.09487
38.30847
0
0
0
0
0
0
0
0
0
0
0
0
0
0
33.82748
34.22397
34.83546
35.6943
36.83675
0
0
0
0
0
0
0
0
0
0
0
0
0
0
0
32.60357
32.98276
33.5641
34.37738
35.45579
0
0
0
0
0
0
0
0
0
0
0
0
0
0
0
0
31.4571
31.82075
32.37501
33.14722
34.16794
0
0
0
0
0
0
0
0
0
0
0
0
0
0
0
0
0
30.38195
30.73122
31.26103
31.99622
32.96484
0
0
0
0
0
0
0
0
0
0
0
0
0
0
0
0
0
0
29.36356
29.69994
30.20706
30.90849
31.82972
0
0
0
0
0
0
0
0
0
0
0
0
0
0
0
0
0
0
0
28.37973
28.70388
29.19007
29.85972
30.73693
0
0
0
0
0
0
0
0
0
0
0
0
0
0
0
0
0
0
0
0
27.40105
27.71353
28.1794
28.81869
29.65334
0
0
0
0
0
0
0
0
0
0
0
0
0
0
0
0
0
0
0
0
26.40953
26.70993
27.15574
27.76494
28.55784
0
0
0
0
0
0
0
0
0
0
25.433
25.72189
26.14793
26.72835
27.48143
0
0
0
0
0
0
0
0
0
0
24.50805
24.78531
25.1932
25.74669
26.46324
0
0
0
0
0
0
0
0
0
0
23.65423
23.92097
24.31156
24.84084
25.52416
0
0
0
0
0
0
0
0
0
0
22.87971
23.13557
23.51068
24.01753
24.67128
0
0
0
0
0
0
0
0
0
0
43.42752
43.98868
44.88588
46.18199
47.95166
0
0
0
0
0
0
0
0
41.76414
42.28984
43.12663
44.33052
45.96676
0
0
0
0
0
0
0
0
0
40.28665
40.78413
41.57236
42.70158
44.23021
0
0
0
0
0
0
0
0
0
0
38.94424
39.4187
40.16629
41.23312
42.67179
0
0
0
0
0
0
0
0
0
0
37.67681
38.13093
38.84296
39.85478
41.21467
0
0
0
0
0
0
0
0
0
0
36.41564
36.85054
37.52854
38.48847
39.77407
0
0
0
0
0
0
0
0
0
0
0
0
0
35.12626
35.54168
36.1859
37.09419
38.30666
0
0
0
0
0
0
0
0
0
0
0
0
0
0
33.84739
34.24402
34.85573
35.71485
36.85767
0
0
0
0
0
0
0
0
0
0
0
0
0
0
0
32.6181
32.99745
33.57903
34.39265
35.4715
0
0
0
0
0
0
0
0
0
0
0
0
0
0
0
0
31.4571
31.82075
32.37501
33.14722
34.16794
0
0
0
0
0
0
0
0
0
0
0
0
0
0
0
0
0
30.36846
30.71753
31.24707
31.9819
32.95006
0
0
0
0
0
0
0
0
0
0
0
0
0
0
0
0
0
0
29.34602
29.6821
30.18882
30.88975
31.81038
0
0
0
0
0
0
0
0
0
0
0
0
0
0
0
0
0
0
0
28.37664
28.70052
29.18653
29.85604
30.73318
0
0
0
0
0
0
0
0
0
0
0
0
0
0
0
0
0
0
0
0
27.43883
27.75144
28.21784
28.85817
29.69441
0
0
0
0
0
0
0
0
0
0
0
0
0
0
0
0
0
0
0
0
26.50522
26.80641
27.25397
27.86598
28.66302
0
0
0
0
0
0
0
0
0
0
0
0
0
0
0
0
0
0
0
0
25.5578
25.8479
26.27623
26.86026
27.61843
0
0
0
0
0
0
0
0
0
0
24.62442
24.90279
25.31276
25.86943
26.59047
0
0
0
0
0
0
0
0
0
0
23.73915
24.0067
24.39876
24.9303
25.61673
0
0
0
0
0
0
0
0
0
0
22.92253
23.17882
23.5547
24.06269
24.71803
0
0
0
0
0
0
0
0
0
0
22.18125
22.42729
22.78731
23.27428
23.90108
0
0
0
0
0
0
0
0
0
0
41.66087
42.18374
43.01619
44.21381
45.84131
0
0
0
0
0
0
0
0
0
40.10483
40.59778
41.37895
42.49789
44.01219
0
0
0
0
0
0
0
0
0
0
38.71825
39.18737
39.92652
40.98106
42.40261
0
0
0
0
0
0
0
0
0
0
37.45541
37.90438
38.60822
39.60808
40.95131
0
0
0
0
0
0
0
0
0
0
36.26016
36.69147
37.36365
38.31505
39.58873
0
0
0
0
0
0
0
0
0
0
35.0688
35.48283
36.12477
37.02966
38.23737
0
0
0
0
0
0
0
0
0
0
0
0
0
0
33.84908
34.24553
34.85691
35.7155
36.85751
0
0
0
0
0
0
0
0
0
0
0
0
0
0
0
32.63745
33.017
33.59886
34.41285
35.49216
0
0
0
0
0
0
0
0
0
0
0
0
0
0
0
0
31.47111
31.83493
32.38946
33.16202
34.18319
0
0
0
0
0
0
0
0
0
0
0
0
0
0
0
0
0
30.36846
30.71753
31.24707
31.9819
32.95006
0
0
0
0
0
0
0
0
0
0
0
0
0
0
0
0
0
0
29.33303
29.66891
30.17535
30.87591
31.79607
0
0
0
0
0
0
0
0
0
0
0
0
0
0
0
0
0
0
0
28.35973
28.68327
29.16887
29.83786
30.71437
0
0
0
0
0
0
0
0
0
0
0
0
0
0
0
0
0
0
0
0
27.43574
27.74805
28.21419
28.85433
29.69042
0
0
0
0
0
0
0
0
0
0
0
0
0
0
0
0
0
0
0
0
26.54132
26.84255
27.29053
27.9034
28.70183
0
0
0
0
0
0
0
0
0
0
0
0
0
0
0
0
0
0
0
0
25.64944
25.94026
26.37012
26.95671
27.7186
0
0
0
0
0
0
0
0
0
0
0
0
0
0
0
0
0
0
0
0
24.74418
25.02362
25.43571
25.99566
26.7214
0
0
0
0
0
0
0
0
0
0
23.85098
24.11956
24.51353
25.04803
25.7386
0
0
0
0
0
0
0
0
0
0
23.00426
23.26128
23.63853
24.14861
24.80686
0
0
0
0
0
0
0
0
0
0
22.22243
22.46889
22.82962
23.31766
23.94594
0
0
0
0
0
0
0
0
0
0
21.51568
21.74912
22.09493
22.56193
23.16347
0
0
0
0
0
0
0
0
0
0
40.00846
40.499
41.27643
42.38995
43.89675
0
0
0
0
0
0
0
0
0
0
38.54803
39.01328
39.7463
40.79192
42.20107
0
0
0
0
0
0
0
0
0
0
37.24351
37.68786
38.38437
39.3735
40.70183
0
0
0
0
0
0
0
0
0
0
36.05244
36.47935
37.1444
38.08537
39.34451
0
0
0
0
0
0
0
0
0
0
34.92308
35.33407
35.97103
36.86851
38.06589
0
0
0
0
0
0
0
0
0
0
33.79561
34.19096
34.80047
35.65622
36.7942
0
0
0
0
0
0
0
0
0
0
0
0
0
0
0
32.63967
33.01917
33.60086
34.41452
35.49328
0
0
0
0
0
0
0
0
0
0
0
0
0
0
0
0
31.48987
31.85394
32.4088
33.18178
34.20348
0
0
0
0
0
0
0
0
0
0
0
0
0
0
0
0
0
30.38195
30.73122
31.26103
31.99622
32.96484
0
0
0
0
0
0
0
0
0
0
0
0
0
0
0
0
0
0
29.33303
29.66891
30.17535
30.87591
31.79607
0
0
0
0
0
0
0
0
0
0
0
0
0
0
0
0
0
0
0
28.34723
28.67056
29.15589
29.8245
30.70055
0
0
0
0
0
0
0
0
0
0
0
0
0
0
0
0
0
0
0
0
27.41947
27.73142
28.19711
28.83673
29.67218
0
0
0
0
0
0
0
0
0
0
0
0
0
0
0
0
0
0
0
0
26.53829
26.83919
27.28686
27.89946
28.6977
0
0
0
0
0
0
0
0
0
0
0
0
0
0
0
0
0
0
0
0
25.68397
25.97483
26.40501
26.99231
27.75539
0
0
0
0
0
0
0
0
0
0
0
0
0
0
0
0
0
0
0
0
24.83211
25.11215
25.52566
26.0879
26.81703
0
0
0
0
0
0
0
0
0
0
0
0
0
0
0
0
0
0
0
0
23.96602
24.23561
24.6315
25.16906
25.86392
0
0
0
0
0
0
0
0
0
0
23.1119
23.36982
23.74886
24.26167
24.92378
0
0
0
0
0
0
0
0
0
0
22.30114
22.54831
22.91029
23.40028
24.03127
0
0
0
0
0
0
0
0
0
0
21.55537
21.78916
22.13565
22.60365
23.20657
0
0
0
0
0
0
0
0
0
0
20.88107
21.10246
21.43163
21.87986
22.45641
0
0
0
0
0
0
0
0
0
0
38.45782
38.92098
39.65074
40.69165
42.09428
0
0
0
0
0
0
0
0
0
0
37.0837
37.52468
38.21585
39.19715
40.51464
0
0
0
0
0
0
0
0
0
0
35.85315
36.27608
36.93469
37.86623
39.11226
0
0
0
0
0
0
0
0
0
0
34.72762
35.13483
35.76557
36.65385
37.83845
0
0
0
0
0
0
0
0
0
0
33.65857
34.05138
34.65658
35.50589
36.63481
0
0
0
0
0
0
0
0
0
0
32.58968
32.96833
33.54848
34.35976
35.43511
0
0
0
0
0
0
0
0
0
0
0
0
0
0
0
0
31.49248
31.85659
32.41141
33.18423
34.20559
0
0
0
0
0
0
0
0
0
0
0
0
0
0
0
0
0
30.4001
30.74965
31.27983
32.0155
32.98469
0
0
0
0
0
0
0
0
0
0
0
0
0
0
0
0
0
0
29.34602
29.6821
30.18882
30.88975
31.81038
0
0
0
0
0
0
0
0
0
0
0
0
0
0
0
0
0
0
0
28.34723
28.67056
29.15589
29.8245
30.70055
0
0
0
0
0
0
0
0
0
0
0
0
0
0
0
0
0
0
0
0
27.40746
27.71919
28.18459
28.82385
29.65884
0
0
0
0
0
0
0
0
0
0
0
0
0
0
0
0
0
0
0
0
26.52262
26.82318
27.27039
27.88244
28.68005
0
0
0
0
0
0
0
0
0
0
0
0
0
0
0
0
0
0
0
0
25.68098
25.97155
26.40139
26.98838
27.75118
0
0
0
0
0
0
0
0
0
0
0
0
0
0
0
0
0
0
0
0
24.86525
25.14525
25.55905
26.12189
26.85204
0
0
0
0
0
0
0
0
0
0
0
0
0
0
0
0
0
0
0
0
24.05048
24.32061
24.71776
25.25745
25.9554
0
0
0
0
0
0
0
0
0
0
0
0
0
0
0
0
0
0
0
0
23.22262
23.48136
23.86221
24.37782
25.04396
0
0
0
0
0
0
0
0
0
0
22.40479
22.65286
23.01645
23.509
24.14356
0
0
0
0
0
0
0
0
0
0
21.63134
21.86569
22.21339
22.68318
23.28864
0
0
0
0
0
0
0
0
0
0
20.9193
21.14108
21.47084
21.92002
22.49785
0
0
0
0
0
0
0
0
0
0
20.28296
20.4855
20.79885
21.22621
21.77927
0
0
0
0
0
0
0
0
0
0
36.99901
37.43817
38.12647
39.10363
40.4154
0
0
0
0
0
0
0
0
0
0
35.70268
36.1227
36.77657
37.70122
38.93767
0
0
0
0
0
0
0
0
0
0
34.5397
34.94344
35.56851
36.44843
37.62143
0
0
0
0
0
0
0
0
0
0
33.47417
33.8637
34.46342
35.30461
36.42218
0
0
0
0
0
0
0
0
0
0
32.46045
32.83693
33.41336
34.21898
35.28637
0
0
0
0
0
0
0
0
0
0
31.44556
31.80901
32.36257
33.13338
34.15183
0
0
0
0
0
0
0
0
0
0
0
0
0
0
0
0
0
30.40296
30.75265
31.28288
32.01851
32.98752
0
0
0
0
0
0
0
0
0
0
0
0
0
0
0
0
0
0
29.36356
29.69994
30.20706
30.90849
31.82972
0
0
0
0
0
0
0
0
0
0
0
0
0
0
0
0
0
0