/*--------------------------------*- C++ -*----------------------------------*\
| =========                 |                                                 |
| \\      /  F ield         | OpenFOAM: The Open Source CFD Toolbox           |
|  \\    /   O peration     | Version:  2306                                  |
|   \\  /    A nd           | Website:  www.openfoam.com                      |
|    \\/     M anipulation  |                                                 |
\*---------------------------------------------------------------------------*/
FoamFile
{
    version     2.0;
    format      ascii;
    arch        "LSB;label=32;scalar=64";
    class       volScalarField;
    location    "0.9/fuel";
    object      nernst;
}
// * * * * * * * * * * * * * * * * * * * * * * * * * * * * * * * * * * * * * //

dimensions      [1 2 -3 0 0 -1 0];

internalField   nonuniform List<scalar> 
16000
(
-1.75299
-1.753933
-1.740006
-1.753054
-1.755846
-1.740627
-1.753998
-1.728297
-1.740051
-1.753174
-1.758737
-1.741881
-1.755915
-1.728768
-1.740673
-1.754123
-1.718815
-1.72833
-1.740139
-1.753351
-1.762485
-1.743766
-1.758813
-1.72972
-1.741928
-1.756046
-1.719199
-1.728802
-1.740762
-1.754304
-1.710989
-1.71884
-1.728395
-1.740267
-1.753583
-1.7665
-1.746191
-1.762572
-1.73115
-1.743814
-1.758956
-1.719972
-1.729754
-1.742019
-1.756237
-1.711313
-1.719224
-1.728867
-1.740892
-1.754542
-1.704356
-1.711008
-1.718891
-1.728491
-1.740435
-1.753816
-1.769424
-1.748782
-1.766605
-1.732994
-1.746242
-1.762736
-1.721135
-1.731184
-1.743909
-1.759166
-1.711965
-1.719997
-1.72982
-1.742153
-1.756489
-1.704636
-1.711332
-1.719275
-1.728965
-1.741063
-1.754781
-1.69861
-1.704372
-1.711049
-1.718967
-1.728618
-1.740605
-1.754013
-1.771146
-1.750723
-1.769545
-1.734974
-1.748835
-1.766798
-1.722633
-1.733028
-1.746343
-1.762975
-1.712945
-1.72116
-1.731253
-1.74405
-1.759441
-1.705201
-1.711985
-1.720049
-1.72992
-1.74233
-1.756742
-1.698857
-1.704652
-1.711373
-1.719352
-1.729093
-1.741235
-1.754983
-1.693543
-1.698622
-1.704406
-1.711112
-1.719068
-1.728746
-1.740748
-1.754208
-1.772029
-1.751933
-1.77128
-1.736489
-1.750779
-1.769762
-1.724248
-1.735008
-1.748944
-1.767076
-1.714209
-1.722658
-1.733099
-1.746493
-1.763287
-1.706048
-1.712964
-1.721212
-1.731355
-1.744235
-1.759717
-1.699354
-1.705216
-1.712026
-1.720127
-1.730051
-1.742507
-1.756955
-1.693763
-1.698869
-1.704686
-1.711436
-1.719453
-1.729222
-1.74138
-1.755184
-1.689011
-1.693552
-1.698651
-1.704458
-1.711195
-1.71917
-1.728854
-1.74089
-1.754403
-1.772391
-1.7526
-1.772172
-1.737468
-1.751992
-1.771515
-1.725498
-1.736522
-1.750892
-1.770072
-1.715572
-1.724271
-1.735081
-1.749105
-1.76744
-1.70714
-1.714227
-1.722711
-1.733205
-1.74669
-1.7636
-1.7001
-1.706063
-1.713006
-1.721291
-1.73149
-1.744421
-1.75995
-1.694208
-1.699366
-1.70525
-1.712089
-1.72023
-1.730183
-1.742657
-1.757167
-1.689211
-1.693773
-1.698898
-1.704739
-1.71152
-1.719556
-1.729331
-1.741524
-1.755384
-1.684911
-1.689019
-1.693577
-1.698696
-1.704528
-1.711279
-1.719256
-1.728961
-1.741031
-1.754597
-1.772391
-1.752891
-1.772538
-1.738031
-1.752661
-1.772418
-1.726321
-1.737501
-1.752109
-1.771848
-1.716633
-1.725519
-1.736596
-1.751061
-1.770476
-1.708318
-1.715589
-1.724325
-1.735192
-1.749319
-1.767805
-1.701061
-1.707154
-1.714269
-1.722792
-1.733346
-1.746889
-1.763867
-1.694875
-1.700112
-1.706097
-1.71307
-1.721397
-1.731626
-1.744578
-1.760183
-1.689613
-1.694218
-1.699395
-1.705303
-1.712174
-1.720334
-1.730294
-1.742805
-1.757379
-1.685094
-1.689219
-1.693798
-1.698943
-1.704809
-1.711604
-1.719642
-1.729439
-1.741667
-1.755583
-1.681166
-1.684918
-1.68904
-1.693616
-1.698756
-1.7046
-1.71135
-1.719341
-1.729068
-1.741172
-1.755539
-1.772029
-1.752891
-1.772538
-1.738285
-1.752953
-1.77279
-1.726803
-1.738064
-1.752781
-1.772765
-1.717339
-1.726341
-1.737575
-1.752283
-1.772278
-1.709239
-1.716648
-1.725572
-1.736708
-1.751285
-1.77088
-1.702099
-1.708331
-1.715631
-1.724409
-1.73534
-1.749534
-1.768118
-1.695734
-1.701072
-1.707188
-1.714334
-1.722901
-1.733488
-1.747057
-1.764134
-1.690216
-1.694884
-1.700141
-1.706151
-1.713156
-1.721503
-1.731741
-1.744734
-1.760416
-1.685461
-1.689621
-1.694243
-1.69944
-1.705375
-1.71226
-1.720422
-1.730404
-1.742953
-1.757591
-1.681335
-1.6851
-1.68924
-1.693837
-1.699004
-1.704881
-1.711675
-1.719728
-1.729547
-1.74181
-1.756551
-1.677718
-1.681172
-1.684936
-1.689075
-1.693669
-1.698818
-1.70466
-1.71142
-1.719426
-1.729174
-1.741854
-1.75628
-1.771146
-1.7526
-1.772172
-1.738285
-1.752953
-1.77279
-1.727025
-1.738319
-1.753075
-1.773143
-1.717758
-1.726824
-1.738138
-1.752958
-1.773212
-1.709855
-1.717353
-1.726393
-1.737689
-1.752513
-1.77271
-1.702911
-1.70925
-1.716689
-1.725656
-1.73686
-1.75151
-1.771228
-1.696661
-1.702109
-1.708365
-1.715697
-1.724521
-1.735489
-1.749717
-1.768435
-1.690993
-1.695743
-1.701101
-1.707242
-1.714422
-1.723011
-1.733607
-1.747225
-1.764404
-1.686012
-1.690224
-1.694909
-1.700186
-1.706223
-1.713244
-1.721593
-1.731855
-1.74489
-1.760649
-1.681673
-1.685468
-1.689642
-1.694282
-1.699502
-1.705447
-1.712332
-1.720509
-1.730514
-1.743101
-1.758618
-1.677874
-1.68134
-1.685119
-1.689275
-1.693891
-1.699066
-1.704941
-1.711746
-1.719813
-1.729654
-1.742502
-1.757319
-1.674521
-1.677722
-1.681188
-1.684967
-1.689122
-1.693724
-1.69887
-1.704719
-1.71149
-1.71951
-1.729688
-1.742388
-1.756886
-1.769424
-1.751933
-1.77128
-1.738031
-1.752661
-1.772418
-1.727025
-1.738319
-1.753075
-1.773143
-1.717951
-1.727045
-1.738393
-1.753254
-1.773599
-1.710222
-1.717771
-1.726875
-1.738252
-1.753193
-1.773661
-1.703457
-1.709865
-1.717393
-1.726476
-1.737841
-1.752744
-1.773081
-1.697388
-1.70292
-1.709283
-1.716755
-1.725769
-1.737012
-1.751701
-1.77158
-1.691831
-1.696669
-1.702137
-1.70842
-1.715787
-1.724635
-1.735615
-1.749901
-1.768756
-1.686721
-1.691
-1.695767
-1.701147
-1.707316
-1.714511
-1.723103
-1.733727
-1.747393
-1.764674
-1.68218
-1.686018
-1.690245
-1.694949
-1.700249
-1.706297
-1.713316
-1.721682
-1.731968
-1.745045
-1.761785
-1.678188
-1.681678
-1.685487
-1.689677
-1.694336
-1.699564
-1.705508
-1.712403
-1.720596
-1.730623
-1.743816
-1.759451
-1.674666
-1.677878
-1.681357
-1.68515
-1.689322
-1.693945
-1.699118
-1.705001
-1.711816
-1.719898
-1.730173
-1.743046
-1.757952
-1.671538
-1.674524
-1.677737
-1.681216
-1.68501
-1.68917
-1.693769
-1.698921
-1.704778
-1.711559
-1.719918
-1.73009
-1.742819
-1.757349
-1.7665
-1.750723
-1.769545
-1.737468
-1.751992
-1.771515
-1.726803
-1.738064
-1.752781
-1.772765
-1.717951
-1.727045
-1.738393
-1.753254
-1.773599
-1.710393
-1.717965
-1.727097
-1.738507
-1.75349
-1.774056
-1.703783
-1.710232
-1.71781
-1.726958
-1.738406
-1.753428
-1.774046
-1.697877
-1.703464
-1.709897
-1.717457
-1.726589
-1.737995
-1.75294
-1.773456
-1.692489
-1.697394
-1.702947
-1.709337
-1.716845
-1.725883
-1.737141
-1.751894
-1.771936
-1.687487
-1.691837
-1.696693
-1.702183
-1.708495
-1.715879
-1.72473
-1.735743
-1.750087
-1.769082
-1.682833
-1.686727
-1.691021
-1.695807
-1.70121
-1.707391
-1.714586
-1.723195
-1.733847
-1.747562
-1.765998
-1.678658
-1.682185
-1.686037
-1.69028
-1.695003
-1.700312
-1.706358
-1.713389
-1.72177
-1.732081
-1.7458
-1.762758
-1.674959
-1.678192
-1.681695
-1.685517
-1.689725
-1.694391
-1.699617
-1.705568
-1.712474
-1.720682
-1.731153
-1.744381
-1.760153
-1.671675
-1.67467
-1.677893
-1.681384
-1.685192
-1.689371
-1.693991
-1.699169
-1.70506
-1.711886
-1.720309
-1.730578
-1.743486
-1.75844
-1.668742
-1.671541
-1.674538
-1.677762
-1.681254
-1.685053
-1.689211
-1.693814
-1.698972
-1.704837
-1.711896
-1.720235
-1.730412
-1.743145
-1.757665
-1.762485
-1.748782
-1.766605
-1.736489
-1.750779
-1.769762
-1.726321
-1.737501
-1.752109
-1.771848
-1.717758
-1.726824
-1.738138
-1.752958
-1.773212
-1.710393
-1.717965
-1.727097
-1.738507
-1.75349
-1.774056
-1.703935
-1.710402
-1.718003
-1.727179
-1.738661
-1.753727
-1.774448
-1.69817
-1.70379
-1.710263
-1.717874
-1.727071
-1.73856
-1.753627
-1.774435
-1.692932
-1.697882
-1.70349
-1.709949
-1.717547
-1.726703
-1.738124
-1.753137
-1.773835
-1.688088
-1.692494
-1.697417
-1.702992
-1.709411
-1.716936
-1.725979
-1.73727
-1.752088
-1.772298
-1.683538
-1.687492
-1.691858
-1.696733
-1.702248
-1.708571
-1.715955
-1.724827
-1.735871
-1.750274
-1.770691
-1.679263
-1.682838
-1.686745
-1.691056
-1.695862
-1.701274
-1.707453
-1.71466
-1.723287
-1.733966
-1.748384
-1.767275
-1.675397
-1.678662
-1.682202
-1.686068
-1.690328
-1.695058
-1.700364
-1.706419
-1.713461
-1.721859
-1.73263
-1.746416
-1.763625
-1.671949
-1.674962
-1.678207
-1.681723
-1.68556
-1.689774
-1.694436
-1.699668
-1.705628
-1.712544
-1.721098
-1.731567
-1.744845
-1.760708
-1.66887
-1.671678
-1.674683
-1.677918
-1.681423
-1.685236
-1.689411
-1.694036
-1.69922
-1.705119
-1.712224
-1.720627
-1.730903
-1.743819
-1.758776
-1.666108
-1.668744
-1.671553
-1.674561
-1.677797
-1.681294
-1.685089
-1.689251
-1.693859
-1.699023
-1.705121
-1.712153
-1.720487
-1.730654
-1.743364
-1.758737
-1.746191
-1.762572
-1.734974
-1.748835
-1.766798
-1.725498
-1.736522
-1.750892
-1.770072
-1.717339
-1.726341
-1.737575
-1.752283
-1.772278
-1.710222
-1.717771
-1.726875
-1.738252
-1.753193
-1.773661
-1.703935
-1.710402
-1.718003
-1.727179
-1.738661
-1.753727
-1.774448
-1.698307
-1.703942
-1.710433
-1.718067
-1.727292
-1.738816
-1.753928
-1.774844
-1.693199
-1.698175
-1.703815
-1.710315
-1.717963
-1.727184
-1.73869
-1.753827
-1.774828
-1.688494
-1.692936
-1.697904
-1.703534
-1.710023
-1.717637
-1.726799
-1.738254
-1.753336
-1.774218
-1.684092
-1.688092
-1.692514
-1.697456
-1.703056
-1.709487
-1.717012
-1.726076
-1.737401
-1.752284
-1.774084
-1.679917
-1.683542
-1.68751
-1.691893
-1.696789
-1.702313
-1.708635
-1.716032
-1.724924
-1.736
-1.751197
-1.77253
-1.675962
-1.679267
-1.682854
-1.686776
-1.691105
-1.695918
-1.701327
-1.707515
-1.714735
-1.723379
-1.734549
-1.749122
-1.768567
-1.67236
-1.6754
-1.678677
-1.68223
-1.686111
-1.690377
-1.695104
-1.700417
-1.706479
-1.713533
-1.722286
-1.733069
-1.746944
-1.76435
-1.669128
-1.671952
-1.674976
-1.678232
-1.681761
-1.685604
-1.689814
-1.694482
-1.69972
-1.705687
-1.712886
-1.72142
-1.731902
-1.7452
-1.761098
-1.666229
-1.668873
-1.67169
-1.674706
-1.677954
-1.681462
-1.685272
-1.689451
-1.69408
-1.699271
-1.705404
-1.712482
-1.72088
-1.731147
-1.744042
-1.663617
-1.66611
-1.668755
-1.671574
-1.674593
-1.677834
-1.681327
-1.685125
-1.68929
-1.693903
-1.699268
-1.705335
-1.712357
-1.720675
-1.730814
-1.755846
-1.743766
-1.758813
-1.732994
-1.746242
-1.762736
-1.724248
-1.735008
-1.748944
-1.767076
-1.716633
-1.725519
-1.736596
-1.751061
-1.770476
-1.709855
-1.717353
-1.726393
-1.737689
-1.752513
-1.77271
-1.703783
-1.710232
-1.71781
-1.726958
-1.738406
-1.753428
-1.774046
-1.698307
-1.703942
-1.710433
-1.718067
-1.727292
-1.738816
-1.753928
-1.774844
-1.693323
-1.698312
-1.703967
-1.710485
-1.718156
-1.727406
-1.738946
-1.75413
-1.775243
-1.688738
-1.693202
-1.698196
-1.703859
-1.710388
-1.718053
-1.727279
-1.73882
-1.754029
-1.775224
-1.684466
-1.688497
-1.692955
-1.697942
-1.703597
-1.710098
-1.717712
-1.726894
-1.738385
-1.753537
-1.776108
-1.680431
-1.684095
-1.688109
-1.692548
-1.697512
-1.70312
-1.70955
-1.717089
-1.726173
-1.737533
-1.75325
-1.776088
-1.676571
-1.67992
-1.683558
-1.687541
-1.691943
-1.696845
-1.702367
-1.708699
-1.71611
-1.725022
-1.736635
-1.75217
-1.774817
-1.672889
-1.675964
-1.679281
-1.682882
-1.68682
-1.691154
-1.695964
-1.701381
-1.707577
-1.714809
-1.723826
-1.735055
-1.749834
-1.769806
-1.669515
-1.672362
-1.675414
-1.678702
-1.682269
-1.686155
-1.690418
-1.69515
-1.700469
-1.70654
-1.713881
-1.722621
-1.733437
-1.747364
-1.764881
-1.666473
-1.669131
-1.671964
-1.674998
-1.678267
-1.681801
-1.68564
-1.689854
-1.694527
-1.699771
-1.705975
-1.713145
-1.721677
-1.732154
-1.745438
-1.663732
-1.666231
-1.668884
-1.671711
-1.674738
-1.67799
-1.681495
-1.685308
-1.689491
-1.694125
-1.699517
-1.705618
-1.712685
-1.721068
-1.731308
-1.661253
-1.663619
-1.66612
-1.668775
-1.671604
-1.674626
-1.677863
-1.681359
-1.68516
-1.689329
-1.694117
-1.699448
-1.705503
-1.712507
-1.720798
-1.753933
-1.741881
-1.755915
-1.73115
-1.743814
-1.758956
-1.722633
-1.733028
-1.746343
-1.762975
-1.715572
-1.724271
-1.735081
-1.749105
-1.76744
-1.709239
-1.716648
-1.725572
-1.736708
-1.751285
-1.77088
-1.703457
-1.709865
-1.717393
-1.726476
-1.737841
-1.752744
-1.773081
-1.69817
-1.70379
-1.710263
-1.717874
-1.727071
-1.73856
-1.753627
-1.774435
-1.693323
-1.698312
-1.703967
-1.710485
-1.718156
-1.727406
-1.738946
-1.75413
-1.775243
-1.688852
-1.693327
-1.698333
-1.70401
-1.710558
-1.718245
-1.7275
-1.739077
-1.754333
-1.775646
-1.684692
-1.688741
-1.693221
-1.698234
-1.703921
-1.710462
-1.718127
-1.727375
-1.738951
-1.754231
-1.777177
-1.680779
-1.684469
-1.688513
-1.692989
-1.697997
-1.703661
-1.71016
-1.717788
-1.726991
-1.738517
-1.75452
-1.778146
-1.677051
-1.680433
-1.68411
-1.68814
-1.692597
-1.697568
-1.703174
-1.709613
-1.717166
-1.726272
-1.73818
-1.754251
-1.778479
-1.67346
-1.676573
-1.679934
-1.683586
-1.687585
-1.691993
-1.696893
-1.702422
-1.708764
-1.716189
-1.725502
-1.737286
-1.753335
-1.777761
-1.670013
-1.672891
-1.675977
-1.679307
-1.682921
-1.686864
-1.691195
-1.696011
-1.701434
-1.707639
-1.71517
-1.724207
-1.735535
-1.750482
-1.770838
-1.666838
-1.669517
-1.672374
-1.675437
-1.678737
-1.682308
-1.686191
-1.690458
-1.695195
-1.70052
-1.706831
-1.714148
-1.722898
-1.733721
-1.747651
-1.663963
-1.666475
-1.669142
-1.671985
-1.675031
-1.678304
-1.681834
-1.685676
-1.689894
-1.694571
-1.700018
-1.706189
-1.71335
-1.721868
-1.732318
-1.661362
-1.663733
-1.666241
-1.668903
-1.671741
-1.674772
-1.678019
-1.681527
-1.685344
-1.68953
-1.69434
-1.699697
-1.705785
-1.712834
-1.721189
-1.659001
-1.661254
-1.663628
-1.666138
-1.668803
-1.671635
-1.674653
-1.677893
-1.681391
-1.685196
-1.689519
-1.694272
-1.699588
-1.705624
-1.712602
-1.75299
-1.740627
-1.753998
-1.72972
-1.741928
-1.756046
-1.721135
-1.731184
-1.743909
-1.759166
-1.714209
-1.722658
-1.733099
-1.746493
-1.763287
-1.708318
-1.715589
-1.724325
-1.735192
-1.749319
-1.767805
-1.702911
-1.70925
-1.716689
-1.725656
-1.73686
-1.75151
-1.771228
-1.697877
-1.703464
-1.709897
-1.717457
-1.726589
-1.737995
-1.75294
-1.773456
-1.693199
-1.698175
-1.703815
-1.710315
-1.717963
-1.727184
-1.73869
-1.753827
-1.774828
-1.688852
-1.693327
-1.698333
-1.70401
-1.710558
-1.718245
-1.7275
-1.739077
-1.754333
-1.775646
-1.684798
-1.688855
-1.693345
-1.69837
-1.704072
-1.710631
-1.718319
-1.727595
-1.739208
-1.754537
-1.777628
-1.680988
-1.684694
-1.688757
-1.693254
-1.698288
-1.703984
-1.710523
-1.718202
-1.72747
-1.739083
-1.755226
-1.779227
-1.677376
-1.68078
-1.684483
-1.688543
-1.693037
-1.698052
-1.703713
-1.710222
-1.717864
-1.727088
-1.739163
-1.7555
-1.780462
-1.67391
-1.677053
-1.680447
-1.684138
-1.688184
-1.692647
-1.697614
-1.703228
-1.709678
-1.717244
-1.726754
-1.738832
-1.75541
-1.781322
-1.670551
-1.673462
-1.676586
-1.67996
-1.683626
-1.68763
-1.692035
-1.69694
-1.702477
-1.708829
-1.716573
-1.725986
-1.738063
-1.754779
-1.781789
-1.667308
-1.670014
-1.672902
-1.676
-1.679342
-1.682961
-1.686901
-1.691236
-1.696057
-1.701487
-1.707941
-1.715471
-1.724562
-1.735958
-1.750982
-1.664309
-1.66684
-1.669528
-1.672395
-1.675469
-1.678774
-1.682341
-1.686228
-1.690498
-1.69524
-1.70077
-1.707051
-1.714367
-1.723108
-1.733906
-1.661581
-1.663964
-1.666485
-1.669161
-1.672015
-1.675064
-1.678333
-1.681866
-1.685712
-1.689933
-1.694787
-1.700198
-1.706356
-1.713499
-1.721988
-1.659105
-1.661363
-1.663743
-1.666259
-1.668931
-1.671771
-1.674799
-1.678049
-1.68156
-1.685379
-1.68972
-1.694493
-1.699836
-1.705905
-1.712928
-1.656851
-1.659002
-1.661263
-1.663645
-1.666164
-1.668831
-1.67166
-1.67468
-1.677922
-1.681423
-1.685366
-1.689652
-1.69439
-1.699688
-1.705699
-1.740006
-1.753054
-1.728768
-1.740673
-1.754123
-1.719972
-1.729754
-1.742019
-1.756237
-1.712945
-1.72116
-1.731253
-1.74405
-1.759441
-1.70714
-1.714227
-1.722711
-1.733205
-1.74669
-1.7636
-1.702099
-1.708331
-1.715631
-1.724409
-1.73534
-1.749534
-1.768118
-1.697388
-1.70292
-1.709283
-1.716755
-1.725769
-1.737012
-1.751701
-1.77158
-1.692932
-1.697882
-1.70349
-1.709949
-1.717547
-1.726703
-1.738124
-1.753137
-1.773835
-1.688738
-1.693202
-1.698196
-1.703859
-1.710388
-1.718053
-1.727279
-1.73882
-1.754029
-1.775224
-1.684798
-1.688855
-1.693345
-1.69837
-1.704072
-1.710631
-1.718319
-1.727595
-1.739208
-1.754537
-1.777628
-1.681087
-1.684799
-1.688871
-1.693378
-1.698424
-1.704135
-1.710692
-1.718394
-1.727691
-1.73934
-1.755538
-1.779687
-1.677572
-1.68099
-1.684708
-1.688786
-1.693301
-1.698343
-1.704036
-1.710584
-1.718277
-1.727567
-1.739728
-1.75619
-1.781489
-1.674215
-1.677377
-1.680793
-1.68451
-1.688586
-1.693086
-1.698098
-1.703766
-1.710285
-1.717941
-1.727564
-1.739786
-1.756585
-1.783079
-1.670975
-1.673911
-1.677065
-1.680472
-1.684177
-1.688228
-1.692688
-1.697661
-1.703283
-1.709742
-1.717627
-1.727231
-1.739588
-1.756742
-1.78469
-1.667817
-1.670552
-1.673473
-1.67661
-1.679996
-1.683667
-1.687668
-1.692077
-1.696988
-1.702533
-1.709148
-1.716956
-1.726564
-1.739021
-1.756674
-1.789107
-1.664755
-1.66731
-1.670025
-1.672924
-1.676033
-1.679379
-1.682994
-1.686938
-1.691277
-1.696103
-1.701744
-1.708186
-1.715749
-1.72487
-1.736267
-1.66191
-1.66431
-1.66685
-1.669547
-1.672425
-1.675503
-1.678804
-1.682374
-1.686263
-1.690538
-1.695458
-1.700954
-1.707228
-1.714528
-1.723238
-1.659315
-1.661583
-1.663974
-1.666503
-1.669189
-1.672046
-1.675092
-1.678363
-1.681898
-1.685747
-1.690124
-1.69494
-1.700336
-1.706475
-1.71359
-1.656951
-1.659106
-1.661372
-1.66376
-1.666285
-1.668959
-1.671797
-1.674826
-1.678078
-1.681591
-1.685549
-1.689853
-1.69461
-1.699934
-1.705978
-1.654793
-1.656852
-1.65901
-1.661278
-1.663669
-1.666191
-1.668855
-1.671685
-1.674707
-1.677951
-1.681576
-1.685482
-1.689753
-1.694472
-1.699747
-1.728297
-1.740051
-1.753174
-1.719199
-1.728802
-1.740762
-1.754304
-1.711965
-1.719997
-1.72982
-1.742153
-1.756489
-1.706048
-1.712964
-1.721212
-1.731355
-1.744235
-1.759717
-1.701061
-1.707154
-1.714269
-1.722792
-1.733346
-1.746889
-1.763867
-1.696661
-1.702109
-1.708365
-1.715697
-1.724521
-1.735489
-1.749717
-1.768435
-1.692489
-1.697394
-1.702947
-1.709337
-1.716845
-1.725883
-1.737141
-1.751894
-1.771936
-1.688494
-1.692936
-1.697904
-1.703534
-1.710023
-1.717637
-1.726799
-1.738254
-1.753336
-1.774218
-1.684692
-1.688741
-1.693221
-1.698234
-1.703921
-1.710462
-1.718127
-1.727375
-1.738951
-1.754231
-1.777177
-1.681087
-1.684799
-1.688871
-1.693378
-1.698424
-1.704135
-1.710692
-1.718394
-1.727691
-1.73934
-1.755538
-1.779687
-1.677664
-1.681088
-1.684813
-1.6889
-1.693425
-1.698478
-1.704186
-1.710753
-1.718469
-1.727787
-1.739985
-1.756495
-1.781927
-1.674399
-1.677573
-1.681002
-1.684734
-1.688829
-1.69335
-1.698387
-1.704088
-1.710646
-1.718353
-1.728038
-1.74033
-1.757227
-1.783978
-1.671262
-1.674216
-1.677389
-1.680818
-1.684549
-1.68863
-1.693126
-1.698144
-1.703819
-1.710348
-1.718316
-1.728012
-1.740478
-1.757773
-1.786012
-1.668218
-1.670976
-1.673922
-1.677088
-1.680508
-1.684218
-1.688265
-1.692729
-1.697709
-1.703338
-1.710058
-1.718
-1.727786
-1.740455
-1.75826
-1.789472
-1.665237
-1.667818
-1.670563
-1.673495
-1.676643
-1.680033
-1.683701
-1.687706
-1.692119
-1.697037
-1.702805
-1.709462
-1.717413
-1.727278
-1.740273
-1.759924
-1.793482
-1.662334
-1.664756
-1.667319
-1.670045
-1.672954
-1.676067
-1.679409
-1.683028
-1.686974
-1.691318
-1.696327
-1.70195
-1.708412
-1.715986
-1.725084
-1.659628
-1.661911
-1.664319
-1.666868
-1.669575
-1.672456
-1.67553
-1.678833
-1.682406
-1.686299
-1.690731
-1.695614
-1.7011
-1.707356
-1.714623
-1.65715
-1.659315
-1.661591
-1.66399
-1.666529
-1.669217
-1.672071
-1.675119
-1.678392
-1.68193
-1.685918
-1.690256
-1.695056
-1.700433
-1.706545
-1.654888
-1.656951
-1.659114
-1.661387
-1.663784
-1.666312
-1.668983
-1.671822
-1.674853
-1.678107
-1.681745
-1.685664
-1.689952
-1.694691
-1.69999
-1.652817
-1.654793
-1.65686
-1.659025
-1.661301
-1.663694
-1.666213
-1.668878
-1.67171
-1.674734
-1.678091
-1.681678
-1.685568
-1.689821
-1.694518
-1.718815
-1.72833
-1.740139
-1.753351
-1.711313
-1.719224
-1.728867
-1.740892
-1.754542
-1.705201
-1.711985
-1.720049
-1.72992
-1.74233
-1.756742
-1.7001
-1.706063
-1.713006
-1.721291
-1.73149
-1.744421
-1.75995
-1.695734
-1.701072
-1.707188
-1.714334
-1.722901
-1.733488
-1.747057
-1.764134
-1.691831
-1.696669
-1.702137
-1.70842
-1.715787
-1.724635
-1.735615
-1.749901
-1.768756
-1.688088
-1.692494
-1.697417
-1.702992
-1.709411
-1.716936
-1.725979
-1.73727
-1.752088
-1.772298
-1.684466
-1.688497
-1.692955
-1.697942
-1.703597
-1.710098
-1.717712
-1.726894
-1.738385
-1.753537
-1.776108
-1.680988
-1.684694
-1.688757
-1.693254
-1.698288
-1.703984
-1.710523
-1.718202
-1.72747
-1.739083
-1.755226
-1.779227
-1.677664
-1.681088
-1.684813
-1.6889
-1.693425
-1.698478
-1.704186
-1.710753
-1.718469
-1.727787
-1.739985
-1.756495
-1.781927
-1.674486
-1.677665
-1.6811
-1.684839
-1.688942
-1.693473
-1.698523
-1.704238
-1.710814
-1.718544
-1.728256
-1.740577
-1.757513
-1.784365
-1.671436
-1.6744
-1.677584
-1.681026
-1.684773
-1.688872
-1.693389
-1.698433
-1.70414
-1.710708
-1.718722
-1.728465
-1.740982
-1.758336
-1.786705
-1.66849
-1.671263
-1.674226
-1.677411
-1.680853
-1.684589
-1.688666
-1.693167
-1.69819
-1.703873
-1.710656
-1.718662
-1.728514
-1.741239
-1.759058
-1.789996
-1.665617
-1.668218
-1.670986
-1.673943
-1.677121
-1.680545
-1.684251
-1.688302
-1.692771
-1.697757
-1.703606
-1.710363
-1.718437
-1.728426
-1.741442
-1.760312
-1.793223
-1.662793
-1.665238
-1.667828
-1.670582
-1.673526
-1.676677
-1.680064
-1.683735
-1.687744
-1.692162
-1.697273
-1.70307
-1.709839
-1.71798
-1.728212
-1.742377
-1.761894
-1.796873
-1.660032
-1.662335
-1.664765
-1.667338
-1.670073
-1.672985
-1.676095
-1.679439
-1.683061
-1.687011
-1.691515
-1.696502
-1.702137
-1.708601
-1.716143
-1.65745
-1.659629
-1.66192
-1.664336
-1.666894
-1.669604
-1.672482
-1.675557
-1.678863
-1.682438
-1.686471
-1.690864
-1.695736
-1.701203
-1.707426
-1.655079
-1.657151
-1.659323
-1.661607
-1.664015
-1.666556
-1.669241
-1.672096
-1.675146
-1.678421
-1.682084
-1.686032
-1.690354
-1.695135
-1.700486
-1.652908
-1.654888
-1.656959
-1.659129
-1.66141
-1.663809
-1.666334
-1.669006
-1.671846
-1.674879
-1.678247
-1.681846
-1.685749
-1.690018
-1.694735
-1.650916
-1.652817
-1.6548
-1.656873
-1.659047
-1.661325
-1.663714
-1.666234
-1.668901
-1.671734
-1.674862
-1.67818
-1.681752
-1.685624
-1.689856
-1.710989
-1.71884
-1.728395
-1.740267
-1.753583
-1.704636
-1.711332
-1.719275
-1.728965
-1.741063
-1.754781
-1.699354
-1.705216
-1.712026
-1.720127
-1.730051
-1.742507
-1.756955
-1.694875
-1.700112
-1.706097
-1.71307
-1.721397
-1.731626
-1.744578
-1.760183
-1.690993
-1.695743
-1.701101
-1.707242
-1.714422
-1.723011
-1.733607
-1.747225
-1.764404
-1.687487
-1.691837
-1.696693
-1.702183
-1.708495
-1.715879
-1.72473
-1.735743
-1.750087
-1.769082
-1.684092
-1.688092
-1.692514
-1.697456
-1.703056
-1.709487
-1.717012
-1.726076
-1.737401
-1.752284
-1.774084
-1.680779
-1.684469
-1.688513
-1.692989
-1.697997
-1.703661
-1.71016
-1.717788
-1.726991
-1.738517
-1.75452
-1.778146
-1.677572
-1.68099
-1.684708
-1.688786
-1.693301
-1.698343
-1.704036
-1.710584
-1.718277
-1.727567
-1.739728
-1.75619
-1.781489
-1.674486
-1.677665
-1.6811
-1.684839
-1.688942
-1.693473
-1.698523
-1.704238
-1.710814
-1.718544
-1.728256
-1.740577
-1.757513
-1.784365
-1.671518
-1.674486
-1.677676
-1.681124
-1.684878
-1.688985
-1.693512
-1.698568
-1.70429
-1.710876
-1.71891
-1.728674
-1.741212
-1.75859
-1.787012
-1.668655
-1.671436
-1.67441
-1.677606
-1.681061
-1.684812
-1.688907
-1.693429
-1.698478
-1.704193
-1.711011
-1.71905
-1.728932
-1.741682
-1.759511
-1.790375
-1.665876
-1.66849
-1.671272
-1.674247
-1.677443
-1.680889
-1.684621
-1.688702
-1.693207
-1.698236
-1.704135
-1.710937
-1.719053
-1.729067
-1.742062
-1.760727
-1.793307
-1.663155
-1.665618
-1.668228
-1.671005
-1.673974
-1.677155
-1.680575
-1.684284
-1.688339
-1.692813
-1.69799
-1.703862
-1.710721
-1.718941
-1.729154
-1.742744
-1.762
-1.796437
-1.660469
-1.662793
-1.665246
-1.667846
-1.670611
-1.673557
-1.676706
-1.680095
-1.683769
-1.687782
-1.692371
-1.697501
-1.703388
-1.710307
-1.718723
-1.729762
-1.74363
-1.763481
-1.799607
-1.657836
-1.660032
-1.662343
-1.664781
-1.667364
-1.670102
-1.673011
-1.676122
-1.679469
-1.683093
-1.687187
-1.691666
-1.696659
-1.702291
-1.70872
-1.655365
-1.65745
-1.659636
-1.661935
-1.664361
-1.666921
-1.669627
-1.672507
-1.675584
-1.678892
-1.682593
-1.686587
-1.690968
-1.69582
-1.701255
-1.653091
-1.655079
-1.657158
-1.659338
-1.66163
-1.66404
-1.666577
-1.669264
-1.672121
-1.675172
-1.678561
-1.682184
-1.686116
-1.690419
-1.695175
-1.651003
-1.652908
-1.654895
-1.656973
-1.659151
-1.661434
-1.663829
-1.666355
-1.669029
-1.671871
-1.675007
-1.678336
-1.681919
-1.685804
-1.690052
-1.649083
-1.650916
-1.652823
-1.654813
-1.656894
-1.659069
-1.661344
-1.663735
-1.666256
-1.668923
-1.671852
-1.674942
-1.678245
-1.681799
-1.685651
-1.704356
-1.711008
-1.718891
-1.728491
-1.740435
-1.753816
-1.698857
-1.704652
-1.711373
-1.719352
-1.729093
-1.741235
-1.754983
-1.694208
-1.699366
-1.70525
-1.712089
-1.72023
-1.730183
-1.742657
-1.757167
-1.690216
-1.694884
-1.700141
-1.706151
-1.713156
-1.721503
-1.731741
-1.744734
-1.760416
-1.686721
-1.691
-1.695767
-1.701147
-1.707316
-1.714511
-1.723103
-1.733727
-1.747393
-1.764674
-1.683538
-1.687492
-1.691858
-1.696733
-1.702248
-1.708571
-1.715955
-1.724827
-1.735871
-1.750274
-1.770691
-1.680431
-1.684095
-1.688109
-1.692548
-1.697512
-1.70312
-1.70955
-1.717089
-1.726173
-1.737533
-1.75325
-1.776088
-1.677376
-1.68078
-1.684483
-1.688543
-1.693037
-1.698052
-1.703713
-1.710222
-1.717864
-1.727088
-1.739163
-1.7555
-1.780462
-1.674399
-1.677573
-1.681002
-1.684734
-1.688829
-1.69335
-1.698387
-1.704088
-1.710646
-1.718353
-1.728038
-1.74033
-1.757227
-1.783978
-1.671518
-1.674486
-1.677676
-1.681124
-1.684878
-1.688985
-1.693512
-1.698568
-1.70429
-1.710876
-1.71891
-1.728674
-1.741212
-1.75859
-1.787012
-1.668732
-1.671518
-1.674496
-1.677697
-1.681159
-1.684917
-1.68902
-1.693552
-1.698613
-1.704342
-1.711176
-1.719229
-1.729126
-1.741887
-1.759722
-1.790565
-1.666033
-1.668655
-1.671446
-1.67443
-1.677638
-1.681097
-1.684844
-1.688943
-1.693469
-1.698524
-1.704449
-1.711275
-1.719411
-1.729437
-1.742426
-1.761026
-1.793454
-1.663401
-1.665876
-1.668499
-1.671291
-1.674277
-1.677477
-1.680919
-1.684654
-1.688739
-1.693248
-1.698463
-1.70437
-1.711256
-1.719486
-1.729668
-1.743101
-1.762217
-1.796304
-1.660815
-1.663155
-1.665626
-1.668246
-1.671033
-1.674005
-1.677182
-1.680605
-1.684318
-1.688377
-1.693019
-1.69821
-1.704165
-1.711136
-1.719516
-1.730098
-1.743792
-1.763509
-1.799139
-1.658254
-1.660469
-1.662801
-1.665264
-1.667873
-1.670641
-1.673583
-1.676734
-1.680126
-1.683804
-1.687968
-1.692569
-1.697776
-1.703786
-1.710922
-1.719945
-1.730675
-1.74464
-1.764804
-1.801824
-1.655735
-1.657836
-1.66004
-1.662359
-1.664806
-1.667391
-1.670125
-1.673036
-1.67615
-1.679499
-1.683252
-1.687318
-1.691801
-1.696787
-1.702383
-1.653366
-1.655366
-1.657458
-1.659651
-1.661958
-1.664386
-1.666942
-1.669651
-1.672531
-1.675611
-1.679033
-1.682695
-1.686675
-1.691036
-1.695858
-1.651179
-1.653091
-1.655086
-1.657172
-1.65936
-1.661653
-1.66406
-1.666599
-1.669287
-1.672145
-1.6753
-1.678649
-1.682256
-1.686169
-1.690449
-1.649168
-1.651003
-1.652915
-1.654908
-1.656993
-1.659173
-1.661453
-1.66385
-1.666377
-1.669052
-1.671989
-1.675086
-1.6784
-1.681965
-1.685829
-1.647314
-1.649084
-1.650922
-1.652836
-1.654833
-1.656915
-1.659087
-1.661363
-1.663755
-1.666277
-1.669032
-1.671924
-1.674998
-1.678285
-1.68182
-1.69861
-1.704372
-1.711049
-1.718967
-1.728618
-1.740605
-1.754013
-1.693763
-1.698869
-1.704686
-1.711436
-1.719453
-1.729222
-1.74138
-1.755184
-1.689613
-1.694218
-1.699395
-1.705303
-1.712174
-1.720334
-1.730294
-1.742805
-1.757379
-1.686012
-1.690224
-1.694909
-1.700186
-1.706223
-1.713244
-1.721593
-1.731855
-1.74489
-1.760649
-1.682833
-1.686727
-1.691021
-1.695807
-1.70121
-1.707391
-1.714586
-1.723195
-1.733847
-1.747562
-1.765998
-1.679917
-1.683542
-1.68751
-1.691893
-1.696789
-1.702313
-1.708635
-1.716032
-1.724924
-1.736
-1.751197
-1.77253
-1.677051
-1.680433
-1.68411
-1.68814
-1.692597
-1.697568
-1.703174
-1.709613
-1.717166
-1.726272
-1.73818
-1.754251
-1.778479
-1.674215
-1.677377
-1.680793
-1.68451
-1.688586
-1.693086
-1.698098
-1.703766
-1.710285
-1.717941
-1.727564
-1.739786
-1.756585
-1.783079
-1.671436
-1.6744
-1.677584
-1.681026
-1.684773
-1.688872
-1.693389
-1.698433
-1.70414
-1.710708
-1.718722
-1.728465
-1.740982
-1.758336
-1.786705
-1.668732
-1.671518
-1.674496
-1.677697
-1.681159
-1.684917
-1.68902
-1.693552
-1.698613
-1.704342
-1.711176
-1.719229
-1.729126
-1.741887
-1.759722
-1.790565
-1.666106
-1.668732
-1.671527
-1.674516
-1.677729
-1.681194
-1.684948
-1.689055
-1.693592
-1.698658
-1.704596
-1.711433
-1.719577
-1.729609
-1.742599
-1.761178
-1.793547
-1.663551
-1.666032
-1.668664
-1.671464
-1.67446
-1.677671
-1.681126
-1.684876
-1.688979
-1.693509
-1.698746
-1.70467
-1.711568
-1.719803
-1.729975
-1.743356
-1.762409
-1.796299
-1.66105
-1.663401
-1.665884
-1.668517
-1.671319
-1.674308
-1.677504
-1.680949
-1.684687
-1.688776
-1.693448
-1.698664
-1.704638
-1.71161
-1.719957
-1.73041
-1.744006
-1.763632
-1.798917
-1.658584
-1.660815
-1.663163
-1.665643
-1.668272
-1.671063
-1.674031
-1.67721
-1.680636
-1.684352
-1.688561
-1.693211
-1.698471
-1.704517
-1.711611
-1.720252
-1.730843
-1.744732
-1.764817
-1.801378
-1.656135
-1.658254
-1.660477
-1.662817
-1.665289
-1.6679
-1.670665
-1.67361
-1.676763
-1.680158
-1.683972
-1.688143
-1.69281
-1.69812
-1.70431
-1.711927
-1.720659
-1.731412
-1.745479
-1.765903
-1.803599
-1.65372
-1.655735
-1.657843
-1.660055
-1.662382
-1.664832
-1.667413
-1.670149
-1.673061
-1.676177
-1.679643
-1.683367
-1.687434
-1.691908
-1.696858
-1.651443
-1.653366
-1.655372
-1.657471
-1.659673
-1.661982
-1.664406
-1.666964
-1.669674
-1.672556
-1.67574
-1.679122
-1.68277
-1.686731