/*--------------------------------*- C++ -*----------------------------------*\
| =========                 |                                                 |
| \\      /  F ield         | OpenFOAM: The Open Source CFD Toolbox           |
|  \\    /   O peration     | Version:  2306                                  |
|   \\  /    A nd           | Website:  www.openfoam.com                      |
|    \\/     M anipulation  |                                                 |
\*---------------------------------------------------------------------------*/
FoamFile
{
    version     2.0;
    format      ascii;
    arch        "LSB;label=32;scalar=64";
    class       volScalarField;
    location    "0.9/fuel";
    object      T;
}
// * * * * * * * * * * * * * * * * * * * * * * * * * * * * * * * * * * * * * //

dimensions      [0 0 0 1 0 0 0];

internalField   nonuniform List<scalar> 
16000
(
1150.788
1150.642
1152.515
1150.799
1150.306
1152.503
1150.654
1154.102
1152.522
1150.816
1149.684
1152.474
1150.319
1154.127
1152.51
1150.671
1155.587
1154.105
1152.534
1150.838
1148.645
1152.414
1149.701
1154.183
1152.48
1150.338
1155.624
1154.13
1152.522
1150.693
1157.014
1155.587
1154.113
1152.55
1150.864
1147.13
1152.3
1148.668
1154.279
1152.419
1149.722
1155.705
1154.185
1152.491
1150.361
1157.054
1155.623
1154.138
1152.538
1150.72
1158.398
1157.011
1155.59
1154.125
1152.571
1150.896
1145.416
1152.103
1147.163
1154.421
1152.303
1148.696
1155.848
1154.279
1152.429
1149.749
1157.141
1155.704
1154.192
1152.507
1150.39
1158.437
1157.05
1155.626
1154.149
1152.558
1150.753
1159.74
1158.392
1157.012
1155.598
1154.14
1152.597
1150.928
1143.851
1151.809
1145.465
1154.591
1152.101
1147.202
1156.069
1154.416
1152.31
1148.729
1157.296
1155.844
1154.283
1152.443
1149.781
1158.523
1157.137
1155.706
1154.202
1152.527
1150.424
1159.777
1158.43
1157.05
1155.634
1154.164
1152.584
1150.786
1161.04
1159.732
1158.39
1157.016
1155.61
1154.161
1152.623
1150.96
1142.686
1151.481
1143.915
1154.719
1151.807
1145.519
1156.357
1154.581
1152.104
1147.246
1157.538
1156.061
1154.417
1152.322
1148.768
1158.677
1157.289
1155.844
1154.291
1152.462
1149.819
1159.86
1158.516
1157.136
1155.712
1154.217
1152.552
1150.459
1161.075
1159.769
1158.428
1157.054
1155.645
1154.185
1152.609
1150.819
1162.296
1161.03
1159.728
1158.391
1157.024
1155.626
1154.182
1152.649
1150.993
1142.071
1151.201
1142.762
1154.783
1151.48
1143.983
1156.624
1154.704
1151.81
1145.577
1157.859
1156.343
1154.575
1152.112
1147.294
1158.918
1157.527
1156.057
1154.421
1152.339
1148.813
1160.008
1158.668
1157.286
1155.849
1154.304
1152.486
1149.859
1161.154
1159.852
1158.513
1157.139
1155.723
1154.236
1152.577
1150.495
1162.33
1161.065
1159.764
1158.429
1157.062
1155.661
1154.205
1152.635
1150.853
1163.508
1162.285
1161.024
1159.727
1158.397
1157.037
1155.643
1154.203
1152.675
1151.026
1142.071
1151.042
1142.153
1154.803
1151.204
1142.842
1156.824
1154.766
1151.485
1144.056
1158.168
1156.604
1154.693
1151.817
1145.64
1159.241
1157.842
1156.332
1154.573
1152.125
1147.349
1160.241
1158.906
1157.521
1156.057
1154.43
1152.36
1148.859
1161.295
1159.998
1158.663
1157.287
1155.857
1154.321
1152.51
1149.898
1162.405
1161.144
1159.846
1158.513
1157.146
1155.737
1154.255
1152.602
1150.531
1163.54
1162.318
1161.059
1159.763
1158.434
1157.074
1155.677
1154.226
1152.661
1150.886
1164.674
1163.496
1162.278
1161.021
1159.73
1158.406
1157.049
1155.659
1154.224
1152.701
1151.186
1142.686
1151.042
1142.153
1154.804
1151.046
1142.239
1156.949
1154.786
1151.211
1142.926
1158.412
1156.801
1154.754
1151.494
1144.133
1159.556
1158.147
1156.589
1154.687
1151.829
1145.708
1160.553
1159.223
1157.83
1156.326
1154.576
1152.143
1147.404
1161.517
1160.227
1158.897
1157.518
1156.061
1154.443
1152.382
1148.906
1162.539
1161.283
1159.991
1158.661
1157.292
1155.869
1154.338
1152.535
1149.939
1163.611
1162.393
1161.137
1159.844
1158.517
1157.157
1155.752
1154.275
1152.628
1150.567
1164.704
1163.528
1162.311
1161.056
1159.766
1158.443
1157.086
1155.693
1154.246
1152.687
1151.052
1165.794
1164.661
1163.487
1162.274
1161.022
1159.736
1158.415
1157.062
1155.675
1154.244
1152.83
1151.492
1143.851
1151.201
1142.762
1154.804
1151.046
1142.239
1157.008
1154.787
1151.055
1142.329
1158.573
1156.925
1154.773
1151.223
1143.013
1159.809
1158.387
1156.783
1154.746
1151.508
1144.215
1160.861
1159.534
1158.129
1156.578
1154.686
1151.846
1145.776
1161.816
1160.535
1159.209
1157.821
1156.324
1154.583
1152.161
1147.46
1162.75
1161.503
1160.217
1158.892
1157.519
1156.07
1154.456
1152.405
1148.953
1163.739
1162.526
1161.275
1159.987
1158.664
1157.301
1155.882
1154.356
1152.559
1149.98
1164.773
1163.599
1162.385
1161.133
1159.846
1158.525
1157.168
1155.767
1154.294
1152.654
1150.744
1165.823
1164.691
1163.519
1162.306
1161.057
1159.772
1158.452
1157.098
1155.709
1154.266
1152.815
1151.373
1166.869
1165.781
1164.652
1163.482
1162.273
1161.027
1159.743
1158.425
1157.074
1155.692
1154.348
1153.064
1151.814
1145.416
1151.481
1143.915
1154.803
1151.204
1142.842
1157.008
1154.787
1151.055
1142.329
1158.653
1156.984
1154.775
1151.069
1142.422
1159.979
1158.547
1156.905
1154.765
1151.239
1143.106
1161.109
1159.784
1158.367
1156.769
1154.743
1151.526
1144.297
1162.111
1160.838
1159.516
1158.116
1156.571
1154.689
1151.863
1145.844
1163.035
1161.797
1160.52
1159.199
1157.816
1156.326
1154.59
1152.18
1147.515
1163.94
1162.735
1161.491
1160.211
1158.891
1157.524
1156.078
1154.47
1152.427
1149.001
1164.894
1163.725
1162.516
1161.27
1159.987
1158.67
1157.31
1155.894
1154.373
1152.584
1150.18
1165.889
1164.76
1163.589
1162.38
1161.133
1159.851
1158.533
1157.179
1155.782
1154.314
1152.78
1151.1
1166.897
1165.81
1164.682
1163.513
1162.305
1161.061
1159.778
1158.461
1157.11
1155.724
1154.368
1153.049
1151.715
1167.898
1166.855
1165.771
1164.646
1163.48
1162.275
1161.031
1159.75
1158.434
1157.087
1155.774
1154.532
1153.3
1152.149
1147.13
1151.809
1145.465
1154.783
1151.48
1143.983
1156.949
1154.786
1151.211
1142.926
1158.653
1156.984
1154.775
1151.069
1142.422
1160.064
1158.626
1156.964
1154.767
1151.087
1142.52
1161.278
1159.953
1158.525
1156.89
1154.761
1151.26
1143.198
1162.35
1161.084
1159.763
1158.35
1156.759
1154.744
1151.545
1144.378
1163.317
1162.089
1160.82
1159.501
1158.107
1156.568
1154.692
1151.88
1145.912
1164.212
1163.016
1161.782
1160.509
1159.193
1157.816
1156.328
1154.598
1152.198
1147.571
1165.087
1163.924
1162.723
1161.484
1160.208
1158.894
1157.529
1156.087
1154.483
1152.45
1149.236
1166.005
1164.88
1163.714
1162.51
1161.268
1159.991
1158.676
1157.319
1155.907
1154.39
1152.706
1150.596
1166.96
1165.875
1164.749
1163.583
1162.378
1161.136
1159.857
1158.541
1157.19
1155.796
1154.41
1153.013
1151.49
1167.925
1166.883
1165.8
1164.675
1163.511
1162.308
1161.065
1159.784
1158.47
1157.122
1155.804
1154.548
1153.286
1152.075
1168.882
1167.884
1166.845
1165.764
1164.642
1163.481
1162.278
1161.036
1159.756
1158.443
1157.15
1155.917
1154.714
1153.538
1152.493
1148.645
1152.103
1147.163
1154.719
1151.807
1145.519
1156.824
1154.766
1151.485
1144.056
1158.573
1156.925
1154.773
1151.223
1143.013
1160.064
1158.626
1156.964
1154.767
1151.087
1142.52
1161.362
1160.037
1158.603
1156.948
1154.763
1151.11
1142.618
1162.514
1161.251
1159.93
1158.507
1156.879
1154.762
1151.281
1143.29
1163.546
1162.326
1161.063
1159.745
1158.338
1156.753
1154.745
1151.564
1144.458
1164.481
1163.295
1162.07
1160.805
1159.491
1158.101
1156.565
1154.695
1151.897
1145.979
1165.347
1164.193
1163
1161.77
1160.502
1159.19
1157.815
1156.331
1154.605
1152.217
1147.839
1166.19
1165.071
1163.912
1162.714
1161.479
1160.208
1158.896
1157.534
1156.095
1154.497
1152.561
1149.724
1167.072
1165.991
1164.869
1163.707
1162.507
1161.27
1159.994
1158.681
1157.328
1155.919
1154.477
1152.937
1151.068
1167.985
1166.946
1165.864
1164.742
1163.58
1162.38
1161.14
1159.862
1158.549
1157.201
1155.87
1154.58
1153.253
1151.908
1168.908
1167.911
1166.872
1165.793
1164.672
1163.512
1162.31
1161.069
1159.791
1158.479
1157.183
1155.942
1154.725
1153.526
1152.447
1169.821
1168.868
1167.873
1166.837
1165.76
1164.642
1163.482
1162.28
1161.04
1159.763
1158.491
1157.26
1156.057
1154.893
1153.777
1149.684
1152.3
1148.668
1154.591
1152.101
1147.202
1156.624
1154.704
1151.81
1145.577
1158.412
1156.801
1154.754
1151.494
1144.133
1159.979
1158.547
1156.905
1154.765
1151.239
1143.106
1161.362
1160.037
1158.603
1156.948
1154.763
1151.11
1142.618
1162.595
1161.335
1160.013
1158.584
1156.936
1154.764
1151.133
1142.715
1163.703
1162.488
1161.229
1159.911
1158.493
1156.872
1154.763
1151.302
1143.38
1164.701
1163.522
1162.305
1161.046
1159.732
1158.33
1156.748
1154.747
1151.583
1144.538
1165.605
1164.46
1163.276
1162.055
1160.794
1159.484
1158.096
1156.563
1154.698
1151.915
1146.299
1166.439
1165.328
1164.177
1162.988
1161.762
1160.498
1159.188
1157.814
1156.333
1154.613
1152.309
1148.335
1167.249
1166.173
1165.058
1163.902
1162.709
1161.478
1160.209
1158.898
1157.539
1156.103
1154.563
1152.781
1150.289
1168.093
1167.057
1165.979
1164.861
1163.703
1162.507
1161.271
1159.998
1158.687
1157.336
1155.981
1154.628
1153.182
1151.592
1168.966
1167.971
1166.934
1165.857
1164.738
1163.58
1162.381
1161.143
1159.867
1158.557
1157.256
1155.996
1154.747
1153.499
1152.346
1169.846
1168.894
1167.9
1166.864
1165.788
1164.672
1163.512
1162.312
1161.073
1159.797
1158.524
1157.287
1156.076
1154.9
1153.769
1170.716
1169.807
1168.857
1167.865
1166.832
1165.759
1164.642
1163.483
1162.283
1161.044
1159.797
1158.571
1157.365
1156.193
1155.071
1150.306
1152.414
1149.701
1154.421
1152.303
1148.696
1156.357
1154.581
1152.104
1147.246
1158.168
1156.604
1154.693
1151.817
1145.64
1159.809
1158.387
1156.783
1154.746
1151.508
1144.215
1161.278
1159.953
1158.525
1156.89
1154.761
1151.26
1143.198
1162.595
1161.335
1160.013
1158.584
1156.936
1154.764
1151.133
1142.715
1163.781
1162.569
1161.312
1159.994
1158.57
1156.929
1154.765
1151.155
1142.811
1164.851
1163.677
1162.466
1161.21
1159.897
1158.483
1156.865
1154.764
1151.324
1143.47
1165.815
1164.677
1163.501
1162.288
1161.032
1159.723
1158.321
1156.742
1154.748
1151.601
1144.914
1166.687
1165.583
1164.441
1163.261
1162.044
1160.786
1159.477
1158.09
1156.56
1154.702
1152
1146.837
1167.489
1166.42
1165.312
1164.165
1162.979
1161.757
1160.494
1159.185
1157.814
1156.335
1154.65
1152.486
1148.843
1168.264
1167.232
1166.16
1165.048
1163.896
1162.706
1161.477
1160.209
1158.901
1157.543
1156.144
1154.683
1153.023
1150.957
1169.07
1168.078
1167.044
1165.97
1164.856
1163.702
1162.507
1161.273
1160.001
1158.693
1157.38
1156.084
1154.778
1153.441
1152.165
1169.903
1168.952
1167.959
1166.926
1165.852
1164.737
1163.58
1162.383
1161.146
1159.873
1158.596
1157.347
1156.116
1154.913
1153.75
1170.74
1169.832
1168.882
1167.891
1166.86
1165.787
1164.671
1163.513
1162.314
1161.077
1159.829
1158.599
1157.386
1156.205
1155.073
1171.568
1170.702
1169.796
1168.848
1167.86
1166.83
1165.758
1164.642
1163.484
1162.286
1161.067
1159.853
1158.648
1157.466
1156.327
1150.642
1152.474
1150.319
1154.279
1152.419
1149.722
1156.069
1154.416
1152.31
1148.729
1157.859
1156.343
1154.575
1152.112
1147.294
1159.556
1158.147
1156.589
1154.687
1151.829
1145.708
1161.109
1159.784
1158.367
1156.769
1154.743
1151.526
1144.297
1162.514
1161.251
1159.93
1158.507
1156.879
1154.762
1151.281
1143.29
1163.781
1162.569
1161.312
1159.994
1158.57
1156.929
1154.765
1151.155
1142.811
1164.926
1163.755
1162.546
1161.293
1159.979
1158.559
1156.921
1154.766
1151.178
1142.906
1165.959
1164.826
1163.656
1162.447
1161.195
1159.885
1158.473
1156.858
1154.765
1151.345
1143.89
1166.889
1165.792
1164.657
1163.485
1162.274
1161.022
1159.713
1158.313
1156.737
1154.749
1151.692
1145.517
1167.727
1166.666
1165.565
1164.426
1163.25
1162.036
1160.779
1159.47
1158.085
1156.558
1154.719
1152.157
1147.337
1168.495
1167.47
1166.404
1165.299
1164.155
1162.974
1161.752
1160.49
1159.182
1157.813
1156.347
1154.722
1152.672
1149.354
1169.235
1168.247
1167.219
1166.15
1165.041
1163.893
1162.704
1161.476
1160.209
1158.903
1157.567
1156.212
1154.806
1153.297
1151.776
1170.003
1169.055
1168.066
1167.035
1165.964
1164.853
1163.7
1162.507
1161.274
1160.005
1158.722
1157.448
1156.181
1154.929
1153.713
1170.795
1169.888
1168.94
1167.951
1166.921
1165.85
1164.736
1163.58
1162.384
1161.149
1159.899
1158.659
1157.431
1156.231
1155.077
1171.592
1170.726
1169.82
1168.874
1167.886
1166.857
1165.785
1164.671
1163.514
1162.316
1161.097
1159.88
1158.669
1157.48
1156.333
1172.378
1171.554
1170.691
1169.787
1168.842
1167.857
1166.828
1165.756
1164.642
1163.485
1162.298
1161.103
1159.905
1158.72
1157.565
1150.788
1152.503
1150.654
1154.183
1152.48
1150.338
1155.848
1154.279
1152.429
1149.749
1157.538
1156.061
1154.417
1152.322
1148.768
1159.241
1157.842
1156.332
1154.573
1152.125
1147.349
1160.861
1159.534
1158.129
1156.578
1154.686
1151.846
1145.776
1162.35
1161.084
1159.763
1158.35
1156.759
1154.744
1151.545
1144.378
1163.703
1162.488
1161.229
1159.911
1158.493
1156.872
1154.763
1151.302
1143.38
1164.926
1163.755
1162.546
1161.293
1159.979
1158.559
1156.921
1154.766
1151.178
1142.906
1166.031
1164.901
1163.733
1162.527
1161.277
1159.967
1158.549
1156.914
1154.767
1151.201
1143.351
1167.027
1165.935
1164.805
1163.638
1162.432
1161.184
1159.874
1158.463
1156.851
1154.765
1151.446
1144.554
1167.921
1166.866
1165.772
1164.64
1163.471
1162.264
1161.012
1159.703
1158.305
1156.731
1154.757
1151.852
1146.053
1168.725
1167.706
1166.648
1165.55
1164.415
1163.241
1162.027
1160.771
1159.464
1158.08
1156.546
1154.755
1152.314
1147.794
1169.458
1168.476
1167.454
1166.392
1165.29
1164.149
1162.968
1161.747
1160.486
1159.18
1157.81
1156.37
1154.795
1152.861
1149.851
1170.163
1169.219
1168.234
1167.208
1166.142
1165.036
1163.889
1162.701
1161.475
1160.209
1158.913
1157.601
1156.274
1154.934
1153.618
1170.893
1169.988
1169.042
1168.056
1167.029
1165.961
1164.851
1163.699
1162.507
1161.276
1160.021
1158.763
1157.508
1156.273
1155.081
1171.645
1170.781
1169.876
1168.931
1167.945
1166.918
1165.848
1164.735
1163.58
1162.385
1161.165
1159.938
1158.715
1157.51
1156.344
1172.401
1171.578
1170.715
1169.812
1168.868
1167.883
1166.855
1165.784
1164.67
1163.514
1162.327
1161.128
1159.926
1158.734
1157.572
1173.145
1172.364
1171.543
1170.682
1169.781
1168.839
1167.854
1166.826
1165.755
1164.641
1163.49
1162.317
1161.134
1159.954
1158.79
1152.515
1150.799
1154.127
1152.51
1150.671
1155.705
1154.185
1152.491
1150.361
1157.296
1155.844
1154.283
1152.443
1149.781
1158.918
1157.527
1156.057
1154.421
1152.339
1148.813
1160.553
1159.223
1157.83
1156.326
1154.576
1152.143
1147.404
1162.111
1160.838
1159.516
1158.116
1156.571
1154.689
1151.863
1145.844
1163.546
1162.326
1161.063
1159.745
1158.338
1156.753
1154.745
1151.564
1144.458
1164.851
1163.677
1162.466
1161.21
1159.897
1158.483
1156.865
1154.764
1151.324
1143.47
1166.031
1164.901
1163.733
1162.527
1161.277
1159.967
1158.549
1156.914
1154.767
1151.201
1143.351
1167.097
1166.007
1164.88
1163.715
1162.512
1161.265
1159.955
1158.538
1156.907
1154.768
1151.309
1144.048
1168.055
1167.004
1165.914
1164.787
1163.623
1162.421
1161.172
1159.863
1158.453
1156.845
1154.77
1151.617
1145.131
1168.913
1167.899
1166.847
1165.756
1164.627
1163.461
1162.254
1161.002
1159.694
1158.297
1156.706
1154.776
1152.006
1146.519
1169.681
1168.705
1167.689
1166.633
1165.539
1164.406
1163.233
1162.019
1160.763
1159.457
1158.054
1156.532
1154.795
1152.468
1148.195
1170.379
1169.44
1168.461
1167.441
1166.382
1165.283
1164.143
1162.962
1161.742
1160.482
1159.167
1157.804
1156.391
1154.866
1153.045
1150.79
1171.048
1170.147
1169.205
1168.223
1167.2
1166.137
1165.032
1163.886
1162.699
1161.473
1160.21
1158.922
1157.626
1156.332
1155.073
1171.74
1170.878
1169.975
1169.033
1168.049
1167.025
1165.958
1164.849
1163.698
1162.506
1161.282
1160.04
1158.794
1157.561
1156.362
1172.452
1171.631
1170.769
1169.867
1168.925
1167.942
1166.915
1165.846
1164.734
1163.58
1162.392
1161.185
1159.971
1158.765
1157.586
1173.167
1172.387
1171.566
1170.706
1169.805
1168.864
1167.88
1166.853
1165.782
1164.669
1163.518
1162.342
1161.154
1159.967
1158.797
1173.871
1173.131
1172.352
1171.534
1170.676
1169.777
1168.836
1167.852
1166.824
1165.754
1164.64
1163.494
1162.332
1161.163
1160
1154.102
1152.522
1150.816
1155.624
1154.13
1152.522
1150.693
1157.141
1155.704
1154.192
1152.507
1150.39
1158.677
1157.289
1155.844
1154.291
1152.462
1149.819
1160.241
1158.906
1157.521
1156.057
1154.43
1152.36
1148.859
1161.816
1160.535
1159.209
1157.821
1156.324
1154.583
1152.161
1147.46
1163.317
1162.089
1160.82
1159.501
1158.107
1156.568
1154.692
1151.88
1145.912
1164.701
1163.522
1162.305
1161.046
1159.732
1158.33
1156.748
1154.747
1151.583
1144.538
1165.959
1164.826
1163.656
1162.447
1161.195
1159.885
1158.473
1156.858
1154.765
1151.345
1143.89
1167.097
1166.007
1164.88
1163.715
1162.512
1161.265
1159.955
1158.538
1156.907
1154.768
1151.309
1144.048
1168.122
1167.073
1165.986
1164.862
1163.7
1162.5
1161.253
1159.943
1158.527
1156.899
1154.772
1151.489
1144.651
1169.042
1168.032
1166.984
1165.897
1164.773
1163.612
1162.409
1161.161
1159.852
1158.444
1156.812
1154.783
1151.777
1145.625
1169.863
1168.891
1167.881
1166.831
1165.743
1164.617
1163.45
1162.243
1160.992
1159.685
1158.256
1156.668
1154.798
1152.152
1146.915
1170.595
1169.661
1168.687
1167.674
1166.622
1165.53
1164.397
1163.224
1162.011
1160.756
1159.424
1158.015
1156.522
1154.836
1152.612
1148.896
1171.258
1170.361
1169.425
1168.448
1167.431
1166.375
1165.276
1164.137
1162.957
1161.737
1160.462
1159.142
1157.796
1156.409
1154.932
1153.403
1151.351
1171.891
1171.032
1170.133
1169.194
1168.214
1167.195
1166.132
1165.028
1163.882
1162.696
1161.465
1160.2
1158.921
1157.641
1156.386
1172.545
1171.725
1170.865
1169.965
1169.025
1168.045
1167.021
1165.955
1164.846
1163.696
1162.505
1161.283
1160.05
1158.818
1157.608
1173.218
1172.438
1171.619
1170.76
1169.86
1168.921
1167.938
1166.912
1165.844
1164.732
1163.579
1162.396
1161.198
1159.998
1158.811
1173.893
1173.154
1172.375
1171.557
1170.699
1169.802
1168.861
1167.877
1166.85
1165.781
1164.666
1163.518
1162.351
1161.176
1160.006
1174.557
1173.858
1173.12
1172.343
1171.527
1170.672
1169.774
1168.833
1167.849
1166.822
1165.747
1164.632
1163.495
1162.344
1161.189
1155.587
1154.105
1152.534
1150.838
1157.054
1155.623
1154.138
1152.538
1150.72
1158.523
1157.137
1155.706
1154.202
1152.527
1150.424
1160.008
1158.668
1157.286
1155.849
1154.304
1152.486
1149.859
1161.517
1160.227
1158.897
1157.518
1156.061
1154.443
1152.382
1148.906
1163.035
1161.797
1160.52
1159.199
1157.816
1156.326
1154.59
1152.18
1147.515
1164.481
1163.295
1162.07
1160.805
1159.491
1158.101
1156.565
1154.695
1151.897
1145.979
1165.815
1164.677
1163.501
1162.288
1161.032
1159.723
1158.321
1156.742
1154.748
1151.601
1144.914
1167.027
1165.935
1164.805
1163.638
1162.432
1161.184
1159.874
1158.463
1156.851
1154.765
1151.446
1144.554
1168.122
1167.073
1165.986
1164.862
1163.7
1162.5
1161.253
1159.943
1158.527
1156.899
1154.772
1151.489
1144.651
1169.106
1168.099
1167.053
1165.969
1164.847
1163.688
1162.488
1161.241
1159.931
1158.517
1156.864
1154.783
1151.656
1145.163
1169.987
1169.02
1168.013
1166.967
1165.884
1164.762
1163.6
1162.398
1161.149
1159.841
1158.395
1156.762
1154.798
1151.927
1146.037
1170.771
1169.842
1168.873
1167.865
1166.818
1165.733
1164.606
1163.44
1162.233
1160.982
1159.638
1158.194
1156.638
1154.823
1152.288
1147.589
1171.467
1170.576
1169.644
1168.673
1167.663
1166.613
1165.521
1164.389
1163.216
1162.003
1160.718
1159.37
1157.98
1156.515
1154.874
1152.901
1149.647
1172.095
1171.24
1170.346
1169.412
1168.438
1167.424
1166.368
1165.27
1164.13
1162.951
1161.712
1160.424
1159.116
1157.786
1156.423
1155.051
1153.627
1151.673
1172.691
1171.874
1171.018
1170.122
1169.185
1168.209
1167.189
1166.127
1165.023
1163.878
1162.681
1161.44
1160.179
1158.908
1157.646
1173.308
1172.53
1171.712
1170.855
1169.958
1169.021
1168.041
1167.017
1165.952
1164.844
1163.687
1162.491
1161.275
1160.051
1158.836
1173.942
1173.204
1172.426
1171.609
1170.753
1169.856
1168.917
1167.935
1166.909
1165.841
1164.725
1163.57
1162.393
1161.206
1160.021
1174.578
1173.88
1173.142
1172.366
1171.551
1170.695
1169.798
1168.857
1167.874
1166.848
1165.772
1164.655
1163.513
1162.357
1161.195
1175.203
1174.544
1173.847
1173.111
1172.337
1171.523
1170.668
1169.77
1168.83
1167.846
1166.811
1165.73
1164.622
1163.493
1162.353
1157.014
1155.587
1154.113
1152.55
1150.864
1158.437
1157.05
1155.626
1154.149
1152.558
1150.753
1159.86
1158.516
1157.136
1155.712
1154.217
1152.552
1150.459
1161.295
1159.998
1158.663
1157.287
1155.857
1154.321
1152.51
1149.898
1162.75
1161.503
1160.217
1158.892
1157.519
1156.07
1154.456
1152.405
1148.953
1164.212
1163.016
1161.782
1160.509
1159.193
1157.816
1156.328
1154.598
1152.198
1147.571
1165.605
1164.46
1163.276
1162.055
1160.794
1159.484
1158.096
1156.563
1154.698
1151.915
1146.299
1166.889
1165.792
1164.657
1163.485
1162.274
1161.022
1159.713
1158.313
1156.737
1154.749
1151.692
1145.517
1168.055
1167.004
1165.914
1164.787
1163.623
1162.421
1161.172
1159.863
1158.453
1156.845
1154.77
1151.617
1145.131
1169.106
1168.099
1167.053
1165.969
1164.847
1163.688
1162.488
1161.241
1159.931
1158.517
1156.864
1154.783
1151.656
1145.163
1170.05
1169.084
1168.079
1167.036
1165.954
1164.835
1163.676
1162.476
1161.229
1159.92
1158.465
1156.809
1154.797
1151.809
1145.59
1170.892
1169.966
1169.001
1167.997
1166.954
1165.873
1164.751
1163.589
1162.386
1161.138
1159.786
1158.319
1156.72
1154.816
1152.065
1146.736
1171.639
1170.751
1169.824
1168.858
1167.853
1166.808
1165.723
1164.596
1163.43
1162.223
1160.932
1159.563
1158.14
1156.614
1154.848
1152.563
1148.422
1172.299
1171.448
1170.559
1169.63
1168.662
1167.654
1166.604
1165.512
1164.38
1163.208
1161.962
1160.656
1159.322
1157.95
1156.509
1154.953
1153.211
1150.188
1172.89
1172.077
1171.225
1170.334
1169.402
1168.431
1167.417
1166.361
1165.263
1164.124
1162.921
1161.665
1160.386
1159.088
1157.773
1156.436
1155.124
1153.76
1151.914
1173.451
1172.676
1171.861
1171.007
1170.113
1169.18
1168.203
1167.184
1166.122
1165.019
1163.858
1162.644
1161.404
1160.145
1158.88
1174.03
1173.293
1172.517
1171.702
1170.848
1169.953
1169.016
1168.036
1167.013
1165.948
1164.829
1163.662
1162.468
1161.258
1160.045
1174.627
1173.929
1173.192
1172.417
1171.602
1170.748
1169.852
1168.913
1167.931
1166.906
1165.829
1164.705
1163.554
1162.385
1161.209
1175.224
1174.565
1173.868
1173.133
1172.359
1171.546
1170.691
1169.794
1168.854
1167.871
1166.835
1165.751
1164.639
1163.506
1162.36
1175.81
1175.19
1174.533
1173.838
1173.104
1172.332
1171.519
1170.664
1169.766
1168.826
1167.831
1166.786
1165.71
1164.608
1163.489
1158.398
1157.011
1155.59
1154.125
1152.571
1150.896
1159.777
1158.43
1157.05
1155.634
1154.164
1152.584
1150.786
1161.154
1159.852
1158.513
1157.139
1155.723
1154.236
1152.577
1150.495
1162.539
1161.283
1159.991
1158.661
1157.292
1155.869
1154.338
1152.535
1149.939
1163.94
1162.735
1161.491
1160.211
1158.891
1157.524
1156.078
1154.47
1152.427
1149.001
1165.347
1164.193
1163
1161.77
1160.502
1159.19
1157.815
1156.331
1154.605
1152.217
1147.839
1166.687
1165.583
1164.441
1163.261
1162.044
1160.786
1159.477
1158.09
1156.56
1154.702
1152
1146.837
1167.921
1166.866
1165.772
1164.64
1163.471
1162.264
1161.012
1159.703
1158.305
1156.731
1154.757
1151.852
1146.053
1169.042
1168.032
1166.984
1165.897
1164.773
1163.612
1162.409
1161.161
1159.852
1158.444
1156.812
1154.783
1151.777
1145.625
1170.05
1169.084
1168.079
1167.036
1165.954
1164.835
1163.676
1162.476
1161.229
1159.92
1158.465
1156.809
1154.797
1151.809
1145.59
1170.953
1170.029
1169.065
1168.063
1167.022
1165.943
1164.824
1163.664
1162.464
1161.217
1159.862
1158.383
1156.762
1154.812
1151.95
1146.31
1171.757
1170.872
1169.948
1168.985
1167.983
1166.943
1165.861
1164.739
1163.578
1162.375
1161.081
1159.699
1158.253
1156.686
1154.835
1152.343
1147.624
1172.466
1171.619
1170.734
1169.809
1168.846
1167.843
1166.798
1165.712
1164.586
1163.42
1162.171
1160.851
1159.498
1158.093
1156.594
1154.905
1152.905
1149.088
1173.089
1172.28
1171.432
1170.545
1169.619
1168.653
1167.645
1166.595
1165.504
1164.371
1163.164
1161.894
1160.599
1159.279
1157.923
1156.496
1155.037
1153.432
1150.613
1173.645
1172.873
1172.063
1171.213
1170.324
1169.395
1168.423
1167.41
1166.354
1165.256
1164.091
1162.866
1161.616
1160.346
1159.059
1157.728
1156.44
1155.167
1153.861
1152.124
1174.17
1173.435
1172.662
1171.85
1170.998
1170.107
1169.173
1168.197
1167.178
1166.117
1164.994
1163.811
1162.595
1161.353
1160.093
1174.713
1174.016
1173.281
1172.507
1171.695
1170.843
1169.948
1169.011
1168.031
1167.009
1165.929
1164.794
1163.627
1162.436
1161.234
1175.271
1174.613
1173.917
1173.183
1172.41
1171.598
1170.744
1169.847
1168.909
1167.927
1166.89
1165.8
1164.678
1163.533
1162.373
1175.83
1175.211
1174.554
1173.859
1173.126
1172.355
1171.542
1170.687
1169.79
1168.85
1167.855
1166.807
1165.726
1164.62
1163.495
1176.378
1175.797
1175.179
1174.524
1173.831
1173.1
1172.328
1171.515
1170.66
1169.763
1168.808
1167.8
1166.758
1165.687
1164.593
1159.74
1158.392
1157.012
1155.598
1154.14
1152.597
1150.928
1161.075
1159.769
1158.428
1157.054
1155.645
1154.185
1152.609
1150.819
1162.405
1161.144
1159.846
1158.513
1157.146
1155.737
1154.255
1152.602
1150.531
1163.739
1162.526
1161.275
1159.987
1158.664
1157.301
1155.882
1154.356
1152.559
1149.98
1165.087
1163.924
1162.723
1161.484
1160.208
1158.894
1157.529
1156.087
1154.483
1152.45
1149.236
1166.439
1165.328
1164.177
1162.988
1161.762
1160.498
1159.188
1157.814
1156.333
1154.613
1152.309
1148.335
1167.727
1166.666
1165.565
1164.426
1163.25
1162.036
1160.779
1159.47
1158.085
1156.558
1154.719
1152.157
1147.337
1168.913
1167.899
1166.847
1165.756
1164.627
1163.461
1162.254
1161.002
1159.694
1158.297
1156.706
1154.776
1152.006
1146.519
1169.987
1169.02
1168.013
1166.967
1165.884
1164.762
1163.6
1162.398
1161.149
1159.841
1158.395
1156.762
1154.798
1151.927
1146.037
1170.953
1170.029
1169.065
1168.063
1167.022
1165.943
1164.824
1163.664
1162.464
1161.217
1159.862
1158.383
1156.762
1154.812
1151.95
1146.31
1171.816
1170.933
1170.01
1169.049
1168.049
1167.011
1165.932
1164.812
1163.652
1162.452
1161.156
1159.769
1158.312
1156.723
1154.829
1152.233
1147.229
1172.58
1171.736
1170.854
1169.932
1168.972
1167.973
1166.932
1165.85
1164.728
1163.566
1162.317
1160.989
1159.623
1158.197
1156.657
1154.88
1152.703
1148.364
1173.252
1172.446
1171.602
1170.719
1169.797
1168.836
1167.833
1166.788
1165.702
1164.576
1163.367
1162.088
1160.78
1159.441
1158.054
1156.556
1154.982
1153.176
1149.641
1173.839
1173.071
1172.264
1171.419
1170.534
1169.61
1168.644
1167.636
1166.586
1165.495
1164.327
1163.093
1161.833
1160.548
1159.24
1157.861
1156.478
1155.097
1153.605
1150.982
1174.36
1173.629
1172.859
1172.05
1171.203
1170.316
1169.387
1168.416
1167.402
1166.347
1165.221
1164.03
1162.811
1161.567
1160.305
1158.978
1157.697
1156.444
1155.202
1153.949
1152.325
1174.849
1174.155
1173.422
1172.651
1171.841
1170.992
1170.101
1169.167
1168.191
1167.172
1166.089
1164.939
1163.752
1162.532
1161.283
1175.355
1174.698
1174.004
1173.271
1172.5
1171.689
1170.837
1169.943
1169.006
1168.027
1166.987
1165.886
1164.749
1163.583
1162.397
1175.876
1175.258
1174.601
1173.907
1173.175
1172.405
1171.593
1170.739
1169.843
1168.905
1167.907
1166.853
1165.764
1164.647
1163.508
1176.398
1175.817
1175.199
1174.545
1173.852
1173.122
1172.35
1171.537
1170.683
1169.786
1168.831
1167.82
1166.774
1165.698
1164.598
1176.907
1176.365
1175.786
1175.17
1174.517
1173.826
1173.095
1172.323
1171.51
1170.656
1169.742
1168.772
1167.765
1166.727
1165.662
1161.04
1159.732
1158.39
1157.016
1155.61
1154.161
1152.623
1150.96
1162.33
1161.065
1159.764
1158.429
1157.062
1155.661
1154.205
1152.635
1150.853
1163.611
1162.393
1161.137
1159.844
1158.517
1157.157
1155.752
1154.275
1152.628
1150.567
1164.894
1163.725
1162.516
1161.27
1159.987
1158.67
1157.31
1155.894
1154.373
1152.584
1150.18
1166.19
1165.071
1163.912
1162.714
1161.479
1160.208
1158.896
1157.534
1156.095
1154.497
1152.561
1149.724
1167.489
1166.42
1165.312
1164.165
1162.979
1161.757
1160.494
1159.185
1157.814
1156.335
1154.65
1152.486
1148.843
1168.725
1167.706
1166.648
1165.55
1164.415
1163.241
1162.027
1160.771
1159.464
1158.08
1156.546
1154.755
1152.314
1147.794
1169.863
1168.891
1167.881
1166.831
1165.743
1164.617
1163.45
1162.243
1160.992
1159.685
1158.256
1156.668
1154.798
1152.152
1146.915
1170.892
1169.966
1169.001
1167.997
1166.954
1165.873
1164.751
1163.589
1162.386
1161.138
1159.786
1158.319
1156.72
1154.816
1152.065
1146.736
1171.816
1170.933
1170.01
1169.049
1168.049
1167.011
1165.932
1164.812
1163.652
1162.452
1161.156
1159.769
1158.312
1156.723
1154.829
1152.233
1147.229
1172.638
1171.796
1170.915
1169.995
1169.036
1168.039
1167
1165.92
1164.8
1163.641
1162.391
1161.059
1159.687
1158.25
1156.691
1154.869
1152.602
1148.004
1173.364
1172.561
1171.719
1170.839
1169.92
1168.962
1167.962
1166.921
1165.839
1164.717
1163.508
1162.223
1160.908
1159.556
1158.148
1156.602
1154.949
1153.002
1148.997
1173.998
1173.233
1172.43
1171.588
1170.707
1169.788
1168.826
1167.823
1166.778
1165.692
1164.523
1163.282
1162.013
1160.718
1159.391
1157.97
1156.515
1155.047
1153.397
1150.131
1174.55
1173.822
1173.055
1172.251
1171.408
1170.526
1169.602
1168.635
1167.627
1166.577
1165.449
1164.253
1163.027
1161.776
1160.502
1159.151
1157.792
1156.466
1155.147
1153.749
1151.331
1175.035
1174.344
1173.614
1172.847
1172.041
1171.196
1170.309
1169.38
1168.408
1167.395
1166.309
1165.155
1163.969
1162.755
1161.518
1160.2
1158.925
1157.679
1156.449
1155.234
1154.031
1152.53
1175.489
1174.834
1174.142
1173.411
1172.643
1171.835
1170.985
1170.094
1169.161
1168.185
1167.141
1166.027
1164.872
1163.679
1162.448
1175.959
1175.341
1174.686
1173.994
1173.263
1172.494
1171.684
1170.831
1169.937
1169.001
1168.001
1166.936
1165.833
1164.695
1163.532
1176.443
1175.863
1175.246
1174.592
1173.9
1173.17
1172.4
1171.588
1170.734
1169.838
1168.882
1167.865
1166.811
1165.724
1164.611
1176.927
1176.385
1175.806
1175.19
1174.538
1173.847
1173.117
1172.345
1171.533
1170.678
1169.764
1168.791
1167.781
1166.738