/*--------------------------------*- C++ -*----------------------------------*\
| =========                 |                                                 |
| \\      /  F ield         | OpenFOAM: The Open Source CFD Toolbox           |
|  \\    /   O peration     | Version:  2306                                  |
|   \\  /    A nd           | Website:  www.openfoam.com                      |
|    \\/     M anipulation  |                                                 |
\*---------------------------------------------------------------------------*/
FoamFile
{
    version     2.0;
    format      ascii;
    arch        "LSB;label=32;scalar=64";
    class       volVectorField;
    location    "0.9/fuel";
    object      U;
}
// * * * * * * * * * * * * * * * * * * * * * * * * * * * * * * * * * * * * * //

dimensions      [0 1 -1 0 0 0 0];

internalField   nonuniform List<vector> 
16000
(
(9.256314e-05 7.097957e-05 -0.00465932)
(9.263775e-05 0.0001948297 -0.004729852)
(0.0001660134 7.133735e-05 -0.00387121)
(9.064726e-05 7.55545e-05 -0.01479608)
(9.312035e-05 0.0003449609 -0.004873636)
(0.0001653754 0.0001998785 -0.003913029)
(9.061022e-05 0.0002057769 -0.01501817)
(0.0001292314 6.40532e-05 -0.003230431)
(0.000162359 7.463235e-05 -0.01230943)
(8.393992e-05 8.207505e-05 -0.02197228)
(9.330091e-05 0.0004266673 -0.005095251)
(0.0001646204 0.0003505934 -0.003996622)
(9.086292e-05 0.0003637726 -0.01547072)
(0.0001277951 0.0001804721 -0.003259184)
(0.0001615476 0.0002073695 -0.01244138)
(8.366064e-05 0.0002240877 -0.02229996)
(9.773185e-05 5.656069e-05 -0.002755144)
(0.0001263719 6.661723e-05 -0.01028399)
(0.0001500994 7.864759e-05 -0.0182971)
(7.591793e-05 8.740131e-05 -0.0361402)
(9.526345e-05 0.0006213793 -0.00538798)
(0.0001624442 0.0004464391 -0.004121627)
(9.066774e-05 0.0004523779 -0.0161682)
(0.0001252496 0.0003148683 -0.003316153)
(0.0001604397 0.0003632814 -0.01270504)
(8.340643e-05 0.0003949591 -0.0229676)
(9.638636e-05 0.0001597845 -0.002776454)
(0.0001248361 0.0001861416 -0.01037486)
(0.0001489345 0.0002181782 -0.01849207)
(7.535385e-05 0.0002454415 -0.03667709)
(7.531703e-05 5.028383e-05 -0.002393134)
(9.559749e-05 5.864487e-05 -0.008779682)
(0.0001167743 6.945335e-05 -0.01529952)
(0.0001358461 8.143905e-05 -0.03011411)
(6.293059e-05 0.0001090467 -0.02940729)
(9.386085e-05 0.0004895324 -0.005721276)
(0.000162382 0.0006242594 -0.004279034)
(9.212632e-05 0.0006538562 -0.01708929)
(0.0001205734 0.0004030835 -0.003400264)
(0.0001576939 0.0004632646 -0.01309941)
(8.239948e-05 0.0004961712 -0.02399646)
(9.39347e-05 0.0002779215 -0.002818422)
(0.0001220937 0.0003244261 -0.01055484)
(0.0001470936 0.0003812678 -0.01888164)
(7.450388e-05 0.0004313323 -0.03777063)
(7.419554e-05 0.0001422851 -0.002409641)
(9.418655e-05 0.0001643003 -0.008847121)
(0.0001150637 0.0001935683 -0.01543395)
(0.0001342702 0.0002308157 -0.03043375)
(6.17274e-05 0.0003044931 -0.02984309)
(5.991795e-05 4.509606e-05 -0.002108329)
(7.366718e-05 5.202952e-05 -0.007632728)
(8.838728e-05 6.079361e-05 -0.01307101)
(0.0001056065 7.118001e-05 -0.02519622)
(0.0001118277 9.633926e-05 -0.02450813)
(0.0005375999 0.000996845 -0.05864476)
(9.750761e-05 0.0001354921 -0.00596503)
(0.0001559801 0.0005087314 -0.004450768)
(9.00781e-05 0.0005183165 -0.01813975)
(0.0001163235 0.0005545879 -0.003503877)
(0.0001568874 0.0006451441 -0.0135961)
(8.272506e-05 0.000707059 -0.0253549)
(8.962692e-05 0.0003565748 -0.00287986)
(0.0001171072 0.0004156095 -0.01082068)
(0.0001431899 0.0004876087 -0.01946442)
(7.254337e-05 0.0005472279 -0.03945687)
(7.213203e-05 0.0002469327 -0.002442001)
(9.160643e-05 0.0002855152 -0.008979884)
(0.000111967 0.0003366637 -0.01570021)
(0.0001315771 0.0004023048 -0.03107218)
(5.955561e-05 0.0005326338 -0.03073181)
(5.898596e-05 0.0001277501 -0.002121509)
(7.249939e-05 0.0001460067 -0.007685026)
(8.687143e-05 0.000169801 -0.01317087)
(0.0001036923 0.0002022682 -0.02541677)
(0.0001092785 0.0002701668 -0.02476747)
(0.0005257752 0.002827064 -0.0595164)
(4.882648e-05 4.075942e-05 -0.001878513)
(5.860609e-05 4.659023e-05 -0.006729608)
(6.809191e-05 5.372708e-05 -0.01137059)
(7.999228e-05 6.194818e-05 -0.02153852)
(8.674019e-05 8.248099e-05 -0.02050987)
(0.0009565258 0.000873946 -0.04887215)
(0.0005517789 0.001028359 -0.04136552)
(9.97284e-05 6.88139e-05 -0.006119657)
(0.0001591499 0.0001916491 -0.004566697)
(9.327625e-05 0.000152716 -0.01890466)
(0.0001068677 0.000454835 -0.00361508)
(0.0001495383 0.0005265076 -0.01413957)
(7.932846e-05 0.0005670136 -0.02690433)
(8.538559e-05 0.0004862378 -0.002954409)
(0.0001124764 0.0005700808 -0.01114827)
(0.0001407981 0.000673564 -0.02019842)
(7.153946e-05 0.0007690724 -0.04168475)
(6.856378e-05 0.0003171742 -0.002489075)
(8.70978e-05 0.0003664568 -0.009174335)
(0.0001064398 0.0004319061 -0.01609356)
(0.0001263273 0.0005160751 -0.03202786)
(5.544562e-05 0.0006865455 -0.03210209)
(5.726173e-05 0.0002213139 -0.002147253)
(7.034558e-05 0.0002531814 -0.007787507)
(8.408068e-05 0.0002945193 -0.01336747)
(0.0001001827 0.0003510068 -0.02585336)
(0.0001045946 0.0004687533 -0.02528625)
(0.0005039469 0.004941862 -0.06129059)
(4.804331e-05 0.00011556 -0.001889288)
(5.763971e-05 0.0001308929 -0.00677141)
(6.685425e-05 0.0001502654 -0.01144809)
(7.835405e-05 0.0001762549 -0.02170246)
(8.428584e-05 0.000231595 -0.02068875)
(0.0009321574 0.002485052 -0.04939103)
(0.0005389819 0.00299363 -0.04198409)
(4.065591e-05 3.709327e-05 -0.001689145)
(4.77588e-05 4.20598e-05 -0.006000305)
(5.416683e-05 4.797085e-05 -0.01003082)
(6.159716e-05 5.453028e-05 -0.0187465)
(6.583777e-05 7.096784e-05 -0.01753608)
(0.0007415274 0.0007458822 -0.04090022)
(0.000986128 0.0009002818 -0.03445951)
(0.0005389227 0.001063654 -0.04591622)
(0.0001015279 1.191161e-05 -0.006206313)
(0.0001608847 0.0001070142 -0.004636975)
(9.520172e-05 7.897477e-05 -0.01938915)
(0.0001055094 0.0001832352 -0.003686157)
(0.0001520795 0.0002014228 -0.01450461)
(8.147353e-05 0.0001858557 -0.0280308)
(7.721068e-05 0.0003996978 -0.003033665)
(0.0001025385 0.0004677907 -0.01150115)
(0.000131595 0.0005512754 -0.02100195)
(6.656125e-05 0.0006237442 -0.04423345)
(6.495355e-05 0.0004298142 -0.002545527)
(8.26163e-05 0.0004984484 -0.009410381)
(0.000101106 0.0005887985 -0.01657835)
(0.0001220932 0.0007067969 -0.03323216)
(5.152734e-05 0.0009440881 -0.03391427)
(5.430868e-05 0.0002844421 -0.002184517)
(6.663671e-05 0.0003252664 -0.007936666)
(7.925503e-05 0.0003783142 -0.01365547)
(9.402555e-05 0.0004510037 -0.0264988)
(9.614583e-05 0.0006045852 -0.02606255)
(0.0004632949 0.006385814 -0.06403389)
(4.658916e-05 0.0001999028 -0.00191027)
(5.58487e-05 0.0002265859 -0.006853018)
(6.456111e-05 0.0002601175 -0.01159997)
(7.531748e-05 0.0003050902 -0.022025)
(7.969879e-05 0.0004002649 -0.02104353)
(0.0008867282 0.00430856 -0.0504261)
(0.0005152533 0.005232551 -0.04324303)
(3.998975e-05 0.0001052315 -0.00169812)
(4.694915e-05 0.0001182642 -0.00603451)
(5.315107e-05 0.0001342921 -0.0100928)
(6.02779e-05 0.0001552686 -0.01887381)
(6.384988e-05 0.000199364 -0.01766903)
(0.0007187458 0.002122398 -0.0412583)
(0.000960049 0.002623805 -0.03482792)
(0.0005255315 0.003046269 -0.046605)
(3.441267e-05 3.395244e-05 -0.001530481)
(3.977134e-05 3.823998e-05 -0.005398945)
(4.414025e-05 4.320819e-05 -0.00894829)
(4.899321e-05 4.854207e-05 -0.01654583)
(5.062839e-05 6.197479e-05 -0.01526596)
(0.0005631377 0.0006405655 -0.03497264)
(0.0007643415 0.0007678741 -0.02882987)
(0.0009595061 0.0009264062 -0.03824423)
(0.0005259336 0.001070538 -0.04661942)
(0.0001023374 3.885491e-06 -0.006244721)
(0.0001627853 3.681055e-05 -0.004675083)
(9.683935e-05 1.683355e-05 -0.01966047)
(0.0001043326 0.0001041589 -0.003727567)
(0.0001534036 0.0001126209 -0.01472572)
(8.271298e-05 9.878221e-05 -0.02874358)
(7.531716e-05 0.000165933 -0.003082207)
(0.0001008993 0.0001900258 -0.01172542)
(0.0001327179 0.0002173043 -0.02154111)
(6.747392e-05 0.0002244222 -0.04607821)
(5.834939e-05 0.0003536687 -0.002605198)
(7.413559e-05 0.0004098005 -0.009662384)
(9.03834e-05 0.0004836701 -0.01710088)
(0.0001107354 0.0005802324 -0.03455553)
(4.28743e-05 0.000779695 -0.03598368)
(5.127588e-05 0.0003836106 -0.002228772)
(6.286097e-05 0.0004398148 -0.008115629)
(7.43702e-05 0.0005119256 -0.01400515)
(8.787271e-05 0.0006107359 -0.02729468)
(8.767984e-05 0.0008157482 -0.02704166)
(0.0004229289 0.008749215 -0.06766153)
(4.411614e-05 0.0002570075 -0.001940516)
(5.279191e-05 0.0002912446 -0.006971209)
(6.064448e-05 0.0003343219 -0.01182107)
(7.01217e-05 0.0003922336 -0.02249787)
(7.185484e-05 0.0005157805 -0.02156774)
(0.0008054939 0.005562211 -0.05198068)
(0.0004712718 0.006766738 -0.04521556)
(3.874972e-05 0.0001818116 -0.001715549)
(4.54438e-05 0.0002044363 -0.006101081)
(5.126212e-05 0.0002321 -0.01021383)
(5.782193e-05 0.0002682724 -0.01912311)
(6.012316e-05 0.0003437882 -0.01793115)
(0.000675818 0.003665688 -0.04196599)
(0.0009113043 0.004548618 -0.03556296)
(0.0005005642 0.005323634 -0.04800651)
(3.383943e-05 9.636796e-05 -0.00153807)
(3.908422e-05 0.000107593 -0.005427457)
(4.329431e-05 0.0001210424 -0.008999043)
(4.791973e-05 0.0001382905 -0.01664772)
(4.906436e-05 0.0001741468 -0.01536919)
(0.0005448369 0.001823219 -0.0352389)
(0.0007401853 0.002238293 -0.02908422)
(0.0009325015 0.002657344 -0.03865459)
(0.0005119357 0.003101345 -0.04732461)
(2.955946e-05 3.123592e-05 -0.00139566)
(3.366862e-05 3.497446e-05 -0.004894757)
(3.676496e-05 3.92123e-05 -0.008055216)
(3.992152e-05 4.361979e-05 -0.01476705)
(4.02488e-05 5.48354e-05 -0.0134765)
(0.0004328974 0.0005586421 -0.03044836)
(0.000580576 0.0006591027 -0.02464563)
(0.0007434812 0.0007885205 -0.03199248)
(0.0009379308 0.0009292771 -0.03881949)
(0.0005515491 0.001197483 -0.03941227)
(0.0001023374 -3.885491e-06 -0.006244721)
(0.0001636404 1.156924e-05 -0.004691648)
(9.75766e-05 5.389809e-06 -0.01978066)
(0.0001043306 3.894928e-05 -0.003749149)
(0.0001550825 3.941324e-05 -0.01484567)
(8.396064e-05 2.697691e-05 -0.02914253)
(7.384638e-05 9.497627e-05 -0.003109594)
(9.95414e-05 0.0001079784 -0.01185599)
(0.0001331265 0.0001218063 -0.0218676)
(6.791162e-05 0.0001218187 -0.04724404)
(5.65983e-05 0.0001494691 -0.002640409)
(7.207674e-05 0.0001710596 -0.009815749)
(8.817979e-05 0.0001997691 -0.01743271)
(0.000110212 0.0002358627 -0.0354382)
(4.117722e-05 0.0003198003 -0.03748624)
(4.589736e-05 0.0003157911 -0.002275385)
(5.604504e-05 0.0003618814 -0.00830567)
(6.544758e-05 0.0004210133 -0.01437871)
(7.623563e-05 0.0005022817 -0.0281563)
(7.102446e-05 0.0006732753 -0.02811381)
(0.0003389285 0.007246741 -0.07187419)
(4.155152e-05 0.0003452831 -0.00197614)
(4.96384e-05 0.0003920235 -0.007111652)
(5.660841e-05 0.0004500305 -0.01208641)
(6.476615e-05 0.0005277492 -0.02307226)
(6.360255e-05 0.0006901005 -0.02221469)
(0.0007222289 0.00748407 -0.05394)
(0.0004270836 0.009265666 -0.04780491)
(3.665246e-05 0.0002337873 -0.001740587)
(4.289135e-05 0.0002628408 -0.006197101)
(4.806032e-05 0.0002983927 -0.01038915)
(5.366239e-05 0.000344968 -0.01948634)
(5.385532e-05 0.0004427237 -0.01831518)
(0.0006026968 0.004726007 -0.04301624)
(0.0008243467 0.005873938 -0.03668823)
(0.0004545626 0.006893359 -0.05021175)
(3.277036e-05 0.0001663225 -0.001552777)
(3.780378e-05 0.0001857689 -0.0054828)
(4.171726e-05 0.0002089283 -0.009097831)
(4.591619e-05 0.0002385917 -0.01684648)
(4.612836e-05 0.0002998258 -0.01557182)
(0.0005102918 0.003142033 -0.03576175)
(0.0006946159 0.003865483 -0.02958711)
(0.0008818511 0.004605791 -0.03947309)
(0.0004857034 0.005419417 -0.04875615)
(2.906134e-05 8.869196e-05 -0.001402161)
(3.307843e-05 9.845475e-05 -0.004918888)
(3.605031e-05 0.0001099064 -0.008097545)
(3.903311e-05 0.000124314 -0.01485052)
(3.899499e-05 0.0001541119 -0.01355911)
(0.0004185511 0.001590275 -0.03065523)
(0.0005612221 0.001921508 -0.02483484)
(0.0007188351 0.002262607 -0.03227588)
(0.0009100325 0.002694217 -0.0392404)
(0.000535628 0.003436898 -0.04000338)
(2.56928e-05 2.886279e-05 -0.001279742)
(2.892594e-05 3.215485e-05 -0.004466077)
(3.113173e-05 3.580978e-05 -0.007306098)
(3.325875e-05 3.951033e-05 -0.01329904)
(3.278685e-05 4.90389e-05 -0.01202995)
(0.0003441038 0.0004937755 -0.02688231)
(0.0004462535 0.0005745733 -0.0214531)
(0.0005649218 0.0006761019 -0.02734693)
(0.0007265652 0.0007898599 -0.03246693)
(0.0009807331 0.00103366 -0.03280977)
(0.004576048 0.01114599 -0.1034045)
(0.0001015279 -1.191161e-05 -0.006206313)
(0.0001636404 -1.156924e-05 -0.004691648)
(9.75766e-05 -5.389809e-06 -0.01978066)
(0.0001043318 1.225052e-05 -0.003758247)
(0.0001558388 1.236012e-05 -0.01489781)
(8.452401e-05 8.481764e-06 -0.02931917)
(7.349192e-05 3.670002e-05 -0.003123371)
(9.94459e-05 4.066263e-05 -0.01192411)
(0.0001342872 4.401796e-05 -0.02204473)
(6.870409e-05 3.876437e-05 -0.04789626)
(5.5272e-05 8.58486e-05 -0.002659718)
(7.050083e-05 9.782216e-05 -0.009902208)
(8.646646e-05 0.0001134312 -0.01762591)
(0.0001095588 0.0001325395 -0.03597214)
(3.991159e-05 0.0001781126 -0.03843519)
(4.436759e-05 0.0001350893 -0.002301959)
(5.418487e-05 0.0001535341 -0.008417017)
(6.308426e-05 0.0001776975 -0.0146059)
(7.337494e-05 0.0002111878 -0.02869956)
(6.68882e-05 0.0002882427 -0.02883286)
(0.0003189576 0.003031043 -0.07485971)
(3.710206e-05 0.0002842843 -0.002013584)
(4.410462e-05 0.0003226613 -0.007260318)
(4.951069e-05 0.0003702467 -0.01236835)
(5.532741e-05 0.0004341814 -0.0236889)
(4.936703e-05 0.0005687518 -0.02291182)
(0.0005639459 0.006182985 -0.05613895)
(0.0003366691 0.00768036 -0.05109606)
(3.446271e-05 0.0003130971 -0.00176986)
(4.023512e-05 0.0003525045 -0.006310256)
(4.472724e-05 0.0004000423 -0.01059752)
(4.932208e-05 0.0004620434 -0.01992242)
(4.719984e-05 0.0005895062 -0.01878207)
(0.0005251748 0.006308434 -0.04431109)
(0.0007346406 0.007900733 -0.03809442)
(0.0004076045 0.009430808 -0.05310348)
(3.097042e-05 0.0002138855 -0.001573841)
(3.564389e-05 0.0002388679 -0.005562353)
(3.905925e-05 0.0002686287 -0.009240348)
(4.254466e-05 0.0003068081 -0.01713466)
(4.122668e-05 0.0003859071 -0.01586681)
(0.0004523564 0.004047475 -0.03653159)
(0.0006170747 0.004984507 -0.03035114)
(0.0007918262 0.005950838 -0.04073369)
(0.0004376251 0.007025376 -0.0510382)
(2.813102e-05 0.0001529352 -0.001414732)
(3.197672e-05 0.0001698189 -0.004965621)
(3.471568e-05 0.0001894991 -0.008179718)
(3.737209e-05 0.0002142231 -0.01501284)
(3.663946e-05 0.0002650036 -0.01372069)
(0.0003914495 0.002736332 -0.03105945)
(0.0005246593 0.003311138 -0.0252066)
(0.0006722816 0.003906746 -0.03283603)
(0.0008575355 0.004669125 -0.04007736)
(0.0005054233 0.006005498 -0.04121426)
(2.525608e-05 8.197931e-05 -0.001285371)
(2.841384e-05 9.055428e-05 -0.004486761)
(3.052012e-05 0.0001004111 -0.007341941)
(3.251187e-05 0.0001126337 -0.0133687)
(3.176068e-05 0.000137837 -0.01209763)
(0.0003326309 0.001405747 -0.02704796)
(0.0004310994 0.001675229 -0.02160016)
(0.00054526 0.001940291 -0.02755782)
(0.0007014227 0.002290174 -0.03275804)
(0.0009493481 0.002968882 -0.03316098)
(0.004425967 0.03215242 -0.1051364)
(2.257265e-05 2.677385e-05 -0.001179055)
(2.514759e-05 2.969518e-05 -0.004097285)
(2.675708e-05 3.288121e-05 -0.006668885)
(2.817215e-05 3.602504e-05 -0.01206722)
(2.733081e-05 4.424495e-05 -0.01083599)
(0.0002802876 0.0004412148 -0.02399968)
(0.0003547072 0.0005076943 -0.01893744)
(0.0004341386 0.0005889609 -0.02380304)
(0.0005522508 0.0006766619 -0.02774809)
(0.0007594276 0.0008765573 -0.02743522)
(0.008124696 0.009526352 -0.0860401)
(0.004709456 0.01108409 -0.01058357)
(9.97284e-05 -6.88139e-05 -0.006119657)
(0.0001627853 -3.681055e-05 -0.004675083)
(9.683935e-05 -1.683355e-05 -0.01966047)
(0.0001043318 -1.225052e-05 -0.003758247)
(0.0001558388 -1.236012e-05 -0.01489781)
(8.452401e-05 -8.481764e-06 -0.02931917)
(7.33292e-05 1.154478e-05 -0.003129008)
(9.940549e-05 1.276682e-05 -0.01195284)
(0.0001348127 1.374963e-05 -0.02212175)
(6.906468e-05 1.207428e-05 -0.04818503)
(5.487701e-05 3.377624e-05 -0.002669111)
(7.009434e-05 3.794455e-05 -0.009945759)
(8.617149e-05 4.331712e-05 -0.01772677)
(0.0001101191 4.939566e-05 -0.03626185)
(3.976583e-05 6.635232e-05 -0.03896597)
(4.32245e-05 7.774546e-05 -0.002316147)
(5.278981e-05 8.80834e-05 -0.008478017)
(6.132182e-05 0.0001014327 -0.01473401)
(7.124779e-05 0.0001198241 -0.02901551)
(6.389229e-05 0.000162614 -0.02926763)
(0.0003045313 0.001693745 -0.07674278)
(3.577823e-05 0.000122679 -0.002034245)
(4.249784e-05 0.0001384215 -0.00734441)
(4.746246e-05 0.0001583291 -0.01253344)
(5.260883e-05 0.0001854951 -0.02406087)
(4.493121e-05 0.0002467857 -0.02335462)
(0.000520454 0.002671527 -0.05755748)
(0.0003140546 0.003226885 -0.05312098)
(3.072642e-05 0.0002577875 -0.001800599)
(3.566718e-05 0.0002901556 -0.006429832)
(3.900074e-05 0.0003291376 -0.01081823)
(4.189477e-05 0.0003800877 -0.02038828)
(3.61464e-05 0.0004852794 -0.01928047)
(0.0003933541 0.005201419 -0.04574972)
(0.0005656358 0.006528332 -0.03990029)
(0.0003136033 0.007826784 -0.05689616)
(2.908165e-05 0.0002856878 -0.001598305)
(3.338244e-05 0.0003193937 -0.005655416)
(3.627356e-05 0.0003589691 -0.00940834)
(3.900148e-05 0.0004094851 -0.01747729)
(3.600097e-05 0.0005121052 -0.01622128)
(0.0003905406 0.005378099 -0.0374664)
(0.000534682 0.006651969 -0.03128427)
(0.0006980156 0.008000113 -0.04230736)
(0.0003878713 0.009607211 -0.0540147)
(2.657061e-05 0.0001966726 -0.001432691)
(3.012624e-05 0.000218366 -0.005032597)
(3.247638e-05 0.000243649 -0.008297859)
(3.45904e-05 0.0002754516 -0.01524723)
(3.272537e-05 0.0003409319 -0.01395473)
(0.0003463139 0.00352257 -0.03165116)
(0.000463384 0.004265823 -0.02576898)
(0.0005931959 0.005039273 -0.03369329)
(0.0007645082 0.006035552 -0.04139035)
(0.0004504301 0.007797644 -0.04313299)
(2.44395e-05 0.0001412481 -0.001296237)
(2.745667e-05 0.000156055 -0.004526738)
(2.937642e-05 0.0001729657 -0.007411365)
(3.111371e-05 0.0001939012 -0.01350379)
(2.983178e-05 0.0002367796 -0.0122296)
(0.0003109466 0.002415905 -0.02737032)
(0.0004024524 0.002882294 -0.02188775)
(0.0005080847 0.003342942 -0.02797202)
(0.0006538647 0.003953939 -0.03333133)
(0.0008897655 0.005144601 -0.03386807)
(0.004121993 0.05614271 -0.1084885)
(2.218684e-05 7.606564e-05 -0.001183975)
(2.469917e-05 8.365508e-05 -0.004115207)
(2.6228e-05 9.222998e-05 -0.006699623)
(2.753546e-05 0.0001027198 -0.01212624)
(2.647561e-05 0.0001243728 -0.01089246)
(0.000270915 0.00125618 -0.02413547)
(0.0003425977 0.001480318 -0.01905526)
(0.0004187729 0.001690324 -0.02396702)
(0.0005322673 0.001962067 -0.02796497)
(0.0007315987 0.002517853 -0.0276773)
(0.007833085 0.0274735 -0.08710914)
(0.00456094 0.03231616 -0.01103399)
(2.001089e-05 2.492113e-05 -0.001090828)
(2.209925e-05 2.753263e-05 -0.003776775)
(2.327271e-05 3.03333e-05 -0.006120462)
(2.422615e-05 3.303492e-05 -0.01101904)
(2.317135e-05 4.021053e-05 -0.009833999)
(0.0002336791 0.0003978124 -0.02162038)
(0.0002889187 0.0004535356 -0.01690438)
(0.0003450557 0.0005201156 -0.0210109)
(0.0004243282 0.0005890779 -0.02414926)
(0.0005775213 0.0007499933 -0.0234442)
(0.006286216 0.008044928 -0.07191745)
(0.00838673 0.009498493 -0.008765263)
(0.004549485 0.01139268 -0.03046935)
(9.750761e-05 -0.0001354921 -0.00596503)
(0.0001608847 -0.0001070142 -0.004636975)
(9.520172e-05 -7.897477e-05 -0.01938915)
(0.0001043306 -3.894928e-05 -0.003749149)
(0.0001550825 -3.941324e-05 -0.01484567)
(8.396064e-05 -2.697691e-05 -0.02914253)
(7.33292e-05 -1.154478e-05 -0.003129008)
(9.940549e-05 -1.276682e-05 -0.01195284)
(0.0001348127 -1.374963e-05 -0.02212175)
(6.906468e-05 -1.207428e-05 -0.04818503)
(5.469489e-05 1.062292e-05 -0.00267284)
(6.990873e-05 1.191746e-05 -0.009963588)
(8.604221e-05 1.355367e-05 -0.01776932)
(0.0001103772 1.537269e-05 -0.03638785)
(3.970898e-05 2.049622e-05 -0.03920096)
(4.285317e-05 3.094494e-05 -0.002322819)
(5.236184e-05 3.473368e-05 -0.008507734)
(6.081303e-05 3.965392e-05 -0.01479859)
(7.072072e-05 4.642795e-05 -0.02918047)
(6.317642e-05 6.359189e-05 -0.02950357)
(0.0003015089 0.0006429848 -0.07779627)
(3.479806e-05 7.068989e-05 -0.002044992)
(4.130647e-05 7.956351e-05 -0.007389246)
(4.595467e-05 9.062294e-05 -0.01262391)
(5.062859e-05 0.0001056771 -0.02427032)
(4.179639e-05 0.0001398199 -0.02361209)
(0.0004894572 0.001508058 -0.05841271)
(0.0002978407 0.001804825 -0.05439176)
(2.957925e-05 0.0001119867 -0.001817034)
(3.428642e-05 0.0001254788 -0.006495247)
(3.726874e-05 0.0001420217 -0.010943)
(3.962673e-05 0.0001639738 -0.02065859)
(3.251662e-05 0.0002119133 -0.01958385)
(0.0003508587 0.00227071 -0.04661885)
(0.000517967 0.002824897 -0.04083064)
(0.0002885017 0.003311593 -0.05911289)
(2.59015e-05 0.0002352036 -0.001623987)
(2.955291e-05 0.0002628889 -0.005753691)
(3.156754e-05 0.0002953127 -0.009585959)
(3.304929e-05 0.0003367684 -0.01784232)
(2.747013e-05 0.0004211487 -0.01659748)
(0.0002889073 0.004428017 -0.03850053)
(0.0003950601 0.005484684 -0.03250798)
(0.0005237181 0.006612155 -0.04442098)
(0.0002900929 0.007981004 -0.05823452)
(2.492691e-05 0.0002621062 -0.001453424)
(2.817995e-05 0.0002912471 -0.005110433)
(3.011834e-05 0.0003247152 -0.0084361)
(3.165309e-05 0.0003665917 -0.0155236)
(2.854264e-05 0.0004512335 -0.01423326)
(0.0002980201 0.004665577 -0.03236121)
(0.000397913 0.005667343 -0.02644503)
(0.0005088559 0.006722956 -0.03473929)
(0.0006667528 0.008112871 -0.04301926)
(0.0003925429 0.01066154 -0.04564746)
(2.307429e-05 0.0001816392 -0.001311725)
(2.585469e-05 0.0002006647 -0.004583883)
(2.746464e-05 0.0002223807 -0.00751088)
(2.878128e-05 0.000249292 -0.01369818)
(2.663798e-05 0.0003044978 -0.01241996)
(0.0002749942 0.003108395 -0.0278401)
(0.0003547717 0.003710774 -0.02232169)
(0.0004458551 0.004307684 -0.02860387)
(0.000573181 0.005101669 -0.03422849)
(0.0007845883 0.006654922 -0.03496793)
(0.003576638 0.07311097 -0.1146023)
(2.146479e-05 0.0001309673 -0.001193458)
(2.386015e-05 0.0001440553 -0.004149785)
(2.523759e-05 0.0001587449 -0.006759039)
(2.634249e-05 0.0001766836 -0.01224042)
(2.486751e-05 0.0002134713 -0.01100231)
(0.0002531945 0.00215675 -0.02439881)
(0.0003196965 0.002543894 -0.01928475)
(0.0003897077 0.002907824 -0.02428752)
(0.0004944465 0.003380163 -0.02838922)
(0.0006786478 0.004346695 -0.02816126)
(0.007250139 0.04757077 -0.08910535)
(0.004259757 0.05687748 -0.01194753)
(1.966768e-05 7.081706e-05 -0.001095163)
(2.170351e-05 7.758419e-05 -0.003792449)
(2.281057e-05 8.510622e-05 -0.006147107)
(2.367714e-05 9.42095e-05 -0.01106968)
(2.244753e-05 0.0001130387 -0.009881845)
(0.0002258797 0.001132651 -0.02173376)
(0.0002790319 0.001322443 -0.01700101)
(0.0003327926 0.00149279 -0.0211423)
(0.0004087373 0.001708152 -0.02431809)
(0.0005555112 0.0021543 -0.02362406)
(0.006034497 0.02319581 -0.07267476)
(0.008096889 0.02768452 -0.009096029)
(0.004393382 0.03298756 -0.03134626)
(1.788583e-05 2.326768e-05 -0.001012917)
(1.959657e-05 2.561659e-05 -0.003495776)
(2.046292e-05 2.809818e-05 -0.005643647)
(2.108425e-05 3.044056e-05 -0.01011659)
(1.995469e-05 3.677115e-05 -0.008981274)
(0.0001981594 0.0003613333 -0.01962357)
(0.0002408881 0.0004088361 -0.01522665)
(0.0002810475 0.0004644245 -0.01875462)
(0.0003372404 0.0005199658 -0.02131443)
(0.0004436357 0.0006523464 -0.02040124)
(0.004786258 0.006866854 -0.06143748)
(0.006490749 0.008030266 -0.007303702)
(0.008081426 0.009718565 -0.02530585)
(0.004507976 0.01146467 -0.01124108)
(9.386085e-05 -0.0004895324 -0.005721276)
(0.0001591499 -0.0001916491 -0.004566697)
(9.327625e-05 -0.000152716 -0.01890466)
(0.0001043326 -0.0001041589 -0.003727567)
(0.0001534036 -0.0001126209 -0.01472572)
(8.271298e-05 -9.878221e-05 -0.02874358)
(7.349192e-05 -3.670002e-05 -0.003123371)
(9.94459e-05 -4.066263e-05 -0.01192411)
(0.0001342872 -4.401796e-05 -0.02204473)
(6.870409e-05 -3.876437e-05 -0.04789626)
(5.469489e-05 -1.062292e-05 -0.00267284)
(6.990873e-05 -1.191746e-05 -0.009963588)
(8.604221e-05 -1.355367e-05 -0.01776932)
(0.0001103772 -1.537269e-05 -0.03638785)
(3.970898e-05 -2.049622e-05 -0.03920096)
(4.268184e-05 9.729475e-06 -0.002325383)
(5.216535e-05 1.090824e-05 -0.008519536)
(6.058257e-05 1.241508e-05 -0.01482504)
(7.048805e-05 1.447623e-05 -0.02925011)
(6.286701e-05 1.968239e-05 -0.02960621)
(0.000300237 0.0001984284 -0.07826276)
(3.446361e-05 2.836339e-05 -0.002049873)
(4.091256e-05 3.171047e-05 -0.007410364)
(4.546615e-05 3.59031e-05 -0.01266803)
(5.000046e-05 4.166288e-05 -0.02437593)
(4.073839e-05 5.554831e-05 -0.02374656)
(0.0004807594 0.000594223 -0.05887667)
(0.0002940588 0.0006887483 -0.05510362)
(2.873567e-05 6.458068e-05 -0.001825363)
(3.32707e-05 7.220813e-05 -0.006529215)
(3.600369e-05 8.142092e-05 -0.01100955)
(3.798707e-05 9.361593e-05 -0.02080648)
(2.996226e-05 0.0001202855 -0.01975467)
(0.000321023 0.001286169 -0.04712185)
(0.0004841319 0.00159478 -0.04138312)
(0.0002706663 0.001854805 -0.060498)
(2.490179e-05 0.0001027079 -0.001637304)
(2.836215e-05 0.0001143844 -0.005805748)
(3.009922e-05 0.0001282621 -0.009683083)
(3.117073e-05 0.0001462687 -0.01804661)
(2.460847e-05 0.0001846168 -0.01681808)
(0.0002548132 0.00194242 -0.03909349)
(0.0003496748 0.002395658 -0.03306167)
(0.0004725589 0.002867493 -0.0454254)
(0.0002625686 0.003394483 -0.06039615)
(2.218927e-05 0.0002157649 -0.001475196)
(2.492462e-05 0.0002396947 -0.005192632)
(2.618626e-05 0.0002670866 -0.008582152)
(2.678518e-05 0.0003013982 -0.01581763)
(2.178996e-05 0.0003707815 -0.01452778)
(0.0002198365 0.003836994 -0.03314581)
(0.0002905067 0.004665793 -0.02735005)
(0.0003667089 0.005543115 -0.03618656)
(0.0004871227 0.006706325 -0.04545698)
(0.0002813844 0.008867688 -0.04914344)
(2.163184e-05 0.000241603 -0.001329505)
(2.416394e-05 0.0002670653 -0.004649896)
(2.544433e-05 0.000295703 -0.007626561)
(2.631e-05 0.0003309977 -0.01392572)
(2.32195e-05 0.0004021592 -0.01264464)
(0.0002364629 0.004106797 -0.02839832)
(0.0003037018 0.004914345 -0.02283694)
(0.0003792118 0.005721832 -0.0293628)
(0.0004868674 0.006806366 -0.03531579)
(0.0006728441 0.008947346 -0.03634092)
(0.002983217 0.09943055 -0.1221704)
(2.026095e-05 0.0001684112 -0.001206946)
(2.24602e-05 0.0001852267 -0.004199099)
(2.358727e-05 0.0002040819 -0.006843987)
(2.435875e-05 0.0002271245 -0.01240425)
(2.221247e-05 0.0002744251 -0.0111602)
(0.0002239127 0.002773666 -0.02478117)
(0.0002817466 0.003273254 -0.01963057)
(0.0003413781 0.003744176 -0.0247757)
(0.0004311953 0.004356553 -0.0290531)
(0.000588972 0.005611054 -0.02891086)
(0.006230521 0.06161242 -0.09285714)
(0.003709991 0.07422054 -0.01646427)
(1.902486e-05 0.0001218547 -0.001103508)
(2.096246e-05 0.0001335111 -0.003822643)
(2.19448e-05 0.0001463804 -0.006198523)
(2.264773e-05 0.0001619263 -0.01116744)
(2.108611e-05 0.0001938801 -0.009974705)
(0.0002111301 0.001943082 -0.02195299)
(0.0002603289 0.002270388 -0.0171886)
(0.0003095892 0.002564978 -0.02139816)
(0.0003792221 0.002938276 -0.02464664)
(0.0005136371 0.003711128 -0.02398198)
(0.005534412 0.04001611 -0.07406045)
(0.007516618 0.04830153 -0.00977133)
(0.004077037 0.05883314 -0.03304136)
(1.757866e-05 6.613033e-05 -0.001016765)
(1.924484e-05 7.220149e-05 -0.003509595)
(2.005595e-05 7.885275e-05 -0.00566696)
(2.060602e-05 8.682208e-05 -0.01016051)
(1.933426e-05 0.0001033747 -0.009022325)
(0.0001915663 0.001028811 -0.01971968)
(0.0002326647 0.001192122 -0.01530737)
(0.0002710448 0.00133297 -0.01886243)
(0.0003248113 0.001507761 -0.02144989)
(0.000426502 0.001873774 -0.02054091)
(0.004588868 0.01979577 -0.06201286)
(0.006238671 0.02339892 -0.007564086)
(0.007779843 0.02813045 -0.02591785)
(0.004349038 0.0333052 -0.01178597)
(1.61007e-05 2.178356e-05 -0.000943651)
(1.752077e-05 2.390814e-05 -0.003247506)
(1.81565e-05 2.612167e-05 -0.005225452)
(1.855244e-05 2.816992e-05 -0.009331708)
(1.739618e-05 3.38031e-05 -0.00824701)
(0.0001707127 0.0003302675 -0.01792413)
(0.000204289 0.0003712815 -0.01381887)
(0.0002343477 0.0004184975 -0.01689284)
(0.0002746744 0.0004641104 -0.01902406)
(0.0003525597 0.000575424 -0.01800476)
(0.003674763 0.005962644 -0.0534512)
(0.004940672 0.006858282 -0.006223936)
(0.006253026 0.008200897 -0.02112901)
(0.00801256 0.009769635 -0.009319236)
(0.004415656 0.01144826 -0.005756255)
(9.526345e-05 -0.0006213793 -0.00538798)
(0.0001559801 -0.0005087314 -0.004450768)
(9.00781e-05 -0.0005183165 -0.01813975)
(0.0001055094 -0.0001832352 -0.003686157)
(0.0001520795 -0.0002014228 -0.01450461)
(8.147353e-05 -0.0001858557 -0.0280308)
(7.384638e-05 -9.497627e-05 -0.003109594)
(9.95414e-05 -0.0001079784 -0.01185599)
(0.0001331265 -0.0001218063 -0.0218676)
(6.791162e-05 -0.0001218187 -0.04724404)
(5.487701e-05 -3.377624e-05 -0.002669111)
(7.009434e-05 -3.794455e-05 -0.009945759)
(8.617149e-05 -4.331712e-05 -0.01772677)
(0.0001101191 -4.939566e-05 -0.03626185)
(3.976583e-05 -6.635232e-05 -0.03896597)
(4.268184e-05 -9.729475e-06 -0.002325383)
(5.216535e-05 -1.090824e-05 -0.008519536)
(6.058257e-05 -1.241508e-05 -0.01482504)
(7.048805e-05 -1.447623e-05 -0.02925011)
(6.286701e-05 -1.968239e-05 -0.02960621)
(0.000300237 -0.0001984284 -0.07826276)
(3.430934e-05 8.914881e-06 -0.002051682)
(4.073147e-05 9.956725e-06 -0.007418482)
(4.524352e-05 1.124227e-05 -0.01268556)
(4.971765e-05 1.300035e-05 -0.02441921)
(4.026921e-05 1.721795e-05 -0.02380335)
(0.0004769717 0.0001837603 -0.05907847)
(0.000292452 0.0002124963 -0.05541864)
(2.843861e-05 2.606595e-05 -0.001829008)
(3.291999e-05 2.899324e-05 -0.006544663)
(3.557094e-05 3.254136e-05 -0.01104093)
(3.742775e-05 3.728123e-05 -0.02087859)
(2.904292e-05 4.81473e-05 -0.01984085)
(0.0003106078 0.0005131793 -0.04738417)
(0.0004742651 0.0006296595 -0.0416822)
(0.0002659765 0.0007136772 -0.0612754)
(2.417058e-05 5.926109e-05 -0.001643879)
(2.749142e-05 6.587432e-05 -0.005832074)
(2.903283e-05 7.360665e-05 -0.009733528)
(2.981934e-05 8.361553e-05 -0.01815536)
(2.259869e-05 0.0001048922 -0.0169388)
(0.0002309453 0.00110184 -0.03942519)
(0.0003178694 0.001356704 -0.03337336)
(0.0004364706 0.001618989 -0.04601559)
(0.0002431557 0.001903363 -0.06173445)
(2.131283e-05 9.461447e-05 -0.001486152)
(2.389059e-05 0.0001047926 -0.00523483)
(2.493192e-05 0.000116585 -0.008659486)
(2.521424e-05 0.0001315519 -0.01597665)
(1.949689e-05 0.0001629717 -0.01469463)
(0.0001931811 0.001687978 -0.03357531)