/*--------------------------------*- C++ -*----------------------------------*\
| =========                 |                                                 |
| \\      /  F ield         | OpenFOAM: The Open Source CFD Toolbox           |
|  \\    /   O peration     | Version:  2306                                  |
|   \\  /    A nd           | Website:  www.openfoam.com                      |
|    \\/     M anipulation  |                                                 |
\*---------------------------------------------------------------------------*/
FoamFile
{
    version     2.0;
    format      ascii;
    arch        "LSB;label=32;scalar=64";
    class       volScalarField;
    location    "0.9/fuel";
    object      X.H2O;
}
// * * * * * * * * * * * * * * * * * * * * * * * * * * * * * * * * * * * * * //

dimensions      [0 0 0 0 0 0 0];

internalField   nonuniform List<scalar> 
16000
(
0.06750868
0.06623614
0.0872332
0.06743539
0.06370029
0.08623383
0.06616222
0.109301
0.08716621
0.06729216
0.05997418
0.08424383
0.06362502
0.1084033
0.08616644
0.06601778
0.1307641
0.1092394
0.08703513
0.06708136
0.0553243
0.08132096
0.05989661
0.1066152
0.08417558
0.06347797
0.1299273
0.1083414
0.08603458
0.06580523
0.1512592
0.1307069
0.1091187
0.08684203
0.06680443
0.05052503
0.0776705
0.05524301
0.1039862
0.08125127
0.0597451
0.1282609
0.1065526
0.08404205
0.06326161
0.1504705
0.1298698
0.1082201
0.08584034
0.065526
0.1707951
0.1512056
0.1305947
0.1089408
0.08658817
0.06653046
0.04700672
0.07388737
0.05043869
0.1006983
0.0775985
0.05508424
0.1258111
0.1039226
0.08111495
0.05952221
0.1489004
0.1282028
0.1064301
0.08384539
0.06297741
0.1700479
0.1504167
0.1297571
0.1080414
0.08558499
0.06524977
0.1894379
0.1707446
0.1511004
0.1304291
0.1087068
0.08633692
0.06630388
0.04480487
0.07107484
0.04691821
0.09728492
0.07381223
0.05027003
0.1227473
0.1006328
0.07745766
0.05485071
0.1465929
0.1257521
0.1037979
0.0809142
0.05922948
0.1685609
0.1488461
0.1280891
0.1062495
0.08358687
0.06269628
0.1887277
0.1699972
0.1503111
0.1295908
0.1078062
0.08533229
0.06502131
0.2072554
0.1893902
0.1706454
0.1509451
0.1302112
0.1084752
0.08612915
0.06607904
0.0435638
0.06928209
0.04471561
0.09474193
0.07099868
0.04674537
0.1195665
0.09721692
0.07366521
0.05002187
0.1437077
0.1226868
0.1005045
0.07725023
0.05454397
0.166376
0.1465378
0.1256366
0.1036141
0.08065032
0.05893993
0.1873145
0.1685098
0.1487396
0.1279212
0.1060119
0.08333104
0.06246367
0.2065786
0.1886798
0.1698977
0.1501551
0.1293719
0.1075734
0.08512329
0.0647946
0.2243092
0.2072101
0.1892964
0.170499
0.1507406
0.1299953
0.1082836
0.08592297
0.06585595
0.04300816
0.06825304
0.04347424
0.0931165
0.06920582
0.04454138
0.1171954
0.09467327
0.07084969
0.04649114
0.1407127
0.1195038
0.09708368
0.07344862
0.04969582
0.1636448
0.1436513
0.1225682
0.1003154
0.07697757
0.05424055
0.1852385
0.1663241
0.1464297
0.125466
0.1033723
0.08038919
0.05869993
0.2052321
0.1872662
0.1684095
0.1485823
0.1277003
0.1057767
0.08311939
0.06223272
0.2236628
0.2065331
0.1885856
0.1697506
0.1499498
0.1291551
0.1073809
0.0849159
0.06456964
0.2406538
0.2242661
0.2071211
0.1891577
0.170306
0.1505379
0.1298168
0.1080935
0.0857184
0.0656346
0.04300816
0.06778611
0.04291849
0.09218081
0.06817683
0.04329949
0.1156783
0.09304791
0.06905664
0.04428517
0.1384797
0.1171322
0.09453875
0.07063021
0.04615717
0.1608102
0.1406543
0.1193808
0.09688719
0.07316382
0.04937319
0.182644
0.1635918
0.1435404
0.1223932
0.1000667
0.07670773
0.05398777
0.2032543
0.1851896
0.1662224
0.1462701
0.1252416
0.103133
0.08017284
0.05846123
0.2223771
0.2051863
0.1871713
0.1682613
0.1483752
0.1274815
0.1055821
0.08290927
0.06200345
0.2400354
0.2236196
0.2064437
0.1884464
0.169557
0.1497463
0.1289758
0.1071898
0.08471011
0.06434642
0.2563373
0.2406127
0.2241813
0.2069893
0.1889749
0.1701147
0.1503703
0.1296396
0.1079048
0.08551542
0.06457103
0.0435638
0.06778611
0.04291849
0.09175533
0.06770995
0.04274354
0.1148041
0.0921124
0.06802779
0.04304257
0.1370502
0.1156153
0.09291357
0.06883693
0.04394869
0.1586966
0.1384209
0.1170083
0.09434038
0.07034167
0.04582674
0.1799516
0.1607553
0.1405396
0.1191994
0.09662865
0.07288191
0.04910198
0.200783
0.1825939
0.1634876
0.1433768
0.1221628
0.09982042
0.07648321
0.05373508
0.220489
0.2032079
0.1850934
0.1660722
0.1460599
0.1250193
0.1029347
0.07995775
0.05822383
0.2388057
0.2223336
0.2050962
0.1870311
0.168066
0.14817
0.1273005
0.1053889
0.0827007
0.06177586
0.2557449
0.2399942
0.2235345
0.2063115
0.188263
0.169365
0.149578
0.1287979
0.1070003
0.08450592
0.06327391
0.2714026
0.2562981
0.2405318
0.2240559
0.2068156
0.1887936
0.1699565
0.150204
0.1294639
0.1077177
0.0845394
0.06384655
0.04480487
0.06825304
0.04347424
0.09175533
0.06770995
0.04274354
0.1144062
0.09168701
0.06756102
0.04248634
0.1362259
0.1147413
0.0919784
0.06780833
0.04270519
0.1573431
0.1369916
0.1154918
0.0927155
0.06854812
0.04361581
0.177944
0.1586414
0.1383055
0.1168255
0.0940794
0.07005607
0.04554894
0.1982189
0.1798999
0.1606476
0.1403703
0.1189604
0.09637261
0.07264549
0.04882842
0.21813
0.2007356
0.1824955
0.1633337
0.1431614
0.1219346
0.09961552
0.07625903
0.05348249
0.2369998
0.2204449
0.2031167
0.1849513
0.1658742
0.1458517
0.1248352
0.1027376
0.07974393
0.05798776
0.2545669
0.2387642
0.2222479
0.2049631
0.1868463
0.1678725
0.1480003
0.1271208
0.1051971
0.08249367
0.06068199
0.2708343
0.2557055
0.239913
0.2234086
0.2061372
0.1880811
0.1692062
0.1494111
0.1286213
0.1068122
0.08352405
0.06254013
0.2858878
0.271365
0.2562208
0.2404121
0.2238904
0.2066433
0.1886438
0.1697996
0.150039
0.1292895
0.1068173
0.08387557
0.06330122
0.04700672
0.06928209
0.04471561
0.09218081
0.06817683
0.04329949
0.1144062
0.09168701
0.06756102
0.04248634
0.1358505
0.1143435
0.09155322
0.06734171
0.04214862
0.1565623
0.1361675
0.1146181
0.09178086
0.06751986
0.04237146
0.1766581
0.1572881
0.1368766
0.1153094
0.09245493
0.06826229
0.04333651
0.1963069
0.177892
0.1585331
0.138135
0.1165847
0.09382096
0.0698165
0.0452687
0.2156826
0.1981699
0.1797982
0.1604885
0.1401471
0.1187237
0.0961579
0.07240757
0.04855249
0.234744
0.2180849
0.2006424
0.1823501
0.163131
0.1429479
0.1217447
0.09941096
0.07603519
0.05323001
0.2528372
0.2369578
0.2203582
0.2029819
0.184764
0.165678
0.1456792
0.1246521
0.1025416
0.07953138
0.05685147
0.2697044
0.2545272
0.2386825
0.2221212
0.2047876
0.186663
0.1677124
0.1478317
0.1269424
0.1050068
0.08149788
0.05992135
0.285342
0.2707966
0.255628
0.239793
0.2232426
0.2059644
0.1879307
0.1690487
0.1492454
0.1284462
0.1059071
0.08285394
0.06198521
0.2998272
0.2858518
0.2712911
0.2561063
0.2402541
0.2237263
0.2065009
0.1884951
0.1696439
0.1498754
0.1284503
0.1062054
0.08337628
0.06293656
0.05052503
0.07107484
0.04691821
0.0931165
0.06920582
0.04454138
0.1148041
0.0921124
0.06802779
0.04304257
0.1358505
0.1143435
0.09155322
0.06734171
0.04214862
0.1562066
0.1357922
0.1142206
0.09135597
0.06705347
0.04181456
0.1759161
0.1565076
0.1360529
0.1144364
0.09152101
0.06723439
0.04209187
0.1950821
0.1766063
0.1571803
0.1367067
0.1150694
0.09219693
0.06802294
0.04305533
0.2138578
0.1962577
0.1777898
0.1583731
0.1379105
0.1163463
0.09360419
0.06957537
0.04498603
0.2324039
0.2156362
0.1980736
0.1796479
0.1602787
0.139926
0.1185252
0.09594186
0.07216813
0.04827416
0.2506767
0.2347011
0.2179963
0.2005044
0.1821584
0.16293
0.1427703
0.1215551
0.09920672
0.07581172
0.05200912
0.2680455
0.2527971
0.2368752
0.2202298
0.2028041
0.1845783
0.1655155
0.1455077
0.1244701
0.1023468
0.0785077
0.05601816
0.284257
0.2696665
0.2544492
0.2385616
0.221954
0.2046135
0.1865114
0.1675535
0.1476645
0.1267653
0.1040907
0.08080929
0.05933552
0.2993026
0.2853059
0.2707224
0.2555132
0.2396345
0.223078
0.2058215
0.1877814
0.1688924
0.149081
0.127603
0.1052901
0.08234802
0.06161249
0.313252
0.2997927
0.2857809
0.2711815
0.2559553
0.2400974
0.2235905
0.2063596
0.1883475
0.1694894
0.1490872
0.1278804
0.1057453
0.08304261
0.06275386
0.0553243
0.07388737
0.05043869
0.09474193
0.07099868
0.04674537
0.1156783
0.09304791
0.06905664
0.04428517
0.1362259
0.1147413
0.0919784
0.06780833
0.04270519
0.1562066
0.1357922
0.1142206
0.09135597
0.06705347
0.04181456
0.1755781
0.156152
0.1356779
0.1140392
0.09109652
0.06676823
0.0415349
0.1943752
0.1758646
0.1564001
0.1358837
0.1141973
0.09126374
0.06699565
0.04181082
0.2126887
0.1950331
0.1765046
0.1570209
0.136483
0.1148316
0.09198089
0.06778244
0.04277226
0.2306591
0.2138111
0.196161
0.1776388
0.1581621
0.137688
0.1161462
0.09338602
0.06933268
0.04470091
0.2484358
0.2323597
0.2155446
0.1979312
0.1794498
0.1600708
0.1397406
0.1183255
0.09572447
0.07192716
0.04691696
0.2659737
0.2506358
0.2346166
0.2178651
0.2003226
0.1819684
0.1627628
0.1425929
0.1213658
0.09900283
0.07473104
0.05098046
0.2826642
0.2680072
0.2527182
0.2367528
0.2200606
0.2026278
0.1844245
0.1653539
0.1453372
0.1242892
0.101408
0.07776781
0.05533572
0.2982597
0.2842207
0.2695918
0.2543337
0.2384021
0.2217883
0.2044695
0.186361
0.1673958
0.1474984
0.1259128
0.1034582
0.08028158
0.05893494
0.3127473
0.299268
0.2852349
0.2706125
0.2553617
0.2394773
0.2229418
0.2056797
0.1876334
0.1687373
0.1482895
0.1270286
0.1048245
0.08200871
0.06142515
0.3261903
0.3132189
0.2997247
0.2856759
0.2710368
0.2558054
0.2399678
0.2234559
0.2062194
0.1882012
0.1687454
0.1485523
0.1274518
0.1054379
0.08287551
0.05997418
0.0776705
0.05524301
0.09728492
0.07381223
0.05027003
0.1171954
0.09467327
0.07084969
0.04649114
0.1370502
0.1156153
0.09291357
0.06883693
0.04394869
0.1565623
0.1361675
0.1146181
0.09178086
0.06751986
0.04237146
0.1755781
0.156152
0.1356779
0.1140392
0.09109652
0.06676823
0.0415349
0.1940531
0.1755266
0.1560449
0.1355091
0.1138005
0.09083965
0.06652984
0.04125398
0.2120138
0.1943265
0.1757633
0.1562414
0.1356609
0.1139604
0.09104859
0.06675609
0.04152831
0.2295412
0.2126422
0.1949368
0.1763542
0.1568108
0.1362614
0.1146325
0.09176382
0.06754078
0.0424873
0.2467649
0.2306147
0.2137192
0.1960178
0.1774396
0.157953
0.1375013
0.1159449
0.09316644
0.06908841
0.04331113
0.2638248
0.2483936
0.2322725
0.2154092
0.1977432
0.1792532
0.1598963
0.1395539
0.1181244
0.09550569
0.07075293
0.04549266
0.2806751
0.2659345
0.2505552
0.2344916
0.2176921
0.2001422
0.1818102
0.1625958
0.1424159
0.1211769
0.0980161
0.07384998
0.0499927
0.2967288
0.2826275
0.2679316
0.2526013
0.2365914
0.2198928
0.2024817
0.1842716
0.1651932
0.1451677
0.1234169
0.100731
0.07717042
0.05483748
0.311744
0.2982249
0.2841492
0.2694812
0.2541812
0.2382438
0.2216511
0.2043265
0.1862116
0.1672392
0.1466986
0.1253245
0.1029737
0.07992239
0.05873077
0.3257043
0.3127141
0.2991998
0.2851295
0.2704675
0.2552114
0.2393473
0.2228067
0.2055389
0.1874864
0.1679902
0.1477505
0.1265951
0.1045122
0.08183835
0.338668
0.3261585
0.3131536
0.2996239
0.2855372
0.2708933
0.2556815
0.2398393
0.2233223
0.2060802
0.187496
0.1682406
0.1481501
0.1271655
0.105284
0.06370029
0.08132096
0.05989661
0.1006983
0.0775985
0.05508424
0.1195665
0.09721692
0.07366521
0.05002187
0.1384797
0.1171322
0.09453875
0.07063021
0.04615717
0.1573431
0.1369916
0.1154918
0.0927155
0.06854812
0.04361581
0.1759161
0.1565076
0.1360529
0.1144364
0.09152101
0.06723439
0.04209187
0.1940531
0.1755266
0.1560449
0.1355091
0.1138005
0.09083965
0.06652984
0.04125398
0.2117063
0.1940045
0.1754256
0.1558865
0.1352868
0.1135641
0.09062497
0.06629076
0.04097181
0.2288959
0.2119676
0.1942306
0.1756136
0.1560323
0.1354401
0.1137622
0.09083269
0.06651569
0.04124435
0.2456944
0.229497
0.2125508
0.1947944
0.176156
0.1566026
0.1360757
0.1144324
0.09154571
0.06729798
0.04110121
0.2622227
0.2467225
0.2305272
0.2135832
0.1958291
0.1772421
0.1577776
0.1373134
0.1157422
0.09294545
0.06789826
0.04187324
0.2786122
0.2637845
0.2483104
0.2321435
0.2152305
0.1975568
0.1790884
0.1597208
0.1393661
0.1179221
0.09443876
0.06958184
0.04373561
0.2948172
0.2806376
0.2658574
0.2504357
0.2343266
0.2175205
0.1999922
0.1816523
0.1624291
0.142239
0.1202618
0.09721457
0.07302852
0.04912069
0.3102713
0.2966936
0.2825552
0.2678198
0.252447
0.2364312
0.2197537
0.2023365
0.1841195
0.1650335
0.1443501
0.1227883
0.1001852
0.07674013
0.05456788
0.3247383
0.3117106
0.2981563
0.2840432
0.2693353
0.2540299
0.2381129
0.2215149
0.2041846
0.1860633
0.1664847
0.146147
0.124874
0.1026441
0.07973994
0.3381996
0.3256724
0.3126485
0.2990987
0.2849904
0.2703235
0.255087
0.2392183
0.2226726
0.2053993
0.1867786
0.1674817
0.1473438
0.1263045
0.1043555
0.3507085
0.3386373
0.3260957
0.3130567
0.2994907
0.2853995
0.2707745
0.2555585
0.2397117
0.2231897
0.2054099
0.1870178
0.1678611
0.1478814
0.1270222
0.06623614
0.08424383
0.06362502
0.1039862
0.08125127
0.0597451
0.1227473
0.1006328
0.07745766
0.05485071
0.1407127
0.1195038
0.09708368
0.07344862
0.04969582
0.1586966
0.1384209
0.1170083
0.09434038
0.07034167
0.04582674
0.1766581
0.1572881
0.1368766
0.1153094
0.09245493
0.06826229
0.04333651
0.1943752
0.1758646
0.1564001
0.1358837
0.1141973
0.09126374
0.06699565
0.04181082
0.2117063
0.1940045
0.1754256
0.1558865
0.1352868
0.1135641
0.09062497
0.06629076
0.04097181
0.2286018
0.2116602
0.1939089
0.1752762
0.1556778
0.1350665
0.1133665
0.09040967
0.06605101
0.04068837
0.2450763
0.2288518
0.2118766
0.1940888
0.1754162
0.155825
0.1352555
0.1135634
0.09061604
0.06627447
0.03986514
0.2611961
0.2456522
0.2294099
0.2124154
0.1946065
0.1759594
0.1564282
0.1358891
0.1142314
0.09132656
0.06611705
0.03973212
0.2770741
0.2621822
0.246639
0.2303976
0.2134037
0.1956418
0.1770764
0.157601
0.1371242
0.1155382
0.09186773
0.06672407
0.04016561
0.2928347
0.2785736
0.2637049
0.2481872
0.2319731
0.2150532
0.1974005
0.1789224
0.1595441
0.139177
0.1169347
0.09337893
0.06818925
0.04151419
0.3084324
0.2947813
0.2805638
0.2657431
0.2502781
0.2341629
0.2173777
0.1998423
0.1814946
0.1622626
0.1413825
0.1195189
0.09646917
0.07232221
0.04852317
0.3233204
0.3102375
0.2966243
0.282448
0.2676721
0.2522939
0.2362985
0.2196154
0.2021921
0.1839684
0.1642628
0.1437612
0.1222815
0.0997926
0.07650977
0.3372689
0.3247062
0.3116447
0.2980546
0.2839033
0.2691904
0.2539047
0.2379829
0.2213798
0.2040437
0.1853487
0.1659645
0.1457246
0.1245676
0.1024768
0.350257
0.3381689
0.3256094
0.3125514
0.2989652
0.2848523
0.2702044
0.2549637
0.2390903
0.2225396
0.2047265
0.1862969
0.1670981
0.1470711
0.1261586
0.3623339
0.3506791
0.3385769
0.3260025
0.3129287
0.2993585
0.2852856
0.2706567
0.2554365
0.2395851
0.2225509
0.2049554
0.1866582
0.1676076
0.1477469
0.06750868
0.08623383
0.06616222
0.1066152
0.08417558
0.06347797
0.1258111
0.1039226
0.08111495
0.05952221
0.1437077
0.1226868
0.1005045
0.07725023
0.05454397
0.1608102
0.1406543
0.1193808
0.09688719
0.07316382
0.04937319
0.177944
0.1586414
0.1383055
0.1168255
0.0940794
0.07005607
0.04554894
0.1950821
0.1766063
0.1571803
0.1367067
0.1150694
0.09219693
0.06802294
0.04305533
0.2120138
0.1943265
0.1757633
0.1562414
0.1356609
0.1139604
0.09104859
0.06675609
0.04152831
0.2286018
0.2116602
0.1939089
0.1752762
0.1556778
0.1350665
0.1133665
0.09040967
0.06605101
0.04068837
0.2447946
0.2285579
0.2115694
0.1937674
0.1750793
0.155471
0.1348823
0.1131682
0.09019375
0.06581058
0.03931271
0.2606034
0.2450343
0.2287652
0.2117419
0.1939018
0.1752205
0.1556516
0.1350702
0.1133638
0.09039864
0.06510273
0.03854712
0.2760886
0.2611558
0.2455691
0.229281
0.2122369
0.1944202
0.1757948
0.156253
0.1357016
0.1140294
0.09025964
0.06500004
0.03817521
0.2913567
0.2770354
0.2621023
0.2465153
0.2302266
0.2132257
0.1954847
0.1769096
0.1574232
0.1369338
0.1145426
0.09080715
0.06537595
0.03817216
0.3065255
0.2927977
0.2784974
0.2635871
0.2480245
0.2318041
0.2149044
0.1972431
0.1787554
0.1593662
0.1382537
0.1159535
0.09212164
0.06647557
0.03857813
0.3215501
0.3083979
0.2947104
0.2804543
0.2655923
0.2501217
0.2340267
0.217235
0.1996926
0.1813372
0.1614559
0.1406871
0.1188279
0.09582973
0.0718489
0.3359028
0.323288
0.3101709
0.2965214
0.2823065
0.2675255
0.252167
0.2361666
0.219478
0.2020486
0.1832387
0.1637078
0.1432865
0.1219171
0.0995826
0.3493596
0.337238
0.3246429
0.311547
0.2979203
0.2837643
0.2690705
0.2537804
0.2378539
0.2212456
0.2033647
0.1848561
0.1655662
0.1454373
0.124412
0.3618982
0.3502274
0.3381084
0.325516
0.3124231
0.2988326
0.2847381
0.2700862
0.2548413
0.2389633
0.2218985
0.2042688
0.1859334
0.1668408
0.1469342
0.3735642
0.3623055
0.3506209
0.3384873
0.3258794
0.3128017
0.2992492
0.2851726
0.2705399
0.2553154
0.2389752
0.2221179
0.2046137
0.1864181
0.1674807
0.0872332
0.06743539
0.1084033
0.08616644
0.06601778
0.1282609
0.1065526
0.08404205
0.06326161
0.1465929
0.1257521
0.1037979
0.0809142
0.05922948
0.1636448
0.1436513
0.1225682
0.1003154
0.07697757
0.05424055
0.1799516
0.1607553
0.1405396
0.1191994
0.09662865
0.07288191
0.04910198
0.1963069
0.177892
0.1585331
0.138135
0.1165847
0.09382096
0.0698165
0.0452687
0.2126887
0.1950331
0.1765046
0.1570209
0.136483
0.1148316
0.09198089
0.06778244
0.04277226
0.2288959
0.2119676
0.1942306
0.1756136
0.1560323
0.1354401
0.1137622
0.09083269
0.06651569
0.04124435
0.2447946
0.2285579
0.2115694
0.1937674
0.1750793
0.155471
0.1348823
0.1131682
0.09019375
0.06581058
0.03931271
0.2603333
0.2447528
0.2284714
0.211435
0.1935809
0.1748841
0.1552981
0.1346976
0.1129695
0.08997722
0.06464338
0.03801818
0.2755196
0.2605633
0.2449517
0.2286369
0.2115642
0.1937164
0.1750569
0.1554776
0.1348842
0.1131636
0.08934154
0.06402734
0.03708814
0.2904097
0.2760501
0.2610764
0.2454461
0.2291109
0.2120597
0.1942642
0.1756293
0.1560769
0.1355132
0.1130451
0.08925195
0.06377084
0.0364395
0.305104
0.2913196
0.276959
0.261984
0.246352
0.2300569
0.2130763
0.1953265
0.1767416
0.1572442
0.136004
0.1135621
0.08959079
0.06384206
0.03588768
0.3197145
0.30649
0.2927247
0.2783845
0.2634314
0.2478629
0.2316622
0.2147547
0.1970846
0.1785873
0.1584973
0.1373356
0.1147886
0.09057727
0.06425039
0.03376392
0.3341973
0.321517
0.3083299
0.2946054
0.2803098
0.2654426
0.2499915
0.2338907
0.2170926
0.1995432
0.1805739
0.1608009
0.14004
0.1182351
0.09540196
0.3480425
0.3358716
0.323224
0.3100721
0.2963856
0.2821659
0.2674041
0.2520409
0.2360354
0.2193413
0.2013556
0.1827134
0.1632603
0.1429449
0.1217221
0.3610325
0.3493299
0.3371771
0.3245489
0.3114179
0.2977869
0.2836494
0.2689515
0.2536571
0.2377259
0.2205987
0.2028967
0.1844789
0.1652953
0.1452914
0.3731436
0.3618698
0.3501691
0.3380185
0.3253926
0.3122957
0.2987229
0.2846248
0.269969
0.2547198
0.2383512
0.2214625
0.2039234
0.1856898
0.1667117
0.3844181
0.3735368
0.3622495
0.3505345
0.3383688
0.3257572
0.3126966
0.2991407
0.2850605
0.2704239
0.2547319
0.2385617
0.2217923
0.2043855
0.1862978
0.109301
0.08716621
0.06729216
0.1299273
0.1083414
0.08603458
0.06580523
0.1489004
0.1282028
0.1064301
0.08384539
0.06297741
0.166376
0.1465378
0.1256366
0.1036141
0.08065032
0.05893993
0.182644
0.1635918
0.1435404
0.1223932
0.1000667
0.07670773
0.05398777
0.1982189
0.1798999
0.1606476
0.1403703
0.1189604
0.09637261
0.07264549
0.04882842
0.2138578
0.1962577
0.1777898
0.1583731
0.1379105
0.1163463
0.09360419
0.06957537
0.04498603
0.2295412
0.2126422
0.1949368
0.1763542
0.1568108
0.1362614
0.1146325
0.09176382
0.06754078
0.0424873
0.2450763
0.2288518
0.2118766
0.1940888
0.1754162
0.155825
0.1352555
0.1135634
0.09061604
0.06627447
0.03986514
0.2603333
0.2447528
0.2284714
0.211435
0.1935809
0.1748841
0.1552981
0.1346976
0.1129695
0.08997722
0.06464338
0.03801818
0.2752603
0.2602933
0.2446703
0.2283434
0.2112578
0.1933959
0.1747209
0.1551247
0.1345124
0.1127701
0.08892496
0.06358708
0.03660254
0.2898629
0.2754813
0.2604843
0.2448292
0.2284676
0.2113879
0.1935613
0.1748926
0.1553029
0.1346975
0.1121892
0.08837218
0.06287478
0.03549741
0.3041931
0.2903728
0.2759741
0.2609588
0.2452837
0.2289421
0.2119114
0.1941073
0.175463
0.1558999
0.1345947
0.1121146
0.08814331
0.06243672
0.03454356
0.3183461
0.3050683
0.2912464
0.2768457
0.2618279
0.2461899
0.2299144
0.2129258
0.1951673
0.1765725
0.1563698
0.1350873
0.1124363
0.08820774
0.06211904
0.03291294
0.3324289
0.3196804
0.3064199
0.2926164
0.2782354
0.2632769
0.2477275
0.2315194
0.214604
0.1969251
0.1777656
0.1576325
0.1362446
0.1133571
0.08857431
0.06062063
0.03117196
0.3463983
0.3341654
0.3214517
0.3082291
0.2944668
0.2801663
0.265318
0.2498615
0.2337548
0.2169504
0.1988186
0.1799541
0.1601911
0.1394847
0.1178385
0.3597619
0.3480125
0.33581
0.323129
0.3099416
0.2962507
0.2820495
0.2672833
0.2519155
0.235905
0.2186814
0.2008567
0.1822899
0.1629384
0.1427622
0.372308
0.3610039
0.3492712
0.3370867
0.3244248
0.3112897
0.2976765
0.2835353
0.2688333
0.2535346
0.2371084
0.220153
0.2025384
0.1842224
0.1651577
0.3840119
0.3731162
0.3618136
0.3500825
0.3378997
0.32527
0.3121903
0.2986141
0.2845124
0.2698527
0.2541344
0.2379349
0.2211335
0.2036919
0.1855675
0.3949128
0.3843917
0.3734828
0.3621662
0.3504204
0.3382511
0.3256561
0.3125923
0.2990331
0.2849493
0.269865
0.2543365
0.2382509
0.2215749
0.2042712
0.1307641
0.1092394
0.08703513
0.06708136
0.1504705
0.1298698
0.1082201
0.08584034
0.065526
0.1685609
0.1488461
0.1280891
0.1062495
0.08358687
0.06269628
0.1852385
0.1663241
0.1464297
0.125466
0.1033723
0.08038919
0.05869993
0.200783
0.1825939
0.1634876
0.1433768
0.1221628
0.09982042
0.07648321
0.05373508
0.2156826
0.1981699
0.1797982
0.1604885
0.1401471
0.1187237
0.0961579
0.07240757
0.04855249
0.2306591
0.2138111
0.196161
0.1776388
0.1581621
0.137688
0.1161462
0.09338602
0.06933268
0.04470091
0.2456944
0.229497
0.2125508
0.1947944
0.176156
0.1566026
0.1360757
0.1144324
0.09154571
0.06729798
0.04110121
0.2606034
0.2450343
0.2287652
0.2117419
0.1939018
0.1752205
0.1556516
0.1350702
0.1133638
0.09039864
0.06510273
0.03854712
0.2752603
0.2602933
0.2446703
0.2283434
0.2112578
0.1933959
0.1747209
0.1551247
0.1345124
0.1127701
0.08892496
0.06358708
0.03660254
0.2896137
0.275222
0.2602145
0.2445482
0.2281746
0.2110819
0.1932413
0.1745573
0.1549508
0.1343266
0.1118005
0.08797321
0.06246833
0.0350732
0.3036671
0.2898261
0.2754056
0.2603672
0.2446676
0.2282996
0.2112404
0.1934056
0.1747277
0.1551276
0.1337887
0.1112948
0.08733295
0.06165239
0.03378883
0.3174692
0.3041576
0.2902999
0.2758614
0.2608034
0.2451224
0.2288007
0.2117622
0.1939496
0.1752958
0.1550366
0.1337255
0.1110895
0.08694001
0.06101243
0.03216467
0.3311107
0.3183119
0.304998
0.2911377
0.2766961
0.2616728
0.2460539
0.229771
0.2127744
0.1950069
0.1757462
0.155507
0.1340337
0.1111551
0.08665456
0.05990894
0.03081128
0.3446936
0.3323961
0.3196131
0.306316
0.2924734
0.2780873
0.2631472
0.247591
0.2313757
0.2144522
0.1961454
0.1769474
0.1566041
0.1349029
0.1115
0.08530444
0.0585204
0.02926483
0.3581758
0.3463677
0.3341026
0.3213548
0.3080959
0.2943291
0.2800469
0.2651935
0.2497317
0.2336191
0.2162606
0.1982302
0.179377
0.1596676
0.1391129
0.3710815
0.359733
0.3479532
0.3357187
0.3230035
0.309812
0.296139
0.2819337
0.2671633
0.2517909
0.2352752
0.2182064
0.2004544
0.1819851
0.1627661
0.3832048
0.3722804
0.3609474
0.3491842
0.3369672
0.3243015
0.3111837
0.297567
0.283422
0.2687161
0.2529441
0.236683
0.2198118
0.2022947
0.1840921
0.3945203
0.3839854
0.373062
0.3617301
0.3499681
0.3377817
0.3251686
0.3120857
0.2985062
0.2844008
0.2692919
0.2537362
0.2376209
0.2209129
0.2035757
0.4050647
0.3948874
0.3843395
0.3734025
0.3620562
0.350307
0.3381537
0.3255558
0.3124888
0.2989263
0.2844132
0.2694862
0.2540392
0.2380433
0.221466
0.1512592
0.1307069
0.1091187
0.08684203
0.06680443
0.1700479
0.1504167
0.1297571
0.1080414
0.08558499
0.06524977
0.1873145
0.1685098
0.1487396
0.1279212
0.1060119
0.08333104
0.06246367
0.2032543
0.1851896
0.1662224
0.1462701
0.1252416
0.103133
0.08017284
0.05846123
0.21813
0.2007356
0.1824955
0.1633337
0.1431614
0.1219346
0.09961552
0.07625903
0.05348249
0.2324039
0.2156362
0.1980736
0.1796479
0.1602787
0.139926
0.1185252
0.09594186
0.07216813
0.04827416
0.2467649
0.2306147
0.2137192
0.1960178
0.1774396
0.157953
0.1375013
0.1159449
0.09316644
0.06908841
0.04331113
0.2611961
0.2456522
0.2294099
0.2124154
0.1946065
0.1759594
0.1564282
0.1358891
0.1142314
0.09132656
0.06611705
0.03973212
0.2755196
0.2605633
0.2449517
0.2286369
0.2115642
0.1937164
0.1750569
0.1554776
0.1348842
0.1131636
0.08934154
0.06402734
0.03708814
0.2896137
0.275222
0.2602145
0.2445482
0.2281746
0.2110819
0.1932413
0.1745573
0.1549508
0.1343266
0.1118005
0.08797321
0.06246833
0.0350732
0.3034274
0.289577
0.2751466
0.2600977
0.2443869
0.228007
0.2109349
0.1930861
0.1743931
0.1547763
0.1334225
0.1109227
0.0869646
0.06129304
0.03344052
0.3169629
0.3036319
0.2897536
0.2752936
0.2602127
0.2445072
0.2281591
0.2110924
0.1932493
0.1745622
0.1542737
0.1329537
0.1103345
0.08623019
0.0603712
0.03166102
0.330266
0.3174352
0.3040877
0.2901919
0.2757126
0.2606492
0.2449874
0.2286585
0.2116123
0.1937912
0.1744803
0.154219
0.1327669
0.1099757
0.08565489
0.05926038
0.0303921
0.3434228
0.3310778
0.3182443
0.3048938
0.2909942
0.2765475
0.2615426
0.245917
0.2296267
0.2126219
0.1942231
0.1749302
0.1545144
0.1328336
0.1097155
0.08466071
0.05818484
0.02908633
0.3565314
0.344662
0.3323314
0.3195132
0.3061786
0.2923313
0.277963
0.2630167
0.2474537
0.231231
0.2137102
0.1953685
0.1759736
0.1553387
0.1331615
0.1084653
0.08341086
0.05685342
0.02780597
0.3695506
0.3581463
0.3463072
0.3340094
0.3212267
0.3079636
0.2942145
0.2799276
0.2650693
0.249602
0.2329611
0.2157004
0.197682
0.1788813
0.159317
0.3820204
0.3710537
0.3596759
0.3478653
0.3355979
0.3228789
0.3097046
0.2960279
0.2818186
0.2670439
0.2511888
0.234822
0.2178233
0.200165
0.1818219
0.3937405
0.3831782
0.3722259
0.3608635
0.3490691
0.3368485
0.3241995
0.3110784
0.2974582
0.2833095
0.2681505
0.2525374
0.2363572
0.2195796
0.202171
0.4046853
0.3944948
0.3839331
0.3729815
0.3616198
0.3498544
0.3376841
0.3250681
0.311982
0.2983991
0.2838629
0.2689106
0.2534359
0.2374103
0.2208022
0.4148888
0.4050401
0.394837
0.3842621
0.3732964
0.3619468
0.3502132
0.3380572
0.3254563
0.3123862
0.2984115
0.2840499
0.2692015
0.2538407
0.2379393
0.1707951
0.1512056
0.1305947
0.1089408
0.08658817
0.06653046
0.1887277
0.1699972
0.1503111
0.1295908
0.1078062
0.08533229
0.06502131
0.2052321
0.1872662
0.1684095
0.1485823
0.1277003
0.1057767
0.08311939
0.06223272
0.220489
0.2032079
0.1850934
0.1660722
0.1460599
0.1250193
0.1029347
0.07995775
0.05822383
0.234744
0.2180849
0.2006424
0.1823501
0.163131
0.1429479
0.1217447
0.09941096
0.07603519
0.05323001
0.2484358
0.2323597
0.2155446
0.1979312
0.1794498
0.1600708
0.1397406
0.1183255
0.09572447
0.07192716
0.04691696
0.2622227
0.2467225
0.2305272
0.2135832
0.1958291
0.1772421
0.1577776
0.1373134
0.1157422
0.09294545
0.06789826
0.04187324
0.2760886
0.2611558
0.2455691
0.229281
0.2122369
0.1944202
0.1757948
0.156253
0.1357016
0.1140294
0.09025964
0.06500004
0.03817521
0.2898629
0.2754813
0.2604843
0.2448292
0.2284676
0.2113879
0.1935613
0.1748926
0.1553029
0.1346975
0.1121892
0.08837218
0.06287478
0.03549741
0.3034274
0.289577
0.2751466
0.2600977
0.2443869
0.228007
0.2109349
0.1930861
0.1743931
0.1547763
0.1334225
0.1109227
0.0869646
0.06129304
0.03344052
0.3167322
0.3033922
0.2895047
0.2750348
0.2599435
0.2442269
0.2278669
0.2107875
0.1929305
0.1742284
0.153927
0.1326032
0.1099911
0.08590423
0.06006944
0.03141167
0.3297782
0.3169291
0.3035623
0.2896462
0.2751455
0.2600592
0.244373
0.228018
0.2109438
0.1930924
0.1737557
0.1534886
0.1320562
0.1093144
0.08507343
0.05881028
0.03006774
0.3426085
0.3302333
0.3173681
0.303984
0.2900492
0.2755649
0.26052
0.2448516
0.2285156
0.2114617
0.1930179
0.1737075
0.1533165
0.1317244
0.1087852
0.08407218
0.05778707
0.02884696
0.3553056
0.3433912
0.3310128
0.3181441
0.304756
0.2908517
0.2764228
0.2614116
0.245779
0.2294813
0.2118763
0.1934487
0.1739907
0.1533831
0.1314844
0.107866
0.08310252
0.05665591
0.02770224
0.3679635
0.356501
0.3445997
0.3322353
0.3193811
0.3060421
0.2922121
0.2778379
0.2628852
0.2473154
0.2305233
0.2129706
0.1944435
0.1747749
0.1536956
0.1303139
0.1067101
0.08190255
0.05549338
0.0266793
0.3805419
0.3695222
0.3580881
0.3462174
0.3338862
0.3210995
0.3078535
0.2941
0.2798085
0.2649452
0.248973
0.2324266
0.2151785
0.1972112
0.1785492
0.3925961
0.3819935
0.3709986
0.3595911
0.347749
0.3354779
0.3227756
0.3095979
0.2959174
0.2817042
0.2664674
0.2507554
0.2344564
0.2175476
0.20001
0.4039314
0.3937148
0.3831256
0.372145
0.3607525
0.3489547
0.3367503
0.3240982
0.3109739
0.2973503
0.2827672
0.267761
0.2522259
0.2361357
0.2194618
0.4145218
0.4046606
0.3944443
0.3838555
0.3728751
0.3615102
0.3497604
0.3375872
0.3249682
0.311879
0.2978826
0.2834973
0.2686229
0.2532345
0.2373046
0.424399
0.414865
0.4049915
0.3947622
0.3841596
0.3731909
0.3618564
0.3501201
0.3379613
0.3253575
0.3118914
0.2980627
0.2837769
0.2690113
0.2537413
0.1894379
0.1707446
0.1511004
0.1304291
0.1087068
0.08633692
0.06630388
0.2065786
0.1886798
0.1698977
0.1501551
0.1293719
0.1075734
0.08512329
0.0647946
0.2223771
0.2051863
0.1871713
0.1682613
0.1483752
0.1274815
0.1055821
0.08290927
0.06200345
0.2369998
0.2204449
0.2031167
0.1849513
0.1658742
0.1458517
0.1248352
0.1027376
0.07974393
0.05798776
0.2506767
0.2347011
0.2179963
0.2005044
0.1821584
0.16293
0.1427703
0.1215551
0.09920672
0.07581172
0.05200912
0.2638248
0.2483936
0.2322725
0.2154092
0.1977432
0.1792532
0.1598963
0.1395539
0.1181244
0.09550569
0.07075293
0.04549266
0.2770741
0.2621822
0.246639
0.2303976
0.2134037
0.1956418
0.1770764
0.157601
0.1371242
0.1155382
0.09186773
0.06672407
0.04016561
0.2904097
0.2760501
0.2610764
0.2454461
0.2291109
0.2120597
0.1942642
0.1756293
0.1560769
0.1355132
0.1130451
0.08925195
0.06377084
0.0364395
0.3036671
0.2898261
0.2754056
0.2603672
0.2446676
0.2282996
0.2112404
0.1934056
0.1747277
0.1551276
0.1337887
0.1112948
0.08733295
0.06165239
0.03378883
0.3167322
0.3033922
0.2895047
0.2750348
0.2599435
0.2442269
0.2278669
0.2107875
0.1929305
0.1742284
0.153927
0.1326032
0.1099911
0.08590423
0.06006944
0.03141167
0.3295559
0.3166984
0.3033228
0.2893975
0.2748871
0.2597905
0.2440932
0.2277264
0.2106395
0.1927744
0.1734263
0.1531568
0.1317327
0.1090104
0.08479912
0.05858312
0.02989623
0.3421384
0.3297457
0.3168623
0.3034591
0.2895042
0.2749985
0.2599309
0.2442383
0.2278764
0.2107947
0.1923279
0.1730138
0.152644
0.1311017
0.1082431
0.08366209
0.0574727
0.02864378
0.3545202
0.3425771
0.3301687
0.3172684
0.303847
0.2899075
0.2754411
0.2603901
0.2447152