/*--------------------------------*- C++ -*----------------------------------*\
| =========                 |                                                 |
| \\      /  F ield         | OpenFOAM: The Open Source CFD Toolbox           |
|  \\    /   O peration     | Version:  2306                                  |
|   \\  /    A nd           | Website:  www.openfoam.com                      |
|    \\/     M anipulation  |                                                 |
\*---------------------------------------------------------------------------*/
FoamFile
{
    version     2.0;
    format      ascii;
    arch        "LSB;label=32;scalar=64";
    class       volScalarField;
    location    "1.5/air";
    object      diffSp.O2;
}
// * * * * * * * * * * * * * * * * * * * * * * * * * * * * * * * * * * * * * //

dimensions      [0 2 -1 0 0 0 0];

internalField   nonuniform List<scalar> 
16000
(
0.0002372008
0.0002326492
0.000242555
0.0002325685
0.0002301361
0.0002414674
0.000221656
0.0002439156
0.0002414497
0.0002299852
0.0002287096
0.000240528
0.0002149562
0.0002434987
0.0002382531
0.0002148455
0.0002450091
0.0002435186
0.0002404905
0.0002284747
0.0002280474
0.0002398378
0.0002109767
0.0002431264
0.0002354645
0.000204945
0.0002448209
0.0002422996
0.0002354208
0.0002106825
0.0002459665
0.0002448547
0.0002431606
0.0002397715
0.0002276996
0.0002280474
0.0002394726
0.0002090994
0.0002428424
0.0002334055
0.0001988327
0.000244658
0.0002411918
0.000230936
0.0001985897
0.0002458649
0.0002443266
0.0002412037
0.0002332804
0.0002085171
0.0002468347
0.0002459014
0.000244719
0.0002428889
0.0002393677
0.0002275453
0.0001406789
0.0002287096
0.0002394726
0.0002090994
0.0002426882
0.0002323136
0.0001958884
0.0002445354
0.0002403384
0.000227593
0.0001909295
0.0002457816
0.0002438541
0.0002393978
0.0002274777
0.0001952164
0.0002467685
0.0002456333
0.0002438874
0.0002403558
0.0002320671
0.0002081045
0.0002476299
0.0002468033
0.000245848
0.0002446245
0.0002427489
0.0002393258
0.0002280022
0.000140662
0.0001412819
0.0001410543
0.0002301361
0.0002398378
0.0002109767
0.0002426882
0.0002323136
0.0001958884
0.000244469
0.0002398726
0.0002258111
0.0001871857
0.000245721
0.0002434924
0.0002379912
0.0002231155
0.0001866723
0.000246717
0.0002454016
0.0002431283
0.0002379904
0.0002255006
0.000194568
0.000247579
0.0002466388
0.0002454403
0.0002435662
0.000239897
0.0002319229
0.0002094263
0.0002483654
0.000247611
0.0002467806
0.000245819
0.000244592
0.0002427724
0.0002396616
0.0002291567
0.0001406251
0.0001412786
0.0001410303
0.0001418675
0.0001416257
0.0001414324
0.0002326492
0.000240528
0.0002149562
0.0002428424
0.0002334055
0.0001988327
0.000244469
0.0002398726
0.0002258111
0.0001871857
0.0002456888
0.0002432952
0.0002372189
0.0002207787
0.0001824629
0.000246681
0.0002452291
0.0002425389
0.0002361313
0.000220538
0.0001858452
0.000247541
0.0002465024
0.0002450794
0.0002425856
0.0002372131
0.0002252506
0.0001966314
0.0002483223
0.0002474896
0.0002465401
0.0002453176
0.0002434261
0.0002399243
0.0002328905
0.0002126735
0.0002490481
0.0002483512
0.0002475993
0.0002467752
0.0002458249
0.0002446371
0.0002429715
0.0002403631
0.0002312767
0.0001405539
0.0001412729
0.0001409738
0.0001418673
0.0001416226
0.0001414026
0.0001424046
0.0001421697
0.0001419699
0.0001418156
0.0002372008
0.0002414674
0.000221656
0.0002431264
0.0002354645
0.000204945
0.0002445354
0.0002403384
0.000227593
0.0001909295
0.0002456888
0.0002432952
0.0002372189
0.0002207787
0.0001824629
0.0002466623
0.0002451366
0.000242215
0.0002351053
0.0002178708
0.0001815399
0.000247515
0.0002464041
0.0002448061
0.0002418152
0.0002350906
0.0002201987
0.0001884458
0.0002482906
0.000247392
0.0002463352
0.0002448661
0.0002423335
0.0002372308
0.0002267927
0.0002016144
0.0002490096
0.0002482501
0.0002474269
0.0002464914
0.0002452953
0.0002435139
0.0002404691
0.0002349143
0.0002183804
0.0002496846
0.0002490357
0.0002483434
0.0002476017
0.0002467933
0.0002458739
0.0002447686
0.0002433442
0.000241411
0.0002351329
0.0001403644
0.000141267
0.0001408535
0.0001418684
0.0001416178
0.0001413314
0.0001424054
0.0001421717
0.0001419669
0.0001417818
0.0001428945
0.0001426684
0.0001424716
0.0001423156
0.0001422009
0.000242555
0.0002325685
0.0002434987
0.0002382531
0.0002148455
0.000244658
0.0002411918
0.000230936
0.0001985897
0.000245721
0.0002434924
0.0002379912
0.0002231155
0.0001866723
0.0002466623
0.0002451366
0.000242215
0.0002351053
0.0002178708
0.0001815399
0.0002475019
0.0002463525
0.0002446581
0.0002413888
0.0002339149
0.0002174804
0.0001844223
0.0002482693
0.0002473238
0.0002461851
0.0002445192
0.0002414671
0.0002350924
0.0002221808
0.0001946574
0.0002489815
0.0002481703
0.0002472849
0.0002462454
0.000244811
0.0002424496
0.0002380884
0.0002300085
0.000210069
0.0002496493
0.0002489458
0.000248202
0.0002474048
0.0002465095
0.0002453968
0.0002438503
0.0002415009
0.0002378564
0.0002278286
0.000250279
0.000249673
0.0002490292
0.0002483478
0.0002476224
0.0002468403
0.000245973
0.0002449936
0.0002438986
0.0002428571
0.0001390476
0.0001412849
0.0001405486
0.0001418758
0.0001416154
0.0001411812
0.0001424084
0.0001421787
0.0001419621
0.0001417015
0.0001428955
0.0001426718
0.0001424753
0.0001423125
0.000142165
0.000143347
0.0001431253
0.0001429316
0.0001427739
0.0001426595
6.032257e-05
0.0002439156
0.0002414497
0.0002299852
0.0002448209
0.0002422996
0.0002354208
0.0002106825
0.0002457816
0.0002438541
0.0002393978
0.0002274777
0.0001952164
0.000246681
0.0002452291
0.0002425389
0.0002361313
0.000220538
0.0001858452
0.0002475019
0.0002463525
0.0002446581
0.0002413888
0.0002339149
0.0002174804
0.0001844223
0.0002482587
0.0002472887
0.0002461055
0.0002443296
0.0002409848
0.0002339055
0.0002197008
0.0001912694
0.0002489627
0.0002481154
0.0002471839
0.0002460624
0.0002444341
0.0002415983
0.0002361914
0.000226303
0.0002049547
0.0002496236
0.0002488754
0.0002480876
0.0002472402
0.0002462593
0.0002449515
0.0002429612
0.0002397094
0.0002346001
0.0002232311
0.0002502464
0.0002495906
0.0002489041
0.0002481891
0.0002474345
0.0002466085
0.0002456375
0.0002444347
0.0002429532
0.0002415292
0.0001374762
0.0002508357
0.000250268
0.0002496669
0.0002490337
0.000248368
0.0002476656
0.0002469219
0.0002461326
0.0002453398
0.0002447495
0.0001415876
0.0001395288
0.0001419296
0.0001416417
0.0001408436
0.0001424189
0.0001422013
0.0001419594
0.0001415388
0.0001428988
0.0001426818
0.0001424863
0.0001423071
0.0001420811
0.0001433479
0.0001431288
0.000142937
0.0001427787
0.0001426562
6.0307e-05
0.0001437658
0.0001435498
0.0001433553
0.0001431948
0.0001430732
6.05105e-05
6.033292e-05
0.0002450091
0.0002435186
0.0002404905
0.0002284747
0.0002458649
0.0002443266
0.0002412037
0.0002332804
0.0002085171
0.000246717
0.0002454016
0.0002431283
0.0002379904
0.0002255006
0.000194568
0.000247515
0.0002464041
0.0002448061
0.0002418152
0.0002350906
0.0002201987
0.0001884458
0.0002482587
0.0002472887
0.0002461055
0.0002443296
0.0002409848
0.0002339055
0.0002197008
0.0001912694
0.0002489534
0.0002480875
0.0002471315
0.0002459645
0.0002442265
0.000241122
0.0002351365
0.0002243122
0.0002024913
0.0002496065
0.0002488274
0.0002480079
0.0002471217
0.0002460705
0.000244599
0.0002422394
0.0002382657
0.0002321226
0.0002204021
0.0002502226
0.0002495263
0.0002488039
0.0002480593
0.0002472752
0.0002463982
0.0002453061
0.0002438448
0.0002419203
0.0002401107
0.0001362317
0.0002508053
0.0002501916
0.0002495524
0.0002488942
0.0002482203
0.0002475262
0.0002468011
0.0002460296
0.0002452654
0.0002447854
0.0001414328
0.0001382911
0.0002513577
0.000250825
0.000250262
0.0002496709
0.0002490523
0.0002484071
0.0002477361
0.000247049
0.0002463857
0.0002459411
0.0001424806
0.0001417951
0.0001400401
0.0001424787
0.0001422894
0.0001419772
0.0001412117
0.0001429095
0.0001427099
0.0001425162
0.0001423015
0.0001419188
0.0001433511
0.0001431391
0.000142952
0.0001427917
0.0001426497
6.027096e-05
0.0001437666
0.0001435533
0.000143361
0.0001432016
0.0001430785
6.050907e-05
6.031736e-05
0.0001441559
0.0001439453
0.000143752
0.0001435852
0.0001434547
6.067898e-05
6.051965e-05
6.034315e-05
0.0002459665
0.0002448547
0.0002431606
0.0002397715
0.0002276996
0.0002467685
0.0002456333
0.0002438874
0.0002403558
0.0002320671
0.0002081045
0.000247541
0.0002465024
0.0002450794
0.0002425856
0.0002372131
0.0002252506
0.0001966314
0.0002482693
0.0002473238
0.0002461851
0.0002445192
0.0002414671
0.0002350924
0.0002221808
0.0001946574
0.0002489534
0.0002480875
0.0002471315
0.0002459645
0.0002442265
0.000241122
0.0002351365
0.0002243122
0.0002024913
0.000249598
0.0002488031
0.0002479671
0.0002470597
0.0002459684
0.0002444029
0.0002418324
0.0002374589
0.0002307876
0.0002190362
0.0002502068
0.0002494826
0.0002487347
0.0002479679
0.000247159
0.0002462352
0.0002450331
0.0002433431
0.000241047
0.0002389732
0.0001353962
0.0002507831
0.0002501319
0.000249461
0.0002487813
0.0002480984
0.0002474043
0.0002466765
0.0002458761
0.0002450435
0.000244516
0.0001411555
0.000137256
0.0002513293
0.0002507537
0.0002501556
0.0002495433
0.0002489236
0.0002483037
0.0002476906
0.0002471028
0.0002465963
0.0002463797
0.0001426507
0.0001416878
0.0001390678
0.0002518478
0.0002513475
0.0002508192
0.0002502655
0.0002496878
0.0002490878
0.0002484698
0.0002478445
0.0002472541
0.0002468628
0.0001430566
0.0001426442
0.0001420447
0.0001405785
0.0001429668
0.0001428093
0.0001426055
0.0001423058
0.0001416237
0.0001433611
0.0001431672
0.0001429895
0.0001428228
0.00014264
6.020279e-05
0.0001437696
0.0001435631
0.0001433764
0.0001432195
0.000143092
6.050604e-05
6.028137e-05
0.0001441567
0.0001439485
0.0001437575
0.0001435924
0.0001434624
6.068134e-05
6.051821e-05
6.032761e-05
0.0001445199
0.0001443157
0.0001441241
0.000143954
0.000143812
6.083502e-05
6.068694e-05
6.052867e-05
6.035352e-05
0.0002468347
0.0002459014
0.000244719
0.0002428889
0.0002393677
0.0002275453
0.000247579
0.0002466388
0.0002454403
0.0002435662
0.000239897
0.0002319229
0.0002094263
0.0002482906
0.000247392
0.0002463352
0.0002448661
0.0002423335
0.0002372308
0.0002267927
0.0002016144
0.0002489627
0.0002481154
0.0002471839
0.0002460624
0.0002444341
0.0002415983
0.0002361914
0.000226303
0.0002049547
0.000249598
0.0002488031
0.0002479671
0.0002470597
0.0002459684
0.0002444029
0.0002418324
0.0002374589
0.0002307876
0.0002190362
0.0002501989
0.0002494605
0.0002486995
0.0002479208
0.0002470976
0.0002461456
0.0002448779
0.0002430541
0.0002405496
0.0002383478
0.0001349787
0.0002507684
0.0002500914
0.0002493981
0.0002487027
0.0002480116
0.0002473127
0.0002465709
0.0002457251
0.0002448033
0.0002442098
0.000140904
0.0001365434
0.0002513086
0.000250698
0.0002500708
0.0002494405
0.0002488187
0.0002482161
0.0002476397
0.000247104
0.000246654
0.0002464969
0.0001426739
0.0001414772
0.0001382234
0.0002518213
0.0002512807
0.0002507198
0.0002501467
0.00024957
0.0002489993
0.0002484491
0.0002479438
0.0002475442
0.000247399
0.0001433109
0.0001427999
0.0001419611
0.0001398224
0.0002523086
0.0002518381
0.0002513418
0.0002508221
0.0002502808
0.00024972
0.0002491443
0.0002485656
0.0002480209
0.0002476578
0.0001435103
0.0001431942
0.0001428382
0.0001423224
0.0001411317
0.0001434137
0.0001432631
0.0001430931
0.000142899
0.0001426301
6.008452e-05
0.0001437786
0.0001435893
0.0001434139
0.0001432595
0.0001431201
6.050081e-05
6.021348e-05
0.0001441593
0.0001439575
0.0001437721
0.0001436108
0.0001434812
6.068701e-05
6.051517e-05
6.029169e-05
0.0001445206
0.0001443187
0.0001441292
0.000143961
0.00014382
6.083841e-05
6.06893e-05
6.052724e-05
6.0338e-05
0.0001448608
0.0001446632
0.0001444749
0.0001443027
0.000144153
6.098204e-05
6.084196e-05
6.069478e-05
6.05378e-05
6.036364e-05
0.0002476299
0.0002468033
0.000245848
0.0002446245
0.0002427489
0.0002393258
0.0002280022
0.0002483223
0.0002474896
0.0002465401
0.0002453176
0.0002434261
0.0002399243
0.0002328905
0.0002126735
0.0002489815
0.0002481703
0.0002472849
0.0002462454
0.000244811
0.0002424496
0.0002380884
0.0002300085
0.000210069
0.0002496065
0.0002488274
0.0002480079
0.0002471217
0.0002460705
0.000244599
0.0002422394
0.0002382657
0.0002321226
0.0002204021
0.0002501989
0.0002494605
0.0002486995
0.0002479208
0.0002470976
0.0002461456
0.0002448779
0.0002430541
0.0002405496
0.0002383478
0.0001349787
0.000250761
0.000250071
0.0002493662
0.0002486625
0.0002479666
0.0002472633
0.00024651
0.0002456327
0.0002446532
0.0002440196
0.0001407593
0.0001361834
0.0002512948
0.0002506602
0.0002500125
0.0002493693
0.0002487451
0.000248152
0.0002475945
0.0002470796
0.0002466405
0.0002464955
0.0001426473
0.00014128
0.0001376287
0.0002518019
0.0002512286
0.0002506405
0.0002500512
0.0002494747
0.0002489257
0.0002484234
0.0002479936
0.0002476906
0.0002476335
0.0001434271
0.0001428375
0.0001418003
0.0001391488
0.0002522837
0.0002517756
0.0002512486
0.0002507109
0.0002501709
0.000249639
0.0002491302
0.0002486715
0.0002483165
0.0002481899
0.0001437739
0.0001434172
0.0001429669
0.000142251
0.000140558
0.0002527419
0.0002522994
0.0002518327
0.0002513443
0.0002508361
0.0002503103
0.0002497715
0.0002492306
0.0002487221
0.0002483747
0.0001439082
0.0001436295
0.0001433562
0.0001430513
0.0001426133
5.989972e-05
0.0001438262
0.0001436778
0.000143515
0.0001433516
0.0001431776
6.049347e-05
6.009626e-05
0.0001441674
0.0001439816
0.0001438075
0.0001436513
0.000143519
6.069796e-05
6.050985e-05
6.022409e-05
0.000144523
0.000144327
0.0001441428
0.0001439786
0.0001438395
6.084643e-05
6.069497e-05
6.052417e-05
6.030217e-05
0.0001448614
0.0001446659
0.0001444797
0.0001443092
0.0001441608
6.09856e-05
6.084536e-05
6.069715e-05
6.053637e-05
6.034815e-05
0.0001451803
0.00014499
0.0001448058
0.000144634
0.0001444785
6.112334e-05
6.098813e-05
6.084879e-05
6.070271e-05
6.054668e-05
3.939767e-05
0.0002483654
0.000247611
0.0002467806
0.000245819
0.000244592
0.0002427724
0.0002396616
0.0002291567
0.0002490096
0.0002482501
0.0002474269
0.0002464914
0.0002452953
0.0002435139
0.0002404691
0.0002349143
0.0002183804
0.0002496236
0.0002488754
0.0002480876
0.0002472402
0.0002462593
0.0002449515
0.0002429612
0.0002397094
0.0002346001
0.0002232311
0.0002502068
0.0002494826
0.0002487347
0.0002479679
0.000247159
0.0002462352
0.0002450331
0.0002433431
0.000241047
0.0002389732
0.0001353962
0.000250761
0.000250071
0.0002493662
0.0002486625
0.0002479666
0.0002472633
0.00024651
0.0002456327
0.0002446532
0.0002440196
0.0001407593
0.0001361834
0.0002512879
0.0002506411
0.000249983
0.000249333
0.0002487072
0.0002481181
0.0002475678
0.0002470587
0.0002466175
0.000246473
0.0001426221
0.0001411651
0.0001373249
0.000251789
0.0002511931
0.000250586
0.0002499852
0.0002494081
0.0002488727
0.0002483994
0.000248011
0.0002477532
0.0002477327
0.0001434767
0.0001428281
0.0001416473
0.0001386652
0.0002522655
0.0002517266
0.0002511743
0.0002506215
0.0002500821
0.0002495721
0.0002491121
0.0002487326
0.0002484812
0.0002484481
0.0001439127
0.0001435301
0.0001430087
0.0001421274
0.000140038
0.0002527186
0.0002522407
0.0002517452
0.0002512399
0.0002507329
0.000250234
0.0002497582
0.0002493303
0.000249
0.0002488707
0.0001441576
0.0001438588
0.0001435395
0.0001431495
0.0001425487
5.968801e-05
0.0002531495
0.0002527332
0.0002522942
0.0002518349
0.0002513571
0.0002508632
0.0002503574
0.0002498501
0.0002493718
0.0002490381
0.0001442719
0.0001440132
0.0001437692
0.0001435329
0.000143271
6.048037e-05
5.991447e-05
0.0001442104
0.0001440621
0.0001439015
0.0001437427
0.0001435932
6.071827e-05
6.050219e-05
6.010795e-05
0.0001445303
0.000144349
0.0001441754
0.000144017
0.0001438785
6.086171e-05
6.070579e-05
6.051876e-05
6.023489e-05
0.0001448635
0.0001446736
0.0001444923
0.0001443257
0.0001441797
6.0994e-05
6.085337e-05
6.070279e-05
6.053329e-05
6.031242e-05
0.0001451808
0.0001449925
0.0001448102
0.00014464
0.0001444859
6.11268e-05
6.099169e-05
6.085219e-05
6.070508e-05
6.054525e-05
3.938763e-05
0.0001454804
0.0001452976
0.0001451186
0.0001449484
0.0001447903
6.125898e-05
6.112872e-05
6.099411e-05
6.08557e-05
6.071041e-05
3.951589e-05
3.940659e-05
0.0002490481
0.0002483512
0.0002475993
0.0002467752
0.0002458249
0.0002446371
0.0002429715
0.0002403631
0.0002312767
0.0002496493
0.0002489458
0.000248202
0.0002474048
0.0002465095
0.0002453968
0.0002438503
0.0002415009
0.0002378564
0.0002278286
0.0002502226
0.0002495263
0.0002488039
0.0002480593
0.0002472752
0.0002463982
0.0002453061
0.0002438448
0.0002419203
0.0002401107
0.0001362317
0.0002507684
0.0002500914
0.0002493981
0.0002487027
0.0002480116
0.0002473127
0.0002465709
0.0002457251
0.0002448033
0.0002442098
0.000140904
0.0001365434
0.0002512879
0.0002506411
0.000249983
0.000249333
0.0002487072
0.0002481181
0.0002475678
0.0002470587
0.0002466175
0.000246473
0.0001426221
0.0001411651
0.0001373249
0.0002517826
0.0002511753
0.0002505584
0.0002499515
0.000249374
0.000248845
0.0002483849
0.0002480144
0.0002477741
0.0002477678
0.0001434939
0.0001428134
0.0001415573
0.0001384155
0.0002522534
0.0002516934
0.0002511232
0.0002505597
0.0002500203
0.0002495244
0.0002490949
0.0002487616
0.000248564
0.0002485746
0.0001439842
0.0001435828
0.0001430102
0.0001420103
0.0001396583
0.0002527015
0.0002521948
0.0002516755
0.000251156
0.0002506495
0.0002501713
0.0002497419
0.0002493898
0.0002491597
0.0002491199
0.0001442953
0.0001439889
0.000143642
0.0001431884
0.0001424539
5.9495e-05
0.0002531277
0.0002526782
0.0002522121
0.0002517368
0.00025126
0.0002507909
0.0002503435
0.0002499406
0.0002496263
0.0002494916
0.0001445009
0.0001442298
0.0001439579
0.0001436758
0.0001433394
6.045339e-05
5.970662e-05
0.0002535331
0.0002531414
0.0002527283
0.0002522962
0.0002518467
0.0002513822
0.0002509067
0.0002504296
0.0002499789
0.0002496575
0.0001446122
0.0001443655
0.0001441359
0.0001439211
0.0001437136
6.074765e-05
6.048852e-05
5.992909e-05
0.0001445692
0.0001444221
0.0001442614
0.0001441028
0.0001439539
6.088928e-05
6.072561e-05
6.05108e-05
6.011985e-05
0.0001448701
0.0001446937
0.0001445222
0.0001443614
0.0001442171
6.100993e-05
6.086853e-05
6.071348e-05
6.052778e-05
6.024548e-05
0.0001451827
0.0001449996
0.0001448219
0.0001446554
0.0001445036
6.113494e-05
6.100009e-05
6.086019e-05
6.07107e-05
6.054215e-05
3.936448e-05
0.0001454809
0.0001452999
0.0001451227
0.000144954
0.0001447972
6.126224e-05
6.113219e-05
6.099768e-05
6.08591e-05
6.071277e-05
3.951497e-05
3.93966e-05
0.0001457627
0.0001455875
0.0001454143
0.0001452471
0.0001450883
6.138953e-05
6.126376e-05
6.1134e-05
6.100017e-05
6.086239e-05
3.96216e-05
3.952383e-05
3.941236e-05
0.0002496846
0.0002490357
0.0002483434
0.0002476017
0.0002467933
0.0002458739
0.0002447686
0.0002433442
0.000241411
0.0002351329
0.0002502464
0.0002495906
0.0002489041
0.0002481891
0.0002474345
0.0002466085
0.0002456375
0.0002444347
0.0002429532
0.0002415292
0.0001374762
0.0002507831
0.0002501319
0.000249461
0.0002487813
0.0002480984
0.0002474043
0.0002466765
0.0002458761
0.0002450435
0.000244516
0.0001411555
0.000137256
0.0002512948
0.0002506602
0.0002500125
0.0002493693
0.0002487451
0.000248152
0.0002475945
0.0002470796
0.0002466405
0.0002464955
0.0001426473
0.00014128
0.0001376287
0.0002517826
0.0002511753
0.0002505584
0.0002499515
0.000249374
0.000248845
0.0002483849
0.0002480144
0.0002477741
0.0002477678
0.0001434939
0.0001428134
0.0001415573
0.0001384155
0.0002522474
0.0002516767
0.0002510974
0.0002505283
0.0002499886
0.0002494996
0.0002490845
0.0002487722
0.0002485977
0.0002486269
0.0001440146
0.0001436028
0.0001430029
0.0001419412
0.0001394601
0.0002526902
0.0002521636
0.0002516276
0.000251098
0.0002505914
0.0002501267
0.0002497267
0.0002494197
0.0002492435
0.0002492474
0.0001443699
0.0001440588
0.0001436936
0.0001431958
0.0001423665
5.935291e-05
0.0002531117
0.0002526352
0.0002521467
0.000251658
0.0002511814
0.0002507315
0.0002503272
0.000249995
0.0002497741
0.0002497227
0.0001446299
0.0001443577
0.0001440738
0.0001437634
0.0001433714
6.041771e-05
5.9517e-05
0.0002535126
0.0002530898
0.0002526514
0.0002522041
0.0002517553
0.0002513137
0.000250892
0.0002505111
0.0002502108
0.0002500704
0.000144821
0.0001445645
0.0001443146
0.0001440696
0.0001438187
6.077076e-05
6.046164e-05
5.972502e-05
0.0002538939
0.0002535256
0.0002531369
0.0002527302
0.0002523071
0.00025187
0.0002514225
0.0002509734
0.0002505479
0.0002502392
0.0001449329
0.0001446964
0.0001444745
0.0001442691
0.0001440758
6.092988e-05
6.075385e-05
6.049655e-05
5.994387e-05
0.0001449055
0.0001447603
0.0001446007
0.0001444405
0.0001442888
6.103844e-05
6.089562e-05
6.073281e-05
6.051952e-05
6.013154e-05
0.0001451887
0.000145018
0.0001448495
0.0001446884
0.0001445387
6.115034e-05
6.101592e-05
6.087522e-05
6.072125e-05
6.053655e-05
3.932118e-05
0.0001454827
0.0001453065
0.0001451336
0.0001449683
0.0001448138
6.126994e-05
6.114033e-05
6.100607e-05
6.086708e-05
6.071837e-05
3.951295e-05
3.937357e-05
0.0001457631
0.0001455897
0.0001454182
0.0001452525
0.0001450947
6.13926e-05
6.126704e-05
6.113747e-05
6.100374e-05
6.086579e-05
3.962314e-05
3.952293e-05
3.94024e-05
0.0001460283
0.000145861
0.0001456941
0.000145531
0.0001453732
6.151486e-05
6.139382e-05
6.126845e-05
6.113935e-05
6.100602e-05
3.971978e-05
3.962865e-05
3.952888e-05
3.941691e-05
0.000250279
0.000249673
0.0002490292
0.0002483478
0.0002476224
0.0002468403
0.000245973
0.0002449936
0.0002438986
0.0002428571
0.0001390476
0.0002508053
0.0002501916
0.0002495524
0.0002488942
0.0002482203
0.0002475262
0.0002468011
0.0002460296
0.0002452654
0.0002447854
0.0001414328
0.0001382911
0.0002513086
0.000250698
0.0002500708
0.0002494405
0.0002488187
0.0002482161
0.0002476397
0.000247104
0.000246654
0.0002464969
0.0001426739
0.0001414772
0.0001382234
0.000251789
0.0002511931
0.000250586
0.0002499852
0.0002494081
0.0002488727
0.0002483994
0.000248011
0.0002477532
0.0002477327
0.0001434767
0.0001428281
0.0001416473
0.0001386652
0.0002522474
0.0002516767
0.0002510974
0.0002505283
0.0002499886
0.0002494996
0.0002490845
0.0002487722
0.0002485977
0.0002486269
0.0001440146
0.0001436028
0.0001430029
0.0001419412
0.0001394601
0.0002526845
0.0002521479
0.0002516033
0.0002510684
0.0002505617
0.0002501035
0.0002497176
0.0002494314
0.0002492791
0.000249302
0.0001444029
0.0001440892
0.0001437145
0.0001431937
0.0001423153
5.927834e-05
0.000253101
0.0002526059
0.0002521017
0.0002516035
0.0002511268
0.0002506894
0.0002503124
0.0002500226
0.0002498527
0.000249843
0.0001447012
0.0001444293
0.000144139
0.0001438108
0.0001433814
6.038573e-05
5.937726e-05
0.0002534976
0.0002530495
0.00025259
0.0002521301
0.0002516814
0.0002512574
0.0002508755
0.0002505599
0.0002503458
0.0002502822
0.0001449397
0.000144684
0.0001444281
0.000144168
0.0001438891
6.078263e-05
6.042651e-05
5.953873e-05
0.0002538746
0.0002534772
0.0002530648
0.0002526438
0.0002522213
0.0002518053
0.0002514075
0.0002510471
0.0002507596
0.0002506162
0.0001451232
0.0001448779
0.0001446392
0.0001444106
0.0001441869
6.096732e-05
6.077627e-05
6.046976e-05
5.974352e-05
0.000254233
0.0002538869
0.0002535214
0.0002531386
0.0002527404
0.0002523289
0.0002519076
0.0002514844
0.0002510827
0.0002507868
0.0001452364
0.0001450091
0.0001447941
0.0001445928
0.0001444043
6.10805e-05
6.093503e-05
6.075994e-05
6.050472e-05
5.995838e-05
0.0001452212
0.000145079
0.0001449213
0.000144761
0.0001446055
6.117778e-05
6.104399e-05
6.090182e-05
6.07401e-05
6.052799e-05
3.924779e-05
0.0001454881
0.0001453235
0.0001451591
0.0001449989
0.0001448464
6.128446e-05
6.115564e-05
6.102178e-05
6.088199e-05
6.072878e-05
3.950926e-05
3.933058e-05
0.0001457647
0.0001455959
0.0001454283
0.0001452658
0.0001451103
6.139983e-05
6.127474e-05
6.114561e-05
6.101212e-05
6.087375e-05
3.962677e-05
3.952094e-05
3.937947e-05
0.0001460287
0.0001458631
0.0001456977
0.000145536
0.0001453793
6.151774e-05
6.13969e-05
6.127173e-05
6.114282e-05
6.100959e-05
3.9722e-05
3.96302e-05
3.952798e-05
3.940698e-05
0.0001462786
0.0001461191
0.0001459589
0.0001458006
0.0001456453
6.163511e-05
6.151872e-05
6.139801e-05
6.12732e-05
6.11445e-05
3.981264e-05
3.972609e-05
3.963302e-05
3.95328e-05
3.941952e-05
0.0001403644
0.0002508357
0.000250268
0.0002496669
0.0002490337
0.000248368
0.0002476656
0.0002469219
0.0002461326
0.0002453398
0.0002447495
0.0001415876
0.0001395288
0.0002513293
0.0002507537
0.0002501556
0.0002495433
0.0002489236
0.0002483037
0.0002476906
0.0002471028
0.0002465963
0.0002463797
0.0001426507
0.0001416878
0.0001390678
0.0002518019
0.0002512286
0.0002506405
0.0002500512
0.0002494747
0.0002489257
0.0002484234
0.0002479936
0.0002476906
0.0002476335
0.0001434271
0.0001428375
0.0001418003
0.0001391488
0.0002522534
0.0002516934
0.0002511232
0.0002505597
0.0002500203
0.0002495244
0.0002490949
0.0002487616
0.000248564
0.0002485746
0.0001439842
0.0001435828
0.0001430102
0.0001420103
0.0001396583
0.0002526845
0.0002521479
0.0002516033
0.0002510684
0.0002505617
0.0002501035
0.0002497176
0.0002494314
0.0002492791
0.000249302
0.0001444029
0.0001440892
0.0001437145
0.0001431937
0.0001423153
5.927834e-05
0.0002530957
0.0002525912
0.0002520789
0.0002515757
0.0002510989
0.0002506675
0.0002503037
0.0002500337
0.0002498865
0.0002498952
0.0001447333
0.0001444615
0.0001441681
0.0001438311
0.0001433825
6.03671e-05
5.930388e-05
0.0002534876
0.0002530221
0.0002525478
0.0002520789
0.00025163
0.0002512174
0.000250861
0.0002505846
0.0002504179
0.0002503933
0.0001450061
0.0001447522
0.0001444943
0.0001442261
0.0001439303
6.078708e-05
6.039514e-05
5.940133e-05
0.0002538606
0.0002534395
0.0002530072
0.0002525744
0.0002521518
0.000251752
0.0002513911
0.0002510909
0.0002508829
0.0002508103
0.0001452322
0.0001449881
0.0001447455
0.0001445072
0.0001442664
6.099379e-05
6.078792e-05
6.043518e-05
5.956051e-05
0.000254215
0.0002538417
0.0002534539
0.0002530578
0.0002526599
0.000252268
0.0002518927
0.0002515516
0.000251277
0.0002511325
0.0001454107
0.0001451749
0.0001449449
0.000144724
0.0001445116
6.112077e-05
6.097161e-05
6.078167e-05
6.047801e-05
5.976166e-05
0.0002545516
0.0002542267
0.0002538831
0.0002535231
0.0002531484
0.0002527609
0.000252364
0.0002519653
0.0002515859
0.0002513031
0.000145524
0.0001453059
0.0001450974
0.0001449002
0.0001447126
6.121817e-05
6.108494e-05
6.094006e-05
6.076614e-05
6.051264e-05
3.913688e-05
0.000145518
0.0001453797
0.0001452251
0.0001450657
0.0001449085
6.131024e-05
6.118269e-05
6.104941e-05
6.090809e-05
6.074713e-05
3.950353e-05
3.925793e-05
0.0001457697
0.0001456117
0.000145452
0.0001452942
0.0001451408
6.141344e-05
6.128919e-05
6.116082e-05
6.102772e-05
6.088851e-05
3.963345e-05
3.951725e-05
3.933671e-05
0.0001460302
0.0001458688
0.0001457073
0.0001455485
0.0001453939
6.152454e-05
6.140413e-05
6.127943e-05
6.115095e-05
6.101794e-05
3.972716e-05
3.963384e-05
3.952598e-05
3.938412e-05
0.0001462789
0.0001461211
0.0001459623
0.0001458053
0.000145651
6.163783e-05
6.152162e-05
6.14011e-05
6.127649e-05
6.114797e-05
3.981497e-05
3.972831e-05
3.963458e-05
3.953189e-05
3.94096e-05
0.0001465143
0.0001463628
0.0001462095
0.0001460567
0.0001459048
6.175027e-05
6.163862e-05
6.15225e-05
6.140227e-05
6.127777e-05
3.990224e-05
3.981833e-05
3.972989e-05
3.963635e-05
3.953493e-05
0.0001405539
0.0001412849
0.0001405486
0.0002513577
0.000250825
0.000250262
0.0002496709
0.0002490523
0.0002484071
0.0002477361
0.000247049
0.0002463857
0.0002459411
0.0001424806
0.0001417951
0.0001400401
0.0002518213
0.0002512807
0.0002507198
0.0002501467
0.00024957
0.0002489993
0.0002484491
0.0002479438
0.0002475442
0.000247399
0.0001433109
0.0001427999
0.0001419611
0.0001398224
0.0002522655
0.0002517266
0.0002511743
0.0002506215
0.0002500821
0.0002495721
0.0002491121
0.0002487326
0.0002484812
0.0002484481
0.0001439127
0.0001435301
0.0001430087
0.0001421274
0.000140038
0.0002526902
0.0002521636
0.0002516276
0.000251098
0.0002505914
0.0002501267
0.0002497267
0.0002494197
0.0002492435
0.0002492474
0.0001443699
0.0001440588
0.0001436936
0.0001431958
0.0001423665
5.935291e-05
0.0002530957
0.0002525912
0.0002520789
0.0002515757
0.0002510989
0.0002506675
0.0002503037
0.0002500337
0.0002498865
0.0002498952
0.0001447333
0.0001444615
0.0001441681
0.0001438311
0.0001433825
6.03671e-05
5.930388e-05
0.0002534826
0.0002530083
0.0002525264
0.0002520528
0.0002516037
0.0002511967
0.0002508524
0.0002505945
0.000250449
0.0002504418
0.0001450361
0.0001447832
0.0001445245
0.0001442527
0.0001439488
6.078807e-05
6.037689e-05
5.932913e-05
0.0002538513
0.0002534138
0.0002529677
0.0002525264
0.0002521035
0.0002517143
0.0002513768
0.000251113
0.0002509489
0.0002509124
0.0001452935
0.0001450514
0.0001448083
0.0001445659
0.0001443161
6.100995e-05
6.079237e-05
6.040441e-05
5.942541e-05
0.0002542019
0.0002538064
0.0002534
0.0002529927
0.0002525948
0.0002522179
0.0002518767
0.0002515914
0.0002513902
0.000251311
0.000145511
0.0001452761
0.000145043
0.0001448148
0.0001445902
6.115087e-05
6.099764e-05
6.079309e-05
6.044396e-05
5.958189e-05
0.0002545348
0.0002541845
0.00025382
0.0002534475
0.000253073
0.0002527038
0.0002523498
0.0002520273
0.0002517655
0.000251622
0.0001456844
0.000145458
0.0001452355
0.000145021
0.0001448132
6.125748e-05
6.112438e-05
6.097579e-05
6.078719e-05
6.0486e-05
3.901113e-05
0.0002548505
0.0002545459
0.0002542233
0.0002538849
0.0002535323
0.0002531676
0.0002527939
0.0002524181
0.0002520599
0.0002517903
0.0001457967
0.0001455878
0.0001453862
0.0001451932
0.0001450074
6.134809e-05
6.12221e-05
6.108927e-05
6.094519e-05
6.077209e-05
3.949323e-05
3.914866e-05
0.0001457974
0.0001456636
0.000145513
0.0001453561
0.0001451984
6.143754e-05
6.131463e-05
6.118748e-05
6.10549e-05
6.091412e-05
3.96451e-05
3.951141e-05
3.926471e-05
0.0001460349
0.0001458836
0.0001457293
0.0001455751
0.0001454225
6.15373e-05
6.141768e-05
6.12938e-05
6.116607e-05
6.103342e-05
3.973667e-05
3.964048e-05
3.952224e-05
3.934158e-05
0.0001462803
0.0001461265
0.0001459713
0.0001458171
0.0001456648
6.164424e-05
6.152842e-05
6.140833e-05
6.128418e-05
6.115609e-05
3.982039e-05
3.973348e-05
3.963819e-05
3.952988e-05
3.938679e-05
0.0001465146
0.0001463646
0.0001462127
0.0001460611
0.0001459103
6.175285e-05
6.164135e-05
6.15254e-05
6.140536e-05
6.128106e-05
3.990451e-05
3.982067e-05
3.973212e-05
3.96379e-05
3.953401e-05
0.0001467364
0.0001465929
0.0001464466
0.0001462997
0.0001461523
6.186044e-05
6.175347e-05
6.164204e-05
6.152634e-05