/*--------------------------------*- C++ -*----------------------------------*\
| =========                 |                                                 |
| \\      /  F ield         | OpenFOAM: The Open Source CFD Toolbox           |
|  \\    /   O peration     | Version:  2306                                  |
|   \\  /    A nd           | Website:  www.openfoam.com                      |
|    \\/     M anipulation  |                                                 |
\*---------------------------------------------------------------------------*/
FoamFile
{
    version     2.0;
    format      ascii;
    arch        "LSB;label=32;scalar=64";
    class       volScalarField;
    location    "1.5/air";
    object      N2;
}
// * * * * * * * * * * * * * * * * * * * * * * * * * * * * * * * * * * * * * //

dimensions      [0 0 0 0 0 0 0];

internalField   nonuniform List<scalar> 
16000
(
0.7703604
0.7703537
0.7717597
0.7704016
0.7703448
0.771661
0.7703907
0.7743639
0.7718893
0.7705001
0.7703361
0.7715313
0.7703782
0.7742477
0.7717579
0.7704774
0.7770562
0.774516
0.7722227
0.7706896
0.770331
0.7714205
0.7703667
0.7740888
0.771593
0.7704531
0.7769406
0.7743652
0.7720493
0.7706438
0.7796763
0.7772101
0.7748945
0.7728291
0.7710351
0.770331
0.7713583
0.7703599
0.7739477
0.7714568
0.7704348
0.7767819
0.7741676
0.7718325
0.7705937
0.7795656
0.7770609
0.7747028
0.7726147
0.7709522
0.7821758
0.7798238
0.7775909
0.7755641
0.7737674
0.7716432
0.8104381
0.7703361
0.7713583
0.7703599
0.7738664
0.7713817
0.7704244
0.7766406
0.7739965
0.7716534
0.770557
0.7794137
0.7768648
0.7744549
0.7723419
0.7708573
0.7820712
0.7796811
0.7774035
0.7753357
0.7735189
0.7715237
0.7845481
0.7823157
0.7801879
0.7782596
0.776577
0.7750812
0.7726304
0.8090663
0.8120885
0.8106551
0.7703448
0.7714205
0.7703667
0.7738664
0.7713817
0.7704244
0.7765591
0.7738993
0.7715556
0.7705379
0.7792786
0.7766944
0.7742423
0.7721132
0.7707843
0.7819278
0.7794938
0.7771606
0.7750392
0.7731939
0.7713683
0.7844492
0.782181
0.7800097
0.77804
0.7763186
0.774794
0.7724685
0.7868015
0.7846802
0.7826609
0.7808258
0.7792616
0.7779724
0.7768329
0.7741539
0.8062958
0.8108615
0.8092882
0.8126724
0.8122866
0.8110882
0.7703537
0.7715313
0.7703782
0.7739477
0.7714568
0.7704348
0.7765591
0.7738993
0.7715556
0.7705379
0.7792006
0.7765974
0.7741223
0.7719865
0.7707456
0.7818002
0.7793313
0.7769518
0.7747849
0.7729166
0.7712364
0.7843137
0.7820043
0.7797791
0.7777548
0.7759801
0.7744198
0.7722456
0.7867078
0.7845528
0.7824929
0.7806184
0.7790182
0.7776883
0.7764978
0.7739131
0.7889472
0.7869266
0.7850062
0.7832654
0.7817784
0.7806264
0.7797799
0.779088
0.7764548
0.8020264
0.8083889
0.8065351
0.811536
0.8110633
0.80973
0.8130767
0.8128546
0.8126823
0.8117362
0.7703604
0.771661
0.7703907
0.7740888
0.771593
0.7704531
0.7766406
0.7739965
0.7716534
0.770557
0.7792006
0.7765974
0.7741223
0.7719865
0.7707456
0.7817266
0.7792388
0.7768335
0.7746414
0.772761
0.7711625
0.7841931
0.781851
0.779581
0.7775094
0.7756882
0.7740997
0.7720502
0.7865795
0.7843859
0.7822756
0.7803496
0.7786994
0.7773124
0.7760595
0.7735821
0.7888582
0.786806
0.7848474
0.7830701
0.7815501
0.7803646
0.7794649
0.7786726
0.7760044
0.790996
0.789066
0.7872356
0.785577
0.784167
0.7830709
0.7823715
0.7820277
0.7819338
0.7799814
0.7958605
0.8045954
0.8023321
0.8092468
0.8086046
0.8070058
0.8120176
0.8117214
0.8114654
0.8103884
0.8135308
0.8132462
0.8132184
0.8132743
0.8125975
0.7717597
0.7704016
0.7742477
0.7717579
0.7704774
0.7767819
0.7741676
0.7718325
0.7705937
0.7792786
0.7766944
0.7742423
0.7721132
0.7707843
0.7817266
0.7792388
0.7768335
0.7746414
0.772761
0.7711625
0.7841236
0.7817637
0.779469
0.7773705
0.7755231
0.7739195
0.7719389
0.7864654
0.784241
0.7820891
0.7801186
0.7784236
0.7769863
0.7756842
0.7732974
0.7887363
0.7866479
0.7846421
0.7828173
0.7812518
0.7800176
0.7790451
0.7781366
0.7754598
0.7909112
0.7889513
0.7870851
0.7853924
0.7839525
0.7828266
0.7820859
0.7816498
0.7813281
0.7789028
0.7929577
0.7911092
0.7893594
0.7877765
0.7864284
0.7853889
0.7847173
0.7845131
0.7847688
0.7855487
0.7858253
0.7991602
0.7964909
0.8057366
0.8048655
0.8029013
0.8098845
0.8094445
0.8090292
0.8076966
0.8125366
0.81219
0.8120908
0.8120651
0.8112602
0.8141123
0.8136897
0.8135846
0.813763
0.8140617
0.8138388
0.7743639
0.7718893
0.7705001
0.7769406
0.7743652
0.7720493
0.7706438
0.7794137
0.7768648
0.7744549
0.7723419
0.7708573
0.7818002
0.7793313
0.7769518
0.7747849
0.7729166
0.7712364
0.7841236
0.7817637
0.779469
0.7773705
0.7755231
0.7739195
0.7719389
0.7863996
0.7841586
0.7819836
0.7799881
0.778267
0.7768013
0.7754728
0.7731371
0.7886278
0.7865108
0.784466
0.7826002
0.7809943
0.7797155
0.7786806
0.7776844
0.7750296
0.7907951
0.7888011
0.7868907
0.7851537
0.7836724
0.7825039
0.7817041
0.7811539
0.7806104
0.7779374
0.7928767
0.791
0.7892163
0.7876016
0.7862256
0.7851597
0.7844516
0.7841715
0.7842199
0.7843996
0.7827193
0.7948399
0.7930658
0.7913888
0.7898732
0.7885837
0.7875825
0.7869439
0.7867319
0.7870939
0.7881546
0.7904503
0.7887442
0.8007119
0.7997022
0.7974302
0.8066145
0.8059839
0.8053705
0.8036902
0.8105346
0.810068
0.8098339
0.8096536
0.8085972
0.8131746
0.8126982
0.8125334
0.8126418
0.8128597
0.8125121
0.8147848
0.8142622
0.8140071
0.8140912
0.8144874
0.8151969
0.8140946
0.7770562
0.774516
0.7722227
0.7706896
0.7795656
0.7770609
0.7747028
0.7726147
0.7709522
0.7819278
0.7794938
0.7771606
0.7750392
0.7731939
0.7713683
0.7841931
0.781851
0.779581
0.7775094
0.7756882
0.7740997
0.7720502
0.7863996
0.7841586
0.7819836
0.7799881
0.778267
0.7768013
0.7754728
0.7731371
0.7885653
0.7864328
0.7843665
0.7824775
0.7808484
0.7795435
0.7784739
0.7774321
0.7747989
0.7906917
0.7886709
0.7867239
0.7849489
0.7834309
0.7822237
0.7813712
0.7807307
0.7800373
0.7772796
0.7927657
0.7908568
0.7890315
0.7873753
0.7859611
0.784857
0.7840974
0.7837217
0.7835636
0.7833291
0.7810738
0.7947623
0.7929614
0.7912524
0.7897068
0.7883913
0.7873655
0.7866944
0.7864134
0.786592
0.7871
0.7875816
0.7850898
0.7966495
0.7949434
0.7933329
0.7918786
0.7906402
0.7896782
0.7890515
0.7888446
0.7891549
0.7902542
0.7926706
0.7929152
0.7910142
0.8019361
0.8012086
0.8005154
0.7985228
0.807466
0.8068439
0.806446
0.8060734
0.8046656
0.8112865
0.8107066
0.8104297
0.8104065
0.8104691
0.8098729
0.8138963
0.8133271
0.8130202
0.8130457
0.8133722
0.8140016
0.8127701
0.8155328
0.8149269
0.8145617
0.8144824
0.8147652
0.8155319
0.8154308
0.8143526
0.7796763
0.7772101
0.7748945
0.7728291
0.7710351
0.7820712
0.7796811
0.7774035
0.7753357
0.7735189
0.7715237
0.7843137
0.7820043
0.7797791
0.7777548
0.7759801
0.7744198
0.7722456
0.7864654
0.784241
0.7820891
0.7801186
0.7784236
0.7769863
0.7756842
0.7732974
0.7885653
0.7864328
0.7843665
0.7824775
0.7808484
0.7795435
0.7784739
0.7774321
0.7747989
0.7906322
0.7885968
0.7866297
0.7848331
0.783294
0.7820645
0.7811818
0.7804935
0.7797272
0.7769513
0.792667
0.7907327
0.7888731
0.7871813
0.7857331
0.7845944
0.7837894
0.7833365
0.783036
0.7825692
0.780122
0.794656
0.7928246
0.7910763
0.7894916
0.7881404
0.7870794
0.786362
0.7859953
0.7859913
0.7861163
0.7859574
0.7830928
0.796575
0.7948434
0.7932024
0.7917198
0.790457
0.7894721
0.788815
0.788545
0.7886851
0.7892776
0.7900201
0.789582
0.7871901
0.7983923
0.7967488
0.7951991
0.7938008
0.7926099
0.7916808
0.7910721
0.7908484
0.791129
0.7921194
0.794453
0.7949379
0.7948441
0.7928717
0.8030765
0.8023968
0.8019529
0.8014686
0.7996941
0.8083927
0.8076806
0.8072724
0.807089
0.8069463
0.8059871
0.8121072
0.8114486
0.8110454
0.8109614
0.8111545
0.8116262
0.8101357
0.814688
0.8140407
0.8136308
0.8135006
0.8137248
0.8144218
0.8142369
0.8130302
0.8163293
0.8156679
0.8152107
0.8150101
0.8151146
0.8157371
0.8157472
0.8156668
0.8146128
0.7821758
0.7798238
0.7775909
0.7755641
0.7737674
0.7716432
0.7844492
0.782181
0.7800097
0.77804
0.7763186
0.774794
0.7724685
0.7865795
0.7843859
0.7822756
0.7803496
0.7786994
0.7773124
0.7760595
0.7735821
0.7886278
0.7865108
0.784466
0.7826002
0.7809943
0.7797155
0.7786806
0.7776844
0.7750296
0.7906322
0.7885968
0.7866297
0.7848331
0.783294
0.7820645
0.7811818
0.7804935
0.7797272
0.7769513
0.7926101
0.7906621
0.7887835
0.7870716
0.785604
0.7844451
0.7836145
0.78312
0.7827497
0.7821803
0.7796766
0.7945615
0.792706
0.7909252
0.7893071
0.7879242
0.7868313
0.786073
0.7856382
0.785508
0.7854162
0.7849706
0.7819672
0.796473
0.7947124
0.7930341
0.7915145
0.7902181
0.7892003
0.7885003
0.7881519
0.7881243
0.7883679
0.7885185
0.7876687
0.7849639
0.7983207
0.7966528
0.7950742
0.7936489
0.7924349
0.7914842
0.7908471
0.790564
0.7906862
0.7912032
0.791987
0.7918544
0.7913637
0.7890295
0.8000733
0.7984877
0.7969941
0.7956472
0.7944997
0.7936024
0.7930067
0.7927779
0.7930097
0.7939231
0.7960564
0.7965595
0.7967077
0.7964345
0.7944397
0.8042537
0.8035077
0.8030868
0.802824
0.8024988
0.8011028
0.8093653
0.8085949
0.8080819
0.8078688
0.8078876
0.8081339
0.8062588
0.812987
0.8122608
0.811768
0.8115437
0.8116562
0.8122161
0.8118646
0.8104005
0.8155236
0.8148253
0.8143285
0.8140839
0.8141375
0.8147009
0.8146381
0.8144741
0.8132925
0.8171613
0.8164581
0.8159379
0.8156357
0.8156067
0.8160263
0.8159374
0.8159643
0.8159047
0.8148752
0.7845481
0.7823157
0.7801879
0.7782596
0.776577
0.7750812
0.7726304
0.7867078
0.7845528
0.7824929
0.7806184
0.7790182
0.7776883
0.7764978
0.7739131
0.7887363
0.7866479
0.7846421
0.7828173
0.7812518
0.7800176
0.7790451
0.7781366
0.7754598
0.7906917
0.7886709
0.7867239
0.7849489
0.7834309
0.7822237
0.7813712
0.7807307
0.7800373
0.7772796
0.7926101
0.7906621
0.7887835
0.7870716
0.785604
0.7844451
0.7836145
0.78312
0.7827497
0.7821803
0.7796766
0.794507
0.7926385
0.7908399
0.7892029
0.7878018
0.7866904
0.785909
0.785438
0.7852455
0.7850575
0.7844949
0.7814503
0.7963824
0.7945989
0.7928897
0.7913386
0.7900124
0.7889648
0.788227
0.7878161
0.7876741
0.787721
0.7876051
0.7865441
0.7837056
0.7982227
0.7965271
0.7949129
0.7934526
0.7922068
0.7912252
0.7905478
0.7901911
0.7901576
0.7903509
0.7905915
0.7900823
0.7892594
0.7866724
0.8000044
0.7983954
0.7968742
0.7955016
0.7943321
0.7934145
0.7927919
0.7925071
0.7925892
0.7930586
0.7937417
0.7936884
0.7934844
0.7929325
0.7906263
0.801697
0.8001652
0.7987235
0.7974241
0.7963167
0.7954485
0.7948677
0.7946305
0.7948308
0.7956555
0.7976342
0.7980307
0.798202
0.7981627
0.7977889
0.795986
0.8054437
0.8046598
0.8041535
0.803894
0.8037642
0.8037477
0.8013911
0.81038
0.8095567
0.8089729
0.8086402
0.8086095
0.8089738
0.8083781
0.8065321
0.8139013
0.8131329
0.8125633
0.8122378
0.8121948
0.8126424
0.8124347
0.8121048
0.8106674
0.8163911
0.8156546
0.815099
0.8147579
0.8146847
0.8150528
0.814902
0.8148562
0.8147134
0.813557
0.8180156
0.8172845
0.8167156
0.816342
0.8162012
0.816467
0.8162142
0.8161394
0.8161832
0.8161446
0.8151954
0.7868015
0.7846802
0.7826609
0.7808258
0.7792616
0.7779724
0.7768329
0.7741539
0.7888582
0.786806
0.7848474
0.7830701
0.7815501
0.7803646
0.7794649
0.7786726
0.7760044
0.7907951
0.7888011
0.7868907
0.7851537
0.7836724
0.7825039
0.7817041
0.7811539
0.7806104
0.7779374
0.792667
0.7907327
0.7888731
0.7871813
0.7857331
0.7845944
0.7837894
0.7833365
0.783036
0.7825692
0.780122
0.794507
0.7926385
0.7908399
0.7892029
0.7878018
0.7866904
0.785909
0.785438
0.7852455
0.7850575
0.7844949
0.7814503
0.7963301
0.7945342
0.7928081
0.7912392
0.7898959
0.7888311
0.788072
0.7876278
0.7874301
0.7873896
0.7871644
0.7860135
0.7831317
0.7981355
0.7964181
0.7947746
0.7932843
0.7920105
0.7910007
0.7902879
0.7898731
0.7897334
0.7897459
0.7897434
0.7890394
0.7880271
0.7853258
0.79991
0.7982746
0.7967194
0.7953135
0.7941139
0.7931669
0.7925061
0.7921521
0.7920876
0.7922543
0.7924323
0.7920392
0.7915326
0.7907156
0.7882119
0.8016306
0.8000763
0.7986082
0.7972843
0.796156
0.7952685
0.7946621
0.7943717
0.7944304
0.7948352
0.7954502
0.7953354
0.795199
0.7949156
0.7943019
0.7922094
0.8032672
0.8017855
0.8003921
0.7991368
0.7980666
0.7972259
0.7966588
0.7964182
0.7965863
0.7973452
0.7991711
0.7994948
0.7995692
0.7995507
0.7993978
0.7991382
0.7962998
0.8066516
0.805828
0.8052679
0.8049089
0.8047649
0.8049024
0.8040033
0.8016798
0.8114152
0.8105619
0.8099145
0.809499
0.8093337
0.8096169
0.8091971
0.8086238
0.8068072
0.8148402
0.8140405
0.8134205
0.8130083
0.8128517
0.8131189
0.8128455
0.8126551
0.8123469
0.8109363
0.8172777
0.8165163
0.8159156
0.8155073
0.8153272
0.8155482
0.8152415
0.8151049
0.8150761
0.8149546
0.8138797
0.8188843
0.8181337
0.8175307
0.8171012
0.8168799
0.8170166
0.8166443
0.8164037
0.8163431
0.816404
0.8164374
0.8155228
0.7889472
0.7869266
0.7850062
0.7832654
0.7817784
0.7806264
0.7797799
0.779088
0.7764548
0.7909112
0.7889513
0.7870851
0.7853924
0.7839525
0.7828266
0.7820859
0.7816498
0.7813281
0.7789028
0.7927657
0.7908568
0.7890315
0.7873753
0.7859611
0.784857
0.7840974
0.7837217
0.7835636
0.7833291
0.7810738
0.7945615
0.792706
0.7909252
0.7893071
0.7879242
0.7868313
0.786073
0.7856382
0.785508
0.7854162
0.7849706
0.7819672
0.7963301
0.7945342
0.7928081
0.7912392
0.7898959
0.7888311
0.788072
0.7876278
0.7874301
0.7873896
0.7871644
0.7860135
0.7831317
0.7980853
0.7963562
0.7946965
0.7931893
0.7918993
0.7908734
0.7901405
0.7896948
0.7895034
0.7894363
0.7893344
0.7885468
0.7874513
0.7847123
0.7998261
0.7981699
0.7965867
0.7951523
0.7939259
0.7929524
0.7922582
0.7918493
0.7916853
0.7916834
0.7916373
0.7910692
0.7903881
0.7894094
0.7868207
0.8015396
0.79996
0.7984593
0.7971036
0.7959467
0.7950313
0.7943888
0.7940325
0.7939526
0.7940721
0.7942143
0.7937872
0.7933808
0.7928566
0.7920308
0.7897964
0.803203
0.8016999
0.8002811
0.7990023
0.7979122
0.797053
0.7964616
0.7961703
0.7962036
0.7965644
0.7971002
0.7969515
0.7967496
0.7965239
0.7961604
0.7956672
0.7925306
0.8047874
0.8033526
0.8020043
0.80079
0.7997545
0.7989394
0.798386
0.7981426
0.7982866
0.7989834
0.8006874
0.8009334
0.8009441
0.8008316
0.8006942
0.8006231
0.7994121
0.7966116
0.8078594
0.8070167
0.8064036
0.8059793
0.8057237
0.8058186
0.8051353
0.8042594
0.8019689
0.8124634
0.8115886
0.810902
0.8104126
0.8101524
0.8102769
0.8098241
0.8094218
0.808871
0.8070838
0.8157919
0.8149732
0.8143147
0.8138436
0.8135898
0.8137231
0.8133092
0.8130502
0.8128772
0.8125908
0.8112643
0.818176
0.8173977
0.8167658
0.816305
0.8160487
0.8161455
0.8157261
0.8154316
0.8153094
0.8152978
0.8152489
0.8142097
0.819761
0.8189976
0.8183696
0.8178994
0.8176142
0.8176554
0.8171846
0.8168231
0.8165948
0.8165485
0.8166733
0.8167368
0.8157718
0.790996
0.789066
0.7872356
0.785577
0.784167
0.7830709
0.7823715
0.7820277
0.7819338
0.7799814
0.7928767
0.791
0.7892163
0.7876016
0.7862256
0.7851597
0.7844516
0.7841715
0.7842199
0.7843996
0.7827193
0.794656
0.7928246
0.7910763
0.7894916
0.7881404
0.7870794
0.786362
0.7859953
0.7859913
0.7861163
0.7859574
0.7830928
0.7963824
0.7945989
0.7928897
0.7913386
0.7900124
0.7889648
0.788227
0.7878161
0.7876741
0.787721
0.7876051
0.7865441
0.7837056
0.7980853
0.7963562
0.7946965
0.7931893
0.7918993
0.7908734
0.7901405
0.7896948
0.7895034
0.7894363
0.7893344
0.7885468
0.7874513
0.7847123
0.7997778
0.7981103
0.7965117
0.7950612
0.7938196
0.7928307
0.7921176
0.7916796
0.7914673
0.7913912
0.7912541
0.7906112
0.7898527
0.788801
0.7861864
0.8014587
0.7998592
0.7983318
0.7969488
0.7957665
0.7948259
0.7941516
0.7937434
0.7935694
0.7935305
0.7934638
0.7928771
0.792315
0.7916415
0.790684
0.7884022
0.8031152
0.8015877
0.8001378
0.7988286
0.7977111
0.7968254
0.7961995
0.7958456
0.7957471
0.7958377
0.7959279
0.7954901
0.7950423
0.7946044
0.794048
0.7933859
0.7901185
0.8047254
0.8032699
0.8018972
0.8006605
0.7996059
0.7987732
0.7981966
0.7979047
0.7979202
0.7982378
0.7987172
0.798522
0.7982833
0.797989
0.7976747
0.7973953
0.7959443
0.7928497
0.8062607
0.8048699
0.8035638
0.8023879
0.8013848
0.8005939
0.8000536
0.799809
0.7999316
0.8005777
0.8021707
0.8023625
0.8023057
0.8021329
0.8019011
0.8018266
0.8008718
0.7996844
0.7969214
0.8090641
0.8082074
0.8075635
0.8070768
0.8067465
0.8067091
0.8060343
0.8053687
0.804516
0.8022585
0.8135147
0.8126291
0.8119127
0.8113753
0.8110313
0.8110411
0.8104708
0.8100325
0.809648
0.8091198
0.8074207
0.8167498
0.8159193
0.8152353
0.8147181
0.8143964
0.8144152
0.8139025
0.8135011
0.8132565
0.813101
0.8128884
0.8115998
0.81908
0.8182912
0.8176367
0.8171382
0.8168214
0.8168269
0.8163141
0.8159056
0.8156234
0.8155155
0.8155684
0.8155498
0.8144606
0.8206414
0.81987
0.8192241
0.8187228
0.81839
0.818354
0.8178152
0.817354
0.8170034
0.8167875
0.8167991
0.8169486
0.8169641
0.8159406
0.7929577
0.7911092
0.7893594
0.7877765
0.7864284
0.7853889
0.7847173
0.7845131
0.7847688
0.7855487
0.7858253
0.7947623
0.7929614
0.7912524
0.7897068
0.7883913
0.7873655
0.7866944
0.7864134
0.786592
0.7871
0.7875816
0.7850898
0.796473
0.7947124
0.7930341
0.7915145
0.7902181
0.7892003
0.7885003
0.7881519
0.7881243
0.7883679
0.7885185
0.7876687
0.7849639
0.7981355
0.7964181
0.7947746
0.7932843
0.7920105
0.7910007
0.7902879
0.7898731
0.7897334
0.7897459
0.7897434
0.7890394
0.7880271
0.7853258
0.7997778
0.7981103
0.7965117
0.7950612
0.7938196
0.7928307
0.7921176
0.7916796
0.7914673
0.7913912
0.7912541
0.7906112
0.7898527
0.788801
0.7861864
0.8014121
0.7998018
0.7982597
0.7968614
0.7956645
0.7947093
0.7940171
0.7935814
0.7933617
0.7932534
0.7931021
0.7924476
0.7918166
0.7910749
0.790057
0.7877664
0.8030371
0.8014905
0.8000149
0.7986797
0.797538
0.7966282
0.7959721
0.7955688
0.7953811
0.7953219
0.795216
0.7946309
0.7940417
0.7934718
0.7927932
0.7920294
0.7887241
0.8046405
0.8031617
0.801759
0.8004931
0.7994124
0.7985544
0.7979447
0.7975932
0.7974831
0.7975438
0.7976014
0.7971359
0.7966716
0.7961861
0.7957041
0.7952695
0.7936613
0.790439
0.8062007
0.80479
0.8034604
0.802263
0.8012416
0.8004339
0.7998713
0.7995803
0.79958
0.7998642
0.8002906
0.8000684
0.7997829
0.7994502
0.7990647
0.7988141
0.7976458
0.7962196
0.7931668
0.80769
0.8063406
0.805074
0.8039341
0.8029615
0.8021933
0.8016657
0.8014206
0.8015253
0.8021262
0.8036249
0.803768
0.8036666
0.8034311
0.8031397
0.8029592
0.8020564
0.8011189
0.799955
0.7972292
0.8102578
0.8093965
0.8087285
0.8082031
0.8078029
0.8076743
0.8069108
0.8062503
0.8056024
0.804773
0.8026094
0.814564
0.8136734
0.8129388
0.8123638
0.8119632
0.8118727
0.8112238
0.8106659
0.8102422
0.8098755
0.8094226
0.8077653
0.8177088
0.8168721
0.8161704
0.8156209
0.8152453
0.8151811
0.8145852
0.8140834
0.8136944
0.8134643
0.8133739
0.8131926
0.8118549
0.8199857
0.8191907
0.8185206
0.8179935
0.8176319
0.8175636
0.8169872
0.8164841
0.8160865
0.8158168
0.8157671
0.8158448
0.8157784
0.8146308
0.8215219
0.8207463
0.8200877
0.8195632
0.8191929
0.8190973
0.8185064
0.8179764
0.8175249
0.8171852
0.8170226
0.8170552
0.8171576
0.8171181
0.8160267
0.7958605
0.7948399
0.7930658
0.7913888
0.7898732
0.7885837
0.7875825
0.7869439
0.7867319
0.7870939
0.7881546
0.7904503
0.7887442
0.796575
0.7948434
0.7932024
0.7917198
0.790457
0.7894721
0.788815
0.788545
0.7886851
0.7892776
0.7900201
0.789582
0.7871901
0.7982227
0.7965271
0.7949129
0.7934526
0.7922068
0.7912252
0.7905478
0.7901911
0.7901576
0.7903509
0.7905915
0.7900823
0.7892594
0.7866724
0.7998261
0.7981699
0.7965867
0.7951523
0.7939259
0.7929524
0.7922582
0.7918493
0.7916853
0.7916834
0.7916373
0.7910692
0.7903881
0.7894094
0.7868207
0.8014121
0.7998018
0.7982597
0.7968614
0.7956645
0.7947093
0.7940171
0.7935814
0.7933617
0.7932534
0.7931021
0.7924476
0.7918166
0.7910749
0.790057
0.7877664
0.8029921
0.8014352
0.7999455
0.7985956
0.79744
0.7965164
0.7958432
0.7954137
0.7951828
0.795058
0.7948729
0.7942254
0.7935739
0.7929438
0.7922083
0.7913977
0.7880881
0.8045651
0.8030678
0.8016406
0.8003498
0.7992459
0.7983648
0.7977263
0.7973276
0.7971326
0.7970512
0.7969236
0.7963208
0.7957269
0.7951224
0.7945336
0.794003
0.7923032
0.7890448
0.8061186
0.8046854
0.803327
0.8021016
0.8010552
0.8002231
0.799629
0.7992808
0.7991605
0.7991998
0.7992254
0.7987492
0.7982543
0.7977481
0.7972133
0.7968296
0.7955177
0.7939354
0.7907579
0.8076319
0.8062632
0.8049741
0.8038134
0.8028233
0.8020389
0.80149
0.8012005
0.8011874
0.801442
0.8018264
0.8015789
0.8012666
0.8008873
0.8004625
0.8001286
0.7990453
0.7978948
0.7964932
0.7934818
0.8090778
0.8077674
0.806538
0.8054319
0.8044878
0.8037411
0.8032258
0.8029811
0.8030702
0.8036316
0.8050459
0.8051518
0.8050114
0.8047359
0.8043839
0.8041354
0.803174
0.8022848
0.8013645
0.800224
0.7975993
0.8114377
0.8105761
0.8098945
0.8093381
0.8088929
0.8086809
0.8078642
0.8071128
0.8064667
0.8058366
0.8050846
0.8029686
0.8156072
0.8147162
0.81397
0.8133699
0.8129243
0.8127628
0.8120457
0.8114077
0.8108623
0.8104532
0.8101525
0.8097324
0.8080274
0.8186653
0.8178263
0.817113
0.8165397
0.8161249
0.8159935
0.8153427
0.8147565
0.8142657
0.8138892
0.8137179
0.8136528
0.8134237
0.812028
0.8208897
0.8200923
0.8194113
0.818863
0.8184665
0.8183414
0.8177165
0.8171489
0.8166556
0.8162689
0.8160527
0.8160241
0.8160547
0.8159332
0.8147177
0.8224002
0.8216231
0.820956
0.8204138
0.8200144
0.8198707
0.819243
0.8186601
0.8181389
0.8176972
0.8174071
0.8172628
0.8172494
0.817299
0.8171966
0.8020264
0.7991602
0.7964909
0.7966495
0.7949434
0.7933329
0.7918786
0.7906402
0.7896782
0.7890515
0.7888446
0.7891549
0.7902542
0.7926706
0.7929152
0.7910142
0.7983207
0.7966528
0.7950742
0.7936489
0.7924349
0.7914842
0.7908471
0.790564
0.7906862
0.7912032
0.791987
0.7918544
0.7913637
0.7890295
0.79991
0.7982746
0.7967194
0.7953135
0.7941139
0.7931669
0.7925061
0.7921521
0.7920876
0.7922543
0.7924323
0.7920392
0.7915326
0.7907156
0.7882119
0.8014587
0.7998592
0.7983318
0.7969488
0.7957665
0.7948259
0.7941516
0.7937434
0.7935694
0.7935305
0.7934638
0.7928771
0.792315
0.7916415
0.790684
0.7884022
0.8029921
0.8014352
0.7999455
0.7985956
0.79744
0.7965164
0.7958432
0.7954137
0.7951828
0.795058
0.7948729
0.7942254
0.7935739
0.7929438
0.7922083
0.7913977
0.7880881
0.8045216
0.8030145
0.8015737
0.8002688
0.7991516
0.7982573
0.7976025
0.7971788
0.7969427
0.7967992
0.796597
0.7959362
0.7952852
0.7946266
0.793988
0.7934124
0.7916707
0.7884089
0.8060456
0.8045947
0.8032127
0.8019633
0.8008947
0.8000407
0.7994189
0.7990256
0.7988243
0.7987283
0.7985783
0.7979734
0.7973581
0.7967437
0.7961137
0.7956472
0.7942492
0.792576
0.7893644
0.8075524
0.806162
0.8048451
0.8036576
0.8026433
0.8018357
0.8012566
0.8009122
0.8007842
0.8008048
0.8008071
0.8003197
0.7998118
0.799273
0.7987145
0.7982634
0.7970583
0.7957646
0.7942081
0.7910754
0.8090215
0.8076925
0.8064413
0.8053153
0.8043543
0.8035922
0.8030563
0.8027689
0.8027449
0.8029742
0.8033219
0.8030579
0.8027211
0.8023158
0.8018452
0.8014631
0.8003444
0.7992749
0.798142
0.796765
0.7938606
0.8104266
0.8091528
0.8079586
0.8068843
0.8059672
0.8052408
0.8047372
0.8044934
0.804569
0.8050951
0.8064343
0.8065087
0.8063401
0.8060305
0.805641
0.8053258
0.8043375
0.8033874
0.8025117
0.8016085
0.8005476
0.7979781
0.8126013
0.8117432
0.811053
0.8104769
0.8099955
0.809727
0.8088606
0.8080544
0.8073151
0.8066834
0.8061204
0.8054032
0.8032418
0.8166417
0.8157535
0.8150009
0.8143829
0.8139055
0.8136864
0.8129272
0.8122197
0.8115927
0.8110598
0.8107101
0.8104356
0.8099677
0.8082053
0.8196166
0.8187785
0.818058
0.8174675
0.8170225
0.8168401
0.8161476
0.8155056
0.8149292
0.8144494
0.8141268
0.8139769
0.8138646
0.8135803
0.8121164
0.8217899
0.8209925
0.8203047
0.8197406
0.8193171
0.8191463
0.8184876
0.8178707
0.8173119
0.8168284
0.8164914
0.8162936
0.8162191
0.8161968
0.8160122
0.8232744
0.8224979
0.8218253
0.8212699
0.8208477
0.820665
0.8200103
0.81939
0.8188152
0.8183028
0.8179075
0.8176336
0.8174449
0.8173808
0.8173711
0.8062958
0.8045954
0.8023321
0.8007119
0.7997022
0.7974302
0.7983923
0.7967488
0.7951991
0.7938008
0.7926099
0.7916808
0.7910721
0.7908484
0.791129
0.7921194
0.794453
0.7949379
0.7948441
0.7928717
0.8000044
0.7983954
0.7968742
0.7955016
0.7943321
0.7934145
0.7927919
0.7925071
0.7925892
0.7930586
0.7937417
0.7936884
0.7934844
0.7929325
0.7906263
0.8015396
0.79996
0.7984593
0.7971036
0.7959467
0.7950313
0.7943888
0.7940325
0.7939526
0.7940721
0.7942143
0.7937872
0.7933808
0.7928566
0.7920308
0.7897964
0.8030371
0.8014905
0.8000149
0.7986797
0.797538
0.7966282
0.7959721
0.7955688
0.7953811
0.7953219
0.795216
0.7946309
0.7940417
0.7934718
0.7927932
0.7920294
0.7887241
0.8045216
0.8030145
0.8015737
0.8002688
0.7991516
0.7982573
0.7976025
0.7971788
0.7969427
0.7967992
0.796597
0.7959362
0.7952852
0.7946266
0.793988
0.7934124
0.7916707
0.7884089
0.8060035
0.8045431
0.8031481
0.8018852
0.8008038
0.7999371
0.7992998
0.7988827
0.7986421
0.798487
0.7982664
0.7976072
0.7969391
0.7962755
0.7956011
0.7950958
0.7936575
0.7919427
0.7887288
0.8074817
0.8060742
0.8047346
0.803524
0.8024885
0.8016598
0.8010542
0.8006666
0.800461
0.8003525
0.8001879
0.7995791
0.7989589
0.7983203
0.797676
0.7971522
0.7958738
0.7944943
0.7928477
0.7896829
0.8089444
0.8075944
0.8063165
0.8051645
0.8041805
0.803396
0.8028311
0.8024911
0.8023567
0.802362
0.8023445
0.8018532
0.8013327
0.8007796
0.8001872
0.7997018
0.7984768
0.7972857
0.7960103
0.7944795
0.7914577
0.810372
0.8090802
0.8078649
0.8067714
0.805838
0.8050967
0.8045734
0.8042886
0.8042554
0.8044626
0.8047787
0.8045016
0.8041496
0.8037213
0.8032257
0.8027915
0.8016662
0.8005588
0.799503
0.7983876
0.7970919
0.7942482
0.8117384
0.8104994
0.8093381
0.808294
0.8074022
0.806695
0.8062028
0.8059604
0.806024
0.8065187
0.80779
0.8078384
0.807647
0.8073141
0.8068931
0.8065355
0.805517
0.8045383
0.8035994
0.8027372
0.801902
0.8008785
0.7982662
0.8137472
0.8128949
0.8122007
0.8116107
0.811105
0.8107902
0.8098976
0.8090406
0.8082449
0.8075178
0.8069462
0.8064105
0.8056454
0.8034272
0.8176654
0.8167825
0.8160271
0.8153971
0.8148959
0.8146339
0.8138431
0.8130926
0.8123949
0.8117788
0.8113003
0.8109726
0.8106506
0.8101272
0.8082962
0.8205608
0.8197257
0.8190015
0.8183987
0.8179308
0.8177076
0.8169873
0.8163029
0.8156698
0.8151032
0.8146734
0.8143695
0.8141735
0.814008
0.8136601
0.8226845
0.8218891
0.8211973
0.8206217
0.8201771
0.8199696
0.8192864
0.8186351
0.8180261
0.8174763
0.8170393
0.8167187
0.8164764
0.8163511
0.8162691
0.8241431
0.8233688
0.8226931
0.822128
0.8216878
0.8214732
0.8207991
0.8201512
0.8195382
0.8189715
0.8185028
0.8181222
0.8178053
0.817568
0.8174477
0.8090663
0.8083889
0.8065351
0.8057366
0.8048655
0.8029013
0.8019361
0.8012086
0.8005154
0.7985228
0.8000733
0.7984877
0.7969941
0.7956472
0.7944997
0.7936024
0.7930067
0.7927779
0.7930097
0.7939231
0.7960564
0.7965595
0.7967077
0.7964345
0.7944397
0.8016306
0.8000763
0.7986082
0.7972843
0.796156
0.7952685
0.7946621
0.7943717
0.7944304
0.7948352
0.7954502
0.7953354
0.795199
0.7949156
0.7943019
0.7922094
0.8031152
0.8015877
0.8001378
0.7988286
0.7977111
0.7968254
0.7961995
0.7958456
0.7957471
0.7958377
0.7959279
0.7954901
0.7950423
0.7946044
0.794048
0.7933859
0.7901185
0.8045651
0.8030678
0.8016406
0.8003498
0.7992459
0.7983648
0.7977263
0.7973276
0.7971326
0.7970512
0.7969236
0.7963208
0.7957269
0.7951224
0.7945336
0.794003
0.7923032
0.7890448
0.8060035
0.8045431
0.8031481
0.8018852
0.8008038
0.7999371
0.7992998
0.7988827
0.7986421
0.798487
0.7982664
0.7976072
0.7969391
0.7962755
0.7956011
0.7950958
0.7936575
0.7919427
0.7887288
0.8074409
0.8060243
0.8046722
0.8034486
0.8024009
0.80156
0.8009394
0.800529
0.8002859
0.800121
0.7998893
0.7992295
0.79856
0.7978761
0.797192
0.796634
0.7953213
0.7939018
0.7922139
0.7890477
0.8088758
0.8075094
0.8062096
0.8050354
0.8040309
0.8032261
0.8026358
0.8022543
0.8020457
0.8019274
0.8017507
0.8011444
0.8005184
0.7998728
0.7992021
0.7986523
0.7973634
0.7960994
0.7947385
0.7931184
0.7900669
0.8102972
0.8089851
0.807744
0.8066255
0.8056699
0.8049071
0.8043559
0.8040204
0.8038813
0.8038733
0.8038398
0.8033466
0.8028212
0.802255
0.8016479
0.8011208
0.7999024
0.798689
0.797512
0.7962546
0.7948063
0.791849
0.8116853
0.8104289
0.8092473
0.8081845
0.8072772
0.8065557
0.8060444
0.8057624
0.8057213
0.8059092
0.8061975
0.805911
0.8055473
0.8051053
0.8045883
0.8041242
0.8029835
0.8018678
0.8007717
0.7997295
0.7986828
0.7974262
0.7945431
0.8130155
0.811809
0.8106792
0.8096633
0.8087956
0.8081067
0.8076253
0.8073845
0.8074376
0.8079039
0.8091139
0.80914
0.8089308
0.8085798
0.8081382
0.8077453
0.806717
0.8057069
0.8047378
0.80381
0.8030084
0.802202
0.80113
0.7984617
0.8148744
0.8140298
0.8133346
0.8127358
0.8122122
0.8118643
0.8109529
0.8100686
0.8092208
0.8084357
0.8077635
0.8072146
0.8066309
0.8058095
0.803522
0.8186771
0.8178012
0.8170459
0.8164079
0.8158893
0.8155934
0.8147836
0.8140008
0.8132591
0.8125711
0.8120054
0.811546
0.8111719
0.8107962
0.8102086
0.8214966
0.8206661
0.8199407
0.8193296
0.8188442
0.8185883
0.8178487
0.8171358
0.8164594
0.8158352
0.8153154
0.8149021
0.8145535
0.8143065
0.814081
0.8235724
0.8227804
0.8220868
0.8215029
0.8210421
0.8208045
0.8201041
0.8194276
0.8187837
0.8181829
0.8176768
0.8172546
0.816891
0.8166
0.8164182
0.8250053
0.8242345
0.8235575
0.8229854
0.8225309
0.8222901
0.8216021
0.8209343
0.8202932
0.8196877
0.8191622
0.8187069
0.8182849
0.8179214
0.8176307
0.8104381
0.8108615
0.8092882
0.8092468
0.8086046
0.8070058
0.8066145
0.8059839
0.8053705
0.8036902
0.8030765
0.8023968
0.8019529
0.8014686
0.7996941
0.801697
0.8001652
0.7987235
0.7974241
0.7963167
0.7954485
0.7948677
0.7946305
0.7948308
0.7956555
0.7976342
0.7980307
0.798202
0.7981627
0.7977889
0.795986
0.803203
0.8016999
0.8002811
0.7990023
0.7979122
0.797053
0.7964616
0.7961703
0.7962036
0.7965644
0.7971002
0.7969515
0.7967496
0.7965239
0.7961604
0.7956672
0.7925306
0.8046405
0.8031617
0.801759
0.8004931
0.7994124
0.7985544
0.7979447
0.7975932
0.7974831
0.7975438
0.7976014
0.7971359
0.7966716
0.7961861
0.7957041
0.7952695
0.7936613
0.790439
0.8060456
0.8045947
0.8032127
0.8019633
0.8008947
0.8000407
0.7994189
0.7990256
0.7988243
0.7987283
0.7985783
0.7979734
0.7973581
0.7967437
0.7961137
0.7956472
0.7942492
0.792576
0.7893644
0.8074409
0.8060243
0.8046722
0.8034486
0.8024009
0.80156
0.8009394
0.800529
0.8002859
0.800121
0.7998893
0.7992295
0.79856
0.7978761
0.797192
0.796634
0.7953213
0.7939018
0.7922139
0.7890477
0.8088363
0.8074611
0.8061491
0.8049626
0.8039463
0.8031298
0.8025251
0.8021217
0.8018771
0.801705
0.8014644
0.8008098
0.8001376
0.7994499
0.7987429
0.7981628
0.7968442
0.7955459
0.7941452
0.7924842
0.7894326
0.8102307
0.8089027
0.8076404
0.8065005
0.8055252
0.804743