/*--------------------------------*- C++ -*----------------------------------*\
| =========                 |                                                 |
| \\      /  F ield         | OpenFOAM: The Open Source CFD Toolbox           |
|  \\    /   O peration     | Version:  2306                                  |
|   \\  /    A nd           | Website:  www.openfoam.com                      |
|    \\/     M anipulation  |                                                 |
\*---------------------------------------------------------------------------*/
FoamFile
{
    version     2.0;
    format      ascii;
    arch        "LSB;label=32;scalar=64";
    class       volScalarField;
    location    "1.5/air";
    object      nernst;
}
// * * * * * * * * * * * * * * * * * * * * * * * * * * * * * * * * * * * * * //

dimensions      [1 2 -3 0 0 -1 0];

internalField   nonuniform List<scalar> 
16000
(
-0.7379844
-0.7290166
-0.7486394
-0.7288645
-0.7240362
-0.7465083
-0.7071104
-0.7515733
-0.7464988
-0.7237604
-0.7211997
-0.7446602
-0.6935655
-0.7507482
-0.7402333
-0.6933557
-0.7540023
-0.7508193
-0.7446627
-0.7207849
-0.7198804
-0.7432993
-0.6854488
-0.7500041
-0.7347381
-0.6730618
-0.7536227
-0.7484271
-0.7347013
-0.6848881
-0.756168
-0.7537212
-0.7501675
-0.7433243
-0.7192875
-0.7198804
-0.7425782
-0.681601
-0.7494335
-0.7306647
-0.6603601
-0.753287
-0.746242
-0.7258196
-0.6598767
-0.7559574
-0.7526767
-0.7463293
-0.7305423
-0.6804894
-0.7581452
-0.7560599
-0.7535036
-0.7497183
-0.7426399
-0.7190545
-0.7534053
-0.7211997
-0.7425782
-0.681601
-0.7491228
-0.7284993
-0.6541927
-0.7530315
-0.7445536
-0.7191586
-0.6437554
-0.7557771
-0.7517339
-0.7427691
-0.7190016
-0.6528435
-0.7580038
-0.755522
-0.7518638
-0.7447477
-0.7282428
-0.6797095
-0.7599694
-0.7581018
-0.7560009
-0.753401
-0.7495666
-0.74271
-0.7200815
-0.7531588
-0.7557301
-0.7547462
-0.7240362
-0.7432993
-0.6854488
-0.7491228
-0.7284993
-0.6541927
-0.7528928
-0.7436306
-0.7155941
-0.635794
-0.7556429
-0.7510095
-0.739987
-0.7102562
-0.6347338
-0.7578862
-0.7550493
-0.7503567
-0.7400802
-0.7151475
-0.651541
-0.7598584
-0.757766
-0.7551875
-0.7513157
-0.7439669
-0.728102
-0.6825308
-0.7616644
-0.7599494
-0.7581007
-0.7560232
-0.7534598
-0.74978
-0.7435736
-0.7225565
-0.7526552
-0.7555493
-0.7544751
-0.7578562
-0.7569573
-0.7561266
-0.7290166
-0.7446602
-0.6935655
-0.7494335
-0.7306647
-0.6603601
-0.7528928
-0.7436306
-0.7155941
-0.635794
-0.7555709
-0.7506139
-0.7384566
-0.7055464
-0.625705
-0.7578005
-0.7546943
-0.7491833
-0.736398
-0.7051595
-0.633022
-0.7597676
-0.7574794
-0.7544584
-0.749371
-0.7386652
-0.714783
-0.6559727
-0.7615689
-0.7596982
-0.7576133
-0.7550241
-0.7511617
-0.7441837
-0.7302132
-0.6893358
-0.7632463
-0.7616528
-0.7599679
-0.7581656
-0.7561523
-0.7537146
-0.7503872
-0.7452162
-0.7270341
-0.7518419
-0.7551908
-0.7539048
-0.7576981
-0.7567774
-0.7558358
-0.7597753
-0.7589353
-0.7582133
-0.7575507
-0.7379844
-0.7465083
-0.7071104
-0.7500041
-0.7347381
-0.6730618
-0.7530315
-0.7445536
-0.7191586
-0.6437554
-0.7555709
-0.7506139
-0.7384566
-0.7055464
-0.625705
-0.7577551
-0.7545033
-0.7485375
-0.7343612
-0.6997585
-0.623769
-0.7597022
-0.7572698
-0.753903
-0.7478389
-0.734455
-0.7046037
-0.6386595
-0.7614912
-0.7594882
-0.7571889
-0.7541137
-0.7489937
-0.7388574
-0.71805
-0.6665223
-0.7631602
-0.7614417
-0.7596138
-0.7575907
-0.7550956
-0.7514968
-0.7454633
-0.7344655
-0.7011647
-0.7647279
-0.7632375
-0.7616771
-0.7600445
-0.7583136
-0.756408
-0.7541855
-0.7513886
-0.747611
-0.7350766
-0.7503794
-0.7546614
-0.7529272
-0.7573867
-0.7564229
-0.7552166
-0.7596302
-0.7587846
-0.7580339
-0.7572465
-0.7615394
-0.7607176
-0.7600385
-0.7594989
-0.7590197
-0.7486394
-0.7288645
-0.7507482
-0.7402333
-0.6933557
-0.753287
-0.746242
-0.7258196
-0.6598767
-0.7556429
-0.7510095
-0.739987
-0.7102562
-0.6347338
-0.7577551
-0.7545033
-0.7485375
-0.7343612
-0.6997585
-0.623769
-0.759668
-0.7571589
-0.7536016
-0.7469897
-0.732117
-0.6990921
-0.6300518
-0.7614356
-0.7593377
-0.7568745
-0.753411
-0.7472695
-0.7346111
-0.7087707
-0.6519392
-0.7630901
-0.761267
-0.7593127
-0.7570819
-0.7541177
-0.7493802
-0.7407482
-0.7246932
-0.6841818
-0.7646487
-0.7630489
-0.761384
-0.7596398
-0.7577361
-0.7554509
-0.7523635
-0.7477459
-0.7405738
-0.7204684
-0.7661195
-0.7647203
-0.7632628
-0.7617548
-0.7601927
-0.7585584
-0.7568063
-0.7548897
-0.7528087
-0.7508821
-0.7445559
-0.7540056
-0.7511022
-0.756938
-0.7559116
-0.7541459
-0.7593454
-0.7584947
-0.7576816
-0.7565984
-0.7614035
-0.7605817
-0.759894
-0.7593195
-0.7587089
-0.7631867
-0.7623644
-0.7616816
-0.7611655
-0.7608131
-0.7599202
-0.7515733
-0.7464988
-0.7237604
-0.7536227
-0.7484271
-0.7347013
-0.6848881
-0.7557771
-0.7517339
-0.7427691
-0.7190016
-0.6528435
-0.7578005
-0.7546943
-0.7491833
-0.736398
-0.7051595
-0.633022
-0.759668
-0.7571589
-0.7536016
-0.7469897
-0.732117
-0.6990921
-0.6300518
-0.7614065
-0.7592593
-0.756707
-0.7530264
-0.7463085
-0.732248
-0.7037522
-0.6447697
-0.7630399
-0.7611433
-0.7590949
-0.7566999
-0.753353
-0.7476821
-0.7369763
-0.7172594
-0.673606
-0.7645839
-0.7628933
-0.7611378
-0.7592905
-0.7572157
-0.7545454
-0.7505842
-0.7441811
-0.7340766
-0.7111597
-0.7660457
-0.7645469
-0.7630023
-0.7614251
-0.7598028
-0.7580798
-0.7561214
-0.7537597
-0.7508977
-0.748146
-0.7386741
-0.7674294
-0.7661123
-0.764745
-0.763338
-0.7618973
-0.7604231
-0.7589135
-0.7573703
-0.7558876
-0.754892
-0.7539684
-0.7465838
-0.7564555
-0.7553186
-0.7522531
-0.7589375
-0.7581042
-0.757178
-0.7554945
-0.7611366
-0.7603221
-0.7596197
-0.7589669
-0.7580503
-0.7630581
-0.7622378
-0.7615532
-0.7610251
-0.7606332
-0.7596093
-0.7647307
-0.763913
-0.7632097
-0.7626667
-0.7623147
-0.7616147
-0.7600355
-0.7540023
-0.7508193
-0.7446627
-0.7207849
-0.7559574
-0.7526767
-0.7463293
-0.7305423
-0.6804894
-0.7578862
-0.7550493
-0.7503567
-0.7400802
-0.7151475
-0.651541
-0.7597022
-0.7572698
-0.753903
-0.7478389
-0.734455
-0.7046037
-0.6386595
-0.7614065
-0.7592593
-0.756707
-0.7530264
-0.7463085
-0.732248
-0.7037522
-0.6447697
-0.7630138
-0.7610793
-0.7589807
-0.7564946
-0.7529312
-0.7467309
-0.7348741
-0.7132473
-0.6684772
-0.7645374
-0.7627836
-0.7609623
-0.7590351
-0.756819
-0.7538253
-0.7491355
-0.7412992
-0.7291104
-0.7053927
-0.7659851
-0.7644039
-0.7627845
-0.7611448
-0.7594605
-0.7576336
-0.7554331
-0.7525553
-0.7488005
-0.7452387
-0.7341076
-0.7673603
-0.7659509
-0.7645057
-0.7630464
-0.7615866
-0.7601253
-0.7586474
-0.7571298
-0.7556795
-0.754828
-0.7530648
-0.7418059
-0.7686646
-0.7674226
-0.766136
-0.7648167
-0.7634733
-0.762114
-0.7607481
-0.7594026
-0.7581705
-0.75746
-0.7573519
-0.7549916
-0.7486498
-0.7585171
-0.7577726
-0.7565941
-0.7536751
-0.7607542
-0.7599805
-0.7592631
-0.7584613
-0.756955
-0.762805
-0.761996
-0.7613127
-0.7607597
-0.7602781
-0.7589534
-0.764608
-0.7637931
-0.7630906
-0.7625436
-0.7621763
-0.7614343
-0.7597246
-0.766184
-0.7653742
-0.7646584
-0.7640744
-0.7636711
-0.7630183
-0.7617178
-0.7601512
-0.756168
-0.7537212
-0.7501675
-0.7433243
-0.7192875
-0.7580038
-0.755522
-0.7518638
-0.7447477
-0.7282428
-0.6797095
-0.7597676
-0.7574794
-0.7544584
-0.749371
-0.7386652
-0.714783
-0.6559727
-0.7614356
-0.7593377
-0.7568745
-0.753411
-0.7472695
-0.7346111
-0.7087707
-0.6519392
-0.7630138
-0.7610793
-0.7589807
-0.7564946
-0.7529312
-0.7467309
-0.7348741
-0.7132473
-0.6684772
-0.7645132
-0.762727
-0.7608712
-0.7589003
-0.7566037
-0.7534242
-0.748318
-0.7396862
-0.7264271
-0.7025985
-0.7659416
-0.7643032
-0.7626302
-0.760943
-0.7592064
-0.7572843
-0.7548639
-0.75153
-0.7470288
-0.7429165
-0.7310552
-0.7673034
-0.7658176
-0.7643061
-0.7628001
-0.7613183
-0.7598526
-0.7583636
-0.756779
-0.7551721
-0.7541796
-0.7518959
-0.7379385
-0.7685998
-0.7672715
-0.7659132
-0.7645492
-0.7632004
-0.7618872
-0.7606294
-0.7594687
-0.7585194
-0.7581866
-0.7575993
-0.7541943
-0.7447778
-0.7698313
-0.7686583
-0.7674454
-0.7662045
-0.7649452
-0.7636774
-0.7624159
-0.7611901
-0.7600951
-0.7594799
-0.7595658
-0.7582008
-0.7561044
-0.7507556
-0.7603596
-0.759727
-0.7589707
-0.7578606
-0.7552695
-0.7624415
-0.7616786
-0.7610111
-0.7604145
-0.7597629
-0.7578772
-0.7643664
-0.7635639
-0.7628681
-0.7623144
-0.7619132
-0.7610772
-0.7590692
-0.7660664
-0.7652597
-0.7645459
-0.7639608
-0.7635508
-0.76288
-0.7615374
-0.7598405
-0.7675538
-0.7667579
-0.7660359
-0.7654223
-0.7649569
-0.764291
-0.7631095
-0.7618211
-0.7602675
-0.7581452
-0.7560599
-0.7535036
-0.7497183
-0.7426399
-0.7190545
-0.7598584
-0.757766
-0.7551875
-0.7513157
-0.7439669
-0.728102
-0.6825308
-0.7614912
-0.7594882
-0.7571889
-0.7541137
-0.7489937
-0.7388574
-0.71805
-0.6665223
-0.7630399
-0.7611433
-0.7590949
-0.7566999
-0.753353
-0.7476821
-0.7369763
-0.7172594
-0.673606
-0.7645132
-0.762727
-0.7608712
-0.7589003
-0.7566037
-0.7534242
-0.748318
-0.7396862
-0.7264271
-0.7025985
-0.7659189
-0.7642513
-0.7625505
-0.7608378
-0.759071
-0.7570917
-0.7545405
-0.75094
-0.7460206
-0.741642
-0.7295319
-0.7672624
-0.7657237
-0.7641648
-0.7626243
-0.7611226
-0.7596435
-0.7581222
-0.7564407
-0.7546442
-0.7534955
-0.7508972
-0.7353024
-0.7685461
-0.7671465
-0.7657271
-0.7643236
-0.7629665
-0.7616825
-0.7604904
-0.7594208
-0.7585597
-0.7582978
-0.7574874
-0.7532218
-0.7415526
-0.7697704
-0.7685165
-0.7672366
-0.7659549
-0.7646945
-0.7634806
-0.7623466
-0.7613456
-0.7606004
-0.7604014
-0.760125
-0.7583432
-0.7553677
-0.7476353
-0.7709345
-0.7698255
-0.7686804
-0.7675108
-0.7663265
-0.7651382
-0.7639604
-0.762824
-0.7618138
-0.761243
-0.7613388
-0.7603071
-0.7591023
-0.7572696
-0.7528878
-0.7620601
-0.761446
-0.7608054
-0.7601044
-0.7591304
-0.7562749
-0.7640181
-0.7632614
-0.7625908
-0.7620285
-0.7615619
-0.760555
-0.7579956
-0.7658348
-0.7650403
-0.7643351
-0.7637502
-0.7633257
-0.7626154
-0.76118
-0.7591857
-0.7674408
-0.7666481
-0.7659284
-0.765315
-0.7648463
-0.7641709
-0.7629711
-0.7616406
-0.759957
-0.7688476
-0.7680691
-0.7673493
-0.7667153
-0.7662028
-0.7655068
-0.7643721
-0.7632009
-0.7619248
-0.7603842
-0.7599694
-0.7581018
-0.7560009
-0.753401
-0.7495666
-0.74271
-0.7200815
-0.7615689
-0.7596982
-0.7576133
-0.7550241
-0.7511617
-0.7441837
-0.7302132
-0.6893358
-0.7630901
-0.761267
-0.7593127
-0.7570819
-0.7541177
-0.7493802
-0.7407482
-0.7246932
-0.6841818
-0.7645374
-0.7627836
-0.7609623
-0.7590351
-0.756819
-0.7538253
-0.7491355
-0.7412992
-0.7291104
-0.7053927
-0.7659189
-0.7642513
-0.7625505
-0.7608378
-0.759071
-0.7570917
-0.7545405
-0.75094
-0.7460206
-0.741642
-0.7295319
-0.767241
-0.7656754
-0.764092
-0.762533
-0.7610196
-0.7595298
-0.7579833
-0.7562358
-0.7543192
-0.7530802
-0.7503343
-0.7339758
-0.7685074
-0.7670583
-0.7655955
-0.7641629
-0.7627974
-0.761528
-0.7603678
-0.7593304
-0.7584759
-0.7582124
-0.7572788
-0.7523954
-0.739317
-0.7697196
-0.7683989
-0.767062
-0.7657444
-0.7644802
-0.7633043
-0.762258
-0.761394
-0.7608158
-0.7607458
-0.7603466
-0.7582479
-0.754543
-0.7449925
-0.7708771
-0.7696922
-0.7684842
-0.7672765
-0.766092
-0.7649567
-0.7639049
-0.7629937
-0.7623316
-0.7621614
-0.7619464
-0.7607055
-0.75913
-0.7565697
-0.7504053
-0.7719788
-0.7709294
-0.769847
-0.7687431
-0.7676272
-0.7665097
-0.765405
-0.7643415
-0.7633976
-0.7628485
-0.7629125
-0.7620019
-0.7610824
-0.7600267
-0.7584609
-0.7541331
-0.7636448
-0.7630313
-0.7624078
-0.7618092
-0.7612033
-0.7599024
-0.7564029
-0.7654996
-0.7647485
-0.764071
-0.7634898
-0.7630365
-0.7622551
-0.7606571
-0.7581147
-0.767218
-0.7664371
-0.7657264
-0.765116
-0.7646404
-0.7639448
-0.7627063
-0.7612831
-0.7593029
-0.7687388
-0.7679633
-0.767246
-0.7666128
-0.7660986
-0.7653966
-0.764252
-0.7630625
-0.7617443
-0.7600739
-0.7700709
-0.7693132
-0.7686012
-0.7679577
-0.7674105
-0.7666944
-0.7655795
-0.7644533
-0.7632926
-0.7620287
-0.7605053
-0.7616644
-0.7599494
-0.7581007
-0.7560232
-0.7534598
-0.74978
-0.7435736
-0.7225565
-0.7631602
-0.7614417
-0.7596138
-0.7575907
-0.7550956
-0.7514968
-0.7454633
-0.7344655
-0.7011647
-0.7645839
-0.7628933
-0.7611378
-0.7592905
-0.7572157
-0.7545454
-0.7505842
-0.7441811
-0.7340766
-0.7111597
-0.7659416
-0.7643032
-0.7626302
-0.760943
-0.7592064
-0.7572843
-0.7548639
-0.75153
-0.7470288
-0.7429165
-0.7310552
-0.767241
-0.7656754
-0.764092
-0.762533
-0.7610196
-0.7595298
-0.7579833
-0.7562358
-0.7543192
-0.7530802
-0.7503343
-0.7339758
-0.7684871
-0.7670129
-0.7655277
-0.7640797
-0.762709
-0.7614451
-0.7602963
-0.7592659
-0.7584003
-0.7581267
-0.7571355
-0.7519295
-0.7381828
-0.7696829
-0.7683159
-0.7669385
-0.7655946
-0.7643258
-0.7631726
-0.7621779
-0.7613867
-0.7608824
-0.7608599
-0.7604086
-0.7580824
-0.7538562
-0.7431368
-0.7708291
-0.7695815
-0.7683199
-0.7670787
-0.7658914
-0.7647947
-0.7638325
-0.7630656
-0.7625851
-0.7625563
-0.7622553
-0.7608841
-0.7590249
-0.7558587
-0.7482918
-0.7719246
-0.770804
-0.7696626
-0.7685227
-0.7674063
-0.7663384
-0.7653522
-0.7645003
-0.7638827
-0.7637008
-0.763485
-0.7624412
-0.7613238
-0.7599435
-0.7577839
-0.7519461
-0.7729678
-0.7719743
-0.7709505
-0.7699074
-0.7688545
-0.7678016
-0.7667626
-0.7657636
-0.7648751
-0.7643447
-0.7643654
-0.7635141
-0.7626878
-0.7618682
-0.7609556
-0.7591953
-0.7542874
-0.765133
-0.764515
-0.7638899
-0.7632979
-0.7627701
-0.7618632
-0.7600027
-0.7565317
-0.7668944
-0.766154
-0.7654707
-0.7648689
-0.7643788
-0.7636473
-0.7623451
-0.7607594
-0.7582348
-0.7685239
-0.7677598
-0.7670514
-0.766422
-0.7659046
-0.7651901
-0.7640258
-0.7627974
-0.7613866
-0.7594207
-0.7699659
-0.7692112
-0.7685017
-0.7678592
-0.7673111
-0.7665906
-0.7654693
-0.7643333
-0.7631541
-0.7618482
-0.7601953
-0.7712291
-0.7704943
-0.7697951
-0.7691497
-0.7685813
-0.7678532
-0.7667601
-0.7656524
-0.7645349
-0.7633844
-0.7621368
-0.7606161
-0.7632463
-0.7616528
-0.7599679
-0.7581656
-0.7561523
-0.7537146
-0.7503872
-0.7452162
-0.7270341
-0.7646487
-0.7630489
-0.761384
-0.7596398
-0.7577361
-0.7554509
-0.7523635
-0.7477459
-0.7405738
-0.7204684
-0.7659851
-0.7644039
-0.7627845
-0.7611448
-0.7594605
-0.7576336
-0.7554331
-0.7525553
-0.7488005
-0.7452387
-0.7341076
-0.7672624
-0.7657237
-0.7641648
-0.7626243
-0.7611226
-0.7596435
-0.7581222
-0.7564407
-0.7546442
-0.7534955
-0.7508972
-0.7353024
-0.7684871
-0.7670129
-0.7655277
-0.7640797
-0.762709
-0.7614451
-0.7602963
-0.7592659
-0.7584003
-0.7581267
-0.7571355
-0.7519295
-0.7381828
-0.7696637
-0.7682731
-0.7668747
-0.765517
-0.7642453
-0.7631024
-0.7621308
-0.7613702
-0.7608934
-0.7608881
-0.7604156
-0.7579688
-0.7534712
-0.7421884
-0.7707944
-0.7695032
-0.7682035
-0.7669379
-0.765747
-0.7646742
-0.7637668
-0.7630822
-0.762693
-0.7627269
-0.7623991
-0.7609414
-0.7588834
-0.7552864
-0.7467943
-0.7718792
-0.7706996
-0.7695078
-0.7683363
-0.7672172
-0.7661855
-0.7652844
-0.7645706
-0.7641289
-0.7640824
-0.7637977
-0.76269
-0.7614435
-0.7598133
-0.7571641
-0.7500888
-0.7729167
-0.7718564
-0.7707769
-0.7696999
-0.768646
-0.7676388
-0.7667092
-0.7659056
-0.7653166
-0.7651181
-0.7648795
-0.7639259
-0.7629682
-0.7619649
-0.7607676
-0.7585248
-0.7521317
-0.773905
-0.7729641
-0.7719951
-0.7710088
-0.7700143
-0.7690212
-0.7680422
-0.7671017
-0.7662637
-0.7657505
-0.7657346
-0.7649168
-0.7641306
-0.7633775
-0.7626503
-0.7615351
-0.7592924
-0.7544417
-0.766534
-0.7659165
-0.7652849
-0.764683
-0.7641456
-0.7633478
-0.7619499
-0.7601031
-0.7566614
-0.768211
-0.7674846
-0.7668023
-0.7661833
-0.7656579
-0.7649215
-0.7637273
-0.7624351
-0.7608622
-0.7583555
-0.7697582
-0.7690143
-0.7683134
-0.7676753
-0.7671255
-0.7663964
-0.7652627
-0.7641068
-0.7628888
-0.7614902
-0.759543
-0.7711275
-0.7703957
-0.7696989
-0.7690547
-0.7684857
-0.7677543
-0.7666564
-0.7655422
-0.7644148
-0.7632459
-0.7619562
-0.7603064
-0.7723265
-0.7716164
-0.7709335
-0.7702928
-0.7697128
-0.7689828
-0.7679131
-0.766826
-0.7657255
-0.7646165
-0.7634803
-0.7622356
-0.7607012
-0.7647279
-0.7632375
-0.7616771
-0.7600445
-0.7583136
-0.756408
-0.7541855
-0.7513886
-0.747611
-0.7350766
-0.7660457
-0.7645469
-0.7630023
-0.7614251
-0.7598028
-0.7580798
-0.7561214
-0.7537597
-0.7508977
-0.748146
-0.7386741
-0.7673034
-0.7658176
-0.7643061
-0.7628001
-0.7613183
-0.7598526
-0.7583636
-0.756779
-0.7551721
-0.7541796
-0.7518959
-0.7379385
-0.7685074
-0.7670583
-0.7655955
-0.7641629
-0.7627974
-0.761528
-0.7603678
-0.7593304
-0.7584759
-0.7582124
-0.7572788
-0.7523954
-0.739317
-0.7696637
-0.7682731
-0.7668747
-0.765517
-0.7642453
-0.7631024
-0.7621308
-0.7613702
-0.7608934
-0.7608881
-0.7604156
-0.7579688
-0.7534712
-0.7421884
-0.7707761
-0.7694628
-0.7681435
-0.766865
-0.7656718
-0.7646102
-0.7637283
-0.7630806
-0.7627299
-0.76279
-0.7624541
-0.7609517
-0.7587901
-0.7549697
-0.7460243
-0.7718462
-0.7706257
-0.769398
-0.7682034
-0.767081
-0.766072
-0.7652236
-0.7645903
-0.7642406
-0.7642578
-0.763957
-0.7628134
-0.7614843
-0.7596826
-0.7566889
-0.7487693
-0.7728737
-0.7717579
-0.7706311
-0.7695241
-0.7684673
-0.7674934
-0.7666426
-0.7659674
-0.7655415
-0.7654684
-0.7651689
-0.7641762
-0.7631464
-0.7620186
-0.7606051
-0.7579448
-0.7503013
-0.7738568
-0.7728532
-0.7718319
-0.7708135
-0.7698177
-0.7688664
-0.7679882
-0.7672272
-0.7666629
-0.7664488
-0.7661893
-0.7652819
-0.7643941
-0.7635142
-0.7626144
-0.7612936
-0.7586225
-0.7523165
-0.7747932
-0.7739021
-0.7729848
-0.7720517
-0.7711118
-0.7701741
-0.7692508
-0.7683643
-0.767573
-0.7670784
-0.7670331
-0.7662438
-0.7654771
-0.764747
-0.7640599
-0.7631432
-0.7616139
-0.7593895
-0.7545962
-0.7678568
-0.7672437
-0.7666109
-0.7659961
-0.765437
-0.7646584
-0.7634245
-0.7620365
-0.7602038
-0.7567917
-0.7694552
-0.7687465
-0.7680703
-0.7674428
-0.7668882
-0.7661439
-0.7649933
-0.7638073
-0.7625253
-0.760965
-0.7584809
-0.7709266
-0.7702051
-0.7695166
-0.7688768
-0.7683071
-0.7675687
-0.766462
-0.7653354
-0.7641881
-0.7629802
-0.761598
-0.7596551
-0.7722282
-0.7715209
-0.7708404
-0.7702009
-0.7696207
-0.7688878
-0.7678141
-0.7667223
-0.7656153
-0.7644964
-0.7633417
-0.762055
-0.7603917
-0.7733674
-0.7726829
-0.772019
-0.7713879
-0.7708047
-0.7700795
-0.7690377
-0.7679731
-0.7668921
-0.7657987
-0.7647022
-0.7635679
-0.7623107
-0.7607626
-0.7661195
-0.7647203
-0.7632628
-0.7617548
-0.7601927
-0.7585584
-0.7568063
-0.7548897
-0.7528087
-0.7508821
-0.7445559
-0.7673603
-0.7659509
-0.7645057
-0.7630464
-0.7615866
-0.7601253
-0.7586474
-0.7571298
-0.7556795
-0.754828
-0.7530648
-0.7418059
-0.7685461
-0.7671465
-0.7657271
-0.7643236
-0.7629665
-0.7616825
-0.7604904
-0.7594208
-0.7585597
-0.7582978
-0.7574874
-0.7532218
-0.7415526
-0.7696829
-0.7683159
-0.7669385
-0.7655946
-0.7643258
-0.7631726
-0.7621779
-0.7613867
-0.7608824
-0.7608599
-0.7604086
-0.7580824
-0.7538562
-0.7431368
-0.7707761
-0.7694628
-0.7681435
-0.766865
-0.7656718
-0.7646102
-0.7637283
-0.7630806
-0.7627299
-0.76279
-0.7624541
-0.7609517
-0.7587901
-0.7549697
-0.7460243
-0.7718288
-0.7705875
-0.7693414
-0.7681346
-0.76701
-0.7660118
-0.7651883
-0.7645917
-0.7642821
-0.7643271
-0.7640235
-0.7628627
-0.7614922
-0.7596025
-0.7564312
-0.748089
-0.7728423
-0.7716881
-0.7705275
-0.7693987
-0.7683384
-0.7673855
-0.7665837
-0.765984
-0.7656449
-0.7656324
-0.7653207
-0.764311
-0.7632411
-0.7620354
-0.7604773
-0.7575139
-0.7490005
-0.773816
-0.7727603
-0.7716944
-0.7706477
-0.7696487
-0.7687279
-0.7679223
-0.7672795
-0.7668651
-0.766765
-0.7664493
-0.7655115
-0.7645744
-0.7636181
-0.7626008
-0.7611115
-0.7580463
-0.7505127
-0.7747477
-0.7737978
-0.7728313
-0.771868
-0.7709264
-0.7700273
-0.7691969
-0.7684755
-0.7679345
-0.7677102
-0.7674339
-0.7665614
-0.7657073
-0.7648777
-0.7640662
-0.7630414
-0.7613666
-0.75872
-0.752501
-0.7756351
-0.7747912
-0.7739228
-0.7730399
-0.7721511
-0.7712653
-0.7703939
-0.7695577
-0.7688103
-0.7683355
-0.7682693
-0.7675063
-0.7667573
-0.7660346
-0.7653542
-0.7644942
-0.7632116
-0.7616926
-0.7594867
-0.7547504
-0.7691073
-0.7685035
-0.7678739
-0.7672529
-0.766672
-0.765897
-0.7647272
-0.763501
-0.7621231
-0.7603045
-0.7569262
-0.7706327
-0.7699441
-0.769279
-0.7686498
-0.7680771
-0.7673268
-0.7662089
-0.7650651
-0.7638875
-0.7626155
-0.761072
-0.7585958
-0.7720335
-0.771336
-0.7706635
-0.7700285
-0.769448
-0.7687094
-0.7676285
-0.7665278
-0.7654083
-0.7642693
-0.7630756
-0.7616965
-0.7597412
-0.773272
-0.7725903
-0.7719288
-0.7712989
-0.7707156
-0.7699879
-0.7689427
-0.7678741
-0.7667884
-0.7656884
-0.764582
-0.7634291
-0.7621298
-0.7604533
-0.774355
-0.773697
-0.773054
-0.7724363
-0.771856
-0.7711416
-0.7701301
-0.7690927
-0.7680333
-0.7669583
-0.765876
-0.7647804
-0.7636335
-0.7623639
-0.7607986
-0.7503794
-0.7674294
-0.7661123
-0.764745
-0.763338
-0.7618973
-0.7604231
-0.7589135
-0.7573703
-0.7558876
-0.754892
-0.7539684
-0.7465838
-0.7685998
-0.7672715
-0.7659132
-0.7645492
-0.7632004
-0.7618872
-0.7606294
-0.7594687
-0.7585194
-0.7581866
-0.7575993
-0.7541943
-0.7447778
-0.7697196
-0.7683989
-0.767062
-0.7657444
-0.7644802
-0.7633043
-0.762258
-0.761394
-0.7608158
-0.7607458
-0.7603466
-0.7582479
-0.754543
-0.7449925
-0.7707944
-0.7695032
-0.7682035
-0.7669379
-0.765747
-0.7646742
-0.7637668
-0.7630822
-0.762693
-0.7627269
-0.7623991
-0.7609414
-0.7588834
-0.7552864
-0.7467943
-0.7718288
-0.7705875
-0.7693414
-0.7681346
-0.76701
-0.7660118
-0.7651883
-0.7645917
-0.7642821
-0.7643271
-0.7640235
-0.7628627
-0.7614922
-0.7596025
-0.7564312
-0.748089
-0.7728258
-0.7716521
-0.770474
-0.7693337
-0.7682713
-0.7673282
-0.7665497
-0.7659847
-0.7656838
-0.7656984
-0.7653858
-0.764369
-0.7632806
-0.7620369
-0.7604059
-0.7572837
-0.7483297
-0.7737862
-0.7726944
-0.7715967
-0.7705293
-0.7695267
-0.7686251
-0.7678647
-0.7672916
-0.7669574
-0.7669135
-0.7665875
-0.7656389
-0.7646783
-0.7636796
-0.7625903
-0.7609822
-0.7576199
-0.7492305
-0.774709
-0.7737103
-0.7727018
-0.7717117
-0.7707668
-0.7698957
-0.7691321
-0.7685195
-0.7681157
-0.767995
-0.7676656
-0.7667656
-0.7658715
-0.7649864
-0.7640973
-0.7629919
-0.761182
-0.7581476
-0.7507234
-0.7755921
-0.7746932
-0.7737786
-0.7728671
-0.7719767
-0.7711265
-0.7703411
-0.7696572
-0.7691395
-0.7689097
-0.7686233
-0.767781
-0.7669529
-0.7661451
-0.7653655
-0.7644362
-0.7631025
-0.7614394
-0.7588176
-0.7526847
-0.7764328
-0.775634
-0.7748119
-0.7739765
-0.7731361
-0.7722991
-0.7714763
-0.7706872
-0.7699814
-0.7695274
-0.7694471
-0.7687116
-0.7679803
-0.7672659
-0.7665818
-0.7657442
-0.7645553
-0.7632797
-0.7617712
-0.7595837
-0.754907
-0.7702911
-0.7697001
-0.7690791
-0.7684573
-0.7678632
-0.7670881
-0.7659594
-0.7647958
-0.7635775
-0.7622095
-0.7604095
-0.7570496
-0.7717481
-0.7710817
-0.7704312
-0.7698066
-0.7692243
-0.7684757
-0.7673861
-0.7662739
-0.765137
-0.7639675
-0.7627096
-0.7611697
-0.7586845
-0.7730831
-0.7724108
-0.7717569
-0.7711315
-0.7705483
-0.7698156
-0.7687642
-0.7676884
-0.7665937
-0.7654812
-0.7643545
-0.7631626
-0.761771
-0.7598034
-0.7742624
-0.7736071
-0.7729665
-0.7723501
-0.7717698
-0.7710531
-0.7700386
-0.7689977
-0.7679343
-0.7668545
-0.7657656
-0.76466
-0.7634946
-0.7621829
-0.7604893
-0.7752926
-0.7746614
-0.7740409
-0.7734394
-0.772867
-0.7721674
-0.7711886
-0.7701809
-0.769148
-0.7680935
-0.7670285
-0.7659464
-0.7648381
-0.763679
-0.7623936
-0.7518419
-0.7540056
-0.7511022
-0.7686646
-0.7674226
-0.766136
-0.7648167
-0.7634733
-0.762114
-0.7607481
-0.7594026
-0.7581705
-0.75746
-0.7573519
-0.7549916
-0.7486498
-0.7697704
-0.7685165
-0.7672366
-0.7659549
-0.7646945
-0.7634806
-0.7623466
-0.7613456
-0.7606004
-0.7604014
-0.760125
-0.7583432
-0.7553677
-0.7476353
-0.7708291
-0.7695815
-0.7683199
-0.7670787
-0.7658914
-0.7647947
-0.7638325
-0.7630656
-0.7625851
-0.7625563
-0.7622553
-0.7608841
-0.7590249
-0.7558587
-0.7482918
-0.7718462
-0.7706257
-0.769398
-0.7682034
-0.767081
-0.766072
-0.7652236
-0.7645903
-0.7642406
-0.7642578
-0.763957
-0.7628134
-0.7614843
-0.7596826
-0.7566889
-0.7487693
-0.7728258
-0.7716521
-0.770474
-0.7693337
-0.7682713
-0.7673282
-0.7665497
-0.7659847
-0.7656838
-0.7656984
-0.7653858
-0.764369
-0.7632806
-0.7620369
-0.7604059
-0.7572837
-0.7483297
-0.7737705
-0.7726604
-0.7715463
-0.7704679
-0.7694632
-0.7685706
-0.7678316
-0.7672906
-0.7669921
-0.7669734
-0.7666474
-0.7656951
-0.7647248
-0.7637068
-0.7625832
-0.7609135
-0.7573925
-0.7485691
-0.7746807
-0.7736481
-0.7726097
-0.7716
-0.7706515
-0.7697979
-0.769076
-0.7685274
-0.7681975
-0.7681285
-0.7677895
-0.7668806
-0.7659692
-0.7650563
-0.764124
-0.7629657
-0.7610523
-0.7577256
-0.7494596
-0.7755555
-0.7746107
-0.7736567
-0.77272
-0.7718261
-0.7710017
-0.7702781
-0.7696945
-0.7693027
-0.7691671
-0.7688299
-0.7679608
-0.767097
-0.7662435
-0.765405
-0.7644294
-0.763049
-0.7612525
-0.7582489
-0.7509329
-0.7763922
-0.7755419
-0.7746766
-0.7738143
-0.7729721
-0.7721682
-0.7714254
-0.7707774
-0.7702831
-0.7700523
-0.7697613
-0.7689492
-0.7681444
-0.7673543
-0.7665854
-0.7656969
-0.7644904
-0.7631636
-0.7615123
-0.7589149
-0.7528683
-0.7771884
-0.7764326
-0.7756547
-0.7748644
-0.7740698
-0.7732789
-0.772502
-0.7717574
-0.771091
-0.7706585
-0.7705701
-0.7698626
-0.7691516
-0.7684477
-0.7677637
-0.7669365
-0.7657998
-0.7646162
-0.7633478
-0.7618496
-0.7596853
-0.7550505
-0.771413
-0.7708378
-0.770229
-0.7696125
-0.769012
-0.7682425
-0.7671452
-0.7660216
-0.7648644
-0.7636537
-0.7623001
-0.7605053
-0.7571463
-0.7728058
-0.7721628
-0.7715298
-0.7709146
-0.7703303
-0.7695889
-0.7685301
-0.7674454
-0.766339
-0.7652088
-0.7640515
-0.7627954
-0.7612432
-0.7587492
-0.774079
-0.7734327
-0.7727994
-0.7721874
-0.7716075
-0.7708863
-0.7698663
-0.7688192
-0.7677485
-0.7666596
-0.765558
-0.7644322
-0.7632275
-0.7618235
-0.75984
-0.7752026
-0.7745741
-0.7739559
-0.7733557
-0.7727834
-0.7720818
-0.7711001
-0.7700893
-0.769053
-0.7679946
-0.7669246
-0.7658359
-0.7647176
-0.7635398
-0.7622124
-0.7761829
-0.7755788
-0.7749818
-0.7743987
-0.7738379
-0.7731563
-0.7722113
-0.7712357
-0.7702319
-0.7692032
-0.7681578
-0.7670924
-0.7659976
-0.7648771
-0.7637029
-0.7526552
-0.7546614
-0.7529272
-0.7564555
-0.7553186
-0.7522531
-0.7698313
-0.7686583
-0.7674454
-0.7662045
-0.7649452
-0.7636774
-0.7624159
-0.7611901
-0.7600951
-0.7594799
-0.7595658
-0.7582008
-0.7561044
-0.7507556
-0.7708771
-0.7696922
-0.7684842
-0.7672765
-0.766092
-0.7649567
-0.7639049
-0.7629937
-0.7623316
-0.7621614
-0.7619464
-0.7607055
-0.75913
-0.7565697
-0.7504053
-0.7718792
-0.7706996
-0.7695078
-0.7683363
-0.7672172
-0.7661855
-0.7652844
-0.7645706
-0.7641289
-0.7640824
-0.7637977
-0.76269
-0.7614435
-0.7598133
-0.7571641
-0.7500888
-0.7728423
-0.7716881
-0.7705275
-0.7693987
-0.7683384
-0.7673855
-0.7665837
-0.765984
-0.7656449
-0.7656324
-0.7653207
-0.764311
-0.7632411
-0.7620354
-0.7604773
-0.7575139
-0.7490005
-0.7737705
-0.7726604
-0.7715463
-0.7704679
-0.7694632
-0.7685706
-0.7678316
-0.7672906
-0.7669921
-0.7669734
-0.7666474
-0.7656951
-0.7647248
-0.7637068
-0.7625832
-0.7609135
-0.7573925
-0.7485691
-0.7746658
-0.7736159
-0.7725621
-0.771542
-0.7705913
-0.7697459
-0.7690438
-0.7685248
-0.7682279
-0.7681823
-0.7678434
-0.7669319
-0.7660141
-0.7650895
-0.7641378
-0.7629532
-0.7609838
-0.757501
-0.7488075
-0.7755286
-0.7745521
-0.7735698
-0.7726146
-0.7717172
-0.7709089
-0.7702237
-0.7696992
-0.7693753
-0.7692871
-0.7689408
-0.7680631
-0.7671846
-0.7663094
-0.7654404
-0.7644371
-0.7630208
-0.7611223
-0.7578312
-0.7496873
-0.7763575
-0.7754643
-0.7745619
-0.7736759
-0.7728303
-0.7720503
-0.7713648
-0.7708095
-0.7704312
-0.7702861
-0.7699462
-0.7691074
-0.7682692
-0.7674388
-0.7666209
-0.7657009
-0.7644793
-0.763106
-0.761323
-0.7583498
-0.7511405
-0.7771501
-0.7763462
-0.7755279
-0.7747125
-0.7739161
-0.7731561
-0.7724537
-0.7718403
-0.7713697
-0.7711412
-0.7708504
-0.7700686
-0.7692886
-0.7685157
-0.7677568
-0.7668879
-0.7657461
-0.7645444
-0.7632247
-0.761585
-0.7590167
-0.7530363
-0.7779036
-0.7771891
-0.7764535
-0.7757062
-0.7749551
-0.7742079
-0.7734745
-0.772772
-0.7721433
-0.7717329
-0.7716411
-0.7709622
-0.7702734
-0.769584
-0.7689039
-0.768089
-0.7669876
-0.7658552
-0.764677
-0.7634156
-0.7619328
-0.7597779
-0.7551661
-0.7724771
-0.7719198
-0.7713264
-0.7707197
-0.77012
-0.7693601
-0.7682951
-0.7672021
-0.7660839
-0.7649328
-0.7637341
-0.7623825
-0.7605766
-0.7572185
-0.7738092
-0.7731907
-0.7725774
-0.7719753
-0.7713949
-0.770666
-0.7696393
-0.7685846
-0.7675047
-0.766404
-0.7652845
-0.7641279
-0.7628589
-0.7612946
-0.7587879
-0.7750243
-0.7744044
-0.7737934
-0.7731975
-0.7726257
-0.7719201
-0.7709334
-0.769917
-0.7688743
-0.7678085
-0.7667294
-0.7656279
-0.7644892
-0.7632722
-0.7618524
-0.7760954
-0.7754939
-0.7748991
-0.7743174
-0.7737567
-0.7730733
-0.7721257
-0.7711473
-0.7701403
-0.7691082
-0.7680588
-0.7669885
-0.7658869
-0.7647563
-0.7635635
-0.7770283
-0.7764514
-0.7758786
-0.7753156
-0.7747692
-0.7741081
-0.7731975
-0.7722552
-0.771283
-0.7702829
-0.7692624
-0.7682163
-0.7671382
-0.7660312
-0.764896
-0.7531588
-0.7551908
-0.7539048
-0.756938
-0.7559116
-0.7541459
-0.7585171
-0.7577726
-0.7565941
-0.7536751
-0.7709345
-0.7698255
-0.7686804
-0.7675108
-0.7663265
-0.7651382
-0.7639604
-0.762824
-0.7618138
-0.761243
-0.7613388
-0.7603071
-0.7591023
-0.7572696
-0.7528878
-0.7719246
-0.770804
-0.7696626
-0.7685227
-0.7674063
-0.7663384
-0.7653522
-0.7645003
-0.7638827
-0.7637008
-0.763485
-0.7624412
-0.7613238
-0.7599435
-0.7577839
-0.7519461
-0.7728737
-0.7717579
-0.7706311
-0.7695241
-0.7684673
-0.7674934
-0.7666426
-0.7659674
-0.7655415
-0.7654684
-0.7651689
-0.7641762
-0.7631464
-0.7620186
-0.7606051
-0.7579448
-0.7503013
-0.7737862
-0.7726944
-0.7715967
-0.7705293
-0.7695267
-0.7686251
-0.7678647
-0.7672916
-0.7669574
-0.7669135
-0.7665875
-0.7656389
-0.7646783
-0.7636796
-0.7625903
-0.7609822
-0.7576199
-0.7492305
-0.7746658
-0.7736159
-0.7725621
-0.771542
-0.7705913
-0.7697459
-0.7690438
-0.7685248
-0.7682279
-0.7681823
-0.7678434
-0.7669319
-0.7660141
-0.7650895
-0.7641378
-0.7629532
-0.7609838
-0.757501
-0.7488075
-0.7755144
-0.7745217
-0.7735249
-0.7725599
-0.7716603
-0.7708595
-0.7701925
-0.7696953
-0.7694019
-0.7693354
-0.7689891
-0.7681089
-0.7672252
-0.7663415
-0.7654597
-0.7644434
-0.7630076
-0.761054
-0.7576093
-0.7490445
-0.7763319
-0.775409
-0.7744802
-0.7735767
-0.7727276
-0.7719624
-0.7713124
-0.7708119
-0.7704962
-0.7703946
-0.7700456
-0.7691981
-0.7683463
-0.7674972
-0.766655
-0.7657179
-0.7644847
-0.7630759
-0.7611924
-0.7579364
-0.7499118
-0.7771172
-0.7762733
-0.7754202
-0.7745824
-0.7737828
-0.773045