/*--------------------------------*- C++ -*----------------------------------*\
| =========                 |                                                 |
| \\      /  F ield         | OpenFOAM: The Open Source CFD Toolbox           |
|  \\    /   O peration     | Version:  2306                                  |
|   \\  /    A nd           | Website:  www.openfoam.com                      |
|    \\/     M anipulation  |                                                 |
\*---------------------------------------------------------------------------*/
FoamFile
{
    version     2.0;
    format      ascii;
    arch        "LSB;label=32;scalar=64";
    class       volScalarField;
    location    "1.5/air";
    object      O2;
}
// * * * * * * * * * * * * * * * * * * * * * * * * * * * * * * * * * * * * * //

dimensions      [0 0 0 0 0 0 0];

internalField   nonuniform List<scalar> 
16000
(
0.2299437
0.2299728
0.2280904
0.2299081
0.2300106
0.2281829
0.2299496
0.2256179
0.2279692
0.2298014
0.2300423
0.2283039
0.2300003
0.2257362
0.2280939
0.2298608
0.2229401
0.2254656
0.2276571
0.2295788
0.2300599
0.2284068
0.2300412
0.2259009
0.228249
0.2299326
0.2230559
0.2256181
0.2278238
0.2296595
0.2203225
0.2227862
0.225088
0.2270849
0.2291796
0.2300599
0.2284643
0.2300632
0.2260493
0.2283757
0.2299887
0.223215
0.2258213
0.2280314
0.2297578
0.2204333
0.2229356
0.2252804
0.2272946
0.229284
0.2178236
0.2201751
0.2224056
0.2244206
0.2261867
0.2285212
0.189569
0.2300423
0.2284643
0.2300632
0.2261355
0.2284449
0.2300178
0.2233568
0.2260009
0.2281999
0.2298337
0.2205852
0.2231321
0.2255312
0.2275591
0.2294149
0.2179283
0.2203178
0.2225931
0.2246493
0.2264375
0.2286522
0.2154515
0.2176838
0.219811
0.2217372
0.2234113
0.2248998
0.2274919
0.1909421
0.1879127
0.1893519
0.2300106
0.2284068
0.2300412
0.2261355
0.2284449
0.2300178
0.2234387
0.2261041
0.2282908
0.2298739
0.2207204
0.2233031
0.2257502
0.2277795
0.22952
0.2180717
0.2205051
0.2228363
0.2249468
0.2267579
0.2288243
0.2155504
0.2178185
0.2199893
0.2219568
0.2236701
0.225191
0.2276597
0.2131981
0.2153194
0.2173385
0.2191732
0.2207356
0.2220195
0.2231638
0.225936
0.1937153
0.18914
0.19072
0.187327
0.1877145
0.1889185
0.2299728
0.2283039
0.2300003
0.2260493
0.2283757
0.2299887
0.2234387
0.2261041
0.2282908
0.2298739
0.2207984
0.2234006
0.225876
0.2279014
0.2295773
0.2181993
0.2206677
0.2230456
0.225203
0.2270284
0.2289691
0.2156859
0.2179952
0.2202199
0.2222422
0.2240091
0.2255675
0.2278905
0.2132917
0.2154468
0.2175066
0.2193806
0.220979
0.2223042
0.2235022
0.2261798
0.2110524
0.213073
0.2149933
0.2167341
0.2182206
0.2193712
0.2202151
0.2209166
0.2236118
0.1979894
0.191613
0.1934757
0.1884634
0.1889381
0.1902779
0.1869225
0.1871448
0.1873188
0.18827
0.2299437
0.2281829
0.2299496
0.2259009
0.228249
0.2299326
0.2233568
0.2260009
0.2281999
0.2298337
0.2207984
0.2234006
0.225876
0.2279014
0.2295773
0.2182729
0.2207603
0.2231643
0.2253482
0.2271794
0.2290502
0.2158065
0.2181485
0.220418
0.2224879
0.2243016
0.225888
0.2280906
0.2134201
0.2156137
0.2177239
0.2196495
0.221298
0.2226809
0.2239435
0.2265149
0.2111414
0.2131936
0.2151522
0.2169294
0.218449
0.2196331
0.2205307
0.2213342
0.224064
0.2090035
0.2109335
0.212764
0.2144226
0.2158325
0.2169282
0.2176266
0.2179695
0.2180741
0.2200691
0.2041632
0.1954075
0.1976832
0.1907526
0.1913973
0.1930045
0.1879816
0.188278
0.1885359
0.1896189
0.1864684
0.186753
0.186781
0.1867266
0.1874081
0.2280904
0.2299081
0.2257362
0.2280939
0.2298608
0.223215
0.2258213
0.2280314
0.2297578
0.2207204
0.2233031
0.2257502
0.2277795
0.22952
0.2182729
0.2207603
0.2231643
0.2253482
0.2271794
0.2290502
0.215876
0.2182358
0.2205301
0.2226271
0.2244672
0.2260681
0.2282044
0.2135342
0.2157586
0.2179104
0.2198805
0.221574
0.2230076
0.2243207
0.2268023
0.2112633
0.2133516
0.2153575
0.2171822
0.2187473
0.2199803
0.2209513
0.2218725
0.2246111
0.2090883
0.2110482
0.2129145
0.2146071
0.216047
0.2171725
0.2179123
0.218348
0.218681
0.2211498
0.2070417
0.2088903
0.2106401
0.212223
0.2135711
0.2146105
0.2152819
0.2154853
0.2152297
0.2144595
0.2142142
0.2008441
0.2035316
0.1942629
0.1951372
0.1971131
0.1901147
0.1905549
0.1909726
0.192313
0.1874626
0.1878093
0.1879086
0.1879361
0.1887464
0.185887
0.1863095
0.1864146
0.1862364
0.1859391
0.186166
0.2256179
0.2279692
0.2298014
0.2230559
0.2256181
0.2278238
0.2296595
0.2205852
0.2231321
0.2255312
0.2275591
0.2294149
0.2181993
0.2206677
0.2230456
0.225203
0.2270284
0.2289691
0.215876
0.2182358
0.2205301
0.2226271
0.2244672
0.2260681
0.2282044
0.2136
0.215841
0.2180159
0.220011
0.2217307
0.2231929
0.2245329
0.2269635
0.2113717
0.2134888
0.2155336
0.2173993
0.2190048
0.2202825
0.2213165
0.2223263
0.2250432
0.2092044
0.2111984
0.2131089
0.2148459
0.2163271
0.2174953
0.2182943
0.2188444
0.2194003
0.2221174
0.2071228
0.2089995
0.2107832
0.212398
0.213774
0.2148398
0.2155476
0.2158271
0.215779
0.2156096
0.2173248
0.2051595
0.2069336
0.2086107
0.2101263
0.2114158
0.212417
0.2130556
0.2132673
0.2129048
0.2118445
0.2095565
0.2112897
0.1992876
0.2003018
0.2025906
0.1933847
0.1940156
0.1946321
0.1963231
0.1894647
0.1899312
0.1901655
0.190348
0.1914115
0.1868246
0.187301
0.1874658
0.1873576
0.1871413
0.1874935
0.1852144
0.185737
0.1859921
0.185908
0.1855119
0.1848037
0.18591
0.2229401
0.2254656
0.2276571
0.2295788
0.2204333
0.2229356
0.2252804
0.2272946
0.229284
0.2180717
0.2205051
0.2228363
0.2249468
0.2267579
0.2288243
0.2158065
0.2181485
0.220418
0.2224879
0.2243016
0.225888
0.2280906
0.2136
0.215841
0.2180159
0.220011
0.2217307
0.2231929
0.2245329
0.2269635
0.2114342
0.2135668
0.2156331
0.217522
0.2191508
0.2204546
0.2215234
0.2225794
0.2252749
0.2093078
0.2113287
0.2132756
0.2150507
0.2165686
0.2177755
0.2186273
0.2192683
0.2199745
0.2227767
0.2072338
0.2091427
0.210968
0.2126242
0.2140385
0.2151425
0.2159019
0.216277
0.2164358
0.2166811
0.2189729
0.2052371
0.2070381
0.2087471
0.2102927
0.2116083
0.212634
0.2133051
0.2135859
0.2134068
0.2128994
0.2124264
0.2149491
0.2033499
0.205056
0.2066666
0.2081209
0.2093593
0.2103213
0.210948
0.2111549
0.2108444
0.2097447
0.2073287
0.2070908
0.2090152
0.198063
0.1987908
0.1994884
0.2014961
0.1925333
0.1931553
0.1935535
0.193929
0.1953464
0.1887128
0.1892927
0.1895695
0.1895929
0.1895324
0.1901345
0.1861029
0.1866722
0.186979
0.1869535
0.1866272
0.1859992
0.1872354
0.1844665
0.1850723
0.1854375
0.1855169
0.185234
0.1844674
0.1845697
0.1856519
0.2203225
0.2227862
0.225088
0.2270849
0.2291796
0.2179283
0.2203178
0.2225931
0.2246493
0.2264375
0.2286522
0.2156859
0.2179952
0.2202199
0.2222422
0.2240091
0.2255675
0.2278905
0.2135342
0.2157586
0.2179104
0.2198805
0.221574
0.2230076
0.2243207
0.2268023
0.2114342
0.2135668
0.2156331
0.217522
0.2191508
0.2204546
0.2215234
0.2225794
0.2252749
0.2093673
0.2114028
0.2133699
0.2151664
0.2167055
0.2179348
0.2188168
0.2195057
0.2202851
0.2231059
0.2073325
0.2092668
0.2111265
0.2128183
0.2142665
0.2154051
0.2162099
0.2166624
0.2169638
0.2174419
0.2199263
0.2053434
0.2071748
0.2089232
0.2105079
0.2118592
0.2129202
0.2136375
0.214004
0.2140077
0.2138835
0.2140515
0.2169488
0.2034243
0.205156
0.206797
0.2082797
0.2095426
0.2105274
0.2111845
0.2114545
0.2113142
0.2107214
0.2099794
0.2104252
0.2128442
0.2016071
0.2032506
0.2048003
0.2061987
0.2073896
0.2083187
0.2089275
0.2091512
0.2088705
0.20788
0.205546
0.2050615
0.2051612
0.207154
0.1969228
0.1976024
0.1980466
0.1985348
0.2003228
0.1916066
0.1923186
0.1927268
0.1929104
0.1930558
0.1940233
0.1878921
0.1885507
0.1889539
0.1890378
0.1888449
0.1883749
0.1898715
0.1853112
0.1859585
0.1863685
0.1864986
0.1862744
0.1855776
0.1857639
0.1869751
0.18367
0.1843313
0.1847885
0.1849891
0.1848846
0.1842621
0.1842521
0.1843338
0.1853916
0.2178236
0.2201751
0.2224056
0.2244206
0.2261867
0.2285212
0.2155504
0.2178185
0.2199893
0.2219568
0.2236701
0.225191
0.2276597
0.2134201
0.2156137
0.2177239
0.2196495
0.221298
0.2226809
0.2239435
0.2265149
0.2113717
0.2134888
0.2155336
0.2173993
0.2190048
0.2202825
0.2213165
0.2223263
0.2250432
0.2093673
0.2114028
0.2133699
0.2151664
0.2167055
0.2179348
0.2188168
0.2195057
0.2202851
0.2231059
0.2073894
0.2093374
0.211216
0.2129279
0.2143956
0.2155544
0.2163848
0.2168789
0.2172503
0.2178312
0.2203725
0.2054379
0.2072935
0.2090743
0.2106924
0.2120754
0.2131683
0.2139265
0.2143611
0.2144911
0.2145838
0.2150391
0.218076
0.2035263
0.205287
0.2069654
0.208485
0.2097814
0.2107992
0.2114993
0.2118476
0.211875
0.2116312
0.2114812
0.2123394
0.215073
0.2016786
0.2033466
0.2049252
0.2063506
0.2075646
0.2085153
0.2091524
0.2094355
0.2093132
0.2087961
0.2080121
0.2081451
0.2086427
0.2110006
0.199926
0.2015117
0.2030053
0.2043522
0.2054998
0.2063971
0.2069928
0.2072217
0.2069898
0.2060763
0.2039429
0.2034396
0.2032917
0.2035702
0.2055828
0.1957456
0.1964916
0.1969124
0.1971754
0.1975043
0.1989117
0.190634
0.1914044
0.1919174
0.1921304
0.1921118
0.1918679
0.1937513
0.1870123
0.1877385
0.1882312
0.1884556
0.188343
0.1877833
0.1881365
0.1896065
0.1844756
0.1851739
0.1856707
0.1859153
0.1858618
0.1852983
0.1853613
0.1855266
0.1867127
0.1828379
0.1835411
0.1840614
0.1843635
0.1843925
0.1839729
0.1840618
0.1840351
0.1840958
0.1851291
0.2154515
0.2176838
0.219811
0.2217372
0.2234113
0.2248998
0.2274919
0.2132917
0.2154468
0.2175066
0.2193806
0.220979
0.2223042
0.2235022
0.2261798
0.2112633
0.2133516
0.2153575
0.2171822
0.2187473
0.2199803
0.2209513
0.2218725
0.2246111
0.2093078
0.2113287
0.2132756
0.2150507
0.2165686
0.2177755
0.2186273
0.2192683
0.2199745
0.2227767
0.2073894
0.2093374
0.211216
0.2129279
0.2143956
0.2155544
0.2163848
0.2168789
0.2172503
0.2178312
0.2203725
0.2054924
0.2073609
0.2091596
0.2107966
0.2121978
0.2133091
0.2140905
0.2145614
0.2147537
0.2149427
0.2155151
0.2185936
0.203617
0.2054006
0.2071097
0.2086609
0.2099871
0.2110347
0.2117726
0.2121834
0.2123252
0.2122781
0.2123949
0.2134646
0.216333
0.2017767
0.2034723
0.2050865
0.2065469
0.2077926
0.2087743
0.2094518
0.2098084
0.2098419
0.2096485
0.2094076
0.2099174
0.2107479
0.2133604
0.1999949
0.2016039
0.2031252
0.2044978
0.2056673
0.206585
0.2072076
0.2074924
0.2074103
0.2069408
0.2062576
0.2063107
0.2065152
0.2070732
0.2094002
0.1983023
0.1998342
0.2012759
0.2025753
0.2036827
0.2045509
0.2051318
0.205369
0.2051687
0.204344
0.2023652
0.2019686
0.2017971
0.2018368
0.2022152
0.2040333
0.1945557
0.1953395
0.1958458
0.1961051
0.1962352
0.1962549
0.198623
0.1896192
0.1904426
0.1910264
0.1913591
0.1913897
0.1910256
0.1916236
0.1934776
0.1860979
0.1868663
0.187436
0.1877614
0.1878045
0.1873568
0.1875646
0.1878963
0.1893395
0.1836081
0.1843446
0.1849003
0.1852413
0.1853145
0.1849464
0.1850972
0.1851432
0.1852873
0.1864481
0.1819836
0.1827147
0.1832836
0.1836572
0.183798
0.1835322
0.183785
0.1838598
0.1838161
0.1838558
0.1848088
0.2131981
0.2153194
0.2173385
0.2191732
0.2207356
0.2220195
0.2231638
0.225936
0.2111414
0.2131936
0.2151522
0.2169294
0.218449
0.2196331
0.2205307
0.2213342
0.224064
0.2092044
0.2111984
0.2131089
0.2148459
0.2163271
0.2174953
0.2182943
0.2188444
0.2194003
0.2221174
0.2073325
0.2092668
0.2111265
0.2128183
0.2142665
0.2154051
0.2162099
0.2166624
0.2169638
0.2174419
0.2199263
0.2054924
0.2073609
0.2091596
0.2107966
0.2121978
0.2133091
0.2140905
0.2145614
0.2147537
0.2149427
0.2155151
0.2185936
0.2036693
0.2054652
0.2071913
0.2087603
0.2101036
0.2111685
0.2119276
0.2123717
0.2125693
0.2126096
0.2128357
0.2139955
0.2169076
0.2018638
0.2035812
0.2052248
0.2067151
0.207989
0.2089988
0.2097116
0.2101265
0.2102661
0.2102535
0.2102557
0.2109605
0.2119807
0.2147084
0.2000893
0.2017247
0.20328
0.2046859
0.2058856
0.2068326
0.2074934
0.2078474
0.2079119
0.2077452
0.207567
0.20796
0.2084672
0.2092908
0.211817
0.1983687
0.199923
0.2013912
0.2027151
0.2038434
0.2047309
0.2053373
0.2056278
0.2055691
0.2051643
0.2045493
0.2046639
0.2048001
0.205084
0.2057031
0.2078133
0.1967321
0.1982138
0.1996072
0.2008626
0.2019328
0.2027735
0.2033406
0.2035813
0.2034131
0.2026543
0.2008283
0.2005046
0.2004301
0.2004484
0.2006017
0.2008653
0.2037189
0.1933477
0.1941714
0.1947314
0.1950904
0.1952343
0.1950971
0.1959991
0.1983339
0.1885841
0.1894373
0.1900848
0.1905003
0.1906656
0.1903823
0.1908023
0.1913778
0.1932024
0.185159
0.1859587
0.1865787
0.186991
0.1871475
0.1868803
0.1871537
0.1873443
0.1876541
0.1890704
0.1827215
0.1834829
0.1840837
0.1844919
0.184672
0.184451
0.1847578
0.1848943
0.1849232
0.185046
0.1861253
0.1811149
0.1818655
0.1824685
0.182898
0.1831193
0.1829826
0.1833549
0.1835955
0.1836561
0.1835954
0.183563
0.1844812
0.2110524
0.213073
0.2149933
0.2167341
0.2182206
0.2193712
0.2202151
0.2209166
0.2236118
0.2090883
0.2110482
0.2129145
0.2146071
0.216047
0.2171725
0.2179123
0.218348
0.218681
0.2211498
0.2072338
0.2091427
0.210968
0.2126242
0.2140385
0.2151425
0.2159019
0.216277
0.2164358
0.2166811
0.2189729
0.2054379
0.2072935
0.2090743
0.2106924
0.2120754
0.2131683
0.2139265
0.2143611
0.2144911
0.2145838
0.2150391
0.218076
0.2036693
0.2054652
0.2071913
0.2087603
0.2101036
0.2111685
0.2119276
0.2123717
0.2125693
0.2126096
0.2128357
0.2139955
0.2169076
0.2019141
0.2036432
0.2053029
0.2068102
0.2081002
0.2091262
0.209859
0.2103047
0.2104961
0.2105631
0.2106648
0.2114532
0.2125568
0.2153226
0.2001732
0.2018295
0.2034127
0.2048472
0.2060735
0.207047
0.2077413
0.2081502
0.2083142
0.2083161
0.2083621
0.20893
0.2096118
0.2105975
0.2132096
0.1984597
0.2000393
0.20154
0.2028957
0.2040527
0.2049681
0.2056107
0.2059669
0.2060469
0.2059274
0.2057852
0.2062121
0.2066184
0.2071432
0.2079749
0.2102284
0.1967962
0.1982994
0.1997183
0.200997
0.2020872
0.2029464
0.2035378
0.2038291
0.2037958
0.2034351
0.2028992
0.2030479
0.2032497
0.2034753
0.2038392
0.2043371
0.2074914
0.1952119
0.1966467
0.197995
0.1992093
0.2002448
0.2010599
0.2016134
0.2018568
0.2017128
0.2010161
0.199312
0.199066
0.1990553
0.1991677
0.199305
0.1993764
0.2005912
0.2034066
0.1921399
0.1929826
0.1935958
0.1940201
0.1942756
0.1941806
0.1948641
0.195743
0.1980444
0.1875358
0.1884107
0.1890973
0.1895867
0.1898469
0.1897224
0.1901751
0.1905776
0.1911306
0.1929255
0.1842074
0.185026
0.1856845
0.1861557
0.1864094
0.1862762
0.18669
0.186949
0.1871222
0.1874101
0.1887423
0.1818232
0.1826015
0.1832334
0.1836942
0.1839505
0.1838537
0.1842731
0.1845676
0.1846898
0.1847015
0.1847517
0.1857951
0.1802382
0.1810016
0.1816296
0.1820998
0.182385
0.1823438
0.1828146
0.1831761
0.1834044
0.1834507
0.183326
0.1832637
0.1842322
0.2090035
0.2109335
0.212764
0.2144226
0.2158325
0.2169282
0.2176266
0.2179695
0.2180741
0.2200691
0.2071228
0.2089995
0.2107832
0.212398
0.213774
0.2148398
0.2155476
0.2158271
0.215779
0.2156096
0.2173248
0.2053434
0.2071748
0.2089232
0.2105079
0.2118592
0.2129202
0.2136375
0.214004
0.2140077
0.2138835
0.2140515
0.2169488
0.203617
0.2054006
0.2071097
0.2086609
0.2099871
0.2110347
0.2117726
0.2121834
0.2123252
0.2122781
0.2123949
0.2134646
0.216333
0.2019141
0.2036432
0.2053029
0.2068102
0.2081002
0.2091262
0.209859
0.2103047
0.2104961
0.2105631
0.2106648
0.2114532
0.2125568
0.2153226
0.2002216
0.2018891
0.2034877
0.2049382
0.2061799
0.2071687
0.2078819
0.2083199
0.2085322
0.2086083
0.2087453
0.209388
0.2101473
0.2112062
0.2138445
0.1985406
0.2001402
0.2016676
0.2030506
0.204233
0.2051736
0.2058479
0.2062561
0.2064301
0.206469
0.2065357
0.2071223
0.2076842
0.2083584
0.2093221
0.2116238
0.1968841
0.1984116
0.1998616
0.2011708
0.2022883
0.203174
0.2037999
0.2041538
0.2042523
0.2041618
0.2040715
0.2045093
0.2049571
0.2053948
0.2059517
0.206619
0.2099056
0.1952739
0.1967293
0.1981021
0.1993388
0.2003934
0.2012261
0.2018028
0.2020947
0.2020792
0.2017617
0.2012823
0.2014774
0.2017161
0.2020103
0.2023245
0.2026043
0.2040599
0.2071716
0.1937386
0.1951293
0.1964355
0.1976114
0.1986145
0.1994054
0.1999458
0.2001904
0.2000678
0.1994217
0.1978287
0.1976369
0.1976937
0.1978664
0.1980982
0.1981726
0.1991277
0.2003189
0.2030963
0.1909353
0.1917919
0.1924358
0.1929225
0.1932529
0.1932902
0.1939649
0.1946308
0.1954863
0.1977546
0.1864846
0.1873702
0.1880866
0.188624
0.188968
0.1889582
0.1895285
0.1899667
0.1903514
0.1908818
0.1925885
0.1832495
0.18408
0.1847639
0.1852811
0.1856028
0.185584
0.1860967
0.1864982
0.1867427
0.1868984
0.1871126
0.1884066
0.1809192
0.1817081
0.1823625
0.1828611
0.1831778
0.1831723
0.1836851
0.1840937
0.1843758
0.1844836
0.184431
0.1844507
0.1855441
0.1793579
0.1801292
0.1807751
0.1812764
0.1816092
0.1816452
0.182184
0.1826452
0.1829958
0.1832117
0.1832001
0.1830507
0.1830363
0.1840634
0.2070417
0.2088903
0.2106401
0.212223
0.2135711
0.2146105
0.2152819
0.2154853
0.2152297
0.2144595
0.2142142
0.2052371
0.2070381
0.2087471
0.2102927
0.2116083
0.212634
0.2133051
0.2135859
0.2134068
0.2128994
0.2124264
0.2149491
0.2035263
0.205287
0.2069654
0.208485
0.2097814
0.2107992
0.2114993
0.2118476
0.211875
0.2116312
0.2114812
0.2123394
0.215073
0.2018638
0.2035812
0.2052248
0.2067151
0.207989
0.2089988
0.2097116
0.2101265
0.2102661
0.2102535
0.2102557
0.2109605
0.2119807
0.2147084
0.2002216
0.2018891
0.2034877
0.2049382
0.2061799
0.2071687
0.2078819
0.2083199
0.2085322
0.2086083
0.2087453
0.209388
0.2101473
0.2112062
0.2138445
0.1985872
0.2001975
0.2017397
0.203138
0.2043349
0.2052901
0.2059823
0.2064181
0.2066378
0.2067461
0.2068974
0.2075517
0.2081827
0.208925
0.2099494
0.2122601
0.1969621
0.1985088
0.1999844
0.2013196
0.2024614
0.2033712
0.2040273
0.2044307
0.2046184
0.2046775
0.2047834
0.2053686
0.2059577
0.2065274
0.2072066
0.2079758
0.2113011
0.1953587
0.1968376
0.1982403
0.1995062
0.2005869
0.201445
0.2020546
0.2024063
0.2025164
0.2024557
0.2023981
0.2028636
0.2033279
0.2038133
0.2042951
0.2047302
0.2063434
0.2095844
0.1937985
0.1952092
0.1965389
0.1977363
0.1987577
0.1995655
0.2001281
0.2004191
0.2004194
0.2001353
0.1997088
0.199931
0.2002165
0.2005492
0.2009346
0.2011851
0.2023537
0.2037844
0.206854
0.1923092
0.1936587
0.1949252
0.1960652
0.1970378
0.1978061
0.1983337
0.1985787
0.198474
0.1978731
0.1963745
0.1962313
0.1963327
0.1965683
0.1968596
0.1970401
0.1979428
0.1988806
0.2000482
0.2027881
0.1897415
0.1906028
0.1912708
0.1917962
0.1921964
0.192325
0.1930885
0.1937489
0.194397
0.1952293
0.1974034
0.1854353
0.1863259
0.1870605
0.1876354
0.1880361
0.1881266
0.1887755
0.1893333
0.189757
0.1901239
0.1905788
0.1922436
0.1822905
0.1831272
0.1838289
0.1843783
0.1847539
0.1848181
0.185414
0.1859158
0.1863048
0.1865349
0.1866255
0.1868083
0.1881514
0.1800136
0.1808085
0.1814786
0.1820057
0.1823673
0.1824357
0.183012
0.1835151
0.1839127
0.1841824
0.1842321
0.1841545
0.1842222
0.1853739
0.1784773
0.1792529
0.1799115
0.180436
0.1808063
0.1809019
0.1814928
0.1820228
0.1824743
0.182814
0.1829766
0.182944
0.1828417
0.1828823
0.1839772
0.2041632
0.2051595
0.2069336
0.2086107
0.2101263
0.2114158
0.212417
0.2130556
0.2132673
0.2129048
0.2118445
0.2095565
0.2112897
0.2034243
0.205156
0.206797
0.2082797
0.2095426
0.2105274
0.2111845
0.2114545
0.2113142
0.2107214
0.2099794
0.2104252
0.2128442
0.2017767
0.2034723
0.2050865
0.2065469
0.2077926
0.2087743
0.2094518
0.2098084
0.2098419
0.2096485
0.2094076
0.2099174
0.2107479
0.2133604
0.2001732
0.2018295
0.2034127
0.2048472
0.2060735
0.207047
0.2077413
0.2081502
0.2083142
0.2083161
0.2083621
0.20893
0.2096118
0.2105975
0.2132096
0.1985872
0.2001975
0.2017397
0.203138
0.2043349
0.2052901
0.2059823
0.2064181
0.2066378
0.2067461
0.2068974
0.2075517
0.2081827
0.208925
0.2099494
0.2122601
0.1970071
0.1985641
0.2000538
0.2014037
0.2025594
0.203483
0.2041562
0.2045857
0.2048167
0.2049415
0.2051265
0.2057741
0.2064255
0.2070555
0.2077916
0.2086078
0.2119376
0.1954342
0.1969315
0.1983587
0.1996496
0.2007535
0.2016345
0.2022731
0.2026718
0.2028669
0.2029482
0.2030758
0.2036786
0.2042726
0.2048769
0.2054657
0.2059967
0.2077019
0.2109797
0.1938806
0.1953139
0.1966723
0.1978977
0.1989442
0.1997762
0.2003704
0.2007186
0.2008389
0.2007996
0.2007741
0.2012502
0.2017452
0.2022513
0.202786
0.2031697
0.204482
0.2060692
0.2092648
0.1923673
0.193736
0.1950252
0.1961858
0.197176
0.1979604
0.1985093
0.1987989
0.198812
0.1985574
0.198173
0.1984205
0.1987328
0.1991121
0.1995369
0.1998708
0.2009539
0.2021048
0.2035107
0.2065386
0.1909214
0.1922319
0.1934612
0.1945673
0.1955114
0.1962581
0.1967735
0.1970182
0.1969292
0.1963677
0.1949534
0.1948475
0.194988
0.1952635
0.1956155
0.1958639
0.1968253
0.1977144
0.198635
0.1997791
0.2024176
0.1885616
0.1894232
0.1901048
0.1906612
0.1911064
0.1913184
0.1921352
0.1928865
0.1935325
0.1941629
0.1949176
0.1970439
0.184392
0.185283
0.1860293
0.1866293
0.187075
0.1872365
0.1879536
0.1885916
0.189137
0.189546
0.1898469
0.1902691
0.1919814
0.181334
0.1821729
0.1828862
0.1834595
0.1838744
0.1840057
0.1846565
0.1852427
0.1857335
0.18611
0.1862813
0.1863465
0.1865772
0.1879783
0.1791096
0.179907
0.1805879
0.1811362
0.1815327
0.1816578
0.1822827
0.1828503
0.1833436
0.1837303
0.1839465
0.183975
0.1839446
0.1840673
0.185287
0.177599
0.1783761
0.1790433
0.1795855
0.1799848
0.1801285
0.1807562
0.1813391
0.1818603
0.1823019
0.1825921
0.1827364
0.1827498
0.1827003
0.1828038
0.1979894
0.2008441
0.2035316
0.2033499
0.205056
0.2066666
0.2081209
0.2093593
0.2103213
0.210948
0.2111549
0.2108444
0.2097447
0.2073287
0.2070908
0.2090152
0.2016786
0.2033466
0.2049252
0.2063506
0.2075646
0.2085153
0.2091524
0.2094355
0.2093132
0.2087961
0.2080121
0.2081451
0.2086427
0.2110006
0.2000893
0.2017247
0.20328
0.2046859
0.2058856
0.2068326
0.2074934
0.2078474
0.2079119
0.2077452
0.207567
0.20796
0.2084672
0.2092908
0.211817
0.1985406
0.2001402
0.2016676
0.2030506
0.204233
0.2051736
0.2058479
0.2062561
0.2064301
0.206469
0.2065357
0.2071223
0.2076842
0.2083584
0.2093221
0.2116238
0.1970071
0.1985641
0.2000538
0.2014037
0.2025594
0.203483
0.2041562
0.2045857
0.2048167
0.2049415
0.2051265
0.2057741
0.2064255
0.2070555
0.2077916
0.2086078
0.2119376
0.1954777
0.1969848
0.1984256
0.1997305
0.2008477
0.2017421
0.2023969
0.2028206
0.2030568
0.2032002
0.2034025
0.2040633
0.2047143
0.2053728
0.2060113
0.2065874
0.2083346
0.2116161
0.1939537
0.1954046
0.1967866
0.198036
0.1991047
0.1999587
0.2005805
0.2009738
0.2011751
0.2012711
0.2014212
0.2020261
0.2026413
0.2032557
0.2038857
0.2043521
0.2057506
0.207429
0.2106595
0.1924468
0.1938373
0.1951541
0.1963417
0.197356
0.1981636
0.1987428
0.1990871
0.1992152
0.1991946
0.1991922
0.1996797
0.2001876
0.2007264
0.2012849
0.201736
0.202941
0.204235
0.2057963
0.2089469
0.1909777
0.1923068
0.193558
0.194684
0.1956449
0.1964071
0.196943
0.1972304
0.1972545
0.1970251
0.1966775
0.1969415
0.1972782
0.1976835
0.1981542
0.1985363
0.1996549
0.2007243
0.2018576
0.2032388
0.2061594
0.1895726
0.1908465
0.1920407
0.193115
0.1940321
0.1947585
0.1952621
0.1955059
0.1954304
0.1949042
0.193565
0.1934906
0.1936592
0.1939688
0.1943584
0.1946736
0.1956618
0.196612
0.1974875
0.198391
0.1994554
0.2020385
0.187398
0.1882561
0.1889463
0.1895224
0.1900038
0.1902723
0.1911387
0.191945
0.1926842
0.1933158
0.193879
0.1945989
0.1967705
0.1833576
0.1842457
0.1849984
0.1856164
0.1860937
0.1863128
0.1870721
0.1877795
0.1884066
0.1889394
0.1892891
0.1895638
0.1900337
0.1918034
0.1803827
0.1812208
0.1819413
0.1825317
0.1829768
0.1831592
0.1838516
0.1844936
0.18507
0.1855499
0.1858724
0.1860223
0.1861348
0.1864206
0.1878898
0.1782094
0.1790068
0.1796946
0.1802587
0.1806821
0.1808529
0.1815116
0.1821285
0.1826873
0.1831708
0.1835078
0.1837056
0.18378
0.1838026
0.1839883
0.1767249
0.1775013
0.178174
0.1787293
0.1791515
0.1793342
0.1799889
0.1806092
0.181184
0.1816964
0.1820917
0.1823656
0.1825543
0.1826183
0.1826282
0.1937153
0.1954075
0.1976832
0.1992876
0.2003018
0.2025906
0.2016071
0.2032506
0.2048003
0.2061987
0.2073896
0.2083187
0.2089275
0.2091512
0.2088705
0.20788
0.205546
0.2050615
0.2051612
0.207154
0.1999949
0.2016039
0.2031252
0.2044978
0.2056673
0.206585
0.2072076
0.2074924
0.2074103
0.2069408
0.2062576
0.2063107
0.2065152
0.2070732
0.2094002
0.1984597
0.2000393
0.20154
0.2028957
0.2040527
0.2049681
0.2056107
0.2059669
0.2060469
0.2059274
0.2057852
0.2062121
0.2066184
0.2071432
0.2079749
0.2102284
0.1969621
0.1985088
0.1999844
0.2013196
0.2024614
0.2033712
0.2040273
0.2044307
0.2046184
0.2046775
0.2047834
0.2053686
0.2059577
0.2065274
0.2072066
0.2079758
0.2113011
0.1954777
0.1969848
0.1984256
0.1997305
0.2008477
0.2017421
0.2023969
0.2028206
0.2030568
0.2032002
0.2034025
0.2040633
0.2047143
0.2053728
0.2060113
0.2065874
0.2083346
0.2116161
0.1939957
0.1954561
0.1968512
0.1981141
0.1991955
0.2000622
0.2006996
0.2011167
0.2013573
0.2015124
0.2017331
0.2023922
0.2030603
0.2037239
0.2043983
0.2049035
0.2063423
0.2080624
0.2112956
0.1925176
0.193925
0.1952647
0.1964753
0.1975108
0.1983395
0.1989452
0.1993328
0.1995384
0.1996469
0.1998115
0.2004204
0.2010406
0.2016792
0.2023234
0.2028472
0.2041255
0.2055054
0.2071571
0.2103405
0.1910548
0.1924048
0.1936828
0.1948347
0.1958188
0.1966033
0.1971683
0.1975083
0.1976426
0.1976374
0.1976548
0.1981462
0.1986667
0.1992198
0.1998122
0.2002976
0.2015226
0.2027135
0.2039894
0.2055248
0.2085641
0.1896272
0.1909191
0.1921344
0.1932279
0.1941612
0.1949026
0.1954259
0.1957107
0.1957439
0.1955368
0.1952207
0.1954977
0.1958498
0.1962781
0.1967737
0.1972079
0.1983332
0.1994406
0.2004962
0.201612
0.2029119
0.2057713
0.1882609
0.1894999
0.1906611
0.1917053
0.192597
0.1933042
0.1937965
0.1940389
0.1939753
0.1934806
0.1922093
0.1921609
0.1923523
0.1926852
0.1931062
0.1934638
0.1944824
0.1954611
0.1964
0.197262
0.1980975
0.1991244
0.2017501
0.1862521
0.1871044
0.1877986
0.1883885
0.1888943
0.1892091
0.1901017
0.1909587
0.1917544
0.1924815
0.1930531
0.1935889
0.1943567
0.196585
0.1823339
0.1832167
0.1839722
0.1846022
0.1851034
0.1853654
0.1861561
0.1869066
0.1876044
0.1882205
0.1886989
0.1890266
0.1893488
0.1898742
0.1917125
0.1794385
0.1802736
0.1809978
0.1816005
0.1820684
0.1822916
0.1830119
0.1836963
0.1843295
0.184896
0.1853258
0.1856298
0.1858257
0.1859914
0.1863407
0.1773148
0.1781102
0.178802
0.1793776
0.1798221
0.1800296
0.1807128
0.1813641
0.1819731
0.1825229
0.1829599
0.1832805
0.1835228
0.1836481
0.1837302
0.1758562
0.1766305
0.1773062
0.1778712
0.1783115
0.178526
0.1792001
0.179848
0.1804609
0.1810277
0.1814964
0.181877
0.1821938
0.1824311
0.1825514
0.1909421
0.191613
0.1934757
0.1942629
0.1951372
0.1971131
0.198063
0.1987908
0.1994884
0.2014961
0.199926
0.2015117
0.2030053
0.2043522
0.2054998
0.2063971
0.2069928
0.2072217
0.2069898
0.2060763
0.2039429
0.2034396
0.2032917
0.2035702
0.2055828
0.1983687
0.199923
0.2013912
0.2027151
0.2038434
0.2047309
0.2053373
0.2056278
0.2055691
0.2051643
0.2045493
0.2046639
0.2048001
0.205084
0.2057031
0.2078133
0.1968841
0.1984116
0.1998616
0.2011708
0.2022883
0.203174
0.2037999
0.2041538
0.2042523
0.2041618
0.2040715
0.2045093
0.2049571
0.2053948
0.2059517
0.206619
0.2099056
0.1954342
0.1969315
0.1983587
0.1996496
0.2007535
0.2016345
0.2022731
0.2026718
0.2028669
0.2029482
0.2030758
0.2036786
0.2042726
0.2048769
0.2054657
0.2059967
0.2077019
0.2109797
0.1939957
0.1954561
0.1968512
0.1981141
0.1991955
0.2000622
0.2006996
0.2011167
0.2013573
0.2015124
0.2017331
0.2023922
0.2030603
0.2037239
0.2043983
0.2049035
0.2063423
0.2080624
0.2112956
0.1925583
0.1939749
0.1953271
0.1965507
0.1975984
0.1984393
0.1990599
0.1994703
0.1997134
0.1998784
0.2001101
0.20077
0.2014394
0.2021234
0.2028075
0.2033654
0.204678
0.206098
0.2077911
0.2109762
0.1911234
0.1924898
0.1937897
0.1949638
0.1959684
0.1967732
0.1973635
0.197745
0.1979537
0.198072
0.1982487
0.198855
0.199481
0.2001266
0.2007974
0.2013471
0.2026359
0.2038999
0.2052613
0.2068863
0.209956
0.1897021
0.1910141
0.1922552
0.1933738
0.1943294
0.1950922
0.1956434
0.1959789
0.196118
0.196126
0.1961595
0.1966528
0.1971782
0.1977444
0.1983515
0.1988786
0.200097
0.2013104
0.2024873
0.203745
0.2051979
0.2081724
0.1883139
0.1895703
0.190752
0.1918147
0.1927221
0.1934436
0.1939549
0.1942369
0.194278
0.1940902
0.1938018
0.1940883
0.194452
0.1948941
0.1954111
0.1958751
0.1970159
0.1981316
0.1992277
0.2002697
0.2013167
0.2025775
0.2054761
0.1869837
0.1881902
0.18932
0.190336
0.1912036
0.1918926
0.192374
0.1926148
0.1925617
0.1920954
0.1908854
0.1908593
0.1910685
0.1914195
0.1918611
0.192254
0.1932823
0.1942925
0.1952616
0.1961893
0.1969909
0.1977975
0.1988729
0.2015544
0.1851248
0.1859695
0.1866646
0.1872634
0.1877871
0.188135
0.1890464
0.1899307
0.1907785
0.1915636
0.1922358
0.1927846
0.1933686
0.1941925
0.1964901
0.1813222
0.1821981
0.1829534
0.1835913
0.18411
0.1844058
0.1852156
0.1859984
0.1867402
0.1874282
0.1879939
0.1884532
0.1888274
0.1892032
0.1897928
0.1785027
0.1793331
0.1800586
0.1806697
0.1811551
0.1814109
0.1821506
0.1828634
0.1835398
0.1841641
0.1846838
0.1850971
0.1854457
0.1856927
0.1859183
0.176427
0.1772189
0.1779125
0.1784963
0.1789572
0.1791947
0.1798951
0.1805716
0.1812155
0.1818163
0.1823224
0.1827446
0.1831082
0.1833992
0.1835809
0.1749941
0.1757649
0.1764418
0.1770139
0.1774683
0.1777091
0.1783971
0.1790649
0.179706
0.1803115
0.180837
0.1812923
0.1817143
0.1820778
0.1823685
0.189569
0.18914
0.19072
0.1907526
0.1913973
0.1930045
0.1933847
0.1940156
0.1946321
0.1963231
0.1969228
0.1976024
0.1980466
0.1985348
0.2003228
0.1983023
0.1998342
0.2012759
0.2025753
0.2036827
0.2045509
0.2051318
0.205369
0.2051687
0.204344
0.2023652
0.2019686
0.2017971
0.2018368
0.2022152
0.2040333
0.1967962
0.1982994
0.1997183
0.200997
0.2020872
0.2029464
0.2035378
0.2038291
0.2037958
0.2034351
0.2028992
0.2030479
0.2032497
0.2034753
0.2038392
0.2043371
0.2074914
0.1953587
0.1968376
0.1982403
0.1995062
0.2005869
0.201445
0.2020546
0.2024063
0.2025164
0.2024557
0.2023981
0.2028636
0.2033279
0.2038133
0.2042951
0.2047302
0.2063434
0.2095844
0.1939537
0.1954046
0.1967866
0.198036
0.1991047
0.1999587
0.2005805
0.2009738
0.2011751
0.2012711
0.2014212
0.2020261
0.2026413
0.2032557
0.2038857
0.2043521
0.2057506
0.207429
0.2106595
0.1925583
0.1939749
0.1953271
0.1965507
0.1975984
0.1984393
0.1990599
0.1994703
0.1997134
0.1998784
0.2001101
0.20077
0.2014394
0.2021234
0.2028075
0.2033654
0.204678
0.206098
0.2077911
0.2109762
0.1911629
0.1925382
0.1938501
0.1950367
0.196053
0.1968695
0.1974742
0.1978776
0.1981222
0.1982944
0.198535
0.1991896
0.1998618
0.2005495
0.2012566
0.2018366
0.2031552
0.2044534
0.2058546
0.2075207
0.2105908
0.1897686
0.1910965
0.1923588
0.1934987
0.194474
0.1952563
0.195832