/*--------------------------------*- C++ -*----------------------------------*\
| =========                 |                                                 |
| \\      /  F ield         | OpenFOAM: The Open Source CFD Toolbox           |
|  \\    /   O peration     | Version:  2306                                  |
|   \\  /    A nd           | Website:  www.openfoam.com                      |
|    \\/     M anipulation  |                                                 |
\*---------------------------------------------------------------------------*/
FoamFile
{
    version     2.0;
    format      ascii;
    arch        "LSB;label=32;scalar=64";
    class       volScalarField;
    location    "1.5/air";
    object      T;
}
// * * * * * * * * * * * * * * * * * * * * * * * * * * * * * * * * * * * * * //

dimensions      [0 0 0 1 0 0 0];

internalField   nonuniform List<scalar> 
16000
(
1195.683
1182.516
1210.989
1182.282
1175.199
1207.883
1150.254
1214.853
1207.832
1174.759
1171.03
1205.196
1130.255
1213.666
1198.669
1129.923
1217.932
1213.722
1205.088
1170.344
1169.091
1203.219
1118.249
1212.605
1190.632
1099.867
1217.397
1210.247
1190.505
1117.359
1220.63
1217.493
1212.702
1203.027
1168.074
1169.091
1202.171
1112.552
1211.795
1184.671
1081
1216.934
1207.082
1177.492
1080.246
1220.342
1215.992
1207.116
1184.307
1110.783
1223.064
1220.445
1217.108
1211.928
1201.868
1167.622
1210.697
1171.03
1202.171
1112.552
1211.355
1181.501
1071.823
1216.586
1204.639
1167.721
1056.233
1220.105
1214.648
1201.943
1167.382
1069.722
1222.877
1219.684
1214.743
1204.689
1180.782
1109.527
1225.292
1222.976
1220.294
1216.839
1211.529
1201.748
1168.962
1210.62
1213.737
1212.605
1175.199
1203.219
1118.249
1211.355
1181.501
1071.823
1216.397
1203.304
1162.488
1044.348
1219.933
1213.618
1197.902
1154.537
1042.711
1222.731
1219.027
1212.581
1197.9
1161.573
1067.691
1225.148
1222.51
1219.137
1213.828
1203.374
1180.363
1113.549
1227.347
1225.239
1222.911
1220.211
1216.747
1211.595
1202.711
1172.342
1210.45
1213.728
1212.492
1216.708
1215.481
1214.524
1182.516
1205.196
1130.255
1211.795
1184.671
1081
1216.397
1203.304
1162.488
1044.348
1219.842
1213.056
1195.679
1147.611
1029.209
1222.629
1218.537
1210.9
1192.544
1146.896
1040.069
1225.041
1222.123
1218.112
1211.033
1195.663
1160.836
1074.147
1227.225
1224.896
1222.23
1218.789
1213.429
1203.453
1183.174
1123.383
1229.25
1227.306
1225.206
1222.896
1220.228
1216.875
1212.163
1204.721
1178.528
1210.118
1213.715
1212.222
1216.715
1215.474
1214.382
1219.412
1218.239
1217.226
1216.461
1195.683
1207.883
1150.254
1212.605
1190.632
1099.867
1216.586
1204.639
1167.721
1056.233
1219.842
1213.056
1195.679
1147.611
1029.209
1222.576
1218.275
1209.976
1189.58
1138.949
1026.231
1224.967
1221.845
1217.336
1208.834
1189.537
1145.886
1048.362
1227.135
1224.62
1221.65
1217.506
1210.314
1195.713
1165.371
1089.619
1229.141
1227.021
1224.718
1222.092
1218.725
1213.679
1205.014
1189.039
1140.513
1231.02
1229.215
1227.284
1225.212
1222.947
1220.367
1217.249
1213.225
1207.72
1189.718
1209.185
1213.712
1211.639
1216.735
1215.464
1214.037
1219.423
1218.257
1217.219
1216.299
1221.881
1220.747
1219.767
1218.971
1218.419
1210.989
1182.282
1213.666
1198.669
1129.923
1216.934
1207.082
1177.492
1080.246
1219.933
1213.618
1197.902
1154.537
1042.711
1222.576
1218.275
1209.976
1189.58
1138.949
1026.231
1224.93
1221.699
1216.915
1207.615
1186.134
1137.781
1035.511
1227.075
1224.427
1221.224
1216.52
1207.839
1189.543
1151.769
1067.972
1229.062
1226.795
1224.316
1221.395
1217.35
1210.645
1198.182
1174.785
1115.501
1230.921
1228.962
1226.885
1224.656
1222.143
1219.013
1214.637
1207.965
1197.526
1168.455
1232.671
1230.988
1229.197
1227.297
1225.271
1223.08
1220.648
1217.888
1214.804
1211.849
1202.557
1213.831
1210.118
1216.798
1215.479
1213.303
1219.452
1218.307
1217.209
1215.908
1221.892
1220.771
1219.793
1218.963
1218.247
1224.15
1223.046
1222.077
1221.291
1220.716
1219.467
1214.853
1207.832
1174.759
1217.397
1210.247
1190.505
1117.359
1220.105
1214.648
1201.943
1167.382
1069.722
1222.629
1218.537
1210.9
1192.544
1146.896
1040.069
1224.93
1221.699
1216.915
1207.615
1186.134
1137.781
1035.511
1227.045
1224.327
1220.999
1215.981
1206.46
1186.107
1144.405
1057.31
1229.009
1226.64
1224.031
1220.876
1216.278
1208.214
1192.717
1163.932
1099.9
1230.849
1228.763
1226.562
1224.19
1221.435
1217.749
1212.104
1202.837
1188.129
1154.921
1232.579
1230.756
1228.844
1226.849
1224.74
1222.424
1219.697
1216.3
1212.111
1208.058
1194.505
1234.213
1232.64
1230.971
1229.21
1227.354
1225.393
1223.311
1221.101
1218.871
1217.224
1215.45
1204.984
1217.098
1215.64
1211.616
1219.529
1218.446
1217.222
1215.11
1221.922
1220.835
1219.864
1218.951
1217.838
1224.161
1223.071
1222.111
1221.322
1220.708
1219.293
1226.249
1225.173
1224.207
1223.401
1222.809
1221.64
1219.579
1217.932
1213.722
1205.088
1170.344
1220.342
1215.992
1207.116
1184.307
1110.783
1222.731
1219.027
1212.581
1197.9
1161.573
1067.691
1224.967
1221.845
1217.336
1208.834
1189.537
1145.886
1048.362
1227.045
1224.327
1220.999
1215.981
1206.46
1186.107
1144.405
1057.31
1228.983
1226.561
1223.882
1220.599
1215.688
1206.853
1189.67
1158.07
1092.326
1230.801
1228.627
1226.337
1223.855
1220.899
1216.747
1210.045
1198.692
1180.943
1146.534
1232.512
1230.575
1228.561
1226.482
1224.289
1221.828
1218.756
1214.621
1209.164
1203.998
1188.104
1234.128
1232.425
1230.648
1228.816
1226.937
1224.999
1222.969
1220.809
1218.66
1217.326
1214.664
1198.663
1235.657
1234.183
1232.623
1230.982
1229.262
1227.464
1225.593
1223.671
1221.818
1220.577
1219.966
1216.476
1207.581
1219.857
1218.919
1217.339
1213.478
1221.998
1221
1220.039
1218.947
1217.043
1224.19
1223.136
1222.201
1221.403
1220.69
1218.888
1226.259
1225.197
1224.243
1223.443
1222.843
1221.631
1219.406
1228.198
1227.153
1226.193
1225.363
1224.718
1223.608
1221.739
1219.693
1220.63
1217.493
1212.702
1203.027
1168.074
1222.877
1219.684
1214.743
1204.689
1180.782
1109.527
1225.041
1222.123
1218.112
1211.033
1195.663
1160.836
1074.147
1227.075
1224.427
1221.224
1216.52
1207.839
1189.543
1151.769
1067.972
1228.983
1226.561
1223.882
1220.599
1215.688
1206.853
1189.67
1158.07
1092.326
1230.777
1228.559
1226.221
1223.679
1220.61
1216.19
1208.883
1196.371
1177.057
1142.468
1232.468
1230.451
1228.366
1226.224
1223.96
1221.366
1217.981
1213.193
1206.667
1200.736
1183.793
1234.065
1232.257
1230.39
1228.497
1226.592
1224.654
1222.617
1220.374
1218.03
1216.56
1213.256
1193.359
1235.577
1233.983
1232.324
1230.622
1228.899
1227.172
1225.464
1223.824
1222.415
1221.821
1220.828
1215.94
1202.628
1237.009
1235.628
1234.167
1232.633
1231.029
1229.362
1227.641
1225.899
1224.251
1223.17
1222.852
1220.769
1217.731
1210.305
1222.312
1221.527
1220.516
1218.996
1215.575
1224.261
1223.299
1222.412
1221.583
1220.665
1218.117
1226.286
1225.259
1224.333
1223.546
1222.925
1221.61
1219.002
1228.208
1227.175
1226.227
1225.405
1224.764
1223.643
1221.73
1219.52
1230.015
1229.003
1228.054
1227.207
1226.511
1225.411
1223.694
1221.838
1219.806
1223.064
1220.445
1217.108
1211.928
1201.868
1167.622
1225.148
1222.51
1219.137
1213.828
1203.374
1180.363
1113.549
1227.135
1224.62
1221.65
1217.506
1210.314
1195.713
1165.371
1089.619
1229.009
1226.64
1224.031
1220.876
1216.278
1208.214
1192.717
1163.932
1099.9
1230.777
1228.559
1226.221
1223.679
1220.61
1216.19
1208.883
1196.371
1177.057
1142.468
1232.445
1230.389
1228.266
1226.091
1223.787
1221.112
1217.54
1212.369
1205.244
1198.939
1181.635
1234.024
1232.143
1230.213
1228.276
1226.347
1224.395
1222.317
1219.945
1217.348
1215.69
1211.977
1189.696
1235.519
1233.826
1232.085
1230.333
1228.603
1226.925
1225.32
1223.827
1222.578
1222.153
1220.946
1214.876
1198.315
1236.935
1235.44
1233.887
1232.299
1230.698
1229.113
1227.583
1226.18
1225.072
1224.687
1224.138
1221.565
1217.318
1206.466
1238.278
1236.982
1235.612
1234.175
1232.676
1231.12
1229.521
1227.912
1226.398
1225.393
1225.125
1223.524
1221.741
1219.122
1213.12
1224.549
1223.807
1222.96
1221.993
1220.641
1216.761
1226.351
1225.412
1224.544
1223.77
1223.09
1221.574
1218.234
1228.232
1227.233
1226.313
1225.511
1224.872
1223.723
1221.709
1219.116
1230.024
1229.023
1228.086
1227.248
1226.558
1225.457
1223.729
1221.829
1219.633
1231.711
1230.735
1229.803
1228.949
1228.213
1227.113
1225.485
1223.779
1221.938
1219.92
1225.292
1222.976
1220.294
1216.839
1211.529
1201.748
1168.962
1227.225
1224.896
1222.23
1218.789
1213.429
1203.453
1183.174
1123.383
1229.062
1226.795
1224.316
1221.395
1217.35
1210.645
1198.182
1174.785
1115.501
1230.801
1228.627
1226.337
1223.855
1220.899
1216.747
1210.045
1198.692
1180.943
1146.534
1232.445
1230.389
1228.266
1226.091
1223.787
1221.112
1217.54
1212.369
1205.244
1198.939
1181.635
1234.003
1232.085
1230.123
1228.162
1226.22
1224.255
1222.145
1219.683
1216.921
1215.148
1211.24
1187.842
1235.48
1233.72
1231.921
1230.132
1228.395
1226.744
1225.192
1223.758
1222.54
1222.149
1220.811
1213.877
1195.268
1236.88
1235.294
1233.664
1232.03
1230.429
1228.905
1227.51
1226.321
1225.486
1225.35
1224.725
1221.761
1216.509
1203.036
1238.208
1236.806
1235.35
1233.862
1232.367
1230.892
1229.482
1228.211
1227.233
1226.897
1226.456
1224.658
1222.402
1218.774
1210.217
1239.469
1238.252
1236.967
1235.619
1234.214
1232.759
1231.265
1229.765
1228.353
1227.397
1227.108
1225.705
1224.333
1222.804
1220.597
1214.639
1226.612
1225.88
1225.077
1224.259
1223.406
1221.514
1216.89
1228.292
1227.373
1226.511
1225.736
1225.085
1223.874
1221.672
1218.351
1230.046
1229.076
1228.166
1227.348
1226.669
1225.564
1223.809
1221.809
1219.23
1231.72
1230.754
1229.833
1228.988
1228.259
1227.161
1225.532
1223.815
1221.929
1219.747
1233.299
1232.36
1231.452
1230.599
1229.838
1228.741
1227.178
1225.559
1223.865
1222.037
1220.026
1227.347
1225.239
1222.911
1220.211
1216.747
1211.595
1202.711
1172.342
1229.141
1227.021
1224.718
1222.092
1218.725
1213.679
1205.014
1189.039
1140.513
1230.849
1228.763
1226.562
1224.19
1221.435
1217.749
1212.104
1202.837
1188.129
1154.921
1232.468
1230.451
1228.366
1226.224
1223.96
1221.366
1217.981
1213.193
1206.667
1200.736
1183.793
1234.003
1232.085
1230.123
1228.162
1226.22
1224.255
1222.145
1219.683
1216.921
1215.148
1211.24
1187.842
1235.461
1233.666
1231.838
1230.03
1228.288
1226.648
1225.117
1223.699
1222.475
1222.085
1220.684
1213.293
1193.709
1236.844
1235.194
1233.511
1231.844
1230.241
1228.755
1227.443
1226.37
1225.663
1225.631
1224.975
1221.715
1215.736
1200.566
1238.157
1236.669
1235.141
1233.611
1232.117
1230.704
1229.431
1228.383
1227.698
1227.627
1227.157
1225.233
1222.621
1218.156
1207.578
1239.404
1238.088
1236.721
1235.326
1233.924
1232.544
1231.228
1230.046
1229.137
1228.797
1228.366
1226.869
1225.268
1223.313
1220.284
1212.167
1240.587
1239.445
1238.238
1236.973
1235.655
1234.291
1232.892
1231.487
1230.163
1229.245
1228.92
1227.617
1226.401
1225.211
1223.915
1221.401
1214.802
1228.529
1227.8
1227.006
1226.219
1225.482
1224.135
1221.608
1217.019
1230.101
1229.205
1228.349
1227.561
1226.886
1225.763
1223.958
1221.769
1218.469
1231.74
1230.803
1229.908
1229.082
1228.366
1227.272
1225.638
1223.894
1221.908
1219.345
1233.307
1232.378
1231.479
1230.636
1229.881
1228.788
1227.226
1225.606
1223.9
1222.028
1219.854
1234.788
1233.888
1233.006
1232.164
1231.389
1230.304
1228.798
1227.243
1225.634
1223.951
1222.13
1220.11
1229.25
1227.306
1225.206
1222.896
1220.228
1216.875
1212.163
1204.721
1178.528
1230.921
1228.962
1226.885
1224.656
1222.143
1219.013
1214.637
1207.965
1197.526
1168.455
1232.512
1230.575
1228.561
1226.482
1224.289
1221.828
1218.756
1214.621
1209.164
1203.998
1188.104
1234.024
1232.143
1230.213
1228.276
1226.347
1224.395
1222.317
1219.945
1217.348
1215.69
1211.977
1189.696
1235.461
1233.666
1231.838
1230.03
1228.288
1226.648
1225.117
1223.699
1222.475
1222.085
1220.684
1213.293
1193.709
1236.826
1235.144
1233.433
1231.749
1230.145
1228.677
1227.402
1226.379
1225.722
1225.73
1225.062
1221.642
1215.28
1199.289
1238.124
1236.576
1234.998
1233.437
1231.943
1230.569
1229.382
1228.465
1227.932
1227.984
1227.517
1225.501
1222.631
1217.566
1205.645
1239.356
1237.959
1236.525
1235.09
1233.69
1232.368
1231.182
1230.214
1229.588
1229.5
1229.06
1227.53
1225.792
1223.518
1219.813
1209.907
1240.526
1239.291
1238.008
1236.698
1235.382
1234.087
1232.852
1231.742
1230.88
1230.524
1230.074
1228.716
1227.362
1225.945
1224.274
1221.1
1212.376
1241.637
1240.565
1239.431
1238.243
1237.006
1235.725
1234.413
1233.095
1231.849
1230.968
1230.611
1229.372
1228.227
1227.154
1226.125
1224.516
1221.488
1214.966
1230.316
1229.593
1228.802
1228.015
1227.288
1226.108
1224.214
1221.702
1217.15
1231.791
1230.922
1230.076
1229.28
1228.573
1227.478
1225.836
1224.042
1221.867
1218.588
1233.326
1232.424
1231.549
1230.724
1229.981
1228.895
1227.337
1225.712
1223.98
1222.007
1219.454
1234.795
1233.905
1233.032
1232.198
1231.43
1230.348
1228.845
1227.291
1225.68
1223.986
1222.121
1219.938
1236.185
1235.325
1234.473
1233.648
1232.871
1231.803
1230.354
1228.855
1227.308
1225.708
1224.031
1222.202
1220.176
1231.02
1229.215
1227.284
1225.212
1222.947
1220.367
1217.249
1213.225
1207.72
1189.718
1232.579
1230.756
1228.844
1226.849
1224.74
1222.424
1219.697
1216.3
1212.111
1208.058
1194.505
1234.065
1232.257
1230.39
1228.497
1226.592
1224.654
1222.617
1220.374
1218.03
1216.56
1213.256
1193.359
1235.48
1233.72
1231.921
1230.132
1228.395
1226.744
1225.192
1223.758
1222.54
1222.149
1220.811
1213.877
1195.268
1236.826
1235.144
1233.433
1231.749
1230.145
1228.677
1227.402
1226.379
1225.722
1225.73
1225.062
1221.642
1215.28
1199.289
1238.107
1236.529
1234.925
1233.349
1231.853
1230.499
1229.353
1228.495
1228.027
1228.131
1227.67
1225.603
1222.595
1217.217
1204.635
1239.324
1237.872
1236.391
1234.927
1233.526
1232.242
1231.139
1230.298
1229.824
1229.86
1229.437
1227.884
1226.055
1223.558
1219.374
1208.238
1240.481
1239.17
1237.824
1236.476
1235.162
1233.92
1232.806
1231.895
1231.296
1231.175
1230.724
1229.364
1227.953
1226.395
1224.445
1220.692
1210.157
1241.58
1240.42
1239.216
1237.985
1236.75
1235.533
1234.372
1233.324
1232.502
1232.131
1231.662
1230.38
1229.136
1227.914
1226.667
1224.799
1221.188
1212.585
1242.623
1241.616
1240.552
1239.436
1238.274
1237.071
1235.839
1234.6
1233.428
1232.582
1232.201
1231.015
1229.913
1228.886
1227.935
1226.616
1224.581
1221.575
1215.131
1231.988
1231.276
1230.491
1229.698
1228.955
1227.831
1226.175
1224.292
1221.796
1217.282
1233.373
1232.534
1231.704
1230.907
1230.176
1229.093
1227.541
1225.909
1224.126
1221.965
1218.701
1234.813
1233.947
1233.097
1232.28
1231.524
1230.449
1228.951
1227.401
1225.786
1224.065
1222.1
1219.538
1236.192
1235.341
1234.498
1233.68
1232.909
1231.845
1230.398
1228.902
1227.356
1225.754
1224.067
1222.193
1220.005
1237.498
1236.678
1235.859
1235.055
1234.284
1233.241
1231.848
1230.404
1228.912
1227.372
1225.777
1224.093
1222.259
1220.226
1232.671
1230.988
1229.197
1227.297
1225.271
1223.08
1220.648
1217.888
1214.804
1211.849
1202.557
1234.128
1232.425
1230.648
1228.816
1226.937
1224.999
1222.969
1220.809
1218.66
1217.326
1214.664
1198.663
1235.519
1233.826
1232.085
1230.333
1228.603
1226.925
1225.32
1223.827
1222.578
1222.153
1220.946
1214.876
1198.315
1236.844
1235.194
1233.511
1231.844
1230.241
1228.755
1227.443
1226.37
1225.663
1225.631
1224.975
1221.715
1215.736
1200.566
1238.107
1236.529
1234.925
1233.349
1231.853
1230.499
1229.353
1228.495
1228.027
1228.131
1227.67
1225.603
1222.595
1217.217
1204.635
1239.308
1237.828
1236.323
1234.844
1233.443
1232.177
1231.114
1230.331
1229.925
1230.014
1229.603
1228.038
1226.162
1223.549
1219.116
1207.361
1240.452
1239.088
1237.698
1236.323
1235.008
1233.802
1232.765
1231.973
1231.518
1231.514
1231.083
1229.727
1228.284
1226.637
1224.499
1220.322
1208.515
1241.538
1240.307
1239.044
1237.778
1236.542
1235.375
1234.325
1233.461
1232.882
1232.727
1232.259
1230.987
1229.714
1228.418
1227.031
1224.946
1220.786
1210.405
1242.569
1241.481
1240.35
1239.194
1238.033
1236.89
1235.797
1234.807
1234.023
1233.643
1233.159
1231.935
1230.75
1229.61
1228.507
1227.064
1224.855
1221.276
1212.793
1243.547
1242.604
1241.605
1240.557
1239.465
1238.335
1237.177
1236.013
1234.908
1234.099
1233.704
1232.567
1231.5
1230.497
1229.568
1228.354
1226.669
1224.646
1221.663
1215.296
1233.554
1232.858
1232.084
1231.292
1230.532
1229.433
1227.889
1226.241
1224.37
1221.891
1217.407
1234.857
1234.049
1233.241
1232.451
1231.706
1230.636
1229.149
1227.604
1225.981
1224.209
1222.057
1218.789
1236.209
1235.381
1234.558
1233.757
1232.997
1231.939
1230.499
1229.008
1227.466
1225.86
1224.145
1222.171
1219.606
1237.505
1236.693
1235.882
1235.085
1234.32
1233.28
1231.889
1230.448
1228.958
1227.42
1225.824
1224.127
1222.25
1220.055
1238.732
1237.953
1237.168
1236.389
1235.632
1234.617
1233.281
1231.892
1230.454
1228.968
1227.433
1225.829
1224.14
1222.3
1220.258
1209.185
1234.213
1232.64
1230.971
1229.21
1227.354
1225.393
1223.311
1221.101
1218.871
1217.224
1215.45
1204.984
1235.577
1233.983
1232.324
1230.622
1228.899
1227.172
1225.464
1223.824
1222.415
1221.821
1220.828
1215.94
1202.628
1236.88
1235.294
1233.664
1232.03
1230.429
1228.905
1227.51
1226.321
1225.486
1225.35
1224.725
1221.761
1216.509
1203.036
1238.124
1236.576
1234.998
1233.437
1231.943
1230.569
1229.382
1228.465
1227.932
1227.984
1227.517
1225.501
1222.631
1217.566
1205.645
1239.308
1237.828
1236.323
1234.844
1233.443
1232.177
1231.114
1230.331
1229.925
1230.014
1229.603
1228.038
1226.162
1223.549
1219.116
1207.361
1240.437
1239.047
1237.634
1236.245
1234.93
1233.74
1232.741
1232.004
1231.613
1231.661
1231.244
1229.89
1228.431
1226.74
1224.506
1220.105
1207.652
1241.51
1240.231
1238.925
1237.634
1236.398
1235.263
1234.284
1233.531
1233.085
1233.04
1232.593
1231.331
1230.049
1228.713
1227.242
1225.001
1220.423
1208.791
1242.53
1241.375
1240.189
1239
1237.839
1236.74
1235.75
1234.931
1234.37
1234.189
1233.707
1232.493
1231.291
1230.103
1228.916
1227.381
1225
1220.881
1210.652
1243.497
1242.477
1241.416
1240.331
1239.24
1238.164
1237.135
1236.201
1235.454
1235.071
1234.581
1233.406
1232.266
1231.168
1230.12
1228.834
1227.107
1224.912
1221.364
1213.001
1244.414
1243.53
1242.593
1241.61
1240.584
1239.522
1238.434
1237.339
1236.298
1235.527
1235.126
1234.036
1233.004
1232.022
1231.101
1229.934
1228.399
1226.722
1224.711
1221.751
1215.451
1235.024
1234.349
1233.591
1232.805
1232.036
1230.955
1229.484
1227.947
1226.308
1224.448
1221.979
1217.506
1236.25
1235.476
1234.693
1233.916
1233.167
1232.115
1230.685
1229.204
1227.667
1226.053
1224.288
1222.127
1218.86
1237.521
1236.731
1235.939
1235.157
1234.403
1233.369
1231.984
1230.549
1229.065
1227.53
1225.929
1224.206
1222.227
1219.657
1238.739
1237.967
1237.19
1236.418
1235.665
1234.654
1233.32
1231.934
1230.498
1229.015
1227.481
1225.876
1224.174
1222.29
1220.087
1239.893
1239.154
1238.405
1237.654
1236.915
1235.933
1234.653
1233.32
1231.937
1230.504
1229.021
1227.477
1225.868
1224.172
1222.325
1210.118
1213.831
1210.118
1235.657
1234.183
1232.623
1230.982
1229.262
1227.464
1225.593
1223.671
1221.818
1220.577
1219.966
1216.476
1207.581
1236.935
1235.44
1233.887
1232.299
1230.698
1229.113
1227.583
1226.18
1225.072
1224.687
1224.138
1221.565
1217.318
1206.466
1238.157
1236.669
1235.141
1233.611
1232.117
1230.704
1229.431
1228.383
1227.698
1227.627
1227.157
1225.233
1222.621
1218.156
1207.578
1239.324
1237.872
1236.391
1234.927
1233.526
1232.242
1231.139
1230.298
1229.824
1229.86
1229.437
1227.884
1226.055
1223.558
1219.374
1208.238
1240.437
1239.047
1237.634
1236.245
1234.93
1233.74
1232.741
1232.004
1231.613
1231.661
1231.244
1229.89
1228.431
1226.74
1224.506
1220.105
1207.652
1241.496
1240.192
1238.865
1237.561
1236.324
1235.204
1234.26
1233.559
1233.173
1233.176
1232.744
1231.488
1230.203
1228.849
1227.337
1225.014
1220.211
1207.942
1242.504
1241.304
1240.078
1238.865
1237.703
1236.634
1235.71
1234.993
1234.555
1234.476
1234.015
1232.813
1231.609
1230.401
1229.169
1227.572
1225.056
1220.525
1209.065
1243.46
1242.378
1241.265
1240.148
1239.057
1238.024
1237.09
1236.313
1235.772
1235.573
1235.085
1233.919
1232.765
1231.631
1230.523
1229.192
1227.419
1225.054
1220.976
1210.898
1244.367
1243.412
1242.416
1241.398
1240.373
1239.363
1238.394
1237.513
1236.802
1236.423
1235.932
1234.806
1233.705
1232.639
1231.617
1230.402
1228.87
1227.15
1224.969
1221.453
1213.195
1245.225
1244.398
1243.52
1242.598
1241.635
1240.638
1239.615
1238.585
1237.604
1236.872
1236.472
1235.43
1234.433
1233.474
1232.562
1231.424
1229.973
1228.444
1226.775
1224.776
1221.833
1215.577
1236.406
1235.754
1235.017
1234.244
1233.474
1232.413
1231
1229.534
1228.005
1226.374
1224.521
1222.046
1217.588
1237.559
1236.82
1236.065
1235.306
1234.562
1233.534
1232.159
1230.734
1229.259
1227.73
1226.121
1224.346
1222.182
1218.914
1238.754
1238.003
1237.244
1236.486
1235.744
1234.738
1233.409
1232.028
1230.599
1229.121
1227.59
1225.981
1224.252
1222.267
1219.69
1239.899
1239.167
1238.425
1237.682
1236.947
1235.968
1234.69
1233.36
1231.978
1230.548
1229.068
1227.525
1225.914
1224.207
1222.315
1240.985
1240.286
1239.573
1238.853
1238.136
1237.19
1235.966
1234.689
1233.36
1231.981
1230.551
1229.059
1227.509
1225.894
1224.19
1210.45
1213.712
1211.639
1217.098
1215.64
1211.616
1237.009
1235.628
1234.167
1232.633
1231.029
1229.362
1227.641
1225.899
1224.251
1223.17
1222.852
1220.769
1217.731
1210.305
1238.208
1236.806
1235.35
1233.862
1232.367
1230.892
1229.482
1228.211
1227.233
1226.897
1226.456
1224.658
1222.402
1218.774
1210.217
1239.356
1237.959
1236.525
1235.09
1233.69
1232.368
1231.182
1230.214
1229.588
1229.5
1229.06
1227.53
1225.792
1223.518
1219.813
1209.907
1240.452
1239.088
1237.698
1236.323
1235.008
1233.802
1232.765
1231.973
1231.518
1231.514
1231.083
1229.727
1228.284
1226.637
1224.499
1220.322
1208.515
1241.496
1240.192
1238.865
1237.561
1236.324
1235.204
1234.26
1233.559
1233.173
1233.176
1232.744
1231.488
1230.203
1228.849
1227.337
1225.014
1220.211
1207.942
1242.491
1241.267
1240.022
1238.797
1237.634
1236.579
1235.687
1235.017
1234.635
1234.602
1234.155
1232.96
1231.756
1230.541
1229.289
1227.661
1225.069
1220.317
1208.23
1243.436
1242.311
1241.161
1240.022
1238.93
1237.924
1237.052
1236.369
1235.942
1235.837
1235.369
1234.215
1233.061
1231.915
1230.779
1229.421
1227.608
1225.11
1220.627
1209.338
1244.332
1243.319
1242.276
1241.228
1240.203
1239.231
1238.351
1237.615
1237.095
1236.886
1236.398
1235.278
1234.165
1233.069
1232
1230.758
1229.222
1227.457
1225.109
1221.071
1211.127
1245.181
1244.288
1243.356
1242.401
1241.439
1240.489
1239.578
1238.747
1238.073
1237.702
1237.217
1236.139
1235.078
1234.043
1233.042
1231.866
1230.432
1228.905
1227.194
1225.027
1221.536
1213.357
1245.983
1245.211
1244.39
1243.525
1242.623
1241.686
1240.725
1239.757
1238.834
1238.139
1237.746
1236.751
1235.792
1234.86
1233.961
1232.851
1231.459
1230.012
1228.49
1226.828
1224.837
1221.895
1215.685
1237.704
1237.079
1236.366
1235.612
1234.85
1233.813
1232.454
1231.045
1229.585
1228.063
1226.436
1224.574
1222.097
1217.652
1238.79
1238.087
1237.363
1236.626
1235.894
1234.893
1233.573
1232.202
1230.783
1229.314
1227.789
1226.17
1224.39
1222.22
1218.95
1239.914
1239.201
1238.477
1237.746
1237.022
1236.048
1234.774
1233.449
1232.073
1230.648
1229.174
1227.634
1226.019
1224.284
1222.291
1240.99
1240.299
1239.593
1238.879
1238.167
1237.223
1236.001
1234.726
1233.399
1232.022
1230.595
1229.106
1227.557
1225.94
1224.224
1242.011
1241.352
1240.676
1239.989
1239.298
1238.389
1237.22
1235.998
1234.725
1233.4
1232.022
1230.583
1229.086
1227.529
1225.906
1210.62
1213.715
1212.222
1216.798
1215.479
1213.303
1219.857
1218.919
1217.339
1213.478
1238.278
1236.982
1235.612
1234.175
1232.676
1231.12
1229.521
1227.912
1226.398
1225.393
1225.125
1223.524
1221.741
1219.122
1213.12
1239.404
1238.088
1236.721
1235.326
1233.924
1232.544
1231.228
1230.046
1229.137
1228.797
1228.366
1226.869
1225.268
1223.313
1220.284
1212.167
1240.481
1239.17
1237.824
1236.476
1235.162
1233.92
1232.806
1231.895
1231.296
1231.175
1230.724
1229.364
1227.953
1226.395
1224.445
1220.692
1210.157
1241.51
1240.231
1238.925
1237.634
1236.398
1235.263
1234.284
1233.531
1233.085
1233.04
1232.593
1231.331
1230.049
1228.713
1227.242
1225.001
1220.423
1208.791
1242.491
1241.267
1240.022
1238.797
1237.634
1236.579
1235.687
1235.017
1234.635
1234.602
1234.155
1232.96
1231.756
1230.541
1229.289
1227.661
1225.069
1220.317
1208.23
1243.424
1242.277
1241.109
1239.958
1238.865
1237.872
1237.029
1236.391
1236.015
1235.954
1235.499
1234.351
1233.199
1232.049
1230.902
1229.532
1227.696
1225.124
1220.423
1208.517
1244.31
1243.257
1242.179
1241.11
1240.084
1239.138
1238.315
1237.666
1237.252
1237.131
1236.661
1235.552
1234.44
1233.335
1232.244
1230.989
1229.449
1227.644
1225.164
1220.728
1209.593
1245.149
1244.202
1243.224
1242.242
1241.28
1240.367
1239.539
1238.843
1238.346
1238.132
1237.65
1236.576
1235.504
1234.441
1233.4
1232.206
1230.783
1229.253
1227.495
1225.163
1221.159
1211.321
1245.942
1245.108
1244.236
1243.342
1242.44
1241.548
1240.692
1239.91
1239.272
1238.912
1238.439
1237.408
1236.389
1235.386
1234.407
1233.265
1231.893
1230.463
1228.941
1227.237
1225.081
1221.598
1213.499
1246.689
1245.97
1245.203
1244.395
1243.549
1242.671
1241.769
1240.859
1239.991
1239.334
1238.953
1238.004
1237.084
1236.182
1235.302
1234.221
1232.882
1231.494
1230.052
1228.535
1226.878
1224.88
1221.94
1215.774
1238.926
1238.329
1237.644
1236.912
1236.163
1235.156
1233.849
1232.494
1231.09
1229.636
1228.116
1226.481
1224.613
1222.132
1217.698
1239.948
1239.281
1238.589
1237.879
1237.164
1236.195
1234.929
1233.612
1232.246
1230.831
1229.366
1227.831
1226.206
1224.42
1222.242
1241.004
1240.331
1239.642
1238.941
1238.238
1237.299
1236.081
1234.81
1233.488
1232.117
1230.695
1229.211
1227.665
1226.043
1224.3
1242.017
1241.365
1240.695
1240.013
1239.327
1238.42
1237.253
1236.033
1234.762
1233.439
1232.064
1230.627
1229.132
1227.576
1225.951
1242.976
1242.357
1241.718
1241.064
1240.401
1239.53
1238.416
1237.249
1236.031
1234.76
1233.437
1232.051
1230.605
1229.1
1227.535
1210.697
1213.728
1212.492
1216.735
1215.464
1214.037
1219.529
1218.446
1217.222
1215.11
1222.312
1221.527
1220.516
1218.996
1215.575
1239.469
1238.252
1236.967
1235.619
1234.214
1232.759
1231.265
1229.765
1228.353
1227.397
1227.108
1225.705
1224.333
1222.804
1220.597
1214.639
1240.526
1239.291
1238.008
1236.698
1235.382
1234.087
1232.852
1231.742
1230.88
1230.524
1230.074
1228.716
1227.362
1225.945
1224.274
1221.1
1212.376
1241.538
1240.307
1239.044
1237.778
1236.542
1235.375
1234.325
1233.461
1232.882
1232.727
1232.259
1230.987
1229.714
1228.418
1227.031
1224.946
1220.786
1210.405
1242.504
1241.304
1240.078
1238.865
1237.703
1236.634
1235.71
1234.993
1234.555
1234.476
1234.015
1232.813
1231.609
1230.401
1229.169
1227.572
1225.056
1220.525
1209.065
1243.424
1242.277
1241.109
1239.958
1238.865
1237.872
1237.029
1236.391
1236.015
1235.954
1235.499
1234.351
1233.199
1232.049
1230.902
1229.532
1227.696
1225.124
1220.423
1208.517
1244.298
1243.225
1242.13
1241.05
1240.023
1239.089
1238.293
1237.686
1237.32
1237.239
1236.782
1235.678
1234.568
1233.46
1232.363
1231.103
1229.558
1227.731
1225.179
1220.529
1208.784
1245.128
1244.143
1243.134
1242.132
1241.169
1240.28
1239.504
1238.891
1238.492
1238.36
1237.895
1236.83
1235.759
1234.689
1233.63
1232.429
1231.012
1229.476
1227.68
1225.219
1220.823
1209.81
1245.912
1245.028
1244.114
1243.194
1242.292
1241.435
1240.656
1240.001
1239.528
1239.314
1238.843
1237.815
1236.784
1235.756
1234.742
1233.585
1232.228
1230.809
1229.283
1227.533
1225.215
1221.226
1211.494
1246.651
1245.875
1245.061
1244.225
1243.38
1242.544
1241.741
1241.005
1240.403
1240.058
1239.6
1238.616
1237.639
1236.671
1235.718
1234.609
1233.289
1231.92
1230.494
1228.977
1227.278
1225.116
1221.643
1213.621
1247.347
1246.679
1245.964
1245.209
1244.418
1243.595
1242.749
1241.895
1241.079
1240.46
1240.094
1239.192
1238.312
1237.443
1236.586
1235.538
1234.249
1232.913
1231.529
1230.091
1228.577
1226.911
1224.908
1221.968
1215.843
1240.076
1239.509
1238.853
1238.147
1237.417
1236.442
1235.188
1233.885
1232.534
1231.134
1229.683
1228.154
1226.511
1224.636
1222.149
1241.037
1240.407
1239.748
1239.066
1238.373
1237.438
1236.227
1234.964
1233.651
1232.289
1230.877
1229.402
1227.861
1226.229
1224.434
1242.03
1241.396
1240.742
1240.072
1239.395
1238.492
1237.329
1236.113
1234.846
1233.528
1232.158
1230.727
1229.237
1227.684
1226.054
1242.981
1242.369
1241.736
1241.087
1240.429
1239.56
1238.447
1237.283
1236.066
1234.797
1233.476
1232.092
1230.649
1229.147
1227.583
1243.882
1243.302
1242.7
1242.08
1241.447
1240.616
1239.555
1238.443
1237.279
1236.063
1234.794
1233.462
1232.069
1230.616
1229.103
1213.737
1212.605
1216.715
1215.474
1214.382
1219.452
1218.307
1217.209
1215.908
1221.998
1221
1220.039
1218.947
1217.043
1224.549
1223.807
1222.96
1221.993
1220.641
1216.761
1240.587
1239.445
1238.238
1236.973
1235.655
1234.291
1232.892
1231.487
1230.163
1229.245
1228.92
1227.617
1226.401
1225.211
1223.915
1221.401
1214.802
1241.58
1240.42
1239.216
1237.985
1236.75
1235.533
1234.372
1233.324
1232.502
1232.131
1231.662
1230.38
1229.136
1227.914
1226.667
1224.799
1221.188
1212.585
1242.53
1241.375
1240.189
1239
1237.839
1236.74
1235.75
1234.931
1234.37
1234.189
1233.707
1232.493
1231.291
1230.103
1228.916
1227.381
1225
1220.881
1210.652
1243.436
1242.311
1241.161
1240.022
1238.93
1237.924
1237.052
1236.369
1235.942
1235.837
1235.369
1234.215
1233.061
1231.915
1230.779
1229.421
1227.608
1225.11
1220.627
1209.338
1244.298
1243.225
1242.13
1241.05
1240.023
1239.089
1238.293
1237.686
1237.32
1237.239
1236.782
1235.678
1234.568
1233.46
1232.363
1231.103
1229.558
1227.731
1225.179
1220.529
1208.784
1245.117
1244.114
1243.089
1242.076
1241.112
1240.234
1239.485
1238.909
1238.555
1238.461
1238.008
1236.948
1235.878
1234.806
1233.742
1232.539
1231.125
1229.584
1227.766
1225.234
1220.628
1209.013
1245.892
1244.974
1244.031
1243.092
1242.189
1241.354
1240.625
1240.046
1239.664
1239.528
1239.073
1238.052
1237.021
1235.987
1234.958
1233.796
1232.449
1231.035
1229.504
1227.716
1225.27
1220.895
1210.005
1246.623
1245.801
1244.948
1244.088
1243.243
1242.44
1241.709
1241.092
1240.644
1240.436