/*--------------------------------*- C++ -*----------------------------------*\
| =========                 |                                                 |
| \\      /  F ield         | OpenFOAM: The Open Source CFD Toolbox           |
|  \\    /   O peration     | Version:  2306                                  |
|   \\  /    A nd           | Website:  www.openfoam.com                      |
|    \\/     M anipulation  |                                                 |
\*---------------------------------------------------------------------------*/
FoamFile
{
    version     2.0;
    format      ascii;
    arch        "LSB;label=32;scalar=64";
    class       volVectorField;
    location    "1.5/air";
    object      U;
}
// * * * * * * * * * * * * * * * * * * * * * * * * * * * * * * * * * * * * * //

dimensions      [0 1 -1 0 0 0 0];

internalField   nonuniform List<vector> 
16000
(
(0.3910545 0.0584073 -0.05851302)
(0.6947568 0.1104385 -0.09031173)
(0.419963 0.004343312 -0.004201855)
(0.6949754 0.08992225 -0.1117837)
(0.8310631 0.09461112 -0.09045607)
(0.824532 0.01059724 -0.007771548)
(1.387057 0.1857872 -0.1894364)
(0.3137694 -0.001474561 0.001489679)
(0.8247444 0.007911643 -0.01017484)
(0.8318313 0.08981973 -0.09830071)
(0.8943531 0.05910888 -0.08814342)
(1.044151 0.01100155 -0.007999275)
(1.745384 0.1740449 -0.2083558)
(0.6472594 -0.00205747 0.002511334)
(1.815515 0.02047469 -0.02024059)
(1.746746 0.2028592 -0.1831642)
(0.3598468 0.0009297249 -0.00092304)
(0.6474996 -0.002510013 0.002052969)
(1.045142 0.008097545 -0.01052124)
(0.8961048 0.08727573 -0.06599632)
(0.9196924 0.01994695 -0.08680677)
(1.162923 0.007523194 -0.007522791)
(1.922154 0.1152087 -0.2095124)
(0.8441592 -0.00192808 0.002785932)
(2.402522 0.02451645 -0.02518861)
(2.221163 0.2026511 -0.2161452)
(0.7338284 0.001547383 -0.001654003)
(1.486271 -0.003767585 0.003629536)
(2.404455 0.02488903 -0.02479098)
(1.926401 0.2024235 -0.1314653)
(0.3340847 -0.0004741543 0.0004847543)
(0.7340549 0.001624003 -0.001652156)
(0.8453336 -0.002808309 0.001809089)
(1.16565 0.007535026 -0.007271644)
(0.9231183 0.08560499 -0.03073278)
(0.9196924 -0.01994695 -0.08680677)
(1.215514 0.002634933 -0.00719376)
(1.994889 0.03984427 -0.2073963)
(0.9588254 -0.001177004 0.002868533)
(2.73363 0.0184602 -0.02641205)
(2.46259 0.1389266 -0.2223256)
(0.9516992 0.001489604 -0.001804665)
(2.025689 -0.003663644 0.004598717)
(3.281157 0.02778876 -0.02903745)
(2.466422 0.2055599 -0.1622867)
(0.6865302 -0.0008456409 0.0008220238)
(1.668161 0.002594124 -0.002985261)
(2.027976 -0.004926438 0.003216682)
(2.740417 0.02543637 -0.01974803)
(2.004244 0.1985526 -0.06416565)
(0.348668 0.0003198532 -0.0003092667)
(0.6867483 -0.0008444818 0.0007680927)
(0.9528473 0.001738962 -0.001864176)
(0.9620594 -0.002928643 0.0008242871)
(1.221429 0.007061824 -0.002987882)
(0.9259911 0.08506431 0.004418491)
(0.0003696876 -0.001298519 -0.0006254472)
(0.8943531 -0.05910888 -0.08814342)
(1.215514 -0.002634933 -0.00719376)
(1.994889 -0.03984427 -0.2073963)
(1.012059 -0.000388255 0.002920864)
(2.882407 0.006764806 -0.0263704)
(2.562566 0.04893092 -0.2213256)
(1.076905 0.0009492765 -0.001804767)
(2.349129 -0.002311592 0.005310199)
(3.787414 0.02184315 -0.03155156)
(2.744258 0.1429177 -0.1708885)
(0.894638 -0.0008436257 0.0008745974)
(2.25947 0.002571027 -0.003324487)
(2.822723 -0.005231301 0.004436448)
(3.794362 0.0290886 -0.02455291)
(2.573572 0.2016449 -0.082602)
(0.71366 0.0005292696 -0.0005797308)
(1.572004 -0.001616879 0.001280141)
(2.261769 0.002675503 -0.003606823)
(2.357012 -0.005911646 0.00136907)
(2.898386 0.024555 -0.009599564)
(2.012956 0.1963768 0.0069379)
(0.3402317 -0.0001322729 0.0001435197)
(0.7138819 0.0005547277 -0.0006142538)
(0.8957446 -0.0009312591 0.0005315623)
(1.08012 0.001702071 -0.001734435)
(1.018912 -0.003054039 -0.0003882638)
(1.226744 0.006822229 0.00118024)
(0.9056663 0.08562744 0.03801482)
(0.0003843987 -0.003758717 -0.0006463068)
(0.0003852 -0.001155758 -0.0005721595)
(0.0003720199 -0.001301351 -0.001215095)
(0.8310631 -0.09461112 -0.09045607)
(1.162923 -0.007523194 -0.007522791)
(1.922154 -0.1152087 -0.2095124)
(1.012059 0.000388255 0.002920865)
(2.882407 -0.006764806 -0.0263704)
(2.562566 -0.04893092 -0.2213256)
(1.134691 0.0003190869 -0.001793768)
(2.500907 -0.0007682213 0.005727376)
(4.017801 0.008135264 -0.03223566)
(2.8594 0.05079069 -0.171691)
(1.01546 -0.0005658371 0.0008760811)
(2.610598 0.001689451 -0.003285337)
(3.31005 -0.003426609 0.005431948)
(4.413379 0.02324382 -0.02753307)
(2.867426 0.1405081 -0.08954278)
(0.9277353 0.0005177372 -0.0006571602)
(2.139011 -0.001726664 0.001419125)
(3.127884 0.002614709 -0.004148817)
(3.317755 -0.006657048 0.002058433)
(4.038928 0.02849867 -0.01265018)
(2.58593 0.1987858 0.005653227)
(0.6980462 -0.0002379279 0.0002190634)
(1.627973 0.0008577284 -0.00122008)
(2.141231 -0.002001166 0.0008074396)
(2.618589 0.002387156 -0.003593476)
(2.518961 -0.00677361 -0.0009289333)
(2.913818 0.02353397 0.001924735)
(1.954984 0.196153 0.07424859)
(0.3446398 0.0001238791 -0.0001135252)
(0.698266 -0.0002394905 0.0001684336)
(0.9288573 0.0005960106 -0.0008529384)
(1.018558 -0.0009679523 -0.0001113218)
(1.14157 0.00163041 -0.001679638)
(1.024502 -0.003203809 -0.001932255)
(1.182602 0.006758614 0.004376021)
(0.8514617 0.08743289 0.06783632)
(0.0004110626 -0.006777607 -0.0006936533)
(0.0004072831 -0.003346347 -0.0005891481)
(0.0003867521 -0.003773338 -0.001265017)
(0.0002734068 -0.001081874 -0.000527563)
(0.0003857231 -0.001158961 -0.001111306)
(0.0003693723 -0.001293857 -0.003321808)
(0.6947568 -0.1104385 -0.09031173)
(1.044151 -0.01100155 -0.007999275)
(1.745384 -0.1740449 -0.2083558)
(0.9588254 0.001177004 0.002868533)
(2.73363 -0.0184602 -0.02641205)
(2.46259 -0.1389266 -0.2223256)
(1.134691 -0.0003190869 -0.001793768)
(2.500907 0.0007682211 0.005727376)
(4.017801 -0.008135264 -0.03223566)
(2.8594 -0.05079069 -0.171691)
(1.071567 -0.0001968688 0.000876907)
(2.774699 0.000575835 -0.003194378)
(3.541061 -0.001159155 0.006035359)
(4.697402 0.008706524 -0.028614)
(2.988921 0.05006088 -0.09128568)
(1.051432 0.0003349044 -0.0006756092)
(2.478834 -0.001222684 0.001473811)
(3.654395 0.001697154 -0.004135324)
(3.915432 -0.004528619 0.002768047)
(4.714274 0.02295845 -0.01484489)
(2.881411 0.1382004 0.003187256)
(0.9087735 -0.0002312128 0.0002125741)
(2.210001 0.0008586787 -0.00148289)
(2.97445 -0.002238788 0.0008371324)
(3.662256 0.002194876 -0.00428645)
(3.56386 -0.007892811 -0.0009086838)
(4.063158 0.02731271 0.001710556)
(2.506856 0.1977239 0.08860195)
(0.7061729 0.0002050836 -0.0002327662)
(1.595941 -0.0004938865 0.0001764029)
(2.212247 0.0008610646 -0.001843428)
(2.486546 -0.002289892 -0.0004886398)
(2.793054 0.00195703 -0.003563254)
(2.534784 -0.007500627 -0.003623681)
(2.789361 0.02238087 0.01142465)
(1.803182 0.1936633 0.1280638)
(0.3418209 -2.774235e-05 3.78183e-05)
(0.7063936 0.0002118025 -0.0002762161)
(0.9098826 -0.0002662627 -5.96139e-05)
(1.054569 0.0005788778 -0.001054157)
(1.078197 -0.001024717 -0.0009937794)
(1.147346 0.001505903 -0.001895959)
(0.9794395 -0.003446128 -0.004022086)
(1.077138 0.006833787 0.005824239)
(0.7328709 0.08849954 0.07529516)
(0.0004599883 -0.008888861 -0.001063169)
(0.0004475508 -0.00601069 -0.0006281699)
(0.0004134229 -0.006685192 -0.001364638)
(0.0002889042 -0.00313224 -0.0005428038)
(0.0004078203 -0.00336148 -0.001152537)
(0.0003839218 -0.003739311 -0.003395019)
(0.0004159176 -0.001003178 -0.0004919286)
(0.0002733876 -0.001085287 -0.001024877)
(0.0003817962 -0.001153115 -0.003039834)
(0.0003608485 -0.001265733 -0.001135355)
(0.3910545 -0.0584073 -0.05851302)
(0.824532 -0.01059724 -0.007771548)
(1.387057 -0.1857872 -0.1894364)
(0.8441592 0.00192808 0.002785932)
(2.402522 -0.02451645 -0.02518861)
(2.221163 -0.2026511 -0.2161452)
(1.076905 -0.0009492765 -0.001804767)
(2.349129 0.002311592 0.005310199)
(3.787414 -0.02184315 -0.03155156)
(2.744258 -0.1429177 -0.1708885)
(1.071567 0.0001968688 0.000876907)
(2.774699 -0.0005758349 -0.003194378)
(3.541061 0.001159155 0.006035359)
(4.697402 -0.008706524 -0.028614)
(2.988921 -0.05006088 -0.09128568)
(1.108725 0.0001134362 -0.000681021)
(2.638556 -0.0004358749 0.001502037)
(3.903205 0.0005743434 -0.004017044)
(4.200752 -0.001563591 0.003239951)
(5.025436 0.008626457 -0.01587938)
(3.003216 0.04918885 0.001609578)
(1.030904 -0.0001532595 0.0002004452)
(2.557334 0.0005655513 -0.001575227)
(3.485399 -0.001641903 0.0008580176)
(4.306317 0.001343148 -0.004358617)
(4.218501 -0.005524654 -0.0006229679)
(4.744605 0.02207929 0.0009515669)
(2.789583 0.1367984 0.09028428)
(0.9186191 0.0002058007 -0.0002789678)
(2.169568 -0.0005227427 0.0001016899)
(3.066044 0.0008415239 -0.002342608)
(3.492992 -0.002650531 -0.0007459591)
(3.926418 0.001608258 -0.004322834)
(3.587767 -0.0088248 -0.004140162)
(3.870632 0.02573364 0.01388748)
(2.300206 0.1924823 0.1509609)
(0.7009335 -5.869928e-05 3.651732e-05)
(1.61253 0.000302465 -0.0006181842)
(2.171787 -0.0006576493 -0.0003523298)
(2.565135 0.0007144767 -0.002388747)
(2.656288 -0.002625508 -0.002256186)
(2.809463 0.001403767 -0.003782912)
(2.406038 -0.008212919 -0.006844002)
(2.495316 0.01989935 0.0158915)
(1.486893 0.1776946 0.1356187)
(0.3431358 5.724104e-05 -4.845436e-05)
(0.7011534 -5.543891e-05 -5.628093e-06)
(0.9197304 0.0002255653 -0.0004960942)
(1.034003 -0.0002876456 -0.0004835381)
(1.115434 0.0005302843 -0.001359883)
(1.083728 -0.001140022 -0.002151322)
(1.098187 0.001259034 -0.002552128)
(0.8763953 -0.003736488 -0.006665353)
(0.8794768 0.006774921 0.001579733)
(0.4684661 0.06091481 -0.0007262181)
(0.0005125689 -0.01767709 -0.001414765)
(0.0005210711 -0.007880206 -0.0009440003)
(0.0004609657 -0.008699215 -0.002046552)
(0.0003172608 -0.005619846 -0.0005780103)
(0.0004480709 -0.005934781 -0.00123497)
(0.0004102263 -0.006536628 -0.003536832)
(0.0004300847 -0.002904094 -0.000505757)
(0.0002889271 -0.003147524 -0.001062174)
(0.0004036257 -0.00333328 -0.003097469)
(0.0003749627 -0.003683103 -0.001175966)
(0.0004040294 -0.0009458389 -0.0004623547)
(0.0004181803 -0.001006559 -0.0009556455)
(0.0002702458 -0.001080135 -0.002803343)
(0.0003646499 -0.001130296 -0.001038382)
(0.0003611307 -0.001266629 -0.01135183)
(0.419963 -0.004343312 -0.004201855)
(0.6949754 -0.08992225 -0.1117837)
(0.6472594 0.00205747 0.002511334)
(1.815515 -0.02047469 -0.02024059)
(1.746746 -0.2028592 -0.1831642)
(0.9516992 -0.001489604 -0.001804665)
(2.025689 0.003663644 0.004598717)
(3.281157 -0.02778876 -0.02903745)
(2.466422 -0.2055599 -0.1622867)
(1.01546 0.0005658372 0.0008760811)
(2.610598 -0.001689451 -0.003285337)
(3.31005 0.003426609 0.005431948)
(4.413379 -0.02324382 -0.02753307)
(2.867426 -0.1405081 -0.08954278)
(1.108725 -0.0001134362 -0.000681021)
(2.638556 0.000435875 0.001502037)
(3.903205 -0.0005743433 -0.004017044)
(4.200752 0.001563591 0.003239951)
(5.025436 -0.008626457 -0.01587938)
(3.003216 -0.04918885 0.001609578)
(1.087572 -5.323399e-05 0.0001952712)
(2.720212 0.0001926476 -0.001598596)
(3.728151 -0.0005954602 0.0008841261)
(4.613053 0.0004387005 -0.004272081)
(4.532111 -0.001938415 -0.0003824933)
(5.058941 0.008313816 0.0002091569)
(2.90533 0.04851175 0.0890752)
(1.04155 0.0001349441 -0.0002956073)
(2.512822 -0.0003705201 4.742888e-05)
(3.587512 0.0005380892 -0.002544206)
(4.119367 -0.001993606 -0.000826149)
(4.63104 0.0008625093 -0.004462516)
(4.247833 -0.006270387 -0.004169246)
(4.508887 0.02086502 0.01454347)
(2.548919 0.1317096 0.1540664)
(0.9122385 -5.613318e-05 1.642602e-05)
(2.190437 0.0003057383 -0.0008084796)
(3.014113 -0.0007399059 -0.0006103579)
(3.595189 0.0006341288 -0.003095971)
(3.750626 -0.003103283 -0.002862206)
(3.95117 0.0009455686 -0.004435324)
(3.391478 -0.00947663 -0.007565164)
(3.419968 0.02285087 0.01978976)
(1.883072 0.1678515 0.1536663)
(0.7032313 9.532114e-05 -0.0001150818)
(1.601729 -0.0001655416 -0.000125669)
(2.192658 0.0002600623 -0.001171)
(2.520527 -0.0008271646 -0.001263792)
(2.738124 0.0004397963 -0.003032697)
(2.672035 -0.003127209 -0.004353694)
(2.669679 0.0005961799 -0.004361073)
(2.114443 -0.009017745 -0.01030639)
(1.964496 0.01401808 0.01020705)
(0.8689186 0.1172718 0.02526727)
(0.3418621 1.241911e-05 -2.850351e-06)
(0.7034502 9.538411e-05 -0.0001621838)
(0.9133437 -6.56839e-05 -0.0002110728)
(1.044653 0.0002099431 -0.0007651128)
(1.094197 -0.0003335519 -0.001065207)
(1.12106 0.0004217191 -0.001891671)
(1.035836 -0.001379392 -0.003678961)
(0.9855946 0.0009401643 -0.003682255)
(0.6968578 -0.003649553 -0.01086111)
(0.5165843 -0.001116805 -0.02595955)
(0.002342137 -0.01296184 -0.01145219)
(0.0005990193 -0.01549429 -0.001266067)
(0.0005106943 -0.01387072 -0.002685671)
(0.000367495 -0.007363954 -0.0008699854)
(0.0005193075 -0.007719035 -0.001817842)
(0.0004560163 -0.008456781 -0.004182401)
(0.0004553708 -0.005208121 -0.0005377525)
(0.0003173309 -0.005551238 -0.001136746)
(0.0004433365 -0.005808138 -0.003208031)
(0.0004003915 -0.006358909 -0.001261043)
(0.0004157371 -0.002738111 -0.0004751661)
(0.0004324085 -0.002918945 -0.000989625)
(0.0002856296 -0.003122207 -0.002853941)
(0.0003858224 -0.003290747 -0.001071489)
(0.0003752235 -0.003646903 -0.01147053)
(0.000463848 -0.0008918739 -0.0004370076)
(0.0004065972 -0.000949206 -0.0008983007)
(0.000415531 -0.00100202 -0.002614049)
(0.0002562311 -0.001060067 -0.0009578401)
(0.0003708484 -0.001130314 -0.01039595)
(3.751654e-05 -0.0001379726 -0.004339466)
(0.3137694 0.001474561 0.001489679)
(0.8247444 -0.007911643 -0.01017484)
(0.8318313 -0.08981973 -0.09830071)
(0.7338284 -0.001547383 -0.001654003)
(1.486271 0.003767585 0.003629536)
(2.404455 -0.02488903 -0.02479098)
(1.926401 -0.2024235 -0.1314653)
(0.894638 0.0008436257 0.0008745975)
(2.25947 -0.002571027 -0.003324487)
(2.822723 0.005231301 0.004436448)
(3.794362 -0.0290886 -0.02455291)
(2.573572 -0.2016449 -0.082602)
(1.051432 -0.0003349043 -0.0006756092)
(2.478834 0.001222684 0.001473811)
(3.654395 -0.001697154 -0.004135324)
(3.915432 0.004528619 0.002768047)
(4.714274 -0.02295845 -0.01484489)
(2.881411 -0.1382004 0.003187256)
(1.087572 5.323406e-05 0.0001952712)
(2.720212 -0.0001926475 -0.001598596)
(3.728151 0.0005954602 0.0008841263)
(4.613053 -0.0004387005 -0.004272081)
(4.532111 0.001938414 -0.0003824933)
(5.058941 -0.008313816 0.0002091569)
(2.90533 -0.04851175 0.0890752)
(1.098539 4.586781e-05 -0.0003017095)
(2.674046 -0.0001324997 2.425851e-05)
(3.83475 0.000179783 -0.002604743)
(4.419229 -0.0007319219 -0.000825114)
(4.967959 0.000256519 -0.004418254)
(4.564097 -0.002220597 -0.004111397)
(4.803149 0.007882365 0.01405072)
(2.647992 0.04636327 0.1527567)
(1.034629 -3.867996e-05 3.609301e-06)
(2.535754 0.0002006452 -0.0008975304)
(3.52989 -0.0005488653 -0.0007576965)
(4.233793 0.0003617699 -0.003390697)
(4.436706 -0.002366367 -0.003045859)
(4.661338 0.000360917 -0.00451986)
(4.005595 -0.006729683 -0.007641739)
(3.961386 0.01857348 0.02130099)
(2.064701 0.1130084 0.1565201)
(0.9148961 9.925317e-05 -0.0001486981)
(2.176761 -0.0001817727 -0.0002386386)
(3.04078 0.0002423695 -0.00157177)
(3.537475 -0.0009758095 -0.001761715)
(3.857421 0.0002738223 -0.003867828)
(3.774428 -0.003695158 -0.005182912)
(3.738907 0.0001589788 -0.00458442)
(2.95111 -0.009859972 -0.01059842)
(2.619853 0.01875082 0.01716848)
(1.056102 0.1044991 0.03584365)
(0.7009674 2.346282e-05 -3.39062e-05)
(1.606072 0.00011428 -0.0004030462)
(2.178969 -0.0002702021 -0.0006196971)
(2.543465 0.0001329784 -0.001810681)
(2.691744 -0.001085228 -0.002430578)
(2.754129 -3.081864e-05 -0.003875409)
(2.535541 -0.003931937 -0.006650414)
(2.353 -0.0005928737 -0.005199798)
(1.618967 -0.009310484 -0.01346673)
(1.058127 0.005648171 -0.01614872)
(0.003738259 0.0005648055 -0.007947704)
(0.3420772 2.879663e-05 -2.015051e-05)
(0.7011869 1.681075e-05 -8.185852e-05)
(0.9159946 9.975695e-05 -0.0003661322)
(1.037714 -8.340583e-05 -0.0005453427)
(1.10517 0.0001672668 -0.001145483)
(1.099741 -0.0004366434 -0.001873942)
(1.072169 0.0001903655 -0.002788931)
(0.926924 -0.001685777 -0.005517924)
(0.7872438 0.0008199178 -0.006877353)
(0.3933943 -0.007630305 -0.02743757)
(0.002673465 -0.01161501 -0.009935887)
(0.0006362157 -0.01067141 -0.01568446)
(0.0004222819 -0.01444148 -0.00116974)
(0.0005935263 -0.01221187 -0.002368331)
(0.0005041094 -0.01243877 -0.004807228)
(0.0004998125 -0.006821014 -0.0008070921)
(0.0003662649 -0.007216419 -0.001675426)
(0.0005120019 -0.007510078 -0.003745881)
(0.0004437209 -0.008178407 -0.001707749)
(0.0004363893 -0.004908351 -0.000504896)
(0.0004577665 -0.005145801 -0.001057482)
(0.000313712 -0.005434994 -0.002950718)
(0.000424245 -0.005665184 -0.001141134)
(0.0004006378 -0.006250218 -0.01169002)
(0.0004744132 -0.002581798 -0.0004489407)
(0.0004183622 -0.002752618 -0.0009298935)
(0.0004296347 -0.002896136 -0.00265941)
(0.0002712617 -0.003085922 -0.0009876533)
(0.0003920087 -0.003254952 -0.0104785)
(3.893855e-05 -0.0003957479 -0.004377525)
(0.0004694841 -0.0008474169 -0.0004147928)
(0.0004674417 -0.000895171 -0.0008490801)
(0.0004043706 -0.0009450866 -0.002457154)
(0.0004040234 -0.0009839774 -0.000893176)
(0.0002618498 -0.001059413 -0.009588597)
(3.654208e-05 -0.00012372 -0.003974117)
(3.346333e-05 -0.0001243139 -0.005141501)
(0.3598468 -0.0009297249 -0.0009230401)
(0.6474996 0.002510013 0.002052969)
(1.045142 -0.008097545 -0.01052124)
(0.8961048 -0.08727573 -0.06599632)
(0.6865302 0.000845641 0.0008220237)
(1.668161 -0.002594124 -0.002985261)
(2.027976 0.004926438 0.003216682)
(2.740417 -0.02543637 -0.01974803)
(2.004244 -0.1985526 -0.06416565)
(0.9277353 -0.0005177372 -0.0006571602)
(2.139011 0.001726665 0.001419125)
(3.127884 -0.002614709 -0.004148817)
(3.317755 0.006657048 0.002058433)
(4.038928 -0.02849867 -0.01265018)
(2.58593 -0.1987858 0.005653226)
(1.030904 0.0001532594 0.0002004453)
(2.557334 -0.0005655512 -0.001575227)
(3.485399 0.001641903 0.0008580175)
(4.306317 -0.001343148 -0.004358617)
(4.218501 0.005524654 -0.0006229678)
(4.744605 -0.02207929 0.0009515669)
(2.789583 -0.1367984 0.09028428)
(1.098539 -4.586779e-05 -0.0003017095)
(2.674046 0.0001324997 2.425874e-05)
(3.83475 -0.0001797829 -0.002604743)
(4.419229 0.0007319219 -0.0008251141)
(4.967959 -0.000256519 -0.004418254)
(4.564097 0.002220597 -0.004111397)
(4.803149 -0.007882365 0.01405072)
(2.647992 -0.04636327 0.1527567)
(1.091401 -1.397015e-05 -1.556148e-06)
(2.697818 6.788958e-05 -0.0009299543)
(3.774794 -0.0002005275 -0.0008165584)
(4.538933 0.000111694 -0.003481076)
(4.766429 -0.0008740279 -0.003064296)
(5.000987 7.302344e-05 -0.004465735)
(4.298951 -0.002389172 -0.007625153)
(4.211547 0.007041924 0.02089423)
(2.128867 0.03950435 0.1560525)
(1.037389 6.620589e-05 -0.0001629267)
(2.520668 -0.0001354248 -0.0003044346)
(3.559402 0.0001436376 -0.001767594)
(4.169507 -0.0007478334 -0.002004467)
(4.556519 7.134093e-05 -0.004184046)
(4.465897 -0.00280851 -0.00535774)
(4.399787 -0.000143528 -0.004397157)
(3.465869 -0.006883411 -0.01037194)
(3.007154 0.01424718 0.01786654)
(1.140527 0.06759643 0.03706305)
(0.9122473 3.041212e-05 -5.935865e-05)
(2.181881 0.0001145855 -0.0005548396)
(3.023154 -0.0003222496 -0.0009130148)
(3.566993 6.681583e-05 -0.002415287)
(3.797216 -0.001314347 -0.003140705)
(3.881602 -0.0002800566 -0.004659845)
(3.566682 -0.004492629 -0.007337372)
(3.262963 -0.0007752528 -0.004503237)
(2.217842 -0.009308564 -0.01158925)
(1.364068 0.007745364 -0.007821571)
(0.004386369 0.0004785636 -0.005610742)
(0.7012418 4.096429e-05 -6.130951e-05)
(1.601729 -6.392398e-06 -0.0002612223)
(2.184076 5.693513e-05 -0.0009015373)
(2.528332 -0.0004083349 -0.001360501)
(2.715525 -0.0001036311 -0.002583833)
(2.707527 -0.001531201 -0.003827986)
(2.614982 -0.000826044 -0.004955648)
(2.228356 -0.005056999 -0.008772957)
(1.810981 -0.001867219 -0.007068638)
(0.8430066 -0.007579101 -0.02030674)
(0.00457017 -6.787553e-05 -0.00691891)
(0.0006506177 -0.002112066 -0.0113279)
(0.3416821 1.924641e-05 -1.101006e-05)
(0.7014607 4.442528e-05 -9.854201e-05)
(0.9133474 1.42668e-05 -0.000275368)
(1.040454 8.493469e-05 -0.0006414527)
(1.097994 -0.0001246732 -0.001010428)
(1.110732 6.928155e-05 -0.001732117)
(1.051336 -0.0006561053 -0.003020909)
(0.9607505 -0.0001120839 -0.004061144)
(0.7370568 -0.001719858 -0.008750745)
(0.4485101 -0.004136119 -0.02430077)
(0.00197346 -0.01084841 -0.009221612)
(0.0007722807 -0.009444564 -0.01356036)
(0.0006009751 -0.009756775 -0.01105358)
(0.0005486116 -0.0133673 -0.001081415)
(0.0004184496 -0.01139262 -0.0021832)
(0.0005838828 -0.01097073 -0.004260097)
(0.0004890398 -0.01111233 -0.002128713)
(0.0004726503 -0.006427757 -0.0007576336)
(0.0005011261 -0.006686338 -0.001554278)
(0.000361085 -0.007024001 -0.003441474)
(0.0004893171 -0.007284935 -0.001520307)
(0.0004433214 -0.008015866 -0.01211543)
(0.0004926817 -0.004626871 -0.0004766738)
(0.0004390824 -0.004850659 -0.0009930229)
(0.0004547351 -0.005039284 -0.002745916)
(0.0002986715 -0.005307591 -0.001050413)
(0.000430417 -0.005563343 -0.01062422)
(4.156669e-05 -0.0006785524 -0.004454384)
(0.0004787976 -0.002453107 -0.0004260122)
(0.0004780662 -0.002595849 -0.0008785783)
(0.000416038 -0.002731602 -0.002498791)
(0.0004178753 -0.002864321 -0.0009202484)
(0.0002768222 -0.00305087 -0.009654937)
(3.869582e-05 -0.0003550479 -0.003999141)
(3.472603e-05 -0.0003599236 -0.005187361)
(0.0004965198 -0.0008063173 -0.0003950209)
(0.0004733934 -0.0008506515 -0.0008059739)
(0.0004654875 -0.0008914157 -0.002322502)
(0.0003946779 -0.0009285394 -0.0008396901)
(0.0004065456 -0.0009832325 -0.008942892)
(2.527226e-05 -0.0001162357 -0.003665477)
(3.149649e-05 -0.0001117228 -0.004708533)
(3.236498e-05 -0.0001241121 -0.005071887)
(0.3340847 0.0004741543 0.0004847543)
(0.7340549 -0.001624003 -0.001652156)
(0.8453336 0.002808309 0.001809089)
(1.16565 -0.007535026 -0.007271644)
(0.9231183 -0.08560499 -0.03073278)
(0.71366 -0.0005292696 -0.0005797309)
(1.572004 0.001616879 0.001280141)
(2.261769 -0.002675503 -0.003606823)
(2.357012 0.005911646 0.00136907)
(2.898386 -0.024555 -0.009599564)
(2.012956 -0.1963768 0.0069379)
(0.9087735 0.0002312128 0.0002125741)
(2.210001 -0.0008586787 -0.00148289)
(2.97445 0.002238788 0.0008371324)
(3.662256 -0.002194876 -0.00428645)
(3.56386 0.007892812 -0.0009086838)
(4.063158 -0.02731271 0.001710556)
(2.506856 -0.1977239 0.08860195)
(1.04155 -0.0001349441 -0.0002956073)
(2.512822 0.0003705202 4.742895e-05)
(3.587512 -0.0005380893 -0.002544206)
(4.119367 0.001993606 -0.0008261489)
(4.63104 -0.0008625093 -0.004462516)
(4.247833 0.006270387 -0.004169247)
(4.508887 -0.02086502 0.01454347)
(2.548919 -0.1317096 0.1540664)
(1.091401 1.397024e-05 -1.556169e-06)
(2.697818 -6.788946e-05 -0.0009299543)
(3.774794 0.0002005273 -0.0008165583)
(4.538933 -0.000111694 -0.003481076)
(4.766429 0.0008740279 -0.003064296)
(5.000987 -7.302341e-05 -0.004465735)
(4.298951 0.002389172 -0.007625153)
(4.211547 -0.007041924 0.02089423)
(2.128867 -0.03950435 0.1560525)
(1.094183 2.258785e-05 -0.0001684625)
(2.682156 -4.996339e-05 -0.0003313075)
(3.805481 4.524792e-05 -0.001841201)
(4.47193 -0.0002772469 -0.002091538)
(4.891906 2.328314e-06 -0.004266757)
(4.79826 -0.001034712 -0.005340135)
(4.714749 -9.649519e-05 -0.004238099)
(3.710261 -0.002437162 -0.01023543)
(3.19109 0.005190465 0.01675793)
(1.17163 0.02312925 0.03693767)
(1.034626 2.248528e-05 -7.296909e-05)
(2.526009 7.252116e-05 -0.0006319014)
(3.539806 -0.0002520824 -0.001071675)
(4.202287 -3.59091e-06 -0.002698292)
(4.489354 -0.001021314 -0.003423376)
(4.586167 -0.0003413459 -0.004853978)
(4.209401 -0.003321778 -0.00727486)
(3.817717 -0.0006150985 -0.00382707)
(2.579019 -0.006287551 -0.01075819)
(1.535694 0.005837926 -0.006245108)
(0.004677701 0.0003013696 -0.004912608)
(0.9124724 4.120324e-05 -8.647319e-05)
(2.176682 -3.50223e-06 -0.0003945202)
(3.029163 3.383702e-05 -0.001236676)
(3.547352 -0.0005132172 -0.001861418)
(3.82791 -0.0002407261 -0.003324669)
(3.821088 -0.00183916 -0.004596615)
(3.670113 -0.001089642 -0.005365924)
(3.103805 -0.005383574 -0.008706764)
(2.465673 -0.001504041 -0.004423825)
(1.114556 -0.006140903 -0.01234727)
(0.005640204 7.330879e-06 -0.004869571)
(0.0006590633 -0.001083879 -0.008353579)
(0.7004789 2.891433e-05 -4.461768e-05)
(1.601957 2.030341e-05 -0.0002777346)
(2.178875 -7.44166e-05 -0.0007346139)
(2.533633 -6.001203e-05 -0.001532538)
(2.699761 -0.0006373089 -0.00229467)
(2.731357 -0.0005275375 -0.00354369)
(2.569664 -0.002288829 -0.005423154)
(2.301247 -0.001997411 -0.006116877)
(1.707612 -0.005913812 -0.01066871)
(0.9503254 -0.002707177 -0.01700413)
(0.003562552 -0.0001299342 -0.006404749)
(0.0007945419 -0.002031609 -0.009816159)
(0.0006123136 -0.002804371 -0.009227335)
(0.3415235 2.303803e-05 -1.51975e-05)
(0.7006967 2.825907e-05 -8.484405e-05)
(0.9135683 4.296546e-05 -0.0002780745)
(1.037694 -1.547225e-07 -0.0005589774)
(1.100743 4.632808e-05 -0.001023334)
(1.103519 -0.0002182665 -0.001678893)
(1.062049 -0.0001405733 -0.002646683)
(0.9412503 -0.000940634 -0.004484703)
(0.7656553 -0.0002063788 -0.006963364)
(0.4171677 -0.005609434 -0.02354768)
(0.002275657 -0.01002374 -0.008529976)
(0.0005372628 -0.008811495 -0.01257795)
(0.0007263809 -0.008654693 -0.009615467)
(0.0005690099 -0.008891097 -0.006200484)
(0.0005124987 -0.01258301 -0.001016005)
(0.0005473502 -0.01054793 -0.002020281)
(0.0004117278 -0.01024107 -0.003907074)
(0.000557336 -0.009844919 -0.001874659)
(0.0004882 -0.0105191 -0.01261238)
(0.0005246773 -0.006057953 -0.0007142843)
(0.000474473 -0.006302129 -0.001459191)
(0.0004967768 -0.006509945 -0.003195466)
(0.0003440578 -0.00682229 -0.001399759)
(0.0004945512 -0.007133017 -0.01091868)
(4.601051e-05 -0.0008693083 -0.004574573)
(0.0004946705 -0.004395138 -0.0004521355)
(0.0004964011 -0.004573204 -0.0009375155)
(0.000436557 -0.004751222 -0.002578158)
(0.0004425035 -0.00492434 -0.0009772592)
(0.0003041003 -0.005209986 -0.009769234)
(4.268695e-05 -0.000607199 -0.004048723)
(3.705961e-05 -0.0006170914 -0.00527862)
(0.0005050648 -0.002334096 -0.0004056076)
(0.0004827634 -0.002466749 -0.0008337684)
(0.000476029 -0.002576395 -0.002361023)
(0.0004061556 -0.002702914 -0.0008648118)
(0.0004203006 -0.002831213 -0.008999261)
(2.682332e-05 -0.0003336382 -0.003684783)
(3.341106e-05 -0.0003237643 -0.004738879)
(3.359151e-05 -0.0003555721 -0.005116613)
(0.0005052949 -0.0007702706 -0.0003772172)
(0.0005009491 -0.0008094715 -0.0007675802)
(0.0004716705 -0.0008471782 -0.002204552)
(0.0004570511 -0.0008761034 -0.0007937211)
(0.0003962646 -0.0009276732 -0.008407038)
(4.198627e-05 -0.0001080183 -0.003418649)
(2.150947e-05 -0.0001051132 -0.004342766)
(2.985869e-05 -0.0001117602 -0.004644848)
(3.157129e-05 -0.0001208432 -0.004573974)
(0.348668 -0.0003198532 -0.0003092666)
(0.6867483 0.0008444817 0.0007680927)
(0.9528473 -0.001738962 -0.001864176)
(0.9620594 0.002928643 0.0008242871)
(1.221429 -0.007061824 -0.002987882)
(0.9259911 -0.08506431 0.004418491)
(0.6980462 0.0002379279 0.0002190634)
(1.627973 -0.0008577285 -0.00122008)
(2.141231 0.002001166 0.0008074396)
(2.618589 -0.002387156 -0.003593476)
(2.518961 0.00677361 -0.0009289333)
(2.913818 -0.02353397 0.001924735)
(1.954984 -0.196153 0.07424859)
(0.9186191 -0.0002058007 -0.0002789678)
(2.169568 0.0005227426 0.0001016899)
(3.066044 -0.0008415238 -0.002342608)
(3.492992 0.002650531 -0.0007459591)
(3.926418 -0.001608258 -0.004322834)
(3.587767 0.0088248 -0.004140162)
(3.870632 -0.02573364 0.01388748)
(2.300206 -0.1924823 0.1509609)
(1.034629 3.867999e-05 3.609295e-06)
(2.535754 -0.0002006452 -0.0008975304)
(3.52989 0.0005488654 -0.0007576964)
(4.233793 -0.0003617698 -0.003390697)
(4.436706 0.002366367 -0.003045859)
(4.661338 -0.0003609169 -0.00451986)
(4.005595 0.006729683 -0.00764174)
(3.961386 -0.01857348 0.02130099)
(2.064701 -0.1130084 0.1565201)
(1.094183 -2.258776e-05 -0.0001684626)
(2.682156 4.996337e-05 -0.0003313075)
(3.805481 -4.524787e-05 -0.001841201)
(4.47193 0.0002772468 -0.002091538)
(4.891906 -2.328224e-06 -0.004266757)
(4.79826 0.001034712 -0.005340135)
(4.714749 9.649521e-05 -0.004238099)
(3.710261 0.002437162 -0.01023543)
(3.19109 -0.005190465 0.01675793)
(1.17163 -0.02312925 0.03693767)
(1.091389 7.860527e-06 -7.837083e-05)
(2.687536 2.370721e-05 -0.0006617403)
(3.785068 -9.469569e-05 -0.001134915)
(4.506071 -1.128451e-05 -0.002799323)
(4.821849 -0.0003804789 -0.003503258)
(4.92424 -0.0001472496 -0.004858562)
(4.517232 -0.001206836 -0.007127297)
(4.080194 -0.0002324499 -0.003493087)
(2.749065 -0.002217996 -0.01051849)
(1.61458 0.002088572 -0.005739335)
(0.00478435 0.0001000622 -0.004608111)
(1.034783 2.526132e-05 -9.800659e-05)
(2.520512 -4.374218e-06 -0.0004675285)
(3.546025 2.944533e-06 -0.001406838)
(4.180368 -0.0004123379 -0.002104732)
(4.523491 -0.0002500596 -0.003622216)
(4.518651 -0.001412407 -0.004786973)
(4.325304 -0.0008778027 -0.005231949)
(3.642115 -0.003764924 -0.008164166)
(2.85623 -0.0008102693 -0.003188668)
(1.274203 -0.003652858 -0.01051324)
(0.006240695 1.61714e-05 -0.004237914)
(0.0006601491 -0.0003368203 -0.007338319)
(0.9115049 3.073611e-05 -6.781877e-05)
(2.176694 1.113312e-05 -0.000400546)
(3.022899 -9.47402e-05 -0.001044729)
(3.553535 -0.0001277497 -0.002054097)
(3.807382 -0.0008118174 -0.00296078)
(3.851861 -0.0007394248 -0.004258285)
(3.611419 -0.002611823 -0.005931267)
(3.198079 -0.002090292 -0.005678734)
(2.335444 -0.00566959 -0.008664852)
(1.250107 -0.001248697 -0.009484792)
(0.004521403 -4.863664e-05 -0.004487095)
(0.0008090378 -0.001064023 -0.007214677)
(0.0006200135 -0.001499327 -0.007948757)
(0.7001263 3.660724e-05 -5.085934e-05)
(1.600311 2.661088e-06 -0.0002511633)
(2.17888 -4.802847e-05 -0.0007182651)
(2.528125 -0.0001898674 -0.001373829)
(2.705058 -0.0002731005 -0.002301818)
(2.715497 -0.001042167 -0.003427325)
(2.59277 -0.001255853 -0.00471106)
(2.259413 -0.003379101 -0.006977577)
(1.767272 -0.003123762 -0.007777653)
(0.890523 -0.005265732 -0.01712557)
(0.004050461 -9.642924e-05 -0.005914271)
(0.0005621248 -0.001913882 -0.009083033)
(0.0007449315 -0.002627093 -0.008019854)
(0.0005836456 -0.00336374 -0.005008095)
(0.3412258 1.938426e-05 -1.182455e-05)
(0.7003437 3.49486e-05 -9.095732e-05)
(0.9125941 2.592379e-05 -0.0002596153)
(1.03784 2.768452e-05 -0.0005416983)
(1.09794 -3.753943e-05 -0.0009491786)