/*--------------------------------*- C++ -*----------------------------------*\
| =========                 |                                                 |
| \\      /  F ield         | OpenFOAM: The Open Source CFD Toolbox           |
|  \\    /   O peration     | Version:  2306                                  |
|   \\  /    A nd           | Website:  www.openfoam.com                      |
|    \\/     M anipulation  |                                                 |
\*---------------------------------------------------------------------------*/
FoamFile
{
    version     2.0;
    format      ascii;
    arch        "LSB;label=32;scalar=64";
    class       volScalarField;
    location    "1.5/air";
    object      X.O2;
}
// * * * * * * * * * * * * * * * * * * * * * * * * * * * * * * * * * * * * * //

dimensions      [0 0 0 0 0 0 0];

internalField   nonuniform List<scalar> 
16000
(
0.2069576
0.2069638
0.2056596
0.2069193
0.2069721
0.2057512
0.2069295
0.2032452
0.2055394
0.206828
0.2069801
0.2058714
0.2069411
0.2033529
0.2056612
0.206849
0.2007508
0.2031042
0.2052302
0.2066522
0.2069849
0.2059742
0.2069518
0.2035002
0.2058142
0.2068716
0.2008579
0.203244
0.2053911
0.2066947
0.1983249
0.2006082
0.2027535
0.2046679
0.2063317
0.2069849
0.2060319
0.2069581
0.203631
0.2059405
0.2068885
0.2010048
0.2034271
0.2055921
0.2067411
0.1984274
0.2007465
0.2029311
0.2048667
0.2064086
0.1960123
0.1981885
0.2002557
0.202133
0.2037981
0.2057676
0.169965
0.2069801
0.2060319
0.2069581
0.2037063
0.2060102
0.2068982
0.2011357
0.2035857
0.2057582
0.2067752
0.198568
0.2009281
0.2031609
0.2051197
0.2064966
0.196109
0.1983205
0.2004292
0.2023447
0.2040284
0.2058785
0.1938187
0.1958829
0.1978515
0.1996365
0.2011947
0.2025805
0.2048522
0.171225
0.1684498
0.1697658
0.2069721
0.2059742
0.2069518
0.2037063
0.2060102
0.2068982
0.2012113
0.2036758
0.2058489
0.2067929
0.1986931
0.2010859
0.2033579
0.2053318
0.2065643
0.1962417
0.1984938
0.2006541
0.2026194
0.2043297
0.2060226
0.1939101
0.1960075
0.1980164
0.1998397
0.201434
0.2028466
0.2050023
0.1917363
0.1936966
0.1955636
0.1972612
0.1987088
0.1999023
0.2009577
0.2034398
0.173771
0.1695763
0.1710212
0.1679139
0.168268
0.1693681
0.2069638
0.2058714
0.2069411
0.203631
0.2059405
0.2068885
0.2012113
0.2036758
0.2058489
0.2067929
0.1987652
0.2011758
0.2034691
0.2054492
0.2066002
0.1963597
0.1986443
0.2008475
0.2028551
0.2045869
0.206145
0.1940354
0.1961709
0.1982298
0.2001038
0.2017476
0.2031934
0.205209
0.1918228
0.1938143
0.195719
0.1974531
0.1989341
0.2001654
0.201268
0.203663
0.1897545
0.1916207
0.1933952
0.1950046
0.1963799
0.1974457
0.1982291
0.1988695
0.2013079
0.1776979
0.1718473
0.173551
0.168957
0.169391
0.1706154
0.1675428
0.1677467
0.1679048
0.1687732
0.2069576
0.2057512
0.2069295
0.2035002
0.2058142
0.2068716
0.2011357
0.2035857
0.2057582
0.2067752
0.1987652
0.2011758
0.2034691
0.2054492
0.2066002
0.1964278
0.1987299
0.200957
0.202988
0.2047311
0.2062135
0.1941469
0.1963127
0.1984131
0.2003311
0.202018
0.20349
0.2053902
0.1919413
0.1939687
0.19592
0.1977019
0.1992292
0.2005135
0.201674
0.2039699
0.1898367
0.1917321
0.1935421
0.1951852
0.1965911
0.197688
0.1985206
0.199254
0.2017251
0.1878631
0.1896448
0.1913352
0.1928677
0.194171
0.1951845
0.1958313
0.1961493
0.1962361
0.1980425
0.1833766
0.1753345
0.1774166
0.1710592
0.1716492
0.1731184
0.1685149
0.1687868
0.1690218
0.1700107
0.1671262
0.1673873
0.1674128
0.1673615
0.1679826
0.2056596
0.2069193
0.2033529
0.2056612
0.206849
0.2010048
0.2034271
0.2055921
0.2067411
0.1986931
0.2010859
0.2033579
0.2053318
0.2065643
0.1964278
0.1987299
0.200957
0.202988
0.2047311
0.2062135
0.1942111
0.1963935
0.1985168
0.2004597
0.202171
0.2036571
0.2054935
0.1920468
0.1941025
0.1960925
0.1979156
0.1994846
0.2008156
0.2020217
0.2042338
0.1899492
0.1918781
0.1937318
0.195419
0.196867
0.1980091
0.1989092
0.1997503
0.2022296
0.1879414
0.1897506
0.1914743
0.1930383
0.1943693
0.1954103
0.1960954
0.1964989
0.1967964
0.1990409
0.1860532
0.1877587
0.1893739
0.1908356
0.1920809
0.1930415
0.1936622
0.193851
0.1936147
0.1928938
0.1926383
0.1803365
0.1827956
0.1742851
0.175086
0.1768927
0.1704735
0.1708776
0.1712591
0.1724835
0.1680385
0.1683567
0.1684477
0.1684714
0.1692102
0.1665927
0.1669804
0.1670768
0.1669131
0.166639
0.1668436
0.2032452
0.2055394
0.206828
0.2008579
0.203244
0.2053911
0.2066947
0.198568
0.2009281
0.2031609
0.2051197
0.2064966
0.1963597
0.1986443
0.2008475
0.2028551
0.2045869
0.206145
0.1942111
0.1963935
0.1985168
0.2004597
0.202171
0.2036571
0.2054935
0.1921076
0.1941787
0.1961901
0.1980364
0.1996296
0.2009869
0.2022176
0.2043824
0.1900494
0.1920048
0.1938945
0.1956197
0.1971053
0.1982887
0.1992467
0.2001691
0.2026282
0.1880486
0.1898893
0.1916538
0.1932589
0.1946282
0.1957088
0.1964486
0.1969576
0.1974605
0.1999348
0.186128
0.1878595
0.189506
0.1909972
0.1922683
0.1932533
0.1939079
0.1941668
0.1941221
0.1939559
0.1955096
0.1843175
0.1859535
0.1875007
0.1888995
0.1900901
0.1910148
0.1916047
0.1918005
0.1914661
0.1904864
0.1883668
0.1899419
0.1789078
0.1798374
0.1819301
0.173478
0.1740577
0.1746217
0.176167
0.1698765
0.1703049
0.1705199
0.1706856
0.171656
0.167453
0.1678902
0.1680415
0.167942
0.167742
0.168061
0.1659757
0.1664551
0.1666891
0.166612
0.1662485
0.1655977
0.1666089
0.2007508
0.2031042
0.2052302
0.2066522
0.1984274
0.2007465
0.2029311
0.2048667
0.2064086
0.1962417
0.1984938
0.2006541
0.2026194
0.2043297
0.2060226
0.1941469
0.1963127
0.1984131
0.2003311
0.202018
0.20349
0.2053902
0.1921076
0.1941787
0.1961901
0.1980364
0.1996296
0.2009869
0.2022176
0.2043824
0.1901071
0.1920769
0.1939866
0.1957332
0.1972403
0.1984479
0.199438
0.2004027
0.202842
0.188144
0.1900096
0.1918079
0.1934482
0.1948516
0.195968
0.1967566
0.1973492
0.1979909
0.2005439
0.1862304
0.1879916
0.1896766
0.1912061
0.1925128
0.1935331
0.1942354
0.1945827
0.1947289
0.1949456
0.1970317
0.184389
0.1860498
0.1876266
0.1890531
0.1902678
0.1912152
0.1918352
0.1920948
0.1919298
0.1914605
0.1910156
0.193318
0.1826495
0.184222
0.1857072
0.1870488
0.1881915
0.1890795
0.1896581
0.1898492
0.1895627
0.1885478
0.1863181
0.1860924
0.1878464
0.1777809
0.1784505
0.1790886
0.1809236
0.1726954
0.1732672
0.1736329
0.1739755
0.1752698
0.1691861
0.1697186
0.1699728
0.1699941
0.1699366
0.1704841
0.1667908
0.1673131
0.1675947
0.1675713
0.1672717
0.1666942
0.1678243
0.1652897
0.1658454
0.1661804
0.1662531
0.1659937
0.1652905
0.1653832
0.1663722
0.1983249
0.2006082
0.2027535
0.2046679
0.2063317
0.196109
0.1983205
0.2004292
0.2023447
0.2040284
0.2058785
0.1940354
0.1961709
0.1982298
0.2001038
0.2017476
0.2031934
0.205209
0.1920468
0.1941025
0.1960925
0.1979156
0.1994846
0.2008156
0.2020217
0.2042338
0.1901071
0.1920769
0.1939866
0.1957332
0.1972403
0.1984479
0.199438
0.2004027
0.202842
0.1881989
0.190078
0.191895
0.1935552
0.1949782
0.1961153
0.1969318
0.1975687
0.1982778
0.200848
0.1863214
0.1881062
0.1898229
0.1913854
0.1927234
0.1937759
0.1945201
0.1949388
0.1952167
0.1956484
0.1979125
0.184487
0.186176
0.1877891
0.1892518
0.1904995
0.1914795
0.1921423
0.1924811
0.1924848
0.1923694
0.1925161
0.1951642
0.1827181
0.1843142
0.1858275
0.1871953
0.1883607
0.1892698
0.1898765
0.1901258
0.1899965
0.1894494
0.1887639
0.1891683
0.1913773
0.1810438
0.182558
0.1839863
0.1852757
0.1863741
0.1872313
0.187793
0.1879994
0.1877405
0.1868266
0.1846742
0.1842271
0.1843136
0.1861326
0.1767316
0.177357
0.1777655
0.1782112
0.1798448
0.1718439
0.1724982
0.1728733
0.1730419
0.173173
0.1740548
0.1684327
0.1690372
0.1694075
0.1694845
0.1693072
0.1688742
0.1702428
0.1660645
0.1666583
0.1670345
0.1671539
0.1669482
0.1663087
0.1664784
0.1675855
0.1645593
0.1651657
0.165585
0.1657691
0.1656732
0.1651023
0.165093
0.1651668
0.1661335
0.1960123
0.1981885
0.2002557
0.202133
0.2037981
0.2057676
0.1939101
0.1960075
0.1980164
0.1998397
0.201434
0.2028466
0.2050023
0.1919413
0.1939687
0.19592
0.1977019
0.1992292
0.2005135
0.201674
0.2039699
0.1900494
0.1920048
0.1938945
0.1956197
0.1971053
0.1982887
0.1992467
0.2001691
0.2026282
0.1881989
0.190078
0.191895
0.1935552
0.1949782
0.1961153
0.1969318
0.1975687
0.1982778
0.200848
0.1863739
0.1881713
0.1899056
0.1914867
0.1928427
0.1939138
0.1946818
0.195139
0.1954815
0.1960081
0.1983247
0.1845742
0.1862854
0.1879285
0.1894221
0.1906992
0.1917087
0.1924093
0.1928111
0.1929315
0.1930163
0.1934281
0.1962052
0.1828121
0.184435
0.1859828
0.1873847
0.1885811
0.1895207
0.1901671
0.1904889
0.1905144
0.1902894
0.1901503
0.1909351
0.1934343
0.1811097
0.1826464
0.1841015
0.1854157
0.1865355
0.1874126
0.1880006
0.1882619
0.1881491
0.187672
0.1869487
0.1870711
0.1875238
0.1896785
0.1794957
0.1809559
0.1823319
0.1835733
0.1846312
0.1854586
0.186008
0.1862191
0.1860053
0.1851628
0.1831961
0.1827324
0.1825958
0.1828477
0.1846865
0.1756487
0.1763349
0.1767221
0.1769639
0.1772632
0.1785479
0.1709504
0.1716581
0.1721295
0.1723252
0.172308
0.1720817
0.173805
0.1676252
0.1682917
0.168744
0.16895
0.1688466
0.1683327
0.1686554
0.1699996
0.1652981
0.1659385
0.1663943
0.1666187
0.1665695
0.1660527
0.1661103
0.1662607
0.1673448
0.1637965
0.1644411
0.1649182
0.1651953
0.1652219
0.164837
0.1649186
0.164894
0.1649486
0.1658928
0.1938187
0.1958829
0.1978515
0.1996365
0.2011947
0.2025805
0.2048522
0.1918228
0.1938143
0.195719
0.1974531
0.1989341
0.2001654
0.201268
0.203663
0.1899492
0.1918781
0.1937318
0.195419
0.196867
0.1980091
0.1989092
0.1997503
0.2022296
0.188144
0.1900096
0.1918079
0.1934482
0.1948516
0.195968
0.1967566
0.1973492
0.1979909
0.2005439
0.1863739
0.1881713
0.1899056
0.1914867
0.1928427
0.1939138
0.1946818
0.195139
0.1954815
0.1960081
0.1983247
0.1846244
0.1863476
0.1880073
0.1895184
0.1908122
0.1918389
0.1925609
0.1929962
0.1931741
0.1933478
0.1938678
0.1966834
0.1828957
0.1845397
0.1861159
0.187547
0.188771
0.1897382
0.1904195
0.190799
0.1909301
0.1908868
0.1909939
0.1919741
0.1945976
0.1812
0.1827623
0.1842502
0.1855968
0.1867459
0.1876517
0.1882768
0.188606
0.188637
0.1884586
0.1882365
0.1887065
0.1894662
0.1918555
0.1795591
0.1810409
0.1824424
0.1837074
0.1847857
0.1856319
0.1862062
0.1864689
0.1863931
0.1859601
0.1853301
0.1853793
0.1855674
0.1860765
0.1882044
0.178001
0.1794111
0.1807387
0.1819358
0.1829562
0.1837564
0.1842918
0.1845105
0.1843259
0.1835656
0.1817422
0.1813768
0.1812191
0.1812552
0.1815996
0.183261
0.1745544
0.1752752
0.1757408
0.1759795
0.1760989
0.1761141
0.1782826
0.1700184
0.1707746
0.1713108
0.1716165
0.1716447
0.17131
0.1718573
0.1735537
0.1667862
0.1674913
0.168014
0.1683128
0.1683523
0.1679415
0.168132
0.1684349
0.1697545
0.1645026
0.165178
0.1656875
0.1660004
0.1660675
0.1657299
0.1658682
0.1659102
0.1660412
0.1671022
0.1630133
0.1636835
0.164205
0.1645476
0.1646767
0.164433
0.1646647
0.1647334
0.1646932
0.1647286
0.1655991
0.1917363
0.1936966
0.1955636
0.1972612
0.1987088
0.1999023
0.2009577
0.2034398
0.1898367
0.1917321
0.1935421
0.1951852
0.1965911
0.197688
0.1985206
0.199254
0.2017251
0.1880486
0.1898893
0.1916538
0.1932589
0.1946282
0.1957088
0.1964486
0.1969576
0.1974605
0.1999348
0.1863214
0.1881062
0.1898229
0.1913854
0.1927234
0.1937759
0.1945201
0.1949388
0.1952167
0.1956484
0.1979125
0.1846244
0.1863476
0.1880073
0.1895184
0.1908122
0.1918389
0.1925609
0.1929962
0.1931741
0.1933478
0.1938678
0.1966834
0.1829438
0.1845993
0.1861912
0.1876387
0.1888785
0.1898617
0.1905627
0.1909729
0.1911555
0.191193
0.191401
0.1924643
0.1951282
0.1812803
0.1828627
0.1843777
0.185752
0.1869271
0.1878588
0.1885167
0.1888996
0.1890286
0.1890171
0.1890193
0.1896693
0.1906041
0.1930999
0.179646
0.1811522
0.1825851
0.1838809
0.1849869
0.1858603
0.1864698
0.1867964
0.1868559
0.1867021
0.1865379
0.1869006
0.187368
0.1881219
0.1904335
0.1780622
0.1794929
0.1808449
0.1820646
0.1831043
0.1839223
0.1844814
0.1847492
0.1846951
0.1843218
0.1837549
0.1838607
0.1839864
0.1842477
0.1848135
0.1867436
0.1765562
0.1779195
0.1792021
0.1803581
0.1813438
0.1821184
0.1826409
0.1828627
0.1827077
0.1820084
0.1803264
0.1800284
0.1799598
0.1799769
0.1801177
0.1803568
0.1829717
0.1734439
0.174201
0.174716
0.1750461
0.1751785
0.1750521
0.175879
0.1780168
0.1690679
0.1698513
0.1704459
0.1708276
0.1709794
0.1707192
0.1711049
0.1716316
0.1733009
0.1659249
0.1666585
0.1672274
0.1676056
0.1677493
0.1675041
0.1677551
0.1679298
0.1682127
0.1695076
0.1636897
0.1643878
0.1649386
0.165313
0.1654782
0.1652755
0.1655569
0.1656821
0.1657085
0.1658199
0.1668061
0.1622173
0.1629051
0.1634578
0.1638516
0.1640544
0.1639291
0.1642704
0.164491
0.1645466
0.1644908
0.1644601
0.1652988
0.1897545
0.1916207
0.1933952
0.1950046
0.1963799
0.1974457
0.1982291
0.1988695
0.2013079
0.1879414
0.1897506
0.1914743
0.1930383
0.1943693
0.1954103
0.1960954
0.1964989
0.1967964
0.1990409
0.1862304
0.1879916
0.1896766
0.1912061
0.1925128
0.1935331
0.1942354
0.1945827
0.1947289
0.1949456
0.1970317
0.1845742
0.1862854
0.1879285
0.1894221
0.1906992
0.1917087
0.1924093
0.1928111
0.1929315
0.1930163
0.1934281
0.1962052
0.1829438
0.1845993
0.1861912
0.1876387
0.1888785
0.1898617
0.1905627
0.1909729
0.1911555
0.191193
0.191401
0.1924643
0.1951282
0.1813266
0.1829198
0.1844497
0.1858396
0.1870296
0.1879764
0.1886528
0.1890642
0.189241
0.1893029
0.1893969
0.1901241
0.1911359
0.1936669
0.1797233
0.1812487
0.1827074
0.1840295
0.1851602
0.1860581
0.1866985
0.1870758
0.1872271
0.1872289
0.1872714
0.1877957
0.1884243
0.1893277
0.1917185
0.1781459
0.1796
0.180982
0.182231
0.1832972
0.184141
0.1847334
0.1850619
0.1851357
0.1850255
0.1848943
0.1852881
0.185663
0.1861465
0.1869083
0.1889704
0.1766152
0.1779984
0.1793044
0.1804819
0.1814861
0.1822776
0.1828226
0.1830911
0.1830604
0.1827279
0.1822341
0.1823712
0.1825572
0.1827652
0.1831003
0.1835549
0.1864472
0.1751579
0.1764776
0.1777182
0.1788358
0.1797892
0.1805398
0.1810496
0.1812738
0.1811411
0.1804994
0.1789303
0.1787038
0.178694
0.1787975
0.1789241
0.1789895
0.1801045
0.1826844
0.1723339
0.1731083
0.1736719
0.174062
0.174297
0.1742096
0.1748379
0.1756434
0.1777508
0.1681057
0.1689088
0.1695391
0.1699885
0.1702275
0.1701131
0.170529
0.1708984
0.1714044
0.1730466
0.1650521
0.1658029
0.1664069
0.1668392
0.167072
0.1669497
0.1673295
0.1675672
0.167726
0.1679888
0.1692065
0.1628664
0.1635797
0.164159
0.1645815
0.1648165
0.1647278
0.1651123
0.1653824
0.1654946
0.1655052
0.16555
0.1665033
0.161414
0.1621134
0.1626889
0.1631199
0.1633813
0.1633435
0.1637751
0.1641065
0.1643158
0.1643583
0.1642438
0.1641857
0.1650705
0.1878631
0.1896448
0.1913352
0.1928677
0.194171
0.1951845
0.1958313
0.1961493
0.1962361
0.1980425
0.186128
0.1878595
0.189506
0.1909972
0.1922683
0.1932533
0.1939079
0.1941668
0.1941221
0.1939559
0.1955096
0.184487
0.186176
0.1877891
0.1892518
0.1904995
0.1914795
0.1921423
0.1924811
0.1924848
0.1923694
0.1925161
0.1951642
0.1828957
0.1845397
0.1861159
0.187547
0.188771
0.1897382
0.1904195
0.190799
0.1909301
0.1908868
0.1909939
0.1919741
0.1945976
0.1813266
0.1829198
0.1844497
0.1858396
0.1870296
0.1879764
0.1886528
0.1890642
0.189241
0.1893029
0.1893969
0.1901241
0.1911359
0.1936669
0.1797678
0.1813035
0.1827765
0.1841135
0.1852583
0.1861703
0.1868282
0.1872323
0.1874282
0.1874985
0.187625
0.1882183
0.1889184
0.1898894
0.1923045
0.1782203
0.1796929
0.1810995
0.1823736
0.1834633
0.1843304
0.1849521
0.1853286
0.1854891
0.1855249
0.1855864
0.1861276
0.1866461
0.1872675
0.1881511
0.1902577
0.176696
0.1781016
0.1794363
0.1806419
0.1816713
0.1824874
0.1830642
0.1833904
0.1834812
0.1833977
0.1833145
0.1837181
0.1841309
0.1845346
0.1850477
0.1856583
0.1886731
0.1752149
0.1765536
0.1778167
0.1789551
0.179926
0.1806929
0.1812241
0.1814929
0.1814787
0.1811861
0.1807445
0.1809243
0.1811442
0.1814153
0.1817049
0.1819623
0.1832994
0.1861528
0.1738032
0.175082
0.1762833
0.1773652
0.1782883
0.1790164
0.1795139
0.1797391
0.1796261
0.1790313
0.177565
0.1773886
0.1774408
0.1775998
0.1778132
0.1778817
0.1787606
0.1798538
0.1823989
0.1712271
0.1720141
0.1726058
0.1730531
0.1733567
0.1733911
0.1740114
0.1746233
0.1754075
0.1774843
0.1671409
0.1679536
0.1686112
0.1691046
0.1694204
0.1694114
0.1699351
0.1703375
0.1706907
0.1711759
0.1727371
0.1641737
0.1649352
0.1655625
0.1660369
0.166332
0.1663147
0.1667851
0.1671535
0.1673779
0.1675206
0.1677157
0.1688985
0.1620379
0.1627608
0.1633606
0.1638177
0.1641081
0.164103
0.1645732
0.1649478
0.1652065
0.1653055
0.165257
0.165274
0.1662731
0.1606076
0.1613142
0.1619059
0.1623652
0.1626703
0.1627033
0.163197
0.1636198
0.1639412
0.1641391
0.1641285
0.1639914
0.1639772
0.1649157
0.1860532
0.1877587
0.1893739
0.1908356
0.1920809
0.1930415
0.1936622
0.193851
0.1936147
0.1928938
0.1926383
0.184389
0.1860498
0.1876266
0.1890531
0.1902678
0.1912152
0.1918352
0.1920948
0.1919298
0.1914605
0.1910156
0.193318
0.1828121
0.184435
0.1859828
0.1873847
0.1885811
0.1895207
0.1901671
0.1904889
0.1905144
0.1902894
0.1901503
0.1909351
0.1934343
0.1812803
0.1828627
0.1843777
0.185752
0.1869271
0.1878588
0.1885167
0.1888996
0.1890286
0.1890171
0.1890193
0.1896693
0.1906041
0.1930999
0.1797678
0.1813035
0.1827765
0.1841135
0.1852583
0.1861703
0.1868282
0.1872323
0.1874282
0.1874985
0.187625
0.1882183
0.1889184
0.1898894
0.1923045
0.1782633
0.1797457
0.1811659
0.1824542
0.1835573
0.1844379
0.1850761
0.185478
0.1856806
0.1857805
0.18592
0.1865237
0.187106
0.1877903
0.1887299
0.1908449
0.1767678
0.1781911
0.1795494
0.180779
0.1818308
0.1826691
0.1832738
0.1836455
0.1838186
0.1838731
0.1839707
0.1845102
0.1850535
0.185579
0.186205
0.1869096
0.1899605
0.1752929
0.1766532
0.1779439
0.1791091
0.1801042
0.1808945
0.1814561
0.18178
0.1818814
0.1818255
0.1817724
0.1822013
0.1826291
0.1830765
0.1835208
0.1839215
0.1854043
0.1883773
0.1738584
0.1751554
0.1763784
0.1774801
0.1784201
0.1791637
0.1796817
0.1799496
0.1799499
0.1796883
0.1792956
0.1795002
0.1797631
0.1800695
0.1804244
0.1806552
0.1817314
0.1830457
0.1858603
0.1724895
0.1737298
0.1748943
0.1759427
0.1768374
0.1775443
0.1780298
0.1782554
0.178159
0.177606
0.1762271
0.1760954
0.1761887
0.1764054
0.1766734
0.1768395
0.1776702
0.1785331
0.1796046
0.1821153
0.1701307
0.1709217
0.1715353
0.172018
0.1723858
0.172504
0.1732057
0.1738128
0.1744084
0.1751711
0.1771614
0.1661782
0.1669954
0.1676694
0.1681971
0.1685648
0.168648
0.1692436
0.1697559
0.1701449
0.1704818
0.1708977
0.1724203
0.1632946
0.1640616
0.164705
0.1652088
0.1655533
0.1656122
0.1661588
0.1666191
0.1669761
0.1671871
0.1672701
0.1674365
0.1686643
0.1612082
0.1619365
0.1625505
0.1630336
0.1633651
0.1634277
0.163956
0.1644173
0.1647819
0.1650292
0.1650747
0.1650035
0.1650644
0.166117
0.1598012
0.1605115
0.1611147
0.1615953
0.1619345
0.1620221
0.1625636
0.1630493
0.1634631
0.1637745
0.1639236
0.1638938
0.1637999
0.1638361
0.1648367
0.1833766
0.1843175
0.1859535
0.1875007
0.1888995
0.1900901
0.1910148
0.1916047
0.1918005
0.1914661
0.1904864
0.1883668
0.1899419
0.1827181
0.1843142
0.1858275
0.1871953
0.1883607
0.1892698
0.1898765
0.1901258
0.1899965
0.1894494
0.1887639
0.1891683
0.1913773
0.1812
0.1827623
0.1842502
0.1855968
0.1867459
0.1876517
0.1882768
0.188606
0.188637
0.1884586
0.1882365
0.1887065
0.1894662
0.1918555
0.1797233
0.1812487
0.1827074
0.1840295
0.1851602
0.1860581
0.1866985
0.1870758
0.1872271
0.1872289
0.1872714
0.1877957
0.1884243
0.1893277
0.1917185
0.1782633
0.1797457
0.1811659
0.1824542
0.1835573
0.1844379
0.1850761
0.185478
0.1856806
0.1857805
0.18592
0.1865237
0.187106
0.1877903
0.1887299
0.1908449
0.1768092
0.178242
0.1796133
0.1808565
0.1819211
0.1827722
0.1833926
0.1837885
0.1840014
0.1841164
0.184287
0.1848841
0.1854849
0.186066
0.1867446
0.1874925
0.1905477
0.1753623
0.1767396
0.1780529
0.1792412
0.1802576
0.1810691
0.1816573
0.1820247
0.1822043
0.1822793
0.1823969
0.1829524
0.1834998
0.184057
0.1845999
0.1850891
0.186657
0.1896643
0.1739339
0.1752517
0.1765011
0.1776287
0.1785918
0.1793577
0.1799048
0.1802254
0.1803362
0.1803
0.1802765
0.180715
0.1811709
0.1816372
0.1821299
0.1824835
0.1836926
0.1851515
0.1880829
0.1725429
0.1738009
0.1749862
0.1760536
0.1769646
0.1776863
0.1781915
0.178458
0.1784701
0.1782357
0.1778819
0.1781097
0.1783972
0.1787462
0.1791373
0.1794448
0.1804423
0.1815021
0.1827935
0.1855698
0.1712144
0.1724185
0.1735483
0.1745652
0.1754334
0.1761202
0.1765943
0.1768193
0.1767374
0.1762209
0.1749201
0.1748228
0.1749519
0.1752052
0.175529
0.1757575
0.1766419
0.17746
0.1783071
0.1793569
0.1817743
0.1690473
0.1698383
0.1704643
0.1709753
0.1713843
0.1715791
0.1723295
0.17302
0.1736139
0.1741932
0.1748846
0.1768309
0.1652214
0.1660386
0.1667232
0.1672738
0.1676828
0.1678309
0.1684892
0.1690748
0.1695756
0.1699512
0.1702274
0.1706132
0.1721795
0.162418
0.1631868
0.1638407
0.1643663
0.1647467
0.1648671
0.165464
0.1660016
0.1664519
0.1667973
0.1669545
0.1670142
0.1672245
0.1685054
0.1603801
0.1611106
0.1617344
0.1622368
0.1626001
0.1627147
0.1632875
0.1638078
0.1642601
0.1646147
0.1648129
0.1648391
0.1648111
0.1649224
0.1660373
0.158997
0.1597085
0.1603194
0.160816
0.1611818
0.1613136
0.1618886
0.1624227
0.1629003
0.1633052
0.1635712
0.1637034
0.1637157
0.1636702
0.1637641
0.1776979
0.1803365
0.1827956
0.1826495
0.184222
0.1857072
0.1870488
0.1881915
0.1890795
0.1896581
0.1898492
0.1895627
0.1885478
0.1863181
0.1860924
0.1878464
0.1811097
0.1826464
0.1841015
0.1854157
0.1865355
0.1874126
0.1880006
0.1882619
0.1881491
0.187672
0.1869487
0.1870711
0.1875238
0.1896785
0.179646
0.1811522
0.1825851
0.1838809
0.1849869
0.1858603
0.1864698
0.1867964
0.1868559
0.1867021
0.1865379
0.1869006
0.187368
0.1881219
0.1904335
0.1782203
0.1796929
0.1810995
0.1823736
0.1834633
0.1843304
0.1849521
0.1853286
0.1854891
0.1855249
0.1855864
0.1861276
0.1866461
0.1872675
0.1881511
0.1902577
0.1768092
0.178242
0.1796133
0.1808565
0.1819211
0.1827722
0.1833926
0.1837885
0.1840014
0.1841164
0.184287
0.1848841
0.1854849
0.186066
0.1867446
0.1874925
0.1905477
0.1754023
0.1767887
0.1781145
0.1793157
0.1803444
0.1811681
0.1817713
0.1821617
0.1823793
0.1825115
0.1826979
0.1833069
0.183907
0.1845141
0.185103
0.1856338
0.1872406
0.1902515
0.174001
0.1753351
0.1766063
0.1777559
0.1787395
0.1795257
0.1800983
0.1804605
0.1806459
0.1807343
0.1808725
0.1814297
0.1819965
0.1825626
0.1831433
0.1835732
0.1848621
0.1864053
0.1893692
0.172616
0.173894
0.1751048
0.176197
0.1771301
0.1778733
0.1784064
0.1787234
0.1788412
0.1788223
0.1788201
0.1792688
0.1797364
0.1802326
0.180747
0.1811625
0.1822728
0.183465
0.1849
0.1877899
0.1712662
0.1724873
0.1736372
0.1746725
0.1755561
0.1762572
0.1767502
0.1770146
0.1770367
0.1768257
0.1765058
0.1767487
0.1770585
0.1774315
0.1778646
0.1782162
0.1792461
0.1802308
0.1812743
0.1825431
0.1852205
0.1699756
0.1711456
0.1722427
0.17323
0.1740731
0.174741
0.1752041
0.1754282
0.1753587
0.1748749
0.1736436
0.1735752
0.1737302
0.1740148
0.174373
0.1746628
0.1755716
0.1764456
0.1772512
0.1780824
0.179059
0.1814253
0.1679792
0.1687668
0.1694005
0.1699294
0.1703716
0.1706182
0.171414
0.1721547
0.1728341
0.1734147
0.1739322
0.1745916
0.1765795
0.1642728
0.1650872
0.1657775
0.1663444
0.1667823
0.1669834
0.1676801
0.1683294
0.168905
0.1693942
0.1697153
0.1699674
0.1703971
0.172016
0.1615463
0.1623142
0.1629745
0.1635157
0.1639237
0.1640909
0.1647259
0.1653146
0.1658432
0.1662834
0.1665793
0.1667169
0.1668199
0.1670808
0.1684243
0.1595558
0.160286
0.160916
0.1614327
0.1618207
0.1619772
0.1625808
0.1631462
0.1636584
0.1641016
0.1644106
0.1645919
0.1646603
0.1646808
0.16485
0.1581967
0.1589075
0.1595234
0.1600319
0.1604186
0.1605859
0.1611856
0.1617539
0.1622806
0.1627501
0.1631124
0.1633635
0.1635365
0.1635952
0.1636041
0.173771
0.1753345
0.1774166
0.1789078
0.1798374
0.1819301
0.1810438
0.182558
0.1839863
0.1852757
0.1863741
0.1872313
0.187793
0.1879994
0.1877405
0.1868266
0.1846742
0.1842271
0.1843136
0.1861326
0.1795591
0.1810409
0.1824424
0.1837074
0.1847857
0.1856319
0.1862062
0.1864689
0.1863931
0.1859601
0.1853301
0.1853793
0.1855674
0.1860765
0.1882044
0.1781459
0.1796
0.180982
0.182231
0.1832972
0.184141
0.1847334
0.1850619
0.1851357
0.1850255
0.1848943
0.1852881
0.185663
0.1861465
0.1869083
0.1889704
0.1767678
0.1781911
0.1795494
0.180779
0.1818308
0.1826691
0.1832738
0.1836455
0.1838186
0.1838731
0.1839707
0.1845102
0.1850535
0.185579
0.186205
0.1869096
0.1899605
0.1754023
0.1767887
0.1781145
0.1793157
0.1803444
0.1811681
0.1817713
0.1821617
0.1823793
0.1825115
0.1826979
0.1833069
0.183907
0.1845141
0.185103
0.1856338
0.1872406
0.1902515
0.1740397
0.1753825
0.1766658
0.1778278
0.1788231
0.1796211
0.180208
0.1805921
0.1808137
0.1809565
0.1811598
0.181767
0.1823826
0.1829941
0.1836157
0.1840816
0.1854077
0.1869896
0.1899561
0.172681
0.1739746
0.1752064
0.1763199
0.1772726
0.1780352
0.1785927
0.1789495
0.1791387
0.1792387
0.1793902
0.1799508
0.1805219
0.1811101
0.1817036
0.1821863
0.1833644
0.1846361
0.1861547
0.1890752
0.171337
0.1725774
0.1737519
0.174811
0.175716
0.1764377
0.1769574
0.1772703
0.1773939
0.1773891
0.1774051
0.1778573
0.1783363
0.1788454
0.1793908
0.1798377
0.180966
0.1820632
0.1832386
0.1846497
0.1874371
0.1700258
0.1712123
0.1723288
0.1733338
0.1741918
0.1748734
0.1753546
0.1756166
0.1756472
0.1754566
0.1751659
0.1754207
0.1757445
0.1761384
0.1765944
0.1769938
0.1780294
0.1790487
0.1800208
0.1810481
0.1822419
0.1848631
0.1687712
0.1699088
0.1709753
0.1719346
0.172754
0.173404
0.1738565
0.1740794
0.1740208
0.1735661
0.1723976
0.1723532
0.1725291
0.172835
0.1732219
0.1735506
0.174487
0.175387
0.1762506
0.1770438
0.1778123
0.1787544
0.18116
0.1669276
0.1677097
0.1683468
0.1688884
0.1693527
0.1696417
0.1704614
0.1712487
0.1719797
0.1726478
0.1731732
0.1736655
0.1743689
0.1764089
0.1633343
0.1641437
0.1648364
0.1654141
0.1658738
0.1661141
0.1668396
0.1675283
0.1681686
0.1687341
0.1691734
0.1694742
0.16977
0.1702506
0.1719325
0.1606814
0.1614463
0.1621099
0.1626622
0.1630911
0.1632957
0.1639559
0.1645834
0.165164
0.1656837
0.1660779
0.1663567
0.1665365
0.1666884
0.1670075
0.1587367
0.1594649
0.1600984
0.1606256
0.1610328
0.1612229
0.1618488
0.1624457
0.1630037
0.1635077
0.1639083
0.1642022
0.1644244
0.1645393
0.1646144
0.1574017
0.1581103
0.1587288
0.1592462
0.1596493
0.1598458
0.1604631
0.1610566
0.1616181
0.1621374
0.1625669
0.1629157
0.1632061
0.1634236
0.1635339
0.171225
0.1718473
0.173551
0.1742851
0.175086
0.1768927
0.1777809
0.1784505
0.1790886
0.1809236
0.1794957
0.1809559
0.1823319
0.1835733
0.1846312
0.1854586
0.186008
0.1862191
0.1860053
0.1851628
0.1831961
0.1827324
0.1825958
0.1828477
0.1846865
0.1780622
0.1794929
0.1808449
0.1820646
0.1831043
0.1839223
0.1844814
0.1847492
0.1846951
0.1843218
0.1837549
0.1838607
0.1839864
0.1842477
0.1848135
0.1867436
0.176696
0.1781016
0.1794363
0.1806419
0.1816713
0.1824874
0.1830642
0.1833904
0.1834812
0.1833977
0.1833145
0.1837181
0.1841309
0.1845346
0.1850477
0.1856583
0.1886731
0.1753623
0.1767396
0.1780529
0.1792412
0.1802576
0.1810691
0.1816573
0.1820247
0.1822043
0.1822793
0.1823969
0.1829524
0.1834998
0.184057
0.1845999
0.1850891
0.186657
0.1896643
0.1740397
0.1753825
0.1766658
0.1778278
0.1788231
0.1796211
0.180208
0.1805921
0.1808137
0.1809565
0.1811598
0.181767
0.1823826
0.1829941
0.1836157
0.1840816
0.1854077
0.1869896
0.1899561
0.1727184
0.1740205
0.1752638
0.1763893
0.1773533
0.1781271
0.1786983
0.1790761
0.1792999
0.1794517
0.1796651
0.1802727
0.1808893
0.1815193
0.1821496
0.1826638
0.1838737
0.1851825
0.1867393
0.1896617
0.1714
0.1726555
0.1738503
0.1749298
0.1758536
0.1765939
0.1771371
0.1774881
0.1776801
0.177789
0.1779516
0.1785096
0.1790859
0.1796803
0.1802979
0.1808043
0.1819916
0.1831565
0.184411
0.185905
0.1887207
0.1700945
0.1712996
0.1724399
0.1734679
0.1743464
0.1750478
0.1755547
0.1758633
0.1759913
0.1759986
0.1760294
0.1764832
0.1769665
0.1774875
0.1780462
0.1785313
0.179653
0.1807705
0.1818547
0.1830134
0.1843484
0.1870761
0.16882
0.1699735
0.1710588
0.1720351
0.1728689
0.1735321
0.1740021
0.1742613
0.1742991
0.1741264
0.1738613
0.1741247
0.1744591
0.1748655
0.175341
0.1757678
0.1768172
0.1778438
0.1788527
0.1798122
0.1807762
0.1819338
0.1845912
0.167599
0.1687064
0.1697436
0.1706767
0.1714737
0.1721067
0.172549
0.1727703
0.1727215
0.172293
0.1711813
0.1711573
0.1713495
0.171672
0.1720777
0.1724387
0.1733838
0.1743124
0.1752035
0.1760568
0.1767943
0.1775362
0.1785229
0.1809798
0.1658935
0.1666683
0.1673062
0.1678557
0.1683363
0.1686556
0.1694924
0.1703044
0.1710831
0.1718044
0.172422
0.1729264
0.173463
0.174218
0.1763217
0.1624071
0.1632099
0.1639023
0.1644872
0.1649627
0.1652341
0.1659768
0.1666949
0.1673755
0.1680069
0.1685261
0.1689478
0.1692913
0.1696363
0.1701758
0.1598244
0.1605849
0.1612494
0.1618093
0.1622541
0.1624885
0.1631664
0.1638198
0.1644399
0.1650124
0.165489
0.1658681
0.1661879
0.1664145
0.1666213
0.1579241
0.1586489
0.1592839
0.1598185
0.1602406
0.1604582
0.1610997
0.1617194
0.1623095
0.16286
0.1633239
0.1637109
0.1640443
0.1643111
0.1644777
0.1566128
0.1573181
0.1579377
0.1584613
0.1588773
0.1590978
0.1597277
0.1603393
0.1609265
0.1614812
0.1619626
0.1623798
0.1627666
0.1630997
0.1633662
0.169965
0.1695763
0.1710212
0.1710592
0.1716492
0.1731184
0.173478
0.1740577
0.1746217
0.176167
0.1767316
0.177357
0.1777655
0.1782112
0.1798448
0.178001
0.1794111
0.1807387
0.1819358
0.1829562
0.1837564
0.1842918
0.1845105
0.1843259
0.1835656
0.1817422
0.1813768
0.1812191
0.1812552
0.1815996
0.183261
0.1766152
0.1779984
0.1793044
0.1804819
0.1814861
0.1822776
0.1828226
0.1830911
0.1830604
0.1827279
0.1822341
0.1823712
0.1825572
0.1827652
0.1831003
0.1835549
0.1864472
0.1752929
0.1766532
0.1779439
0.1791091
0.1801042
0.1808945
0.1814561
0.18178
0.1818814
0.1818255
0.1817724
0.1822013
0.1826291
0.1830765
0.1835208
0.1839215
0.1854043
0.1883773
0.174001
0.1753351
0.1766063
0.1777559
0.1787395
0.1795257
0.1800983
0.1804605
0.1806459
0.1807343
0.1808725
0.1814297
0.1819965
0.1825626
0.1831433
0.1835732
0.1848621
0.1864053
0.1893692
0.1727184
0.1740205
0.1752638
0.1763893
0.1773533
0.1781271
0.1786983
0.1790761
0.1792999
0.1794517
0.1796651
0.1802727
0.1808893
0.1815193
0.1821496
0.1826638
0.1838737
0.1851825
0.1867393
0.1896617
0.1714363
0.1726999
0.1739058
0.1749968
0.1759315
0.1766826
0.1772389
0.1776101
0.1778352
0.1779937
0.1782151
0.1788176
0.1794365
0.1800697
0.1807209
0.1812552
0.1824701
0.1836666
0.184958
0.18649
0.1893063
0.1701556
0.1713753
0.1725351
0.1735828
0.1744794
0.1751987