/*--------------------------------*- C++ -*----------------------------------*\
| =========                 |                                                 |
| \\      /  F ield         | OpenFOAM: The Open Source CFD Toolbox           |
|  \\    /   O peration     | Version:  2306                                  |
|   \\  /    A nd           | Website:  www.openfoam.com                      |
|    \\/     M anipulation  |                                                 |
\*---------------------------------------------------------------------------*/
FoamFile
{
    version     2.0;
    format      ascii;
    arch        "LSB;label=32;scalar=64";
    class       volScalarField;
    location    "0.3/air";
    object      diffSp.O2;
}
// * * * * * * * * * * * * * * * * * * * * * * * * * * * * * * * * * * * * * //

dimensions      [0 2 -1 0 0 0 0];

internalField   nonuniform List<scalar> 
16000
(
0.0001728093
0.0001708524
0.0001751095
0.0001708226
0.0001698074
0.0001745474
0.0001661683
0.0001756632
0.0001745404
0.0001697517
0.0001692288
0.0001740671
0.0001633735
0.0001753992
0.0001728903
0.0001633326
0.0001761249
0.0001754059
0.0001740509
0.0001691413
0.000168965
0.0001737175
0.0001617405
0.0001751635
0.0001714654
0.0001592091
0.0001759827
0.0001746289
0.0001714431
0.0001616317
0.0001765362
0.0001759955
0.000175174
0.0001736868
0.0001688348
0.000168965
0.0001735333
0.0001609798
0.0001749843
0.0001704231
0.0001566993
0.0001758578
0.0001739248
0.0001691599
0.0001566075
0.0001764495
0.0001755858
0.0001739252
0.0001703591
0.0001607624
0.0001769156
0.000176464
0.0001758802
0.0001749963
0.0001734824
0.0001687769
0.0001026261
0.0001692288
0.0001735333
0.0001609798
0.0001748871
0.0001698727
0.0001555038
0.0001757631
0.0001733847
0.0001674755
0.0001534671
0.0001763756
0.0001752174
0.0001727777
0.0001674168
0.0001552477
0.0001768562
0.0001762213
0.0001752281
0.0001733783
0.0001697459
0.0001606038
0.0001772667
0.0001768707
0.0001764018
0.0001757948
0.0001749001
0.0001734595
0.0001689639
0.0001026194
0.0001028601
0.0001027841
0.0001698074
0.0001737175
0.0001617405
0.0001748871
0.0001698727
0.0001555038
0.0001757118
0.0001730907
0.000166583
0.0001519481
0.0001763209
0.0001749349
0.000171889
0.0001652294
0.0001517504
0.0001768073
0.0001760083
0.0001746317
0.000171876
0.0001664243
0.0001549962
0.0001772209
0.0001767096
0.0001760229
0.0001749563
0.0001730734
0.0001696694
0.0001611484
0.0001775954
0.0001772347
0.0001768337
0.0001763591
0.0001757544
0.0001749039
0.0001736252
0.0001694393
0.0001026048
0.0001028586
0.0001027745
0.0001030943
0.0001030077
0.0001029431
0.0001708524
0.0001740671
0.0001633735
0.0001749843
0.0001704231
0.0001566993
0.0001757118
0.0001730907
0.000166583
0.0001519481
0.0001762916
0.0001747807
0.0001714031
0.000164066
0.0001500447
0.000176772
0.0001758481
0.0001741685
0.0001707036
0.0001639433
0.0001514281
0.0001771843
0.000176572
0.0001756841
0.0001741794
0.0001713666
0.0001662938
0.0001558469
0.0001775568
0.0001771135
0.0001765874
0.0001758805
0.000174817
0.0001730675
0.0001701494
0.0001624954
0.0001779038
0.0001775698
0.0001772096
0.000176811
0.0001763443
0.0001757696
0.000175014
0.0001739741
0.0001703338
0.0001025766
0.0001028559
0.000102752
0.0001030941
0.0001030063
0.0001029312
0.0001033197
0.0001032272
0.0001031554
0.0001031041
0.0001728093
0.0001745474
0.0001661683
0.0001751635
0.0001714654
0.0001592091
0.0001757631
0.0001733847
0.0001674755
0.0001534671
0.0001762916
0.0001747807
0.0001714031
0.000164066
0.0001500447
0.0001767534
0.0001757617
0.000173914
0.0001700598
0.0001626204
0.0001496844
0.0001771585
0.0001764709
0.0001754258
0.0001735699
0.0001700276
0.0001637684
0.0001524981
0.0001775266
0.0001770126
0.0001763731
0.0001754467
0.0001739408
0.0001713457
0.0001670563
0.0001579147
0.0001778693
0.0001774692
0.0001770276
0.0001765062
0.0001758192
0.0001748431
0.0001733771
0.0001711617
0.0001649073
0.0001781947
0.0001778814
0.0001775502
0.000177196
0.0001768076
0.0001763633
0.0001758449
0.0001752259
0.0001744965
0.0001720209
0.0001025016
0.0001028529
0.000102704
0.0001030942
0.0001030038
0.0001029027
0.0001033199
0.0001032278
0.000103154
0.0001030905
0.0001035311
0.0001034384
0.0001033598
0.0001033037
0.0001032657
0.0001751095
0.0001708226
0.0001753992
0.0001728903
0.0001633326
0.0001758578
0.0001739248
0.0001691599
0.0001566075
0.0001763209
0.0001749349
0.000171889
0.0001652294
0.0001517504
0.0001767534
0.0001757617
0.000173914
0.0001700598
0.0001626204
0.0001496844
0.0001771451
0.0001764171
0.0001752853
0.0001732329
0.0001692903
0.0001624205
0.0001508679
0.0001775056
0.0001769402
0.0001762133
0.0001751119
0.0001732484
0.0001699914
0.0001647441
0.0001550712
0.0001778426
0.000177387
0.0001768735
0.0001762373
0.0001753383
0.0001739716
0.0001718379
0.0001686609
0.000161481
0.0001781628
0.0001777921
0.0001774012
0.0001769751
0.0001764806
0.0001758571
0.0001750457
0.0001739788
0.0001726425
0.0001689975
0.0001784695
0.000178174
0.0001778646
0.0001775408
0.0001771974
0.0001768273
0.0001764197
0.0001759807
0.0001755363
0.0001752096
0.000101979
0.0001028589
0.0001025828
0.0001030965
0.0001030019
0.0001028425
0.0001033209
0.0001032302
0.0001031515
0.0001030583
0.0001035315
0.0001034398
0.0001033612
0.0001033023
0.0001032513
0.0001037312
0.0001036374
0.0001035568
0.0001034926
0.0001034512
4.350285e-05
0.0001756632
0.0001745404
0.0001697517
0.0001759827
0.0001746289
0.0001714431
0.0001616317
0.0001763756
0.0001752174
0.0001727777
0.0001674168
0.0001552477
0.000176772
0.0001758481
0.0001741685
0.0001707036
0.0001639433
0.0001514281
0.0001771451
0.0001764171
0.0001752853
0.0001732329
0.0001692903
0.0001624205
0.0001508679
0.0001774948
0.0001769023
0.0001761278
0.0001749285
0.000172864
0.0001692445
0.0001635106
0.0001536993
0.0001778242
0.000177329
0.0001767615
0.0001760346
0.0001749638
0.0001732797
0.0001706252
0.000166794
0.0001594035
0.0001781381
0.00017772
0.0001772775
0.0001767856
0.000176189
0.000175389
0.0001742875
0.0001727931
0.0001709737
0.0001671441
0.0001784394
0.0001780917
0.0001777333
0.0001773623
0.0001769653
0.0001765216
0.0001760022
0.0001754157
0.0001748221
0.0001744981
0.0001013581
0.0001787298
0.0001784499
0.0001781587
0.0001778571
0.0001775441
0.0001772165
0.0001768731
0.0001765165
0.0001761838
0.0001759852
0.0001029764
0.0001021777
0.0001031177
0.0001030103
0.0001027078
0.000103325
0.0001032387
0.0001031492
0.0001029929
0.0001035328
0.0001034438
0.0001033652
0.0001032995
0.0001032176
0.0001037316
0.000103639
0.0001035591
0.0001034944
0.0001034497
4.349667e-05
0.0001039196
0.000103827
0.0001037434
0.0001036752
0.0001036241
4.357863e-05
4.350709e-05
0.0001761249
0.0001754059
0.0001740509
0.0001691413
0.0001764495
0.0001755858
0.0001739252
0.0001703591
0.0001607624
0.0001768073
0.0001760083
0.0001746317
0.000171876
0.0001664243
0.0001549962
0.0001771585
0.0001764709
0.0001754258
0.0001735699
0.0001700276
0.0001637684
0.0001524981
0.0001774948
0.0001769023
0.0001761278
0.0001749285
0.000172864
0.0001692445
0.0001635106
0.0001536993
0.0001778148
0.0001772991
0.0001767025
0.0001759252
0.0001747577
0.0001728944
0.000169956
0.000165799
0.0001584118
0.0001781213
0.0001776697
0.0001771892
0.0001766465
0.0001759671
0.0001750219
0.000173682
0.0001718538
0.0001697206
0.0001660216
0.0001784162
0.0001780255
0.0001776256
0.0001772124
0.0001767644
0.0001762457
0.0001756094
0.0001748625
0.0001740996
0.0001737737
0.0001008691
0.0001787012
0.0001783723
0.000178038
0.0001777009
0.0001773593
0.0001770057
0.0001766355
0.0001762547
0.0001759351
0.000175861
0.0001028901
0.0001016878
0.0001789767
0.000178711
0.0001784355
0.000178152
0.0001778609
0.0001775622
0.0001772558
0.0001769489
0.0001766655
0.0001765071
0.0001033426
0.0001030658
0.0001023877
0.0001033501
0.0001032733
0.0001031535
0.0001028616
0.0001035373
0.0001034554
0.0001033765
0.0001032958
0.000103152
0.000103733
0.0001036435
0.0001035653
0.0001034994
0.0001034465
4.348231e-05
0.00010392
0.0001038286
0.0001037459
0.0001036781
0.0001036262
4.3578e-05
4.350092e-05
0.0001040977
0.0001040063
0.0001039223
0.0001038493
0.0001037922
4.364892e-05
4.358246e-05
4.351128e-05
0.0001765362
0.0001759955
0.000175174
0.0001736868
0.0001688348
0.0001768562
0.0001762213
0.0001752281
0.0001733783
0.0001697459
0.0001606038
0.0001771843
0.000176572
0.0001756841
0.0001741794
0.0001713666
0.0001662938
0.0001558469
0.0001775056
0.0001769402
0.0001762133
0.0001751119
0.0001732484
0.0001699914
0.0001647441
0.0001550712
0.0001778148
0.0001772991
0.0001767025
0.0001759252
0.0001747577
0.0001728944
0.000169956
0.000165799
0.0001584118
0.0001781128
0.0001776439
0.0001771433
0.0001765727
0.0001758465
0.0001748188
0.000173344
0.0001713343
0.0001690515
0.000165484
0.0001784004
0.0001779796
0.0001775497
0.0001771046
0.0001766154
0.0001760335
0.0001752974
0.000174413
0.0001735118
0.000173205
0.0001005423
0.0001786791
0.0001783101
0.0001779395
0.0001775716
0.0001772028
0.0001768209
0.000176415
0.0001759902
0.000175641
0.0001756195
0.0001027524
0.0001012798
0.0001789493
0.000178637
0.0001783218
0.0001780088
0.0001777005
0.0001773977
0.0001771018
0.0001768266
0.0001766145
0.0001766006
0.0001033907
0.0001030042
0.0001020017
0.0001792112
0.0001789586
0.0001786972
0.0001784292
0.0001781558
0.0001778779
0.0001775973
0.0001773198
0.0001770682
0.0001769223
0.0001035983
0.0001034149
0.0001031739
0.0001026082
0.0001035627
0.0001034972
0.000103411
0.0001032944
0.0001030327
0.0001037376
0.0001036559
0.0001035809
0.000103511
0.0001034411
4.345499e-05
0.0001039214
0.0001038331
0.0001037528
0.0001036856
0.0001036313
4.357657e-05
4.348658e-05
0.0001040981
0.0001040079
0.0001039249
0.0001038525
0.0001037955
4.364983e-05
4.358183e-05
4.350512e-05
0.0001042661
0.0001041769
0.0001040927
0.0001040176
0.0001039537
4.371754e-05
4.365233e-05
4.358625e-05
4.351554e-05
0.0001769156
0.000176464
0.0001758802
0.0001749963
0.0001734824
0.0001687769
0.0001772209
0.0001767096
0.0001760229
0.0001749563
0.0001730734
0.0001696694
0.0001611484
0.0001775266
0.0001770126
0.0001763731
0.0001754467
0.0001739408
0.0001713457
0.0001670563
0.0001579147
0.0001778242
0.000177329
0.0001767615
0.0001760346
0.0001749638
0.0001732797
0.0001706252
0.000166794
0.0001594035
0.0001781128
0.0001776439
0.0001771433
0.0001765727
0.0001758465
0.0001748188
0.000173344
0.0001713343
0.0001690515
0.000165484
0.0001783924
0.0001779562
0.0001775106
0.0001770482
0.0001765358
0.0001759175
0.0001751237
0.00017416
0.0001731832
0.0001728957
0.0001003794
0.000178664
0.000178267
0.0001778707
0.0001774799
0.0001770894
0.0001766822
0.0001762419
0.0001757716
0.0001753837
0.0001753923
0.0001026306
0.0001009999
0.0001789281
0.0001785777
0.0001782294
0.0001778912
0.0001775669
0.000177257
0.0001769617
0.000176696
0.0001765092
0.0001765615
0.0001033751
0.0001028986
0.0001016674
0.0001791848
0.0001788876
0.0001785887
0.0001782945
0.0001780093
0.0001777368
0.0001774828
0.0001772594
0.0001771028
0.0001770973
0.0001036922
0.0001034622
0.0001031257
0.0001023064
0.0001794341
0.0001791937
0.0001789452
0.0001786911
0.0001784328
0.0001781717
0.0001779101
0.000177654
0.0001774219
0.0001772854
0.000103807
0.0001036602
0.0001035016
0.0001032946
0.0001028341
0.000103762
0.0001036985
0.0001036241
0.0001035399
0.0001034339
4.340745e-05
0.0001039257
0.0001038453
0.0001037694
0.0001037022
0.0001036418
4.357388e-05
4.345935e-05
0.0001040994
0.0001040124
0.0001039318
0.0001038608
0.0001038034
4.3652e-05
4.358039e-05
4.349081e-05
0.0001042664
0.0001041784
0.0001040953
0.0001040209
0.0001039574
4.371899e-05
4.365325e-05
4.358561e-05
4.350938e-05
0.0001044257
0.000104339
0.0001042558
0.000104179
0.0001041114
4.378386e-05
4.372059e-05
4.36557e-05
4.359008e-05
4.351969e-05
0.0001772667
0.0001768707
0.0001764018
0.0001757948
0.0001749001
0.0001734595
0.0001689639
0.0001775568
0.0001771135
0.0001765874
0.0001758805
0.000174817
0.0001730675
0.0001701494
0.0001624954
0.0001778426
0.000177387
0.0001768735
0.0001762373
0.0001753383
0.0001739716
0.0001718379
0.0001686609
0.000161481
0.0001781213
0.0001776697
0.0001771892
0.0001766465
0.0001759671
0.0001750219
0.000173682
0.0001718538
0.0001697206
0.0001660216
0.0001783924
0.0001779562
0.0001775106
0.0001770482
0.0001765358
0.0001759175
0.0001751237
0.00017416
0.0001731832
0.0001728957
0.0001003794
0.0001786564
0.0001782451
0.0001778354
0.0001774324
0.0001770298
0.0001766077
0.0001761461
0.0001756476
0.0001752346
0.0001752589
0.0001025613
0.0001008588
0.0001789136
0.0001785367
0.0001781649
0.0001778085
0.0001774715
0.0001771538
0.0001768535
0.0001765852
0.0001764027
0.0001764911
0.0001033435
0.0001028026
0.0001014327
0.0001791644
0.0001788307
0.0001785007
0.0001781843
0.0001778883
0.000177618
0.0001773806
0.0001771893
0.0001770821
0.0001771419
0.0001037243
0.0001034578
0.0001030445
0.0001020381
0.0001794086
0.0001791253
0.0001788411
0.0001785626
0.0001782951
0.0001780434
0.0001778143
0.0001776207
0.0001774898
0.0001774871
0.0001039147
0.0001037444
0.0001035414
0.0001032542
0.0001026031
0.000179646
0.0001794171
0.0001791807
0.0001789393
0.0001786945
0.0001784478
0.0001782017
0.0001779618
0.0001777452
0.0001776137
0.0001039935
0.0001038617
0.000103734
0.0001035973
0.0001034211
4.333313e-05
0.0001039486
0.0001038865
0.0001038142
0.0001037405
0.000103663
4.356962e-05
4.341221e-05
0.0001041035
0.0001040241
0.0001039484
0.0001038789
0.0001038192
4.365601e-05
4.357767e-05
4.346369e-05
0.0001042677
0.0001041827
0.0001041021
0.0001040293
0.0001039663
4.372239e-05
4.365541e-05
4.358418e-05
4.349511e-05
0.000104426
0.0001043404
0.0001042583
0.0001041823
0.0001041152
4.37855e-05
4.372204e-05
4.365662e-05
4.358945e-05
4.351355e-05
0.0001045772
0.0001044932
0.0001044115
0.0001043346
0.0001042639
4.384898e-05
4.37866e-05
4.372359e-05
4.365911e-05
4.359381e-05
2.843061e-05
0.0001775954
0.0001772347
0.0001768337
0.0001763591
0.0001757544
0.0001749039
0.0001736252
0.0001694393
0.0001778693
0.0001774692
0.0001770276
0.0001765062
0.0001758192
0.0001748431
0.0001733771
0.0001711617
0.0001649073
0.0001781381
0.00017772
0.0001772775
0.0001767856
0.000176189
0.000175389
0.0001742875
0.0001727931
0.0001709737
0.0001671441
0.0001784004
0.0001779796
0.0001775497
0.0001771046
0.0001766154
0.0001760335
0.0001752974
0.000174413
0.0001735118
0.000173205
0.0001005423
0.0001786564
0.0001782451
0.0001778354
0.0001774324
0.0001770298
0.0001766077
0.0001761461
0.0001756476
0.0001752346
0.0001752589
0.0001025613
0.0001008588
0.0001789063
0.0001785159
0.000178132
0.0001777659
0.0001774219
0.0001770991
0.0001767944
0.0001765217
0.0001763377
0.0001764432
0.0001033216
0.0001027472
0.000101313
0.0001791505
0.0001787914
0.0001784395
0.000178107
0.0001778026
0.0001775323
0.0001773032
0.0001771278
0.0001770442
0.0001771399
0.0001037308
0.0001034374
0.0001029696
0.0001018459
0.0001793889
0.0001790705
0.0001787566
0.0001784577
0.0001781818
0.0001779364
0.0001777302
0.0001775777
0.0001775045
0.0001775654
0.0001039648
0.0001037788
0.000103543
0.0001031915
0.0001023939
0.0001796214
0.0001793511
0.0001790804
0.0001788159
0.000178563
0.0001783272
0.0001781154
0.0001779395
0.0001778235
0.0001778178
0.0001041025
0.0001039566
0.0001038038
0.0001036274
0.0001033858
4.324813e-05
0.0001798475
0.0001796296
0.0001794046
0.000179175
0.0001789424
0.0001787086
0.000178476
0.0001782498
0.0001780454
0.0001779192
0.0001041649
0.0001040426
0.0001039265
0.0001038151
0.0001036964
4.35619e-05
4.333902e-05
0.0001041249
0.000104063
0.0001039921
0.0001039193
0.0001038497
4.366324e-05
4.357329e-05
4.341695e-05
0.0001042715
0.0001041938
0.000104118
0.0001040474
0.0001039837
4.37287e-05
4.365938e-05
4.358142e-05
4.346811e-05
0.0001044272
0.0001043445
0.0001042648
0.0001041906
0.0001041242
4.378931e-05
4.372544e-05
4.365878e-05
4.358801e-05
4.349932e-05
0.0001045775
0.0001044946
0.0001044139
0.0001043378
0.0001042677
4.385066e-05
4.378824e-05
4.372505e-05
4.366004e-05
4.359318e-05
2.842662e-05
0.0001047211
0.0001046402
0.0001045604
0.0001044839
0.000104412
4.391231e-05
4.385145e-05
4.378929e-05
4.372663e-05
4.366242e-05
2.847861e-05
2.843422e-05
0.0001779038
0.0001775698
0.0001772096
0.000176811
0.0001763443
0.0001757696
0.000175014
0.0001739741
0.0001703338
0.0001781628
0.0001777921
0.0001774012
0.0001769751
0.0001764806
0.0001758571
0.0001750457
0.0001739788
0.0001726425
0.0001689975
0.0001784162
0.0001780255
0.0001776256
0.0001772124
0.0001767644
0.0001762457
0.0001756094
0.0001748625
0.0001740996
0.0001737737
0.0001008691
0.000178664
0.000178267
0.0001778707
0.0001774799
0.0001770894
0.0001766822
0.0001762419
0.0001757716
0.0001753837
0.0001753923
0.0001026306
0.0001009999
0.0001789063
0.0001785159
0.000178132
0.0001777659
0.0001774219
0.0001770991
0.0001767944
0.0001765217
0.0001763377
0.0001764432
0.0001033216
0.0001027472
0.000101313
0.0001791435
0.0001787714
0.0001784082
0.0001780673
0.0001777584
0.0001774875
0.0001772613
0.0001770921
0.0001770179
0.0001771303
0.0001037299
0.000103422
0.000102926
0.0001017467
0.0001793755
0.0001790327
0.0001786979
0.0001783843
0.000178102
0.0001778599
0.0001776675
0.0001775386
0.0001774966
0.0001775927
0.0001039868
0.0001037896
0.0001035305
0.0001031338
0.0001022412
0.0001796024
0.0001792982
0.0001789991
0.0001787152
0.0001784552
0.0001782271
0.0001780405
0.0001779082
0.000177852
0.000177907
0.0001041583
0.0001040054
0.0001038368
0.0001036313
0.0001033376
4.317066e-05
0.0001798238
0.0001795659
0.0001793077
0.000179056
0.0001788161
0.0001785935
0.0001783949
0.0001782317
0.0001781244
0.0001781163
0.0001042701
0.0001041382
0.0001040051
0.0001038695
0.0001037165
4.354763e-05
4.325547e-05
0.0001800392
0.0001798317
0.0001796174
0.0001793989
0.0001791779
0.0001789558
0.0001787353
0.0001785213
0.0001783278
0.0001782061
0.0001043263
0.0001042096
0.0001041006
0.0001039974
0.0001038983
4.367317e-05
4.356536e-05
4.334486e-05
0.0001042916
0.0001042305
0.0001041596
0.0001040873
0.000104017
4.373987e-05
4.366642e-05
4.357692e-05
4.342178e-05
0.0001044308
0.000104355
0.00010428
0.0001042081
0.000104142
4.37964e-05
4.373171e-05
4.366269e-05
4.358522e-05
4.347245e-05
0.0001045786
0.0001044986
0.0001044202
0.0001043457
0.0001042766
4.385458e-05
4.379205e-05
4.372844e-05
4.366219e-05
4.359174e-05
2.841738e-05
0.0001047214
0.0001046415
0.0001045628
0.000104487
0.0001044156
4.391398e-05
4.385314e-05
4.379093e-05
4.37281e-05
4.366336e-05
2.84782e-05
2.843025e-05
0.000104858
0.0001047803
0.0001047029
0.0001046276
0.0001045551
4.397403e-05
4.391456e-05
4.385388e-05
4.379202e-05
4.372958e-05
2.852304e-05
2.848189e-05
2.84364e-05
0.0001781947
0.0001778814
0.0001775502
0.000177196
0.0001768076
0.0001763633
0.0001758449
0.0001752259
0.0001744965
0.0001720209
0.0001784394
0.0001780917
0.0001777333
0.0001773623
0.0001769653
0.0001765216
0.0001760022
0.0001754157
0.0001748221
0.0001744981
0.0001013581
0.0001786791
0.0001783101
0.0001779395
0.0001775716
0.0001772028
0.0001768209
0.000176415
0.0001759902
0.000175641
0.0001756195
0.0001027524
0.0001012798
0.0001789136
0.0001785367
0.0001781649
0.0001778085
0.0001774715
0.0001771538
0.0001768535
0.0001765852
0.0001764027
0.0001764911
0.0001033435
0.0001028026
0.0001014327
0.0001791435
0.0001787714
0.0001784082
0.0001780673
0.0001777584
0.0001774875
0.0001772613
0.0001770921
0.0001770179
0.0001771303
0.0001037299
0.000103422
0.000102926
0.0001017467
0.0001793687
0.0001790134
0.0001786679
0.0001783466
0.0001780609
0.0001778202
0.000177634
0.0001775157
0.0001774874
0.0001775999
0.0001039948
0.0001037916
0.0001035201
0.0001031001
0.0001021616
0.0001795895
0.0001792617
0.0001789425
0.0001786448
0.0001783794
0.000178156
0.0001779851
0.0001778792
0.0001778567
0.0001779454
0.0001041862
0.0001040288
0.0001038497
0.0001036242
0.0001032942
4.311366e-05
0.0001798054
0.0001795148
0.0001792292
0.000178959
0.0001787126
0.0001784981
0.000178325
0.0001782054
0.0001781569
0.0001782065
0.0001043262
0.0001041913
0.0001040497
0.0001038987
0.0001037205
4.352967e-05
4.317926e-05
0.0001800162
0.0001797701
0.0001795239
0.0001792841
0.0001790561
0.0001788451
0.0001786577
0.0001785044
0.0001784038
0.0001783931
0.0001044261
0.0001043018
0.0001041799
0.0001040595
0.0001039381
4.367956e-05
4.355117e-05
4.326272e-05
0.0001802213
0.0001800239
0.0001798199
0.000179612
0.0001794017
0.0001791907
0.0001789814
0.0001787784
0.0001785948
0.000178478
0.0001044795
0.0001043675
0.0001042623
0.000104164
0.00010407
4.375587e-05
4.367591e-05
4.356878e-05
4.335077e-05
0.0001044497
0.0001043895
0.0001043194
0.0001042465
0.0001041755
4.380885e-05
4.374267e-05
4.366955e-05
4.358061e-05
4.342653e-05
0.000104582
0.0001045086
0.0001044347
0.0001043626
0.0001042941
4.386184e-05
4.37991e-05
4.373466e-05
4.366605e-05
4.358892e-05
2.839997e-05
0.0001047225
0.0001046453
0.0001045688
0.0001044947
0.0001044243
4.391785e-05
4.385705e-05
4.379474e-05
4.373148e-05
4.36655e-05
2.847726e-05
2.842106e-05
0.0001048583
0.0001047816
0.0001047051
0.0001046306
0.0001045586
4.397566e-05
4.391623e-05
4.385557e-05
4.379367e-05
4.373105e-05
2.852364e-05
2.848149e-05
2.843244e-05
0.0001049884
0.000104914
0.0001048392
0.0001047655
0.0001046934
4.403391e-05
4.397609e-05
4.391677e-05
4.385635e-05
4.379466e-05
2.856655e-05
2.852601e-05
2.848383e-05
2.843796e-05
0.0001784695
0.000178174
0.0001778646
0.0001775408
0.0001771974
0.0001768273
0.0001764197
0.0001759807
0.0001755363
0.0001752096
0.000101979
0.0001787012
0.0001783723
0.000178038
0.0001777009
0.0001773593
0.0001770057
0.0001766355
0.0001762547
0.0001759351
0.000175861
0.0001028901
0.0001016878
0.0001789281
0.0001785777
0.0001782294
0.0001778912
0.0001775669
0.000177257
0.0001769617
0.000176696
0.0001765092
0.0001765615
0.0001033751
0.0001028986
0.0001016674
0.0001791505
0.0001787914
0.0001784395
0.000178107
0.0001778026
0.0001775323
0.0001773032
0.0001771278
0.0001770442
0.0001771399
0.0001037308
0.0001034374
0.0001029696
0.0001018459
0.0001793687
0.0001790134
0.0001786679
0.0001783466
0.0001780609
0.0001778202
0.000177634
0.0001775157
0.0001774874
0.0001775999
0.0001039948
0.0001037916
0.0001035201
0.0001031001
0.0001021616
0.0001795829
0.0001792432
0.0001789136
0.0001786087
0.0001783404
0.0001781192
0.0001779557
0.0001778621
0.000177855
0.0001779595
0.0001041978
0.0001040379
0.0001038534
0.0001036175
0.000103269
4.308376e-05
0.0001797929
0.0001794795
0.0001791746
0.0001788912
0.0001786399
0.0001784306
0.0001782736
0.0001781808
0.0001781663
0.0001782483
0.0001043557
0.0001042193
0.0001040727
0.0001039118
0.000103717
4.351389e-05
4.312314e-05
0.0001799985
0.0001797207
0.000179448
0.0001791904
0.0001789562
0.0001787534
0.000178591
0.0001784801
0.0001784364
0.0001784806
0.0001044805
0.0001043548
0.0001042279
0.000104098
0.0001039621
4.368106e-05
4.353349e-05
4.318776e-05
0.0001801991
0.0001799643
0.0001797295
0.000179501
0.0001792841
0.0001790837
0.0001789064
0.0001787617
0.0001786667
0.0001786546
0.0001045737
0.000104455
0.000104339
0.0001042271
0.0001041164
4.376979e-05
4.368206e-05
4.355467e-05
4.327002e-05
0.0001803943
0.0001802065
0.0001800125
0.0001798146
0.0001796146
0.000179414
0.0001792151
0.0001790224
0.0001788482
0.0001787364
0.0001046259
0.0001045177
0.0001044159
0.0001043198
0.0001042286
4.382685e-05
4.375819e-05
4.367859e-05
4.357226e-05
4.335657e-05
0.0001045998
0.0001045411
0.0001044719
0.0001043992
0.0001043267
4.387455e-05
4.381136e-05
4.374543e-05
4.367272e-05
4.35842e-05
2.837031e-05
0.0001047257
0.0001046549
0.0001045827
0.0001045109
0.0001044412
4.392503e-05
4.386429e-05
4.380175e-05
4.373765e-05
4.366931e-05
2.847541e-05
2.840377e-05
0.0001048594
0.0001047853
0.0001047109
0.000104638
0.0001045671
4.397944e-05
4.392011e-05
4.385949e-05
4.379748e-05
4.373443e-05
2.852504e-05
2.848057e-05
2.842329e-05
0.0001049887
0.0001049153
0.0001048414
0.0001047684
0.0001046969
4.40355e-05
4.397773e-05
4.391844e-05
4.385804e-05
4.379631e-05
2.856751e-05
2.852663e-05
2.848344e-05
2.843401e-05
0.0001051125
0.0001050416
0.0001049696
0.000104898
0.0001048269
4.409198e-05
4.403582e-05
4.397812e-05
4.391902e-05
4.385873e-05
2.860875e-05
2.856927e-05
2.852773e-05
2.848519e-05
2.843857e-05
0.0001025016
0.0001787298
0.0001784499
0.0001781587
0.0001778571
0.0001775441
0.0001772165
0.0001768731
0.0001765165
0.0001761838
0.0001759852
0.0001029764
0.0001021777
0.0001789493
0.000178637
0.0001783218
0.0001780088
0.0001777005
0.0001773977
0.0001771018
0.0001768266
0.0001766145
0.0001766006
0.0001033907
0.0001030042
0.0001020017
0.0001791644
0.0001788307
0.0001785007
0.0001781843
0.0001778883
0.000177618
0.0001773806
0.0001771893
0.0001770821
0.0001771419
0.0001037243
0.0001034578
0.0001030445
0.0001020381
0.0001793755
0.0001790327
0.0001786979
0.0001783843
0.000178102
0.0001778599
0.0001776675
0.0001775386
0.0001774966
0.0001775927
0.0001039868
0.0001037896
0.0001035305
0.0001031338
0.0001022412
0.0001795829
0.0001792432
0.0001789136
0.0001786087
0.0001783404
0.0001781192
0.0001779557
0.0001778621
0.000177855
0.0001779595
0.0001041978
0.0001040379
0.0001038534
0.0001036175
0.000103269
4.308376e-05
0.0001797866
0.0001794615
0.0001791468
0.0001788565
0.0001786025
0.0001783956
0.0001782464
0.0001781664
0.0001781675
0.0001782648
0.0001043685
0.0001042312
0.0001040822
0.0001039164
0.0001037131
4.350478e-05
4.309368e-05
0.0001799863
0.0001796866
0.0001793953
0.000179125
0.0001788862
0.0001786885
0.0001785421
0.0001784576
0.000178447
0.0001785222
0.0001045098
0.0001043838
0.0001042546
0.0001041193
0.0001039744
4.368009e-05
4.3518e-05
4.31325e-05
0.0001801819
0.0001799165
0.0001796561
0.0001794105
0.0001791876
0.0001789953
0.000178842
0.0001787383
0.0001786978
0.0001787381
0.0001046257
0.0001045063
0.0001043869
0.0001042685
0.000104148
4.377876e-05
4.368353e-05
4.353726e-05
4.319628e-05
0.0001803728
0.0001801489
0.0001799251
0.0001797074
0.0001795009
0.0001793106
0.0001791426
0.0001790058
0.000178916
0.0001789034
0.0001047149
0.0001046005
0.000104489
0.0001043813
0.0001042766
4.384351e-05
4.377178e-05
4.368452e-05
4.355823e-05
4.327718e-05
0.0001805584
0.0001803801
0.0001801956
0.0001800074
0.0001798172
0.0001796265
0.0001794375
0.0001792546
0.0001790892
0.0001789826
0.0001047659
0.0001046616
0.0001045626
0.0001044687
0.0001043783
4.389294e-05
4.382889e-05
4.376046e-05
4.368134e-05
4.357565e-05
2.832538e-05
0.0001047426
0.0001046857
0.000104618
0.0001045458
0.0001044727
4.393755e-05
4.387682e-05
4.381382e-05
4.374822e-05
4.367578e-05
2.847227e-05
2.83744e-05
0.0001048624
0.0001047944
0.0001047242
0.0001046536
0.0001045834
4.398645e-05
4.392726e-05
4.386668e-05
4.380443e-05
4.374055e-05
2.852749e-05
2.847872e-05
2.840608e-05
0.0001049897
0.0001049188
0.000104847
0.0001047756
0.0001047051
4.403918e-05
4.398152e-05
4.392232e-05
4.386196e-05
4.380011e-05
2.856971e-05
2.852803e-05
2.848251e-05
2.842488e-05
0.0001051128
0.0001050428
0.0001049718
0.0001049008
0.0001048302
4.409352e-05
4.403741e-05
4.397976e-05
4.39207e-05
4.386043e-05
2.860982e-05
2.857023e-05
2.852834e-05
2.848479e-05
2.843463e-05
0.0001052308
0.0001051633
0.0001050944
0.0001050252
0.0001049556
4.414817e-05
4.409376e-05
4.403769e-05
4.398018e-05
4.392118e-05
2.865032e-05
2.861125e-05
2.857079e-05
2.852889e-05
2.848567e-05
0.0001025766
0.0001028589
0.0001025828
0.0001789767
0.000178711
0.0001784355
0.000178152
0.0001778609
0.0001775622
0.0001772558
0.0001769489
0.0001766655
0.0001765071
0.0001033426
0.0001030658
0.0001023877
0.0001791848
0.0001788876
0.0001785887
0.0001782945
0.0001780093
0.0001777368
0.0001774828
0.0001772594
0.0001771028
0.0001770973
0.0001036922
0.0001034622
0.0001031257
0.0001023064
0.0001793889
0.0001790705
0.0001787566
0.0001784577
0.0001781818
0.0001779364
0.0001777302
0.0001775777
0.0001775045
0.0001775654
0.0001039648
0.0001037788
0.000103543
0.0001031915
0.0001023939
0.0001795895
0.0001792617
0.0001789425
0.0001786448
0.0001783794
0.000178156
0.0001779851
0.0001778792
0.0001778567
0.0001779454
0.0001041862
0.0001040288
0.0001038497
0.0001036242
0.0001032942
4.311366e-05
0.0001797866
0.0001794615
0.0001791468
0.0001788565
0.0001786025
0.0001783956
0.0001782464
0.0001781664
0.0001781675
0.0001782648
0.0001043685
0.0001042312
0.0001040822
0.0001039164
0.0001037131
4.350478e-05
4.309368e-05
0.0001799802
0.0001796692
0.0001793683
0.0001790914
0.0001788502
0.000178655
0.0001785163
0.0001784443
0.0001784492
0.0001785391
0.0001045226
0.0001043967
0.0001042663
0.0001041285
0.0001039793
4.367893e-05
4.350907e-05
4.310347e-05
0.0001801702
0.0001798835
0.0001796051
0.0001793472
0.00017912
0.0001789327
0.000178795
0.0001787168
0.0001787083
0.0001787784
0.000104654
0.0001045349
0.0001044142
0.0001042927
0.0001041668
4.378371e-05
4.368262e-05
4.352205e-05
4.314187e-05
0.0001803562
0.0001801027
0.0001798541
0.0001796198
0.0001794077
0.0001792252
0.0001790803
0.0001789829
0.0001789454
0.0001789828
0.0001047644
0.0001046495
0.0001045353
0.0001044226
0.0001043108
4.385542e-05
4.378062e-05
4.368596e-05
4.354108e-05
4.320464e-05
0.0001805376
0.0001803244
0.0001801111
0.0001799037
0.0001797073
0.0001795266
0.0001793673
0.0001792381
0.0001791534
0.0001791412
0.0001048503
0.00010474
0.000104632
0.0001045276
0.0001044257
4.39104e-05
4.38452e-05
4.377373e-05
4.368704e-05
4.356169e-05
2.827448e-05
0.0001807139
0.0001805447
0.0001803695
0.0001801907
0.0001800099
0.0001798287
0.0001796492
0.0001794755
0.0001793186
0.0001792175
0.0001049
0.0001047996
0.0001047036
0.0001046115
0.0001045223
4.395564e-05
4.389477e-05
4.383088e-05
4.376279e-05
4.368399e-05
2.846659e-05
2.833008e-05
0.0001048786
0.0001048239
0.0001047579
0.0001046868
0.0001046137
4.399862e-05
4.393963e-05
4.387904e-05
4.381632e-05
4.375091e-05
2.85316e-05
2.847555e-05
2.837695e-05
0.0001049926
0.0001049276
0.0001048598
0.0001047906
0.0001047209
4.404598e-05
4.39885e-05
4.392945e-05
4.386911e-05
4.380702e-05
2.857366e-05
2.853047e-05
2.848065e-05
2.840774e-05
0.0001051138
0.0001050462
0.0001049772
0.0001049078
0.0001048382
4.409711e-05
4.40411e-05
4.398355e-05
4.392458e-05
4.386434e-05
2.86123e-05
2.857244e-05
2.852974e-05
2.848386e-05
2.84255e-05
0.000105231
0.0001051645
0.0001050965
0.000105028
0.0001049589
4.414967e-05
4.40953e-05
4.403928e-05
4.398182e-05
4.392286e-05
2.865142e-05
2.861233e-05
2.857175e-05
2.85295e-05
2.848526e-05
0.0001053434
0.0001052795
0.0001052138
0.0001051472