/*--------------------------------*- C++ -*----------------------------------*\
| =========                 |                                                 |
| \\      /  F ield         | OpenFOAM: The Open Source CFD Toolbox           |
|  \\    /   O peration     | Version:  2306                                  |
|   \\  /    A nd           | Website:  www.openfoam.com                      |
|    \\/     M anipulation  |                                                 |
\*---------------------------------------------------------------------------*/
FoamFile
{
    version     2.0;
    format      ascii;
    arch        "LSB;label=32;scalar=64";
    class       volScalarField;
    location    "0.3/air";
    object      N2;
}
// * * * * * * * * * * * * * * * * * * * * * * * * * * * * * * * * * * * * * //

dimensions      [0 0 0 0 0 0 0];

internalField   nonuniform List<scalar> 
16000
(
0.7699413
0.7699249
0.7708502
0.7699525
0.7699049
0.7707922
0.7699284
0.7720825
0.7709296
0.769998
0.7698892
0.7707186
0.7699012
0.7719831
0.7708488
0.769962
0.773682
0.7722089
0.771141
0.7701095
0.7698808
0.7706574
0.7698811
0.7718472
0.7707533
0.7699227
0.7735779
0.7720796
0.7710239
0.7700576
0.7753428
0.7738194
0.7725246
0.7715487
0.7703353
0.7698808
0.7706236
0.7698709
0.7717268
0.7706777
0.7698957
0.773435
0.7719098
0.7708892
0.7700012
0.7752376
0.7736843
0.7723596
0.771387
0.7702621
0.7769938
0.7754817
0.7741606
0.7730847
0.7722221
0.7707493
0.8049927
0.7698892
0.7706236
0.7698709
0.7716577
0.7706371
0.7698826
0.7733079
0.7717632
0.7707855
0.7699624
0.7750935
0.7735072
0.7721445
0.7711944
0.7701793
0.7768908
0.7753458
0.7739893
0.7728849
0.7720138
0.7706486
0.7786071
0.7771306
0.7758255
0.7747641
0.7739427
0.773235
0.7714606
0.8037581
0.806727
0.8051875
0.7699049
0.7706574
0.7698811
0.7716577
0.7706371
0.7698826
0.7732347
0.7716802
0.770731
0.7699431
0.7749653
0.7733535
0.7719602
0.7710461
0.7701186
0.7767497
0.7751677
0.7737676
0.7726268
0.7717591
0.770526
0.7785072
0.7769978
0.7756548
0.7745599
0.7737081
0.7729783
0.7713214
0.7801719
0.7787398
0.7774688
0.7764302
0.7756767
0.7751482
0.7746635
0.7726286
0.8012641
0.8056044
0.8039575
0.8074357
0.8069084
0.8055767
0.7699249
0.7707186
0.7699012
0.7717268
0.7706777
0.7698957
0.7732347
0.7716802
0.770731
0.7699431
0.7748915
0.7732661
0.7718565
0.7709687
0.7700873
0.7766241
0.7750132
0.7735774
0.7724038
0.7715531
0.7704295
0.7783702
0.7768236
0.7754341
0.7742953
0.7734046
0.7726576
0.7711393
0.7800753
0.778611
0.7773026
0.7762297
0.7754454
0.7748797
0.7743506
0.7724172
0.7816872
0.7803002
0.7790678
0.7780623
0.7773379
0.7769339
0.7767466
0.7765886
0.7745025
0.7974188
0.8033416
0.8014794
0.8063737
0.8057893
0.8043547
0.8078678
0.8076062
0.8072707
0.8061589
0.7699413
0.7707922
0.7699284
0.7718472
0.7707533
0.7699227
0.7733079
0.7717632
0.7707855
0.7699624
0.7748915
0.7732661
0.7718565
0.7709687
0.7700873
0.7765516
0.7749254
0.7734698
0.7722775
0.7714414
0.7703775
0.7782484
0.7766725
0.7752447
0.774068
0.7731451
0.7723919
0.7709882
0.7799431
0.7784422
0.7770877
0.7759699
0.7751431
0.7745293
0.7739529
0.7721343
0.7815939
0.7801758
0.7789069
0.7778683
0.7771146
0.7766795
0.7764392
0.7761908
0.774105
0.7831549
0.7818112
0.7806174
0.7796427
0.7789502
0.7785769
0.7785612
0.7787809
0.7791089
0.7775405
0.7918622
0.7998677
0.7976942
0.8042338
0.8035392
0.801903
0.8068578
0.8065472
0.8061576
0.8049466
0.8082289
0.8080296
0.8079467
0.8078129
0.8069328
0.7708502
0.7699525
0.7719831
0.7708488
0.769962
0.773435
0.7719098
0.7708892
0.7700012
0.7749653
0.7733535
0.7719602
0.7710461
0.7701186
0.7765516
0.7749254
0.7734698
0.7722775
0.7714414
0.7703775
0.7781782
0.7765865
0.7751377
0.7739396
0.7729993
0.7722453
0.7709047
0.7798254
0.7782958
0.7769033
0.775747
0.7748822
0.7742287
0.7736197
0.771899
0.7814661
0.7800129
0.7786991
0.777617
0.7768229
0.7763429
0.7760348
0.7756869
0.7736286
0.7830646
0.781691
0.7804622
0.7794554
0.7787358
0.7783353
0.7782792
0.7784077
0.7785295
0.7765823
0.7845786
0.7832748
0.7821176
0.7811734
0.7805015
0.7801573
0.7801657
0.7805822
0.7813121
0.7823993
0.7828171
0.7948875
0.7924304
0.8009509
0.8001154
0.7982071
0.8048233
0.8044189
0.8039285
0.8025247
0.8072625
0.8070225
0.8068931
0.8067071
0.8057304
0.8086462
0.8083836
0.8083528
0.8084564
0.8085341
0.8080536
0.7720825
0.7709296
0.769998
0.7735779
0.7720796
0.7710239
0.7700576
0.7750935
0.7735072
0.7721445
0.7711944
0.7701793
0.7766241
0.7750132
0.7735774
0.7724038
0.7715531
0.7704295
0.7781782
0.7765865
0.7751377
0.7739396
0.7729993
0.7722453
0.7709047
0.7797576
0.7782125
0.776799
0.775621
0.7747344
0.7740594
0.7734346
0.7717694
0.7813524
0.7798715
0.7785209
0.7774013
0.7765713
0.7760507
0.7756872
0.7752676
0.773259
0.782941
0.7815335
0.7802616
0.7792132
0.7784559
0.7780161
0.7779027
0.7779225
0.7778476
0.7757286
0.7844911
0.7831585
0.7819676
0.7809927
0.7802952
0.779927
0.7799007
0.7802437
0.7807765
0.7813199
0.7800204
0.7859617
0.7846947
0.7835713
0.7826547
0.7820035
0.7816674
0.7816984
0.7821219
0.7830418
0.7844848
0.7869013
0.7854477
0.7962493
0.7953838
0.7932775
0.8017034
0.8011824
0.8005784
0.7989181
0.8053158
0.8049987
0.8047837
0.804501
0.8033353
0.8077184
0.8074197
0.8073505
0.807409
0.8074352
0.8068614
0.8091117
0.8087947
0.8086925
0.8088367
0.8091345
0.8095791
0.8082849
0.773682
0.7722089
0.771141
0.7701095
0.7752376
0.7736843
0.7723596
0.771387
0.7702621
0.7767497
0.7751677
0.7737676
0.7726268
0.7717591
0.770526
0.7782484
0.7766725
0.7752447
0.774068
0.7731451
0.7723919
0.7709882
0.7797576
0.7782125
0.776799
0.775621
0.7747344
0.7740594
0.7734346
0.7717694
0.7812869
0.779791
0.7784201
0.7772794
0.7764288
0.7758845
0.7754914
0.7750359
0.7730631
0.7828311
0.7813969
0.7800896
0.7790053
0.7782143
0.777739
0.777575
0.7775111
0.7773064
0.7751533
0.7843713
0.7830062
0.7817738
0.7807591
0.7800261
0.7796228
0.7795477
0.7797981
0.7801375
0.7803114
0.778546
0.7858768
0.784582
0.7834261
0.7824801
0.7818046
0.7814462
0.7814469
0.7818041
0.7825494
0.7834764
0.7842484
0.7821559
0.7873074
0.7860744
0.784982
0.784091
0.7834567
0.78313
0.7831536
0.7835877
0.784487
0.7860746
0.7887213
0.7891579
0.7874945
0.797238
0.7967138
0.796129
0.7942632
0.8023315
0.8019224
0.8016153
0.8012233
0.7997973
0.8058497
0.8054833
0.8053443
0.8053201
0.8052489
0.8044894
0.8082176
0.8078693
0.8077331
0.80784
0.8080929
0.8084869
0.8070948
0.8096342
0.8092547
0.8090913
0.809155
0.8094805
0.8101172
0.8097948
0.8085182
0.7753428
0.7738194
0.7725246
0.7715487
0.7703353
0.7768908
0.7753458
0.7739893
0.7728849
0.7720138
0.7706486
0.7783702
0.7768236
0.7754341
0.7742953
0.7734046
0.7726576
0.7711393
0.7798254
0.7782958
0.7769033
0.775747
0.7748822
0.7742287
0.7736197
0.771899
0.7812869
0.779791
0.7784201
0.7772794
0.7764288
0.7758845
0.7754914
0.7750359
0.7730631
0.7827677
0.7813192
0.7799923
0.7788879
0.7780774
0.7775817
0.7773888
0.7772816
0.7770153
0.7748682
0.7842648
0.7828741
0.7816077
0.7805586
0.7797942
0.7793587
0.7792407
0.7794166
0.7796246
0.7795955
0.7776989
0.7857605
0.7844344
0.7832387
0.7822544
0.7815453
0.7811545
0.7811118
0.7813871
0.7819586
0.7825318
0.7827358
0.7803625
0.7872249
0.785965
0.7848412
0.783922
0.7832644
0.7829169
0.7829124
0.7832861
0.7840214
0.785128
0.7862211
0.7860835
0.7840492
0.788619
0.787417
0.7863532
0.7854855
0.7848672
0.7845451
0.7845655
0.784974
0.7858639
0.7873915
0.7900933
0.7908409
0.790925
0.7891703
0.7980616
0.7976775
0.7974104
0.7970033
0.7953204
0.8029853
0.8025404
0.802332
0.802218
0.8020247
0.8009947
0.8064169
0.8060103
0.8058132
0.8058526
0.8060211
0.8063158
0.8047273
0.8087704
0.808363
0.8081702
0.8082008
0.808489
0.8090809
0.8087039
0.8073301
0.8101989
0.8097724
0.8095405
0.8095354
0.8097704
0.8104137
0.81032
0.8100123
0.8087535
0.7769938
0.7754817
0.7741606
0.7730847
0.7722221
0.7707493
0.7785072
0.7769978
0.7756548
0.7745599
0.7737081
0.7729783
0.7713214
0.7799431
0.7784422
0.7770877
0.7759699
0.7751431
0.7745293
0.7739529
0.7721343
0.7813524
0.7798715
0.7785209
0.7774013
0.7765713
0.7760507
0.7756872
0.7752676
0.773259
0.7827677
0.7813192
0.7799923
0.7788879
0.7780774
0.7775817
0.7773888
0.7772816
0.7770153
0.7748682
0.7842034
0.782799
0.7815137
0.7804454
0.7796628
0.7792086
0.7790665
0.7792023
0.7793468
0.7792297
0.7773044
0.7856572
0.7843064
0.7830779
0.7820609
0.7813218
0.7809015
0.7808204
0.7810308
0.7814826
0.7818582
0.7818138
0.779356
0.7871118
0.7858217
0.7846595
0.7837035
0.7830139
0.7826358
0.7825912
0.7828899
0.783465
0.7842426
0.784795
0.7843091
0.7820477
0.7885386
0.7873106
0.7862165
0.7853216
0.7846809
0.7843389
0.7843329
0.7846842
0.7854198
0.7864898
0.7877248
0.7879388
0.7877185
0.7857088
0.7898987
0.7887256
0.7876879
0.786842
0.7862378
0.7859208
0.7859323
0.7863233
0.787166
0.7886523
0.7912318
0.7921021
0.7924964
0.7923832
0.790586
0.798888
0.7984809
0.7983362
0.7982265
0.7979493
0.7965986
0.8036572
0.8031856
0.8029311
0.8029022
0.8029669
0.8031208
0.8012411
0.807031
0.8065716
0.8063268
0.8062985
0.8065169
0.8070212
0.8065358
0.8049672
0.8093624
0.8089109
0.8086527
0.8086191
0.8088209
0.8094265
0.8092848
0.8089228
0.8075674
0.8108009
0.8103327
0.8100485
0.8099684
0.8101263
0.8106623
0.8106062
0.8105246
0.8102316
0.8089907
0.7786071
0.7771306
0.7758255
0.7747641
0.7739427
0.773235
0.7714606
0.7800753
0.778611
0.7773026
0.7762297
0.7754454
0.7748797
0.7743506
0.7724172
0.7814661
0.7800129
0.7786991
0.777617
0.7768229
0.7763429
0.7760348
0.7756869
0.7736286
0.7828311
0.7813969
0.7800896
0.7790053
0.7782143
0.777739
0.777575
0.7775111
0.7773064
0.7751533
0.7842034
0.782799
0.7815137
0.7804454
0.7796628
0.7792086
0.7790665
0.7792023
0.7793468
0.7792297
0.7773044
0.7855976
0.7842336
0.7829871
0.7819516
0.7811953
0.7807579
0.7806548
0.780831
0.7812237
0.7815127
0.7813689
0.7788954
0.7870114
0.7856975
0.7845037
0.7835163
0.782798
0.7823921
0.7823123
0.7825514
0.7830179
0.7836113
0.7839239
0.7832625
0.7809197
0.7884286
0.7871713
0.7860401
0.7851098
0.7844383
0.7840672
0.7840233
0.7843041
0.784889
0.7856492
0.7863773
0.7862622
0.7857714
0.7835882
0.7898204
0.788622
0.787555
0.7866827
0.7860571
0.785721
0.7857071
0.7860435
0.7867385
0.7877884
0.788969
0.7893492
0.7894657
0.7891588
0.7871506
0.7911494
0.7900026
0.7889894
0.7881631
0.7875724
0.7872594
0.7872644
0.7876316
0.7884395
0.7898512
0.7923355
0.7931505
0.7936692
0.7938585
0.7936266
0.7919901
0.7997101
0.7992897
0.799109
0.7991075
0.7991081
0.7991031
0.7968605
0.8043651
0.8038499
0.80356
0.8034749
0.8036107
0.8039911
0.8033465
0.8014891
0.807678
0.8071803
0.8068763
0.8067923
0.8069327
0.8074648
0.8072274
0.8067576
0.8052089
0.8099893
0.8094984
0.8091908
0.8090852
0.8092143
0.8097167
0.80962
0.8094904
0.8091434
0.8078067
0.8114314
0.8109308
0.8106001
0.810462
0.8105378
0.8109828
0.8108464
0.8108005
0.8107309
0.8104529
0.8092801
0.7801719
0.7787398
0.7774688
0.7764302
0.7756767
0.7751482
0.7746635
0.7726286
0.7815939
0.7801758
0.7789069
0.7778683
0.7771146
0.7766795
0.7764392
0.7761908
0.774105
0.782941
0.7815335
0.7802616
0.7792132
0.7784559
0.7780161
0.7779027
0.7779225
0.7778476
0.7757286
0.7842648
0.7828741
0.7816077
0.7805586
0.7797942
0.7793587
0.7792407
0.7794166
0.7796246
0.7795955
0.7776989
0.7855976
0.7842336
0.7829871
0.7819516
0.7811953
0.7807579
0.7806548
0.780831
0.7812237
0.7815127
0.7813689
0.7788954
0.7869534
0.7856269
0.7844157
0.7834105
0.7826759
0.7822538
0.782154
0.7823615
0.7827753
0.7832872
0.7835027
0.7827679
0.7804066
0.7883307
0.7870505
0.7858889
0.7849282
0.7842294
0.7838317
0.7837546
0.7839797
0.7844625
0.7850515
0.7855554
0.7852716
0.7846274
0.7823794
0.7897131
0.7884864
0.7873835
0.786477
0.7858216
0.7854576
0.7854075
0.7856768
0.7862282
0.7869835
0.7876841
0.7877612
0.7876228
0.7871101
0.784978
0.7910729
0.7899017
0.7888599
0.7880082
0.7873967
0.7870652
0.7870458
0.7873605
0.7880265
0.789019
0.7901645
0.7905192
0.7907917
0.7908068
0.790417
0.7885886
0.7923725
0.7912508
0.7902598
0.7894521
0.7888734
0.7885646
0.7885626
0.7889108
0.7896786
0.791032
0.7933982
0.7941751
0.7946461
0.7949568
0.795016
0.7948733
0.7922754
0.8005529
0.8000966
0.7998916
0.7998443
0.7999403
0.8001818
0.7993395
0.7971228
0.8050966
0.8045512
0.8042102
0.8040813
0.8041506
0.8045797
0.804202
0.8035736
0.8017386
0.8083551
0.8078225
0.8074746
0.8073246
0.8074008
0.8078377
0.8076603
0.8074353
0.8069811
0.8054525
0.8106426
0.8101213
0.8097695
0.8096086
0.8096586
0.8100743
0.8099016
0.8098151
0.8096977
0.809366
0.8080985
0.8120853
0.8115577
0.8111903
0.8110006
0.8110122
0.8113632
0.8111596
0.8110321
0.8109963
0.8109389
0.8107227
0.8095769
0.7816872
0.7803002
0.7790678
0.7780623
0.7773379
0.7769339
0.7767466
0.7765886
0.7745025
0.7830646
0.781691
0.7804622
0.7794554
0.7787358
0.7783353
0.7782792
0.7784077
0.7785295
0.7765823
0.7843713
0.7830062
0.7817738
0.7807591
0.7800261
0.7796228
0.7795477
0.7797981
0.7801375
0.7803114
0.778546
0.7856572
0.7843064
0.7830779
0.7820609
0.7813218
0.7809015
0.7808204
0.7810308
0.7814826
0.7818582
0.7818138
0.779356
0.7869534
0.7856269
0.7844157
0.7834105
0.7826759
0.7822538
0.782154
0.7823615
0.7827753
0.7832872
0.7835027
0.7827679
0.7804066
0.7882744
0.7869819
0.7858034
0.7848257
0.7841111
0.7836981
0.7836021
0.7837979
0.7842312
0.7847453
0.7851582
0.7848027
0.7840919
0.7818298
0.7896177
0.7883688
0.7872364
0.7863006
0.7856189
0.7852295
0.7851476
0.7853639
0.7858187
0.7864115
0.7869021
0.7868241
0.7865383
0.7858993
0.7837283
0.7909682
0.7897694
0.7886929
0.787808
0.7871678
0.7868094
0.7867552
0.7870053
0.7875336
0.788244
0.7889322
0.7890031
0.7890437
0.7888647
0.7883195
0.7864171
0.7922978
0.7911523
0.7901335
0.7893011
0.7887023
0.7883757
0.7883501
0.7886475
0.7892782
0.7902277
0.7913064
0.7916499
0.7918948
0.7920573
0.7919739
0.7916789
0.7888807
0.7935708
0.7924716
0.7915018
0.7907109
0.7901438
0.7898386
0.7898309
0.7901604
0.7908949
0.7921874
0.7944569
0.7951695
0.7956086
0.795874
0.7960494
0.7961717
0.7951268
0.7925588
0.8014053
0.8009258
0.8006757
0.800596
0.8006379
0.800954
0.8004019
0.7995765
0.7973854
0.8058507
0.8052766
0.804899
0.804712
0.8047291
0.8050748
0.8047792
0.8044142
0.8038022
0.8019895
0.8090543
0.8084953
0.8081074
0.8079075
0.8079105
0.8082691
0.8080244
0.8078573
0.8076449
0.8072064
0.8057494
0.8113174
0.8107709
0.8103843
0.810174
0.8101626
0.8104872
0.8102517
0.810088
0.8100118
0.8099067
0.8096374
0.8083978
0.8127575
0.8122081
0.8118099
0.8115788
0.8115335
0.8118097
0.8115335
0.8113378
0.8112193
0.8111939
0.8111927
0.8109994
0.8098035
0.7831549
0.7818112
0.7806174
0.7796427
0.7789502
0.7785769
0.7785612
0.7787809
0.7791089
0.7775405
0.7844911
0.7831585
0.7819676
0.7809927
0.7802952
0.779927
0.7799007
0.7802437
0.7807765
0.7813199
0.7800204
0.7857605
0.7844344
0.7832387
0.7822544
0.7815453
0.7811545
0.7811118
0.7813871
0.7819586
0.7825318
0.7827358
0.7803625
0.7870114
0.7856975
0.7845037
0.7835163
0.782798
0.7823921
0.7823123
0.7825514
0.7830179
0.7836113
0.7839239
0.7832625
0.7809197
0.7882744
0.7869819
0.7858034
0.7848257
0.7841111
0.7836981
0.7836021
0.7837979
0.7842312
0.7847453
0.7851582
0.7848027
0.7840919
0.7818298
0.7895628
0.788302
0.7871534
0.7862011
0.7855041
0.7851
0.7850002
0.7851885
0.7855968
0.7861185
0.7865247
0.7863808
0.7860299
0.7853342
0.7831594
0.7908752
0.7896548
0.7885497
0.7876365
0.7869707
0.7865879
0.7865031
0.7867024
0.7871381
0.7876937
0.7881825
0.7881097
0.7880159
0.787715
0.7870719
0.7851643
0.7921955
0.7910232
0.7899706
0.7891061
0.7884795
0.7881268
0.7880675
0.7883026
0.7888005
0.7894788
0.7901192
0.7901952
0.7902246
0.7902132
0.7899824
0.7895721
0.78671
0.7934977
0.7923753
0.7913786
0.7905636
0.789977
0.7896545
0.7896238
0.7899042
0.7905061
0.7914081
0.7924357
0.7927362
0.7929677
0.7931007
0.7931571
0.7931386
0.7919353
0.7891709
0.7947447
0.7936677
0.7927169
0.7919421
0.7913854
0.7910841
0.7910708
0.7913841
0.792087
0.7933278
0.795503
0.7961668
0.7965492
0.7967849
0.7969149
0.7971383
0.7964066
0.7953788
0.7928404
0.8022697
0.8017662
0.8014846
0.8013533
0.8013562
0.8016034
0.8011618
0.8006224
0.7998139
0.7976484
0.8066203
0.8060253
0.8056132
0.8053833
0.8053354
0.805615
0.8052651
0.80498
0.8046277
0.8040321
0.8022949
0.8097714
0.8091905
0.8087716
0.8085265
0.8084734
0.8087467
0.8084481
0.8082125
0.8080559
0.8078561
0.807481
0.806054
0.8120091
0.8114423
0.8110265
0.8107768
0.8107105
0.810963
0.8106581
0.8104307
0.8102759
0.8102102
0.8101617
0.8099156
0.8086263
0.8134441
0.8128772
0.8124536
0.8121876
0.8120959
0.8123059
0.8119743
0.8117053
0.8115176
0.8114081
0.8114349
0.8114527
0.8112104
0.809958
0.7845786
0.7832748
0.7821176
0.7811734
0.7805015
0.7801573
0.7801657
0.7805822
0.7813121
0.7823993
0.7828171
0.7858768
0.784582
0.7834261
0.7824801
0.7818046
0.7814462
0.7814469
0.7818041
0.7825494
0.7834764
0.7842484
0.7821559
0.7871118
0.7858217
0.7846595
0.7837035
0.7830139
0.7826358
0.7825912
0.7828899
0.783465
0.7842426
0.784795
0.7843091
0.7820477
0.7883307
0.7870505
0.7858889
0.7849282
0.7842294
0.7838317
0.7837546
0.7839797
0.7844625
0.7850515
0.7855554
0.7852716
0.7846274
0.7823794
0.7895628
0.788302
0.7871534
0.7862011
0.7855041
0.7851
0.7850002
0.7851885
0.7855968
0.7861185
0.7865247
0.7863808
0.7860299
0.7853342
0.7831594
0.7908215
0.7895896
0.7884688
0.7875396
0.7868593
0.7864622
0.7863601
0.7865327
0.7869238
0.787412
0.7878208
0.7876875
0.7875343
0.7871777
0.7864898
0.7845938
0.7921045
0.7909113
0.789831
0.788939
0.7882877
0.7879113
0.7878225
0.7880086
0.7884175
0.788947
0.7893972
0.7893382
0.7892436
0.7891221
0.7887958
0.7883155
0.785457
0.7933976
0.7922492
0.7912195
0.7903733
0.7897598
0.789412
0.7893487
0.7895687
0.7900422
0.7906824
0.7912885
0.7913344
0.7913646
0.7913377
0.7912643
0.7911343
0.789827
0.7870014
0.7946731
0.7935735
0.7925964
0.7917983
0.7912226
0.7909044
0.7908689
0.7911344
0.7917087
0.7925712
0.7935452
0.7938158
0.7940042
0.7941224
0.7941475
0.7942524
0.7933753
0.7921902
0.7894593
0.7958974
0.7948396
0.7939076
0.7931472
0.7926007
0.7923026
0.7922849
0.792583
0.7932578
0.7944505
0.7965437
0.7971581
0.7974985
0.797681
0.7977816
0.7979509
0.7973597
0.7966401
0.7956293
0.7931203
0.8031402
0.8026196
0.8023069
0.8021386
0.8020846
0.8022809
0.8018013
0.80137
0.8008433
0.8000517
0.7979671
0.8074023
0.8067899
0.8063516
0.8060818
0.8059851
0.806188
0.8057974
0.8054565
0.8051821
0.8048426
0.8043121
0.8026083
0.8105021
0.809904
0.809459
0.8091781
0.8090743
0.8092809
0.8089191
0.8086286
0.8084021
0.8082561
0.8081135
0.8077626
0.8062866
0.8127138
0.8121307
0.8116911
0.811408
0.8112973
0.8114856
0.8111282
0.8108305
0.8106111
0.8104655
0.8104521
0.810423
0.8101278
0.8087821
0.8141422
0.813561
0.8131165
0.8128213
0.8126902
0.8128455
0.8124653
0.8121403
0.8118785
0.8116989
0.8116384
0.8116817
0.811651
0.8113541
0.8100373
0.7918622
0.7859617
0.7846947
0.7835713
0.7826547
0.7820035
0.7816674
0.7816984
0.7821219
0.7830418
0.7844848
0.7869013
0.7854477
0.7872249
0.785965
0.7848412
0.783922
0.7832644
0.7829169
0.7829124
0.7832861
0.7840214
0.785128
0.7862211
0.7860835
0.7840492
0.7884286
0.7871713
0.7860401
0.7851098
0.7844383
0.7840672
0.7840233
0.7843041
0.784889
0.7856492
0.7863773
0.7862622
0.7857714
0.7835882
0.7896177
0.7883688
0.7872364
0.7863006
0.7856189
0.7852295
0.7851476
0.7853639
0.7858187
0.7864115
0.7869021
0.7868241
0.7865383
0.7858993
0.7837283
0.7908215
0.7895896
0.7884688
0.7875396
0.7868593
0.7864622
0.7863601
0.7865327
0.7869238
0.787412
0.7878208
0.7876875
0.7875343
0.7871777
0.7864898
0.7845938
0.7920521
0.7908477
0.7897521
0.7888447
0.7881792
0.7877891
0.7876836
0.7878438
0.7882099
0.7886748
0.789049
0.7889334
0.7887843
0.7886124
0.7882414
0.787729
0.7848863
0.7933087
0.7921398
0.7910832
0.7902104
0.7895729
0.7892021
0.7891101
0.7892827
0.7896702
0.7901672
0.7905908
0.7905088
0.7904232
0.7902954
0.790137
0.7899365
0.7885689
0.7857485
0.7945751
0.7934501
0.7924409
0.7916125
0.7910106
0.7906679
0.7906007
0.7908075
0.7912573
0.7918665
0.7924337
0.7924611
0.7924592
0.7924298
0.7923372
0.7923457
0.7913687
0.7900807
0.7872914
0.7958273
0.7947473
0.7937897
0.7930065
0.7924416
0.7921271
0.7920877
0.7923394
0.7928892
0.7937146
0.7946438
0.7948808
0.7950395
0.7951149
0.7951243
0.7951885
0.7944749
0.7936104
0.7924435
0.7897457
0.7970281
0.7959904
0.7950745
0.7943286
0.7937909
0.7934964
0.7934742
0.7937591
0.794408
0.7955574
0.7975754
0.798149
0.7984468
0.7985908
0.7986397
0.7987732
0.7981615
0.7975796
0.7968721
0.7958783
0.7934566
0.8040151
0.80348
0.8031438
0.8029395
0.8028442
0.8029741
0.8024705
0.8019996
0.8015785
0.8010646
0.80034
0.7982941
0.8081931
0.8075673
0.8071069
0.8068061
0.8066642
0.8068081
0.8063635
0.805981
0.8056492
0.8053854
0.8051042
0.8045991
0.8028476
0.8112433
0.8106314
0.8101652
0.809854
0.8097095
0.809856
0.8094474
0.8090929
0.8088105
0.8085932
0.8085001
0.8083773
0.8079774
0.8064452
0.8134287
0.8128325
0.8123732
0.8120624
0.8119138
0.8120494
0.8116456
0.8112947
0.8110043
0.810793
0.8106967
0.8106999
0.8106221
0.8102724
0.8088622
0.81485
0.8142564
0.8137945
0.8134749
0.8133106
0.8134187
0.8130002
0.812626
0.8123077
0.8120532
0.8119201
0.8118743
0.8118697
0.8117859
0.8114279
0.7974188
0.7948875
0.7924304
0.7873074
0.7860744
0.784982
0.784091
0.7834567
0.78313
0.7831536
0.7835877
0.784487
0.7860746
0.7887213
0.7891579
0.7874945
0.7885386
0.7873106
0.7862165
0.7853216
0.7846809
0.7843389
0.7843329
0.7846842
0.7854198
0.7864898
0.7877248
0.7879388
0.7877185
0.7857088
0.7897131
0.7884864
0.7873835
0.786477
0.7858216
0.7854576
0.7854075
0.7856768
0.7862282
0.7869835
0.7876841
0.7877612
0.7876228
0.7871101
0.784978
0.7908752
0.7896548
0.7885497
0.7876365
0.7869707
0.7865879
0.7865031
0.7867024
0.7871381
0.7876937
0.7881825
0.7881097
0.7880159
0.787715
0.7870719
0.7851643
0.7920521
0.7908477
0.7897521
0.7888447
0.7881792
0.7877891
0.7876836
0.7878438
0.7882099
0.7886748
0.789049
0.7889334
0.7887843
0.7886124
0.7882414
0.787729
0.7848863
0.7932574
0.7920777
0.7910062
0.7901184
0.7894671
0.7890831
0.7889749
0.7891225
0.7894686
0.7899035
0.7902542
0.7901189
0.7899825
0.7898088
0.7896106
0.7893765
0.7879816
0.7851779
0.794488
0.7933432
0.7923077
0.7914534
0.7908282
0.7904632
0.7903681
0.7905289
0.7908954
0.7913662
0.7917577
0.7916633
0.7915521
0.7914293
0.7912597
0.7912066
0.7901688
0.7888213
0.786039
0.7957313
0.7946265
0.7936377
0.7928249
0.7922345
0.7918961
0.7918258
0.7920204
0.7924493
0.7930292
0.7935648
0.7935685
0.7935464
0.7934836
0.793386
0.7933641
0.7925657
0.7916019
0.7903332
0.78758
0.7969593
0.7959
0.794959
0.7941909
0.7936352
0.7933248
0.7932815
0.7935211
0.7940483
0.7948407
0.7957283
0.795939
0.796065
0.7961112
0.7960783
0.79612
0.7954
0.794696
0.7938441
0.7926952
0.7900899
0.7981409
0.7971193
0.7962206
0.7954866
0.7949584
0.7946664
0.7946409
0.7949131
0.7955389
0.7966487
0.7985987
0.7991351
0.7993987
0.7995036
0.7995157
0.7995929
0.7989747
0.7983707
0.7977982
0.7971028
0.7961778
0.7938017
0.8048917
0.8043457
0.8039892
0.8037571
0.8036221
0.8037023
0.8031563
0.8026603
0.8021982
0.8017874
0.8013328
0.8006356
0.7985439
0.80899
0.8083538
0.8078757
0.8075484
0.8073708
0.8074606
0.8069775
0.8065402
0.8061657
0.8058431
0.8056328
0.8053723
0.8048181
0.8030109
0.8119921
0.8113693
0.810886
0.8105496
0.8103703
0.8104678
0.8100172
0.8096152
0.8092681
0.8089938
0.8088261
0.8087501
0.8085785
0.8081238
0.8065267
0.8141523
0.8135447
0.8130691
0.8127351
0.8125548
0.8126448
0.8122045
0.8118068
0.8114627
0.8111796
0.8110149
0.8109334
0.8108888
0.8107577
0.8103466
0.8155657
0.8149617
0.8144846
0.8141442
0.8139518
0.8140198
0.8135691
0.8131561
0.8127881
0.8124765
0.8122663
0.8121465
0.8120539
0.8119976
0.8118551
0.8012641
0.7998677
0.7976942
0.7962493
0.7953838
0.7932775
0.788619
0.787417
0.7863532
0.7854855
0.7848672
0.7845451
0.7845655
0.784974
0.7858639
0.7873915
0.7900933
0.7908409
0.790925
0.7891703
0.7898204
0.788622
0.787555
0.7866827
0.7860571
0.785721
0.7857071
0.7860435
0.7867385
0.7877884
0.788969
0.7893492
0.7894657
0.7891588
0.7871506
0.7909682
0.7897694
0.7886929
0.787808
0.7871678
0.7868094
0.7867552
0.7870053
0.7875336
0.788244
0.7889322
0.7890031
0.7890437
0.7888647
0.7883195
0.7864171
0.7921045
0.7909113
0.789831
0.788939
0.7882877
0.7879113
0.7878225
0.7880086
0.7884175
0.788947
0.7893972
0.7893382
0.7892436
0.7891221
0.7887958
0.7883155
0.785457
0.7932574
0.7920777
0.7910062
0.7901184
0.7894671
0.7890831
0.7889749
0.7891225
0.7894686
0.7899035
0.7902542
0.7901189
0.7899825
0.7898088
0.7896106
0.7893765
0.7879816
0.7851779
0.7944378
0.7932824
0.7922325
0.7913635
0.790725
0.790347
0.7902363
0.7903729
0.7906993
0.7911102
0.7914317
0.7912864
0.7911276
0.7909623
0.7907567
0.7906742
0.7896079
0.7882334
0.7854686
0.7956459
0.7945218
0.7935074
0.7926693
0.7920563
0.7916961
0.7915988
0.7917487
0.7920967
0.7925425
0.7929085
0.7927954
0.7926697
0.7925194
0.7923514
0.7922747
0.7914244
0.7904003
0.7890728
0.7863284
0.7968651
0.7957816
0.7948101
0.7940131
0.7934326
0.7930989
0.7930256
0.7932095
0.7936192
0.794173
0.7946791
0.7946651
0.7946185
0.7945346
0.7944027
0.7943677
0.793573
0.7927846
0.791834
0.7905844
0.7879274
0.7980734
0.7970305
0.7961074
0.7953518
0.794806
0.7944985
0.7944523
0.7946804
0.7951875
0.7959497
0.7968003
0.7969867
0.7970872
0.7971018
0.7970405
0.7970352
0.7963223
0.7956101
0.7949156
0.7940761
0.7929977
0.7904431
0.7992331
0.7982305
0.797345
0.7966245
0.7961034
0.7958152
0.7957856
0.7960469
0.796651
0.7977248
0.7996126
0.8001165
0.8003492
0.8004233
0.8003983
0.8004351
0.7997866
0.799175
0.7985787
0.7980155
0.7973802
0.7964849
0.7940653
0.8057685
0.8052138
0.804841
0.8045849
0.8044189
0.8044523
0.8038782
0.8033389
0.8028505
0.8023971
0.8020406
0.8016077
0.8008612
0.7987143
0.8097909
0.8091468
0.8086544
0.8083053
0.808097
0.8081431
0.8076246
0.8071481
0.8067179
0.8063515
0.8060791
0.8058863
0.8055767
0.8049674
0.8030948
0.8127474
0.8121153
0.8116177
0.8112606
0.8110521
0.8111072
0.8106242
0.8101797
0.8097844
0.8094446
0.8092173
0.8090647
0.8089406
0.8087155
0.8081989
0.8148827
0.8142657
0.8137759
0.8134223
0.813215
0.8132662
0.8127956
0.812361
0.8119694
0.811632
0.8113934
0.8112421
0.8111137
0.8110172
0.8108272
0.8162877
0.815675
0.8151848
0.8148262
0.8146097
0.8146431
0.8141661
0.8137207
0.8133134
0.8129516
0.8126824
0.8124844
0.8123188
0.812176
0.8120631
0.8037581
0.8033416
0.8014794
0.8009509
0.8001154
0.7982071
0.797238
0.7967138
0.796129
0.7942632
0.7898987
0.7887256
0.7876879
0.786842
0.7862378
0.7859208
0.7859323
0.7863233
0.787166
0.7886523
0.7912318
0.7921021
0.7924964
0.7923832
0.790586
0.7910729
0.7899017
0.7888599
0.7880082
0.7873967
0.7870652
0.7870458
0.7873605
0.7880265
0.789019
0.7901645
0.7905192
0.7907917
0.7908068
0.790417
0.7885886
0.7921955
0.7910232
0.7899706
0.7891061
0.7884795
0.7881268
0.7880675
0.7883026
0.7888005
0.7894788
0.7901192
0.7901952
0.7902246
0.7902132
0.7899824
0.7895721
0.78671
0.7933087
0.7921398
0.7910832
0.7902104
0.7895729
0.7892021
0.7891101
0.7892827
0.7896702
0.7901672
0.7905908
0.7905088
0.7904231
0.7902954
0.790137
0.7899365
0.7885689
0.7857485
0.7944378
0.7932824
0.7922325
0.7913635
0.790725
0.790347
0.7902363
0.7903729
0.7906993
0.7911102
0.7914317
0.7912864
0.7911276
0.7909623
0.7907567
0.7906742
0.7896079
0.7882334
0.7854686
0.7955967
0.7944623
0.7934337
0.7925814
0.7919555
0.7915828
0.7914702
0.7915965
0.7919057
0.7922935
0.792592
0.7924303
0.7922594
0.7920694
0.7918685
0.7917659
0.790891
0.7898385
0.7884844
0.7857583
0.7967813
0.795679
0.7946824
0.7938609
0.7932583
0.7929035
0.7928038
0.7929442
0.7932752
0.793699
0.7940408
0.7939146
0.7937691
0.7936027
0.7934056
0.7933215
0.7924815
0.7916414
0.7906308
0.7893233
0.7866773
0.797981
0.7969144
0.7959615
0.7951776
0.7946076
0.7942775
0.7942019
0.7943758
0.7947684
0.7952984
0.7957784
0.795748
0.7956832
0.7955745
0.7954211
0.795346
0.7945675
0.7937808
0.7930024
0.7920648
0.7908869
0.7882839
0.7991667
0.7981434
0.7972339
0.7964923
0.7959541
0.7956507
0.795601
0.7958191
0.7963074
0.7970423
0.7978592
0.7980247
0.798102
0.7980924
0.7980007
0.7979632
0.7972296
0.7965233
0.7958188
0.7951338
0.7943551
0.793308
0.790713
0.8003113
0.799321
0.7984521
0.7977412
0.7972291
0.7969427
0.7969107
0.7971609
0.7977455
0.7987859
0.8006169
0.8010917
0.8012978
0.8013444
0.8012906
0.8012875
0.8006219
0.7999791
0.799374
0.7987853
0.7982767
0.7976644
0.7967192
0.7942451
0.8066438
0.8060827
0.8056964
0.8054205
0.8052276
0.8052236
0.8046224
0.8040544
0.8035219
0.8030411
0.8026382
0.8023
0.8018173
0.801015
0.798802
0.8105948
0.809944
0.80944
0.8090728
0.808839
0.8088472
0.8083021
0.8077896
0.8073196
0.8068968
0.8065777
0.8063207
0.8060796
0.8057159
0.8050441
0.8135075
0.8128678
0.8123579
0.8119832
0.8117503
0.8117692
0.8112591
0.8107818
0.8103435
0.8099549
0.8096598
0.8094461
0.8092464
0.8090702
0.8087857
0.8156185
0.8149937
0.8144917
0.8141208
0.8138906
0.8139085
0.813413
0.8129476
0.8125188
0.8121334
0.8118385
0.8116122
0.8114151
0.8112363
0.8110831
0.8170144
0.8163948
0.8158934
0.8155189
0.8152809
0.8152843
0.8147858
0.8143137
0.8138736
0.813472
0.813151
0.8128931
0.8126504
0.812436
0.8122385
0.8049927
0.8056044
0.8039575
0.8042338
0.8035392
0.801903
0.8017034
0.8011824
0.8005784
0.7989181
0.7980616
0.7976775
0.7974104
0.7970033
0.7953204
0.7911494
0.7900026
0.7889894
0.7881631
0.7875724
0.7872594
0.7872644
0.7876316
0.7884395
0.7898512
0.7923355
0.7931505
0.7936692
0.7938585
0.7936266
0.7919901
0.7922978
0.7911523
0.7901335
0.7893011
0.7887023
0.7883757
0.7883501
0.7886475
0.7892782
0.7902277
0.7913064
0.7916499
0.7918948
0.7920573
0.7919739
0.7916789
0.7888807
0.7933976
0.7922492
0.7912195
0.7903733
0.7897598
0.789412
0.7893487
0.7895687
0.7900422
0.7906824
0.7912885
0.7913344
0.7913646
0.7913377
0.7912643
0.7911343
0.789827
0.7870014
0.794488
0.7933432
0.7923077
0.7914534
0.7908282
0.7904632
0.7903681
0.7905289
0.7908954
0.7913662
0.7917577
0.7916633
0.7915521
0.7914293
0.7912597
0.7912066
0.7901688
0.7888213
0.786039
0.7955967
0.7944623
0.7934337
0.7925814
0.7919555
0.7915828
0.7914702
0.7915965
0.7919057
0.7922935
0.792592
0.7924303
0.7922594
0.7920694
0.7918685
0.7917659
0.790891
0.7898385
0.7884844
0.7857583
0.7967331
0.7956207
0.7946104
0.793775
0.7931597
0.7927927
0.7926781
0.7927956
0.7930889
0.7934563
0.793733
0.7935602
0.7933715
0.7931678
0.7929402
0.7928329
0.7919716
0.7911071
0.7900682
0.7887346
0.7861079
0.7978988
0.7968138
0.7958364