/*--------------------------------*- C++ -*----------------------------------*\
| =========                 |                                                 |
| \\      /  F ield         | OpenFOAM: The Open Source CFD Toolbox           |
|  \\    /   O peration     | Version:  2306                                  |
|   \\  /    A nd           | Website:  www.openfoam.com                      |
|    \\/     M anipulation  |                                                 |
\*---------------------------------------------------------------------------*/
FoamFile
{
    version     2.0;
    format      ascii;
    arch        "LSB;label=32;scalar=64";
    class       volScalarField;
    location    "0.3/air";
    object      nernst;
}
// * * * * * * * * * * * * * * * * * * * * * * * * * * * * * * * * * * * * * //

dimensions      [1 2 -3 0 0 -1 0];

internalField   nonuniform List<scalar> 
16000
(
-0.604678
-0.6003762
-0.6097411
-0.6003134
-0.5980716
-0.6085074
-0.5900123
-0.6110788
-0.608506
-0.5979573
-0.5967933
-0.6074495
-0.5837777
-0.6104937
-0.6048851
-0.5836917
-0.6122279
-0.6105296
-0.6074569
-0.5966192
-0.5962097
-0.6066781
-0.5801172
-0.6099666
-0.6017459
-0.5744235
-0.6119077
-0.6088203
-0.6017243
-0.5798881
-0.6132799
-0.6119592
-0.6100535
-0.6067013
-0.5959599
-0.5962097
-0.6062713
-0.5784077
-0.609564
-0.5994434
-0.5687407
-0.6116212
-0.6072643
-0.5966769
-0.5685414
-0.6130804
-0.6110523
-0.6073074
-0.5993737
-0.5779499
-0.6142594
-0.6131363
-0.6117414
-0.6097199
-0.606322
-0.5958664
-0.6134754
-0.5967933
-0.6062713
-0.5784077
-0.6093455
-0.5982255
-0.5660227
-0.6114023
-0.6060682
-0.5929376
-0.5613836
-0.6129052
-0.6102308
-0.6047726
-0.5928483
-0.565462
-0.6141198
-0.6125939
-0.6103013
-0.6061602
-0.5980838
-0.5776227
-0.6151764
-0.6141754
-0.613035
-0.6116148
-0.6095938
-0.6063737
-0.5963438
-0.6133125
-0.6145563
-0.6141051
-0.5980716
-0.6066781
-0.5801172
-0.6093455
-0.5982255
-0.5660227
-0.6112833
-0.6054163
-0.590951
-0.5579031
-0.6127732
-0.6095986
-0.6028041
-0.5879707
-0.5574615
-0.6139992
-0.6121118
-0.6089763
-0.602838
-0.5907007
-0.5649133
-0.6150666
-0.6138112
-0.6121919
-0.6097638
-0.6055718
-0.5980113
-0.5789056
-0.6160396
-0.6151202
-0.6141289
-0.6130025
-0.6116171
-0.6097212
-0.6068784
-0.5975038
-0.6129815
-0.6144242
-0.6139313
-0.6155367
-0.6151445
-0.6147607
-0.6003762
-0.6074495
-0.5837777
-0.609564
-0.5994434
-0.5687407
-0.6112833
-0.6054163
-0.590951
-0.5579031
-0.6127021
-0.6092532
-0.6017261
-0.5853674
-0.5535362
-0.6139097
-0.611747
-0.6079446
-0.6002366
-0.5851512
-0.5567416
-0.614973
-0.613494
-0.611431
-0.6080388
-0.6017923
-0.5904999
-0.5669004
-0.6159458
-0.6148432
-0.6135756
-0.6119388
-0.6095469
-0.6056738
-0.5992056
-0.582029
-0.6168551
-0.6159969
-0.6150986
-0.6141392
-0.613061
-0.6117756
-0.6101206
-0.607834
-0.599658
-0.6124569
-0.6141613
-0.6135712
-0.6154157
-0.6150128
-0.6145784
-0.616442
-0.6160668
-0.6157537
-0.6154442
-0.604678
-0.6085074
-0.5900123
-0.6099666
-0.6017459
-0.5744235
-0.6114023
-0.6060682
-0.5929376
-0.5613836
-0.6127021
-0.6092532
-0.6017261
-0.5853674
-0.5535362
-0.6138619
-0.6115498
-0.607377
-0.5988055
-0.58218
-0.5527236
-0.6149045
-0.6132585
-0.6108483
-0.6066818
-0.5988165
-0.5848432
-0.5592408
-0.6158665
-0.6146065
-0.6130869
-0.6109659
-0.6075999
-0.6018558
-0.5923202
-0.5716814
-0.6167705
-0.6157654
-0.6146863
-0.6134556
-0.6118934
-0.6097264
-0.6065068
-0.6016177
-0.587581
-0.6176282
-0.6168191
-0.6159868
-0.6151275
-0.6142216
-0.6132273
-0.6121033
-0.6107877
-0.60923
-0.6036714
-0.6115779
-0.6137684
-0.6129763
-0.6151758
-0.6147518
-0.6141973
-0.6163281
-0.6159493
-0.6156225
-0.6152562
-0.6172895
-0.6169165
-0.6166156
-0.6163845
-0.6161561
-0.6097411
-0.6003134
-0.6104937
-0.6048851
-0.5836917
-0.6116212
-0.6072643
-0.5966769
-0.5685414
-0.6127732
-0.6095986
-0.6028041
-0.5879707
-0.5574615
-0.6138619
-0.6115498
-0.607377
-0.5988055
-0.58218
-0.5527236
-0.6148682
-0.6131328
-0.6105309
-0.6059309
-0.5971742
-0.5818111
-0.55549
-0.6158088
-0.614434
-0.6127202
-0.6102125
-0.6060571
-0.5988413
-0.5871412
-0.5652002
-0.6166992
-0.6155699
-0.6143296
-0.6128441
-0.6108142
-0.607786
-0.6030865
-0.5960463
-0.5798637
-0.6175495
-0.6166126
-0.6156467
-0.6146274
-0.6134873
-0.6120986
-0.6103292
-0.6080213
-0.605107
-0.5969069
-0.6183629
-0.6175957
-0.6168142
-0.6160233
-0.6152181
-0.6143871
-0.6135112
-0.6126044
-0.6117225
-0.6111238
-0.6086545
-0.6132534
-0.6119494
-0.6148224
-0.6143677
-0.6135641
-0.6161027
-0.6157194
-0.615363
-0.6148631
-0.6171808
-0.6168072
-0.6165011
-0.6162535
-0.6159653
-0.6180968
-0.6177153
-0.6174085
-0.6171831
-0.6170362
-0.6166192
-0.6110788
-0.608506
-0.5979573
-0.6119077
-0.6088203
-0.6017243
-0.5798881
-0.6129052
-0.6102308
-0.6047726
-0.5928483
-0.565462
-0.6139097
-0.611747
-0.6079446
-0.6002366
-0.5851512
-0.5567416
-0.6148682
-0.6131328
-0.6105309
-0.6059309
-0.5971742
-0.5818111
-0.55549
-0.6157785
-0.6143431
-0.6125232
-0.6097994
-0.6051993
-0.5971751
-0.5843674
-0.5620571
-0.6166475
-0.6154293
-0.6140675
-0.6123803
-0.609971
-0.6062407
-0.6003818
-0.5918648
-0.5751498
-0.6174831
-0.6164395
-0.6153569
-0.6141902
-0.6128233
-0.6110445
-0.6086329
-0.6053726
-0.6013672
-0.5927151
-0.6182884
-0.6174047
-0.6165131
-0.6156161
-0.6146917
-0.6136973
-0.6125735
-0.6113361
-0.6101063
-0.6094571
-0.6059828
-0.6190626
-0.6183325
-0.6175932
-0.6168532
-0.6161157
-0.615379
-0.6146441
-0.6139221
-0.6132994
-0.6130289
-0.6128776
-0.6096785
-0.6143919
-0.6138875
-0.6125192
-0.6157722
-0.6153935
-0.6149843
-0.6142176
-0.6169658
-0.6165942
-0.616279
-0.6159945
-0.615568
-0.6179924
-0.6176115
-0.617303
-0.6170708
-0.6169053
-0.6164286
-0.6188656
-0.6184811
-0.6181578
-0.6179177
-0.6177685
-0.6174591
-0.6166817
-0.6122279
-0.6105296
-0.6074569
-0.5966192
-0.6130804
-0.6110523
-0.6073074
-0.5993737
-0.5779499
-0.6139992
-0.6121118
-0.6089763
-0.602838
-0.5907007
-0.5649133
-0.6149045
-0.6132585
-0.6108483
-0.6066818
-0.5988165
-0.5848432
-0.5592408
-0.6157785
-0.6143431
-0.6125232
-0.6097994
-0.6051993
-0.5971751
-0.5843674
-0.5620571
-0.6166204
-0.6153559
-0.6139287
-0.6121294
-0.6095061
-0.6053791
-0.5988861
-0.5896289
-0.5728904
-0.6174351
-0.616316
-0.6151472
-0.613866
-0.6123147
-0.6102144
-0.6072739
-0.6032672
-0.5985487
-0.5901635
-0.6182255
-0.617245
-0.6162588
-0.615266
-0.6142264
-0.6130647
-0.6116801
-0.6100815
-0.6084599
-0.6077681
-0.6039514
-0.6189914
-0.618152
-0.6173156
-0.6164954
-0.6156929
-0.6148972
-0.6141007
-0.6133183
-0.6127059
-0.6126535
-0.6122711
-0.6074603
-0.6197301
-0.6190337
-0.6183311
-0.6176327
-0.6169445
-0.6162712
-0.6156177
-0.6150039
-0.6144909
-0.6143194
-0.6144679
-0.6134498
-0.6106941
-0.6153798
-0.6150389
-0.6145176
-0.6132134
-0.6166507
-0.6162967
-0.6159707
-0.6156173
-0.6149276
-0.6177856
-0.6174095
-0.6170999
-0.6168534
-0.6166459
-0.616033
-0.6187646
-0.6183815
-0.618058
-0.6178149
-0.6176573
-0.6173282
-0.6164912
-0.6196006
-0.6192148
-0.6188813
-0.6186164
-0.6184431
-0.6181508
-0.6175165
-0.6167445
-0.6132799
-0.6119592
-0.6100535
-0.6067013
-0.5959599
-0.6141198
-0.6125939
-0.6103013
-0.6061602
-0.5980838
-0.5776227
-0.614973
-0.613494
-0.611431
-0.6080388
-0.6017923
-0.5904999
-0.5669004
-0.6158088
-0.614434
-0.6127202
-0.6102125
-0.6060571
-0.5988413
-0.5871412
-0.5652002
-0.6166204
-0.6153559
-0.6139287
-0.6121294
-0.6095061
-0.6053791
-0.5988861
-0.5896289
-0.5728904
-0.61741
-0.6162519
-0.6150373
-0.6136932
-0.6120379
-0.6097547
-0.6065143
-0.6021011
-0.5970407
-0.5889388
-0.61818
-0.6171315
-0.6160767
-0.6150107
-0.6138781
-0.6125751
-0.6109674
-0.6090594
-0.60712
-0.6064487
-0.6026069
-0.6189312
-0.6180013
-0.6170821
-0.6161908
-0.6153257
-0.6144646
-0.6135856
-0.6126984
-0.6120029
-0.612029
-0.6115875
-0.6057106
-0.6196617
-0.6188613
-0.6180692
-0.6173038
-0.6165756
-0.6158913
-0.6152573
-0.6147063
-0.6143315
-0.6144246
-0.6143898
-0.6128932
-0.6088575
-0.6203678
-0.6197024
-0.6190329
-0.6183702
-0.6177219
-0.6170945
-0.6164967
-0.6159459
-0.6155007
-0.6153544
-0.615579
-0.6149625
-0.6140487
-0.6117111
-0.6162784
-0.6159912
-0.6156432
-0.6151515
-0.6139862
-0.6174825
-0.6171283
-0.6168237
-0.6165527
-0.6162663
-0.6154017
-0.6185647
-0.6181877
-0.6178664
-0.617618
-0.6174418
-0.6170685
-0.6160959
-0.6195027
-0.6191185
-0.6187858
-0.6185196
-0.618342
-0.6180399
-0.6173857
-0.6165541
-0.6203035
-0.6199203
-0.6195794
-0.6192971
-0.6190904
-0.6187899
-0.6182032
-0.6175742
-0.6168078
-0.6142594
-0.6131363
-0.6117414
-0.6097199
-0.606322
-0.5958664
-0.6150666
-0.6138112
-0.6121919
-0.6097638
-0.6055718
-0.5980113
-0.5789056
-0.6158665
-0.6146065
-0.6130869
-0.6109659
-0.6075999
-0.6018558
-0.5923202
-0.5716814
-0.6166475
-0.6154293
-0.6140675
-0.6123803
-0.609971
-0.6062407
-0.6003818
-0.5918648
-0.5751498
-0.61741
-0.6162519
-0.6150373
-0.6136932
-0.6120379
-0.6097547
-0.6065143
-0.6021011
-0.5970407
-0.5889388
-0.6181562
-0.6170728
-0.6159819
-0.6148764
-0.6136914
-0.6123068
-0.6105702
-0.608484
-0.6063714
-0.6057333
-0.6019395
-0.6188876
-0.6178945
-0.6169158
-0.6159713
-0.6150558
-0.6141366
-0.6131782
-0.6121849
-0.611392
-0.6114634
-0.6110262
-0.6045321
-0.6196037
-0.6187174
-0.6178494
-0.6170253
-0.6162589
-0.6155557
-0.6149188
-0.6143807
-0.6140443
-0.6142475
-0.6141816
-0.6123061
-0.6073703
-0.6203019
-0.6195368
-0.6187828
-0.6180602
-0.6173838
-0.6167661
-0.6162231
-0.6157842
-0.6155298
-0.6156413
-0.6156878
-0.6148386
-0.6135278
-0.6101947
-0.6209777
-0.6203412
-0.619702
-0.6190713
-0.618457
-0.6178668
-0.6173096
-0.6168037
-0.616398
-0.6162674
-0.6164913
-0.616024
-0.6154691
-0.6146626
-0.6127285
-0.6171231
-0.6168442
-0.61655
-0.6162251
-0.615792
-0.6144977
-0.6182712
-0.6179179
-0.6176076
-0.6173517
-0.6171401
-0.6166867
-0.6154659
-0.6193087
-0.6189312
-0.6186024
-0.6183348
-0.6181478
-0.6178241
-0.6171259
-0.6161593
-0.6202083
-0.6198269
-0.6194871
-0.6192046
-0.6189954
-0.6186891
-0.6180923
-0.6174433
-0.6166176
-0.620977
-0.6205983
-0.6202549
-0.6199589
-0.6197275
-0.6194069
-0.6188379
-0.6182558
-0.6176322
-0.6168714
-0.6151764
-0.6141754
-0.613035
-0.6116148
-0.6095938
-0.6063737
-0.5963438
-0.6159458
-0.6148432
-0.6135756
-0.6119388
-0.6095469
-0.6056738
-0.5992056
-0.582029
-0.6166992
-0.6155699
-0.6143296
-0.6128441
-0.6108142
-0.607786
-0.6030865
-0.5960463
-0.5798637
-0.6174351
-0.616316
-0.6151472
-0.613866
-0.6123147
-0.6102144
-0.6072739
-0.6032672
-0.5985487
-0.5901635
-0.6181562
-0.6170728
-0.6159819
-0.6148764
-0.6136914
-0.6123068
-0.6105702
-0.608484
-0.6063714
-0.6057333
-0.6019395
-0.6188648
-0.6178392
-0.6168295
-0.6158567
-0.614913
-0.6139595
-0.6129525
-0.6118938
-0.6110399
-0.6111367
-0.610715
-0.6039426
-0.6195617
-0.6186154
-0.6176931
-0.6168258
-0.6160289
-0.6153058
-0.6146545
-0.6141043
-0.6137658
-0.6140286
-0.6139702
-0.6118307
-0.6063536
-0.6202459
-0.6193984
-0.618573
-0.6177983
-0.6170952
-0.6164793
-0.6159684
-0.615592
-0.6154292
-0.6156507
-0.6156688
-0.6146474
-0.6130152
-0.6089482
-0.6209141
-0.6201816
-0.6194617
-0.6187753
-0.6181385
-0.6175667
-0.6170776
-0.6167019
-0.6165008
-0.6166156
-0.616662
-0.6160542
-0.6153009
-0.614168
-0.6114842
-0.6215615
-0.6209521
-0.6203412
-0.6197396
-0.6191558
-0.6185972
-0.6180734
-0.617601
-0.6172255
-0.6171004
-0.6173118
-0.6169001
-0.6164729
-0.6159786
-0.6152819
-0.6133464
-0.6179207
-0.6176442
-0.6173569
-0.6170792
-0.6167957
-0.6162054
-0.6145665
-0.6190235
-0.6186697
-0.6183548
-0.6180869
-0.6178817
-0.6175191
-0.616744
-0.6155305
-0.6200195
-0.619645
-0.6193099
-0.6190281
-0.6188137
-0.6184948
-0.6178764
-0.6171836
-0.6162231
-0.6208841
-0.6205075
-0.6201654
-0.6198697
-0.6196369
-0.6193122
-0.6187371
-0.6181449
-0.6175013
-0.6166813
-0.6216225
-0.6212508
-0.6209076
-0.620604
-0.6203526
-0.6200184
-0.6194512
-0.6188861
-0.6183087
-0.6176904
-0.6169393
-0.6160396
-0.6151202
-0.6141289
-0.6130025
-0.6116171
-0.6097212
-0.6068784
-0.5975038
-0.6167705
-0.6157654
-0.6146863
-0.6134556
-0.6118934
-0.6097264
-0.6065068
-0.6016177
-0.587581
-0.6174831
-0.6164395
-0.6153569
-0.6141902
-0.6128233
-0.6110445
-0.6086329
-0.6053726
-0.6013672
-0.5927151
-0.61818
-0.6171315
-0.6160767
-0.6150107
-0.6138781
-0.6125751
-0.6109674
-0.6090594
-0.60712
-0.6064487
-0.6026069
-0.6188648
-0.6178392
-0.6168295
-0.6158567
-0.614913
-0.6139595
-0.6129525
-0.6118938
-0.6110399
-0.6111367
-0.610715
-0.6039426
-0.6195398
-0.6185627
-0.6176122
-0.6167221
-0.6159083
-0.6151725
-0.6145094
-0.6139462
-0.6135991
-0.6138907
-0.613843
-0.611568
-0.6058413
-0.6202053
-0.6193004
-0.618424
-0.6176113
-0.6168871
-0.6162684
-0.6157719
-0.6154243
-0.6153024
-0.6155838
-0.6156077
-0.6144662
-0.6126099
-0.6080866
-0.6208598
-0.6200481
-0.6192601
-0.6185255
-0.6178675
-0.6173063
-0.6168633
-0.6165699
-0.6164793
-0.6167015
-0.6167173
-0.6160194
-0.6151144
-0.6137145
-0.6104584
-0.6214999
-0.620798
-0.6201095
-0.6194551
-0.6188516
-0.6183145
-0.6178627
-0.6175239
-0.6173524
-0.6174563
-0.6174957
-0.6169825
-0.6164329
-0.6157691
-0.6148064
-0.612228
-0.6221205
-0.6215369
-0.6209525
-0.6203781
-0.619822
-0.6192918
-0.6187967
-0.6183526
-0.6180004
-0.617881
-0.6180725
-0.6176923
-0.6173079
-0.6169191
-0.6164845
-0.615683
-0.613427
-0.6186801
-0.6184013
-0.618115
-0.6178391
-0.6175918
-0.6171614
-0.6162623
-0.6146356
-0.6197415
-0.6193904
-0.6190702
-0.6187918
-0.6185669
-0.6182254
-0.6175712
-0.6168015
-0.6155958
-0.6207001
-0.6203303
-0.6199934
-0.6196994
-0.6194637
-0.6191306
-0.6185428
-0.617929
-0.6172416
-0.6162873
-0.6215319
-0.6211622
-0.6208206
-0.6205175
-0.6202653
-0.6199282
-0.6193566
-0.6187853
-0.6181978
-0.6175596
-0.6167494
-0.6222421
-0.6218786
-0.6215387
-0.6212311
-0.6209668
-0.620622
-0.6200596
-0.6194958
-0.6189346
-0.6183618
-0.6177527
-0.6170014
-0.6168551
-0.6159969
-0.6150986
-0.6141392
-0.613061
-0.6117756
-0.6101206
-0.607834
-0.599658
-0.6175495
-0.6166126
-0.6156467
-0.6146274
-0.6134873
-0.6120986
-0.6103292
-0.6080213
-0.605107
-0.5969069
-0.6182255
-0.617245
-0.6162588
-0.615266
-0.6142264
-0.6130647
-0.6116801
-0.6100815
-0.6084599
-0.6077681
-0.6039514
-0.6188876
-0.6178945
-0.6169158
-0.6159713
-0.6150558
-0.6141366
-0.6131782
-0.6121849
-0.611392
-0.6114634
-0.6110262
-0.6045321
-0.6195398
-0.6185627
-0.6176122
-0.6167221
-0.6159083
-0.6151725
-0.6145094
-0.6139462
-0.6135991
-0.6138907
-0.613843
-0.611568
-0.6058413
-0.620184
-0.6192497
-0.618347
-0.6175144
-0.6167785
-0.6161568
-0.6156651
-0.6153277
-0.615221
-0.615531
-0.6155629
-0.614359
-0.6123879
-0.6076498
-0.6208205
-0.6199535
-0.6191169
-0.6183473
-0.6176727
-0.6171161
-0.6166996
-0.6164521
-0.6164192
-0.6167007
-0.6167192
-0.6159626
-0.6149533
-0.6133677
-0.6097447
-0.6214474
-0.620669
-0.619915
-0.619215
-0.6185929
-0.61807
-0.617669
-0.6174184
-0.6173623
-0.6175681
-0.6175776
-0.617009
-0.6163752
-0.6155801
-0.6144021
-0.6113093
-0.6220609
-0.6213879
-0.6207287
-0.6201037
-0.6195294
-0.6190215
-0.6185979
-0.6182851
-0.6181297
-0.618224
-0.6182487
-0.6177869
-0.6173135
-0.6168166
-0.6162359
-0.6152143
-0.6123217
-0.6226561
-0.6220969
-0.6215376
-0.6209888
-0.6204585
-0.6199544
-0.6194851
-0.6190658
-0.6187344
-0.6186196
-0.6187942
-0.6184301
-0.6180683
-0.6177097
-0.6173578
-0.6168174
-0.6157391
-0.6135075
-0.6194043
-0.6191254
-0.6188355
-0.6185565
-0.6183034
-0.6179213
-0.6172122
-0.6163193
-0.6147053
-0.6204286
-0.6200816
-0.6197599
-0.6194711
-0.6192294
-0.618881
-0.6182732
-0.6176234
-0.6168593
-0.6156614
-0.6213521
-0.6209893
-0.620653
-0.6203523
-0.6200985
-0.6197552
-0.6191749
-0.618591
-0.6179818
-0.6172998
-0.616356
-0.6221535
-0.6217921
-0.6214538
-0.6211469
-0.6208822
-0.6205351
-0.6199694
-0.6194011
-0.6188339
-0.6182509
-0.6176219
-0.6168117
-0.6228371
-0.6224831
-0.6221485
-0.6218405
-0.6215678
-0.6212179
-0.6206606
-0.6201011
-0.6195406
-0.6189833
-0.6184188
-0.6178097
-0.6170472
-0.6176282
-0.6168191
-0.6159868
-0.6151275
-0.6142216
-0.6132273
-0.6121033
-0.6107877
-0.60923
-0.6036714
-0.6182884
-0.6174047
-0.6165131
-0.6156161
-0.6146917
-0.6136973
-0.6125735
-0.6113361
-0.6101063
-0.6094571
-0.6059828
-0.6189312
-0.6180013
-0.6170821
-0.6161908
-0.6153257
-0.6144646
-0.6135856
-0.6126984
-0.6120029
-0.612029
-0.6115875
-0.6057106
-0.6195617
-0.6186154
-0.6176931
-0.6168258
-0.6160289
-0.6153058
-0.6146545
-0.6141043
-0.6137658
-0.6140286
-0.6139702
-0.6118307
-0.6063536
-0.620184
-0.6192497
-0.618347
-0.6175144
-0.6167785
-0.6161568
-0.6156651
-0.6153277
-0.615221
-0.615531
-0.6155629
-0.614359
-0.6123879
-0.6076498
-0.6207999
-0.6199046
-0.619043
-0.618255
-0.6175713
-0.6170161
-0.6166112
-0.6163839
-0.616376
-0.6166858
-0.6167101
-0.6159237
-0.6148608
-0.6131804
-0.6093811
-0.6214092
-0.6205774
-0.6197769
-0.6190439
-0.6184073
-0.617892
-0.617522
-0.6173233
-0.6173308
-0.6175935
-0.6176049
-0.6170041
-0.6163163
-0.6154323
-0.6141058
-0.6106693
-0.6220099
-0.621263
-0.6205407
-0.6198721
-0.6192807
-0.6187878
-0.6184158
-0.6181913
-0.6181496
-0.6183404
-0.6183359
-0.6178353
-0.6173069
-0.616733
-0.616041
-0.6148317
-0.6114141
-0.6225983
-0.6219528
-0.6213213
-0.6207236
-0.6201761
-0.6196939
-0.6192943
-0.6190016
-0.618858
-0.6189426
-0.618956
-0.6185198
-0.6180868
-0.6176482
-0.6171984
-0.6165481
-0.6152711
-0.6124151
-0.6231691
-0.6226335
-0.6220981
-0.6215734
-0.6210675
-0.6205876
-0.6201422
-0.6197455
-0.619433
-0.6193241
-0.619484
-0.6191328
-0.6187807
-0.6184363
-0.6181022
-0.6176503
-0.6168654
-0.6157953
-0.6135881
-0.6200971
-0.6198192
-0.6195281
-0.6192424
-0.6189806
-0.6186041
-0.6179677
-0.6172632
-0.6163765
-0.6147753
-0.6210866
-0.6207459
-0.6204247
-0.6201301
-0.6198727
-0.6195185
-0.6189251
-0.618321
-0.6176758
-0.6169173
-0.6157315
-0.6219776
-0.6216231
-0.6212903
-0.6209861
-0.6207205
-0.6203686
-0.6197965
-0.6192194
-0.6186394
-0.6180348
-0.6173621
-0.6164188
-0.6227503
-0.6223985
-0.6220656
-0.6217584
-0.6214855
-0.6211338
-0.6205737
-0.6200108
-0.6194459
-0.6188825
-0.6183079
-0.6176789
-0.6168576
-0.6234087
-0.6230653
-0.6227377
-0.6224319
-0.6221552
-0.6218036
-0.6212543
-0.6206994
-0.6201427
-0.6195855
-0.6190359
-0.618471
-0.6178513
-0.6170775
-0.6183629
-0.6175957
-0.6168142
-0.6160233
-0.6152181
-0.6143871
-0.6135112
-0.6126044
-0.6117225
-0.6111238
-0.6086545
-0.6189914
-0.618152
-0.6173156
-0.6164954
-0.6156929
-0.6148972
-0.6141007
-0.6133183
-0.6127059
-0.6126535
-0.6122711
-0.6074603
-0.6196037
-0.6187174
-0.6178494
-0.6170253
-0.6162589
-0.6155557
-0.6149188
-0.6143807
-0.6140443
-0.6142475
-0.6141816
-0.6123061
-0.6073703
-0.6202053
-0.6193004
-0.618424
-0.6176113
-0.6168871
-0.6162684
-0.6157719
-0.6154243
-0.6153024
-0.6155838
-0.6156077
-0.6144662
-0.6126099
-0.6080866
-0.6207999
-0.6199046
-0.619043
-0.618255
-0.6175713
-0.6170161
-0.6166112
-0.6163839
-0.616376
-0.6166858
-0.6167101
-0.6159237
-0.6148608
-0.6131804
-0.6093811
-0.6213892
-0.6205302
-0.6197056
-0.6189553
-0.6183108
-0.6177986
-0.6174431
-0.6172682
-0.6173044
-0.6175944
-0.6176109
-0.6169946
-0.6162799
-0.6153507
-0.6139489
-0.6103427
-0.6219729
-0.6211744
-0.6204072
-0.6197069
-0.6191022
-0.618618
-0.6182781
-0.6181067
-0.6181292
-0.6183745
-0.6183715
-0.6178512
-0.6172908
-0.6166682
-0.6159024
-0.6145587
-0.6107817
-0.6225488
-0.6218319
-0.6211394
-0.6204997
-0.619936
-0.6194688
-0.6191197
-0.6189129
-0.6188792
-0.6190548
-0.61904
-0.6185725
-0.6180991
-0.6176077
-0.6170887
-0.6163485
-0.6148905
-0.6115184
-0.6231131
-0.622494
-0.6218888
-0.6213171
-0.6207945
-0.6203359
-0.6199576
-0.6196824
-0.6195485
-0.6196263
-0.6196298
-0.6192119
-0.618798
-0.6183892
-0.6179803
-0.6174621
-0.6165938
-0.6153278
-0.6125083
-0.6236607
-0.6231476
-0.6226351
-0.6221335
-0.6216506
-0.6211936
-0.6207705
-0.620395
-0.6201003
-0.619998
-0.6201471
-0.6198066
-0.6194625
-0.6191221
-0.6187941
-0.6183668
-0.6176933
-0.6169133
-0.6158515
-0.6136687
-0.6207605
-0.620486
-0.6201951
-0.6199056
-0.6196328
-0.6192577
-0.618647
-0.6180141
-0.6173142
-0.6164338
-0.6148495
-0.6217176
-0.6213846
-0.6210667
-0.6207691
-0.6205015
-0.6201409
-0.6195595
-0.6189692
-0.618369
-0.6177283
-0.6169794
-0.6157958
-0.622578
-0.6222331
-0.6219057
-0.6216014
-0.6213283
-0.6209725
-0.6204072
-0.6198379
-0.6192642
-0.6186879
-0.6180917
-0.6174191
-0.6164651
-0.6233236
-0.6229824
-0.6226566
-0.6223518
-0.622075
-0.6217217
-0.6211701
-0.6206125
-0.6200525
-0.6194909
-0.618935
-0.61836
-0.6177205
-0.6168879
-0.6239581
-0.6236259
-0.6233067
-0.6230054
-0.6227279
-0.6223778
-0.621838
-0.6212908
-0.6207384
-0.6201845
-0.6196343
-0.6190839
-0.6185086
-0.6178783
-0.617091
-0.6115779
-0.6190626
-0.6183325
-0.6175932
-0.6168532
-0.6161157
-0.615379
-0.6146441
-0.6139221
-0.6132994
-0.6130289
-0.6128776
-0.6096785
-0.6196617
-0.6188613
-0.6180692
-0.6173038
-0.6165756
-0.6158913
-0.6152573
-0.6147063
-0.6143315
-0.6144246
-0.6143898
-0.6128932
-0.6088575
-0.6202459
-0.6193984
-0.618573
-0.6177983
-0.6170952
-0.6164793
-0.6159684
-0.615592
-0.6154292
-0.6156507
-0.6156688
-0.6146474
-0.6130152
-0.6089482
-0.6208205
-0.6199535
-0.6191169
-0.6183473
-0.6176727
-0.6171161
-0.6166996
-0.6164521
-0.6164192
-0.6167007
-0.6167192
-0.6159626
-0.6149533
-0.6133677
-0.6097447
-0.6213892
-0.6205302
-0.6197056
-0.6189553
-0.6183108
-0.6177986
-0.6174431
-0.6172682
-0.6173044
-0.6175944
-0.6176109
-0.6169946
-0.6162799
-0.6153507
-0.6139489
-0.6103427
-0.6219534
-0.6211286
-0.6203382
-0.6196214
-0.6190095
-0.6185291
-0.6182043
-0.6180578
-0.6181098
-0.6183814
-0.6183831
-0.617854
-0.6172785
-0.6166321
-0.6158295
-0.6144159
-0.610459
-0.6225128
-0.621746
-0.6210101
-0.62034
-0.6197637
-0.6193054
-0.6189879
-0.6188334
-0.6188625
-0.6190901
-0.6190767
-0.6185952
-0.6181005
-0.6175782
-0.6170163
-0.616213
-0.6146198
-0.6108936
-0.6230651
-0.6223768
-0.6217126
-0.6211003
-0.6205622
-0.6201183
-0.6197888
-0.6195963
-0.6195676
-0.6197315
-0.6197076
-0.6192621
-0.6188148
-0.618366
-0.6179074
-0.6173383
-0.6163935
-0.6149493
-0.6116224
-0.6236064
-0.6230125
-0.6224326
-0.6218854
-0.6213866
-0.6209501
-0.6205916
-0.6203324
-0.6202077
-0.6202809
-0.6202782
-0.6198738
-0.6194736
-0.6190776
-0.6186886
-0.6182149
-0.617502
-0.6166395
-0.6153845
-0.6126012
-0.6241312
-0.6236401
-0.6231497
-0.6226702
-0.6222093
-0.6217741
-0.6213722
-0.6210166
-0.6207389
-0.6206442
-0.6207858
-0.6204561
-0.6201188
-0.6197822
-0.6194527
-0.6190377
-0.6184063
-0.6177362
-0.6169612
-0.6159076
-0.6137527
-0.6213966
-0.6211272
-0.620839
-0.6205477
-0.6202679
-0.6198904
-0.6192976
-0.6186898
-0.6180606
-0.6173652
-0.6164953
-0.6149176
-0.6223231
-0.6219992
-0.6216864
-0.6213892
-0.6211148
-0.620752
-0.6201794
-0.6196006
-0.6190136
-0.618417
-0.6177848
-0.6170361
-0.6158433
-0.6231546
-0.6228203
-0.6225
-0.6221983
-0.6219217
-0.621565
-0.6210089
-0.620446
-0.6198795
-0.619309
-0.6187403
-0.6181437
-0.6174605
-0.6164957
-0.6238746
-0.6235446
-0.6232273
-0.622927
-0.6226497
-0.6222981
-0.6217562
-0.6212067
-0.6206515
-0.6200943
-0.6195396
-0.618983
-0.6183976
-0.6177474
-0.6169014
-0.6244863
-0.6241659
-0.6238562
-0.6235611
-0.6232855
-0.6229393
-0.6224106
-0.6218726
-0.6213276
-0.6207775
-0.6202301
-0.6196788
-0.6191181
-0.6185324
-0.6178896
-0.6124569
-0.6132534
-0.6119494
-0.6197301
-0.6190337
-0.6183311
-0.6176327
-0.6169445
-0.6162712
-0.6156177
-0.6150039
-0.6144909
-0.6143194
-0.6144679
-0.6134498
-0.6106941
-0.6203019
-0.6195368
-0.6187828
-0.6180602
-0.6173838
-0.6167661
-0.6162231
-0.6157842
-0.6155298
-0.6156413
-0.6156878
-0.6148386
-0.6135278
-0.6101947
-0.6208598
-0.6200481
-0.6192601
-0.6185255
-0.6178675
-0.6173063
-0.6168633
-0.6165699
-0.6164793
-0.6167015
-0.6167173
-0.6160194
-0.6151144
-0.6137145
-0.6104584
-0.6214092
-0.6205774
-0.6197769
-0.6190439
-0.6184073
-0.617892
-0.617522
-0.6173233
-0.6173308
-0.6175935
-0.6176049
-0.6170041
-0.6163163
-0.6154323
-0.6141058
-0.6106693
-0.6219534
-0.6211286
-0.6203382
-0.6196214
-0.6190095
-0.6185291
-0.6182043
-0.6180578
-0.6181098
-0.6183814
-0.6183831
-0.617854
-0.6172785
-0.6166321
-0.6158295
-0.6144159
-0.610459
-0.6224939
-0.6217016
-0.6209433
-0.6202573
-0.6196742
-0.6192198
-0.6189175
-0.6187875
-0.6188457
-0.6190987
-0.6190898
-0.6186026
-0.6180985
-0.6175618
-0.6169793
-0.6161435
-0.6144784
-0.6105747
-0.6230301
-0.6222936
-0.6215874
-0.6209457
-0.6203956
-0.6199603
-0.6196616
-0.6195196
-0.6195514
-0.6197652
-0.6197426
-0.6192856
-0.6188221
-0.6183514
-0.6178639
-0.6172609
-0.6162581
-0.6146807
-0.6110051
-0.6235597
-0.622899
-0.622262
-0.6216756
-0.6211617
-0.6207394
-0.6204279
-0.6202481
-0.6202239
-0.6203788
-0.6203493
-0.619919
-0.6194892
-0.6190598
-0.6186319
-0.6181249
-0.6173764
-0.6164384
-0.615008
-0.6117259
-0.6240786
-0.6235094
-0.6229536
-0.6224302
-0.6219539
-0.6215384
-0.6211987
-0.6209548
-0.6208392
-0.6209103
-0.6209038
-0.6205123
-0.6201224
-0.6197359
-0.6193537
-0.6189034
-0.6182511
-0.6175418
-0.6166852
-0.6154411
-0.6126965
-0.6245818
-0.6241117
-0.6236428
-0.6231845
-0.6227448
-0.6223303
-0.6219487
-0.6216123
-0.621351
-0.6212646
-0.6214015
-0.6210829
-0.6207535
-0.6204204
-0.6200907
-0.6196798
-0.6190746
-0.6184457
-0.6177792
-0.617009
-0.615968
-0.6138296
-0.622007
-0.6217444
-0.6214608
-0.6211706
-0.6208862
-0.6205091
-0.6199279
-0.6193375
-0.6187327
-0.6181071
-0.6174203
-0.6165514
-0.6149686
-0.6229045
-0.6225906
-0.6222848
-0.6219903
-0.6217132
-0.6213504
-0.6207882
-0.6202179
-0.6196419
-0.6190579
-0.6184689
-0.6178363
-0.6170772
-0.6158748
-0.6237087
-0.6233857
-0.6230738
-0.6227768
-0.6224998
-0.6221453
-0.6215995
-0.6210455
-0.620485
-0.6199212
-0.6193576
-0.6187881
-0.618181
-0.6174872
-0.6165093
-0.6244043
-0.6240861
-0.6237782
-0.6234843
-0.623209
-0.6228615
-0.6223309
-0.6217908
-0.6212435
-0.6206906
-0.6201399
-0.6195841
-0.6190171
-0.6184213
-0.6177585
-0.6249942
-0.624686
-0.6243864
-0.624099
-0.6238276
-0.6234873
-0.6229707
-0.6224436
-0.6219075
-0.6213645
-0.6208204
-0.6202717
-0.6197101
-0.6191392
-0.6185415
-0.6129815
-0.6137684
-0.6129763
-0.6143919
-0.6138875
-0.6125192
-0.6203678
-0.6197024
-0.6190329
-0.6183702
-0.6177219
-0.6170945
-0.6164967
-0.6159459
-0.6155007
-0.6153544
-0.615579
-0.6149625
-0.6140487
-0.6117111
-0.6209141
-0.6201816
-0.6194617
-0.6187753
-0.6181385
-0.6175667
-0.6170776
-0.6167019
-0.6165008
-0.6166156
-0.616662
-0.6160542
-0.6153009
-0.614168
-0.6114842
-0.6214474
-0.620669
-0.619915
-0.619215
-0.6185929
-0.61807
-0.617669
-0.6174184
-0.6173623
-0.6175681
-0.6175776
-0.617009
-0.6163752
-0.6155801
-0.6144021
-0.6113093
-0.6219729
-0.6211744
-0.6204072
-0.6197069
-0.6191022
-0.618618
-0.6182781
-0.6181067
-0.6181292
-0.6183745
-0.6183715
-0.6178512
-0.6172908
-0.6166682
-0.6159024
-0.6145587
-0.6107817
-0.6224939
-0.6217016
-0.6209433
-0.6202573
-0.6196742
-0.6192198
-0.6189175
-0.6187875
-0.6188457
-0.6190987
-0.6190898
-0.6186026
-0.6180985
-0.6175618
-0.6169793
-0.6161435
-0.6144784
-0.6105747
-0.6230117
-0.6222505
-0.6215227
-0.6208657
-0.6203089
-0.6198776
-0.6195936
-0.6194755
-0.6195355
-0.6197736
-0.6197554
-0.6192941
-0.6188239
-0.6183437
-0.617843
-0.6172229
-0.6161889
-0.6145407
-0.61069
-0.6235256
-0.6228182
-0.6221406
-0.6215258
-0.6210003
-0.6205864
-0.6203046
-0.6201734
-0.6202073
-0.6204099
-0.6203816
-0.6199409
-0.6194975
-0.6190508
-0.6186016
-0.6180737
-0.6172983
-0.6163031
-0.6147416
-0.6111161
-0.6240332
-0.6233993
-0.6227884
-0.622227
-0.6217361
-0.6213344
-0.6210399
-0.6208722
-0.6208527
-0.6210014
-0.6209687
-0.620552
-0.6201347
-0.6197186
-0.6193037
-0.6188294
-0.6181591
-0.6174145
-0.6164833
-0.6150665
-0.6118311
-0.6245308
-0.6239852
-0.623453
-0.6229523
-0.6224977
-0.6221024
-0.6217807
-0.6215516
-0.6214455
-0.6215162
-0.6215085
-0.6211294
-0.6207499
-0.6203708
-0.6199941
-0.619554
-0.6189371
-0.6182873
-0.6175817
-0.6167307
-0.6155019
-0.6127837
-0.6250125
-0.6245634
-0.6241149
-0.6236774
-0.6232581
-0.6228637
-0.6225014
-0.6221834
-0.6219381
-0.6218606
-0.6219955
-0.6216883
-0.6213676
-0.6210398
-0.6207106
-0.6203044
-0.6197146
-0.6191113
-0.6184851
-0.617822
-0.617061
-0.6160231
-0.6138886
-0.6225932
-0.6223387
-0.6220614
-0.6217744
-0.6214889
-0.6211135
-0.6205445
-0.6199653
-0.6193775
-0.6187755
-0.6181574
-0.6174704
-0.6165916
-0.6150032
-0.623463
-0.62316
-0.6228625
-0.6225728
-0.6222959
-0.621936
-0.6213848
-0.6208246
-0.6202566
-0.6196832
-0.6191061
-0.6185162
-0.617873
-0.6171034
-0.6158891
-0.6242413
-0.62393
-0.6236277
-0.6233371
-0.6230624
-0.6227123
-0.6221782
-0.6216341
-0.6210822
-0.620524
-0.6199667
-0.6194019
-0.618822
-0.6182045
-0.617498
-0.6249135
-0.6246076
-0.62431
-0.6240238
-0.6237527
-0.6234112
-0.6228929
-0.6223639
-0.6218257
-0.6212804
-0.6207335
-0.6201814
-0.6196154
-0.6190381
-0.6184303
-0.6254824
-0.6251868
-0.6248981
-0.6246194
-0.6243538
-0.624021
-0.6235174
-0.6230023
-0.6224768
-0.6219425
-0.6214051
-0.6208596
-0.6203006
-0.6197289
-0.6191463
-0.6133125
-0.6141613
-0.6135712
-0.6148224
-0.6143677
-0.6135641
-0.6153798
-0.6150389
-0.6145176
-0.6132134
-0.6209777
-0.6203412
-0.619702
-0.6190713
-0.618457
-0.6178668
-0.6173096
-0.6168037
-0.616398
-0.6162674
-0.6164913
-0.616024
-0.6154691
-0.6146626
-0.6127285
-0.6214999
-0.620798
-0.6201095
-0.6194551
-0.6188516
-0.6183145
-0.6178627
-0.6175239
-0.6173524
-0.6174563
-0.6174957
-0.6169825
-0.6164329
-0.6157691
-0.6148064
-0.612228
-0.6220099
-0.621263
-0.6205407
-0.6198721
-0.6192807
-0.6187878
-0.6184158
-0.6181913
-0.6181496
-0.6183404
-0.6183359
-0.6178353
-0.6173069
-0.616733
-0.616041
-0.6148317
-0.6114141
-0.6225128
-0.621746
-0.6210101
-0.62034
-0.6197637
-0.6193054
-0.6189879
-0.6188334
-0.6188625
-0.6190901
-0.6190767
-0.6185952
-0.6181005
-0.6175782
-0.6170163
-0.616213
-0.6146198
-0.6108936
-0.6230117
-0.6222505
-0.6215227
-0.6208657
-0.6203089
-0.6198776
-0.6195936
-0.6194755
-0.6195355
-0.6197736
-0.6197554
-0.6192941
-0.6188239
-0.6183437
-0.617843
-0.6172229
-0.6161889
-0.6145407
-0.61069
-0.6235077
-0.6227765
-0.6220779
-0.6214483
-0.6209164
-0.6205062
-0.6202387
-0.6201305
-0.6201916
-0.6204176
-0.6203936
-0.6199492
-0.6195004
-0.6190464
-0.6185879
-0.61805
-0.6172601
-0.6162342
-0.614603
-0.6108047
-0.6240001
-0.623321
-0.6226708
-0.6220819
-0.6215798
-0.6211861
-0.6209202
-0.6207992
-0.6208355
-0.6210299
-0.6209984
-0.6205718
-0.620142
-0.6197112
-0.619279
-0.6187906
-0.618107
-0.6173358
-0.6163482
-0.6148023
-0.6112282
-0.6244867
-0.6238785
-0.623293
-0.6227555