/*--------------------------------*- C++ -*----------------------------------*\
| =========                 |                                                 |
| \\      /  F ield         | OpenFOAM: The Open Source CFD Toolbox           |
|  \\    /   O peration     | Version:  2306                                  |
|   \\  /    A nd           | Website:  www.openfoam.com                      |
|    \\/     M anipulation  |                                                 |
\*---------------------------------------------------------------------------*/
FoamFile
{
    version     2.0;
    format      ascii;
    arch        "LSB;label=32;scalar=64";
    class       volScalarField;
    location    "0.3/air";
    object      O2;
}
// * * * * * * * * * * * * * * * * * * * * * * * * * * * * * * * * * * * * * //

dimensions      [0 0 0 0 0 0 0];

internalField   nonuniform List<scalar> 
16000
(
0.2298487
0.2298522
0.2292716
0.2298239
0.2298576
0.2293321
0.2298292
0.2279022
0.2291879
0.2297661
0.2298627
0.2294088
0.2298367
0.2279972
0.2292715
0.2297762
0.2263104
0.2277791
0.2289658
0.2296595
0.2298657
0.2294727
0.2298436
0.2281261
0.2293709
0.229789
0.2264142
0.2279038
0.2290854
0.2296791
0.2246514
0.2261735
0.2274696
0.228539
0.2294654
0.2298657
0.229508
0.2298477
0.2282397
0.2294501
0.2298002
0.2265565
0.2280652
0.2292246
0.2297013
0.2247566
0.2263082
0.2276316
0.2287042
0.2295096
0.2230001
0.2245126
0.225833
0.2269142
0.2278356
0.2291009
0.19498
0.2298627
0.229508
0.2298477
0.2283046
0.2294928
0.2298067
0.2266829
0.2282035
0.2293328
0.2297211
0.2249007
0.2264847
0.2278383
0.2289
0.2295584
0.2231031
0.2246485
0.2260042
0.2271137
0.2280465
0.2291872
0.2213861
0.2228634
0.2241688
0.2252303
0.2260577
0.226789
0.2284308
0.1962142
0.193252
0.1947851
0.2298576
0.2294727
0.2298436
0.2283046
0.2294928
0.2298067
0.2267557
0.2282815
0.2293901
0.2297323
0.2250289
0.2266376
0.2280131
0.229052
0.2295942
0.2232443
0.2248266
0.2262253
0.2273689
0.2283053
0.229291
0.2214861
0.2229962
0.2243396
0.2254345
0.2262928
0.2270422
0.2285631
0.2198206
0.2212535
0.2225251
0.223564
0.2243181
0.224851
0.2253405
0.2272933
0.1987075
0.1943749
0.1960148
0.192547
0.1930705
0.194396
0.2298522
0.2294088
0.2298367
0.2282397
0.2294501
0.2298002
0.2267557
0.2282815
0.2293901
0.2297323
0.2251027
0.2267245
0.2281108
0.2291327
0.2296126
0.22337
0.224981
0.2264148
0.2275847
0.2285154
0.2293664
0.2216231
0.2231704
0.2245603
0.2256989
0.2265959
0.227362
0.2287366
0.2199172
0.2213823
0.2226913
0.2237646
0.2245495
0.2251197
0.22565
0.2275014
0.2183047
0.2196923
0.2209254
0.2219314
0.2226562
0.2230608
0.2232506
0.2234049
0.2254398
0.2025512
0.1966385
0.1984923
0.1936094
0.19419
0.1956178
0.1921173
0.1923765
0.1927081
0.1938138
0.2298487
0.2293321
0.2298292
0.2281261
0.2293709
0.229789
0.2266829
0.2282035
0.2293328
0.2297211
0.2251027
0.2267245
0.2281108
0.2291327
0.2296126
0.2234424
0.2250689
0.2265218
0.2277052
0.2286296
0.2294051
0.2217449
0.2233215
0.2247496
0.2259257
0.2268537
0.2276331
0.2288801
0.2200495
0.2215511
0.2229062
0.2240245
0.2248519
0.2254701
0.2260452
0.2277798
0.2183981
0.2198167
0.2210863
0.2221255
0.2228796
0.2233154
0.2235578
0.2238004
0.2258356
0.2168365
0.2181808
0.219375
0.2203504
0.2210434
0.2214169
0.221433
0.2212141
0.2208793
0.2224139
0.2081047
0.2001133
0.2022761
0.1957501
0.1964408
0.1980689
0.1931275
0.1934358
0.1938216
0.1950259
0.191758
0.1919554
0.1920359
0.1921657
0.1930399
0.2292716
0.2298239
0.2279972
0.2292715
0.2297762
0.2265565
0.2280652
0.2292246
0.2297013
0.2250289
0.2266376
0.2280131
0.229052
0.2295942
0.2234424
0.2250689
0.2265218
0.2277052
0.2286296
0.2294051
0.2218151
0.2234075
0.2248566
0.2260537
0.2269982
0.2277837
0.2289589
0.2201672
0.2216975
0.2230907
0.2242474
0.2251127
0.2257705
0.2263783
0.2280121
0.2185259
0.2199797
0.2212941
0.2223768
0.2231713
0.223652
0.223962
0.2243025
0.2263095
0.2169268
0.218301
0.2195304
0.2205377
0.2212578
0.2216586
0.2217151
0.2215872
0.2214576
0.2233707
0.2154124
0.2167166
0.2178743
0.2188191
0.2194914
0.2198359
0.2198277
0.2194113
0.218681
0.2175865
0.2171427
0.2050949
0.2075371
0.1990343
0.1998657
0.2017635
0.1951627
0.1955649
0.1960514
0.1974473
0.1927247
0.1929628
0.1930898
0.1932719
0.1942422
0.1913423
0.1916033
0.1916321
0.1915259
0.1914443
0.1919191
0.2279022
0.2291879
0.2297661
0.2264142
0.2279038
0.2290854
0.2296791
0.2249007
0.2264847
0.2278383
0.2289
0.2295584
0.22337
0.224981
0.2264148
0.2275847
0.2285154
0.2293664
0.2218151
0.2234075
0.2248566
0.2260537
0.2269982
0.2277837
0.2289589
0.220235
0.2217808
0.223195
0.2243734
0.2252603
0.2259396
0.2265639
0.22814
0.2186396
0.2201211
0.2214724
0.2225926
0.223423
0.2239444
0.2243096
0.2247209
0.2266771
0.2170504
0.2184585
0.2197309
0.22078
0.2215378
0.2219779
0.2220917
0.2220722
0.2221384
0.2242228
0.2154999
0.2168329
0.2180244
0.2189997
0.2196977
0.2200663
0.2200928
0.2197499
0.2192165
0.2186654
0.2199371
0.2140289
0.2152963
0.2164201
0.2173372
0.2179888
0.2183254
0.2182946
0.217871
0.2169508
0.2155067
0.2130832
0.2145149
0.2037376
0.2045986
0.2066908
0.1982836
0.1988026
0.1994025
0.2010529
0.1946717
0.1949872
0.1952
0.1954787
0.196637
0.1922703
0.1925674
0.1926347
0.1925737
0.1925436
0.1931113
0.1908782
0.1911938
0.1912944
0.191148
0.1908476
0.190399
0.1916878
0.2263104
0.2277791
0.2289658
0.2296595
0.2247566
0.2263082
0.2276316
0.2287042
0.2295096
0.2232443
0.2248266
0.2262253
0.2273689
0.2283053
0.229291
0.2217449
0.2233215
0.2247496
0.2259257
0.2268537
0.2276331
0.2288801
0.220235
0.2217808
0.223195
0.2243734
0.2252603
0.2259396
0.2265639
0.22814
0.2187051
0.2202016
0.2215732
0.2227145
0.2235656
0.2241105
0.2245053
0.2249523
0.2268718
0.2171604
0.218595
0.219903
0.2209879
0.2217794
0.222255
0.2224195
0.2224834
0.2226789
0.2247967
0.2156197
0.2169852
0.2182181
0.2192334
0.2199669
0.2203706
0.2204459
0.2201956
0.2198555
0.2196734
0.22141
0.2141138
0.215409
0.2165653
0.2175118
0.2181877
0.2185465
0.218546
0.2181889
0.2174434
0.2165153
0.2157364
0.2178044
0.212683
0.2139162
0.215009
0.2159005
0.2165352
0.2168622
0.2168389
0.2164049
0.2155053
0.2139171
0.2112686
0.210826
0.2124703
0.2027503
0.2032729
0.2038532
0.205706
0.1976568
0.1980644
0.1983696
0.1987575
0.2001742
0.1941392
0.1945043
0.1946415
0.1946634
0.1947306
0.1954832
0.1917724
0.1921193
0.1922539
0.192145
0.1918896
0.1914916
0.1928779
0.1903569
0.1907351
0.1908971
0.1908318
0.190504
0.1898645
0.1901833
0.1914545
0.2246514
0.2261735
0.2274696
0.228539
0.2294654
0.2231031
0.2246485
0.2260042
0.2271137
0.2280465
0.2291872
0.2216231
0.2231704
0.2245603
0.2256989
0.2265959
0.227362
0.2287366
0.2201672
0.2216975
0.2230907
0.2242474
0.2251127
0.2257705
0.2263783
0.2280121
0.2187051
0.2202016
0.2215732
0.2227145
0.2235656
0.2241105
0.2245053
0.2249523
0.2268718
0.2172237
0.2186728
0.2200003
0.2211053
0.2219163
0.2224125
0.2226058
0.2227128
0.2229697
0.225081
0.2157262
0.2171173
0.2183843
0.2194338
0.2201988
0.2206347
0.2207529
0.2205771
0.2203683
0.2203889
0.222256
0.2142301
0.2155566
0.2167528
0.2177375
0.2184471
0.2188383
0.2188812
0.218606
0.2180342
0.21746
0.2172487
0.2195964
0.2127655
0.2140256
0.2151498
0.2160694
0.2167274
0.2170754
0.2170802
0.2167066
0.215971
0.214864
0.2137695
0.2139009
0.2159135
0.2113712
0.2125734
0.2136375
0.2145055
0.2151243
0.2154467
0.2154266
0.2150182
0.2141283
0.2126002
0.2098972
0.2091481
0.2090585
0.2107964
0.2019276
0.2023107
0.2025761
0.2029787
0.2046498
0.1970041
0.1974478
0.1976548
0.1977667
0.1979559
0.1989775
0.1935732
0.1939786
0.1941743
0.194133
0.1939622
0.1936635
0.1952453
0.1912207
0.1916269
0.1918184
0.1917861
0.1914959
0.1909012
0.1912745
0.1926426
0.1897932
0.1902186
0.1904493
0.190453
0.1902162
0.1895706
0.1896617
0.1899657
0.1912192
0.2230001
0.2245126
0.225833
0.2269142
0.2278356
0.2291009
0.2214861
0.2229962
0.2243396
0.2254345
0.2262928
0.2270422
0.2285631
0.2200495
0.2215511
0.2229062
0.2240245
0.2248519
0.2254701
0.2260452
0.2277798
0.2186396
0.2201211
0.2214724
0.2225926
0.223423
0.2239444
0.2243096
0.2247209
0.2266771
0.2172237
0.2186728
0.2200003
0.2211053
0.2219163
0.2224125
0.2226058
0.2227128
0.2229697
0.225081
0.2157876
0.2171925
0.2184782
0.2195471
0.2203302
0.2207848
0.2209272
0.2207915
0.220646
0.2207546
0.2226499
0.2143335
0.2156846
0.2169135
0.217931
0.2186706
0.2190913
0.2191727
0.2189623
0.2185104
0.2181336
0.2181706
0.2206019
0.2128785
0.2141689
0.2153315
0.2162879
0.216978
0.2173564
0.2174014
0.2171028
0.2165276
0.2157495
0.2151959
0.2156753
0.2179137
0.2114516
0.2126798
0.2137742
0.2146694
0.2153105
0.2156529
0.2156592
0.2153081
0.2145725
0.2135021
0.2122664
0.2120511
0.2122656
0.2142562
0.2100913
0.2112646
0.2123025
0.2131488
0.2137533
0.2140706
0.2140594
0.2136687
0.212826
0.2113395
0.208759
0.2078878
0.2074919
0.2076
0.2093823
0.201102
0.2015083
0.2016517
0.2017597
0.2020325
0.2033726
0.1963332
0.1968038
0.1970571
0.1970844
0.1970175
0.1968595
0.1987311
0.1929602
0.1934185
0.1936621
0.1936889
0.1934685
0.1929617
0.1934434
0.1950055
0.1906297
0.1910802
0.1913371
0.1913694
0.1911659
0.1905581
0.1906973
0.1910556
0.1924053
0.1891921
0.1896593
0.1899425
0.1900214
0.189862
0.189324
0.189378
0.189457
0.1897463
0.1909819
0.2213861
0.2228634
0.2241688
0.2252303
0.2260577
0.226789
0.2284308
0.2199172
0.2213823
0.2226913
0.2237646
0.2245495
0.2251197
0.22565
0.2275014
0.2185259
0.2199797
0.2212941
0.2223768
0.2231713
0.223652
0.223962
0.2243025
0.2263095
0.2171604
0.218595
0.219903
0.2209879
0.2217794
0.222255
0.2224195
0.2224834
0.2226789
0.2247967
0.2157876
0.2171925
0.2184782
0.2195471
0.2203302
0.2207848
0.2209272
0.2207915
0.220646
0.2207546
0.2226499
0.214393
0.2157574
0.2170043
0.2180403
0.2187971
0.2192349
0.2193383
0.2191622
0.2187693
0.2184792
0.2186154
0.2210619
0.212979
0.2142931
0.2154873
0.2164751
0.2171938
0.2176001
0.2176803
0.2174413
0.2169748
0.216381
0.2160672
0.2167219
0.2190409
0.2115616
0.2128191
0.2139505
0.2148813
0.2155531
0.2159246
0.2159688
0.2156882
0.2151033
0.2143428
0.2136142
0.2137281
0.214213
0.2163756
0.2101697
0.2113682
0.2124354
0.213308
0.213934
0.2142705
0.2142847
0.2139485
0.2132535
0.2122034
0.2110223
0.2106414
0.2105237
0.2108251
0.2128163
0.2088405
0.2099874
0.2110009
0.2118274
0.2124184
0.2127317
0.2127271
0.2123601
0.2115524
0.2101405
0.2076557
0.2068399
0.2063202
0.2061293
0.2063564
0.2079799
0.2002807
0.2007003
0.20088
0.2008802
0.2008778
0.2008786
0.203111
0.1956261
0.1961405
0.1964293
0.1965131
0.1963757
0.195993
0.1966338
0.1984832
0.1923141
0.1928108
0.1931138
0.1931965
0.1930545
0.1925204
0.1927554
0.1932216
0.1947637
0.1900036
0.1904936
0.1908002
0.1909046
0.1907741
0.1902699
0.1903646
0.1904916
0.1908348
0.192166
0.1885625
0.1890622
0.1893919
0.189529
0.1894519
0.1890053
0.1891399
0.1891837
0.1892507
0.1895249
0.1906924
0.2198206
0.2212535
0.2225251
0.223564
0.2243181
0.224851
0.2253405
0.2272933
0.2183981
0.2198167
0.2210863
0.2221255
0.2228796
0.2233154
0.2235578
0.2238004
0.2258356
0.2170504
0.2184585
0.2197309
0.22078
0.2215378
0.2219779
0.2220917
0.2220722
0.2221384
0.2242228
0.2157262
0.2171173
0.2183843
0.2194338
0.2201988
0.2206347
0.2207529
0.2205771
0.2203683
0.2203889
0.222256
0.214393
0.2157574
0.2170043
0.2180403
0.2187971
0.2192349
0.2193383
0.2191622
0.2187693
0.2184792
0.2186154
0.2210619
0.2130369
0.2143638
0.2155753
0.2165809
0.217316
0.2177385
0.2178386
0.2176313
0.2172174
0.2167052
0.2164884
0.2172164
0.2195536
0.2116594
0.2129398
0.2141018
0.2150628
0.2157621
0.2161601
0.2162376
0.2160126
0.2155298
0.2149407
0.2144363
0.214719
0.215357
0.2175837
0.2102769
0.2115038
0.2126069
0.2135137
0.2141695
0.2145338
0.2145842
0.2143152
0.2137639
0.2130084
0.2123074
0.2122298
0.2123671
0.2128741
0.214988
0.208917
0.2100884
0.2111303
0.2119823
0.2125941
0.2129259
0.2129457
0.2126312
0.2119653
0.2109728
0.209827
0.2094717
0.2091984
0.2091821
0.2095668
0.2113804
0.2076174
0.2087391
0.2097303
0.2105383
0.2111172
0.2114263
0.2114286
0.2110808
0.2103132
0.2089598
0.2065932
0.2058157
0.2053439
0.2050321
0.2049713
0.2051096
0.2076949
0.1994385
0.1998941
0.2000983
0.2001445
0.2000471
0.1998036
0.200642
0.2028488
0.1948954
0.19544
0.1957801
0.1959079
0.1958372
0.1954063
0.195782
0.1964066
0.1982338
0.1916378
0.1921695
0.1925165
0.1926654
0.1925879
0.1921493
0.1923248
0.1925474
0.192998
0.1945201
0.1893512
0.1898717
0.1902226
0.1903824
0.1903312
0.189914
0.190085
0.1901694
0.1902842
0.1906122
0.1918741
0.1879095
0.1884362
0.1888028
0.1889915
0.1889788
0.1886264
0.1888285
0.1889542
0.1889878
0.1890425
0.189255
0.1903955
0.2183047
0.2196923
0.2209254
0.2219314
0.2226562
0.2230608
0.2232506
0.2234049
0.2254398
0.2169268
0.218301
0.2195304
0.2205377
0.2212578
0.2216586
0.2217151
0.2215872
0.2214576
0.2233707
0.2156197
0.2169852
0.2182181
0.2192334
0.2199669
0.2203706
0.2204459
0.2201956
0.2198555
0.2196734
0.22141
0.2143335
0.2156846
0.2169135
0.217931
0.2186706
0.2190913
0.2191727
0.2189623
0.2185104
0.2181336
0.2181706
0.2206019
0.2130369
0.2143638
0.2155753
0.2165809
0.217316
0.2177385
0.2178386
0.2176313
0.2172174
0.2167052
0.2164884
0.2172164
0.2195536
0.2117157
0.2130085
0.2141872
0.2151653
0.2158803
0.2162937
0.21639
0.2161944
0.2157612
0.2152469
0.2148336
0.215188
0.2158925
0.218133
0.2103723
0.2116213
0.2127539
0.2136901
0.2143722
0.2147619
0.2148441
0.2146281
0.2141734
0.2135805
0.2130896
0.2131672
0.2134519
0.2140851
0.2162371
0.2090217
0.2102206
0.2112973
0.2121824
0.212823
0.2131817
0.2132363
0.2129865
0.2124583
0.2117479
0.2110594
0.2109882
0.210947
0.2111247
0.2116648
0.2135512
0.2076921
0.2088377
0.2098566
0.2106892
0.2112883
0.2116153
0.2116412
0.2113441
0.2107135
0.2097641
0.2086852
0.2083413
0.2080958
0.2079325
0.2080145
0.2083049
0.2110886
0.2064191
0.2075183
0.2084882
0.2092794
0.2098467
0.2101522
0.2101603
0.209831
0.2090968
0.2078044
0.2055348
0.2048218
0.204382
0.2041157
0.2039392
0.2038152
0.204856
0.2074117
0.1985866
0.1990655
0.199315
0.1993938
0.1993508
0.1990331
0.1995835
0.200405
0.2025863
0.194142
0.1947154
0.1950922
0.1952783
0.19526
0.1949129
0.1952068
0.1955697
0.196178
0.1979828
0.1909394
0.1914976
0.1918847
0.1920836
0.1920794
0.1917195
0.1919626
0.1921277
0.1923378
0.1927726
0.1942232
0.1886772
0.1892229
0.1896087
0.189818
0.1898284
0.1895025
0.1897365
0.1898986
0.1899726
0.1900751
0.1903407
0.1915747
0.1872381
0.1877866
0.1881841
0.1884142
0.1884586
0.1881812
0.1884561
0.1886502
0.188767
0.1887902
0.1887886
0.1889782
0.1901689
0.2168365
0.2181808
0.219375
0.2203504
0.2210434
0.2214169
0.221433
0.2212141
0.2208793
0.2224139
0.2154999
0.2168329
0.2180244
0.2189997
0.2196977
0.2200663
0.2200928
0.2197499
0.2192165
0.2186654
0.2199371
0.2142301
0.2155566
0.2167528
0.2177375
0.2184471
0.2188383
0.2188812
0.218606
0.2180342
0.21746
0.2172487
0.2195964
0.212979
0.2142931
0.2154873
0.2164751
0.2171938
0.2176001
0.2176803
0.2174413
0.2169748
0.216381
0.2160672
0.2167219
0.2190409
0.2117157
0.2130085
0.2141872
0.2151653
0.2158803
0.2162937
0.21639
0.2161944
0.2157612
0.2152469
0.2148336
0.215188
0.2158925
0.218133
0.2104272
0.2116881
0.212837
0.2137896
0.2144869
0.2148914
0.2149915
0.2148035
0.2143953
0.2138735
0.2134671
0.2136107
0.2139604
0.2146502
0.2168056
0.2091147
0.2103352
0.2114405
0.2123539
0.21302
0.2134032
0.2134884
0.2132893
0.2128537
0.2122982
0.2118092
0.2118818
0.2119751
0.2122747
0.2129125
0.2148035
0.2077944
0.2089667
0.2100194
0.2108842
0.211511
0.2118641
0.2119237
0.2116889
0.2111912
0.210513
0.2098725
0.2097962
0.2097664
0.2097771
0.2100066
0.2104122
0.2132587
0.2064922
0.2076146
0.2086115
0.2094266
0.2100134
0.2103363
0.2103673
0.2100872
0.2094856
0.2085837
0.207556
0.2072553
0.2070233
0.2068897
0.2068323
0.2068493
0.2080484
0.2107987
0.2052453
0.2063222
0.2072731
0.208048
0.208605
0.2089066
0.2089202
0.2086073
0.2079046
0.2066641
0.2044889
0.2038247
0.2034419
0.2032055
0.2030746
0.2028499
0.2035802
0.204604
0.2071302
0.1977227
0.1982258
0.1985067
0.1986373
0.1986335
0.198385
0.1988253
0.1993629
0.2001676
0.2023233
0.193373
0.1939674
0.1943788
0.1946079
0.1946548
0.194374
0.1947226
0.1950059
0.1953561
0.1959479
0.1976774
0.190223
0.1908031
0.1912213
0.1914656
0.1915177
0.1912432
0.1915404
0.1917745
0.1919291
0.1921266
0.1924979
0.1939185
0.1879863
0.1885524
0.1889674
0.1892162
0.1892816
0.1890279
0.1893316
0.1895576
0.1897105
0.1897742
0.18982
0.1900624
0.1913462
0.1865522
0.1871183
0.1875412
0.1878064
0.1878972
0.1876862
0.1880166
0.1882843
0.1884704
0.1885781
0.1885492
0.1885285
0.1887671
0.1900144
0.2154124
0.2167166
0.2178743
0.2188191
0.2194914
0.2198359
0.2198277
0.2194113
0.218681
0.2175865
0.2171427
0.2141138
0.215409
0.2165653
0.2175118
0.2181877
0.2185465
0.218546
0.2181889
0.2174434
0.2165153
0.2157364
0.2178044
0.2128785
0.2141689
0.2153315
0.2162879
0.216978
0.2173564
0.2174014
0.2171028
0.2165276
0.2157495
0.2151959
0.2156753
0.2179137
0.2116594
0.2129398
0.2141018
0.2150628
0.2157621
0.2161601
0.2162376
0.2160126
0.2155298
0.2149407
0.2144363
0.214719
0.215357
0.2175837
0.2104272
0.2116881
0.212837
0.2137896
0.2144869
0.2148914
0.2149915
0.2148035
0.2143953
0.2138735
0.2134671
0.2136107
0.2139604
0.2146502
0.2168056
0.2091683
0.2104003
0.2115213
0.2124508
0.2131315
0.2135289
0.2136313
0.213459
0.2130681
0.21258
0.212171
0.212304
0.2124568
0.2128122
0.2134946
0.2153738
0.2078853
0.2090785
0.210159
0.2110512
0.2117028
0.2120795
0.2121687
0.2119829
0.2115742
0.2110448
0.2105945
0.2106533
0.2107476
0.2108685
0.2111936
0.211669
0.2145113
0.2065922
0.2077407
0.2087704
0.2096168
0.2102306
0.2105787
0.2106423
0.2104227
0.2099494
0.2093093
0.2087033
0.2086572
0.2086267
0.208653
0.2087256
0.2088543
0.2101572
0.2129676
0.2053168
0.2064164
0.2073936
0.2081918
0.2087678
0.2090862
0.2091221
0.2088569
0.2082829
0.2074206
0.2064466
0.2061759
0.2059871
0.2058684
0.2058426
0.2057367
0.2066126
0.2077935
0.2105106
0.2040926
0.2051504
0.2060824
0.206843
0.2073896
0.2076881
0.2077061
0.2074083
0.2067338
0.2055415
0.2034483
0.2028338
0.202493
0.20231
0.2022086
0.2020383
0.2026285
0.2033467
0.2043535
0.2068505
0.1968527
0.1973729
0.1976851
0.1978527
0.1979059
0.1977086
0.1981871
0.1986171
0.1991419
0.1999297
0.2020047
0.1925917
0.1932035
0.1936411
0.1939102
0.1940061
0.1938022
0.1941916
0.194531
0.1948038
0.1951411
0.1956679
0.197364
0.1894929
0.1900904
0.1905347
0.1908148
0.1909178
0.1907102
0.1910708
0.1913599
0.1915848
0.1917289
0.191869
0.1922162
0.1936859
0.1872823
0.1878647
0.1883036
0.188586
0.1886958
0.1885065
0.1888628
0.1891592
0.1893771
0.189521
0.1895322
0.1895587
0.1898501
0.1911903
0.1858548
0.1864353
0.1868791
0.1871736
0.1873039
0.1871477
0.1875268
0.1878506
0.1881111
0.1882891
0.1883477
0.1883023
0.1883302
0.1886234
0.189935
0.2081047
0.2140289
0.2152963
0.2164201
0.2173372
0.2179888
0.2183254
0.2182946
0.217871
0.2169508
0.2155067
0.2130832
0.2145149
0.2127655
0.2140256
0.2151498
0.2160694
0.2167274
0.2170754
0.2170802
0.2167066
0.215971
0.214864
0.2137695
0.2139009
0.2159135
0.2115616
0.2128191
0.2139505
0.2148813
0.2155531
0.2159246
0.2159688
0.2156882
0.2151033
0.2143428
0.2136142
0.2137281
0.214213
0.2163756
0.2103723
0.2116213
0.2127539
0.2136901
0.2143722
0.2147619
0.2148441
0.2146281
0.2141734
0.2135805
0.2130896
0.2131672
0.2134519
0.2140851
0.2162371
0.2091683
0.2104003
0.2115213
0.2124508
0.2131315
0.2135289
0.2136313
0.213459
0.2130681
0.21258
0.212171
0.212304
0.2124568
0.2128122
0.2134946
0.2153738
0.2079377
0.2091421
0.2102378
0.2111455
0.2118113
0.2122018
0.2123076
0.2121476
0.2117818
0.211317
0.2109427
0.2110583
0.211207
0.2113783
0.2117481
0.2122555
0.2150818
0.2066812
0.20785
0.2089067
0.2097797
0.2104175
0.2107885
0.2108809
0.2107086
0.2103214
0.2098245
0.209401
0.2094828
0.2095682
0.2096955
0.2098532
0.2100525
0.2114156
0.2142201
0.2054148
0.2065398
0.207549
0.2083776
0.2089797
0.2093227
0.2093903
0.2091838
0.2087343
0.2081252
0.2075581
0.2075306
0.2075322
0.2075612
0.2076533
0.207644
0.2086198
0.2099034
0.2126779
0.2041628
0.2052426
0.2062003
0.2069836
0.2075487
0.2078635
0.2079032
0.2076519
0.2071024
0.2062772
0.2053482
0.205111
0.2049521
0.2048763
0.2048663
0.2048014
0.2055141
0.2063774
0.2075402
0.2102244
0.2029621
0.2039997
0.2049156
0.2056616
0.2061995
0.2064943
0.2065167
0.2062323
0.2055837
0.2044346
0.2024169
0.2018432
0.2015451
0.2014007
0.2013512
0.2012169
0.2018277
0.2024085
0.2031145
0.2041044
0.2065143
0.1959784
0.196513
0.1968487
0.1970524
0.1971471
0.1970164
0.197519
0.1979888
0.1984085
0.1989205
0.1996413
0.2016777
0.1918015
0.1924267
0.1928865
0.1931867
0.1933278
0.193183
0.1936266
0.194008
0.1943383
0.1946005
0.1948794
0.1953807
0.1971247
0.1887525
0.1893637
0.1898292
0.1901397
0.1902835
0.190136
0.1905436
0.190897
0.191178
0.1913937
0.1914848
0.1916051
0.1920013
0.1935272
0.1865681
0.1871636
0.1876222
0.1879324
0.1880801
0.1879437
0.1883465
0.1886962
0.1889853
0.1891951
0.1892897
0.1892843
0.1893594
0.1897054
0.1911102
0.1851477
0.1857406
0.1862018
0.1865208
0.1866844
0.1865754
0.186993
0.1873661
0.1876833
0.1879364
0.1880679
0.1881119
0.1881142
0.1881953
0.1885496
0.2025512
0.2050949
0.2075371
0.212683
0.2139162
0.215009
0.2159005
0.2165352
0.2168622
0.2168389
0.2164049
0.2155053
0.2139171
0.2112686
0.210826
0.2124703
0.2114516
0.2126798
0.2137742
0.2146694
0.2153105
0.2156529
0.2156592
0.2153081
0.2145725
0.2135021
0.2122664
0.2120511
0.2122656
0.2142562
0.2102769
0.2115038
0.2126069
0.2135137
0.2141695
0.2145338
0.2145842
0.2143152
0.2137639
0.2130084
0.2123074
0.2122298
0.2123671
0.2128741
0.214988
0.2091147
0.2103352
0.2114405
0.2123539
0.21302
0.2134032
0.2134884
0.2132893
0.2128537
0.2122982
0.2118092
0.2118818
0.2119751
0.2122747
0.2129125
0.2148035
0.2079377
0.2091421
0.2102378
0.2111455
0.2118113
0.2122018
0.2123076
0.2121476
0.2117818
0.211317
0.2109427
0.2110583
0.211207
0.2113783
0.2117481
0.2122555
0.2150818
0.2067324
0.2079121
0.2089837
0.2098717
0.2105232
0.2109076
0.2110161
0.2108688
0.2105229
0.2100882
0.2097375
0.2098728
0.210009
0.2101822
0.2103799
0.2106126
0.2120029
0.2147906
0.2055018
0.2066466
0.2076822
0.2085367
0.2091621
0.2095274
0.2096228
0.2094623
0.2090961
0.2086255
0.208234
0.2083285
0.2084394
0.2085619
0.2087311
0.2087834
0.2098201
0.2111631
0.2139299
0.2042587
0.2053634
0.2063523
0.2071652
0.2077558
0.2080945
0.208165
0.2079708
0.2075422
0.2069626
0.2064271
0.2064233
0.2064452
0.2065077
0.2066049
0.2066262
0.2074238
0.2083865
0.2096509
0.2123895
0.2030309
0.2040901
0.2050311
0.2057992
0.2063551
0.2066658
0.2067094
0.2064702
0.2059433
0.2051512
0.2042638
0.204053
0.2039269
0.2038803
0.2039128
0.2038705
0.2045898
0.205293
0.2061437
0.2072884
0.2098803
0.2018494
0.202871
0.2037696
0.2045036
0.2050321
0.2053242
0.2053501
0.2050783
0.2044528
0.2033435
0.2013938
0.2008574
0.2005936
0.2004883
0.2004757
0.2003979
0.2010153
0.2016184
0.2021898
0.2028838
0.2038048
0.2061693
0.1951022
0.1956478
0.1960039
0.1962354
0.1963698
0.1962889
0.1968341
0.1973291
0.1977901
0.1981995
0.1986522
0.1993456
0.201428
0.1910051
0.1916408
0.1921183
0.1924451
0.192622
0.1925314
0.1930136
0.1934499
0.1938233
0.1941444
0.1943529
0.1946113
0.1951616
0.1969614
0.1880042
0.1886264
0.1891092
0.1894448
0.1896234
0.1895252
0.1899749
0.1903758
0.1907218
0.1909946
0.1911607
0.1912348
0.1914038
0.1918549
0.1934457
0.1858452
0.1864521
0.1869271
0.1872604
0.1874401
0.1873493
0.1877886
0.1881853
0.1885283
0.1888101
0.1889732
0.189053
0.1890954
0.1892238
0.1896312
0.1844327
0.1850361
0.1855125
0.1858522
0.186044
0.1859753
0.1864251
0.1868371
0.187204
0.1875145
0.1877232
0.1878415
0.1879322
0.1879862
0.1881261
0.1987075
0.2001133
0.2022761
0.2037376
0.2045986
0.2066908
0.2113712
0.2125734
0.2136375
0.2145055
0.2151243
0.2154467
0.2154266
0.2150182
0.2141283
0.2126002
0.2098972
0.2091481
0.2090585
0.2107964
0.2101697
0.2113682
0.2124354
0.213308
0.213934
0.2142705
0.2142847
0.2139485
0.2132535
0.2122034
0.2110223
0.2106414
0.2105237
0.2108251
0.2128163
0.2090217
0.2102206
0.2112973
0.2121824
0.212823
0.2131817
0.2132363
0.2129865
0.2124583
0.2117479
0.2110594
0.2109882
0.210947
0.2111247
0.2116648
0.2135512
0.2078853
0.2090785
0.210159
0.2110512
0.2117028
0.2120795
0.2121687
0.2119829
0.2115742
0.2110448
0.2105945
0.2106533
0.2107476
0.2108685
0.2111936
0.211669
0.2145113
0.2067324
0.2079121
0.2089837
0.2098717
0.2105232
0.2109076
0.2110161
0.2108688
0.2105229
0.2100882
0.2097375
0.2098728
0.210009
0.2101822
0.2103799
0.2106126
0.2120029
0.2147906
0.205552
0.2067074
0.2077574
0.2086265
0.2092652
0.2096435
0.2097546
0.2096183
0.2092921
0.2088815
0.2085601
0.2087053
0.208864
0.2090289
0.2092341
0.2093158
0.2103811
0.2117511
0.2145002
0.204344
0.2054681
0.2064825
0.2073207
0.2079339
0.2082943
0.2083919
0.2082424
0.2078947
0.2074491
0.2070833
0.2071963
0.207322
0.207472
0.2076396
0.2077158
0.2085654
0.2095885
0.2109116
0.2136407
0.2031251
0.2042084
0.2051799
0.2059769
0.2065577
0.2068916
0.2069653
0.2067816
0.2063723
0.2058188
0.2053129
0.2053268
0.2053733
0.2054569
0.2055885
0.205623
0.2064172
0.2072049
0.2081544
0.2093996
0.2120423
0.2019169
0.2029597
0.2038827
0.2046384
0.2051844
0.2054921
0.2055386
0.2053109
0.2048041
0.2040424
0.203192
0.2030055
0.2029049
0.2028901
0.202951
0.2029558
0.2036681
0.2043797
0.2050733
0.2059115
0.2069858
0.2095272
0.2007575
0.2017599
0.2026454
0.2033659
0.2038871
0.2041756
0.2042054
0.2039446
0.2033409
0.2022675
0.2003802
0.1998763
0.1996434
0.199569
0.1995936
0.1995563
0.2002041
0.200815
0.2014104
0.2019725
0.2026063
0.2034976
0.2059057
0.1942259
0.1947801
0.1951526
0.1954082
0.1955737
0.1955397
0.1961131
0.1966515
0.1971389
0.1975911
0.1979462
0.1983772
0.1991199
0.2012575
0.1902048
0.1908484
0.1913403
0.1916889
0.1918965
0.1918498
0.1923674
0.1928431
0.1932722
0.1936374
0.1939084
0.1940993
0.1944068
0.1950123
0.1968774
0.1872496
0.1878811
0.1883781
0.1887347
0.1889424
0.1888867
0.1893689
0.1898124
0.1902066
0.1905452
0.1907711
0.1909221
0.1910442
0.1912668
0.1917797
0.1851154
0.1857318
0.186221
0.186574
0.1867806
0.1867287
0.1871985
0.1876321
0.1880227
0.188359
0.1885963
0.188746
0.1888726
0.1889669
0.1891543
0.1837114
0.1843234
0.184813
0.185171
0.1853869
0.1853528
0.185829
0.1862735
0.1866798
0.1870405
0.1873085
0.1875051
0.1876691
0.1878101
0.1879207
0.1962142
0.1966385
0.1984923
0.1990343
0.1998657
0.2017635
0.2027503
0.2032729
0.2038532
0.205706
0.2100913
0.2112646
0.2123025
0.2131488
0.2137533
0.2140706
0.2140594
0.2136687
0.212826
0.2113395
0.208759
0.2078878
0.2074919
0.2076
0.2093823
0.208917
0.2100884
0.2111303
0.2119823
0.2125941
0.2129259
0.2129457
0.2126312
0.2119653
0.2109728
0.209827
0.2094717
0.2091984
0.2091821
0.2095668
0.2113804
0.2077944
0.2089667
0.2100194
0.2108842
0.211511
0.2118641
0.2119237
0.2116889
0.2111912
0.210513
0.2098725
0.2097962
0.2097664
0.2097771
0.2100066
0.2104122
0.2132587
0.2066812
0.20785
0.2089067
0.2097797
0.2104175
0.2107885
0.2108809
0.2107086
0.2103214
0.2098245
0.209401
0.2094828
0.2095682
0.2096955
0.2098532
0.2100525
0.2114156
0.2142201
0.205552
0.2067074
0.2077574
0.2086265
0.2092652
0.2096435
0.2097546
0.2096183
0.2092921
0.2088815
0.2085601
0.2087053
0.208864
0.2090289
0.2092341
0.2093158
0.2103811
0.2117511
0.2145002
0.2043932
0.2055276
0.2065561
0.2074085
0.2080347
0.2084077
0.2085206
0.2083946
0.2080857
0.2076982
0.2073998
0.2075615
0.2077323
0.2079221
0.2081226
0.2082247
0.209099
0.2101505
0.2115001
0.2142106
0.2032087
0.204311
0.2053075
0.2061291
0.2067319
0.207087
0.207187
0.2070469
0.2067162
0.2062927
0.205951
0.2060772
0.2062227
0.2063889
0.2065858
0.2066694
0.207509
0.2083484
0.2093579
0.210661
0.213292
0.2020093
0.2030758
0.2040286
0.2048125
0.2053827
0.2057131
0.2057889
0.2056154
0.2052231
0.2046934
0.2042136
0.2042441
0.2043088
0.2044174
0.2045705
0.2046452
0.2054232
0.2062093
0.2069871
0.2079235
0.2090971
0.2116859
0.2008238
0.201847
0.2027564
0.203498
0.2040364
0.20434
0.20439
0.2041723
0.2036844
0.2029498
0.2021332
0.2019677
0.2018903
0.2018998
0.2019912
0.2020283
0.2027614
0.2034672
0.2041709
0.2048551
0.2056324
0.2066754
0.2092574
0.1996795
0.2006696
0.2015385
0.2022494
0.2027616
0.2030482
0.2030805
0.2028306
0.2022465
0.2012066
0.1993761
0.1989014
0.1986952
0.1986483
0.1987018
0.1987045
0.1993695
0.2000116
0.200616
0.2012037
0.2017112
0.202322
0.2032632
0.2057259
0.193351
0.1939118
0.1942977
0.1945731
0.1947655
0.1947691
0.1953696
0.1959369
0.1964685
0.1969483
0.19735
0.1976868
0.1981675
0.1989661
0.2011698
0.1894015
0.1900517
0.1905553
0.1909219
0.1911552
0.1911464
0.1916908
0.1922024
0.1926715
0.1930933
0.1934111
0.1936666
0.1939061
0.1942675
0.1949356
0.1864901
0.1871293
0.1876386
0.1880127
0.1882451
0.1882255
0.1887348
0.1892113
0.1896486
0.1900362
0.19033
0.1905423
0.1907403
0.1909146
0.1911966
0.1843803
0.1850045
0.1855059
0.1858762
0.1861058
0.1860873
0.186582
0.1870465
0.1874744
0.1878587
0.1881524
0.1883775
0.188573
0.18875
0.1889011
0.1829853
0.1836043
0.1841051
0.184479
0.1847164
0.1847124
0.1852102
0.1856814
0.1861207
0.1865212
0.1868411
0.1870979
0.1873391
0.187552
0.1877475
0.19498
0.1943749
0.1960148
0.1957501
0.1964408
0.1980689
0.1982836
0.1988026
0.1994025
0.2010529
0.2019276
0.2023107
0.2025761
0.2029787
0.2046498
0.2088405
0.2099874
0.2110009
0.2118274
0.2124184
0.2127317
0.2127271
0.2123601
0.2115524
0.2101405
0.2076557
0.2068399
0.2063202
0.2061293
0.2063564
0.2079799
0.2076921
0.2088377
0.2098566
0.2106892
0.2112883
0.2116153
0.2116412
0.2113441
0.2107135
0.2097641
0.2086852
0.2083413
0.2080958
0.2079325
0.2080145
0.2083049
0.2110886
0.2065922
0.2077407
0.2087704
0.2096168
0.2102306
0.2105787
0.2106423
0.2104227
0.2099494
0.2093093
0.2087033
0.2086572
0.2086267
0.208653
0.2087256
0.2088543
0.2101572
0.2129676
0.2055018
0.2066466
0.2076822
0.2085367
0.2091621
0.2095274
0.2096228
0.2094623
0.2090961
0.2086255
0.208234
0.2083285
0.2084394
0.2085619
0.2087311
0.2087834
0.2098201
0.2111631
0.2139299
0.2043932
0.2055276
0.2065561
0.2074085
0.2080347
0.2084077
0.2085206
0.2083946
0.2080857
0.2076982
0.2073998
0.2075615
0.2077323
0.2079221
0.2081226
0.2082247
0.209099
0.2101505
0.2115001
0.2142106
0.203257
0.2043693
0.2053795
0.206215
0.2068305
0.2071978
0.2073127
0.2071954
0.2069025
0.2065353
0.2062588
0.2064317
0.2066202
0.2068239
0.2070511
0.207158
0.208019
0.2088829
0.2099206
0.2112499
0.2138613
0.2020914
0.2031763
0.2041536
0.2049616
0.2055533
0.2059043
0.2060058