/*--------------------------------*- C++ -*----------------------------------*\
| =========                 |                                                 |
| \\      /  F ield         | OpenFOAM: The Open Source CFD Toolbox           |
|  \\    /   O peration     | Version:  2306                                  |
|   \\  /    A nd           | Website:  www.openfoam.com                      |
|    \\/     M anipulation  |                                                 |
\*---------------------------------------------------------------------------*/
FoamFile
{
    version     2.0;
    format      ascii;
    arch        "LSB;label=32;scalar=64";
    class       volScalarField;
    location    "0.3/air";
    object      T;
}
// * * * * * * * * * * * * * * * * * * * * * * * * * * * * * * * * * * * * * //

dimensions      [0 0 0 1 0 0 0];

internalField   nonuniform List<scalar> 
16000
(
998.0335
991.5442
1005.572
991.4453
988.0657
1003.723
975.8813
1007.387
1003.7
987.8799
986.1358
1002.14
966.4453
1006.52
998.2547
966.3065
1008.879
1006.542
1002.087
985.8434
985.2547
1000.987
960.8996
1005.746
993.5347
952.2556
1008.412
1003.987
993.461
960.5289
1010.213
1008.454
1005.78
1000.886
984.8193
985.2547
1000.379
958.3082
1005.156
990.0715
943.6266
1008.002
1001.667
985.8623
943.31
1009.929
1007.11
1001.668
989.859
957.5659
1011.435
1009.976
1008.076
1005.196
1000.212
984.6251
1005.771
986.1358
1000.379
958.3082
1004.837
988.239
939.4957
1007.692
999.8849
980.2281
932.4259
1009.687
1005.9
997.879
980.0315
938.6083
1011.241
1009.181
1005.935
999.8637
987.817
957.0239
1012.568
1011.289
1009.772
1007.796
1004.879
1000.136
985.2494
1005.737
1007.09
1006.681
988.0657
1000.987
960.8996
1004.837
988.239
939.4957
1007.524
998.914
977.2328
927.1272
1009.507
1004.971
994.9371
972.6769
926.4352
1011.081
1008.483
1003.974
994.8939
976.6998
937.736
1012.418
1010.762
1008.531
1005.042
998.8565
987.5624
958.881
1013.624
1012.463
1011.168
1009.633
1007.663
1004.892
1000.683
986.8363
1005.661
1007.085
1006.63
1008.435
1007.939
1007.597
991.5442
1002.14
966.4453
1005.156
990.0715
943.6266
1007.524
998.914
977.2328
927.1272
1009.412
1004.464
993.3257
968.7483
920.4548
1010.966
1007.958
1002.448
991.0022
968.3337
925.3065
1012.298
1010.311
1007.42
1002.484
993.2042
976.2614
940.6803
1013.498
1012.067
1010.362
1008.064
1004.583
998.8371
989.1618
963.4638
1014.614
1013.54
1012.381
1011.094
1009.584
1007.713
1005.254
1001.835
989.8171
1005.514
1007.077
1006.509
1008.438
1007.935
1007.532
1009.713
1009.199
1008.789
1008.52
998.0335
1003.723
975.8813
1005.746
993.5347
952.2556
1007.692
999.8849
980.2281
932.4259
1009.412
1004.464
993.3257
968.7483
920.4548
1010.905
1007.674
1001.609
988.8604
963.8502
919.1865
1012.214
1009.98
1006.572
1000.475
988.7531
967.7423
929.0463
1013.399
1011.737
1009.66
1006.64
1001.698
993.1349
978.8229
947.8102
1014.501
1013.212
1011.787
1010.096
1007.863
1004.669
999.8598
992.5277
971.6296
1015.545
1014.54
1013.476
1012.337
1011.083
1009.647
1007.96
1005.951
1003.556
995.4207
1005.097
1007.073
1006.248
1008.445
1007.929
1007.377
1009.718
1009.207
1008.785
1008.446
1010.917
1010.395
1009.961
1009.639
1009.453
1005.572
991.4453
1006.52
998.2547
966.3065
1008.002
1001.667
985.8623
943.31
1009.507
1004.971
994.9371
972.6769
926.4352
1010.905
1007.674
1001.609
988.8604
963.8502
919.1865
1012.17
1009.805
1006.11
999.3624
986.2955
963.172
923.3429
1013.331
1011.501
1009.137
1005.54
999.4135
988.6325
971.0406
937.9944
1014.414
1012.944
1011.283
1009.216
1006.284
1001.8
994.7675
984.1968
960.0133
1015.441
1014.249
1012.99
1011.615
1010.013
1007.987
1005.336
1001.845
997.4365
985.3609
1016.423
1015.477
1014.486
1013.446
1012.341
1011.147
1009.831
1008.406
1006.971
1005.903
1002.125
1007.122
1005.564
1008.472
1007.93
1007.045
1009.731
1009.228
1008.778
1008.269
1010.922
1010.406
1009.973
1009.634
1009.375
1012.05
1011.527
1011.075
1010.722
1010.489
1009.951
1007.387
1003.7
987.8799
1008.412
1003.987
993.461
960.5289
1009.687
1005.9
997.879
980.0315
938.6083
1010.966
1007.958
1002.448
991.0022
968.3337
925.3065
1012.17
1009.805
1006.11
999.3624
986.2955
963.172
923.3429
1013.295
1011.377
1008.857
1004.938
998.1434
986.1429
966.8695
933.2309
1014.354
1012.754
1010.916
1008.552
1005.054
999.5167
990.7416
977.9427
952.9181
1015.361
1014.014
1012.586
1010.996
1009.058
1006.451
1002.841
997.93
991.9033
979.1558
1016.325
1015.209
1014.058
1012.863
1011.583
1010.147
1008.463
1006.551
1004.623
1003.562
998.5292
1017.254
1016.36
1015.428
1014.461
1013.457
1012.404
1011.297
1010.148
1009.072
1008.444
1007.839
1003.258
1008.607
1007.992
1006.283
1009.766
1009.289
1008.777
1007.907
1010.937
1010.436
1010.003
1009.626
1009.189
1012.055
1011.539
1011.091
1010.736
1010.485
1009.873
1013.116
1012.599
1012.135
1011.752
1011.479
1010.938
1010.004
1008.879
1006.542
1002.087
985.8434
1009.929
1007.11
1001.668
989.859
957.5659
1011.081
1008.483
1003.974
994.8939
976.6998
937.736
1012.214
1009.98
1006.572
1000.475
988.7531
967.7423
929.0463
1013.295
1011.377
1008.857
1004.938
998.1434
986.1429
966.8695
933.2309
1014.323
1012.657
1010.723
1008.193
1004.376
998.244
988.5146
974.597
949.5172
1015.306
1013.85
1012.298
1010.54
1008.33
1005.245
1000.845
994.8202
987.7334
975.3832
1016.25
1014.994
1013.706
1012.374
1010.926
1009.243
1007.175
1004.733
1002.243
1001.174
995.691
1017.16
1016.107
1015.034
1013.952
1012.853
1011.715
1010.52
1009.291
1008.257
1008.037
1007.342
1000.428
1018.04
1017.193
1016.313
1015.406
1014.474
1013.516
1012.532
1011.545
1010.636
1010.132
1009.94
1008.34
1004.465
1009.924
1009.501
1008.816
1007.165
1010.974
1010.515
1010.08
1009.617
1008.825
1012.07
1011.572
1011.134
1010.771
1010.474
1009.688
1013.122
1012.611
1012.153
1011.772
1011.495
1010.934
1009.926
1014.122
1013.613
1013.145
1012.739
1012.425
1011.878
1010.986
1010.057
1010.213
1008.454
1005.78
1000.886
984.8193
1011.241
1009.181
1005.935
999.8637
987.817
957.0239
1012.298
1010.311
1007.42
1002.484
993.2042
976.2614
940.6803
1013.331
1011.501
1009.137
1005.54
999.4135
988.6325
971.0406
937.9944
1014.323
1012.657
1010.723
1008.193
1004.376
998.244
988.5146
974.597
949.5172
1015.278
1013.766
1012.148
1010.299
1007.935
1004.577
999.7291
993.0972
985.5013
973.5725
1016.198
1014.844
1013.459
1012.021
1010.439
1008.548
1006.15
1003.254
1000.304
999.2957
993.7911
1017.088
1015.904
1014.714
1013.53
1012.343
1011.111
1009.798
1008.424
1007.292
1007.244
1006.548
998.067
1017.951
1016.952
1015.942
1014.94
1013.951
1012.979
1012.029
1011.145
1010.47
1010.438
1010.217
1007.989
1002.24
1018.785
1017.981
1017.148
1016.292
1015.418
1014.529
1013.63
1012.741
1011.935
1011.477
1011.386
1010.343
1008.957
1005.728
1011.133
1010.767
1010.292
1009.622
1008.153
1012.107
1011.654
1011.235
1010.85
1010.455
1009.335
1013.136
1012.644
1012.199
1011.822
1011.532
1010.922
1009.741
1014.127
1013.626
1013.163
1012.762
1012.448
1011.894
1010.982
1009.979
1015.071
1014.575
1014.108
1013.688
1013.34
1012.779
1011.92
1011.034
1010.11
1011.435
1009.976
1008.076
1005.196
1000.212
984.6251
1012.418
1010.762
1008.531
1005.042
998.8565
987.5624
958.881
1013.399
1011.737
1009.66
1006.64
1001.698
993.1349
978.8229
947.8102
1014.354
1012.754
1010.916
1008.552
1005.054
999.5167
990.7416
977.9427
952.9181
1015.278
1013.766
1012.148
1010.299
1007.935
1004.577
999.7291
993.0972
985.5013
973.5725
1016.172
1014.768
1013.331
1011.837
1010.179
1008.168
1005.58
1002.421
999.2196
998.2735
992.8436
1017.04
1015.764
1014.489
1013.231
1011.972
1010.658
1009.231
1007.707
1006.447
1006.497
1005.845
996.4438
1017.882
1016.759
1015.642
1014.556
1013.515
1012.52
1011.572
1010.718
1010.125
1010.31
1010.127
1007.384
1000.309
1018.699
1017.75
1016.795
1015.854
1014.941
1014.069
1013.257
1012.545
1012.049
1012.05
1011.926
1010.619
1008.685
1003.993
1019.492
1018.728
1017.938
1017.128
1016.304
1015.47
1014.634
1013.815
1013.075
1012.645
1012.571
1011.73
1010.836
1009.644
1007.031
1012.259
1011.911
1011.495
1011.029
1010.426
1008.71
1013.172
1012.725
1012.305
1011.928
1011.603
1010.898
1009.389
1014.141
1013.657
1013.209
1012.816
1012.5
1011.93
1010.97
1009.795
1015.076
1014.587
1014.126
1013.711
1013.365
1012.802
1011.936
1011.029
1010.032
1015.969
1015.488
1015.026
1014.6
1014.228
1013.656
1012.816
1011.963
1011.082
1010.164
1012.568
1011.289
1009.772
1007.796
1004.879
1000.136
985.2494
1013.498
1012.067
1010.362
1008.064
1004.583
998.8371
989.1618
963.4638
1014.414
1012.944
1011.283
1009.216
1006.284
1001.8
994.7675
984.1968
960.0133
1015.306
1013.85
1012.298
1010.54
1008.33
1005.245
1000.845
994.8202
987.7334
975.3832
1016.172
1014.768
1013.331
1011.837
1010.179
1008.168
1005.58
1002.421
999.2196
998.2735
992.8436
1017.015
1015.693
1014.374
1013.076
1011.777
1010.414
1008.918
1007.301
1005.957
1006.059
1005.445
995.6248
1017.835
1016.626
1015.432
1014.287
1013.204
1012.183
1011.218
1010.356
1009.776
1010.08
1009.945
1006.831
998.9508
1018.633
1017.565
1016.508
1015.495
1014.547
1013.682
1012.924
1012.316
1011.981
1012.196
1012.11
1010.597
1008.221
1002.447
1019.409
1018.506
1017.599
1016.71
1015.856
1015.052
1014.322
1013.707
1013.297
1013.305
1013.189
1012.217
1011.07
1009.418
1005.706
1020.163
1019.437
1018.686
1017.918
1017.139
1016.353
1015.568
1014.803
1014.113
1013.702
1013.621
1012.872
1012.149
1011.379
1010.372
1007.733
1013.315
1012.972
1012.574
1012.16
1011.738
1010.854
1008.77
1014.175
1013.735
1013.315
1012.93
1012.602
1011.996
1010.945
1009.444
1015.089
1014.618
1014.171
1013.765
1013.423
1012.854
1011.972
1011.017
1009.849
1015.974
1015.499
1015.044
1014.622
1014.253
1013.681
1012.839
1011.979
1011.077
1010.086
1016.82
1016.355
1015.903
1015.475
1015.088
1014.511
1013.689
1012.854
1012.005
1011.13
1010.214
1013.624
1012.463
1011.168
1009.633
1007.663
1004.892
1000.683
986.8363
1014.501
1013.212
1011.787
1010.096
1007.863
1004.669
999.8598
992.5277
971.6296
1015.361
1014.014
1012.586
1010.996
1009.058
1006.451
1002.841
997.93
991.9033
979.1558
1016.198
1014.844
1013.459
1012.021
1010.439
1008.548
1006.15
1003.254
1000.304
999.2957
993.7911
1017.015
1015.693
1014.374
1013.076
1011.777
1010.414
1008.918
1007.301
1005.957
1006.059
1005.445
995.6248
1017.811
1016.558
1015.325
1014.148
1013.042
1012.004
1011.025
1010.148
1009.564
1009.923
1009.82
1006.513
998.2573
1018.588
1017.437
1016.309
1015.243
1014.268
1013.403
1012.671
1012.115
1011.858
1012.189
1012.147
1010.48
1007.791
1001.337
1019.345
1018.328
1017.324
1016.369
1015.487
1014.704
1014.048
1013.567
1013.346
1013.561
1013.476
1012.417
1011.083
1009.061
1004.504
1020.083
1019.223
1018.36
1017.517
1016.711
1015.96
1015.287
1014.731
1014.369
1014.369
1014.246
1013.421
1012.554
1011.558
1010.176
1006.597
1020.8
1020.11
1019.396
1018.667
1017.928
1017.185
1016.445
1015.725
1015.076
1014.681
1014.587
1013.891
1013.24
1012.607
1011.949
1010.77
1007.808
1014.309
1013.969
1013.577
1013.173
1012.788
1012.105
1010.899
1008.83
1015.121
1014.691
1014.272
1013.879
1013.533
1012.95
1012.037
1010.992
1009.499
1015.987
1015.529
1015.087
1014.675
1014.311
1013.739
1012.892
1012.015
1011.065
1009.903
1016.825
1016.366
1015.919
1015.496
1015.113
1014.537
1013.714
1012.877
1012.021
1011.125
1010.136
1017.627
1017.18
1016.739
1016.315
1015.92
1015.344
1014.541
1013.723
1012.891
1012.047
1011.175
1010.251
1014.614
1013.54
1012.381
1011.094
1009.584
1007.713
1005.254
1001.835
989.8171
1015.441
1014.249
1012.99
1011.615
1010.013
1007.987
1005.336
1001.845
997.4365
985.3609
1016.25
1014.994
1013.706
1012.374
1010.926
1009.243
1007.175
1004.733
1002.243
1001.174
995.691
1017.04
1015.764
1014.489
1013.231
1011.972
1010.658
1009.231
1007.707
1006.447
1006.497
1005.845
996.4438
1017.811
1016.558
1015.325
1014.148
1013.042
1012.004
1011.025
1010.148
1009.564
1009.923
1009.82
1006.513
998.2573
1018.565
1017.372
1016.207
1015.114
1014.123
1013.256
1012.534
1011.999
1011.772
1012.158
1012.142
1010.392
1007.541
1000.764
1019.302
1018.205
1017.134
1016.13
1015.227
1014.455
1013.844
1013.44
1013.32
1013.65
1013.602
1012.48
1011.012
1008.731
1003.625
1020.022
1019.051
1018.096
1017.19
1016.361
1015.635
1015.043
1014.629
1014.463
1014.66
1014.566
1013.703
1012.747
1011.585
1009.903
1005.558
1020.723
1019.903
1019.082
1018.281
1017.518
1016.81
1016.181
1015.666
1015.334
1015.324
1015.19
1014.443
1013.695
1012.925
1012.071
1010.585
1006.691
1021.404
1020.748
1020.07
1019.378
1018.677
1017.972
1017.272
1016.592
1015.979
1015.6
1015.493
1014.832
1014.219
1013.64
1013.086
1012.257
1010.812
1007.883
1015.247
1014.912
1014.522
1014.119
1013.735
1013.111
1012.144
1010.944
1008.891
1016.017
1015.599
1015.184
1014.786
1014.423
1013.844
1012.986
1012.079
1011.039
1009.555
1016.837
1016.394
1015.961
1015.548
1015.17
1014.595
1013.772
1012.929
1012.057
1011.113
1009.954
1017.632
1017.191
1016.755
1016.335
1015.944
1015.369
1014.567
1013.748
1012.915
1012.064
1011.17
1010.173
1018.394
1017.965
1017.538
1017.12
1016.723
1016.152
1015.371
1014.571
1013.756
1012.929
1012.087
1011.207
1010.278
1015.545
1014.54
1013.476
1012.337
1011.083
1009.647
1007.96
1005.951
1003.556
995.4207
1016.325
1015.209
1014.058
1012.863
1011.583
1010.147
1008.463
1006.551
1004.623
1003.562
998.5292
1017.088
1015.904
1014.714
1013.53
1012.343
1011.111
1009.798
1008.424
1007.292
1007.244
1006.548
998.067
1017.835
1016.626
1015.432
1014.287
1013.204
1012.183
1011.218
1010.356
1009.776
1010.08
1009.945
1006.831
998.9508
1018.565
1017.372
1016.207
1015.114
1014.123
1013.256
1012.534
1011.999
1011.772
1012.158
1012.142
1010.392
1007.541
1000.764
1019.28
1018.143
1017.036
1016.007
1015.093
1014.325
1013.735
1013.365
1013.291
1013.674
1013.648
1012.492
1010.953
1008.538
1003.165
1019.98
1018.933
1017.912
1016.961
1016.114
1015.403
1014.863
1014.535
1014.478
1014.785
1014.726
1013.838
1012.822
1011.545
1009.656
1004.792
1020.663
1019.737
1018.827
1017.966
1017.181
1016.501
1015.954
1015.581
1015.44
1015.619
1015.511
1014.75
1013.955
1013.097
1012.098
1010.348
1005.669
1021.33
1020.549
1019.767
1019.005
1018.281
1017.612
1017.02
1016.538
1016.227
1016.21
1016.065
1015.364
1014.679
1014.001
1013.32
1012.349
1010.628
1006.785
1021.977
1021.354
1020.71
1020.053
1019.387
1018.719
1018.055
1017.412
1016.831
1016.468
1016.353
1015.719
1015.13
1014.576
1014.056
1013.343
1012.29
1010.855
1007.958
1016.136
1015.807
1015.42
1015.016
1014.626
1014.022
1013.145
1012.183
1010.99
1008.952
1016.866
1016.461
1016.054
1015.654
1015.279
1014.703
1013.877
1013.023
1012.12
1011.087
1009.608
1017.643
1017.218
1016.795
1016.385
1016
1015.427
1014.625
1013.805
1012.967
1012.099
1011.158
1009.991
1018.398
1017.975
1017.554
1017.14
1016.747
1016.177
1015.396
1014.597
1013.782
1012.952
1012.103
1011.203
1010.2
1019.122
1018.712
1018.301
1017.893
1017.498
1016.937
1016.177
1015.398
1014.601
1013.79
1012.964
1012.115
1011.23
1010.294
1016.423
1015.477
1014.486
1013.446
1012.341
1011.147
1009.831
1008.406
1006.971
1005.903
1002.125
1017.16
1016.107
1015.034
1013.952
1012.853
1011.715
1010.52
1009.291
1008.257
1008.037
1007.342
1000.428
1017.882
1016.759
1015.642
1014.556
1013.515
1012.52
1011.572
1010.718
1010.125
1010.31
1010.127
1007.384
1000.309
1018.588
1017.437
1016.309
1015.243
1014.268
1013.403
1012.671
1012.115
1011.858
1012.189
1012.147
1010.48
1007.791
1001.337
1019.28
1018.143
1017.036
1016.007
1015.093
1014.325
1013.735
1013.365
1013.291
1013.674
1013.648
1012.492
1010.953
1008.538
1003.165
1019.958
1018.872
1017.818
1016.844
1015.987
1015.283
1014.767
1014.479
1014.473
1014.831
1014.793
1013.891
1012.844
1011.508
1009.512
1004.389
1020.623
1019.623
1018.65
1017.746
1016.945
1016.281
1015.787
1015.501
1015.471
1015.755
1015.68
1014.911
1014.087
1013.174
1012.08
1010.138
1004.915
1021.272
1020.388
1019.521
1018.701
1017.957
1017.314
1016.803
1016.459
1016.334
1016.495
1016.376
1015.67
1014.957
1014.226
1013.462
1012.374
1010.396
1005.78
1021.905
1021.161
1020.417
1019.693
1019.005
1018.371
1017.812
1017.358
1017.066
1017.044
1016.892
1016.223
1015.574
1014.943
1014.329
1013.536
1012.379
1010.672
1006.879
1022.52
1021.929
1021.318
1020.693
1020.061
1019.427
1018.798
1018.189
1017.639
1017.292
1017.173
1016.562
1015.992
1015.453
1014.947
1014.28
1013.371
1012.323
1010.897
1008.034
1016.978
1016.657
1016.277
1015.874
1015.477
1014.883
1014.052
1013.179
1012.222
1011.036
1009.01
1017.671
1017.281
1016.884
1016.487
1016.106
1015.533
1014.732
1013.91
1013.06
1012.162
1011.131
1009.647
1018.409
1018.001
1017.592
1017.188
1016.801
1016.234
1015.454
1014.655
1013.839
1013.004
1012.139
1011.19
1010.018
1019.126
1018.722
1018.316
1017.913
1017.521
1016.961
1016.202
1015.423
1014.627
1013.815
1012.987
1012.132
1011.226
1010.217
1019.814
1019.425
1019.03
1018.634
1018.245
1017.696
1016.96
1016.202
1015.425
1014.631
1013.821
1012.989
1012.135
1011.244
1010.3
1005.097
1017.254
1016.36
1015.428
1014.461
1013.457
1012.404
1011.297
1010.148
1009.072
1008.444
1007.839
1003.258
1017.951
1016.952
1015.942
1014.94
1013.951
1012.979
1012.029
1011.145
1010.47
1010.438
1010.217
1007.989
1002.24
1018.633
1017.565
1016.508
1015.495
1014.547
1013.682
1012.924
1012.316
1011.981
1012.196
1012.11
1010.597
1008.221
1002.447
1019.302
1018.205
1017.134
1016.13
1015.227
1014.455
1013.844
1013.44
1013.32
1013.65
1013.602
1012.48
1011.012
1008.731
1003.625
1019.958
1018.872
1017.818
1016.844
1015.987
1015.283
1014.767
1014.479
1014.473
1014.831
1014.793
1013.891
1012.844
1011.508
1009.512
1004.389
1020.602
1019.565
1018.559
1017.633
1016.824
1016.167
1015.698
1015.454
1015.475
1015.809
1015.753
1014.98
1014.142
1013.201
1012.058
1010.017
1004.518
1021.233
1020.278
1019.35
1018.489
1017.729
1017.104
1016.644
1016.386
1016.368
1016.631
1016.544
1015.837
1015.111
1014.35
1013.534
1012.363
1010.189
1005.037
1021.85
1021.007
1020.179
1019.399
1018.692
1018.084
1017.603
1017.282
1017.168
1017.316
1017.19
1016.519
1015.851
1015.184
1014.514
1013.66
1012.403
1010.443
1005.89
1022.451
1021.743
1021.034
1020.345
1019.692
1019.092
1018.563
1018.135
1017.86
1017.836
1017.682
1017.038
1016.414
1015.81
1015.228
1014.509
1013.559
1012.409
1010.716
1006.972
1023.034
1022.474
1021.894
1021.301
1020.701
1020.1
1019.503
1018.926
1018.406
1018.076
1017.956
1017.367
1016.814
1016.288
1015.788
1015.146
1014.304
1013.398
1012.356
1010.941
1008.104
1017.778
1017.468
1017.096
1016.696
1016.296
1015.71
1014.911
1014.083
1013.213
1012.261
1011.079
1009.054
1018.436
1018.063
1017.677
1017.287
1016.903
1016.337
1015.559
1014.762
1013.943
1013.097
1012.201
1011.163
1009.675
1019.137
1018.748
1018.353
1017.959
1017.573
1017.016
1016.259
1015.481
1014.685
1013.872
1013.039
1012.167
1011.213
1010.035
1019.818
1019.434
1019.044
1018.653
1018.267
1017.719
1016.984
1016.227
1015.451
1014.657
1013.847
1013.012
1012.151
1011.239
1010.222
1020.472
1020.103
1019.726
1019.344
1018.965
1018.429
1017.717
1016.982
1016.227
1015.452
1014.659
1013.842
1013.005
1012.145
1011.247
1005.514
1007.122
1005.564
1018.04
1017.193
1016.313
1015.406
1014.474
1013.516
1012.532
1011.545
1010.636
1010.132
1009.94
1008.34
1004.465
1018.699
1017.75
1016.795
1015.854
1014.941
1014.069
1013.257
1012.545
1012.049
1012.05
1011.926
1010.619
1008.685
1003.993
1019.345
1018.328
1017.324
1016.369
1015.487
1014.704
1014.048
1013.567
1013.346
1013.561
1013.476
1012.417
1011.083
1009.061
1004.504
1019.98
1018.933
1017.912
1016.961
1016.114
1015.403
1014.863
1014.535
1014.478
1014.785
1014.726
1013.838
1012.822
1011.545
1009.656
1004.792
1020.602
1019.565
1018.559
1017.633
1016.824
1016.167
1015.698
1015.454
1015.475
1015.809
1015.753
1014.98
1014.142
1013.201
1012.058
1010.017
1004.518
1021.213
1020.222
1019.262
1018.38
1017.612
1016.995
1016.56
1016.343
1016.376
1016.686
1016.618
1015.911
1015.178
1014.403
1013.563
1012.348
1010.07
1004.647
1021.812
1020.9
1020.014
1019.194
1018.472
1017.881
1017.45
1017.212
1017.202
1017.447
1017.351
1016.683
1016.008
1015.324
1014.623
1013.728
1012.393
1010.24
1005.159
1022.397
1021.593
1020.804
1020.062
1019.39
1018.814
1018.361
1018.061
1017.956
1018.095
1017.965
1017.321
1016.682
1016.051
1015.427
1014.673
1013.682
1012.433
1010.49
1006
1022.967
1022.294
1021.62
1020.965
1020.345
1019.776
1019.276
1018.873
1018.615
1018.592
1018.438
1017.818
1017.215
1016.63
1016.065
1015.385
1014.528
1013.582
1012.439
1010.76
1007.06
1023.52
1022.99
1022.44
1021.878
1021.309
1020.739
1020.173
1019.627
1019.134
1018.823
1018.705
1018.139
1017.603
1017.088
1016.595
1015.968
1015.167
1014.328
1013.426
1012.39
1010.981
1008.159
1018.538
1018.241
1017.879
1017.486
1017.086
1016.51
1015.735
1014.938
1014.113
1013.247
1012.297
1011.109
1009.086
1019.163
1018.807
1018.435
1018.054
1017.673
1017.116
1016.361
1015.586
1014.791
1013.975
1013.131
1012.228
1011.185
1009.693
1019.829
1019.459
1019.081
1018.698
1018.318
1017.773
1017.039
1016.283
1015.508
1014.715
1013.904
1013.064
1012.186
1011.226
1010.041
1020.476
1020.113
1019.74
1019.363
1018.986
1018.452
1017.74
1017.007
1016.252
1015.478
1014.685
1013.868
1013.028
1012.161
1011.242
1021.098
1020.749
1020.39
1020.025
1019.656
1019.137
1018.449
1017.738
1017.005
1016.252
1015.478
1014.678
1013.856
1013.012
1012.146
1005.661
1007.073
1006.248
1008.607
1007.992
1006.283
1018.785
1017.981
1017.148
1016.292
1015.418
1014.529
1013.63
1012.741
1011.935
1011.477
1011.386
1010.343
1008.957
1005.728
1019.409
1018.506
1017.599
1016.71
1015.856
1015.052
1014.322
1013.707
1013.297
1013.305
1013.189
1012.217
1011.07
1009.418
1005.706
1020.022
1019.051
1018.096
1017.19
1016.361
1015.635
1015.043
1014.629
1014.463
1014.66
1014.566
1013.703
1012.747
1011.585
1009.903
1005.558
1020.623
1019.623
1018.65
1017.746
1016.945
1016.281
1015.787
1015.501
1015.471
1015.755
1015.68
1014.911
1014.087
1013.174
1012.08
1010.138
1004.915
1021.213
1020.222
1019.262
1018.38
1017.612
1016.995
1016.56
1016.343
1016.376
1016.686
1016.618
1015.911
1015.178
1014.403
1013.563
1012.348
1010.07
1004.647
1021.792
1020.845
1019.929
1019.088
1018.36
1017.776
1017.369
1017.172
1017.21
1017.501
1017.423
1016.757
1016.08
1015.388
1014.673
1013.757
1012.379
1010.124
1004.774
1022.36
1021.49
1020.645
1019.863
1019.178
1018.618
1018.213
1017.993
1017.989
1018.221
1018.12
1017.48
1016.837
1016.194
1015.55
1014.773
1013.749
1012.423
1010.292
1005.28
1022.915
1022.149
1021.398
1020.691
1020.053
1019.508
1019.08
1018.8
1018.705
1018.838
1018.708
1018.088
1017.472
1016.864
1016.266
1015.562
1014.69
1013.703
1012.463
1010.538
1006.103
1023.455
1022.816
1022.176
1021.554
1020.965
1020.426
1019.954
1019.575
1019.334
1019.315
1019.164
1018.567
1017.984
1017.415
1016.863
1016.206
1015.402
1014.548
1013.606
1012.469
1010.801
1007.13
1023.979
1023.478
1022.957
1022.425
1021.886
1021.346
1020.81
1020.293
1019.827
1019.534
1019.421
1018.878
1018.36
1017.859
1017.372
1016.759
1015.987
1015.188
1014.352
1013.454
1012.421
1011.009
1008.203
1019.261
1018.978
1018.629
1018.245
1017.849
1017.283
1016.532
1015.76
1014.965
1014.143
1013.279
1012.322
1011.13
1009.108
1019.854
1019.516
1019.16
1018.79
1018.415
1017.87
1017.138
1016.386
1015.613
1014.821
1014.006
1013.155
1012.246
1011.197
1009.699
1020.486
1020.137
1019.776
1019.407
1019.036
1018.504
1017.794
1017.061
1016.308
1015.536
1014.744
1013.925
1013.079
1012.196
1011.228
1021.102
1020.759
1020.405
1020.043
1019.677
1019.16
1018.472
1017.762
1017.029
1016.277
1015.503
1014.704
1013.881
1013.035
1012.161
1021.692
1021.365
1021.025
1020.676
1020.321
1019.819
1019.155
1018.469
1017.759
1017.028
1016.275
1015.494
1014.689
1013.861
1013.011
1005.737
1007.077
1006.509
1008.472
1007.93
1007.045
1009.924
1009.501
1008.816
1007.165
1019.492
1018.728
1017.938
1017.128
1016.304
1015.47
1014.634
1013.815
1013.075
1012.645
1012.571
1011.73
1010.836
1009.644
1007.031
1020.083
1019.223
1018.36
1017.517
1016.711
1015.96
1015.287
1014.731
1014.369
1014.369
1014.246
1013.421
1012.554
1011.558
1010.176
1006.597
1020.663
1019.737
1018.827
1017.966
1017.181
1016.501
1015.954
1015.581
1015.44
1015.619
1015.511
1014.75
1013.955
1013.097
1012.098
1010.348
1005.669
1021.233
1020.278
1019.35
1018.489
1017.729
1017.104
1016.644
1016.386
1016.368
1016.631
1016.544
1015.837
1015.111
1014.35
1013.534
1012.363
1010.189
1005.037
1021.792
1020.845
1019.929
1019.088
1018.36
1017.776
1017.369
1017.172
1017.21
1017.501
1017.423
1016.757
1016.08
1015.388
1014.673
1013.757
1012.379
1010.124
1004.774
1022.342
1021.437
1020.563
1019.762
1019.069
1018.516
1018.135
1017.954
1017.996
1018.273
1018.189
1017.551
1016.908
1016.261
1015.608
1014.82
1013.778
1012.41
1010.177
1004.901
1022.88
1022.049
1021.243
1020.499
1019.848
1019.318
1018.938
1018.735
1018.736
1018.959
1018.857
1018.24
1017.622
1017.005
1016.392
1015.675
1014.789
1013.77
1012.454
1010.343
1005.393
1023.405
1022.676
1021.961
1021.289
1020.683
1020.167
1019.765
1019.504
1019.42
1019.55
1019.422
1018.824
1018.229
1017.64
1017.06
1016.386
1015.577
1014.707
1013.725
1012.492
1010.582
1006.186
1023.916
1023.31
1022.702
1022.112
1021.554
1021.044
1020.598
1020.242
1020.019
1020.006
1019.861
1019.286
1018.723
1018.17
1017.631
1016.992
1016.221
1015.419
1014.567
1013.629
1012.498
1010.83
1007.187
1024.41
1023.938
1023.446
1022.943
1022.433
1021.921
1021.415
1020.926
1020.486
1020.212
1020.107
1019.586
1019.087
1018.6
1018.123
1017.524
1016.777
1016.006
1015.21
1014.376
1013.48
1012.441
1011.027
1008.235
1019.948
1019.681
1019.346
1018.974
1018.585
1018.032
1017.304
1016.555
1015.784
1014.992
1014.171
1013.3
1012.338
1011.14
1009.118
1020.511
1020.192
1019.853
1019.496
1019.129
1018.599
1017.891
1017.161
1016.41
1015.639
1014.848
1014.026
1013.169
1012.255
1011.199
1021.112
1020.782
1020.439
1020.086
1019.726
1019.21
1018.524
1017.815
1017.084
1016.333
1015.561
1014.762
1013.938
1013.086
1012.196
1021.696
1021.374
1021.039
1020.693
1020.341
1019.841
1019.178
1018.492
1017.783
1017.052
1016.3
1015.52
1014.715
1013.886
1013.033
1022.256
1021.95
1021.63
1021.298
1020.958
1020.475
1019.836
1019.174
1018.488
1017.78
1017.049
1016.289
1015.503
1014.692
1013.857
1005.771
1007.085
1006.63
1008.445
1007.929
1007.377
1009.766
1009.289
1008.777
1007.907
1011.133
1010.767
1010.292
1009.622
1008.153
1020.163
1019.437
1018.686
1017.918
1017.139
1016.353
1015.568
1014.803
1014.113
1013.702
1013.621
1012.872
1012.149
1011.379
1010.372
1007.733
1020.723
1019.903
1019.082
1018.281
1017.518
1016.81
1016.181
1015.666
1015.334
1015.324
1015.19
1014.443
1013.695
1012.925
1012.071
1010.585
1006.691
1021.272
1020.388
1019.521
1018.701
1017.957
1017.314
1016.803
1016.459
1016.334
1016.495
1016.376
1015.67
1014.957
1014.226
1013.462
1012.374
1010.396
1005.78
1021.812
1020.9
1020.014
1019.194
1018.472
1017.881
1017.45
1017.212
1017.202
1017.447
1017.351
1016.683
1016.008
1015.324
1014.623
1013.728
1012.393
1010.24
1005.159
1022.342
1021.437
1020.563
1019.762
1019.069
1018.516
1018.135
1017.954
1017.996
1018.273
1018.189
1017.551
1016.908
1016.261
1015.608
1014.82
1013.778
1012.41
1010.177
1004.901
1022.862
1021.999
1021.164
1020.401
1019.743
1019.22
1018.862
1018.697
1018.743
1019.009
1018.924
1018.309
1017.691
1017.071
1016.452
1015.729
1014.835
1013.798
1012.441
1010.23
1005.02
1023.371
1022.58
1021.812
1021.103
1020.485
1019.984
1019.627
1019.44
1019.449
1019.665
1019.565
1018.97
1018.374
1017.777
1017.185
1016.502
1015.689
1014.805
1013.791
1012.484
1010.39
1005.486
1023.867
1023.175
1022.495
1021.856
1021.282
1020.794
1020.416
1020.174
1020.101
1020.232
1020.109
1019.533
1018.958
1018.387
1017.822
1017.17
1016.399
1015.592
1014.724
1013.746
1012.52
1010.613
1006.257
1024.35
1023.776
1023.2
1022.641
1022.113
1021.631
1021.211
1020.878
1020.672
1020.666
1020.53
1019.978
1019.434
1018.899
1018.372
1017.75
1017.006
1016.237
1015.436
1014.587
1013.651
1012.515
1010.848
1007.233
1024.816
1024.372
1023.908
1023.433
1022.951
1022.468
1021.989
1021.527
1021.113
1020.858
1020.763
1020.265
1019.785
1019.314
1018.849
1018.265
1017.54
1016.794
1016.026
1015.231
1014.399
1013.496
1012.452
1011.034
1008.254
1020.602
1020.351
1020.032
1019.674
1019.294
1018.756
1018.051
1017.325
1016.577
1015.809
1015.017
1014.189
1013.312
1012.344
1011.139
1021.136
1020.837
1020.514
1020.172
1019.817
1019.302
1018.618
1017.912
1017.183
1016.434
1015.664
1014.866
1014.038
1013.175
1012.253
1021.706
1021.397
1021.073
1020.736
1020.389
1019.89
1019.229
1018.544
1017.836
1017.107
1016.356
1015.577
1014.773
1013.942
1013.084
1022.26
1021.959
1021.644
1021.316
1020.978
1020.496
1019.858
1019.196
1018.511
1017.804
1017.074
1016.314
1015.529
1014.718
1013.882
1022.792
1022.507
1022.207
1021.893
1021.569
1021.105
1020.491
1019.854
1019.192
1018.508
1017.8
1017.062
1016.297
1015.504
1014.687
1007.09
1006.681
1008.438
1007.935
1007.532
1009.731
1009.228
1008.778
1008.269
1010.974
1010.515
1010.08
1009.617
1008.825
1012.259
1011.911
1011.495
1011.029
1010.426
1008.71
1020.8
1020.11
1019.396
1018.667
1017.928
1017.185
1016.445
1015.725
1015.076
1014.681
1014.587
1013.891
1013.24
1012.607
1011.949
1010.77
1007.808
1021.33
1020.549
1019.767
1019.005
1018.281
1017.612
1017.02
1016.538
1016.227
1016.21
1016.065
1015.364
1014.679
1014.001
1013.32
1012.349
1010.628
1006.785
1021.85
1021.007
1020.179
1019.399
1018.692
1018.084
1017.603
1017.282
1017.168
1017.316
1017.19
1016.519
1015.851
1015.184
1014.514
1013.66
1012.403
1010.443
1005.89
1022.36
1021.49
1020.645
1019.863
1019.178
1018.618
1018.213
1017.993
1017.989
1018.221
1018.12
1017.48
1016.837
1016.194
1015.55
1014.773
1013.749
1012.423
1010.292
1005.28
1022.862
1021.999
1021.164
1020.401
1019.743
1019.22
1018.862
1018.697
1018.743
1019.009
1018.924
1018.309
1017.691
1017.071
1016.452
1015.729
1014.835
1013.798
1012.441
1010.23
1005.02
1023.353
1022.531
1021.735
1021.008
1020.383
1019.889
1019.554
1019.403
1019.455
1019.713
1019.63
1019.037
1018.44
1017.842
1017.245
1016.559
1015.742
1014.851
1013.819
1012.472
1010.28
1005.117
1023.834
1023.081
1022.35
1021.677
1021.09
1020.617
1020.283
1020.113
1020.129
1020.343
1020.247
1019.674
1019.097
1018.52
1017.944
1017.285
1016.514
1015.702
1014.821
1013.812
1012.512
1010.425
1005.566
1024.303
1023.645
1023
1022.393
1021.85
1021.39
1021.036
1020.813
1020.752
1020.885
1020.769
1020.215
1019.66