/*--------------------------------*- C++ -*----------------------------------*\
| =========                 |                                                 |
| \\      /  F ield         | OpenFOAM: The Open Source CFD Toolbox           |
|  \\    /   O peration     | Version:  2306                                  |
|   \\  /    A nd           | Website:  www.openfoam.com                      |
|    \\/     M anipulation  |                                                 |
\*---------------------------------------------------------------------------*/
FoamFile
{
    version     2.0;
    format      ascii;
    arch        "LSB;label=32;scalar=64";
    class       volVectorField;
    location    "0.3/air";
    object      U;
}
// * * * * * * * * * * * * * * * * * * * * * * * * * * * * * * * * * * * * * //

dimensions      [0 1 -1 0 0 0 0];

internalField   nonuniform List<vector> 
16000
(
(0.4624642 0.0598694 -0.06001524)
(0.7986893 0.1128238 -0.09231266)
(0.4669556 0.00590867 -0.0057041)
(0.7988496 0.09188618 -0.1143295)
(0.9389278 0.09682213 -0.09276671)
(0.9075866 0.01514573 -0.01080118)
(1.544066 0.1884207 -0.1922492)
(0.3224113 -0.001959148 0.001988555)
(0.9078496 0.01101443 -0.01447951)
(0.9393704 0.09212177 -0.1007602)
(0.9963569 0.06111709 -0.09070206)
(1.142791 0.01558616 -0.01135362)
(1.905562 0.1756139 -0.2105114)
(0.6693223 -0.002573931 0.00331585)
(1.976426 0.03018797 -0.02968859)
(1.906259 0.2049499 -0.1849825)
(0.3817902 0.001150954 -0.001152086)
(0.6695862 -0.003268466 0.002728167)
(1.144069 0.01150797 -0.01473137)
(0.9970972 0.08987385 -0.06827049)
(1.013087 0.02094084 -0.0896021)
(1.271197 0.01023506 -0.01095716)
(2.060299 0.1163887 -0.2124925)
(0.8746127 -0.002462951 0.003613238)
(2.605787 0.03671984 -0.03852866)
(2.362435 0.2039609 -0.2175934)
(0.776012 0.001967312 -0.00204662)
(1.546033 -0.003917851 0.004165681)
(2.608296 0.0383265 -0.03672518)
(2.061821 0.2054595 -0.1329467)
(0.3486347 -0.0005820099 0.0005892817)
(0.7762589 0.002018282 -0.002063599)
(0.8758961 -0.003575341 0.002735361)
(1.27481 0.01100769 -0.009540544)
(1.014269 0.08847194 -0.03200577)
(1.013087 -0.02094084 -0.0896021)
(1.334208 0.00339291 -0.01078854)
(2.095348 0.04076581 -0.2135902)
(0.9938571 -0.001627322 0.003649213)
(2.963034 0.02763519 -0.0403158)
(2.570336 0.1388431 -0.2238254)
(1.004309 0.001963656 -0.002254202)
(2.102216 -0.00389754 0.005069349)
(3.542256 0.04405497 -0.04541126)
(2.571914 0.2070663 -0.1622874)
(0.716692 -0.0009773959 0.001014766)
(1.758588 0.003458612 -0.003761721)
(2.104699 -0.004914479 0.004298319)
(2.972055 0.03929858 -0.02872712)
(2.097912 0.204967 -0.06559997)
(0.3663941 0.0003471546 -0.000340963)
(0.7169264 -0.001028644 0.0009289039)
(1.005541 0.002201074 -0.002266076)
(0.9973523 -0.003645601 0.001915027)
(1.34218 0.01073959 -0.00315197)
(1.015551 0.08791925 0.005157853)
(0.000579927 -0.0008774958 -0.0004107212)
(0.9963569 -0.06111709 -0.09070206)
(1.334208 -0.00339291 -0.01078854)
(2.095348 -0.04076581 -0.2135902)
(1.047162 -0.0006333886 0.003851156)
(3.14411 0.009800568 -0.03768574)
(2.641696 0.0487001 -0.2236965)
(1.134895 0.001303322 -0.002260096)
(2.438034 -0.002514118 0.00535093)
(4.073501 0.03524297 -0.05000033)
(2.807642 0.1431441 -0.1710319)
(0.9341354 -0.0009523811 0.001091413)
(2.377069 0.003597069 -0.004228471)
(2.931736 -0.00440324 0.004606559)
(4.081893 0.04707358 -0.03854363)
(2.646366 0.2043651 -0.0823819)
(0.7488379 0.0005581255 -0.0006213884)
(1.641742 -0.001799655 0.001584606)
(2.379517 0.003747884 -0.004367891)
(2.446535 -0.005426613 0.002882873)
(3.165593 0.03580871 -0.01222483)
(2.101223 0.2033229 0.007505753)
(0.3566928 -0.0001556486 0.0001635655)
(0.7490761 0.0006017059 -0.0006251906)
(0.9353093 -0.001127616 0.0007527456)
(1.138317 0.002180314 -0.001915039)
(1.054414 -0.003912402 0.0007365474)
(1.349546 0.01065345 0.002879796)
(1.002346 0.08846528 0.04054713)
(0.0005920779 -0.002538966 -0.0004250805)
(0.0006537229 -0.0007660494 -0.0003824203)
(0.0005857716 -0.0008796695 -0.000801017)
(0.9389278 -0.09682213 -0.09276671)
(1.271197 -0.01023506 -0.01095716)
(2.060299 -0.1163887 -0.2124925)
(1.047162 0.0006333881 0.003851156)
(3.14411 -0.009800568 -0.03768574)
(2.641696 -0.0487001 -0.2236965)
(1.194983 0.0004542494 -0.002242452)
(2.59605 -0.0009423539 0.00553754)
(4.317702 0.01334175 -0.05057344)
(2.893416 0.05065135 -0.1726063)
(1.060371 -0.0006234256 0.001099067)
(2.742792 0.002437444 -0.004235572)
(3.438978 -0.002447597 0.004582831)
(4.71953 0.03793968 -0.04350347)
(2.897357 0.1418027 -0.08940676)
(0.9726075 0.0005337912 -0.0006904313)
(2.234367 -0.001852073 0.001777533)
(3.284187 0.003900459 -0.005009159)
(3.447242 -0.004788055 0.002516881)
(4.34264 0.04609473 -0.01882605)
(2.653778 0.2021655 0.005519488)
(0.7314021 -0.0002656352 0.0002644578)
(1.705939 0.0009166684 -0.001184622)
(2.236713 -0.002152292 0.00126185)
(2.751261 0.003575475 -0.003839564)
(2.615339 -0.005971997 0.0009642379)
(3.186064 0.03469457 0.005652235)
(2.072175 0.201572 0.07659392)
(0.3616661 0.0001169031 -0.0001096315)
(0.7316377 -0.0002791136 0.0002154365)
(0.9737953 0.0006452487 -0.0007847136)
(1.063641 -0.001159284 0.0001845662)
(1.202269 0.002116708 -0.001502799)
(1.059829 -0.004028658 -0.001034118)
(1.299298 0.01053716 0.008193885)
(0.9569497 0.09009113 0.07145617)
(0.000612871 -0.004585093 -0.0004575106)
(0.0006685817 -0.002218776 -0.000393839)
(0.0005979601 -0.002549432 -0.000835366)
(0.0004410652 -0.0007406151 -0.0003598643)
(0.0006594037 -0.0007683513 -0.000745205)
(0.0005841774 -0.0008747316 -0.002182623)
(0.7986893 -0.1128238 -0.09231266)
(1.142791 -0.01558616 -0.01135362)
(1.905562 -0.1756139 -0.2105114)
(0.9938571 0.001627322 0.003649213)
(2.963034 -0.02763519 -0.0403158)
(2.570336 -0.1388431 -0.2238254)
(1.194983 -0.0004542493 -0.002242452)
(2.59605 0.0009423541 0.005537539)
(4.317702 -0.01334175 -0.05057344)
(2.893416 -0.05065135 -0.1726063)
(1.118976 -0.0002138382 0.001102745)
(2.913265 0.0008455966 -0.004142511)
(3.679368 -0.0007778026 0.004485736)
(5.008915 0.01440107 -0.04475312)
(2.988864 0.05031962 -0.09159301)
(1.101655 0.0003389854 -0.0007012997)
(2.589533 -0.001270673 0.001849666)
(3.831873 0.002688613 -0.005062048)
(4.068928 -0.002500784 0.002076886)
(5.027559 0.03738758 -0.02240813)
(2.906773 0.1400702 0.0027897)
(0.9518821 -0.00025762 0.0002706212)
(2.313958 0.00089558 -0.001389846)
(3.107737 -0.002298971 0.00139797)
(3.840185 0.003662891 -0.004551396)
(3.703619 -0.005240382 0.0004737258)
(4.370322 0.04474119 0.006009711)
(2.599992 0.200791 0.08875665)
(0.7403343 0.0001886687 -0.0002154729)
(1.671408 -0.0005238425 0.000296597)
(2.316324 0.0009388224 -0.00161386)
(2.597666 -0.002382571 0.0001640962)
(2.932657 0.003227089 -0.003051642)
(2.631749 -0.006481205 -0.001708302)
(3.040249 0.03528504 0.02117096)
(1.956167 0.1972817 0.1312867)
(0.3587188 -3.373818e-05 4.110632e-05)
(0.7405706 0.0001996192 -0.0002426888)
(0.9530581 -0.0003089605 4.878524e-05)
(1.104959 0.0006311773 -0.0008682982)
(1.125962 -0.001202669 -0.0005702325)
(1.208337 0.002021722 -0.001237268)
(1.012911 -0.00412286 -0.003111049)
(1.181707 0.01053875 0.01186534)
(0.8381131 0.09091025 0.0805496)
(0.0006516458 -0.006005011 -0.0007117742)
(0.0006939918 -0.003985323 -0.0004200736)
(0.0006187768 -0.004522118 -0.0009036325)
(0.0004487403 -0.002145343 -0.0003703808)
(0.0006742833 -0.002229304 -0.0007728659)
(0.0005962281 -0.002527072 -0.002232844)
(0.0005901396 -0.0006968506 -0.0003420351)
(0.0004446872 -0.0007431264 -0.0007012471)
(0.0006571766 -0.0007646874 -0.002033088)
(0.0005796107 -0.0008560577 -0.0007488903)
(0.4624642 -0.0598694 -0.06001524)
(0.9075866 -0.01514573 -0.01080118)
(1.544066 -0.1884207 -0.1922492)
(0.8746127 0.002462951 0.003613238)
(2.605787 -0.03671984 -0.03852866)
(2.362435 -0.2039609 -0.2175934)
(1.134895 -0.001303322 -0.002260096)
(2.438034 0.002514119 0.00535093)
(4.073501 -0.03524297 -0.05000033)
(2.807642 -0.1431441 -0.1710319)
(1.118976 0.0002138374 0.001102745)
(2.913265 -0.0008455963 -0.00414251)
(3.679368 0.0007778023 0.004485736)
(5.008915 -0.01440107 -0.04475312)
(2.988864 -0.05031962 -0.09159301)
(1.161357 0.0001137957 -0.0007033054)
(2.75641 -0.0004452522 0.001883415)
(4.089983 0.000943037 -0.004985467)
(4.365088 -0.000720258 0.001825456)
(5.338907 0.01423187 -0.02376402)
(2.999145 0.04967774 0.0009929818)
(1.079551 -0.0001692387 0.0002643215)
(2.676214 0.0005794281 -0.001441289)
(3.641804 -0.00162278 0.00145789)
(4.5094 0.002523582 -0.004688378)
(4.383822 -0.002810666 3.03944e-05)
(5.059994 0.03630243 0.004835201)
(2.842015 0.1384583 0.09001696)
(0.9625034 0.0001840082 -0.0002513902)
(2.271494 -0.0005465581 0.0002717156)
(3.207837 0.0008975921 -0.001977768)
(3.649811 -0.00261766 8.602953e-05)
(4.114478 0.003232662 -0.003654257)
(3.728712 -0.005880964 -0.001725091)
(4.168776 0.04362788 0.02725604)
(2.432458 0.1952735 0.1527305)
(0.7350117 -6.227968e-05 5.056595e-05)
(1.689074 0.0002841873 -0.0005188885)
(2.273837 -0.000668838 -7.901866e-05)
(2.684411 0.0008225428 -0.001899757)
(2.775103 -0.002633474 -0.00131567)
(2.949905 0.00281029 -0.002388875)
(2.496977 -0.007021174 -0.004711258)
(2.713576 0.03442053 0.03005362)
(1.645631 0.1820838 0.1411218)
(0.3600561 4.752617e-05 -4.110382e-05)
(0.735247 -6.459125e-05 1.434611e-05)
(0.9636808 0.0002117495 -0.0004008379)
(1.082822 -0.0003267307 -0.0002875652)
(1.168403 0.0005945901 -0.001023727)
(1.131767 -0.001285427 -0.001525671)
(1.157285 0.001856648 -0.001298561)
(0.9071837 -0.004181029 -0.00526582)
(0.9703081 0.01024726 0.009185375)
(0.5496698 0.06472436 0.0101132)
(0.0006923997 -0.01203705 -0.0009383521)
(0.0007415093 -0.00522717 -0.0006300766)
(0.0006563666 -0.005877636 -0.001372566)
(0.0004616361 -0.003848522 -0.0003947335)
(0.0006996716 -0.003935845 -0.0008283074)
(0.0006167772 -0.004421789 -0.00233029)
(0.0005982153 -0.002018245 -0.0003517187)
(0.0004523852 -0.002156251 -0.0007269596)
(0.000671876 -0.002211159 -0.00207212)
(0.0005913589 -0.002489363 -0.0007768734)
(0.000538878 -0.0006704385 -0.0003272459)
(0.0005958623 -0.0006993257 -0.0006662709)
(0.0004429927 -0.0007397658 -0.001913573)
(0.0006480692 -0.0007495398 -0.0006966318)
(0.0005755761 -0.0008567643 -0.007467188)
(0.4669556 -0.00590867 -0.0057041)
(0.7988496 -0.09188618 -0.1143295)
(0.6693223 0.002573931 0.00331585)
(1.976426 -0.03018797 -0.02968859)
(1.906259 -0.2049499 -0.1849825)
(1.004309 -0.001963656 -0.002254202)
(2.102216 0.003897541 0.005069349)
(3.542256 -0.04405497 -0.04541126)
(2.571914 -0.2070663 -0.1622874)
(1.060371 0.0006234248 0.001099067)
(2.742792 -0.002437444 -0.004235572)
(3.438978 0.002447597 0.00458283)
(4.71953 -0.03793968 -0.04350347)
(2.897357 -0.1418027 -0.08940676)
(1.161357 -0.0001137962 -0.0007033054)
(2.75641 0.0004452528 0.001883414)
(4.089983 -0.0009430363 -0.004985466)
(4.365088 0.0007202578 0.001825456)
(5.338907 -0.01423186 -0.02376402)
(2.999145 -0.04967774 0.0009929819)
(1.138755 -5.836782e-05 0.0002616859)
(2.845906 0.0001957206 -0.00144508)
(3.895435 -0.0005766516 0.001495008)
(4.827204 0.0008885423 -0.004661334)
(4.70872 -0.0008128467 -0.0002236432)
(5.373494 0.013812 0.003860117)
(2.930886 0.04896583 0.08866302)
(1.090892 0.0001179705 -0.0002623551)
(2.630324 -0.0003817457 0.0002463639)
(3.751524 0.0005663089 -0.002093458)
(4.304504 -0.00188842 7.603445e-05)
(4.846163 0.002194902 -0.003785004)
(4.414673 -0.003326507 -0.001707344)
(4.821774 0.03515384 0.02832786)
(2.645955 0.1332098 0.1554081)
(0.9561549 -6.008607e-05 3.870162e-05)
(2.293216 0.00027746 -0.0006591071)
(3.154906 -0.000736592 -0.0002261938)
(3.759587 0.0007294752 -0.002398162)
(3.919153 -0.002952797 -0.001662481)
(4.140521 0.00273363 -0.00270894)
(3.524326 -0.006684093 -0.004323557)
(3.695556 0.04027238 0.03745174)
(2.043327 0.1707329 0.1574562)
(0.7373272 7.876699e-05 -9.37997e-05)
(1.67847 -0.0001562809 -5.932239e-05)
(2.29556 0.0002536259 -0.0009183208)
(2.638444 -0.0008038924 -0.0007862314)
(2.864708 0.0006134665 -0.002246229)
(2.791658 -0.002994374 -0.003048359)
(2.80492 0.002243217 -0.002044682)
(2.192684 -0.007735957 -0.007743451)
(2.149237 0.0260703 0.02361207)
(0.9905278 0.1214709 0.03315869)
(0.3588754 6.359997e-06 8.396243e-07)
(0.7375611 7.837067e-05 -0.0001312998)
(0.9573271 -7.520137e-05 -0.0001384299)
(1.094165 0.0001990171 -0.0005864474)
(1.145733 -0.0003613403 -0.0007449781)
(1.1743 0.0005163702 -0.001344443)
(1.081771 -0.001453221 -0.002749648)
(1.039992 0.001639633 -0.001782024)
(0.7192845 -0.004146839 -0.008466106)
(0.5743678 0.002842196 -0.01531871)
(0.002780922 -0.008690085 -0.00783048)
(0.0007906843 -0.01028397 -0.0008433657)
(0.0006944463 -0.009413984 -0.001799144)
(0.0004847174 -0.005047571 -0.0005946379)
(0.0007455372 -0.005121329 -0.001216204)
(0.0006529494 -0.005715219 -0.002773919)
(0.0006113411 -0.003619063 -0.0003741494)
(0.0004652784 -0.003802489 -0.0007785767)
(0.0006969126 -0.003852772 -0.002147309)
(0.0006112978 -0.004301172 -0.0008351669)
(0.0005453187 -0.001941723 -0.0003363884)
(0.0006039831 -0.002028898 -0.0006900348)
(0.0004506091 -0.002139399 -0.00194872)
(0.0006623371 -0.002182893 -0.0007188718)
(0.0005872675 -0.002466137 -0.007548497)
(0.0005918712 -0.000642123 -0.000314529)
(0.0005442204 -0.0006729282 -0.000637413)
(0.0005944277 -0.0006963073 -0.001818621)
(0.0004358031 -0.0007261096 -0.0006557169)
(0.0006465228 -0.000750038 -0.006962548)
(6.241932e-05 -9.326839e-05 -0.002850992)
(0.3224113 0.001959148 0.001988555)
(0.9078496 -0.01101443 -0.01447951)
(0.9393704 -0.09212177 -0.1007602)
(0.776012 -0.001967313 -0.00204662)
(1.546033 0.003917852 0.004165681)
(2.608296 -0.0383265 -0.03672518)
(2.061821 -0.2054595 -0.1329467)
(0.9341354 0.0009523804 0.001091413)
(2.377069 -0.003597069 -0.004228471)
(2.931736 0.00440324 0.004606559)
(4.081893 -0.04707358 -0.03854363)
(2.646366 -0.2043651 -0.0823819)
(1.101655 -0.000338986 -0.0007012998)
(2.589533 0.001270674 0.001849667)
(3.831873 -0.002688613 -0.005062048)
(4.068928 0.002500784 0.002076886)
(5.027559 -0.03738758 -0.02240813)
(2.906773 -0.1400702 0.0027897)
(1.138755 5.836839e-05 0.0002616859)
(2.845906 -0.0001957203 -0.00144508)
(3.895435 0.0005766513 0.001495008)
(4.827204 -0.0008885417 -0.004661334)
(4.70872 0.0008128464 -0.000223643)
(5.373494 -0.013812 0.003860117)
(2.930886 -0.04896583 0.08866302)
(1.150364 3.965553e-05 -0.0002660651)
(2.798768 -0.0001353521 0.0002361444)
(4.009043 0.0001882463 -0.002114495)
(4.617773 -0.000678311 9.682228e-05)
(5.194991 0.0007694493 -0.003775942)
(4.742333 -0.001003063 -0.001765829)
(5.117801 0.0133004 0.02782483)
(2.724514 0.04676123 0.153934)
(1.084105 -4.072091e-05 3.042335e-05)
(2.653824 0.0001772316 -0.0007183166)
(3.69404 -0.0005367507 -0.000310308)
(4.42523 0.0004226687 -0.002575235)
(4.63624 -0.002161914 -0.001745913)
(4.87806 0.001817005 -0.002698999)
(4.163554 -0.00397958 -0.003817669)
(4.260633 0.03197755 0.03961241)
(2.193589 0.1153223 0.1610067)
(0.9588148 8.044242e-05 -0.0001187847)
(2.280121 -0.0001700784 -0.0001352576)
(3.181947 0.0002277028 -0.00120833)
(3.702029 -0.0009249417 -0.001108859)
(4.032848 0.0004527263 -0.002825846)
(3.944222 -0.003379646 -0.003581833)
(3.920763 0.002144284 -0.001909257)
(3.065428 -0.007563688 -0.007234678)
(2.845614 0.03306725 0.03259444)
(1.182975 0.1075673 0.04067372)
(0.7352137 1.442079e-05 -2.011818e-05)
(1.682827 9.71981e-05 -0.0003200593)
(2.282455 -0.0002414039 -0.0004231561)
(2.661945 0.0001540068 -0.001367579)
(2.817403 -0.0009983216 -0.001698404)
(2.881492 0.0002731518 -0.002741186)
(2.649154 -0.003560402 -0.004937542)
(2.475428 0.001393195 -0.002089949)
(1.676349 -0.008110459 -0.01058645)
(1.166139 0.01273881 -0.007310512)
(0.00432035 0.0006314593 -0.005398205)
(0.3591003 2.228442e-05 -1.551268e-05)
(0.7354488 6.670357e-06 -6.038449e-05)
(0.9599789 8.127969e-05 -0.0002869211)
(1.087365 -8.972561e-05 -0.0003931733)
(1.157344 0.0001665497 -0.0008557748)
(1.151557 -0.0004370522 -0.001370571)
(1.123407 0.0003509986 -0.001929131)
(0.9680149 -0.001666399 -0.00419392)
(0.832365 0.001522274 -0.003931035)
(0.4044817 -0.006432479 -0.0192552)
(0.002993031 -0.00768779 -0.006607204)
(0.0007999006 -0.00720851 -0.01073705)
(0.0005105193 -0.00989308 -0.00080209)
(0.0007916514 -0.008104779 -0.001583374)
(0.0006899206 -0.008434383 -0.003194233)
(0.0006344508 -0.0047434 -0.0005612997)
(0.0004876987 -0.00494733 -0.001147732)
(0.0007410054 -0.004983829 -0.002506633)
(0.000645578 -0.005526989 -0.00114164)
(0.0005555181 -0.00348021 -0.0003576292)
(0.0006171345 -0.003576487 -0.0007376252)
(0.0004633341 -0.003723803 -0.002016279)
(0.0006865205 -0.00375798 -0.0007657727)
(0.0006071596 -0.004229528 -0.007701119)
(0.0005979722 -0.001859567 -0.0003231795)
(0.0005507012 -0.001952272 -0.0006599323)
(0.0006024797 -0.002013428 -0.001850607)
(0.0004432133 -0.002114631 -0.0006763053)
(0.0006607661 -0.002160437 -0.007020108)
(6.356266e-05 -0.0002674138 -0.002877119)
(0.0005822559 -0.0006202298 -0.0003033273)
(0.0005980092 -0.0006445729 -0.0006125203)
(0.0005430241 -0.0006701119 -0.001740158)
(0.0005885272 -0.000683796 -0.0006229628)
(0.0004354684 -0.0007259572 -0.00655352)
(6.924065e-05 -8.201266e-05 -0.002658631)
(5.682342e-05 -8.406829e-05 -0.003378656)
(0.3817902 -0.001150954 -0.001152086)
(0.6695862 0.003268466 0.002728166)
(1.144069 -0.01150797 -0.01473137)
(0.9970972 -0.08987385 -0.06827049)
(0.716692 0.0009773958 0.001014766)
(1.758588 -0.003458611 -0.003761721)
(2.104699 0.004914479 0.004298319)
(2.972055 -0.03929858 -0.02872712)
(2.097912 -0.204967 -0.06559997)
(0.9726075 -0.0005337915 -0.0006904314)
(2.234367 0.001852073 0.001777533)
(3.284187 -0.003900459 -0.005009159)
(3.447242 0.004788055 0.002516881)
(4.34264 -0.04609473 -0.01882605)
(2.653778 -0.2021655 0.005519489)
(1.079551 0.0001692391 0.0002643215)
(2.676214 -0.000579428 -0.001441289)
(3.641804 0.001622779 0.00145789)
(4.5094 -0.002523582 -0.004688378)
(4.383822 0.002810665 3.039467e-05)
(5.059994 -0.03630243 0.004835201)
(2.842015 -0.1384583 0.09001696)
(1.150364 -3.96558e-05 -0.000266065)
(2.798768 0.0001353525 0.0002361444)
(4.009043 -0.0001882466 -0.002114495)
(4.617773 0.0006783106 9.682235e-05)
(5.194991 -0.0007694487 -0.003775942)
(4.742333 0.001003062 -0.001765829)
(5.117801 -0.0133004 0.02782483)
(2.724514 -0.04676123 0.153934)
(1.143416 -1.448697e-05 2.717114e-05)
(2.822942 5.913069e-05 -0.0007376001)
(3.949897 -0.0001943068 -0.0003413707)
(4.742998 0.0001327877 -0.002615433)
(4.980687 -0.0007819782 -0.001737393)
(5.229766 0.0006315244 -0.002644309)
(4.468099 -0.001250601 -0.003660877)
(4.515515 0.0120105 0.03936806)
(2.250415 0.0399018 0.1595947)
(1.086862 5.313844e-05 -0.0001294104)
(2.639632 -0.000124918 -0.0001790522)
(3.723433 0.0001308705 -0.00134045)
(4.362625 -0.0006960098 -0.001259491)
(4.76147 0.0001988523 -0.003022265)
(4.66702 -0.002481419 -0.003661686)
(4.607702 0.001414671 -0.00164439)
(3.60236 -0.004721565 -0.006465562)
(3.266551 0.02399824 0.03251476)
(1.260047 0.06920933 0.0411357)
(0.9563354 1.990109e-05 -3.87314e-05)
(2.285211 9.584863e-05 -0.0004361727)
(3.165543 -0.0002842189 -0.0006295836)
(3.731423 8.826788e-05 -0.001804073)
(3.973512 -0.001181144 -0.002185722)
(4.058231 5.189333e-05 -0.00327899)
(3.727378 -0.003942227 -0.005408144)
(3.426326 0.00141145 -0.001273898)
(2.301321 -0.007760293 -0.009015034)
(1.493272 0.01457617 -0.00171944)
(0.004988001 0.0005085222 -0.003797022)
(0.7355215 3.138378e-05 -4.673232e-05)
(1.678678 -1.164444e-05 -0.0001962176)
(2.287528 5.447502e-05 -0.0007008396)
(2.64772 -0.0003492468 -0.0009831047)
(2.84157 -2.616691e-05 -0.001918472)
(2.833995 -0.001326178 -0.002786949)
(2.736686 -0.0002905847 -0.003412293)
(2.328218 -0.004338419 -0.006694944)
(1.908962 0.0003193951 -0.003340003)
(0.8714683 -0.006505308 -0.01458637)
(0.005064358 1.541619e-06 -0.004595848)
(0.0008114061 -0.001356305 -0.007705676)
(0.3587431 1.392106e-05 -7.636119e-06)
(0.7357551 3.390325e-05 -7.542099e-05)
(0.9575046 3.664154e-06 -0.000210718)
(1.0901 7.00813e-05 -0.0004957731)
(1.150368 -0.0001215158 -0.0007482327)
(1.163184 9.359694e-05 -0.001279968)
(1.101032 -0.000597215 -0.002245136)
(1.007251 0.00013541 -0.00278496)
(0.7696491 -0.00167179 -0.006558678)
(0.4756067 -0.002233134 -0.0166669)
(0.002018247 -0.007437454 -0.006318094)
(0.0009163342 -0.006262874 -0.009026149)
(0.0007681483 -0.00658768 -0.007482007)
(0.0006608247 -0.009292485 -0.0007528452)
(0.0005114858 -0.007807869 -0.001498981)
(0.000785766 -0.007281172 -0.002850858)
(0.0006805763 -0.007526718 -0.001425193)
(0.0005734809 -0.004560896 -0.0005367009)
(0.0006396586 -0.004650534 -0.001083081)
(0.0004849854 -0.00481634 -0.002353516)
(0.0007281432 -0.004834657 -0.001018266)
(0.0006408587 -0.005420091 -0.00799595)
(0.0006073341 -0.003332129 -0.0003432936)
(0.000560924 -0.003439929 -0.0007050512)
(0.0006154872 -0.003503195 -0.001911811)
(0.0004555376 -0.003636946 -0.0007197936)
(0.0006849676 -0.003692516 -0.007123231)
(6.563864e-05 -0.0004588067 -0.002930561)
(0.0005876338 -0.00179612 -0.0003115941)
(0.0006041544 -0.001869882 -0.0006338756)
(0.000549453 -0.001937674 -0.00177007)
(0.0005964305 -0.001991331 -0.0006419224)
(0.0004428678 -0.002091584 -0.006600902)
(7.062171e-05 -0.0002353859 -0.002676252)
(5.783925e-05 -0.0002432027 -0.003410127)
(0.0006019178 -0.0005990356 -0.0002933121)
(0.000588405 -0.0006226552 -0.0005906411)
(0.0005969536 -0.0006419502 -0.001672476)
(0.0005380596 -0.000658403 -0.0005960457)
(0.0005858391 -0.0006835584 -0.006229196)
(4.634011e-05 -7.958524e-05 -0.002502646)
(6.252314e-05 -7.404262e-05 -0.003150601)
(5.602686e-05 -8.389668e-05 -0.00333226)
(0.3486347 0.0005820098 0.0005892816)
(0.7762589 -0.002018283 -0.002063599)
(0.8758961 0.003575341 0.002735361)
(1.27481 -0.01100769 -0.009540545)
(1.014269 -0.08847194 -0.03200577)
(0.7488379 -0.0005581256 -0.0006213883)
(1.641742 0.001799656 0.001584606)
(2.379517 -0.003747884 -0.004367891)
(2.446535 0.005426613 0.002882873)
(3.165593 -0.03580871 -0.01222483)
(2.101223 -0.2033229 0.007505753)
(0.9518821 0.0002576201 0.0002706212)
(2.313958 -0.0008955798 -0.001389846)
(3.107737 0.002298971 0.00139797)
(3.840185 -0.003662891 -0.004551396)
(3.703619 0.005240382 0.0004737257)
(4.370322 -0.04474119 0.006009711)
(2.599992 -0.200791 0.08875665)
(1.090892 -0.0001179708 -0.0002623551)
(2.630324 0.0003817462 0.000246364)
(3.751524 -0.0005663092 -0.002093458)
(4.304504 0.00188842 7.603418e-05)
(4.846163 -0.002194902 -0.003785004)
(4.414673 0.003326507 -0.001707344)
(4.821774 -0.03515384 0.02832786)
(2.645955 -0.1332098 0.1554081)
(1.143416 1.448705e-05 2.717115e-05)
(2.822942 -5.9131e-05 -0.0007376002)
(3.949897 0.0001943073 -0.0003413708)
(4.742998 -0.0001327881 -0.002615433)
(4.980687 0.0007819778 -0.001737393)
(5.229766 -0.0006315238 -0.002644309)
(4.468099 0.001250601 -0.003660877)
(4.515515 -0.0120105 0.03936806)
(2.250415 -0.0399018 0.1595947)
(1.146189 1.808082e-05 -0.0001336578)
(2.808341 -4.56552e-05 -0.0001964894)
(3.980192 4.048739e-05 -0.001386428)
(4.678556 -0.000255812 -0.001308808)
(5.110713 4.844979e-05 -0.003061468)
(5.014269 -0.000898238 -0.003626647)
(4.934171 0.0004907025 -0.001494711)
(3.856769 -0.001534189 -0.006206862)
(3.45211 0.008959397 0.03223787)
(1.287582 0.02343923 0.04066537)
(1.084262 1.492767e-05 -4.865433e-05)
(2.64488 6.024093e-05 -0.0004948365)
(3.705563 -0.0002191275 -0.0007400314)
(4.39463 1.319384e-05 -0.001998384)
(4.696913 -0.0009037822 -0.002369286)
(4.792609 -9.989935e-05 -0.00339804)
(4.399375 -0.00284519 -0.005330884)
(4.003803 0.0009906948 -0.0006908932)
(2.678221 -0.005050253 -0.008203994)
(1.681328 0.01054732 -0.0007504213)
(0.005253845 0.0003130035 -0.003323191)
(0.9566089 2.976756e-05 -6.505412e-05)
(2.280239 -8.588109e-06 -0.0002989916)
(3.171366 3.518146e-05 -0.0009551536)
(3.713521 -0.0004325335 -0.001344507)
(4.003788 -0.000147216 -0.002455181)
(3.998631 -0.001567061 -0.003332047)
(3.838223 -0.0005166197 -0.003679062)
(3.243789 -0.004554919 -0.006674071)
(2.594296 0.0006638273 -0.001244256)
(1.156491 -0.005391112 -0.009108898)
(0.006208005 4.315266e-05 -0.00323535)
(0.0008175045 -0.0006858212 -0.005660624)
(0.7348405 2.152796e-05 -3.26244e-05)
(1.67904 1.414818e-05 -0.0002119871)
(2.282567 -6.413516e-05 -0.0005634897)
(2.652902 -3.395915e-05 -0.001179498)
(2.8269 -0.0005236945 -0.001694438)
(2.858202 -0.0003422363 -0.002612035)
(2.690097 -0.001878042 -0.004023044)
(2.409709 -0.001122362 -0.00415082)
(1.78395 -0.004875682 -0.008144221)
(1.004555 -0.0008671446 -0.01139606)
(0.003666228 -9.664438e-05 -0.00438667)
(0.0009310492 -0.001338689 -0.006525626)
(0.0007749606 -0.001835815 -0.00620895)
(0.3586002 1.760312e-05 -1.147805e-05)
(0.7350728 1.947935e-05 -6.655145e-05)
(0.9577704 3.1561e-05 -0.000212164)
(1.087514 -8.181074e-06 -0.0004316898)
(1.153087 4.093072e-05 -0.0007852639)
(1.15618 -0.0001923394 -0.001258333)
(1.112433 -6.202543e-05 -0.001948428)
(0.9860125 -0.0008040529 -0.003350675)
(0.8034362 6.494538e-05 -0.004845499)
(0.4354872 -0.004295028 -0.01683683)
(0.002418596 -0.006965218 -0.005931925)
(0.0005718289 -0.006040087 -0.008623226)
(0.000880433 -0.005739698 -0.006413415)
(0.0007447672 -0.005998535 -0.00421953)
(0.0005940786 -0.008923336 -0.000721044)
(0.0006638047 -0.007334885 -0.001409234)
(0.0005080164 -0.00701995 -0.002675624)
(0.0007703917 -0.006534693 -0.001254983)
(0.0006755329 -0.007125655 -0.0083382)
(0.0006237439 -0.004365498 -0.0005143077)
(0.0005784328 -0.004472395 -0.001035571)
(0.0006373072 -0.004528671 -0.002225156)
(0.0004761192 -0.004678743 -0.0009593679)
(0.0007259927 -0.004736201 -0.007326686)
(6.917395e-05 -0.0005872811 -0.003014048)
(0.0005956545 -0.003217657 -0.0003308471)
(0.0006135427 -0.003293966 -0.0006766294)
(0.0005595678 -0.003370037 -0.001827249)
(0.0006091524 -0.003423591 -0.0006819506)
(0.0004551924 -0.003571653 -0.006683675)
(7.312465e-05 -0.0004025752 -0.002711536)
(5.969232e-05 -0.0004172271 -0.003473601)
(0.0006069766 -0.001734664 -0.0003012315)
(0.0005938251 -0.001806252 -0.0006110927)
(0.0006030537 -0.001856108 -0.001700587)
(0.0005443789 -0.001917322 -0.000613977)
(0.0005936886 -0.001969129 -0.00627022)
(4.704297e-05 -0.0002285355 -0.002516601)
(6.37432e-05 -0.0002145962 -0.003171952)
(5.70175e-05 -0.0002402234 -0.003362947)
(0.0006027523 -0.0005807857 -0.0002842481)
(0.0006084032 -0.0006014207 -0.0005710556)
(0.0005874735 -0.0006201744 -0.001612946)
(0.0005926035 -0.0006309183 -0.0005727619)
(0.0005353885 -0.0006580078 -0.005960545)
(6.334548e-05 -7.503655e-05 -0.002378991)
(4.170133e-05 -7.196857e-05 -0.002965675)
(6.143653e-05 -7.405186e-05 -0.003107433)
(5.551887e-05 -8.172248e-05 -0.003006247)
(0.3663941 -0.0003471546 -0.0003409629)
(0.7169264 0.001028644 0.0009289039)
(1.005541 -0.002201075 -0.002266076)
(0.9973523 0.003645601 0.001915028)
(1.34218 -0.01073959 -0.00315197)
(1.015551 -0.08791925 0.005157853)
(0.7314021 0.0002656351 0.0002644578)
(1.705939 -0.0009166684 -0.001184622)
(2.236713 0.002152292 0.00126185)
(2.751261 -0.003575474 -0.003839563)
(2.615339 0.005971997 0.0009642381)
(3.186064 -0.03469457 0.005652235)
(2.072175 -0.201572 0.07659392)
(0.9625034 -0.0001840085 -0.00025139)
(2.271494 0.0005465584 0.0002717155)
(3.207837 -0.0008975923 -0.001977768)
(3.649811 0.00261766 8.602935e-05)
(4.114478 -0.003232661 -0.003654258)
(3.728712 0.005880964 -0.001725091)
(4.168776 -0.04362788 0.02725604)
(2.432458 -0.1952735 0.1527305)
(1.084105 4.072102e-05 3.042353e-05)
(2.653824 -0.000177232 -0.0007183165)
(3.69404 0.000536751 -0.0003103082)
(4.42523 -0.0004226692 -0.002575235)
(4.63624 0.002161913 -0.001745913)
(4.87806 -0.001817004 -0.002699)
(4.163554 0.003979579 -0.003817669)
(4.260633 -0.03197755 0.03961241)
(2.193589 -0.1153223 0.1610067)
(1.146189 -1.808013e-05 -0.0001336577)
(2.808341 4.565519e-05 -0.0001964895)
(3.980192 -4.048755e-05 -0.001386428)
(4.678556 0.0002558124 -0.001308808)
(5.110713 -4.845028e-05 -0.003061468)
(5.014269 0.0008982378 -0.003626647)
(4.934171 -0.0004907019 -0.001494711)
(3.856769 0.001534189 -0.006206862)
(3.45211 -0.008959396 0.03223787)
(1.287582 -0.02343923 0.04066537)
(1.143562 5.243157e-06 -5.239635e-05)
(2.813597 1.971947e-05 -0.0005174021)
(3.961771 -8.164362e-05 -0.0007832854)
(4.711572 -4.801779e-06 -0.002063434)
(5.044255 -0.000334427 -0.002414866)
(5.144691 -5.984068e-05 -0.003389819)
(4.721091 -0.001020847 -0.005207338)
(4.276316 0.000353757 -0.0004385722)
(2.85534 -0.001672145 -0.007984848)
(1.764068 0.003884077 -0.0003745825)
(0.005348379 0.0001021205 -0.003118953)
(1.084475 1.704842e-05 -7.294638e-05)
(2.639679 -7.146908e-06 -0.0003550113)
(3.711409 6.300868e-06 -0.001079416)
(4.375089 -0.0003429794 -0.001517796)
(4.729896 -0.0001761192 -0.002662404)
(4.727755 -0.001191502 -0.003456561)
(4.521324 -0.000473513 -0.003574759)
(3.806781 -0.003148021 -0.006276129)
(3.001553 0.0006492412 -0.0003575062)
(1.319991 -0.003376249 -0.00790482)
(0.006865696 3.521081e-05 -0.002817551)
(0.0008172721 -0.0002003234 -0.004967797)
(0.9557531 2.240047e-05 -4.984553e-05)
(2.280432 2.654873e-06 -0.0003029976)
(3.165538 -7.870821e-05 -0.0008025024)
(3.719322 -9.049508e-05 -0.001570972)
(3.985288 -0.0006594407 -0.00218108)
(4.028963 -0.0005192206 -0.003131225)
(3.779817 -0.002127518 -0.004393292)
(3.346445 -0.001216783 -0.003806602)
(2.440602 -0.004684431 -0.006771041)
(1.318987 0.000196055 -0.006125272)
(0.00467152 -4.064086e-05 -0.003073369)
(0.0009403202 -0.0007014428 -0.00479448)
(0.0007796806 -0.0009707504 -0.005330494)
(0.7345133 2.853471e-05 -3.884356e-05)
(1.67759 -6.104032e-07 -0.0001965534)
(2.282745 -4.277956e-05 -0.0005472565)
(2.647752 -0.0001540183 -0.001059787)
(2.831958 -0.0001984404 -0.001760739)
(2.843458 -0.0008297318 -0.002559882)
(2.71374 -0.000881189 -0.003461766)
(2.365937 -0.002667737 -0.005223231)
(1.85213 -0.001943095 -0.005307035)
(0.9300228 -0.004186075 -0.01234602)
(0.004286973 -6.131088e-05 -0.004110238)
(0.0005881512 -0.001315911 -0.006224957)
(0.0008882002 -0.001736778 -0.005346681)
(0.0007546035 -0.002222213 -0.003389302)
(0.3583313 1.497741e-05 -8.944609e-06)
(0.7347453 2.58874e-05 -7.289703e-05)
(0.956908 1.661159e-05 -0.0002046315)
(1.087707 1.844019e-05 -0.0004160778)
(1.150505 -3.760557e-05 -0.0007351296)
(1.158875 -2.704852e-05 -0.001218463)