/*--------------------------------*- C++ -*----------------------------------*\
| =========                 |                                                 |
| \\      /  F ield         | OpenFOAM: The Open Source CFD Toolbox           |
|  \\    /   O peration     | Version:  2306                                  |
|   \\  /    A nd           | Website:  www.openfoam.com                      |
|    \\/     M anipulation  |                                                 |
\*---------------------------------------------------------------------------*/
FoamFile
{
    version     2.0;
    format      ascii;
    arch        "LSB;label=32;scalar=64";
    class       volScalarField;
    location    "0.3/air";
    object      X.N2;
}
// * * * * * * * * * * * * * * * * * * * * * * * * * * * * * * * * * * * * * //

dimensions      [0 0 0 0 0 0 0];

internalField   nonuniform List<scalar> 
16000
(
0.7926536
0.7926383
0.7934968
0.7926639
0.7926198
0.793443
0.7926416
0.7946397
0.7935705
0.7927062
0.7926052
0.7933747
0.7926163
0.7945476
0.7934955
0.7926728
0.7961228
0.794757
0.7937666
0.7928096
0.7925974
0.7933179
0.7925977
0.7944215
0.7934069
0.7926363
0.7960262
0.7946371
0.793658
0.7927615
0.797662
0.7962501
0.7950497
0.7941447
0.7930191
0.7925974
0.7932866
0.7925883
0.7943099
0.7933367
0.7926112
0.7958938
0.7944796
0.793533
0.7927091
0.7975645
0.7961249
0.7948967
0.7939947
0.7929512
0.7991914
0.7977906
0.7965664
0.7955691
0.7947692
0.7934032
0.8250309
0.7926052
0.7932866
0.7925883
0.7942458
0.7932991
0.7925991
0.795776
0.7943436
0.7934367
0.7926731
0.7974309
0.7959607
0.7946972
0.7938161
0.7928744
0.799096
0.7976647
0.7964076
0.7953838
0.7945761
0.7933098
0.8006853
0.7993181
0.7981092
0.7971257
0.7963644
0.7957084
0.794063
0.8238954
0.8266254
0.8252101
0.7926198
0.7933179
0.7925977
0.7942458
0.7932991
0.7925991
0.7957081
0.7942667
0.7933862
0.7926552
0.7973122
0.7958183
0.7945264
0.7936785
0.7928181
0.7989653
0.7974997
0.7962021
0.7951445
0.7943398
0.7931961
0.8005928
0.7991951
0.797951
0.7969365
0.796147
0.7954704
0.7939339
0.8021337
0.8008081
0.7996313
0.7986694
0.7979713
0.7974817
0.7970325
0.7951461
0.8216006
0.8255934
0.8240789
0.8272767
0.8267922
0.8255679
0.7926383
0.7933747
0.7926163
0.7943099
0.7933367
0.7926112
0.7957081
0.7942667
0.7933862
0.7926552
0.7972437
0.7957372
0.7944302
0.7936067
0.792789
0.7988489
0.7973566
0.7960258
0.7949377
0.7941488
0.7931065
0.800466
0.7990338
0.7977465
0.7966912
0.7958656
0.795173
0.7937649
0.8020444
0.8006889
0.7994774
0.7984836
0.797757
0.7972328
0.7967425
0.7949501
0.8035358
0.8022525
0.8011118
0.8001809
0.7995101
0.7991359
0.7989624
0.7988161
0.7968833
0.8180594
0.8235123
0.8217987
0.8263006
0.8257634
0.8244441
0.8276738
0.8274334
0.8271251
0.8261031
0.7926536
0.793443
0.7926416
0.7944215
0.7934069
0.7926363
0.795776
0.7943436
0.7934367
0.7926731
0.7972437
0.7957372
0.7944302
0.7936067
0.792789
0.7987818
0.7972751
0.7959261
0.7948206
0.7940452
0.7930583
0.8003532
0.7988938
0.7975711
0.7964806
0.7956251
0.7949267
0.7936248
0.8019219
0.8005327
0.7992784
0.798243
0.7974769
0.796908
0.7963738
0.7946877
0.8034494
0.8021374
0.8009629
0.8000013
0.7993033
0.7989003
0.7986777
0.7984476
0.7965148
0.8048932
0.8036504
0.802546
0.8016439
0.8010029
0.8006574
0.8006428
0.8008462
0.8011498
0.7996977
0.8129361
0.820315
0.8183131
0.824333
0.8236941
0.8221885
0.8267456
0.8264602
0.826102
0.8249885
0.8280057
0.8278225
0.8277463
0.8276234
0.8268146
0.7934968
0.7926639
0.7945476
0.7934955
0.7926728
0.7958938
0.7944796
0.793533
0.7927091
0.7973122
0.7958183
0.7945264
0.7936785
0.7928181
0.7987818
0.7972751
0.7959261
0.7948206
0.7940452
0.7930583
0.8002882
0.7988142
0.7974719
0.7963615
0.7954898
0.7947907
0.7935474
0.801813
0.8003971
0.7991076
0.7980364
0.7972351
0.7966295
0.796065
0.7944696
0.8033312
0.8019865
0.8007705
0.7997686
0.7990331
0.7985885
0.7983031
0.7979807
0.7960732
0.8048097
0.8035392
0.8024023
0.8014706
0.8008045
0.8004337
0.8003817
0.8005007
0.8006134
0.7988103
0.8062095
0.8050041
0.8039339
0.8030604
0.8024387
0.8021202
0.802128
0.8025134
0.8031887
0.8041944
0.8045808
0.8157264
0.8134604
0.8213122
0.820543
0.8187856
0.8248751
0.8245033
0.8240522
0.8227607
0.8271175
0.826897
0.826778
0.8266071
0.8257092
0.8283891
0.8281477
0.8281195
0.8282147
0.8282861
0.8278446
0.7946397
0.7935705
0.7927062
0.7960262
0.7946371
0.793658
0.7927615
0.7974309
0.7959607
0.7946972
0.7938161
0.7928744
0.7988489
0.7973566
0.7960258
0.7949377
0.7941488
0.7931065
0.8002882
0.7988142
0.7974719
0.7963615
0.7954898
0.7947907
0.7935474
0.8017503
0.80032
0.799011
0.7979197
0.7970981
0.7964726
0.7958934
0.7943494
0.803226
0.8018557
0.8006055
0.7995688
0.7988001
0.7983178
0.797981
0.7975922
0.7957306
0.8046954
0.8033935
0.8022167
0.8012464
0.8005453
0.8001381
0.8000331
0.8000514
0.7999821
0.7980194
0.8061286
0.8048966
0.8037951
0.8028932
0.8022478
0.8019071
0.8018828
0.8022001
0.8026932
0.803196
0.8019935
0.8074878
0.8063169
0.8052783
0.8044306
0.8038284
0.8035174
0.8035461
0.8039379
0.8047887
0.8061228
0.808356
0.8070129
0.8169817
0.8161839
0.8142417
0.8220048
0.8215254
0.8209694
0.8194405
0.8253281
0.8250364
0.8248387
0.8245788
0.8235065
0.8275365
0.8272621
0.8271985
0.8272522
0.8272763
0.826749
0.8288166
0.8285255
0.8284315
0.8285641
0.8288376
0.829246
0.8280571
0.7961228
0.794757
0.7937666
0.7928096
0.7975645
0.7961249
0.7948967
0.7939947
0.7929512
0.7989653
0.7974997
0.7962021
0.7951445
0.7943398
0.7931961
0.8003532
0.7988938
0.7975711
0.7964806
0.7956251
0.7949267
0.7936248
0.8017503
0.80032
0.799011
0.7979197
0.7970981
0.7964726
0.7958934
0.7943494
0.8031654
0.8017812
0.8005122
0.7994559
0.7986681
0.7981639
0.7977996
0.7973775
0.795549
0.8045937
0.8032672
0.8020575
0.801054
0.8003217
0.7998816
0.7997297
0.7996705
0.7994809
0.7974863
0.8060179
0.8047557
0.8036159
0.802677
0.8019988
0.8016255
0.801556
0.8017878
0.8021018
0.8022628
0.8006287
0.8074094
0.8062127
0.805144
0.8042692
0.8036444
0.8033128
0.8033135
0.8036439
0.8043332
0.8051905
0.8059043
0.8039693
0.8087311
0.807592
0.8065824
0.8057587
0.8051723
0.8048702
0.8048921
0.8052934
0.8061249
0.8075922
0.8100369
0.8104401
0.808904
0.8178928
0.8174098
0.8168708
0.8151508
0.8225829
0.8222065
0.8219238
0.821563
0.8202502
0.8258189
0.825482
0.8253542
0.825332
0.8252665
0.824568
0.8279952
0.8276753
0.8275501
0.8276483
0.8278807
0.8282427
0.8269635
0.8292966
0.828948
0.8287979
0.8288564
0.8291555
0.8297403
0.8294441
0.8282714
0.797662
0.7962501
0.7950497
0.7941447
0.7930191
0.799096
0.7976647
0.7964076
0.7953838
0.7945761
0.7933098
0.800466
0.7990338
0.7977465
0.7966912
0.7958656
0.795173
0.7937649
0.801813
0.8003971
0.7991076
0.7980364
0.7972351
0.7966295
0.796065
0.7944696
0.8031654
0.8017812
0.8005122
0.7994559
0.7986681
0.7981639
0.7977996
0.7973775
0.795549
0.8045351
0.8031953
0.8019675
0.8009453
0.8001949
0.7997358
0.7995572
0.7994579
0.7992113
0.7972222
0.8059194
0.8046336
0.8034622
0.8024916
0.8017841
0.8013811
0.8012719
0.8014347
0.8016272
0.8016002
0.7998443
0.8073019
0.8060762
0.8049707
0.8040604
0.8034045
0.8030429
0.8030034
0.8032581
0.8037868
0.804317
0.8045057
0.8023101
0.8086549
0.8074909
0.8064523
0.8056025
0.8049945
0.8046731
0.8046689
0.8050145
0.8056945
0.8067173
0.8077275
0.8076004
0.8057201
0.8099425
0.8088323
0.8078496
0.8070478
0.8064763
0.8061785
0.8061974
0.806575
0.8073974
0.8088088
0.8113036
0.8119937
0.8120713
0.8104515
0.8186516
0.8182977
0.8180517
0.8176766
0.8161255
0.8231845
0.8227752
0.8225834
0.8224785
0.8223005
0.8213525
0.8263404
0.8259666
0.8257854
0.8258216
0.8259765
0.8262474
0.8247869
0.8285031
0.8281288
0.8279517
0.8279798
0.8282446
0.8287884
0.8284421
0.8271797
0.8298152
0.8294235
0.8292105
0.8292058
0.8294217
0.8300125
0.8299265
0.8296439
0.8284876
0.7991914
0.7977906
0.7965664
0.7955691
0.7947692
0.7934032
0.8005928
0.7991951
0.797951
0.7969365
0.796147
0.7954704
0.7939339
0.8019219
0.8005327
0.7992784
0.798243
0.7974769
0.796908
0.7963738
0.7946877
0.803226
0.8018557
0.8006055
0.7995688
0.7988001
0.7983178
0.797981
0.7975922
0.7957306
0.8045351
0.8031953
0.8019675
0.8009453
0.8001949
0.7997358
0.7995572
0.7994579
0.7992113
0.7972222
0.8058627
0.8045641
0.8033753
0.8023868
0.8016626
0.8012421
0.8011106
0.8012363
0.8013701
0.8012616
0.799479
0.8072064
0.8059579
0.804822
0.8038814
0.8031977
0.8028089
0.8027338
0.8029285
0.8033465
0.8036939
0.8036529
0.8013785
0.8085505
0.8073585
0.8062843
0.8054005
0.8047628
0.8044132
0.8043719
0.8046482
0.8051799
0.8058989
0.8064096
0.8059604
0.8038692
0.8098682
0.8087341
0.8077233
0.8068963
0.8063041
0.8059879
0.8059824
0.8063071
0.806987
0.8079758
0.8091166
0.8093144
0.8091108
0.8072541
0.811124
0.8100409
0.8090826
0.8083011
0.807743
0.8074501
0.8074607
0.8078219
0.8086005
0.8099732
0.8123544
0.8131575
0.8135212
0.8134168
0.8117584
0.8194128
0.8190378
0.8189046
0.8188035
0.8185481
0.8173036
0.8238026
0.8233688
0.8231346
0.823108
0.8231675
0.8233092
0.8215794
0.8269048
0.8264826
0.8262575
0.8262315
0.8264323
0.8268958
0.8264496
0.8250075
0.829047
0.8286322
0.8283951
0.8283641
0.8285495
0.8291059
0.8289757
0.8286431
0.8273978
0.8303681
0.8299382
0.8296771
0.8296035
0.8297486
0.8302408
0.8301893
0.8301143
0.8298453
0.8287055
0.8006853
0.7993181
0.7981092
0.7971257
0.7963644
0.7957084
0.794063
0.8020444
0.8006889
0.7994774
0.7984836
0.797757
0.7972328
0.7967425
0.7949501
0.8033312
0.8019865
0.8007705
0.7997686
0.7990331
0.7985885
0.7983031
0.7979807
0.7960732
0.8045937
0.8032672
0.8020575
0.801054
0.8003217
0.7998816
0.7997297
0.7996705
0.7994809
0.7974863
0.8058627
0.8045641
0.8033753
0.8023868
0.8016626
0.8012421
0.8011106
0.8012363
0.8013701
0.8012616
0.799479
0.8071513
0.8058906
0.804738
0.8037803
0.8030807
0.802676
0.8025806
0.8027436
0.803107
0.8033743
0.8032413
0.8009522
0.8084576
0.8072437
0.8061403
0.8052274
0.8045632
0.8041878
0.8041139
0.8043351
0.8047665
0.8053153
0.8056043
0.8049927
0.8028257
0.8097666
0.8086054
0.8075603
0.8067005
0.8060798
0.8057367
0.8056962
0.8059557
0.8064964
0.807199
0.8078718
0.8077655
0.8073119
0.8052939
0.8110517
0.8099453
0.8089598
0.808154
0.807576
0.8072654
0.8072525
0.8075634
0.8082056
0.8091754
0.8102657
0.8106167
0.8107242
0.810441
0.8085863
0.8122784
0.81122
0.8102845
0.8095215
0.8089759
0.8086868
0.8086914
0.8090306
0.8097767
0.8110802
0.8133728
0.8141246
0.814603
0.8147776
0.8145638
0.8130541
0.8201699
0.8197828
0.8196164
0.819615
0.8196155
0.8196109
0.8175449
0.8244538
0.8239799
0.8237132
0.8236349
0.8237598
0.8241097
0.8235168
0.8218077
0.8274994
0.827042
0.8267626
0.8266855
0.8268145
0.8273035
0.8270854
0.8266535
0.8252297
0.8296228
0.8291719
0.8288893
0.8287923
0.8289109
0.8293724
0.8292836
0.8291645
0.8288458
0.8276177
0.830947
0.8304874
0.8301837
0.8300568
0.8301265
0.8305351
0.8304099
0.8303677
0.8303038
0.8300485
0.8289714
0.8021337
0.8008081
0.7996313
0.7986694
0.7979713
0.7974817
0.7970325
0.7951461
0.8034494
0.8021374
0.8009629
0.8000013
0.7993033
0.7989003
0.7986777
0.7984476
0.7965148
0.8046954
0.8033935
0.8022167
0.8012464
0.8005453
0.8001381
0.8000331
0.8000514
0.7999821
0.7980194
0.8059194
0.8046336
0.8034622
0.8024916
0.8017841
0.8013811
0.8012719
0.8014347
0.8016272
0.8016002
0.7998443
0.8071513
0.8058906
0.804738
0.8037803
0.8030807
0.802676
0.8025806
0.8027436
0.803107
0.8033743
0.8032413
0.8009522
0.8084041
0.8071784
0.8060589
0.8051296
0.8044502
0.8040599
0.8039676
0.8041594
0.8045422
0.8050156
0.8052149
0.8045353
0.8023509
0.8096763
0.8084938
0.8074205
0.8065327
0.8058867
0.8055191
0.8054477
0.8056559
0.8061022
0.8066466
0.8071124
0.8068501
0.8062547
0.804176
0.8109527
0.80982
0.8088014
0.8079639
0.8073584
0.807022
0.8069757
0.8072245
0.8077341
0.8084319
0.8090791
0.8091503
0.8090224
0.8085489
0.8065787
0.8122078
0.8111267
0.810165
0.8093784
0.8088136
0.8085074
0.8084894
0.8087802
0.8093954
0.8103118
0.8113693
0.8116968
0.8119483
0.8119622
0.8116025
0.8099144
0.813407
0.812372
0.8114573
0.8107117
0.8101774
0.8098923
0.8098905
0.8102119
0.8109208
0.81217
0.8143531
0.8150696
0.8155038
0.8157903
0.8158449
0.8157133
0.8133173
0.8209458
0.8205258
0.820337
0.8202935
0.8203818
0.8206042
0.8198287
0.8177866
0.8251265
0.8246249
0.8243113
0.8241928
0.8242565
0.8246511
0.8243037
0.8237257
0.8220373
0.8281216
0.8276322
0.8273125
0.8271747
0.8272447
0.8276462
0.8274832
0.8272764
0.8268589
0.8254537
0.8302227
0.829744
0.8294209
0.8292731
0.8293191
0.8297008
0.8295422
0.8294627
0.8293549
0.8290502
0.8278858
0.8315472
0.8310629
0.8307256
0.8305514
0.8305621
0.8308843
0.8306974
0.8305803
0.8305475
0.8304948
0.8302963
0.829244
0.8035358
0.8022525
0.8011118
0.8001809
0.7995101
0.7991359
0.7989624
0.7988161
0.7968833
0.8048097
0.8035392
0.8024023
0.8014706
0.8008045
0.8004337
0.8003817
0.8005007
0.8006134
0.7988103
0.8060179
0.8047557
0.8036159
0.802677
0.8019988
0.8016255
0.801556
0.8017878
0.8021018
0.8022628
0.8006287
0.8072064
0.8059579
0.804822
0.8038814
0.8031977
0.8028089
0.8027338
0.8029285
0.8033465
0.8036939
0.8036529
0.8013785
0.8084041
0.8071784
0.8060589
0.8051296
0.8044502
0.8040599
0.8039676
0.8041594
0.8045422
0.8050156
0.8052149
0.8045353
0.8023509
0.8096242
0.8084304
0.8073416
0.8064379
0.8057773
0.8053955
0.8053067
0.8054878
0.8058884
0.8063636
0.8067452
0.8064167
0.8057596
0.8036676
0.8108646
0.8097115
0.8086656
0.807801
0.807171
0.8068111
0.8067355
0.8069353
0.8073557
0.8079034
0.8083567
0.8082847
0.8080206
0.8074302
0.8054234
0.8121112
0.8110047
0.8100107
0.8091935
0.8086021
0.8082711
0.808221
0.808452
0.8089401
0.8095962
0.8102317
0.8102972
0.8103346
0.8101694
0.8096659
0.8079086
0.813338
0.812281
0.8113408
0.8105723
0.8100194
0.8097178
0.8096941
0.8099688
0.8105512
0.8114277
0.8124232
0.8127403
0.8129663
0.8131161
0.8130392
0.812767
0.8101842
0.8145123
0.8134984
0.8126036
0.8118737
0.8113503
0.8110685
0.8110614
0.8113656
0.8120435
0.8132362
0.8153294
0.8159863
0.8163911
0.8166358
0.8167975
0.8169102
0.815947
0.8135788
0.8217305
0.8212892
0.8210589
0.8209855
0.8210241
0.8213152
0.8208068
0.8200468
0.8180286
0.8258199
0.825292
0.8249448
0.8247728
0.8247885
0.8251064
0.8248346
0.8244989
0.823936
0.8222682
0.8287639
0.8282504
0.827894
0.8277103
0.8277131
0.8280426
0.8278177
0.8276642
0.827469
0.827066
0.8257267
0.8308423
0.8303405
0.8299855
0.8297924
0.8297819
0.83008
0.8298638
0.8297134
0.8296434
0.8295469
0.8292995
0.8281608
0.8321642
0.83166
0.8312944
0.8310823
0.8310407
0.8312943
0.8310407
0.8308611
0.8307522
0.8307289
0.8307278
0.8305503
0.8294521
0.8048932
0.8036504
0.802546
0.8016439
0.8010029
0.8006574
0.8006428
0.8008462
0.8011498
0.7996977
0.8061286
0.8048966
0.8037951
0.8028932
0.8022478
0.8019071
0.8018828
0.8022001
0.8026932
0.803196
0.8019935
0.8073019
0.8060762
0.8049707
0.8040604
0.8034045
0.8030429
0.8030034
0.8032581
0.8037868
0.804317
0.8045057
0.8023101
0.8084576
0.8072437
0.8061403
0.8052274
0.8045632
0.8041878
0.8041139
0.8043351
0.8047665
0.8053153
0.8056043
0.8049927
0.8028257
0.8096242
0.8084304
0.8073416
0.8064379
0.8057773
0.8053955
0.8053067
0.8054878
0.8058884
0.8063636
0.8067452
0.8064167
0.8057596
0.8036676
0.8108139
0.8096497
0.8085888
0.807709
0.807065
0.8066915
0.8065992
0.8067733
0.8071506
0.8076327
0.808008
0.807875
0.8075508
0.8069079
0.8048974
0.8120253
0.8108989
0.8098785
0.8090351
0.8084201
0.8080664
0.807988
0.8081722
0.8085747
0.8090879
0.8095394
0.8094722
0.8093855
0.8091076
0.8085135
0.8067509
0.8132436
0.8121619
0.8111904
0.8103923
0.8098137
0.8094879
0.8094332
0.8096503
0.8101101
0.8107364
0.8113276
0.8113977
0.8114248
0.8114143
0.8112013
0.8108225
0.8081792
0.8144448
0.8134095
0.8124899
0.8117378
0.8111963
0.8108986
0.8108703
0.8111291
0.8116847
0.8125171
0.8134653
0.8137424
0.813956
0.8140787
0.8141307
0.8141137
0.8130036
0.8104521
0.8155948
0.8146017
0.8137246
0.8130099
0.8124962
0.8122181
0.8122059
0.812495
0.8131436
0.8142881
0.8162938
0.8169057
0.817258
0.8174753
0.817595
0.817801
0.8171267
0.8161793
0.8138386
0.8225261
0.8220627
0.8218036
0.8216827
0.8216853
0.8219129
0.8215064
0.8210098
0.8202654
0.818271
0.8265274
0.8259803
0.8256015
0.8253901
0.825346
0.8256031
0.8252814
0.8250193
0.8246953
0.8241475
0.8225493
0.8294226
0.8288891
0.8285043
0.828279
0.8282302
0.8284813
0.8282071
0.8279905
0.8278467
0.827663
0.8273184
0.8260067
0.8314773
0.8309569
0.8305752
0.8303459
0.8302851
0.8305169
0.830237
0.8300281
0.829886
0.8298256
0.8297811
0.8295551
0.8283708
0.8327943
0.8322741
0.8318853
0.8316411
0.831557
0.8317497
0.8314453
0.8311984
0.8310261
0.8309256
0.8309501
0.8309666
0.830744
0.829594
0.8062095
0.8050041
0.8039339
0.8030604
0.8024387
0.8021202
0.802128
0.8025134
0.8031887
0.8041944
0.8045808
0.8074094
0.8062127
0.805144
0.8042692
0.8036444
0.8033128
0.8033135
0.8036439
0.8043332
0.8051905
0.8059043
0.8039693
0.8085505
0.8073585
0.8062843
0.8054005
0.8047628
0.8044132
0.8043719
0.8046482
0.8051799
0.8058989
0.8064096
0.8059604
0.8038692
0.8096763
0.8084938
0.8074205
0.8065327
0.8058867
0.8055191
0.8054477
0.8056559
0.8061022
0.8066466
0.8071124
0.8068501
0.8062547
0.804176
0.8108139
0.8096497
0.8085888
0.807709
0.807065
0.8066915
0.8065992
0.8067733
0.8071506
0.8076327
0.808008
0.807875
0.8075508
0.8069079
0.8048974
0.8119758
0.8108387
0.8098038
0.8089456
0.8083171
0.8079503
0.807856
0.8080154
0.8083767
0.8088277
0.8092054
0.8090822
0.8089407
0.8086113
0.8079758
0.8062236
0.8131597
0.8120587
0.8110615
0.810238
0.8096366
0.8092889
0.8092069
0.8093787
0.8097564
0.8102454
0.8106611
0.8106066
0.8105192
0.8104071
0.8101057
0.8096622
0.8070214
0.8143525
0.8132931
0.8123431
0.8115622
0.8109958
0.8106747
0.8106163
0.8108193
0.8112565
0.8118474
0.8124067
0.8124491
0.8124769
0.8124522
0.8123845
0.8122645
0.8110578
0.8084484
0.8155288
0.8145147
0.8136135
0.8128772
0.812346
0.8120523
0.8120195
0.8122645
0.8127945
0.8135902
0.8144887
0.8147382
0.8149119
0.8150209
0.8150441
0.8151408
0.814332
0.8132388
0.8107183
0.8166574
0.8156823
0.8148229
0.8141215
0.8136175
0.8133424
0.8133261
0.8136012
0.8142236
0.8153234
0.8172531
0.8178192
0.8181329
0.818301
0.8183937
0.8185496
0.8180049
0.8173418
0.8164102
0.8140967
0.823327
0.822848
0.8225602
0.8224054
0.8223557
0.8225364
0.822095
0.821698
0.8212132
0.8204844
0.8185645
0.8272461
0.8266832
0.8262804
0.8260323
0.8259434
0.8261299
0.8257708
0.8254574
0.8252051
0.8248929
0.824405
0.8228376
0.8300937
0.8295444
0.8291357
0.8288777
0.8287823
0.8289721
0.8286398
0.8283729
0.8281648
0.8280306
0.8278996
0.8275771
0.8262205
0.8321241
0.8315889
0.8311853
0.8309254
0.8308238
0.8309967
0.8306686
0.8303952
0.8301938
0.8300601
0.8300478
0.830021
0.82975
0.8285139
0.8334348
0.8329015
0.8324937
0.8322227
0.8321024
0.832245
0.831896
0.8315977
0.8313574
0.8311925
0.831137
0.8311767
0.8311485
0.830876
0.8296669
0.8129361
0.8074878
0.8063169
0.8052783
0.8044306
0.8038284
0.8035174
0.8035461
0.8039379
0.8047887
0.8061228
0.808356
0.8070129
0.8086549
0.8074909
0.8064523
0.8056025
0.8049945
0.8046731
0.8046689
0.8050145
0.8056945
0.8067173
0.8077275
0.8076004
0.8057201
0.8097666
0.8086054
0.8075603
0.8067005
0.8060798
0.8057367
0.8056962
0.8059557
0.8064964
0.807199
0.8078718
0.8077655
0.8073119
0.8052939
0.8108646
0.8097115
0.8086656
0.807801
0.807171
0.8068111
0.8067355
0.8069353
0.8073557
0.8079034
0.8083567
0.8082847
0.8080206
0.8074302
0.8054234
0.8119758
0.8108387
0.8098038
0.8089456
0.8083171
0.8079503
0.807856
0.8080154
0.8083767
0.8088277
0.8092054
0.8090822
0.8089407
0.8086113
0.8079758
0.8062236
0.8131114
0.812
0.8109887
0.8101509
0.8095364
0.809176
0.8090786
0.8092266
0.8095647
0.809994
0.8103396
0.8102328
0.8100951
0.8099364
0.8095938
0.8091206
0.8064939
0.8142705
0.8131923
0.8122173
0.8114117
0.8108232
0.8104809
0.810396
0.8105553
0.810913
0.8113719
0.8117628
0.8116872
0.8116081
0.8114902
0.811344
0.8111589
0.8098962
0.8072908
0.8154384
0.814401
0.8134701
0.8127057
0.8121503
0.811834
0.811772
0.8119628
0.812378
0.8129401
0.8134634
0.8134887
0.813487
0.8134598
0.8133744
0.8133822
0.8124808
0.8112921
0.8087163
0.8165927
0.8155972
0.8147142
0.8139918
0.8134707
0.8131805
0.8131442
0.8133764
0.8138835
0.8146449
0.8155017
0.8157203
0.8158665
0.8159361
0.8159447
0.8160039
0.815346
0.8145488
0.8134724
0.8109828
0.8176994
0.8167431
0.8158988
0.815211
0.8147152
0.8144436
0.8144232
0.8146859
0.8152843
0.816344
0.8182037
0.8187321
0.8190065
0.819139
0.8191841
0.8193071
0.8187436
0.8182076
0.8175557
0.8166398
0.814407
0.8241318
0.8236396
0.8233303
0.8231424
0.8230546
0.8231741
0.8227108
0.8222775
0.8218899
0.8214169
0.8207499
0.8188657
0.8279727
0.8273977
0.8269746
0.8266981
0.8265677
0.8266999
0.8262913
0.8259396
0.8256346
0.825392
0.8251335
0.824669
0.8230578
0.8307742
0.8302124
0.8297843
0.8294985
0.8293658
0.8295004
0.829125
0.8287994
0.82854
0.8283403
0.8282548
0.828142
0.8277745
0.8263664
0.8327802
0.832233
0.8318115
0.8315262
0.8313898
0.8315143
0.8311436
0.8308215
0.8305549
0.8303608
0.8302723
0.8302754
0.8302039
0.8298828
0.8285874
0.8340841
0.8335396
0.8331158
0.8328225
0.8326718
0.832771
0.8323869
0.8320435
0.8317513
0.8315178
0.8313956
0.8313535
0.8313493
0.8312724
0.8309437
0.8180594
0.8157264
0.8134604
0.8087311
0.807592
0.8065824
0.8057587
0.8051723
0.8048702
0.8048921
0.8052934
0.8061249
0.8075922
0.8100369
0.8104401
0.808904
0.8098682
0.8087341
0.8077233
0.8068963
0.8063041
0.8059879
0.8059824
0.8063071
0.806987
0.8079758
0.8091166
0.8093144
0.8091108
0.8072541
0.8109527
0.80982
0.8088014
0.8079639
0.8073584
0.807022
0.8069757
0.8072245
0.8077341
0.8084319
0.8090791
0.8091503
0.8090224
0.8085489
0.8065787
0.8120253
0.8108989
0.8098785
0.8090351
0.8084201
0.8080664
0.807988
0.8081722
0.8085747
0.8090879
0.8095394
0.8094722
0.8093855
0.8091076
0.8085135
0.8067509
0.8131114
0.812
0.8109887
0.8101509
0.8095364
0.809176
0.8090786
0.8092266
0.8095647
0.809994
0.8103396
0.8102328
0.8100951
0.8099364
0.8095938
0.8091206
0.8064939
0.8142232
0.8131349
0.8121463
0.8113268
0.8107256
0.810371
0.8102711
0.8104074
0.810727
0.8111284
0.8114522
0.8113273
0.8112014
0.8110411
0.810858
0.810642
0.8093539
0.8067634
0.8153581
0.8143023
0.8133472
0.8125589
0.811982
0.8116451
0.8115573
0.8117057
0.812044
0.8124785
0.8128397
0.8127526
0.81265
0.8125367
0.8123801
0.8123312
0.8113734
0.8101293
0.8075593
0.8165042
0.8154858
0.8145739
0.8138242
0.8132796
0.8129674
0.8129026
0.8130821
0.8134778
0.8140127
0.8145067
0.8145101
0.8144898
0.8144319
0.8143418
0.8143216
0.8135852
0.812696
0.8115251
0.8089829
0.817636
0.8166598
0.8157923
0.8150841
0.8145717
0.8142853
0.8142454
0.8144664
0.8149526
0.8156833
0.8165015
0.8166957
0.8168118
0.8168544
0.8168241
0.8168626
0.8161989
0.8155498
0.8147643
0.8137046
0.8113005
0.8187247
0.8177834
0.8169552
0.8162787
0.8157917
0.8155226
0.815499
0.81575
0.8163269
0.8173498
0.8191463
0.8196404
0.8198831
0.8199798
0.8199909
0.820062
0.8194927
0.8189364
0.818409
0.8177682
0.8169158
0.8147252
0.8249381
0.8244359
0.824108
0.8238946
0.8237704
0.8238441
0.8233418
0.8228855
0.8224602
0.8220822
0.8216638
0.821022
0.8190958
0.8287049
0.8281204
0.8276811
0.8273803
0.8272171
0.8272997
0.8268557
0.8264537
0.8261094
0.8258128
0.8256195
0.8253799
0.8248704
0.823208
0.8314617
0.83089
0.8304462
0.8301374
0.8299727
0.8300622
0.8296484
0.8292792
0.8289603
0.8287084
0.8285543
0.8284845
0.8283269
0.827909
0.8264413
0.833444
0.8328866
0.8324502
0.8321436
0.8319781
0.8320607
0.8316567
0.8312916
0.8309757
0.8307158
0.8305646
0.8304897
0.8304488
0.8303284
0.8299509
0.8347405
0.8341865
0.8337489
0.8334367
0.8332601
0.8333225
0.8329089
0.83253
0.8321923
0.8319063
0.8317134
0.8316034
0.8315184
0.8314668
0.8313359
0.8216006
0.820315
0.8183131
0.8169817
0.8161839
0.8142417
0.8099425
0.8088323
0.8078496
0.8070478
0.8064763
0.8061785
0.8061974
0.806575
0.8073974
0.8088088
0.8113036
0.8119937
0.8120713
0.8104515
0.8110517
0.8099453
0.8089598
0.808154
0.807576
0.8072654
0.8072525
0.8075634
0.8082056
0.8091754
0.8102657
0.8106167
0.8107242
0.810441
0.8085863
0.8121112
0.8110047
0.8100107
0.8091935
0.8086021
0.8082711
0.808221
0.808452
0.8089401
0.8095962
0.8102317
0.8102972
0.8103346
0.8101694
0.8096659
0.8079086
0.8131597
0.8120587
0.8110615
0.810238
0.8096366
0.8092889
0.8092069
0.8093787
0.8097564
0.8102454
0.8106611
0.8106066
0.8105192
0.8104071
0.8101057
0.8096622
0.8070214
0.8142232
0.8131349
0.8121463
0.8113268
0.8107256
0.810371
0.8102711
0.8104074
0.810727
0.8111284
0.8114522
0.8113273
0.8112014
0.8110411
0.810858
0.810642
0.8093539
0.8067634
0.8153118
0.8142463
0.8132778
0.812476
0.8118867
0.8115379
0.8114356
0.8115617
0.811863
0.8122422
0.8125389
0.8124048
0.8122582
0.8121057
0.811916
0.8118399
0.8108556
0.8095864
0.8070321
0.8164256
0.8153892
0.8144537
0.8136807
0.8131152
0.8127829
0.8126931
0.8128314
0.8131525
0.8135638
0.8139014
0.8137971
0.8136811
0.8135425
0.8133875
0.8133167
0.8125322
0.811587
0.8103615
0.8078267
0.8175492
0.8165506
0.815655
0.8149202
0.8143848
0.814077
0.8140094
0.8141791
0.8145569
0.8150676
0.8155342
0.8155213
0.8154784
0.8154011
0.8152794
0.8152472
0.8145143
0.8137871
0.8129101
0.811757
0.8093037
0.8186625
0.8177016
0.8168509
0.8161544
0.8156512
0.8153677
0.8153252
0.8155354
0.816003
0.8167055
0.8174895
0.8176612
0.8177538
0.8177673
0.8177108
0.817706
0.817049
0.8163925
0.8157523
0.8149783
0.8139837
0.8116265
0.8197306
0.8188072
0.8179914
0.8173275
0.8168473
0.8165816
0.8165543
0.8167951
0.8173519
0.8183414
0.8200801
0.8205441
0.8207583
0.8208266
0.8208036
0.8208374
0.8202404
0.8196771
0.8191279
0.8186091
0.8180238
0.8171988
0.8149683
0.8257443
0.8252342
0.8248914
0.8246559
0.8245032
0.8245339
0.8240059
0.8235098
0.8230605
0.8226433
0.8223152
0.8219168
0.8212297
0.8192528
0.8294406
0.8288489
0.8283965
0.8280758
0.8278844
0.8279268
0.8274504
0.8270124
0.826617
0.8262802
0.8260298
0.8258526
0.8255679
0.8250077
0.8232853
0.8321549
0.8315747
0.831118
0.8307901
0.8305988
0.8306493
0.8302058
0.8297976
0.8294346
0.8291225
0.8289137
0.8287735
0.8286595
0.8284527
0.8279781
0.8341141
0.8335481
0.8330987
0.8327742
0.8325841
0.8326311
0.8321991
0.8318003
0.8314409
0.8311311
0.830912
0.8307732
0.8306552
0.8305667
0.8303922
0.8354026
0.8348408
0.8343912
0.8340623
0.8338637
0.8338943
0.8334567
0.8330481
0.8326744
0.8323423
0.8320952
0.8319136
0.8317616
0.8316305
0.8315269
0.8238954
0.8235123
0.8217987
0.8213122
0.820543
0.8187856
0.8178928
0.8174098
0.8168708
0.8151508
0.811124
0.8100409
0.8090826
0.8083011
0.807743
0.8074501
0.8074607
0.8078219
0.8086005
0.8099732
0.8123544
0.8131575
0.8135212
0.8134168
0.8117584
0.8122078
0.8111267
0.810165
0.8093784
0.8088136
0.8085074
0.8084894
0.8087802
0.8093954
0.8103118
0.8113693
0.8116968
0.8119483
0.8119622
0.8116025
0.8099144
0.8132436
0.8121619
0.8111904
0.8103923
0.8098137
0.8094879
0.8094332
0.8096503
0.8101101
0.8107364
0.8113276
0.8113977
0.8114248
0.8114143
0.8112013
0.8108225
0.8081792
0.8142705
0.8131923
0.8122173
0.8114117
0.8108232
0.8104809
0.810396
0.8105553
0.810913
0.8113719
0.8117628
0.8116872
0.8116081
0.8114902
0.811344
0.8111589
0.8098962
0.8072908
0.8153118
0.8142463
0.8132778
0.812476
0.8118867
0.8115379
0.8114356
0.8115617
0.811863
0.8122422
0.8125389
0.8124048
0.8122582
0.8121057
0.811916
0.8118399
0.8108556
0.8095864
0.8070321
0.8163802
0.8153343
0.8143859
0.8135997
0.8130222
0.8126783
0.8125744
0.812691
0.8129763
0.813334
0.8136094
0.8134603
0.8133026
0.8131273
0.812942
0.8128473
0.81204
0.8110684
0.8098182
0.8072999
0.817472
0.8164561
0.8155374
0.8147798
0.814224
0.8138968
0.8138048
0.8139343
0.8142396
0.8146305
0.8149457
0.8148294
0.8146951
0.8145417
0.8143599
0.8142824
0.8135075
0.8127324
0.8117998
0.8105928
0.808149
0.8185773
0.8175946
0.8167164
0.8159939
0.8154683
0.8151639
0.8150943
0.8152546
0.8156166
0.8161052
0.8165477
0.8165196
0.8164599
0.8163597
0.8162183
0.8161491
0.8154313
0.814706
0.813988
0.8131231
0.8120361
0.809633
0.8196695
0.8187269
0.8178891
0.8172057
0.8167096
0.8164299
0.8163841
0.8165852
0.8170352
0.8177125
0.8184652
0.8186176
0.8186888
0.8186799
0.8185954
0.8185609
0.8178851
0.8172342
0.8165849
0.8159534
0.8152355
0.8142699
0.8118756
0.8207234
0.8198116
0.8190113
0.8183564
0.8178846
0.8176207
0.8175912
0.8178218
0.8183604
0.8193188
0.8210048
0.8214418
0.8216315
0.8216745
0.821625
0.8216221
0.8210094
0.8204176
0.8198604
0.8193183
0.8188498
0.8182857
0.8174148
0.8151341
0.8265489
0.8260331
0.8256779
0.8254243
0.825247
0.8252433
0.8246904
0.824168
0.8236781
0.8232358
0.8228652
0.8225539
0.8221097
0.8213712
0.8193336
0.8301788
0.8295812
0.8291182
0.828781
0.8285662
0.8285737
0.8280729
0.827602
0.8271701
0.8267814
0.8264882
0.826252
0.8260303
0.8256959
0.8250782
0.8328524
0.8322654
0.8317975
0.8314535
0.8312397
0.8312571
0.8307888
0.8303505
0.829948
0.8295911
0.8293201
0.8291239
0.8289404
0.8287785
0.8285172
0.834789
0.8342159
0.8337554
0.8334152
0.833204
0.8332204
0.8327657
0.8323387
0.8319451
0.8315914
0.8313207
0.8311129
0.830932
0.8307678
0.8306271
0.8360689
0.8355008
0.8350411
0.8346976
0.8344794
0.8344825
0.8340252
0.8335921
0.8331883
0.8328199
0.8325253
0.8322886
0.8320659
0.8318691
0.8316879
0.8250309
0.8255934
0.8240789
0.824333
0.8236941
0.8221885
0.8220048
0.8215254
0.8209694
0.8194405
0.8186516
0.8182977
0.8180517
0.8176766
0.8161255
0.8122784
0.81122
0.8102845
0.8095215
0.8089759
0.8086868
0.8086914
0.8090306
0.8097767
0.8110802
0.8133728
0.8141246
0.814603
0.8147776
0.8145638
0.8130541
0.813338
0.812281
0.8113408
0.8105723
0.8100194
0.8097178
0.8096941
0.8099688
0.8105512
0.8114277
0.8124232
0.8127403
0.8129663
0.8131161
0.8130392
0.812767
0.8101842
0.8143525
0.8132931
0.8123431
0.8115622
0.8109958
0.8106747
0.8106163
0.8108193
0.8112565
0.8118474
0.8124067
0.8124491
0.8124769
0.8124522
0.8123845
0.8122645
0.8110578
0.8084484
0.8153581
0.8143023
0.8133472
0.8125589
0.811982
0.8116451
0.8115573
0.8117057
0.812044
0.8124785
0.8128397
0.8127526
0.81265
0.8125367
0.8123801
0.8123312
0.8113734
0.8101293
0.8075593
0.8163802
0.8153343
0.8143859
0.8135997
0.8130222
0.8126783
0.8125744
0.812691
0.8129763
0.813334
0.8136094
0.8134603
0.8133026
0.8131273
0.812942
0.8128473
0.81204
0.8110684
0.8098182
0.8072999
0.8174276
0.8164023
0.8154709
0.8147005
0.8141331
0.8137945
0.8136888
0.8137973
0.8140678
0.8144067
0.8146618
0.8145024
0.8143285
0.8141405
0.8139307
0.8138317
0.813037
0.8122393
0.8112805
0.8100492
0.8076229
0.8185017
0.8175019
0.8166011
0.8158564
0.815311