/*--------------------------------*- C++ -*----------------------------------*\
| =========                 |                                                 |
| \\      /  F ield         | OpenFOAM: The Open Source CFD Toolbox           |
|  \\    /   O peration     | Version:  2306                                  |
|   \\  /    A nd           | Website:  www.openfoam.com                      |
|    \\/     M anipulation  |                                                 |
\*---------------------------------------------------------------------------*/
FoamFile
{
    version     2.0;
    format      ascii;
    arch        "LSB;label=32;scalar=64";
    class       volScalarField;
    location    "0.3/air";
    object      X.O2;
}
// * * * * * * * * * * * * * * * * * * * * * * * * * * * * * * * * * * * * * //

dimensions      [0 0 0 0 0 0 0];

internalField   nonuniform List<scalar> 
16000
(
0.2073464
0.2073617
0.2065032
0.2073361
0.2073802
0.206557
0.2073584
0.2053603
0.2064295
0.2072938
0.2073948
0.2066253
0.2073837
0.2054524
0.2065045
0.2073272
0.2038772
0.205243
0.2062334
0.2071904
0.2074026
0.2066821
0.2074023
0.2055785
0.2065931
0.2073637
0.2039738
0.2053629
0.206342
0.2072385
0.202338
0.2037499
0.2049503
0.2058553
0.2069809
0.2074026
0.2067134
0.2074117
0.2056901
0.2066633
0.2073888
0.2041062
0.2055204
0.206467
0.2072909
0.2024355
0.2038751
0.2051033
0.2060053
0.2070488
0.2008086
0.2022094
0.2034336
0.2044309
0.2052308
0.2065968
0.1749691
0.2073948
0.2067134
0.2074117
0.2057542
0.2067009
0.2074009
0.204224
0.2056564
0.2065633
0.2073269
0.2025691
0.2040393
0.2053028
0.2061839
0.2071256
0.200904
0.2023353
0.2035924
0.2046162
0.2054239
0.2066902
0.1993147
0.2006819
0.2018908
0.2028743
0.2036356
0.2042916
0.205937
0.1761046
0.1733746
0.1747899
0.2073802
0.2066821
0.2074023
0.2057542
0.2067009
0.2074009
0.2042919
0.2057333
0.2066138
0.2073448
0.2026878
0.2041817
0.2054736
0.2063215
0.2071819
0.2010347
0.2025003
0.2037979
0.2048555
0.2056602
0.2068039
0.1994072
0.2008049
0.202049
0.2030635
0.203853
0.2045296
0.2060661
0.1978663
0.1991919
0.2003687
0.2013306
0.2020287
0.2025183
0.2029675
0.2048539
0.1783994
0.1744066
0.1759211
0.1727233
0.1732078
0.1744321
0.2073617
0.2066253
0.2073837
0.2056901
0.2066633
0.2073888
0.2042919
0.2057333
0.2066138
0.2073448
0.2027563
0.2042628
0.2055698
0.2063933
0.207211
0.2011511
0.2026434
0.2039742
0.2050623
0.2058512
0.2068935
0.199534
0.2009662
0.2022535
0.2033088
0.2041344
0.204827
0.2062351
0.1979556
0.1993111
0.2005226
0.2015164
0.202243
0.2027672
0.2032575
0.2050499
0.1964642
0.1977475
0.1988882
0.1998191
0.2004899
0.2008641
0.2010376
0.2011839
0.2031167
0.1819406
0.1764877
0.1782013
0.1736994
0.1742366
0.1755559
0.1723262
0.1725666
0.1728749
0.1738969
0.2073464
0.206557
0.2073584
0.2055785
0.2065931
0.2073637
0.204224
0.2056564
0.2065633
0.2073269
0.2027563
0.2042628
0.2055698
0.2063933
0.207211
0.2012182
0.2027249
0.2040739
0.2051794
0.2059548
0.2069417
0.1996468
0.2011062
0.2024289
0.2035194
0.2043749
0.2050733
0.2063752
0.1980781
0.1994673
0.2007216
0.201757
0.2025231
0.203092
0.2036262
0.2053123
0.1965506
0.1978626
0.1990371
0.1999987
0.2006967
0.2010997
0.2013223
0.2015524
0.2034852
0.1951068
0.1963496
0.197454
0.1983561
0.1989971
0.1993426
0.1993572
0.1991538
0.1988502
0.2003023
0.1870639
0.179685
0.1816869
0.175667
0.1763059
0.1778115
0.1732544
0.1735398
0.173898
0.1750115
0.1719943
0.1721775
0.1722537
0.1723766
0.1731854
0.2065032
0.2073361
0.2054524
0.2065045
0.2073272
0.2041062
0.2055204
0.206467
0.2072909
0.2026878
0.2041817
0.2054736
0.2063215
0.2071819
0.2012182
0.2027249
0.2040739
0.2051794
0.2059548
0.2069417
0.1997118
0.2011858
0.2025281
0.2036385
0.2045102
0.2052093
0.2064526
0.198187
0.1996029
0.2008924
0.2019636
0.2027649
0.2033705
0.203935
0.2055304
0.1966688
0.1980135
0.1992295
0.2002314
0.2009669
0.2014115
0.2016969
0.2020193
0.2039268
0.1951903
0.1964608
0.1975977
0.1985294
0.1991955
0.1995663
0.1996183
0.1994993
0.1993866
0.2011897
0.1937905
0.1949959
0.1960661
0.1969396
0.1975613
0.1978798
0.197872
0.1974866
0.1968113
0.1958056
0.1954192
0.1842736
0.1865396
0.1786878
0.179457
0.1812144
0.1751249
0.1754967
0.1759478
0.1772393
0.1728825
0.173103
0.173222
0.1733929
0.1742908
0.1716109
0.1718523
0.1718805
0.1717853
0.1717139
0.1721554
0.2053603
0.2064295
0.2072938
0.2039738
0.2053629
0.206342
0.2072385
0.2025691
0.2040393
0.2053028
0.2061839
0.2071256
0.2011511
0.2026434
0.2039742
0.2050623
0.2058512
0.2068935
0.1997118
0.2011858
0.2025281
0.2036385
0.2045102
0.2052093
0.2064526
0.1982497
0.19968
0.200989
0.2020803
0.2029019
0.2035274
0.2041066
0.2056506
0.196774
0.1981443
0.1993945
0.2004312
0.2011999
0.2016822
0.202019
0.2024078
0.2042694
0.1953046
0.1966065
0.1977833
0.1987536
0.1994547
0.1998619
0.1999669
0.1999486
0.2000179
0.2019806
0.1938714
0.1951034
0.1962049
0.1971068
0.1977522
0.1980929
0.1981172
0.1977999
0.1973068
0.196804
0.1980065
0.1925122
0.1936831
0.1947217
0.1955694
0.1961716
0.1964826
0.1964539
0.1960621
0.1952113
0.1938772
0.191644
0.1929871
0.1830183
0.1838161
0.1857583
0.1779952
0.1784746
0.1790306
0.1805595
0.1746719
0.1749636
0.1751613
0.1754212
0.1764935
0.1724635
0.1727379
0.1728015
0.1727478
0.1727237
0.173251
0.1711834
0.1714745
0.1715685
0.1714359
0.1711624
0.170754
0.1719429
0.2038772
0.205243
0.2062334
0.2071904
0.2024355
0.2038751
0.2051033
0.2060053
0.2070488
0.2010347
0.2025003
0.2037979
0.2048555
0.2056602
0.2068039
0.1996468
0.2011062
0.2024289
0.2035194
0.2043749
0.2050733
0.2063752
0.1982497
0.19968
0.200989
0.2020803
0.2029019
0.2035274
0.2041066
0.2056506
0.1968346
0.1982188
0.1994878
0.2005441
0.2013319
0.2018361
0.2022004
0.2026225
0.204451
0.1954063
0.1967328
0.1979425
0.198946
0.1996783
0.2001184
0.2002703
0.2003295
0.2005191
0.2025137
0.1939821
0.1952443
0.1963841
0.197323
0.1980012
0.1983745
0.198444
0.1982122
0.1978982
0.1977372
0.1993713
0.1925906
0.1937873
0.194856
0.1957308
0.1963556
0.1966872
0.1966865
0.1963561
0.1956668
0.1948095
0.1940957
0.1960307
0.1912689
0.192408
0.1934176
0.1942413
0.1948277
0.1951298
0.1951079
0.1947066
0.1938751
0.1924078
0.1899631
0.1895599
0.191096
0.1821072
0.1825902
0.1831292
0.1848492
0.1774171
0.1777935
0.1780762
0.178437
0.1797498
0.1741811
0.174518
0.1746458
0.174668
0.1747335
0.175432
0.1720048
0.1723247
0.1724499
0.1723517
0.1721193
0.1717573
0.1730365
0.1707034
0.171052
0.1712021
0.1711436
0.1708445
0.1702597
0.1705559
0.1717286
0.202338
0.2037499
0.2049503
0.2058553
0.2069809
0.200904
0.2023353
0.2035924
0.2046162
0.2054239
0.2066902
0.199534
0.2009662
0.2022535
0.2033088
0.2041344
0.204827
0.2062351
0.198187
0.1996029
0.2008924
0.2019636
0.2027649
0.2033705
0.203935
0.2055304
0.1968346
0.1982188
0.1994878
0.2005441
0.2013319
0.2018361
0.2022004
0.2026225
0.204451
0.1954649
0.1968047
0.1980325
0.1990547
0.1998051
0.2002642
0.2004428
0.2005421
0.2007887
0.2027778
0.1940806
0.1953664
0.1965378
0.1975084
0.1982159
0.1986189
0.1987281
0.1985653
0.1983728
0.1983998
0.2001557
0.1926981
0.1939238
0.1950293
0.1959396
0.1965955
0.1969571
0.1969966
0.1967419
0.1962132
0.195683
0.1954943
0.1976899
0.1913451
0.1925091
0.1935477
0.1943975
0.1950055
0.1953269
0.1953311
0.1949855
0.1943055
0.1932827
0.1922725
0.1923996
0.1942799
0.1900575
0.1911677
0.1921504
0.1929522
0.1935237
0.1938215
0.1938026
0.193425
0.1926026
0.1911912
0.1886964
0.1880063
0.1879287
0.1895485
0.1813484
0.1817023
0.1819483
0.1823234
0.1838745
0.1768155
0.1772248
0.1774166
0.1775215
0.1776995
0.1786475
0.1736596
0.1740334
0.1742146
0.1741784
0.1740235
0.1737526
0.1752131
0.1714969
0.1718712
0.1720483
0.1720202
0.1717554
0.1712116
0.1715579
0.1728203
0.1701848
0.1705765
0.1707895
0.1707942
0.1705783
0.1699875
0.1700735
0.1703561
0.1715124
0.2008086
0.2022094
0.2034336
0.2044309
0.2052308
0.2065968
0.1994072
0.2008049
0.202049
0.2030635
0.203853
0.2045296
0.2060661
0.1980781
0.1994673
0.2007216
0.201757
0.2025231
0.203092
0.2036262
0.2053123
0.196774
0.1981443
0.1993945
0.2004312
0.2011999
0.2016822
0.202019
0.2024078
0.2042694
0.1954649
0.1968047
0.1980325
0.1990547
0.1998051
0.2002642
0.2004428
0.2005421
0.2007887
0.2027778
0.1941373
0.1954359
0.1966247
0.1976132
0.1983374
0.1987579
0.1988894
0.1987637
0.1986299
0.1987384
0.200521
0.1927936
0.1940421
0.195178
0.1961186
0.1968023
0.1971911
0.1972662
0.1970715
0.1966535
0.1963061
0.1963471
0.1986215
0.1914495
0.1926415
0.1937157
0.1945995
0.1952372
0.1955868
0.1956281
0.1953518
0.1948201
0.1941011
0.1935904
0.1940396
0.1961308
0.1901318
0.1912659
0.1922767
0.1931037
0.1936959
0.1940121
0.1940176
0.1936929
0.193013
0.1920242
0.1908834
0.1906856
0.1908892
0.1927459
0.188876
0.1899591
0.1909174
0.1916989
0.192257
0.1925499
0.1925393
0.1921781
0.1913995
0.1900268
0.1876456
0.1868425
0.1864788
0.1865832
0.1882416
0.1805872
0.1809622
0.1810954
0.1811965
0.1814519
0.1826964
0.1761974
0.1766312
0.1768654
0.176892
0.1768325
0.1766908
0.1784206
0.1730952
0.1735174
0.1737425
0.1737685
0.1735677
0.1731042
0.1735504
0.1749925
0.170953
0.1713678
0.1716049
0.1716359
0.1714505
0.1708941
0.1710243
0.1713569
0.1726022
0.1696319
0.1700618
0.1703229
0.1703965
0.1702514
0.1697592
0.1698107
0.1698857
0.1701547
0.1712945
0.1993147
0.2006819
0.2018908
0.2028743
0.2036356
0.2042916
0.205937
0.1979556
0.1993111
0.2005226
0.2015164
0.202243
0.2027672
0.2032575
0.2050499
0.1966688
0.1980135
0.1992295
0.2002314
0.2009669
0.2014115
0.2016969
0.2020193
0.2039268
0.1954063
0.1967328
0.1979425
0.198946
0.1996783
0.2001184
0.2002703
0.2003295
0.2005191
0.2025137
0.1941373
0.1954359
0.1966247
0.1976132
0.1983374
0.1987579
0.1988894
0.1987637
0.1986299
0.1987384
0.200521
0.1928487
0.1941094
0.195262
0.1962197
0.1969193
0.197324
0.1974194
0.1972564
0.196893
0.1966257
0.1967587
0.1990478
0.1915424
0.1927563
0.1938597
0.1947726
0.1954368
0.1958122
0.1958861
0.1956649
0.1952335
0.1946847
0.1943957
0.1950073
0.1971743
0.1902334
0.1913946
0.1924397
0.1932995
0.1939202
0.1942633
0.1943038
0.1940443
0.1935036
0.192801
0.1921282
0.1922345
0.1926881
0.1947061
0.1889483
0.1900547
0.1910402
0.191846
0.192424
0.1927346
0.1927475
0.1924366
0.1917944
0.1908246
0.1897343
0.1893833
0.1892758
0.189559
0.1914137
0.1877216
0.18878
0.1897155
0.1904785
0.1910241
0.1913132
0.1913086
0.1909694
0.1902233
0.1889198
0.1866272
0.1858754
0.185397
0.1852224
0.1854362
0.1869459
0.1798301
0.1802172
0.1803836
0.180385
0.1803845
0.1803891
0.1824551
0.1755462
0.1760201
0.1762868
0.1763651
0.1762402
0.1758903
0.1764832
0.1781923
0.1725006
0.172958
0.1732374
0.1733145
0.1731855
0.1726965
0.1729146
0.1733465
0.1747703
0.1703772
0.1708281
0.1711107
0.1712077
0.1710891
0.1706276
0.1707164
0.1708355
0.1711542
0.1723823
0.169053
0.1695126
0.1698163
0.1699432
0.1698735
0.1694649
0.1695901
0.1696323
0.1696962
0.1699515
0.1710286
0.1978663
0.1991919
0.2003687
0.2013306
0.2020287
0.2025183
0.2029675
0.2048539
0.1965506
0.1978626
0.1990371
0.1999987
0.2006967
0.2010997
0.2013223
0.2015524
0.2034852
0.1953046
0.1966065
0.1977833
0.1987536
0.1994547
0.1998619
0.1999669
0.1999486
0.2000179
0.2019806
0.1940806
0.1953664
0.1965378
0.1975084
0.1982159
0.1986189
0.1987281
0.1985653
0.1983728
0.1983998
0.2001557
0.1928487
0.1941094
0.195262
0.1962197
0.1969193
0.197324
0.1974194
0.1972564
0.196893
0.1966257
0.1967587
0.1990478
0.1915959
0.1928216
0.1939411
0.1948704
0.1955498
0.1959401
0.1960324
0.1958406
0.1954578
0.1949844
0.1947851
0.1954647
0.1976491
0.1903237
0.1915062
0.1925795
0.1934673
0.1941133
0.1944809
0.1945523
0.1943441
0.1938978
0.1933534
0.1928876
0.1931499
0.1937453
0.195824
0.1890473
0.19018
0.1911986
0.1920361
0.1926416
0.192978
0.1930243
0.1927755
0.1922659
0.1915681
0.1909209
0.1908497
0.1909776
0.1914511
0.1934213
0.1877922
0.1888733
0.189835
0.1906216
0.1911864
0.1914926
0.1915106
0.1912198
0.1906046
0.1896882
0.1886307
0.1883032
0.1880517
0.1880378
0.1883975
0.1900856
0.186593
0.187628
0.1885427
0.1892883
0.1898226
0.1901077
0.1901095
0.1897881
0.1890792
0.18783
0.1856469
0.1849304
0.1844962
0.1842097
0.1841551
0.1842867
0.1866827
0.1790542
0.1794742
0.179663
0.1797065
0.1796182
0.1793958
0.1801713
0.1822134
0.1748735
0.1753751
0.1756887
0.1758072
0.1757435
0.1753489
0.1756963
0.1762743
0.1779627
0.1718784
0.1723678
0.1726875
0.1728253
0.1727553
0.1723538
0.1725168
0.1727236
0.1731411
0.1745463
0.1697773
0.170256
0.1705791
0.1707269
0.1706809
0.1702992
0.1704578
0.1705373
0.1706451
0.1709498
0.1721142
0.1684528
0.1689371
0.1692744
0.1694486
0.1694379
0.1691157
0.1693026
0.1694197
0.1694525
0.1695052
0.1697037
0.170756
0.1964642
0.1977475
0.1988882
0.1998191
0.2004899
0.2008641
0.2010376
0.2011839
0.2031167
0.1951903
0.1964608
0.1975977
0.1985294
0.1991955
0.1995663
0.1996183
0.1994993
0.1993866
0.2011897
0.1939821
0.1952443
0.1963841
0.197323
0.1980012
0.1983745
0.198444
0.1982122
0.1978982
0.1977372
0.1993713
0.1927936
0.1940421
0.195178
0.1961186
0.1968023
0.1971911
0.1972662
0.1970715
0.1966535
0.1963061
0.1963471
0.1986215
0.1915959
0.1928216
0.1939411
0.1948704
0.1955498
0.1959401
0.1960324
0.1958406
0.1954578
0.1949844
0.1947851
0.1954647
0.1976491
0.1903758
0.1915696
0.1926584
0.1935621
0.1942227
0.1946045
0.1946933
0.1945122
0.1941116
0.1936364
0.1932548
0.1935833
0.1942404
0.1963324
0.1891354
0.1902885
0.1913344
0.192199
0.192829
0.1931889
0.1932645
0.1930647
0.1926443
0.1920966
0.1916433
0.1917153
0.1919794
0.1925698
0.1945766
0.1878888
0.1889953
0.1899893
0.1908065
0.1913979
0.1917289
0.191779
0.191548
0.1910599
0.1904038
0.1897683
0.1897028
0.1896654
0.1898306
0.1903341
0.1920914
0.186662
0.187719
0.1886592
0.1894277
0.1899806
0.1902822
0.1903059
0.1900312
0.1894488
0.1885723
0.1875768
0.1872597
0.1870337
0.1868839
0.1869608
0.187233
0.1898158
0.1854877
0.1865016
0.1873964
0.1881263
0.1886497
0.1889315
0.1889386
0.1886344
0.1879565
0.1867638
0.1846706
0.1840137
0.1836089
0.1833642
0.1832025
0.1830898
0.184053
0.1864212
0.1782695
0.1787108
0.1789411
0.1790145
0.1789759
0.1786848
0.1791932
0.1799532
0.1819714
0.1741801
0.174708
0.1750552
0.1752272
0.1752115
0.1748936
0.1751654
0.1755011
0.176064
0.1777318
0.1712361
0.1717496
0.172106
0.1722897
0.1722869
0.1719574
0.1721823
0.1723358
0.172531
0.172934
0.1742733
0.1691577
0.1696595
0.1700145
0.1702076
0.1702181
0.16992
0.1701362
0.1702866
0.1703566
0.1704531
0.1707005
0.1718392
0.1678358
0.16834
0.1687056
0.1689177
0.1689593
0.1687057
0.1689593
0.1691389
0.1692478
0.1692711
0.1692722
0.1694497
0.1705479
0.1951068
0.1963496
0.197454
0.1983561
0.1989971
0.1993426
0.1993572
0.1991538
0.1988502
0.2003023
0.1938714
0.1951034
0.1962049
0.1971068
0.1977522
0.1980929
0.1981172
0.1977999
0.1973068
0.196804
0.1980065
0.1926981
0.1939238
0.1950293
0.1959396
0.1965955
0.1969571
0.1969966
0.1967419
0.1962132
0.195683
0.1954943
0.1976899
0.1915424
0.1927563
0.1938597
0.1947726
0.1954368
0.1958122
0.1958861
0.1956649
0.1952335
0.1946847
0.1943957
0.1950073
0.1971743
0.1903758
0.1915696
0.1926584
0.1935621
0.1942227
0.1946045
0.1946933
0.1945122
0.1941116
0.1936364
0.1932548
0.1935833
0.1942404
0.1963324
0.1891861
0.1903503
0.1914112
0.192291
0.192935
0.1933085
0.1934008
0.1932267
0.1928494
0.1923673
0.191992
0.192125
0.1924492
0.1930921
0.1951026
0.1879747
0.1891011
0.1901215
0.1909649
0.1915799
0.1919336
0.192012
0.1918278
0.1914253
0.1909121
0.1904606
0.1905278
0.1906145
0.1908924
0.1914865
0.1932491
0.1867564
0.1878381
0.1888096
0.1896077
0.1901863
0.1905121
0.1905668
0.1903497
0.1898899
0.1892636
0.1886724
0.1886023
0.1885752
0.1885857
0.1887987
0.1891775
0.1918208
0.1855552
0.1865905
0.1875101
0.1882622
0.1888037
0.1891014
0.1891297
0.1888709
0.1883153
0.1874829
0.1865347
0.1862576
0.186044
0.1859213
0.1858693
0.1858863
0.1869964
0.1895479
0.1844052
0.1853983
0.1862754
0.1869901
0.1875038
0.1877819
0.1877941
0.187505
0.1868564
0.1857119
0.1837062
0.1830943
0.182742
0.1825247
0.182405
0.182199
0.1828733
0.1838207
0.1861614
0.1774739
0.1779373
0.1781964
0.1783173
0.1783147
0.1780871
0.1784936
0.1789902
0.1797346
0.181729
0.1734726
0.1740197
0.1743985
0.1746099
0.174654
0.1743969
0.1747186
0.1749807
0.1753047
0.1758525
0.1774507
0.1705774
0.1711109
0.1714957
0.171721
0.1717698
0.1715187
0.1717929
0.1720095
0.1721533
0.172337
0.1726816
0.1739933
0.1685227
0.1690431
0.1694248
0.1696541
0.1697149
0.1694831
0.169763
0.1699719
0.170114
0.1701744
0.1702189
0.1704449
0.1716292
0.1672057
0.1677259
0.1681147
0.1683589
0.168443
0.1682503
0.1685547
0.1688016
0.1689739
0.1690744
0.1690499
0.1690334
0.169256
0.170406
0.1937905
0.1949959
0.1960661
0.1969396
0.1975613
0.1978798
0.197872
0.1974866
0.1968113
0.1958056
0.1954192
0.1925906
0.1937873
0.194856
0.1957308
0.1963556
0.1966872
0.1966865
0.1963561
0.1956668
0.1948095
0.1940957
0.1960307
0.1914495
0.1926415
0.1937157
0.1945995
0.1952372
0.1955868
0.1956281
0.1953518
0.1948201
0.1941011
0.1935904
0.1940396
0.1961308
0.1903237
0.1915062
0.1925795
0.1934673
0.1941133
0.1944809
0.1945523
0.1943441
0.1938978
0.1933534
0.1928876
0.1931499
0.1937453
0.195824
0.1891861
0.1903503
0.1914112
0.192291
0.192935
0.1933085
0.1934008
0.1932267
0.1928494
0.1923673
0.191992
0.192125
0.1924492
0.1930921
0.1951026
0.1880242
0.1891613
0.1901962
0.1910544
0.1916829
0.1920497
0.192144
0.1919846
0.1916233
0.1911723
0.1907946
0.1909178
0.1910593
0.1913887
0.1920242
0.1937764
0.1868403
0.1879413
0.1889385
0.189762
0.1903634
0.1907111
0.1907931
0.1906213
0.1902436
0.1897546
0.1893389
0.1893934
0.1894808
0.1895929
0.1898943
0.1903378
0.1929786
0.1856475
0.1867069
0.1876569
0.1884378
0.1890042
0.1893253
0.1893837
0.1891807
0.1887435
0.1881526
0.1875933
0.1875509
0.1875231
0.1875478
0.1876155
0.1877355
0.1889422
0.1915516
0.1844712
0.1854853
0.1863865
0.1871228
0.187654
0.1879477
0.1879805
0.1877355
0.1872055
0.1864098
0.1855113
0.1852618
0.1850881
0.1849791
0.1849559
0.1848592
0.185668
0.1867612
0.1892817
0.1833426
0.1843177
0.1851771
0.1858785
0.1863825
0.1866576
0.1866739
0.1863988
0.1857764
0.1846766
0.1827469
0.1821808
0.1818671
0.181699
0.1816063
0.1814504
0.1819951
0.1826582
0.1835898
0.1859033
0.176673
0.177152
0.1774398
0.1775946
0.1776443
0.1774636
0.177905
0.178302
0.1787868
0.1795156
0.1814355
0.1727539
0.1733168
0.1737196
0.1739677
0.1740566
0.1738701
0.1742292
0.1745426
0.1747949
0.1751071
0.175595
0.1771624
0.1699063
0.1704556
0.1708643
0.1711223
0.1712177
0.1710279
0.1713602
0.1716271
0.1718352
0.1719694
0.1721004
0.1724229
0.1737795
0.1678759
0.1684111
0.1688147
0.1690746
0.1691762
0.1690033
0.1693314
0.1696048
0.1698062
0.1699399
0.1699522
0.169979
0.17025
0.1714861
0.1665652
0.1670985
0.1675063
0.1677773
0.1678976
0.167755
0.168104
0.1684023
0.1686426
0.1688075
0.168863
0.1688233
0.1688515
0.169124
0.1703331
0.1870639
0.1925122
0.1936831
0.1947217
0.1955694
0.1961716
0.1964826
0.1964539
0.1960621
0.1952113
0.1938772
0.191644
0.1929871
0.1913451
0.1925091
0.1935477
0.1943975
0.1950055
0.1953269
0.1953311
0.1949855
0.1943055
0.1932827
0.1922725
0.1923996
0.1942799
0.1902334
0.1913946
0.1924397
0.1932995
0.1939202
0.1942633
0.1943038
0.1940443
0.1935036
0.192801
0.1921282
0.1922345
0.1926881
0.1947061
0.1891354
0.1902885
0.1913344
0.192199
0.192829
0.1931889
0.1932645
0.1930647
0.1926443
0.1920966
0.1916433
0.1917153
0.1919794
0.1925698
0.1945766
0.1880242
0.1891613
0.1901962
0.1910544
0.1916829
0.1920497
0.192144
0.1919846
0.1916233
0.1911723
0.1907946
0.1909178
0.1910593
0.1913887
0.1920242
0.1937764
0.1868886
0.188
0.1890113
0.1898491
0.1904636
0.190824
0.1909214
0.1907734
0.1904353
0.190006
0.1896604
0.1897672
0.1899049
0.1900636
0.1904062
0.1908794
0.1935061
0.1857295
0.1868077
0.1877827
0.1885883
0.1891768
0.1895191
0.189604
0.1894447
0.189087
0.1886281
0.1882372
0.1883128
0.1883919
0.1885098
0.188656
0.1888411
0.1901038
0.1927092
0.1845616
0.185599
0.1865299
0.1872943
0.1878497
0.188166
0.188228
0.1880372
0.187622
0.1870599
0.1865366
0.1865113
0.186513
0.1865402
0.1866256
0.1866178
0.1875192
0.1887079
0.1912837
0.1834073
0.1844028
0.1852858
0.1860082
0.1865293
0.1868195
0.1868558
0.1866236
0.1861165
0.1853551
0.1844983
0.1842797
0.1841335
0.1840639
0.1840553
0.1839961
0.184654
0.1854512
0.1865276
0.1890172
0.1823006
0.1832569
0.1841012
0.184789
0.1852848
0.1855564
0.1855768
0.1853141
0.1847157
0.183656
0.1817963
0.1812679
0.1809935
0.180861
0.1808159
0.1806929
0.1812564
0.1817924
0.1824443
0.1833602
0.185593
0.1758682
0.1763604
0.1766697
0.1768576
0.1769454
0.1768259
0.1772892
0.1777225
0.1781101
0.1785831
0.1792501
0.1811343
0.1720273
0.1726023
0.1730254
0.1733019
0.1734323
0.1733001
0.1737087
0.1740604
0.1743654
0.174608
0.1748665
0.175331
0.1769422
0.1692258
0.1697876
0.1702157
0.1705015
0.1706342
0.1704996
0.170875
0.1712006
0.17146
0.1716597
0.1717452
0.171858
0.1722255
0.1736336
0.1672198
0.167767
0.1681885
0.1684738
0.1686102
0.1684857
0.1688564
0.1691785
0.1694451
0.1696392
0.1697277
0.1697246
0.1697961
0.1701172
0.1714126
0.1659159
0.1664604
0.1668842
0.1671775
0.1673282
0.167229
0.1676131
0.1679565
0.1682487
0.1684822
0.1686044
0.1686465
0.1686507
0.1687276
0.1690563
0.1819406
0.1842736
0.1865396
0.1912689
0.192408
0.1934176
0.1942413
0.1948277
0.1951298
0.1951079
0.1947066
0.1938751
0.1924078
0.1899631
0.1895599
0.191096
0.1901318
0.1912659
0.1922767
0.1931037
0.1936959
0.1940121
0.1940176
0.1936929
0.193013
0.1920242
0.1908834
0.1906856
0.1908892
0.1927459
0.1890473
0.19018
0.1911986
0.1920361
0.1926416
0.192978
0.1930243
0.1927755
0.1922659
0.1915681
0.1909209
0.1908497
0.1909776
0.1914511
0.1934213
0.1879747
0.1891011
0.1901215
0.1909649
0.1915799
0.1919336
0.192012
0.1918278
0.1914253
0.1909121
0.1904606
0.1905278
0.1906145
0.1908924
0.1914865
0.1932491
0.1868886
0.188
0.1890113
0.1898491
0.1904636
0.190824
0.1909214
0.1907734
0.1904353
0.190006
0.1896604
0.1897672
0.1899049
0.1900636
0.1904062
0.1908794
0.1935061
0.1857768
0.1868651
0.1878537
0.1886732
0.1892744
0.189629
0.1897289
0.1895926
0.189273
0.1888716
0.1885478
0.1886727
0.1887986
0.1889589
0.189142
0.189358
0.1906461
0.1932366
0.1846419
0.1856977
0.1866528
0.1874411
0.188018
0.1883549
0.1884427
0.1882943
0.187956
0.1875215
0.1871603
0.1872474
0.18735
0.1874633
0.1876199
0.1876688
0.1886266
0.1898707
0.1924407
0.1834958
0.1845142
0.1854261
0.1861758
0.1867204
0.1870326
0.1870974
0.1869179
0.1865222
0.1859873
0.1854933
0.1854899
0.1855102
0.1855681
0.1856582
0.1856784
0.1864148
0.187304
0.1884749
0.1910171
0.182364
0.1833402
0.1842077
0.1849159
0.1854283
0.1857147
0.1857546
0.1855336
0.1850474
0.1843167
0.1834985
0.1833043
0.1831882
0.1831456
0.1831759
0.1831374
0.1838011
0.1844502
0.1852357
0.1862954
0.1886995
0.1812753
0.1822166
0.1830448
0.1837213
0.1842083
0.1844774
0.184501
0.18425
0.1836731
0.1826502
0.1808537
0.1803596
0.1801169
0.1800202
0.1800091
0.179938
0.1805073
0.1810636
0.181591
0.1822318
0.1830842
0.1852748
0.1750619
0.1755641
0.175892
0.1761054
0.1762296
0.1761559
0.1766582
0.1771145
0.1775398
0.1779178
0.1783362
0.178978
0.1809042
0.1712951
0.1718796
0.1723189
0.1726197
0.1727829
0.1727003
0.1731443
0.1735463
0.1738906
0.1741872
0.1743805
0.1746201
0.1751296
0.176792
0.1685383
0.16911
0.1695538
0.1698626
0.1700273
0.1699378
0.1703516
0.1707208
0.1710397
0.1712916
0.1714457
0.1715155
0.1716731
0.172091
0.1735587
0.166556
0.1671134
0.1675498
0.1678564
0.1680219
0.1679393
0.1683433
0.1687084
0.1690243
0.1692842
0.1694354
0.1695103
0.1695512
0.1696716
0.1700491
0.1652595
0.1658135
0.1662511
0.1665633
0.1667399
0.1666775
0.1670911
0.16747
0.1678077
0.1680937
0.1682866
0.1683966
0.1684816
0.1685332
0.1686641
0.1783994
0.179685
0.1816869
0.1830183
0.1838161
0.1857583
0.1900575
0.1911677
0.1921504
0.1929522
0.1935237
0.1938215
0.1938026
0.193425
0.1926026
0.1911912
0.1886964
0.1880063
0.1879287
0.1895485
0.1889483
0.1900547
0.1910402
0.191846
0.192424
0.1927346
0.1927475
0.1924366
0.1917944
0.1908246
0.1897343
0.1893833
0.1892758
0.189559
0.1914137
0.1878888
0.1889953
0.1899893
0.1908065
0.1913979
0.1917289
0.191779
0.191548
0.1910599
0.1904038
0.1897683
0.1897028
0.1896654
0.1898306
0.1903341
0.1920914
0.1868403
0.1879413
0.1889385
0.189762
0.1903634
0.1907111
0.1907931
0.1906213
0.1902436
0.1897546
0.1893389
0.1893934
0.1894808
0.1895929
0.1898943
0.1903378
0.1929786
0.1857768
0.1868651
0.1878537
0.1886732
0.1892744
0.189629
0.1897289
0.1895926
0.189273
0.1888716
0.1885478
0.1886727
0.1887986
0.1889589
0.189142
0.189358
0.1906461
0.1932366
0.1846882
0.1857537
0.1867222
0.187524
0.1881133
0.1884621
0.1885644
0.1884383
0.188137
0.1877578
0.1874611
0.1875952
0.1877418
0.1878943
0.188084
0.1881601
0.1891444
0.1904136
0.1929679
0.1835744
0.1846108
0.1855463
0.1863193
0.1868848
0.1872171
0.1873069
0.1871686
0.1868475
0.1864362
0.1860986
0.1862029
0.1863189
0.1864575
0.1866125
0.1866833
0.1874678
0.188413
0.1896385
0.1921733
0.1824508
0.1834494
0.184345
0.1850798
0.1856152
0.185923
0.1859906
0.1858209
0.1854431
0.1849324
0.1844658
0.1844787
0.1845216
0.1845989
0.1847206
0.1847528
0.1854857
0.1862129
0.1870899
0.188243
0.1906963
0.1813375
0.1822984
0.1831491
0.1838456
0.1843488
0.1846323
0.1846748
0.1844646
0.183997
0.1832945
0.1825105
0.1823388
0.1822462
0.1822327
0.1822892
0.182294
0.182951
0.1836075
0.1842477
0.1850217
0.1860163
0.1883735
0.1802694
0.1811928
0.1820086
0.1826725
0.1831527
0.1834184
0.1834457
0.1832049
0.1826481
0.1816586
0.1799199
0.1794559
0.1792417
0.1791734
0.1791964
0.1791626
0.1797596
0.1803229
0.1808721
0.1813909
0.1819762
0.1828012
0.1850317
0.1742557
0.1747658
0.1751086
0.1753441
0.1754968
0.1754661
0.1759941
0.1764902
0.1769395
0.1773567
0.1776848
0.1780832
0.1787703
0.1807472
0.1705594
0.1711511
0.1716035
0.1719242
0.1721156
0.1720732
0.1725496
0.1729876
0.173383
0.1737198
0.1739702
0.1741474
0.1744321
0.1749923
0.1767147
0.1678451
0.1684253
0.168882
0.1692099
0.1694012
0.1693507
0.1697942
0.1702024
0.1705654
0.1708775
0.1710863
0.1712265
0.1713405
0.1715473
0.1720219
0.1658859
0.1664519
0.1669013
0.1672258
0.1674159
0.1673689
0.1678009
0.1681997
0.1685591
0.1688689
0.169088
0.1692268
0.1693448
0.1694333
0.1696078
0.1645974
0.1651592
0.1656088
0.1659377
0.1661363
0.1661057
0.1665433
0.1669519
0.1673256
0.1676577
0.1679048
0.1680864
0.1682384
0.1683695
0.1684731
0.1761046
0.1764877
0.1782013
0.1786878
0.179457
0.1812144
0.1821072
0.1825902
0.1831292
0.1848492
0.188876
0.1899591
0.1909174
0.1916989
0.192257
0.1925499
0.1925393
0.1921781
0.1913995
0.1900268
0.1876456
0.1868425
0.1864788
0.1865832
0.1882416
0.1877922
0.1888733
0.189835
0.1906216
0.1911864
0.1914926
0.1915106
0.1912198
0.1906046
0.1896882
0.1886307
0.1883032
0.1880517
0.1880378
0.1883975
0.1900856
0.1867564
0.1878381
0.1888096
0.1896077
0.1901863
0.1905121
0.1905668
0.1903497
0.1898899
0.1892636
0.1886724
0.1886023
0.1885752
0.1885857
0.1887987
0.1891775
0.1918208
0.1857295
0.1868077
0.1877827
0.1885883
0.1891768
0.1895191
0.189604
0.1894447
0.189087
0.1886281
0.1882372
0.1883128
0.1883919
0.1885098
0.188656
0.1888411
0.1901038
0.1927092
0.1846882
0.1857537
0.1867222
0.187524
0.1881133
0.1884621
0.1885644
0.1884383
0.188137
0.1877578
0.1874611
0.1875952
0.1877418
0.1878943
0.188084
0.1881601
0.1891444
0.1904136
0.1929679
0.1836198
0.1846657
0.1856141
0.1864003
0.1869778
0.1873217
0.1874256
0.187309
0.1870237
0.186666
0.1863906
0.1865397
0.1866974
0.1868727
0.187058
0.1871527
0.18796
0.1889316
0.1901818
0.1927001
0.182528
0.1835439
0.1844626
0.1852202
0.185776
0.1861032
0.1861952
0.1860657
0.1857604
0.1853695
0.1850543
0.1851706
0.1853049
0.1854583
0.1856401
0.1857176
0.1864925
0.1872676
0.1882002
0.1894072
0.191851
0.1814227
0.1824054
0.1832836
0.1840061
0.1845317
0.1848361
0.1849057
0.1847454
0.1843834
0.1838948
0.1834523
0.1834804
0.1835401
0.1836403
0.1837817
0.1838509
0.1845687
0.185294
0.186012
0.1868769
0.1879639
0.190367
0.1803305
0.1812731
0.1821109
0.1827943
0.1832904
0.1835701
0.1836159
0.1834148
0.1829648
0.1822875
0.1815348
0.1813824
0.1813112
0.1813201
0.1814046
0.1814391
0.1821149
0.1827658
0.1834151
0.1840466
0.1847645
0.1857301
0.1881244
0.1792766
0.1801884
0.1809887
0.1816436
0.1821154
0.1823793
0.1824088
0.1821782
0.1816396
0.1806812
0.1789952
0.1785582
0.1783685
0.1783255
0.178375
0.1783779
0.1789906
0.1795824
0.1801396
0.1806817
0.1811502
0.1817143
0.1825852
0.1848659
0.1734511
0.1739669
0.1743221
0.1745757
0.174753
0.1747567
0.1753096
0.175832
0.1763219
0.1767642
0.1771348
0.1774461
0.1778903
0.1786288
0.1806664
0.1698212
0.1704188
0.1708818
0.171219
0.1714338
0.1714263
0.1719271
0.172398
0.1728299
0.1732186
0.1735118
0.173748
0.1739697
0.1743041
0.1749218
0.1671476
0.1677346
0.1682025
0.1685465
0.1687603
0.1687429
0.1692112
0.1696495
0.170052
0.1704089
0.1706799
0.1708761
0.1710596
0.1712215
0.1714828
0.165211
0.1657841
0.1662446
0.1665848
0.166796
0.1667796
0.1672343
0.1676613
0.1680549
0.1684086
0.1686793
0.1688871
0.169068
0.1692322
0.1693729
0.1639311
0.1644992
0.1649589
0.1653024
0.1655206
0.1655175
0.1659748
0.1664079
0.1668117
0.1671801
0.1674747
0.1677114
0.1679341
0.1681309
0.1683121
0.1749691
0.1744066
0.1759211
0.175667
0.1763059
0.1778115
0.1779952
0.1784746
0.1790306
0.1805595
0.1813484
0.1817023
0.1819483
0.1823234
0.1838745
0.1877216
0.18878
0.1897155
0.1904785
0.1910241
0.1913132
0.1913086
0.1909694
0.1902233
0.1889198
0.1866272
0.1858754
0.185397
0.1852224
0.1854362
0.1869459
0.186662
0.187719
0.1886592
0.1894277
0.1899806
0.1902822
0.1903059
0.1900312
0.1894488
0.1885723
0.1875768
0.1872597
0.1870337
0.1868839
0.1869608
0.187233
0.1898158
0.1856475
0.1867069
0.1876569
0.1884378
0.1890042
0.1893253
0.1893837
0.1891807
0.1887435
0.1881526
0.1875933
0.1875509
0.1875231
0.1875478
0.1876155
0.1877355
0.1889422
0.1915516
0.1846419
0.1856977
0.1866528
0.1874411
0.188018
0.1883549
0.1884427
0.1882943
0.187956
0.1875215
0.1871603
0.1872474
0.18735
0.1874633
0.1876199
0.1876688
0.1886266
0.1898707
0.1924407
0.1836198
0.1846657
0.1856141
0.1864003
0.1869778
0.1873217
0.1874256
0.187309
0.1870237
0.186666
0.1863906
0.1865397
0.1866974
0.1868727
0.187058
0.1871527
0.18796
0.1889316
0.1901818
0.1927001
0.1825724
0.1835977
0.1845291
0.1852995
0.1858669
0.1862055
0.1863112
0.1862027
0.1859322
0.1855933
0.1853382
0.1854976
0.1856715
0.1858595
0.1860693
0.1861683
0.186963
0.1877607
0.1887195
0.1899508
0.1923771
0.1814983
0.1824981
0.1833989
0.1841436
0.184689