/*--------------------------------*- C++ -*----------------------------------*\
| =========                 |                                                 |
| \\      /  F ield         | OpenFOAM: The Open Source CFD Toolbox           |
|  \\    /   O peration     | Version:  2306                                  |
|   \\  /    A nd           | Website:  www.openfoam.com                      |
|    \\/     M anipulation  |                                                 |
\*---------------------------------------------------------------------------*/
FoamFile
{
    version     2.0;
    format      ascii;
    arch        "LSB;label=32;scalar=64";
    class       volScalarField;
    location    "0.3/phiEA";
    object      phi;
}
// * * * * * * * * * * * * * * * * * * * * * * * * * * * * * * * * * * * * * //

dimensions      [1 2 -3 0 0 -1 0];

internalField   nonuniform List<scalar> 
20000
(
-0.005395615
-0.005544426
-0.004990042
-0.005390445
-0.005874114
-0.005120597
-0.005539167
-0.004567781
-0.004985368
-0.005380355
-0.006449801
-0.005410481
-0.005868678
-0.004683969
-0.005115853
-0.005528904
-0.004198669
-0.004563545
-0.004976232
-0.005365523
-0.007349656
-0.005918213
-0.00644413
-0.004942259
-0.005405597
-0.005858065
-0.004303947
-0.004679674
-0.00510658
-0.005513815
-0.003884253
-0.004194786
-0.004555256
-0.004962788
-0.005346058
-0.008556821
-0.006714353
-0.007343872
-0.005395378
-0.00591315
-0.006433057
-0.004538154
-0.004937845
-0.005396048
-0.005842459
-0.003980896
-0.004300012
-0.004671268
-0.005092931
-0.005494011
-0.003615087
-0.003880661
-0.004187181
-0.004543046
-0.004945131
-0.005325267
-0.009744256
-0.007785013
-0.008551415
-0.006107006
-0.006709234
-0.007332585
-0.004949422
-0.005390814
-0.005903249
-0.00641677
-0.004196006
-0.004534115
-0.004929205
-0.00538199
-0.005821972
-0.003704612
-0.003977258
-0.004292303
-0.004658883
-0.005075004
-0.005472855
-0.00338195
-0.003611743
-0.003873621
-0.004175968
-0.004526997
-0.00492626
-0.005307501
-0.01071215
-0.008839144
-0.009739067
-0.007065114
-0.007780283
-0.008540898
-0.005595938
-0.006102407
-0.006699224
-0.007315991
-0.004573989
-0.004945252
-0.005381879
-0.005888668
-0.006395387
-0.003903957
-0.004192274
-0.0045262
-0.004916473
-0.005363521
-0.005800084
-0.003465438
-0.003701226
-0.003970125
-0.004280937
-0.004642604
-0.005055842
-0.005454732
-0.003177332
-0.00337882
-0.003605183
-0.003863234
-0.004161222
-0.004509837
-0.004910138
-0.005289507
-0.01137904
-0.009698857
-0.01070704
-0.008008619
-0.008834649
-0.009728993
-0.006466972
-0.007060882
-0.00777106
-0.008525476
-0.005168571
-0.005591743
-0.006093402
-0.006684487
-0.007294208
-0.004254415
-0.004570141
-0.004937079
-0.005368706
-0.005869507
-0.006372534
-0.003651398
-0.003900485
-0.004184955
-0.004514527
-0.004899733
-0.005343778
-0.005781239
-0.003255588
-0.003462269
-0.003694581
-0.003959599
-0.004265987
-0.004625196
-0.005039429
-0.005436329
-0.002995573
-0.003174391
-0.003372677
-0.003595499
-0.003849567
-0.004145447
-0.004495179
-0.004893809
-0.005271284
-0.01171667
-0.01029145
-0.01137394
-0.008778074
-0.009694454
-0.01069711
-0.007324795
-0.008004611
-0.008825902
-0.009714248
-0.005970009
-0.00646312
-0.007052616
-0.007757513
-0.008505274
-0.004805967
-0.005164704
-0.005583521
-0.00608013
-0.006665122
-0.00727093
-0.003978452
-0.004250836
-0.00456259
-0.00492502
-0.005351382
-0.005849017
-0.006352748
-0.003429938
-0.00364815
-0.00389367
-0.004174153
-0.00449917
-0.004881828
-0.005326779
-0.005762009
-0.003069219
-0.003252611
-0.003456047
-0.00368477
-0.003945748
-0.004249994
-0.004610287
-0.005022763
-0.005417646
-0.002832487
-0.002992801
-0.003168614
-0.003363602
-0.003582749
-0.00383494
-0.004131975
-0.004480336
-0.004877274
-0.005252833
-0.01171667
-0.01059155
-0.01171157
-0.009308406
-0.01028708
-0.01136405
-0.008024315
-0.008774157
-0.009685892
-0.0106826
-0.006759334
-0.007321154
-0.007996798
-0.008813073
-0.009694958
-0.005549663
-0.005966462
-0.006455588
-0.007040459
-0.007739746
-0.008483721
-0.004493367
-0.004802374
-0.005157117
-0.005571392
-0.006062676
-0.006644415
-0.007250805
-0.00373667
-0.003975107
-0.004243811
-0.004551442
-0.004909151
-0.005332848
-0.005831273
-0.006332448
-0.003233333
-0.003426888
-0.003641772
-0.003883607
-0.004159934
-0.004482738
-0.004866416
-0.005309433
-0.005742394
-0.002902022
-0.003066413
-0.003246762
-0.003446856
-0.003671853
-0.003930924
-0.004236299
-0.004595153
-0.005005845
-0.005398684
-0.002684887
-0.002829866
-0.002987352
-0.003160078
-0.003351651
-0.0035691
-0.00382245
-0.004118335
-0.004465308
-0.004860534
-0.005056715
-0.01137904
-0.01059155
-0.01171157
-0.009576958
-0.01058718
-0.01170169
-0.008506395
-0.009304521
-0.01027858
-0.01134959
-0.00740296
-0.008020761
-0.008766526
-0.009673344
-0.01066362
-0.006282157
-0.006755986
-0.007314046
-0.007985323
-0.008796268
-0.009674397
-0.005187849
-0.005546372
-0.00595952
-0.006444498
-0.007024501
-0.007720777
-0.008465591
-0.004219735
-0.00449001
-0.004795321
-0.005145917
-0.005555431
-0.006044002
-0.006626501
-0.007230183
-0.003522131
-0.00373353
-0.003968535
-0.004233433
-0.004536764
-0.004892167
-0.0053168
-0.005813063
-0.006311632
-0.003057001
-0.003230459
-0.003420894
-0.003632348
-0.003870354
-0.004144715
-0.004468596
-0.004850692
-0.00529174
-0.005722396
-0.002750718
-0.002899369
-0.003060896
-0.003238117
-0.00343475
-0.003658024
-0.003918233
-0.004222399
-0.004579791
-0.004988676
-0.005196667
-0.002550329
-0.002682404
-0.002824713
-0.002979296
-0.003148831
-0.003338852
-0.003557447
-0.003809806
-0.004104528
-0.004450097
-0.004682611
-0.004661364
-0.01071215
-0.01029145
-0.01137394
-0.009576958
-0.01058718
-0.01170169
-0.008750495
-0.009573082
-0.0105787
-0.01168724
-0.007846489
-0.008502873
-0.009296954
-0.01026612
-0.01133069
-0.006879424
-0.007399695
-0.008013827
-0.008755326
-0.009656915
-0.0106434
-0.005871902
-0.006279053
-0.006749442
-0.007303596
-0.007970276
-0.008778343
-0.009657425
-0.004871401
-0.005184777
-0.005539925
-0.005949293
-0.006429931
-0.007007453
-0.007704808
-0.00844751
-0.003977064
-0.004216585
-0.004483416
-0.004784903
-0.005131171
-0.005538348
-0.006027849
-0.006608134
-0.007209059
-0.003329782
-0.003519172
-0.003727356
-0.003958821
-0.004219762
-0.004521048
-0.004877462
-0.005300334
-0.005794387
-0.0062903
-0.002897464
-0.003054284
-0.003224806
-0.003412033
-0.003619932
-0.003856163
-0.004131618
-0.00445417
-0.004834656
-0.0052737
-0.005508386
-0.002612797
-0.002748205
-0.002894152
-0.00305274
-0.003226726
-0.003421785
-0.003646185
-0.003905352
-0.004208293
-0.004564205
-0.004805762
-0.004785016
-0.002426917
-0.002547971
-0.002677518
-0.00281709
-0.002968678
-0.003136783
-0.003327925
-0.00354565
-0.003797009
-0.004090554
-0.004288451
-0.004324038
-0.004246768
-0.009744256
-0.009698857
-0.01070704
-0.009308406
-0.01028708
-0.01136405
-0.008750495
-0.009573082
-0.0105787
-0.01168724
-0.008071057
-0.008746982
-0.009565535
-0.01056627
-0.01166835
-0.007290988
-0.007843254
-0.008496001
-0.00928585
-0.01024981
-0.01131056
-0.006429662
-0.006876398
-0.007393316
-0.008003639
-0.008740647
-0.009639396
-0.01062685
-0.005513307
-0.005869006
-0.00627298
-0.006739814
-0.007289882
-0.007954215
-0.008763538
-0.009640824
-0.004590887
-0.004868519
-0.005178753
-0.005530419
-0.005935849
-0.006414361
-0.006993101
-0.00768887
-0.008429479
-0.003759572
-0.003974097
-0.004210394
-0.004473671
-0.004771179
-0.005115381
-0.005523571
-0.006011287
-0.00658931
-0.007187429
-0.003155802
-0.003326986
-0.003513352
-0.003718226
-0.00394602
-0.004205119
-0.004507445
-0.004862378
-0.005283448
-0.005775243
-0.006060864
-0.002752064
-0.002894891
-0.00304894
-0.003216447
-0.003400354
-0.003606633
-0.003843953
-0.00411826
-0.004439461
-0.004818309
-0.005080645
-0.005062911
-0.00248631
-0.00261041
-0.002743259
-0.002886435
-0.003041988
-0.003214524
-0.003410687
-0.003634172
-0.003892283
-0.004193983
-0.004398186
-0.004433105
-0.00434925
-0.00231313
-0.002424674
-0.00254333
-0.002670289
-0.00280704
-0.002957302
-0.003126497
-0.003316865
-0.003533712
-0.003784058
-0.003942079
-0.003962919
-0.003948052
-0.003816252
-0.008556821
-0.008839144
-0.009739067
-0.008778074
-0.009694454
-0.01069711
-0.008506395
-0.009304521
-0.01027858
-0.01134959
-0.008071057
-0.008746982
-0.009565535
-0.01056627
-0.01166835
-0.007499364
-0.008067831
-0.008740131
-0.009554461
-0.01055
-0.01164823
-0.006813992
-0.007287991
-0.007836936
-0.008485907
-0.009271299
-0.01023243
-0.01129412
-0.006036699
-0.00642684
-0.006870482
-0.007383935
-0.007990274
-0.008724984
-0.009625049
-0.01061079
-0.005195543
-0.005510592
-0.005863336
-0.006264038
-0.006727169
-0.007275236
-0.00794095
-0.008749048
-0.009624594
-0.004339558
-0.004588175
-0.004862867
-0.005169867
-0.005517917
-0.005921473
-0.006401253
-0.006978774
-0.007672964
-0.008411501
-0.003562907
-0.00375677
-0.003968263
-0.004201239
-0.004460829
-0.004756479
-0.005101725
-0.005508422
-0.005994313
-0.006570023
-0.006954921
-0.002997275
-0.003153154
-0.003321485
-0.003504743
-0.00370619
-0.003932305
-0.004192445
-0.004493491
-0.004846911
-0.005266142
-0.005569304
-0.005569979
-0.002618739
-0.002749621
-0.002889825
-0.003041032
-0.003205427
-0.003387841
-0.003595191
-0.003831501
-0.004104642
-0.004424469
-0.004643401
-0.004678733
-0.004581383
-0.002369697
-0.00248404
-0.002605713
-0.002735941
-0.002876259
-0.003030467
-0.003204079
-0.003399426
-0.003621984
-0.003879026
-0.004041581
-0.0040602
-0.004038631
-0.003893236
-0.002207774
-0.002310993
-0.002420258
-0.002536461
-0.002660755
-0.00279627
-0.00294759
-0.003116087
-0.003305672
-0.003521632
-0.003646473
-0.003643269
-0.003621756
-0.003557618
-0.003373833
-0.007349656
-0.007785013
-0.008551415
-0.008008619
-0.008834649
-0.009728993
-0.008024315
-0.008774157
-0.009685892
-0.0106826
-0.007846489
-0.008502873
-0.009296954
-0.01026612
-0.01133069
-0.007499364
-0.008067831
-0.008740131
-0.009554461
-0.01055
-0.01164823
-0.007008575
-0.007496376
-0.008061533
-0.008730066
-0.009539949
-0.01053265
-0.01163182
-0.00639734
-0.006811197
-0.007282132
-0.007827645
-0.008472667
-0.009255775
-0.01021824
-0.01127823
-0.005688561
-0.006034054
-0.006421319
-0.006861773
-0.007371622
-0.007976006
-0.008712156
-0.00961113
-0.01059524
-0.004910902
-0.005192989
-0.005505274
-0.005854981
-0.006252288
-0.006713659
-0.007263138
-0.007927964
-0.008734874
-0.009608737
-0.004112348
-0.004336997
-0.004582851
-0.004854523
-0.005158175
-0.005504543
-0.00590937
-0.006388168
-0.006964475
-0.007657092
-0.00822331
-0.003383751
-0.003560254
-0.003751257
-0.003959634
-0.00418917
-0.004447069
-0.004743767
-0.005087726
-0.005492898
-0.005976922
-0.006362597
-0.006453104
-0.00285194
-0.002994762
-0.003147941
-0.003313343
-0.003493389
-0.003693292
-0.003920436
-0.004179446
-0.004479185
-0.004831062
-0.005079998
-0.005128295
-0.00501963
-0.002495837
-0.002616415
-0.002744811
-0.002882328
-0.003030604
-0.003193616
-0.003377077
-0.003583524
-0.003818808
-0.004090764
-0.004264084
-0.004279529
-0.004244216
-0.004067416
-0.002261731
-0.002367535
-0.002479571
-0.00259876
-0.002726289
-0.002865353
-0.003020606
-0.003193482
-0.003388002
-0.003609621
-0.003737859
-0.003731527
-0.003702615
-0.003625797
-0.003422099
-0.00210983
-0.002205736
-0.002306785
-0.00241372
-0.0025274
-0.002650536
-0.002787076
-0.002937761
-0.003105553
-0.003294348
-0.003393304
-0.003369716
-0.003330263
-0.0032676
-0.003156326
-0.003081468
-0.006449801
-0.006714353
-0.007343872
-0.007065114
-0.007780283
-0.008540898
-0.007324795
-0.008004611
-0.008825902
-0.009714248
-0.00740296
-0.008020761
-0.008766526
-0.009673344
-0.01066362
-0.007290988
-0.007843254
-0.008496001
-0.00928585
-0.01024981
-0.01131056
-0.007008575
-0.007496376
-0.008061533
-0.008730066
-0.009539949
-0.01053265
-0.01163182
-0.006579928
-0.00700579
-0.007490536
-0.008052271
-0.008716866
-0.009524468
-0.0105185
-0.01161597
-0.006028271
-0.006394722
-0.00680573
-0.007273509
-0.007815451
-0.008458533
-0.009243098
-0.01020451
-0.01126288
-0.005376762
-0.005686074
-0.006028876
-0.006413185
-0.006850336
-0.007358468
-0.007964319
-0.008699709
-0.009597639
-0.01058019
-0.004653621
-0.004908492
-0.005187981
-0.005497432
-0.005843998
-0.006239728
-0.0067025
-0.007251296
-0.007915261
-0.008721017
-0.009446186
-0.003905405
-0.004109924
-0.004331968
-0.004574989
-0.00484354
-0.005145663
-0.005493284
-0.005897289
-0.006375108
-0.006950204
-0.007490817
-0.007873305
-0.003219534
-0.003381233
-0.003555032
-0.003743099
-0.003948252
-0.004176235
-0.004435169
-0.004730736
-0.005073381
-0.005476995
-0.005789898
-0.005913879
-0.005866218
-0.002717991
-0.00284955
-0.002989812
-0.003140224
-0.003302602
-0.003481218
-0.003682129
-0.003908262
-0.004166122
-0.004464527
-0.004660613
-0.004681596
-0.00463353
-0.004404565
-0.002382061
-0.002493624
-0.002611839
-0.002737689
-0.002872438
-0.003019426
-0.003183455
-0.0033661
-0.003571631
-0.003805873
-0.003942311
-0.003930651
-0.003886339
-0.003780335
-0.003527834
-0.002161366
-0.002259669
-0.002363276
-0.002472953
-0.002589587
-0.002715941
-0.002856019
-0.003010602
-0.003182732
-0.003376415
-0.003477991
-0.003450807
-0.003403659
-0.003328513
-0.003199194
-0.003110114
-0.002018508
-0.002107883
-0.00220172
-0.002300552
-0.002405092
-0.002517684
-0.002641812
-0.002777771
-0.002927815
-0.003094895
-0.003174054
-0.003135267
-0.003079923
-0.003005449
-0.002903653
-0.002891064
-0.002919787
-0.005874114
-0.005918213
-0.00644413
-0.006107006
-0.006709234
-0.007332585
-0.006466972
-0.007060882
-0.00777106
-0.008525476
-0.006759334
-0.007321154
-0.007996798
-0.008813073
-0.009694958
-0.006879424
-0.007399695
-0.008013827
-0.008755326
-0.009656915
-0.0106434
-0.006813992
-0.007287991
-0.007836936
-0.008485907
-0.009271299
-0.01023243
-0.01129412
-0.006579928
-0.00700579
-0.007490536
-0.008052271
-0.008716866
-0.009524468
-0.0105185
-0.01161597
-0.00620026
-0.006577318
-0.007000341
-0.007481942
-0.008040116
-0.008702775
-0.009511838
-0.01050483
-0.01160067
-0.005697757
-0.006025809
-0.006389596
-0.006797679
-0.007262186
-0.007802427
-0.008446993
-0.009230839
-0.01019125
-0.01124808
-0.005094966
-0.005374415
-0.0056812
-0.006021244
-0.006402497
-0.006838113
-0.007347695
-0.00795298
-0.008687645
-0.009584578
-0.01042739
-0.004419321
-0.00465134
-0.004903763
-0.005180594
-0.005487119
-0.005832253
-0.006229353
-0.006691575
-0.007239709
-0.00790284
-0.008578875
-0.00917662
-0.003715748
-0.003903106
-0.004105162
-0.004324538
-0.004564636
-0.004831783
-0.00513513
-0.005482046
-0.005885231
-0.006362075
-0.006800693
-0.007180462
-0.007543111
-0.003068208
-0.00321714
-0.003376275
-0.0035473
-0.003732336
-0.003936051
-0.004165049
-0.004422972
-0.004717384
-0.005058688
-0.005305981
-0.005385377
-0.005388185
-0.005147247
-0.002594004
-0.002715715
-0.002844842
-0.002982482
-0.00313004
-0.003291086
-0.003470685
-0.003670681
-0.003895784
-0.00415247
-0.004306909
-0.00429603
-0.004234823
-0.004080331
-0.003725133
-0.002276306
-0.00237995
-0.002489264
-0.002605061
-0.002728291
-0.002861834
-0.00300981
-0.003173096
-0.003354912
-0.003559513
-0.003667524
-0.003633846
-0.003570535
-0.00346672
-0.003293223
-0.003167827
-0.002067789
-0.002159396
-0.002255605
-0.002356968
-0.00246422
-0.00257975
-0.002707086
-0.002846549
-0.003000453
-0.003171829
-0.003253053
-0.003210435
-0.00314738
-0.003060765
-0.002941997
-0.002916617
-0.002938991
-0.001933077
-0.002016646
-0.002104047
-0.002195771
-0.002292326
-0.002395841
-0.002509391
-0.002632983
-0.002768356
-0.002917753
-0.00298169
-0.002932242
-0.002865153
-0.00277928
-0.002671726
-0.002663079
-0.002743458
-0.002740666
-0.005544426
-0.005410481
-0.005868678
-0.005395378
-0.00591315
-0.006433056
-0.005595938
-0.006102407
-0.006699224
-0.007315991
-0.005970009
-0.00646312
-0.007052616
-0.007757513
-0.008505274
-0.006282157
-0.006755986
-0.007314046
-0.007985323
-0.008796268
-0.009674397
-0.006429662
-0.006876398
-0.007393316
-0.008003639
-0.008740647
-0.009639396
-0.01062685
-0.00639734
-0.006811197
-0.007282132
-0.007827645
-0.008472667
-0.009255775
-0.01021824
-0.01127823
-0.00620026
-0.006577318
-0.007000341
-0.007481942
-0.008040116
-0.008702775
-0.009511838
-0.01050483
-0.01160067
-0.005860271
-0.006197806
-0.006572209
-0.006992316
-0.007470656
-0.008027133
-0.008691279
-0.009499635
-0.01049164
-0.01158594
-0.005399069
-0.005695434
-0.006020984
-0.006382042
-0.0067871
-0.007250087
-0.007791792
-0.008435831
-0.009218996
-0.01017846
-0.01109839
-0.004838363
-0.005092745
-0.005369813
-0.005674012
-0.006011211
-0.006391071
-0.006828102
-0.007337242
-0.007941989
-0.008675963
-0.009451948
-0.01018755
-0.004204616
-0.004417158
-0.004646863
-0.004896784
-0.005170875
-0.005476086
-0.005822551
-0.006219196
-0.006680887
-0.007228381
-0.007775414
-0.008342423
-0.00895517
-0.003541004
-0.003713563
-0.003898586
-0.004098122
-0.00431475
-0.00455355
-0.004821885
-0.005124615
-0.005470829
-0.005873198
-0.006225524
-0.006521497
-0.006886791
-0.00725634
-0.002928157
-0.003065929
-0.003212425
-0.003368933
-0.003537097
-0.003720795
-0.003925501
-0.004153584
-0.004410476
-0.004703708
-0.004900692
-0.004936247
-0.004911555
-0.004743457
-0.004210298
-0.002478773
-0.002591833
-0.002711229
-0.002837866
-0.002972806
-0.003119118
-0.003281121
-0.003459884
-0.003658948
-0.003883001
-0.004005679
-0.00396993
-0.003887378
-0.003735448
-0.003469064
-0.003253831
-0.00217771
-0.00227429
-0.00237579
-0.002482804
-0.002596115
-0.002718212
-0.002852713
-0.003000006
-0.003162537
-0.003343513
-0.003429907
-0.003380163
-0.003300824
-0.003186351
-0.003026165
-0.002968125
-0.002975375
-0.001980255
-0.002065906
-0.002155514
-0.002249584
-0.002348641
-0.002454854
-0.002571332
-0.002698101
-0.002836943
-0.002990161
-0.003055756
-0.003002377
-0.002927697
-0.002830135
-0.002706568
-0.002685973
-0.002760613
-0.00275247
-0.001852978
-0.001931296
-0.002012976
-0.002098361
-0.002187918
-0.002283504
-0.002387944
-0.002500998
-0.00262405
-0.00275883
-0.002810879
-0.002754177
-0.002679168
-0.002584985
-0.002470448
-0.002451151
-0.00252899
-0.002579078
-0.002551358
-0.005395614
-0.005120597
-0.005539167
-0.004942259
-0.005405596
-0.005858065
-0.004949422
-0.005390814
-0.005903249
-0.00641677
-0.005168571
-0.005591743
-0.006093402
-0.006684487
-0.007294208
-0.005549663
-0.005966462
-0.006455588
-0.007040459
-0.007739746
-0.008483721
-0.005871902
-0.006279053
-0.006749442
-0.007303596
-0.007970276
-0.008778343
-0.009657425
-0.006036699
-0.00642684
-0.006870482
-0.007383935
-0.007990274
-0.008724984
-0.009625049
-0.01061079
-0.006028271
-0.006394722
-0.00680573
-0.007273509
-0.007815451
-0.008458533
-0.009243098
-0.01020451
-0.01126288
-0.005860271
-0.006197806
-0.006572209
-0.006992316
-0.007470656
-0.008027133
-0.008691279
-0.009499635
-0.01049164
-0.01158594
-0.00555303
-0.005857955
-0.006192998
-0.006564681
-0.006981773
-0.007458597
-0.008016542
-0.008680172
-0.009487859
-0.01047893
-0.01143707
-0.0051271
-0.00539687
-0.005690879
-0.006013871
-0.006372112
-0.006775791
-0.007240207
-0.007781507
-0.008425048
-0.00920757
-0.01004904
-0.0108681
-0.004603239
-0.004836257
-0.005088388
-0.005363023
-0.005664559
-0.006000481
-0.006381712
-0.006818388
-0.007327109
-0.007931346
-0.008557339
-0.009243347
-0.01000209
-0.004006814
-0.00420256
-0.004412909
-0.004640252
-0.004887597
-0.005160475
-0.005466973
-0.005813053
-0.00620926
-0.006670437
-0.007112158
-0.007563322
-0.008147649
-0.008793434
-0.003379298
-0.003538924
-0.003709265
-0.003891902
-0.004088845
-0.004304266
-0.004544217
-0.004812005
-0.005114122
-0.005459635
-0.005747129
-0.005970536
-0.006257216
-0.006631118
-0.007062089
-0.002798014
-0.002925984
-0.003061438
-0.00320544
-0.003359241
-0.003526154
-0.003710815
-0.003914687
-0.004141838
-0.004397676
-0.004556664
-0.004559226
-0.004503346
-0.004330594
-0.003902817
-0.003355471
-0.002371353
-0.0024767
-0.002587554
-0.002704582
-0.002828658
-0.002962427
-0.003109667
-0.003270902
-0.003448814
-0.003646928
-0.003745558
-0.003691961
-0.00359236
-0.003430781
-0.003183782
-0.003044949
-0.00302276
-0.00208549
-0.002175783
-0.002270315
-0.002369624
-0.002474275
-0.002586519
-0.002709543
-0.002843413
-0.002990013
-0.003151779
-0.003221603
-0.003160784
-0.003070017
-0.002945645
-0.002783088
-0.002732141
-0.002793127
-0.002773744
-0.001898186
-0.001978452
-0.002062192
-0.00214976
-0.002241635
-0.00233971
-0.002446839
-0.002562792
-0.002688988
-0.002827201
-0.002880595
-0.002819944
-0.002737536
-0.002632149
-0.002502494
-0.002471973
-0.002544367
-0.00258963
-0.002558107
-0.001777707
-0.001851271
-0.001927782
-0.002007537
-0.002090854
-0.002179493
-0.002275973
-0.002379952
-0.002492507
-0.002615013
-0.002657665
-0.002596128
-0.002516109
-0.002416718
-0.00229723
-0.002266346
-0.002328254
-0.002379387
-0.002404528
-0.002356768
-0.004990042
-0.005390444
-0.004683969
-0.005115853
-0.005528904
-0.004538154
-0.004937845
-0.005396048
-0.005842459
-0.004573989
-0.004945252
-0.005381879
-0.005888668
-0.006395387
-0.004805967
-0.005164704
-0.005583521
-0.00608013
-0.006665122
-0.00727093
-0.005187849
-0.005546372
-0.00595952
-0.006444498
-0.007024501
-0.007720777
-0.008465591
-0.005513307
-0.005869006
-0.00627298
-0.006739814
-0.007289882
-0.007954215
-0.008763538
-0.009640824
-0.005688561
-0.006034054
-0.006421319
-0.006861773
-0.007371622
-0.007976006
-0.008712156
-0.00961113
-0.01059524
-0.005697757
-0.006025809
-0.006389596
-0.006797679
-0.007262186
-0.007802427
-0.008446993
-0.009230839
-0.01019125
-0.01124808
-0.00555303
-0.005857955
-0.006192998
-0.006564681
-0.006981773
-0.007458597
-0.008016542
-0.008680172
-0.009487859
-0.01047893
-0.01143707
-0.005273281
-0.005550839
-0.005853416
-0.006185909
-0.006554786
-0.006970503
-0.007448759
-0.008006309
-0.008669454
-0.00947651
-0.01035046
-0.01120945
-0.004877908
-0.005125015
-0.005392558
-0.00568416
-0.006004516
-0.006361494
-0.006766557
-0.007230651
-0.007771571
-0.008414646
-0.009091983
-0.009849711
-0.01069371
-0.00438664
-0.004601238
-0.004832123
-0.005081957
-0.005354089
-0.005654445
-0.005991692
-0.006372632
-0.006808972
-0.007317298
-0.007823268
-0.008370697
-0.009081761
-0.009874937
-0.003823785
-0.004004857
-0.004198522
-0.004406634
-0.004631547
-0.004877764
-0.005151884
-0.005458052
-0.005803761
-0.006199544
-0.006563221
-0.006918683
-0.007388527
-0.008005077
-0.008705855
-0.003229049
-0.003377314
-0.003534831
-0.003702908
-0.003883092
-0.004078907
-0.00429544
-0.004534901
-0.004802145
-0.005103649
-0.00534236
-0.005511734
-0.005729185
-0.006027069
-0.006457603
-0.002676703
-0.002795939
-0.002921699
-0.003054782
-0.003196217
-0.003348844
-0.003516692
-0.003700587
-0.003903609
-0.004129808
-0.004260063
-0.004238949
-0.004159554
-0.003972762
-0.003573332
-0.003135836
-0.003064772
-0.00227089
-0.002369371
-0.002472612
-0.00258121
-0.002695804
-0.002818778
-0.002953446
-0.003099976
-0.003260428
-0.003437474
-0.003517698
-0.003451893
-0.003340551
-0.003170616
-0.002926506
-0.002801049
-0.00283549
-0.002798936
-0.001999033
-0.002083645
-0.002171981
-0.002264424
-0.002361483
-0.002465126
-0.002578265
-0.002700704
-0.002833935
-0.002979833
-0.003036732
-0.002968518
-0.002870386
-0.002739306
-0.002572898
-0.002513975
-0.002573519
-0.002608652
-0.002569846
-0.001821067
-0.001896459
-0.001974897
-0.002056688
-0.002142162
-0.002233106
-0.002332067
-0.002438707
-0.00255413
-0.002679747
-0.002723499
-0.002658041
-0.00257085
-0.00246074
-0.002326959
-0.002285508
-0.002342242
-0.002388845
-0.002410557
-0.002360229
-0.001706813
-0.00177607
-0.001847904
-0.001922573
-0.002000354
-0.0020828
-0.002172301
-0.002268352
-0.002371866
-0.002483916
-0.002519036
-0.002454413
-0.002371444
-0.002269253
-0.002147192
-0.002107073
-0.002152727
-0.002191117
-0.002220213
-0.002224325
-0.002160043
-0.004567781
-0.004985368
-0.005380355
-0.004303947
-0.004679674
-0.00510658
-0.005513815
-0.004196006
-0.004534115
-0.004929205
-0.00538199
-0.005821972
-0.004254415
-0.004570141
-0.004937079
-0.005368706
-0.005869507
-0.006372534
-0.004493367
-0.004802374
-0.005157117
-0.005571392
-0.006062676
-0.006644415
-0.007250805
-0.004871401
-0.005184777
-0.005539925
-0.005949293
-0.006429931
-0.007007453
-0.007704808
-0.00844751
-0.005195543
-0.005510593
-0.005863336
-0.006264038
-0.006727169
-0.007275236
-0.00794095
-0.008749048
-0.009624594
-0.005376762
-0.005686074
-0.006028876
-0.006413185
-0.006850336
-0.007358468
-0.007964319
-0.008699709
-0.009597639
-0.01058019
-0.005399069
-0.005695434
-0.006020984
-0.006382042
-0.0067871
-0.007250087
-0.007791792
-0.008435831
-0.009218996
-0.01017846
-0.01109839
-0.005273281
-0.005550839
-0.005853416
-0.006185909
-0.006554786
-0.006970503
-0.007448759
-0.008006309
-0.008669454
-0.00947651
-0.01035046
-0.01120945
-0.005016967
-0.005271204
-0.005546542
-0.00584672
-0.006176587
-0.006544204
-0.006961308
-0.007439253
-0.007996434
-0.008659125
-0.009361835
-0.01015383
-0.01103812
-0.004648359
-0.004875927
-0.005120925
-0.005386195
-0.00567532
-0.005994509
-0.006352823
-0.006757626
-0.00722142
-0.007761984
-0.008309405
-0.008913904
-0.009698604
-0.01057647
-0.004186228
-0.004384736
-0.004597309
-0.00482602
-0.005073493
-0.005344528
-0.005646162
-0.005983164
-0.006363829
-0.006799854
-0.007217661
-0.007653197
-0.008226073
-0.008970836
-0.009810031
-0.003653737
-0.003821919
-0.004001012
-0.004192554
-0.004398368
-0.004622228
-0.004869642
-0.005143474
-0.005449323
-0.005794675
-0.006099862
-0.006384728
-0.006759212
-0.007260527
-0.007927746
-0.003089006
-0.003227156
-0.003373411
-0.003528774
-0.003694525
-0.003873651
-0.004070541
-0.004286631
-0.004525603
-0.004792305
-0.004993935
-0.005123401
-0.005288949
-0.005519023
-0.00587085
-0.002563262
-0.002674719
-0.002791847
-0.002915348
-0.003045992
-0.003186322
-0.003339854
-0.003506994
-0.003690108
-0.003892262
-0.004000467
-0.003962785
-0.00386717
-0.003669848
-0.003281405
-0.002882644
-0.002873068
-0.002818001
-0.002176714
-0.002268993
-0.002365461
-0.002466551
-0.002572832
-0.002686385
-0.002810229
-0.002944237
-0.003090043
-0.003249699
-0.003315557
-0.003241636
-0.003123015
-0.002948113
-0.00270493
-0.002576696
-0.002611519
-0.002631183
-0.002582918
-0.001917796
-0.001997265
-0.002080005
-0.002166345
-0.002256642
-0.002352747
-0.002457256
-0.002569851
-0.002691696
-0.002824279
-0.002870966
-0.002797935
-0.00269547
-0.002560783
-0.002392287
-0.002324172
-0.002368767
-0.002405899
-0.002421044
-0.002366105
-0.001748433
-0.001819411
-0.001893052
-0.001969625
-0.002049417
-0.002134009
-0.002225808
-0.002324313
-0.002430459
-0.002545346
-0.002581372
-0.002512886
-0.002422984
-0.002310545
-0.002174947
-0.002124858
-0.002165603
-0.00219972
-0.002225611
-0.002227397
-0.002161264
-0.001639916
-0.001705242
-0.001772841
-0.001842911
-0.001915693
-0.001992645
-0.002075925
-0.002165024
-0.002260641
-0.002363687
-0.002392684
-0.002326228
-0.002241783
-0.00213849
-0.002015763
-0.001969094
-0.002001311
-0.002025991
-0.002045144
-0.002055547
-0.002041412
-0.001963283
-0.004198669
-0.004563545
-0.004976232
-0.005365523
-0.003980896
-0.004300012
-0.004671268
-0.005092931
-0.005494011
-0.003903957
-0.004192274
-0.0045262
-0.004916473
-0.005363521
-0.005800084
-0.003978452
-0.004250836
-0.00456259
-0.00492502
-0.005351382
-0.005849017
-0.006352748
-0.004219735
-0.00449001
-0.004795321
-0.005145917
-0.005555431
-0.006044002
-0.006626501
-0.007230183
-0.004590887
-0.004868519
-0.005178753
-0.005530419
-0.005935849
-0.006414361
-0.006993101
-0.00768887
-0.008429479
-0.004910902
-0.005192989
-0.005505274
-0.005854981
-0.006252288
-0.006713659
-0.007263138
-0.007927964
-0.008734874
-0.009608737
-0.005094966
-0.005374415
-0.0056812
-0.006021244
-0.006402497
-0.006838113
-0.007347695
-0.00795298
-0.008687645
-0.009584578
-0.01042739
-0.0051271
-0.00539687
-0.005690879
-0.006013871
-0.006372112
-0.006775791
-0.007240207
-0.007781507
-0.008425048
-0.00920757
-0.01004904
-0.0108681
-0.005016967
-0.005271204
-0.005546542
-0.00584672
-0.006176587
-0.006544204
-0.006961308
-0.007439253
-0.007996434
-0.008659125
-0.009361835
-0.01015383
-0.01103812
-0.004780862
-0.005014993
-0.005267127
-0.005540201
-0.005837911
-0.006166615
-0.006535571
-0.006952425
-0.00743008
-0.007986917
-0.008554746
-0.009186294
-0.01000572
-0.01092356
-0.004435971
-0.004646474
-0.004872039
-0.005114885
-0.00537782
-0.00566586
-0.005986338
-0.006344437
-0.006748998
-0.007212514
-0.007665002
-0.008147252
-0.008778885
-0.009596932
-0.0105175
-0.004000042
-0.004184413
-0.004380994
-0.004591505
-0.004817983
-0.005064432
-0.005336698
-0.005638124
-0.005974897
-0.006355306
-0.006707261
-0.007060861
-0.007521398
-0.008126765
-0.00891416
-0.003495248
-0.003651957
-0.003818252
-0.003995326
-0.00418469
-0.004389516
-0.004614529
-0.00486169
-0.005135246
-0.005440788
-0.005701458
-0.005933906
-0.0062376
-0.006642423
-0.007191079
-0.002958061
-0.003087196
-0.003223427
-0.003367632
-0.003520786
-0.003685542
-0.003865704
-0.00406219
-0.004277838
-0.004516325
-0.004689213
-0.004789102
-0.004916187
-0.005094975
-0.005376384
-0.002456929
-0.002561364
-0.002670806
-0.002785779
-0.00290696
-0.00303656
-0.003177766
-0.003330641
-0.003497059
-0.003679376
-0.003770277
-0.003721099
-0.003614984
-0.003411742
-0.003031927
-0.00265101
-0.002645246
-0.002648239
-0.002591991
-0.002088231
-0.002174897
-0.002265251
-0.002359664
-0.002458544
-0.002563839
-0.002678235
-0.002801463
-0.002934799
-0.00307987
-0.003134361
-0.003055158
-0.00293252
-0.002755801
-0.002514854
-0.002381925
-0.002403355
-0.002426106
-0.002432725
-0.002372399
-0.001841287
-0.001916101
-0.001993778
-0.002074609
-0.0021589
-0.002248292
-0.002345233
-0.002449233
-0.002561275
-0.002682519
-0.002721021
-0.002645026
-0.002540337
-0.002404402
-0.00223595
-0.002160747
-0.002190021
-0.002215236
-0.002235005
-0.002232616
-0.002163279
-0.001679896
-0.001746844
-0.001816143
-0.001887999
-0.001962662
-0.002041615
-0.002127032
-0.002218405
-0.002316449
-0.002422096
-0.002451842
-0.002381599
-0.002290464
-0.002177372
-0.002041802
-0.001985704
-0.002013262
-0.002033911
-0.002050053
-0.002058287
-0.002042455
-0.001962693
-0.001576703
-0.001638407
-0.001702142
-0.001768051
-0.001836315
-0.001908308
-0.001986066
-0.002068968