/*--------------------------------*- C++ -*----------------------------------*\
| =========                 |                                                 |
| \\      /  F ield         | OpenFOAM: The Open Source CFD Toolbox           |
|  \\    /   O peration     | Version:  2306                                  |
|   \\  /    A nd           | Website:  www.openfoam.com                      |
|    \\/     M anipulation  |                                                 |
\*---------------------------------------------------------------------------*/
FoamFile
{
    version     2.0;
    format      ascii;
    arch        "LSB;label=32;scalar=64";
    class       volScalarField;
    location    "0.3/phiEA";
    object      T;
}
// * * * * * * * * * * * * * * * * * * * * * * * * * * * * * * * * * * * * * //

dimensions      [0 0 0 1 0 0 0];

internalField   nonuniform List<scalar> 
20000
(
1049.584
1049.487
1050.727
1049.586
1049.263
1050.719
1049.489
1051.799
1050.727
1049.593
1048.848
1050.697
1049.266
1051.815
1050.718
1049.496
1052.817
1051.796
1050.73
1049.605
1048.152
1050.651
1048.852
1051.851
1050.695
1049.274
1052.842
1051.812
1050.721
1049.509
1053.807
1052.812
1051.797
1050.739
1049.621
1047.136
1050.564
1048.16
1051.91
1050.648
1048.862
1052.896
1051.847
1050.698
1049.287
1053.834
1052.836
1051.813
1050.729
1049.526
1054.775
1053.799
1052.81
1051.802
1050.752
1049.643
1045.99
1050.414
1047.151
1051.995
1050.56
1048.174
1052.989
1051.904
1050.651
1048.877
1053.894
1052.889
1051.847
1050.706
1049.305
1054.802
1053.826
1052.834
1051.818
1050.742
1049.548
1055.721
1054.766
1053.796
1052.813
1051.811
1050.769
1049.666
1044.945
1050.2
1046.015
1052.094
1050.407
1047.172
1053.132
1051.987
1050.56
1048.193
1053.998
1052.981
1051.903
1050.658
1048.898
1054.863
1053.885
1052.887
1051.851
1050.719
1049.329
1055.748
1054.793
1053.822
1052.836
1051.827
1050.76
1049.572
1056.643
1055.71
1054.76
1053.796
1052.819
1051.826
1050.788
1049.689
1044.17
1049.964
1044.98
1052.162
1050.192
1046.045
1053.316
1052.081
1050.406
1047.197
1054.16
1053.121
1051.983
1050.566
1048.218
1054.97
1053.989
1052.977
1051.906
1050.67
1048.924
1055.808
1054.853
1053.881
1052.888
1051.86
1050.736
1049.354
1056.67
1055.737
1054.787
1053.822
1052.843
1051.841
1050.778
1049.595
1057.541
1056.632
1055.704
1054.759
1053.8
1052.83
1051.84
1050.806
1049.712
1043.76
1049.767
1044.211
1052.189
1049.958
1045.018
1053.483
1052.146
1050.19
1046.079
1054.374
1053.301
1052.073
1050.408
1047.228
1055.136
1054.148
1053.115
1051.983
1050.576
1048.248
1055.913
1054.959
1053.983
1052.977
1051.913
1050.686
1048.951
1056.728
1055.797
1054.847
1053.88
1052.894
1051.873
1050.754
1049.379
1057.567
1056.658
1055.73
1054.785
1053.826
1052.853
1051.855
1050.796
1049.619
1058.413
1057.53
1056.624
1055.701
1054.761
1053.808
1052.841
1051.855
1050.825
1049.736
1043.76
1049.655
1043.805
1052.19
1049.763
1044.257
1053.606
1052.172
1049.957
1045.062
1054.577
1053.465
1052.135
1050.192
1046.118
1055.357
1054.357
1053.29
1052.07
1050.416
1047.264
1056.078
1055.123
1054.14
1053.112
1051.988
1050.591
1048.28
1056.832
1055.901
1054.951
1053.981
1052.982
1051.925
1050.703
1048.979
1057.624
1056.716
1055.789
1054.844
1053.883
1052.904
1051.886
1050.772
1049.404
1058.438
1057.555
1056.65
1055.727
1054.787
1053.834
1052.864
1051.869
1050.815
1049.643
1059.258
1058.401
1057.521
1056.62
1055.701
1054.767
1053.817
1052.853
1051.869
1050.843
1049.852
1044.17
1049.655
1043.805
1052.185
1049.652
1043.855
1053.682
1052.174
1049.763
1044.307
1054.736
1053.586
1052.16
1049.961
1045.11
1055.572
1054.557
1053.451
1052.129
1050.199
1046.163
1056.299
1055.34
1054.345
1053.283
1052.07
1050.429
1047.301
1056.993
1056.064
1055.113
1054.135
1053.114
1051.997
1050.607
1048.312
1057.725
1056.819
1055.892
1054.947
1053.982
1052.99
1051.937
1050.721
1049.007
1058.494
1057.612
1056.708
1055.785
1054.846
1053.89
1052.914
1051.9
1050.79
1049.429
1059.282
1058.425
1057.546
1056.646
1055.727
1054.793
1053.842
1052.875
1051.884
1050.833
1049.762
1060.074
1059.245
1058.391
1057.515
1056.619
1055.705
1054.773
1053.825
1052.864
1051.884
1050.936
1050.073
1044.945
1049.767
1044.211
1052.185
1049.652
1043.855
1053.717
1052.169
1049.653
1043.909
1054.84
1053.661
1052.162
1049.768
1044.362
1055.742
1054.714
1053.57
1052.153
1049.969
1045.163
1056.514
1055.552
1054.542
1053.441
1052.127
1050.211
1046.208
1057.209
1056.281
1055.327
1054.336
1053.281
1052.076
1050.442
1047.338
1057.883
1056.978
1056.053
1055.107
1054.134
1053.12
1052.007
1050.623
1048.345
1058.592
1057.711
1056.809
1055.887
1054.947
1053.988
1052.999
1051.95
1050.738
1049.036
1059.336
1058.481
1057.602
1056.703
1055.785
1054.85
1053.898
1052.924
1051.914
1050.808
1049.557
1060.098
1059.269
1058.416
1057.54
1056.644
1055.731
1054.798
1053.85
1052.886
1051.898
1050.926
1049.993
1060.862
1060.061
1059.235
1058.385
1057.513
1056.621
1055.709
1054.779
1053.834
1052.875
1051.959
1051.106
1050.304
1045.99
1049.964
1044.98
1052.19
1049.763
1044.257
1053.717
1052.169
1049.653
1043.909
1054.891
1053.696
1052.157
1049.66
1043.967
1055.857
1054.817
1053.644
1052.154
1049.778
1044.421
1056.687
1055.721
1054.697
1053.558
1052.15
1049.981
1045.216
1057.422
1056.494
1055.536
1054.53
1053.435
1052.13
1050.223
1046.253
1058.094
1057.192
1056.267
1055.317
1054.332
1053.283
1052.081
1050.455
1047.376
1058.746
1057.867
1056.967
1056.046
1055.105
1054.138
1053.126
1052.017
1050.639
1048.378
1059.432
1058.578
1057.701
1056.803
1055.886
1054.951
1053.994
1053.008
1051.962
1050.756
1049.178
1060.151
1059.323
1058.471
1057.596
1056.701
1055.788
1054.856
1053.905
1052.934
1051.927
1050.9
1049.811
1060.885
1060.084
1059.259
1058.41
1057.538
1056.646
1055.734
1054.804
1053.858
1052.897
1051.971
1051.096
1050.238
1061.62
1060.848
1060.051
1059.228
1058.382
1057.514
1056.624
1055.713
1054.785
1053.842
1052.934
1052.091
1051.277
1050.544
1047.136
1050.2
1046.015
1052.189
1049.958
1045.018
1053.682
1052.174
1049.763
1044.307
1054.891
1053.696
1052.157
1049.66
1043.967
1055.914
1054.868
1053.679
1052.149
1049.67
1044.03
1056.804
1055.834
1054.799
1053.632
1052.151
1049.792
1044.482
1057.593
1056.665
1055.703
1054.683
1053.551
1052.151
1049.995
1045.269
1058.302
1057.402
1056.477
1055.523
1054.523
1053.434
1052.132
1050.235
1046.297
1058.953
1058.076
1057.178
1056.257
1055.312
1054.332
1053.284
1052.087
1050.468
1047.413
1059.583
1058.731
1057.855
1056.959
1056.043
1055.106
1054.141
1053.131
1052.026
1050.655
1048.542
1060.245
1059.418
1058.567
1057.694
1056.8
1055.888
1054.955
1054
1053.016
1051.974
1050.845
1049.473
1060.937
1060.137
1059.312
1058.464
1057.593
1056.702
1055.791
1054.861
1053.913
1052.945
1051.997
1051.069
1050.088
1061.643
1060.871
1060.074
1059.252
1058.406
1057.539
1056.649
1055.738
1054.81
1053.867
1052.954
1052.101
1051.267
1050.495
1062.35
1061.607
1060.838
1060.043
1059.224
1058.382
1057.515
1056.626
1055.717
1054.791
1053.886
1053.036
1052.222
1051.449
1050.79
1048.152
1050.414
1047.151
1052.162
1050.192
1046.045
1053.606
1052.172
1049.957
1045.062
1054.84
1053.661
1052.162
1049.768
1044.362
1055.914
1054.868
1053.679
1052.149
1049.67
1044.03
1056.862
1055.89
1054.849
1053.666
1052.146
1049.686
1044.094
1057.71
1056.781
1055.815
1054.785
1053.624
1052.152
1049.807
1044.541
1058.471
1057.572
1056.647
1055.689
1054.674
1053.548
1052.153
1050.008
1045.322
1059.157
1058.282
1057.385
1056.465
1055.515
1054.519
1053.433
1052.135
1050.248
1046.342
1059.785
1058.935
1058.062
1057.167
1056.25
1055.31
1054.331
1053.286
1052.093
1050.482
1047.597
1060.393
1059.567
1058.718
1057.847
1056.954
1056.042
1055.107
1054.144
1053.137
1052.036
1050.737
1048.883
1061.029
1060.23
1059.407
1058.559
1057.69
1056.8
1055.889
1054.958
1054.006
1053.025
1052.037
1051.013
1049.805
1061.694
1060.923
1060.126
1059.305
1058.46
1057.593
1056.704
1055.794
1054.866
1053.92
1052.997
1052.12
1051.243
1050.384
1062.372
1061.63
1060.861
1060.067
1059.248
1058.406
1057.539
1056.651
1055.742
1054.816
1053.909
1053.052
1052.229
1051.441
1050.759
1063.05
1062.337
1061.596
1060.83
1060.039
1059.223
1058.382
1057.516
1056.629
1055.721
1054.823
1053.963
1053.135
1052.351
1051.623
1050.929
1048.848
1050.564
1048.16
1052.094
1050.407
1047.172
1053.483
1052.146
1050.19
1046.079
1054.736
1053.586
1052.16
1049.961
1045.11
1055.857
1054.817
1053.644
1052.154
1049.778
1044.421
1056.862
1055.89
1054.849
1053.666
1052.146
1049.686
1044.094
1057.768
1056.839
1055.871
1054.834
1053.658
1052.147
1049.702
1044.157
1058.585
1057.687
1056.762
1055.8
1054.774
1053.619
1052.153
1049.822
1044.6
1059.322
1058.45
1057.554
1056.633
1055.678
1054.668
1053.544
1052.154
1050.021
1045.374
1059.985
1059.137
1058.266
1057.372
1056.456
1055.51
1054.516
1053.431
1052.138
1050.26
1046.557
1060.591
1059.768
1058.921
1058.051
1057.16
1056.247
1055.308
1054.331
1053.288
1052.099
1050.549
1047.937
1061.174
1060.377
1059.555
1058.709
1057.841
1056.953
1056.042
1055.109
1054.148
1053.143
1052.086
1050.898
1049.277
1061.785
1061.015
1060.219
1059.398
1058.555
1057.689
1056.801
1055.891
1054.962
1054.012
1053.069
1052.148
1051.192
1050.173
1062.423
1061.681
1060.912
1060.118
1059.3
1058.459
1057.594
1056.705
1055.797
1054.871
1053.958
1053.087
1052.242
1051.422
1050.693
1063.073
1062.359
1061.619
1060.853
1060.062
1059.246
1058.405
1057.54
1056.653
1055.746
1054.846
1053.981
1053.147
1052.355
1051.617
1050.91
1063.722
1063.037
1062.326
1061.588
1060.825
1060.037
1059.222
1058.382
1057.517
1056.631
1055.743
1054.878
1054.036
1053.232
1052.48
1051.72
1050.971
1049.263
1050.651
1048.852
1051.995
1050.56
1048.174
1053.316
1052.081
1050.406
1047.197
1054.577
1053.465
1052.135
1050.192
1046.118
1055.742
1054.714
1053.57
1052.153
1049.969
1045.163
1056.804
1055.834
1054.799
1053.632
1052.151
1049.792
1044.482
1057.768
1056.839
1055.871
1054.834
1053.658
1052.147
1049.702
1044.157
1058.643
1057.745
1056.82
1055.856
1054.824
1053.653
1052.149
1049.718
1044.219
1059.435
1058.564
1057.669
1056.747
1055.789
1054.768
1053.615
1052.155
1049.837
1044.658
1060.148
1059.301
1058.432
1057.539
1056.622
1055.672
1054.663
1053.541
1052.156
1050.035
1045.624
1060.788
1059.966
1059.121
1058.253
1057.363
1056.45
1055.505
1054.512
1053.43
1052.141
1050.323
1046.92
1061.37
1060.574
1059.753
1058.909
1058.043
1057.156
1056.244
1055.306
1054.33
1053.29
1052.129
1050.679
1048.284
1061.928
1061.159
1060.364
1059.545
1058.703
1057.839
1056.951
1056.042
1055.11
1054.151
1053.174
1052.176
1051.075
1049.742
1062.512
1061.771
1061.003
1060.21
1059.393
1058.553
1057.688
1056.801
1055.893
1054.966
1054.042
1053.145
1052.259
1051.38
1050.574
1063.122
1062.409
1061.669
1060.904
1060.113
1059.299
1058.458
1057.594
1056.707
1055.8
1054.897
1054.022
1053.173
1052.363
1051.604
1050.871
1063.744
1063.059
1062.348
1061.611
1060.848
1060.06
1059.245
1058.405
1057.541
1056.655
1055.766
1054.897
1054.05
1053.24
1052.481
1051.715
1050.955
1064.364
1063.708
1063.026
1062.318
1061.583
1060.823
1060.035
1059.221
1058.382
1057.518
1056.644
1055.779
1054.929
1054.107
1053.328
1052.551
1051.744
1051.021
1049.487
1050.697
1049.266
1051.91
1050.648
1048.862
1053.132
1051.987
1050.56
1048.193
1054.374
1053.301
1052.073
1050.408
1047.228
1055.572
1054.557
1053.451
1052.129
1050.199
1046.163
1056.687
1055.721
1054.697
1053.558
1052.15
1049.981
1045.216
1057.71
1056.781
1055.815
1054.785
1053.624
1052.152
1049.807
1044.541
1058.643
1057.745
1056.82
1055.856
1054.824
1053.653
1052.149
1049.718
1044.219
1059.491
1058.621
1057.726
1056.804
1055.844
1054.817
1053.649
1052.15
1049.734
1044.281
1060.259
1059.414
1058.545
1057.653
1056.735
1055.781
1054.761
1053.611
1052.156
1049.852
1044.937
1060.947
1060.128
1059.284
1058.418
1057.529
1056.615
1055.665
1054.657
1053.538
1052.158
1050.101
1046.027
1061.563
1060.769
1059.95
1059.108
1058.243
1057.357
1056.444
1055.5
1054.509
1053.429
1052.158
1050.438
1047.256
1062.12
1061.352
1060.559
1059.742
1058.901
1058.038
1057.151
1056.241
1055.304
1054.33
1053.301
1052.186
1050.815
1048.632
1062.653
1061.912
1061.146
1060.354
1059.538
1058.699
1057.836
1056.95
1056.041
1055.111
1054.168
1053.225
1052.269
1051.275
1050.312
1063.21
1062.498
1061.759
1060.994
1060.204
1059.39
1058.551
1057.687
1056.801
1055.895
1054.985
1054.09
1053.215
1052.371
1051.578
1050.811
1063.793
1063.109
1062.398
1061.661
1060.898
1060.111
1059.297
1058.457
1057.594
1056.709
1055.817
1054.939
1054.081
1053.257
1052.483
1051.706
1050.923
1064.386
1063.73
1063.048
1062.34
1061.605
1060.845
1060.058
1059.244
1058.405
1057.542
1056.667
1055.798
1054.944
1054.116
1053.331
1052.551
1051.74
1051.008
1064.977
1064.351
1063.698
1063.018
1062.312
1061.58
1060.82
1060.033
1059.22
1058.382
1057.525
1056.665
1055.812
1054.978
1054.176
1053.381
1052.566
1051.772
1051.077
1049.584
1050.719
1049.489
1051.851
1050.695
1049.274
1052.989
1051.904
1050.651
1048.877
1054.16
1053.121
1051.983
1050.566
1048.218
1055.357
1054.357
1053.29
1052.07
1050.416
1047.264
1056.514
1055.552
1054.542
1053.441
1052.127
1050.211
1046.208
1057.593
1056.665
1055.703
1054.683
1053.551
1052.151
1049.995
1045.269
1058.585
1057.687
1056.762
1055.8
1054.774
1053.619
1052.153
1049.822
1044.6
1059.491
1058.621
1057.726
1056.804
1055.844
1054.817
1053.649
1052.15
1049.734
1044.281
1060.314
1059.47
1058.602
1057.711
1056.792
1055.836
1054.81
1053.645
1052.152
1049.749
1044.575
1061.057
1060.238
1059.396
1058.53
1057.642
1056.727
1055.774
1054.755
1053.607
1052.158
1049.924
1045.376
1061.72
1060.928
1060.11
1059.27
1058.407
1057.521
1056.607
1055.658
1054.652
1053.535
1052.168
1050.216
1046.383
1062.311
1061.544
1060.753
1059.937
1059.098
1058.237
1057.35
1056.439
1055.496
1054.506
1053.424
1052.191
1050.552
1047.562
1062.843
1062.103
1061.338
1060.548
1059.733
1058.896
1058.033
1057.147
1056.238
1055.302
1054.329
1053.322
1052.243
1050.951
1048.969
1063.349
1062.637
1061.899
1061.136
1060.347
1059.534
1058.696
1057.833
1056.948
1056.041
1055.118
1054.193
1053.273
1052.368
1051.509
1050.729
1063.88
1063.196
1062.486
1061.749
1060.988
1060.201
1059.388
1058.549
1057.686
1056.802
1055.904
1055.011
1054.133
1053.283
1052.484
1051.692
1050.875
1064.434
1063.779
1063.097
1062.389
1061.655
1060.895
1060.108
1059.295
1058.456
1057.594
1056.717
1055.841
1054.976
1054.137
1053.338
1052.55
1051.733
1050.982
1064.999
1064.372
1063.719
1063.04
1062.334
1061.602
1060.842
1060.056
1059.243
1058.405
1057.547
1056.684
1055.827
1054.988
1054.18
1053.382
1052.566
1051.769
1051.066
1065.561
1064.964
1064.34
1063.689
1063.012
1062.308
1061.577
1060.818
1060.031
1059.219
1058.382
1057.532
1056.682
1055.843
1055.025
1054.214
1053.39
1052.581
1051.802
1051.137
1050.727
1049.586
1051.815
1050.718
1049.496
1052.896
1051.847
1050.698
1049.287
1053.998
1052.981
1051.903
1050.658
1048.898
1055.136
1054.148
1053.115
1051.983
1050.576
1048.248
1056.299
1055.34
1054.345
1053.283
1052.07
1050.429
1047.301
1057.422
1056.494
1055.536
1054.53
1053.435
1052.13
1050.223
1046.253
1058.471
1057.572
1056.647
1055.689
1054.674
1053.548
1052.153
1050.008
1045.322
1059.435
1058.564
1057.669
1056.747
1055.789
1054.768
1053.615
1052.155
1049.837
1044.658
1060.314
1059.47
1058.602
1057.711
1056.792
1055.836
1054.81
1053.645
1052.152
1049.749
1044.575
1061.111
1060.293
1059.452
1058.587
1057.699
1056.784
1055.828
1054.803
1053.64
1052.153
1049.827
1045.035
1061.828
1061.036
1060.22
1059.381
1058.519
1057.633
1056.719
1055.766
1054.748
1053.604
1052.166
1050.047
1045.757
1062.466
1061.701
1060.911
1060.096
1059.259
1058.399
1057.513
1056.6
1055.652
1054.647
1053.521
1052.189
1050.327
1046.691
1063.031
1062.293
1061.529
1060.74
1059.927
1059.091
1058.23
1057.344
1056.433
1055.491
1054.49
1053.42
1052.225
1050.662
1047.829
1063.537
1062.826
1062.089
1061.326
1060.539
1059.728
1058.89
1058.029
1057.143
1056.235
1055.292
1054.327
1053.341
1052.299
1051.083
1064.017
1063.334
1062.624
1061.889
1061.128
1060.342
1059.53
1058.692
1057.831
1056.946
1056.039
1055.122
1054.211
1053.319
1052.475
1051.672
1050.816
1064.52
1063.865
1063.184
1062.476
1061.743
1060.984
1060.197
1059.385
1058.547
1057.686
1056.803
1055.914
1055.032
1054.17
1053.349
1052.548
1051.722
1050.944
1065.047
1064.42
1063.768
1063.088
1062.383
1061.651
1060.892
1060.106
1059.293
1058.456
1057.595
1056.726
1055.86
1055.009
1054.189
1053.383
1052.564
1051.763
1051.044
1065.583
1064.985
1064.361
1063.71
1063.033
1062.33
1061.599
1060.84
1060.054
1059.241
1058.403
1057.551
1056.697
1055.853
1055.03
1054.215
1053.391
1052.581
1051.799
1051.128
1066.117
1065.549
1064.953
1064.331
1063.683
1063.008
1062.305
1061.574
1060.815
1060.03
1059.214
1058.378
1057.537
1056.698
1055.872
1055.051
1054.22
1053.399
1052.597
1051.833
1051.198
1051.799
1050.727
1049.593
1052.842
1051.812
1050.721
1049.509
1053.894
1052.889
1051.847
1050.706
1049.305
1054.97
1053.989
1052.977
1051.906
1050.67
1048.924
1056.078
1055.123
1054.14
1053.112
1051.988
1050.591
1048.28
1057.209
1056.281
1055.327
1054.336
1053.281
1052.076
1050.442
1047.338
1058.302
1057.402
1056.477
1055.523
1054.523
1053.434
1052.132
1050.235
1046.297
1059.322
1058.45
1057.554
1056.633
1055.678
1054.668
1053.544
1052.154
1050.021
1045.374
1060.259
1059.414
1058.545
1057.653
1056.735
1055.781
1054.761
1053.611
1052.156
1049.852
1044.937
1061.111
1060.293
1059.452
1058.587
1057.699
1056.784
1055.828
1054.803
1053.64
1052.153
1049.827
1045.035
1061.882
1061.091
1060.275
1059.437
1058.575
1057.69
1056.775
1055.82
1054.796
1053.636
1052.162
1049.956
1045.432
1062.572
1061.808
1061.019
1060.206
1059.369
1058.51
1057.625
1056.711
1055.759
1054.742
1053.585
1052.183
1050.162
1046.082
1063.184
1062.447
1061.684
1060.897
1060.086
1059.251
1058.391
1057.506
1056.593
1055.646
1054.621
1053.502
1052.212
1050.431
1046.952
1063.723
1063.013
1062.277
1061.516
1060.73
1059.92
1059.084
1058.223
1057.338
1056.428
1055.468
1054.465
1053.418
1052.259
1050.765
1064.202
1063.52
1062.812
1062.077
1061.317
1060.533
1059.722
1058.885
1058.024
1057.139
1056.219
1055.275
1054.324
1053.359
1052.35
1064.656
1064.002
1063.321
1062.614
1061.881
1061.123
1060.338
1059.526
1058.689
1057.828
1056.938
1056.028
1055.12
1054.224
1053.363
1052.544
1051.709
1050.896
1065.132
1064.506
1063.853
1063.174
1062.469
1061.739
1060.98
1060.194
1059.382
1058.545
1057.681
1056.798
1055.916
1055.046
1054.204
1053.385
1052.563
1051.755
1051.013
1065.63
1065.033
1064.409
1063.759
1063.082
1062.379
1061.648
1060.889
1060.103
1059.292
1058.451
1057.592
1056.729
1055.874
1055.04
1054.218
1053.392
1052.58
1051.795
1051.11
1066.138
1065.57
1064.974
1064.353
1063.704
1063.03
1062.327
1061.596
1060.837
1060.052
1059.235
1058.396
1057.551
1056.707
1055.876
1055.052
1054.221
1053.399
1052.597
1051.832
1051.191
1066.644
1066.104
1065.538
1064.945
1064.325
1063.679
1063.004
1062.302
1061.571
1060.813
1060.02
1059.201
1058.372
1057.539
1056.711
1055.887
1055.054
1054.225
1053.407
1052.614
1051.866
1051.261
1052.817
1051.796
1050.73
1049.605
1053.834
1052.836
1051.813
1050.729
1049.526
1054.863
1053.885
1052.887
1051.851
1050.719
1049.329
1055.913
1054.959
1053.983
1052.977
1051.913
1050.686
1048.951
1056.993
1056.064
1055.113
1054.135
1053.114
1051.997
1050.607
1048.312
1058.094
1057.192
1056.267
1055.317
1054.332
1053.283
1052.081
1050.455
1047.376
1059.157
1058.282
1057.385
1056.465
1055.515
1054.519
1053.433
1052.135
1050.248
1046.342
1060.148
1059.301
1058.432
1057.539
1056.622
1055.672
1054.663
1053.541
1052.156
1050.035
1045.624
1061.057
1060.238
1059.396
1058.53
1057.642
1056.727
1055.774
1054.755
1053.607
1052.158
1049.924
1045.376
1061.882
1061.091
1060.275
1059.437
1058.575
1057.69
1056.775
1055.82
1054.796
1053.636
1052.162
1049.956
1045.432
1062.626
1061.862
1061.073
1060.261
1059.425
1058.566
1057.681
1056.767
1055.812
1054.79
1053.616
1052.178
1050.074
1045.769
1063.289
1062.553
1061.791
1061.005
1060.194
1059.361
1058.501
1057.616
1056.703
1055.751
1054.712
1053.558
1052.201
1050.268
1046.352
1063.874
1063.165
1062.431
1061.671
1060.886
1060.077
1059.243
1058.383
1057.498
1056.586
1055.614
1054.582
1053.487
1052.235
1050.527
1064.386
1063.705
1062.998
1062.264
1061.506
1060.723
1059.913
1059.077
1058.217
1057.332
1056.4
1055.431
1054.444
1053.418
1052.291
1064.839
1064.186
1063.506
1062.8
1062.068
1061.311
1060.527
1059.716
1058.88
1058.019
1057.119
1056.19
1055.257
1054.319
1053.372
1065.266
1064.641
1063.989
1063.311
1062.606
1061.876
1061.118
1060.333
1059.522
1058.685
1057.814
1056.914
1056.01
1055.11
1054.229
1053.387
1052.56
1051.745
1050.974
1065.715
1065.118
1064.494
1063.844
1063.167
1062.465
1061.734
1060.976
1060.191
1059.379
1058.535
1057.664
1056.786
1055.913
1055.056
1054.222
1053.393
1052.579
1051.789
1051.083
1066.185
1065.617
1065.022
1064.4
1063.752
1063.078
1062.375
1061.644
1060.886
1060.101
1059.282
1058.437
1057.583
1056.729
1055.886
1055.056
1054.223
1053.4
1052.596
1051.828
1051.176
1066.665
1066.125
1065.559
1064.966
1064.346
1063.7
1063.026
1062.323
1061.592
1060.834
1060.041
1059.219
1058.386
1057.548
1056.716
1055.889
1055.055
1054.225
1053.408
1052.613
1051.865
1051.255
1067.143
1066.632
1066.094
1065.529
1064.938
1064.321
1063.675
1063
1062.298
1061.568
1060.8
1060
1059.186
1058.363
1057.539
1056.718
1055.888
1055.056
1054.229
1053.416
1052.63
1051.899
1051.323
1053.807
1052.812
1051.797
1050.739
1049.621
1054.802
1053.826
1052.834
1051.818
1050.742
1049.548
1055.808
1054.853
1053.881
1052.888
1051.86
1050.736
1049.354
1056.832
1055.901
1054.951
1053.981
1052.982
1051.925
1050.703
1048.979
1057.883
1056.978
1056.053
1055.107
1054.134
1053.12
1052.007
1050.623
1048.345
1058.953
1058.076
1057.178
1056.257
1055.312
1054.332
1053.284
1052.087
1050.468
1047.413
1059.985
1059.137
1058.266
1057.372
1056.456
1055.51
1054.516
1053.431
1052.138
1050.26
1046.557
1060.947
1060.128
1059.284
1058.418
1057.529
1056.615
1055.665
1054.657
1053.538
1052.158
1050.101
1046.027
1061.828
1061.036
1060.22
1059.381
1058.519
1057.633
1056.719
1055.766
1054.748
1053.604
1052.166
1050.047
1045.757
1062.626
1061.862
1061.073
1060.261
1059.425
1058.566
1057.681
1056.767
1055.812
1054.79
1053.616
1052.178
1050.074
1045.769
1063.342
1062.606
1061.845
1061.059
1060.249
1059.416
1058.557
1057.672
1056.758
1055.804
1054.757
1053.586
1052.195
1050.183
1046.047
1063.978
1063.27
1062.536
1061.777
1060.993
1060.186
1059.352
1058.493
1057.608
1056.695
1055.714
1054.663
1053.535
1052.22
1050.365
1064.536
1063.856
1063.15
1062.417
1061.66
1060.878
1060.069
1059.235
1058.375
1057.491
1056.551
1055.563
1054.548
1053.475
1052.258
1065.022
1064.369
1063.69
1062.985
1062.254
1061.498
1060.715
1059.905
1059.07
1058.21
1057.301
1056.355
1055.398
1054.425
1053.418
1065.448
1064.823
1064.172
1063.494
1062.791
1062.062
1061.305
1060.52
1059.71
1058.875
1057.995
1057.081
1056.161
1055.237
1054.312
1065.848
1065.251
1064.628
1063.978
1063.303
1062.601
1061.87
1061.113
1060.328
1059.518
1058.667
1057.78
1056.883
1055.981
1055.088
1054.227
1053.394
1052.577
1051.782
1051.049
1066.269
1065.701
1065.106
1064.484
1063.837
1063.162
1062.46
1061.73
1060.972
1060.187
1059.364
1058.508
1057.64
1056.768
1055.904
1055.061
1054.225
1053.4
1052.595
1051.824
1051.154
1066.712
1066.172
1065.606
1065.013
1064.393
1063.747
1063.073
1062.371
1061.64
1060.883
1060.087
1059.259
1058.417
1057.57
1056.726
1055.892
1055.057
1054.226
1053.408
1052.613
1051.862
1051.243
1067.164
1066.653
1066.115
1065.55
1064.959
1064.342
1063.696
1063.022
1062.319
1061.589
1060.82
1060.018
1059.2
1058.373
1057.544
1056.72
1055.889
1055.057
1054.229
1053.416
1052.63
1051.898
1051.319
1067.614
1067.131
1066.621
1066.085
1065.523
1064.934
1064.316
1063.671
1062.997
1062.295
1061.552
1060.773
1059.977
1059.168
1058.353
1057.539
1056.718
1055.888
1055.057
1054.233
1053.424
1052.646
1051.931
1051.384
1054.775
1053.799
1052.81
1051.802
1050.752
1049.643
1055.748
1054.793
1053.822
1052.836
1051.827
1050.76
1049.572
1056.728
1055.797
1054.847
1053.88
1052.894
1051.873
1050.754
1049.379
1057.725
1056.819
1055.892
1054.947
1053.982
1052.99
1051.937
1050.721
1049.007
1058.746
1057.867
1056.967
1056.046
1055.105
1054.138
1053.126
1052.017
1050.639
1048.378
1059.785
1058.935
1058.062
1057.167
1056.25
1055.31
1054.331
1053.286
1052.093
1050.482
1047.597
1060.788
1059.966
1059.121
1058.253
1057.363
1056.45
1055.505
1054.512
1053.43
1052.141
1050.323
1046.92
1061.72
1060.928
1060.11
1059.27
1058.407
1057.521
1056.607
1055.658
1054.652
1053.535
1052.168
1050.216
1046.383
1062.572
1061.808
1061.019
1060.206
1059.369
1058.51
1057.625
1056.711
1055.759
1054.742
1053.585
1052.183
1050.162
1046.082
1063.342
1062.606
1061.845
1061.059
1060.249
1059.416
1058.557
1057.672
1056.758
1055.804
1054.757
1053.586
1052.195
1050.183
1046.047
1064.031
1063.323
1062.589
1061.831
1061.047
1060.24
1059.407
1058.548
1057.664
1056.75
1055.765
1054.705
1053.56
1052.212
1050.282
1064.639
1063.96
1063.254
1062.522
1061.766
1060.985
1060.177
1059.343
1058.484
1057.6
1056.655
1055.656
1054.622
1053.517
1052.239
1065.171
1064.519
1063.84
1063.136
1062.407
1061.652
1060.87
1060.061
1059.227
1058.368
1057.453
1056.494
1055.519
1054.519
1053.466
1065.629
1065.005
1064.354
1063.678
1062.975
1062.247
1061.491
1060.708
1059.898
1059.064
1058.177
1057.25
1056.314
1055.369
1054.409
1066.028
1065.432
1064.81
1064.161
1063.485
1062.784
1062.055
1061.298
1060.514
1059.705
1058.847
1057.95
1057.043
1056.13
1055.216
1066.401
1065.833
1065.239
1064.618
1063.97
1063.297
1062.595
1061.865
1061.107
1060.323
1059.495
1058.624
1057.738
1056.84
1055.939
1055.066
1054.228
1053.401
1052.594
1051.819
1051.125
1066.795
1066.255
1065.689
1065.096
1064.477
1063.831
1063.157
1062.455
1061.725
1060.968
1060.168
1059.33
1058.474
1057.609
1056.744
1055.898
1055.06
1054.228
1053.408
1052.612
1051.859
1051.225
1067.21
1066.699
1066.161
1065.597
1065.006
1064.389
1063.743
1063.069
1062.367
1061.637
1060.866
1060.057
1059.231
1058.394
1057.554
1056.724
1055.892
1055.058
1054.23
1053.416
1052.629
1051.897
1051.31
1067.634
1067.151
1066.642
1066.106
1065.543
1064.955
1064.337
1063.691
1063.018
1062.316
1061.572
1060.791
1059.991
1059.178
1058.358
1057.541
1056.719
1055.889
1055.058
1054.233
1053.424
1052.646
1051.931
1051.381
1068.056
1067.602
1067.12
1066.613
1066.079
1065.518
1064.929
1064.312
1063.667
1062.993
1062.277
1061.52
1060.744
1059.952
1059.149
1058.347
1057.538
1056.716
1055.887
1055.058
1054.236
1053.432
1052.662
1051.963
1051.442
1055.721
1054.766
1053.796
1052.813
1051.811
1050.769
1049.666
1056.67
1055.737
1054.787
1053.822
1052.843
1051.841
1050.778
1049.595
1057.624
1056.716
1055.789
1054.844
1053.883
1052.904
1051.886
1050.772
1049.404
1058.592
1057.711
1056.809
1055.887
1054.947
1053.988
1052.999
1051.95
1050.738
1049.036
1059.583
1058.731
1057.855
1056.959
1056.043
1055.106
1054.141
1053.131
1052.026
1050.655
1048.542
1060.591
1059.768
1058.921
1058.051
1057.16
1056.247
1055.308
1054.331
1053.288
1052.099
1050.549
1047.937
1061.563
1060.769
1059.95
1059.108
1058.243
1057.357
1056.444
1055.5
1054.509
1053.429
1052.158
1050.438
1047.256
1062.466
1061.701
1060.911
1060.096
1059.259
1058.399
1057.513
1056.6
1055.652
1054.647
1053.521
1052.189
1050.327
1046.691
1063.289
1062.553
1061.791
1061.005
1060.194
1059.361
1058.501
1057.616
1056.703
1055.751
1054.712
1053.558
1052.201
1050.268
1046.352
1064.031
1063.323
1062.589
1061.831
1061.047
1060.24
1059.407
1058.548
1057.664
1056.75
1055.765
1054.705
1053.56
1052.212
1050.282
1064.691
1064.012
1063.306
1062.575
1061.819
1061.038
1060.231
1059.398
1058.539
1057.655
1056.708
1055.703
1054.66
1053.539
1052.229
1065.273
1064.621
1063.944
1063.24
1062.511
1061.757
1060.976
1060.168
1059.335
1058.476
1057.558
1056.59
1055.604
1054.586
1053.502
1065.777
1065.153
1064.503
1063.827
1063.126
1062.398
1061.643
1060.861
1060.053
1059.219
1058.328
1057.392
1056.443
1055.48
1054.494
1066.208
1065.612
1064.99
1064.342
1063.668
1062.967
1062.239
1061.483
1060.7
1059.891
1059.028
1058.122
1057.204
1056.277
1055.342
1066.58
1066.013
1065.419
1064.798
1064.151
1063.479
1062.777
1062.048
1061.292
1060.508
1059.674
1058.797
1057.905
1057.005
1056.1
1066.927
1066.387
1065.821
1065.228
1064.61
1063.964
1063.291
1062.589
1061.859
1061.102
1060.297
1059.446
1058.573
1057.683
1056.781
1055.904
1055.064
1054.229
1053.409
1052.611
1051.855
1051.201
1067.293
1066.782
1066.244
1065.679
1065.089
1064.472
1063.826
1063.152
1062.45
1061.721
1060.946
1060.127
1059.287
1058.433
1057.573
1056.729
1055.895
1055.06
1054.231
1053.416
1052.629
1051.895
1051.296
1067.681
1067.198
1066.688
1066.152
1065.59
1065.001
1064.384
1063.738
1063.064
1062.363
1061.617
1060.829
1060.022
1059.199
1058.368
1057.545
1056.721
1055.891
1055.059
1054.233
1053.424
1052.646
1051.931
1051.376
1068.077
1067.622
1067.141
1066.633
1066.099
1065.539
1064.95
1064.333
1063.687
1063.014
1062.296
1061.537
1060.758
1059.961
1059.154
1058.349
1057.539
1056.717
1055.888
1055.059
1054.236
1053.432
1052.663
1051.963
1051.441
1068.471
1068.044
1067.591
1067.112
1066.606
1066.074
1065.513
1064.925
1064.308
1063.663
1062.973
1062.24
1061.486
1060.713
1059.925
1059.138
1058.344
1057.535
1056.714
1055.886
1055.059
1054.24
1053.44
1052.678
1051.993
1051.522
1056.643
1055.71
1054.76
1053.796
1052.819
1051.826
1050.788
1049.689
1057.567
1056.658
1055.73
1054.785
1053.826
1052.853
1051.855
1050.796
1049.619
1058.494
1057.612
1056.708
1055.785
1054.846
1053.89
1052.914
1051.9
1050.79
1049.429
1059.432
1058.578
1057.701
1056.803
1055.886
1054.951
1053.994
1053.008
1051.962
1050.756
1049.178
1060.393
1059.567
1058.718
1057.847
1056.954
1056.042
1055.107
1054.144
1053.137
1052.036
1050.737
1048.883
1061.37
1060.574
1059.753
1058.909
1058.043
1057.156
1056.244
1055.306
1054.33
1053.29
1052.129
1050.679
1048.284
1062.311
1061.544
1060.753
1059.937
1059.098
1058.237
1057.35
1056.439
1055.496
1054.506
1053.424
1052.191
1050.552
1047.562
1063.184
1062.447
1061.684
1060.897
1060.086
1059.251
1058.391
1057.506
1056.593
1055.646
1054.621
1053.502
1052.212
1050.431
1046.952
1063.978
1063.27
1062.536
1061.777
1060.993
1060.186
1059.352
1058.493
1057.608
1056.695
1055.714
1054.663
1053.535
1052.22
1050.365
1064.691