/*--------------------------------*- C++ -*----------------------------------*\
| =========                 |                                                 |
| \\      /  F ield         | OpenFOAM: The Open Source CFD Toolbox           |
|  \\    /   O peration     | Version:  2306                                  |
|   \\  /    A nd           | Website:  www.openfoam.com                      |
|    \\/     M anipulation  |                                                 |
\*---------------------------------------------------------------------------*/
FoamFile
{
    version     2.0;
    format      ascii;
    arch        "LSB;label=32;scalar=64";
    class       volVectorField;
    location    "1.5/phiEC";
    object      i;
}
// * * * * * * * * * * * * * * * * * * * * * * * * * * * * * * * * * * * * * //

dimensions      [0 -2 0 0 0 1 0];

internalField   nonuniform List<vector> 
20000
(
(42.01846 88.86026 19243.78)
(41.56685 259.8599 19052.53)
(100.9489 84.34419 18389.36)
(128.8661 293.6451 20042.97)
(40.69729 410.2541 18682.59)
(99.90732 246.6483 18207.87)
(127.3641 862.5294 19801.07)
(117.9359 78.44458 17195.58)
(308.6907 278.6251 19128.87)
(224.8379 572.6544 21846.31)
(39.47972 525.3722 18161.05)
(97.90224 389.3828 17856.84)
(124.4516 1372.702 19321.99)
(116.7839 229.3934 17026.82)
(305.2346 818.3844 18899.52)
(221.8776 1701.812 21534.4)
(111.9607 72.82452 16003.01)
(359.3339 259.084 17870.59)
(535.4242 543.0508 20799.56)
(338.2149 917.4529 24939.13)
(38.0226 590.9822 17532.29)
(95.09546 498.6252 17362)
(120.3311 1775.219 18621.9)
(114.5668 362.1355 16700.4)
(298.5351 1302.372 18445.33)
(216.0304 2768.587 20880.5)
(110.9079 212.958 15846.34)
(355.5221 760.974 17657.42)
(528.6385 1613.737 20504.13)
(333.4182 2794.147 24676.95)
(98.99356 67.91602 14933.91)
(340.3732 240.5073 16624.73)
(618.7633 504.7973 19397.81)
(798.3904 869.4857 23666.18)
(479.4289 1097.016 29131.6)
(36.46934 596.6493 16858.6)
(91.73737 560.8785 16765.45)
(115.3455 2013.923 17742.7)
(111.4644 463.7234 16240.27)
(289.0615 1684.158 17781.7)
(207.5202 3683.957 19832.84)
(108.8818 336.1875 15543.33)
(348.1362 1210.971 17235.28)
(515.2441 2625.014 19884.88)
(323.5751 4775.835 24053.86)
(98.08097 198.6042 14787.81)
(336.8944 706.4068 16426.87)
(611.3137 1500.011 19123.37)
(787.4405 2647.75 23418.06)
(473.6566 3472.367 29313.52)
(85.99436 63.69859 14004.88)
(300.6323 224.2958 15512.73)
(583.5322 468.5551 18032.57)
(912.7338 807.9537 22021.31)
(1118.99 1039.293 27540.16)
(612.2351 689.4622 32172.2)
(34.9828 540.0823 16213.92)
(88.15828 566.2514 16126.29)
(109.9912 2040.1 16771.84)
(107.7536 521.6104 15685.58)
(277.604 1910.524 16948.41)
(196.8807 4291.104 18351.48)
(106.0471 430.4934 15116.19)
(337.6974 1565.907 16618.55)
(495.767 3492.46 18893)
(308.2986 6833.249 22816.13)
(96.3249 313.5276 14505.22)
(330.1549 1124.125 16035.06)
(596.6199 2439.872 18548.19)
(764.9973 4524.639 22828.59)
(461.0829 6490.223 29734.72)
(85.20794 186.2715 13867.85)
(297.6186 658.7911 15328.21)
(576.7495 1392.302 17777.88)
(900.772 2460.217 21790.93)
(1105.843 3288.907 27712.08)
(608.6935 2059.022 32705.89)
(74.9466 60.05185 13198.69)
(261.0507 210.3702 14548.1)
(514.3195 436.9698 16823.77)
(855.1815 749.8682 20452.86)
(1261.427 965.5506 25563.25)
(1413.792 654.0465 30323.75)
(708.5432 427.478 33421.22)
(33.7183 428.2017 15667.26)
(84.73284 512.5718 15514.66)
(104.8689 1842.601 15849.8)
(103.7995 526.6041 15091.3)
(265.3022 1935.334 16028.33)
(185.1719 4382.45 16519.59)
(102.6571 484.2296 14601.29)
(325.0794 1776.329 15844.19)
(471.439 4067.621 17490.91)
(287.461 8640.428 20396.87)
(93.86809 401.4768 14106.87)
(320.6325 1453.59 15462.64)
(575.2759 3245.907 17627.02)
(730.2256 6472.108 21658.2)
(439.1078 10997.93 30571.92)
(83.69469 294.0587 13602.8)
(291.7806 1048.352 14962.81)
(563.3758 2264.635 17244.12)
(876.289 4203.685 21243.73)
(1077.27 6144.735 28110.42)
(601.5971 3316.839 33943.86)
(74.26264 175.6075 13069.5)
(258.454 617.89 14375.03)
(508.4489 1298.446 16586.26)
(844.3179 2283.302 20239.09)
(1247.107 3055.173 25722.78)
(1405.652 1952.642 30827.81)
(706.4773 1229.599 33892.15)
(65.98457 56.85894 12492.69)
(227.4922 198.3294 13711.44)
(446.2527 409.849 15778.51)
(751.4434 699.3181 19078.31)
(1172.132 896.0896 23720.47)
(1572.86 608.0552 28095.84)
(1624.893 406.8184 31424.33)
(811.9247 218.5355 34219.28)
(32.80255 274.2047 15272.84)
(81.81862 406.3992 14996)
(100.5333 1453.943 15085.11)
(100.0149 476.6857 14522.59)
(253.5324 1748.023 15154.46)
(174.0508 3913.541 14884.06)
(99.0451 488.8644 14049.62)
(311.5356 1799.384 14989.23)
(444.6813 4154.151 15757.37)
(262.4352 8974.948 15512.32)
(90.93026 451.5907 13626.67)
(309.125 1648.905 14743.95)
(548.6451 3780.247 16325.07)
(682.8874 8181.794 19371.4)
(401.9744 18898.74 32344.44)
(81.57762 376.547 13229.18)
(283.5328 1355.607 14428.99)
(543.9594 3012.712 16389.32)
(838.4343 6012.15 20157.48)
(1027.498 10406.84 28902.69)
(591.3848 3959.839 36320.52)
(72.94653 277.2244 12819.62)
(253.4241 983.2668 14032.31)
(496.8753 2111.971 16088.48)
(822.0975 3901.262 19731.37)
(1216.064 5706.776 26092.53)
(1389.394 3143.752 31997.64)
(702.5431 1817.799 34865.55)
(65.38218 166.2707 12370.36)
(225.2339 582.5249 13548.27)
(441.1957 1217.859 15555.73)
(742.0496 2129.377 18878.95)
(1159.146 2835.28 23868.45)
(1563.901 1815.036 28563.4)
(1620.028 1169.597 31867.85)
(811.1233 614.6965 34596.18)
(58.74599 54.02798 11867.29)
(200.2943 187.7867 12978.75)
(388.8169 386.4 14872.74)
(651.2573 655.9307 17894.46)
(1026 835.6904 22122.66)
(1450.509 564.4516 26053.57)
(1792.256 378.8308 29075.66)
(1848.348 210.5213 32084.9)
(921.9819 50.58318 34661.79)
(32.32273 94.3005 15066.75)
(79.70778 260.249 14621.77)
(97.41195 926.8009 14545.6)
(96.7947 377.951 14040.33)
(243.5674 1379.374 14429.64)
(164.8129 3036.601 13628.51)
(95.58801 442.5241 13521.7)
(298.5761 1625.253 14177.18)
(419.2573 3709.951 14209.32)
(239.8163 7624.755 12425.42)
(87.80007 455.9129 13112.19)
(296.7751 1670.302 13950.46)
(519.374 3860.632 14715.51)
(626.1179 8498.501 14755.59)
(336.5181 20325.36 7344.712)
(79.0461 423.5494 12778.8)
(273.5665 1537.756 13758.74)
(519.7466 3508.602 15181.22)
(787.0162 7599.352 18035.5)
(943.713 17872.84 30580.41)
(580.6941 2012.56 40735.6)
(71.10527 354.9908 12467.39)
(246.3179 1271.449 13531.61)
(480.0755 2809.615 15291.31)
(787.7747 5579.381 18723.57)
(1162.201 9662.353 26828.18)
(1366.104 3750.809 34244.57)
(697.4617 1860.151 36343.48)
(64.22305 262.485 12133.77)
(220.8592 926.9911 13225.15)
(431.2264 1980.9 15088.82)
(722.8403 3638.253 18405.45)
(1131.031 5295.674 24211.48)
(1546.074 2921.365 29648.78)
(1610.819 1727.643 32785.47)
(809.6044 865.5084 35303.51)
(58.20911 157.9923 11751.06)
(198.3052 551.5599 12824.25)
(384.4187 1148.184 14662.69)
(643.1675 1997.271 17707.45)
(1014.777 2644.161 22260.63)
(1442.348 1684.786 26487.24)
(1786.761 1088.855 29486.48)
(1846.218 591.4929 32437.37)
(922.3584 145.3753 34991.36)
(52.83103 51.49014 11307.29)
(178.3326 178.4387 12329.61)
(342.3509 365.8675 14079.49)
(567.2953 618.4194 16869.71)
(887.9725 783.8607 20752.06)
(1265.343 526.4431 24296.27)
(1644.882 351.8727 26949.99)
(2020.293 197.233 29642.42)
(2082.579 54.3481 32396.08)
(1038.496 -111.0325 34797.39)
(32.32273 -94.30049 15066.75)
(78.6016 89.50229 14426.22)
(95.78358 317.8807 14268.01)
(94.46168 242.0345 13692.35)
(236.3907 879.3035 13918.2)
(158.2832 1908.41 12795.75)
(92.64614 350.8665 13074.02)
(287.6001 1282.526 13503.59)
(398.1229 2878.924 13020.62)
(222.1117 5630.566 10505.05)
(84.80415 412.6961 12619.86)
(284.9575 1508.668 13196.78)
(491.5501 3447.957 13278.02)
(574.7405 7221.521 11837.11)
(291.7125 13928.08 5324.189)
(76.34884 427.6033 12296.26)
(262.8714 1557.709 13018.75)
(493.1418 3583.201 13687.74)
(725.461 7893.48 13752.93)
(796.5598 19222.74 6974.297)
(68.90356 399.3029 12042.79)
(237.7316 1442.291 12902.95)
(459.1297 3272.07 14164.67)
(741.2049 7052.062 16754.96)
(1071.934 16589.35 28386.12)
(1341.841 1905.652 38419.56)
(693.1522 844.4728 38005.95)
(62.60139 336.1172 11800.26)
(214.6789 1198.682 12753.09)
(416.7562 2635.257 14341.08)
(693.1793 5203.223 17465.6)
(1082.336 8965.535 24894.05)
(1520.672 3484.315 31734.03)
(1599.016 1766.242 34180.32)
(807.7003 819.4319 36203.53)
(57.17602 249.4164 11526.25)
(194.4522 877.7169 12518.3)
(375.7483 1867.577 14222.47)
(626.6255 3412.558 17263.3)
(990.4903 4938.67 22580.49)
(1426.137 2711.462 27494.07)
(1776.424 1607.677 30336.85)
(1842.263 831.2779 33099.77)
(922.9163 210.4485 35570.81)
(52.34766 150.5711 11196.52)
(176.5597 524.1036 12182.8)
(338.4769 1087.173 13880.6)
(560.2593 1883.059 16693.38)
(878.3085 2480.181 20881.47)
(1258.278 1571.319 24700.64)
(1639.823 1011.28 27330.84)
(2017.601 553.8461 29967.76)
(2082.87 154.7195 32700.05)
(1040.254 -294.3205 35159.57)
(47.91607 49.1943 10801.21)
(160.3866 170.0582 11748.23)
(304.8499 347.6602 13376.48)
(499.5448 585.5712 15972.2)
(773.269 739.0504 19566.89)
(1093.801 493.7995 22793.04)
(1431.834 328.2351 25131.03)
(1844.972 183.5983 27462.49)
(2254.496 53.49185 29881.22)
(2326.405 -93.45406 32405.77)
(1161.144 -311.6012 34594.72)
(32.80255 -274.2047 15272.84)
(78.6016 -89.50229 14426.22)
(95.78358 -317.8807 14268.01)
(93.23887 83.23875 13510.52)
(232.6458 301.597 13655.03)
(154.9191 649.477 12383.44)
(90.51457 224.6907 12751)
(279.6922 817.585 13028.27)
(383.1737 1809.472 12232.01)
(210.1591 3416.943 9386.656)
(82.25464 327.2166 12202.36)
(274.9469 1190.535 12571.61)
(468.4007 2675.765 12174.05)
(534.4586 5333.994 10020.72)
(261.678 9114.126 4193.048)
(73.76729 387.0698 11834.5)
(252.637 1406.971 12315.88)
(467.8471 3200.218 12353.88)
(669.6654 6708.161 11044.49)
(695.4422 13179.68 5064.707)
(66.5577 403.1248 11587.86)
(228.5173 1461.006 12208.87)
(436.1175 3341.637 12771.88)
(685.4995 7324.992 12782.05)
(914.082 17842.65 6492.503)
(60.66226 378.0737 11398.23)
(207.2112 1359.749 12160.39)
(398.716 3069.023 13284.3)
(652.9507 6576.6 15629.72)
(1000.903 15391.65 26339.68)
(1494.354 1769.931 35608.99)
(1589.084 801.3784 35750.85)
(806.2047 350.0845 36961.33)
(55.7307 319.3829 11209.34)
(189.0087 1134.969 12071.32)
(363.1633 2484.511 13517.47)
(601.0858 4880.484 16381.68)
(948.4537 8361.066 23217.01)
(1403.091 3233.609 29428.6)
(1763.288 1642.801 31630.21)
(1837.431 785.4349 33944.27)
(923.387 202.3236 36228.38)
(51.41754 237.7009 10982.26)
(173.1255 834.0259 11892.07)
(330.8397 1768.346 13463.75)
(545.8725 3217.436 16274.59)
(857.3977 4632.439 21181.47)
(1244.253 2528.801 25639.49)
(1630.329 1492.912 28119.32)
(2012.69 777.6357 30579.61)
(2083.208 220.7352 33235.14)
(1043.171 -371.5163 35783.34)
(47.47724 143.8575 10695.37)
(158.7904 499.4891 11608.31)
(301.3968 1033.072 13187.48)
(493.347 1783.043 15805.23)
(764.8638 2338.413 19688.89)
(1087.714 1473.887 23172.32)
(1427.436 943.3242 25486.09)
(1842.387 515.4552 27763.72)
(2254.126 151.6676 30159.88)
(2329.366 -247.5744 32734.11)
(1164.905 -840.5759 35090.46)
(43.76244 47.10192 10340.35)
(145.473 162.4766 11222.74)
(274.2056 331.3363 12746.63)
(444.9054 556.4405 15176.43)
(681.0059 699.8079 18528.71)
(952.292 465.5696 21494.01)
(1236.807 307.8928 23577.99)
(1602.543 171.3755 25608.06)
(2048.319 50.64956 27670.52)
(2492.849 -81.42156 29838.33)
(2578.485 -273.9885 32088.89)
(1289.079 -606.7734 33921.37)
(33.7183 -428.2017 15667.26)
(79.70778 -260.249 14621.77)
(97.41195 -926.8009 14545.6)
(93.23887 -83.23875 13510.52)
(232.6458 -301.597 13655.03)
(154.9191 -649.477 12383.44)
(89.39725 77.27419 12582.2)
(275.5645 280.4315 12783.68)
(375.468 615.8363 11841.51)
(204.17 1142.504 8871.293)
(80.40729 209.5456 11901.11)
(267.7331 758.9471 12130.44)
(452.0124 1681.861 11441.58)
(507.2247 3237.526 8962.517)
(243.111 5175.919 3582.409)
(71.57038 306.8978 11442.92)
(243.967 1110.282 11732.86)
(446.7934 2483.548 11329.45)
(625.8326 4955.407 9358.459)
(627.4407 8628.111 3995.216)
(64.31248 364.9115 11152.53)
(219.7 1319.624 11549.62)
(414.2369 2984.473 11527.96)
(634.9691 6225.237 10269.29)
(805.1137 12236.89 4720.68)
(58.59617 381.6925 10967.49)
(199.1974 1377.394 11506.01)
(378.8966 3134.273 11977.87)
(604.845 6831.122 11924.71)
(858.7856 16554.54 6031.192)
(54.00242 359.2508 10827.32)
(182.4313 1287.476 11510.11)
(347.4735 2893.474 12521.07)
(566.4503 6168.719 14659.56)
(878.2097 14353.85 24565.14)
(1379.276 1642.481 33023.69)
(1752.327 745.1482 33087.16)
(1833.72 335.1285 34656.75)
(923.6104 86.66725 36697.56)
(50.11627 304.3812 10680.24)
(168.2737 1078.474 11467.33)
(319.7544 2352.509 12796.18)
(523.6601 4601.471 15443.32)
(821.2113 7842.729 21778.49)
(1224.332 3015.708 27443.48)
(1618.309 1525.271 29318.82)
(2006.822 734.0032 31360.42)
(2083.327 209.2649 33843.49)
(1046.19 -307.3225 36465.49)
(46.63284 227.1025 10490.67)
(155.6983 794.8567 11331.24)
(294.5892 1680.352 12791.36)
(480.6735 3046.566 15408.65)
(746.6768 4367.699 19971.73)
(1075.632 2372.007 24052.93)
(1419.192 1392.536 26221.23)
(1837.699 723.4889 28330.36)
(2253.365 215.0215 30650.71)
(2334.273 -312.1617 33299.75)
(1171.276 -1095.464 35962.33)
(43.36134 137.7388 10239.01)
(144.0239 477.2209 11089.05)
(271.0964 984.5667 12566.5)
(439.3804 1694.346 15017.76)
(673.6013 2214.259 18644.23)
(946.9967 1389.633 21851.61)
(1233.013 884.8597 23911.02)
(1600.261 481.1117 25888.78)
(2047.721 143.4127 27927.87)
(2494.819 -215.6369 30136.74)
(2585.153 -739.2532 32532.59)
(1296.041 -1661.931 34670.8)
(40.19822 45.18337 9918.053)
(132.8681 155.5667 10744.14)
(248.7343 316.5676 12177.14)
(400.2548 530.3211 14463.14)
(606.6614 665.0042 17607.77)
(838.778 440.8465 20355.91)
(1076.656 290.29 22236.45)
(1383.259 160.7773 24027.81)
(1775.302 47.51451 25801.63)
(2252.932 -73.76031 27617.76)
(2733.297 -244.919 29493.55)
(2836.522 -537.15 31329.21)
(1420.359 -1061.031 32524.51)
(34.9828 -540.0823 16213.92)
(81.81862 -406.3992 14996)
(100.5333 -1453.943 15085.11)
(94.46168 -242.0345 13692.35)
(236.3907 -879.3035 13918.2)
(158.2832 -1908.41 12795.75)
(89.39725 -77.27419 12582.2)
(275.5645 -280.4315 12783.68)
(375.468 -615.8363 11841.51)
(204.17 -1142.504 8871.293)
(79.43892 72.06559 11743.69)
(263.9672 260.3198 11903.42)
(443.5599 572.4204 11078.84)
(493.5659 1082.613 8474.778)
(234.2222 1680.202 3313.56)
(69.97851 196.5335 11160.37)
(237.7188 707.7877 11321.43)
(431.8825 1561.064 10649.73)
(596.1481 3008.017 8376.018)
(585.3012 4901.361 3417.649)
(62.40178 289.3288 10783.36)
(212.2304 1041.353 11002.77)
(396.0222 2316.119 10572.61)
(595.2352 4598.822 8704.973)
(731.5506 8012.716 3728.137)
(56.61872 345.5106 10555.29)
(191.5288 1244.101 10884.46)
(360.0515 2799.265 10811.08)
(561.1967 5805.518 9581.389)
(760.4681 11354.37 4387.466)
(52.16099 362.6894 10418.02)
(175.3729 1304.183 10890.48)
(330.2363 2954.992 11289.29)
(525.0362 6407.452 11184.09)
(755.7092 15438.3 5626.072)
(48.56023 342.3766 10316.16)
(162.4112 1223.391 10934.04)
(305.934 2739.752 11852.67)
(493.537 5816.105 13819.52)
(760.7555 13464.21 23043.01)
(1203.766 1531.783 30796.11)
(1608.315 691.7669 30670.28)
(2002.411 312.9805 32019.82)
(2083.235 88.90113 34278.45)
(1048.116 -119.0942 36927.16)
(45.45147 290.8098 10202.11)
(151.3299 1027.826 10926.43)
(284.7079 2235.453 12156.98)
(461.1061 4357.13 14621.48)
(715.2044 7394.645 20534.61)
(1058.477 2828.74 25745.05)
(1408.768 1422.659 27339.67)
(1832.145 682.6468 29053.74)
(2252.341 202.5949 31209.26)
(2339.343 -257.8753 33918.59)
(1178.077 -941.4976 36948.53)
(42.58954 217.4433 10043.02)
(141.2167 759.421 10824.33)
(264.9666 1601.458 12188.97)
(428.0826 2895.028 14640.89)
(657.5791 4135.845 18912.04)
(936.4878 2236.431 22681.89)
(1225.902 1306.226 24600.53)
(1596.133 675.2195 26416.9)
(2046.601 202.8833 28381.3)
(2498.074 -271.748 30650.93)
(2596.45 -963.7428 33312.79)
(1308.125 -2229.584 36053.49)
(39.82957 132.1285 9820.846)
(131.5435 456.9255 10616.14)
(245.9113 940.6823 12005.04)
(395.2796 1614.816 14311.91)
(600.0602 2104.145 17717.54)
(834.1131 1315.845 20694.53)
(1073.354 834.2732 22550.43)
(1381.28 451.3538 24291.08)
(1774.7 134.4818 26041.29)
(2254.245 -195.3303 27892.51)
(2738.286 -660.9296 29894.29)
(2848.983 -1471.477 31995.36)
(1432.449 -2972.697 33644.63)
(37.09937 43.41542 9529.103)
(122.0507 149.2307 10305.55)
(227.2006 303.1067 11658.35)
(363.1298 506.6886 13817.94)
(545.9037 633.7962 16781.84)
(747.3743 418.9204 19345.95)
(948.4032 274.8724 21060.88)
(1204.003 151.5852 22663.23)
(1531.29 44.62609 24212.2)
(1948.374 -68.28725 25752.74)
(2456.878 -224.0989 27286.71)
(2973.068 -482.1613 28744.15)
(3096.206 -940.1384 29903.31)
(1551.199 -1726.893 30033.74)
(36.46934 -596.6493 16858.6)
(84.73284 -512.5718 15514.66)
(104.8689 -1842.601 15849.8)
(96.7947 -377.951 14040.33)
(243.5674 -1379.374 14429.64)
(164.8129 -3036.601 13628.51)
(90.51457 -224.6907 12751)
(279.6922 -817.585 13028.27)
(383.1737 -1809.472 12232.01)
(210.1591 -3416.943 9386.656)
(79.43892 -72.06559 11743.69)
(263.9672 -260.3198 11903.42)
(443.5599 -572.4204 11078.84)
(493.5659 -1082.613 8474.778)
(234.2222 -1680.202 3313.56)
(69.14405 67.59052 11012.73)
(234.4568 242.772 11109.72)
(424.1898 531.3113 10313.11)
(581.2438 1005.916 7923.146)
(565.0973 1591.314 3163.298)
(61.01731 185.2824 10516.98)
(206.8471 663.8451 10616.88)
(383.12 1455.825 9938.721)
(568.3046 2791.637 7793.41)
(685.8338 4552.486 3192.026)
(54.9359 273.9461 10205.74)
(185.0324 981.7537 10368.89)
(344.363 2172.378 9914.975)
(526.8627 4288.762 8122.553)
(693.9745 7435.312 3466.627)
(50.39855 328.3088 10026.34)
(168.6186 1177.974 10301.95)
(313.8465 2639.138 10189.18)
(487.457 5445.414 8985.989)
(670.8976 10588.78 4093.186)
(46.90232 345.6537 9926.083)
(156.1199 1239.267 10345.24)
(290.7504 2798.003 10686.26)
(457.5186 6041.189 10542.47)
(655.3445 14481.42 5276.871)
(44.03882 327.1112 9854.259)
(146.0514 1165.938 10418.18)
(272.3885 2603.434 11260.38)
(434.5693 5507.304 13083.81)
(662.6244 12695.18 21726.85)
(1040.77 1436.82 28889.85)
(1400.113 645.2123 28599.9)
(1828.002 291.0148 29664.88)
(2251.514 85.74919 31609.05)
(2342.571 -99.83394 34337.62)
(1182.564 -375.0084 37644.33)
(41.50974 278.441 9766.729)
(137.2507 982.0047 10437.56)
(256.0691 2130.502 11584.35)
(410.6388 4140.428 13892.83)
(629.8517 7002.206 19445.03)
(921.5655 2667.087 24277.33)
(1216.915 1334.479 25649.58)
(1591.256 637.0366 27091.19)
(2045.232 190.7552 28897.48)
(2501.423 -224.3424 31213.65)
(2608.511 -828.6114 34195.07)
(1321.535 -1989.325 37749.5)
(39.1202 208.5865 9632.831)
(128.9776 727.1245 10362.67)
(240.346 1530.08 11644.32)
(385.106 2759.15 13952.72)
(585.7761 3930.204 17972.03)
(824.855 2117.694 21480.73)
(1067.167 1231.558 23200.53)
(1377.703 633.4439 24786.38)
(1773.591 190.1288 26463.58)
(2256.412 -246.1177 28365.97)
(2746.743 -861.8861 30598.97)
(2870.61 -1974.646 33224.41)
(1454.183 -4174.164 35859.62)
(36.75898 126.9585 9435.699)
(120.8332 438.3159 10182.76)
(224.6202 900.6838 11493.56)
(358.6125 1542.858 13673.45)
(539.9591 2005.406 16886.46)
(743.2157 1250.403 19667.72)
(945.4942 789.9668 21358.2)
(1202.278 425.5492 22911.45)
(1530.746 126.2947 24436.93)
(1949.356 -180.8353 26008.36)
(2460.559 -604.798 27654.83)
(2982.594 -1321.054 29343.92)
(3117.841 -2634.458 30894.99)
(1571.006 -4997.043 31551.08)
(34.37504 41.77945 9169.333)
(112.6447 143.392 9901.551)
(208.7165 290.7636 11182.82)
(331.7328 485.1477 13229.98)
(495.3656 605.5582 16034.43)
(672.6676 399.2604 18439.82)
(845.1746 261.1997 20017.35)
(1060.687 143.5311 21467.22)
(1332.715 42.07549 22840.12)
(1679.41 -63.94496 24169.7)
(2120.109 -208.1042 25445.41)
(2657.746 -441.888 26583.86)
(3207.832 -844.6859 27390.74)
(3349.899 -1528.83 27484.64)
(1675.27 -2578.373 50817.12)
(38.0226 -590.9822 17532.29)
(88.15828 -566.2514 16126.29)
(109.9912 -2040.1 16771.84)
(100.0149 -476.6857 14522.59)
(253.5324 -1748.023 15154.46)
(174.0508 -3913.541 14884.06)
(92.64614 -350.8665 13074.02)
(287.6001 -1282.526 13503.59)
(398.1229 -2878.924 13020.62)
(222.1117 -5630.566 10505.05)
(80.40729 -209.5456 11901.11)
(267.7331 -758.9471 12130.44)
(452.0124 -1681.861 11441.58)
(507.2247 -3237.526 8962.517)
(243.111 -5175.919 3582.409)
(69.14405 -67.59052 11012.73)
(234.4568 -242.772 11109.72)
(424.1898 -531.3113 10313.11)
(581.2438 -1005.916 7923.146)
(565.0973 -1591.314 3163.298)
(60.29157 63.72106 10377.79)
(204.0367 227.6995 10418.3)
(376.4629 495.4931 9624.793)
(554.7758 933.5697 7373.196)
(663.8762 1478.164 2955.902)
(53.71655 175.4314 9953.532)
(180.3505 625.8507 10005.07)
(333.2499 1365.471 9320.401)
(503.5852 2603.423 7272.457)
(652.5947 4224.618 2969.221)
(48.89871 260.3071 9694.194)
(162.8967 929.5696 9813.772)
(300.2021 2048.103 9344.29)
(457.8945 4022.708 7617.579)
(613.501 6933.982 3234.441)
(45.31552 312.8879 9552.799)
(150.0997 1119.339 9785.988)
(276.3134 2498.923 9644.545)
(424.8355 5134.101 8469.891)
(582.351 9932.287 3838.961)
(42.53368 330.2423 9481.572)
(140.3869 1181.068 9857.014)
(258.8538 2658.787 10151.96)
(402.8382 5720.437 9980.542)
(570.9459 13654.26 4974.53)
(40.21854 313.1986 9433.673)
(132.4584 1113.961 9951.957)
(244.976 2481.211 10729.82)
(386.9811 5233.426 12431.56)
(583.5262 12021.62 20573.97)
(906.1649 1354.72 27242.48)
(1209.457 605.2196 26831.65)
(1587.629 271.5532 27660.91)
(2044.206 80.63514 29267.09)
(2503.547 -86.80982 31594.8)
(2616.471 -330.1332 34817.36)
(1330.813 -814.8988 39085.58)
(38.12774 267.0998 9367.797)
(125.3525 940.2429 9992.351)
(232.2676 2035.547 11066.64)
(369.3974 3946.115 13239.74)
(561.0555 6654.116 18478.5)
(811.7086 2525.511 22991.5)
(1059.347 1258.205 24189.63)
(1373.481 597.612 25418.78)
(1772.265 178.6523 26944.36)
(2258.635 -203.1416 28884.2)
(2755.78 -741.2834 31395.84)
(2894.612 -1762.439 34732.01)
(1479.826 -3973.587 38940.57)
(36.10397 200.4249 9255.041)
(118.4748 697.5106 9939.608)
(219.533 1465.021 11148.18)
(349.375 2636.206 13330.25)
(527.0954 3745.797 17129)
(734.9623 2012.386 20414.84)
(940.0433 1166.16 21973.79)
(1199.162 597.2308 23378.43)
(1529.749 178.5278 24832.9)
(1950.973 -227.8498 26448.88)
(2466.805 -788.8083 28302.2)
(2999.133 -1773.296 30450.65)
(3156.733 -3700.392 32856.94)
(1608.392 -7525.526 34829.82)
(34.05952 122.1745 9079.448)
(111.5205 421.1667 9783.564)
(206.3447 864.0064 11024.74)
(327.6034 1477.268 13091.63)
(489.9678 1916.063 16134.39)
(668.9227 1191.724 18746.5)
(842.5815 750.6743 20299.88)
(1059.168 402.94 21702.26)
(1332.236 119.0755 23051.99)
(1680.21 -169.3386 24409.33)
(2123.018 -561.656 25787.68)
(2664.907 -1210.825 27134.19)
(3224.403 -2367.428 28282.16)
(3385.229 -4425.112 28822.97)
(1705.26 -7768.774 54209.24)
(31.95744 40.26028 8835.353)
(104.3749 137.9891 9527.838)
(192.6412 279.3887 10744.73)
(304.7732 465.3947 12690.92)
(452.605 579.8186 15353.09)
(610.5024 381.472 17619.57)
(760.7963 248.9412 19080.83)
(945.3794 136.3898 20405.16)
(1174.211 39.83402 21637.17)
(1461.506 -60.28641 22803.44)
(1826.219 -195.0055 23885.4)
(2288.505 -410.5486 24793.01)
(2851.992 -774.4272 25327)
(3430.699 -1373.588 25141.41)
(3585.44 -2278.47 46218.58)
(229.2382 -522.8185 16010.52)
(39.47972 -525.3722 18161.05)
(91.73737 -560.8785 16765.45)
(115.3455 -2013.923 17742.7)
(103.7995 -526.6041 15091.3)
(265.3022 -1935.334 16028.33)
(185.1719 -4382.45 16519.59)
(95.58801 -442.5241 13521.7)
(298.5761 -1625.253 14177.18)
(419.2573 -3709.951 14209.32)
(239.8163 -7624.755 12425.42)
(82.25464 -327.2166 12202.36)
(274.9469 -1190.535 12571.61)
(468.4007 -2675.765 12174.05)
(534.4586 -5333.994 10020.72)
(261.678 -9114.126 4193.048)
(69.97851 -196.5335 11160.37)
(237.7188 -707.7877 11321.43)
(431.8825 -1561.064 10649.73)
(596.1481 -3008.017 8376.018)
(585.3012 -4901.361 3417.649)
(60.29157 -63.72106 10377.79)
(204.0367 -227.6995 10418.3)
(376.4629 -495.4931 9624.793)
(554.7758 -933.5697 7373.196)
(663.8762 -1478.164 2955.902)
(53.07737 60.33314 9821.737)
(177.9062 214.6671 9817.859)
(327.5157 464.7401 9025.946)
(491.8893 870.628 6880.579)
(632.7033 1371.738 2750.136)
(47.81195 166.697 9454.537)
(158.7731 592.5834 9469.282)
(290.5369 1287.352 8783.704)
(437.8505 2441.904 6820.185)
(577.7649 3939.774 2770.576)
(43.96517 248.0801 9236.253)
(144.9997 883.2982 9322.099)
(264.2949 1939.282 8844.513)
(399.1248 3792.698 7179.647)
(532.9443 6503.985 3033.435)
(41.0931 298.9373 9124.93)
(134.9664 1066.772 9324.019)
(245.9847 2374.582 9162.038)
(374.0462 4861.476 8017.91)
(507.4621 9364.778 3618.716)
(38.84279 316.1965 9076.836)
(127.3156 1128.417 9415.804)
(232.7886 2533.965 9673.402)
(358.6922 5435.959 9482.476)
(502.7486 12929.79 4709.735)
(36.94098 300.4418 9048.306)
(120.9721 1066.588 9527.391)
(222.1957 2370.629 10250.18)
(348.0926 4987.838 11846.99)
(519.7511 11424.15 19551.3)
(798.1404 1282.815 25799.31)
(1052.859 570.63 25304.17)
(1370.344 254.7445 25953.13)
(1771.288 75.49079 27288.67)
(2260.041 -78.59401 29235.28)
(2761.749 -295.4078 31957.88)
(2911.217 -722.119 35919.7)
(1499.152 -1711.089 41894.56)
(35.18759 256.6488 9000.377)
(115.1428 901.9497 9584.368)
(212.1487 1948.999 10595.05)
(335.1116 3770.295 12649.02)
(504.8321 6341.955 17611.7)
(723.242 2399.941 21850.49)
(933.1545 1191.401 22910.39)
(1195.484 563.4496 23974.68)
(1528.565 167.7277 25283.74)
(1952.631 -188.0586 26931.08)
(2473.488 -678.5489 29034.31)
(3017.499 -1583.251 31808.49)
(3202.612 -3523.901 35587.9)
(1656.802 -8024.267 40292.13)
(33.45239 192.8726 8905.597)
(109.3429 670.2206 9549.927)
(201.6688 1405.364 10693.42)
(319.1592 2524.141 12763.01)
(478.2872 3578.933 16366.12)
(661.4903 1917.957 19458.56)
(837.7224 1108.161 20884.86)
(1056.422 565.5036 22144.45)
(1331.359 168.3215 23425.32)
(1681.528 -213.369 24822.31)
(2127.957 -732.5964 26389.59)
(2677.35 -1625.6 28149.83)
(3254.201 -3326.455 30046.5)
(3451.922 -6667.563 31718.54)
(1765.311 -12915.21 62331.97)
(31.66403 117.732 8748.737)
(103.3329 405.2975 9414.296)
(190.4511 830.2064 10592.83)
(300.9775 1417.121 12558.19)
(447.6707 1834.622 15448.79)
(607.1021 1138.631 17912.58)
(758.4613 715.4452 19350.1)
(944.0252 382.8927 20628.51)
(1173.788 112.733 21837.8)
(1462.191 -159.6527 23029.37)
(1828.645 -526.3169 24206.2)
(2294.219 -1125.01 25304.48)
(2864.503 -2170.768 26144.44)
(3457.649 -3976.815 26342.75)
(3638.674 -6868.361 49184.46)
(235.562 -1666.675 17097.18)
(29.79486 38.84533 8524.367)
(97.03577 132.9719 9180.898)
(178.5056 268.8627 10339.44)
(281.3205 447.1908 12194.2)
(415.8724 556.2145 14728.23)
(557.8815 365.2578 16871.62)
(690.5651 237.8506 18232.85)
(851.1184 129.989 19451.68)
(1046.728 37.84897 20568.53)
(1287.847 -57.09654 21605.16)
(1589.169 -183.8502 22539.16)
(1970.035 -384.7462 23278.16)
(2450.679 -719.5732 23626.39)
(3034.181 -1259.326 23249.07)
(3631.388 -2046.027 42241.88)
(482.4994 -459.58 14539.82)
(271.9482 -835.5335 22917.02)
(40.69729 -410.2541 18682.59)
(95.09546 -498.6252 17362)
(120.3311 -1775.219 18621.9)
(107.7536 -521.6104 15685.58)
(277.604 -1910.524 16948.41)
(196.8807 -4291.104 18351.48)
(99.0451 -488.8644 14049.62)
(311.5356 -1799.384 14989.23)
(444.6813 -4154.151 15757.37)
(262.4352 -8974.948 15512.32)
(84.80415 -412.6961 12619.86)
(284.9575 -1508.668 13196.78)
(491.5501 -3447.957 13278.02)
(574.7405 -7221.521 11837.11)
(291.7125 -13928.08 5324.189)
(71.57038 -306.8978 11442.92)
(243.967 -1110.282 11732.86)
(446.7934 -2483.548 11329.45)
(625.8326 -4955.407 9358.459)
(627.4407 -8628.111 3995.216)
(61.01731 -185.2824 10516.98)
(206.8471 -663.8451 10616.88)
(383.12 -1455.825 9938.721)
(568.3046 -2791.637 7793.41)
(685.8338 -4552.486 3192.026)
(53.07737 -60.33314 9821.737)
(177.9062 -214.6671 9817.859)
(327.5157 -464.7401 9025.946)
(491.8893 -870.628 6880.579)
(632.7033 -1371.738 2750.136)
(47.24228 57.32926 9329.303)
(156.6202 203.2563 9292.014)
(285.5498 438.1514 8506.083)
(427.7788 816.6107 6452.605)
(560.5812 1279.25 2566.265)
(42.98672 158.867 9007.851)
(141.3243 563.0856 8994.75)
(255.7815 1218.949 8313.692)
(381.6924 2302.266 6427.812)
(502.179 3695.419 2598.323)
(39.86718 237.019 8822.496)
(130.3745 841.8155 8881.908)
(235.2715 1842.783 8401.788)
(351.3971 3591.276 6796.126)
(464.4926 6132.262 2859.192)
(37.52607 286.2229 8735.361)
(122.3945 1019.216 8906.562)
(221.2006 2263.1 8729.924)
(333.0241 4619.689 7617.374)
(446.8169 8867.753 3425.828)
(35.67651 303.3176 8706.002)
(116.2713 1080.429 9014.032)
(211.1302 2421.032 9240.814)
(322.6167 5180.866 9036.188)
(447.7246 12287.17 4474.978)
(34.09179 288.6862 8693.385)
(111.1166 1023.15 9138.34)
(202.9419 2269.836 9813.282)
(315.7665 4765.619 11318.29)
(467.6316 10888.31 18634.16)
(711.145 1219.038 24518.74)
(927.4381 540.3351 23965.78)
(1192.752 240.1828 24478.5)
(1527.698 70.86847 25606.62)
(1953.676 -72.75684 27257.78)
(2477.909 -270.4397 29550.72)
(3030.211 -648.8484 32878.47)
(3237.182 -1517.828 38208.5)
(1699.42 -3768.891 47694.4)
(32.60298 246.978 8660.528)
(106.2662 866.6614 9208.583)
(194.8813 1869.636 10162.8)
(306.1204 3610.03 12110.72)
(458.0707 6059.478 16827.3)
(650.9355 2287.338 20826.86)
(831.5813 1132.153 21774.9)
(1053.182 533.5207 22709.06)
(1330.319 158.1378 23850.39)
(1682.878 -176.1109 25274.39)
(2133.246 -630.2488 27070.36)
(2691.184 -1451.662 29396.16)
(3289.364 -3169.101 32503.88)
(3538.281 -7113.995 36551.48)
(1853.891 -16838.17 80114.25)
(31.09942 185.8595 8581.207)
(101.3143 644.9675 9189.461)
(186.1334 1350.387 10274.47)
(293.2156 2421.376 12242.95)
(436.9926 3426.826 15670.67)
(600.3535 1832.514 18592.92)
(754.086 1056.158 19907.63)
(941.5778 537.3705 21048.72)
(1173.015 159.3579 22191.32)
(1463.319 -201.1706 23418.74)
(1832.763 -686.5315 24770.4)
(2304.153 -1510.53 26248.51)
(2887.019 -3050.779 27762.79)
(3508.549 -5995.013 28944.03)
(3745.312 -11428.9 56308.86)
(249.2503 -3273.113 19700.16)
(29.52123 113.5944 8440.794)
(96.06674 390.5611 9071.484)
(176.4755 798.9285 10193.26)
(277.8155 1361.692 12066.67)
(411.3366 1759.938 14820.04)
(554.7732 1090.235 17152.18)
(688.4451 683.5717 18490.12)
(849.8993 364.9237 19664.55)
(1046.352 107.1155 20759.18)
(1288.449 -151.2074 21819.1)
(1591.259 -496.217 22841.61)
(1974.816 -1054.34 23757.5)
(2460.687 -2017.155 24385.9)
(3054.533 -3646.612 24349.98)
(3671.701 -6170.049 44894.82)
(493.5927 -1466.554 15486.6)
(282.3106 -2722.863 24394.51)
(27.84708 37.52405 8234.027)
(90.47048 128.2988 8857.829)
(165.9593 259.0879 9963.143)
(260.693 430.3449 11734.59)