/*--------------------------------*- C++ -*----------------------------------*\
| =========                 |                                                 |
| \\      /  F ield         | OpenFOAM: The Open Source CFD Toolbox           |
|  \\    /   O peration     | Version:  2306                                  |
|   \\  /    A nd           | Website:  www.openfoam.com                      |
|    \\/     M anipulation  |                                                 |
\*---------------------------------------------------------------------------*/
FoamFile
{
    version     2.0;
    format      ascii;
    arch        "LSB;label=32;scalar=64";
    class       volScalarField;
    location    "1.5/phiEC";
    object      phi;
}
// * * * * * * * * * * * * * * * * * * * * * * * * * * * * * * * * * * * * * //

dimensions      [1 2 -3 0 0 -1 0];

internalField   nonuniform List<scalar> 
20000
(
0.7110763
0.7110754
0.7110721
0.7112706
0.7110737
0.7110712
0.7112676
0.7110662
0.7112577
0.7114771
0.7110713
0.7110696
0.7112619
0.7110654
0.7112549
0.7114714
0.7110603
0.7112397
0.7114546
0.7117075
0.7110684
0.7110673
0.7112539
0.7110639
0.7112495
0.7114601
0.7110595
0.7112371
0.7114492
0.7116983
0.711055
0.7112217
0.7114236
0.7116737
0.7119759
0.7110654
0.7110646
0.7112442
0.7110618
0.7112419
0.7114437
0.7110581
0.7112321
0.7114385
0.7116795
0.7110543
0.7112193
0.7114185
0.711665
0.7119649
0.7110504
0.7112056
0.7113928
0.7116276
0.711928
0.7122116
0.7110624
0.7110617
0.7112338
0.7110592
0.7112326
0.7114233
0.7110562
0.711225
0.711423
0.7116505
0.711053
0.7112147
0.7114086
0.7116472
0.7119412
0.7110497
0.7112034
0.7113881
0.7116196
0.7119176
0.7122047
0.7110464
0.7111917
0.7113652
0.7115824
0.711864
0.7121503
0.7123762
0.71106
0.7110589
0.7112238
0.7110565
0.7112228
0.7114008
0.7110538
0.7112164
0.7114036
0.7116112
0.7110512
0.7112081
0.7113941
0.7116197
0.7119
0.7110485
0.7111991
0.7113788
0.711603
0.7118951
0.712191
0.7110458
0.7111896
0.7113608
0.7115749
0.7118543
0.7121438
0.7123719
0.7110429
0.7111795
0.7113413
0.7115421
0.7118018
0.7120702
0.7123053
0.7125458
0.7110582
0.7110566
0.7112153
0.711054
0.7112133
0.7113794
0.7110513
0.7112072
0.7113823
0.7115641
0.711049
0.7112001
0.7113761
0.7115825
0.7118312
0.7110468
0.7111929
0.7113654
0.7115775
0.7118561
0.7121715
0.7110446
0.7111855
0.7113522
0.7115596
0.7118334
0.7121308
0.7123639
0.7110423
0.7111776
0.7113372
0.7115351
0.7117929
0.7120641
0.7123013
0.7125436
0.7110398
0.7111689
0.7113206
0.7115072
0.7117468
0.711993
0.7122137
0.7124646
0.7127184
0.7110572
0.7110549
0.7112092
0.7110518
0.7112053
0.7113617
0.7110489
0.7111984
0.711362
0.7115215
0.7110466
0.7111916
0.7113563
0.7115379
0.711711
0.7110447
0.7111855
0.7113487
0.7115429
0.711791
0.7121514
0.711043
0.7111797
0.7113397
0.7115359
0.7117973
0.7121124
0.7123537
0.7110412
0.7111737
0.7113291
0.7115208
0.7117735
0.712052
0.7122936
0.7125396
0.7110392
0.711167
0.7113167
0.7115007
0.7117384
0.7119874
0.7122099
0.7124625
0.7127179
0.711037
0.7111595
0.7113024
0.711477
0.7116992
0.7119251
0.7121261
0.7123609
0.7126262
0.7128924
0.7110572
0.711054
0.7112061
0.7110502
0.7111995
0.7113491
0.7110469
0.711191
0.7113452
0.7114879
0.7110444
0.7111834
0.7113375
0.7114975
0.7116279
0.7110425
0.7111775
0.7113303
0.7115015
0.7116774
0.7110411
0.7111728
0.7113241
0.7115038
0.7117368
0.7120933
0.7123453
0.7110397
0.7111683
0.7113174
0.7114987
0.7117399
0.7120349
0.712284
0.7125349
0.7110382
0.7111634
0.7113091
0.7114873
0.7117203
0.7119762
0.7122028
0.7124587
0.7127169
0.7110365
0.7111577
0.7112988
0.7114708
0.7116914
0.7119199
0.7121226
0.712359
0.7126256
0.7128935
0.7110345
0.7111511
0.7112864
0.7114505
0.711658
0.7118665
0.7120492
0.7122625
0.7125101
0.7127885
0.7130663
0.7110582
0.711054
0.7112061
0.7110494
0.7111965
0.7113426
0.7110454
0.7111856
0.7113332
0.7114652
0.7110425
0.7111765
0.7113218
0.7114657
0.7115718
0.7110405
0.7111699
0.7113129
0.711464
0.7115988
0.711039
0.7111653
0.711307
0.7114654
0.7116314
0.7110378
0.7111617
0.7113028
0.7114688
0.7116838
0.7120172
0.712276
0.7125314
0.7110367
0.7111583
0.7112981
0.7114666
0.711689
0.7119603
0.7121938
0.7124542
0.7127158
0.7110355
0.7111543
0.7112916
0.7114582
0.7116744
0.7119094
0.712116
0.7123554
0.7126246
0.7128953
0.711034
0.7111494
0.7112829
0.7114447
0.7116506
0.7118616
0.7120459
0.7122607
0.7125096
0.7127895
0.7130695
0.7110322
0.7111435
0.711272
0.711427
0.7116219
0.7118157
0.7119829
0.7121764
0.7124007
0.7126597
0.7129502
0.7132383
0.71106
0.7110549
0.7112092
0.7110494
0.7111965
0.7113426
0.7110447
0.7111828
0.7113271
0.7114537
0.7110411
0.7111715
0.7113107
0.7114441
0.7115368
0.7110387
0.7111635
0.7112983
0.7114345
0.7115456
0.711037
0.7111582
0.7112907
0.7114305
0.7115584
0.7110359
0.7111547
0.7112867
0.711433
0.711586
0.711035
0.7111521
0.7112843
0.7114385
0.7116367
0.7119439
0.7121864
0.7124508
0.7127149
0.7110341
0.7111494
0.7112811
0.7114386
0.711645
0.7118946
0.7121076
0.7123512
0.7126234
0.7128972
0.711033
0.7111461
0.711276
0.7114327
0.7116346
0.7118518
0.7120398
0.7122574
0.7125086
0.712791
0.7130747
0.7110317
0.7111419
0.7112686
0.7114215
0.7116149
0.7118111
0.7119798
0.7121747
0.7124002
0.7126606
0.712953
0.7132444
0.7110301
0.7111365
0.7112589
0.711406
0.7115899
0.7117713
0.7119255
0.7121023
0.7123053
0.7125393
0.7128085
0.7131094
0.7134056
0.7110624
0.7110566
0.7112153
0.7110502
0.7111995
0.7113491
0.7110447
0.7111828
0.7113271
0.7114537
0.7110404
0.7111689
0.711305
0.7114333
0.71152
0.7110374
0.7111588
0.711288
0.7114144
0.7115125
0.7110354
0.7111521
0.7112772
0.7114031
0.711509
0.711034
0.711148
0.7112714
0.7114005
0.7115183
0.7110331
0.7111454
0.7112691
0.7114049
0.7115455
0.7110324
0.7111435
0.711268
0.7114122
0.711596
0.7118793
0.7121007
0.7123481
0.7126225
0.7128984
0.7110317
0.7111414
0.7112661
0.7114142
0.7116069
0.7118379
0.712032
0.7122535
0.7125074
0.7127926
0.7130804
0.7110308
0.7111387
0.7112621
0.7114101
0.7115997
0.7118019
0.7119741
0.7121716
0.7123993
0.7126619
0.7129576
0.713255
0.7110297
0.711135
0.7112558
0.7114007
0.7115832
0.7117669
0.7119226
0.7121007
0.7123048
0.71254
0.7128109
0.7131148
0.7134162
0.7110282
0.7111302
0.7112471
0.711387
0.7115612
0.7117319
0.7118752
0.7120381
0.7122232
0.7124345
0.7126769
0.7129547
0.7132635
0.7135636
0.7110654
0.7110589
0.7112238
0.7110518
0.7112053
0.7113617
0.7110454
0.7111856
0.7113332
0.7114652
0.7110404
0.7111689
0.711305
0.7114333
0.71152
0.7110367
0.7111564
0.7112827
0.7114044
0.7114966
0.7110341
0.7111478
0.7112676
0.7113845
0.7114783
0.7110324
0.7111423
0.7112587
0.7113749
0.7114724
0.7110314
0.711139
0.7112547
0.7113744
0.7114824
0.7110307
0.7111372
0.7112537
0.7113805
0.7115104
0.7110301
0.7111358
0.7112537
0.7113891
0.7115607
0.7118235
0.7120255
0.7122506
0.7125066
0.7127936
0.7130842
0.7110296
0.7111343
0.7112526
0.7113925
0.7115735
0.7117887
0.7119668
0.712168
0.7123982
0.7126633
0.7129626
0.7132667
0.7110288
0.711132
0.7112495
0.7113899
0.7115688
0.7117581
0.7119172
0.7120978
0.7123039
0.7125412
0.7128151
0.7131241
0.7134353
0.7110277
0.7111287
0.7112441
0.711382
0.7115549
0.7117277
0.7118725
0.7120366
0.7122227
0.7124351
0.7126791
0.7129595
0.7132729
0.7135809
0.7110264
0.7111243
0.7112362
0.7113697
0.7115353
0.7116965
0.7118307
0.7119819
0.7121521
0.7123444
0.7125628
0.7128121
0.7130959
0.7134085
0.7137059
0.7110684
0.7110617
0.7112338
0.711054
0.7112133
0.7113794
0.7110469
0.711191
0.7113452
0.7114879
0.7110411
0.7111715
0.7113107
0.7114441
0.7115368
0.7110367
0.7111564
0.7112827
0.7114044
0.7114966
0.7110335
0.7111455
0.7112626
0.7113752
0.7114635
0.7110313
0.7111381
0.7112497
0.7113576
0.7114439
0.7110299
0.7111336
0.7112427
0.7113504
0.7114396
0.711029
0.7111311
0.7112401
0.7113517
0.7114512
0.7110284
0.7111298
0.71124
0.7113591
0.71148
0.711028
0.7111289
0.7112408
0.7113687
0.7115297
0.7117752
0.7119607
0.7121653
0.7123974
0.7126641
0.7129659
0.7132748
0.7110276
0.7111277
0.7112405
0.7113731
0.7115439
0.7117457
0.7119103
0.7120944
0.7123029
0.7125425
0.7128196
0.7131345
0.7134579
0.7110269
0.7111258
0.7112381
0.7113716
0.7115412
0.7117194
0.7118673
0.7120339
0.7122219
0.7124363
0.7126829
0.7129679
0.7132899
0.7136136
0.711026
0.7111229
0.7112333
0.7113649
0.7115292
0.7116926
0.7118281
0.7119805
0.7121517
0.7123451
0.7125649
0.7128165
0.7131044
0.7134238
0.7137317
0.7110247
0.7111189
0.7112262
0.7113538
0.7115117
0.7116646
0.7117907
0.711932
0.7120899
0.7122665
0.7124649
0.7126889
0.7129427
0.7132286
0.7135384
0.713962
0.7110713
0.7110646
0.7112442
0.7110565
0.7112228
0.7114008
0.7110489
0.7111984
0.711362
0.7115215
0.7110425
0.7111765
0.7113218
0.7114657
0.7115718
0.7110374
0.7111588
0.711288
0.7114144
0.7115125
0.7110335
0.7111455
0.7112626
0.7113752
0.7114635
0.7110307
0.711136
0.7112451
0.7113489
0.7114302
0.7110288
0.7111297
0.7112342
0.7113342
0.711413
0.7110275
0.711126
0.7112287
0.7113291
0.7114111
0.7110268
0.711124
0.7112271
0.7113319
0.7114241
0.7110264
0.7111231
0.7112278
0.7113402
0.7114533
0.7110261
0.7111226
0.7112292
0.7113504
0.7115023
0.7117329
0.7119046
0.7120918
0.7123021
0.7125432
0.7128225
0.7131418
0.713475
0.7110257
0.7111217
0.7112294
0.7113556
0.7115174
0.7117076
0.7118608
0.7120306
0.712221
0.7124374
0.712687
0.7129772
0.7133099
0.7136561
0.7110252
0.7111201
0.7112276
0.7113549
0.7115161
0.7116846
0.7118232
0.7119779
0.712151
0.7123461
0.7125684
0.7128242
0.7131196
0.7134527
0.7137836
0.7110243
0.7111175
0.7112234
0.7113492
0.7115059
0.7116608
0.7117882
0.7119307
0.7120895
0.7122671
0.7124668
0.712693
0.7129505
0.7132423
0.7135611
0.7140056
0.7110232
0.7111139
0.711217
0.7113392
0.71149
0.7116355
0.7117546
0.7118874
0.7120347
0.7121983
0.7123802
0.7125833
0.7128107
0.7130654
0.7133473
0.713771
0.7143493
0.7110737
0.7110673
0.7112539
0.7110592
0.7112326
0.7114233
0.7110513
0.7112072
0.7113823
0.7115641
0.7110444
0.7111834
0.7113375
0.7114975
0.7116279
0.7110387
0.7111635
0.7112983
0.7114345
0.7115456
0.7110341
0.7111478
0.7112676
0.7113845
0.7114783
0.7110307
0.711136
0.7112451
0.7113489
0.7114302
0.7110282
0.7111277
0.7112299
0.711326
0.7114002
0.7110265
0.7111223
0.7112207
0.7113138
0.7113861
0.7110255
0.7111191
0.7112163
0.7113105
0.7113863
0.7110249
0.7111176
0.7112155
0.7113143
0.7114004
0.7110246
0.711117
0.7112168
0.7113232
0.7114297
0.7110243
0.7111168
0.7112186
0.7113339
0.7114777
0.7116954
0.7118554
0.7120282
0.7122202
0.7124381
0.7126897
0.7129837
0.7133251
0.7136938
0.7110241
0.7111162
0.7112193
0.7113396
0.7114935
0.7116734
0.711817
0.7119748
0.71215
0.7123472
0.7125722
0.7128328
0.7131376
0.7134904
0.7138608
0.7110236
0.7111149
0.7112179
0.7113397
0.7114933
0.7116532
0.7117836
0.7119282
0.7120888
0.7122681
0.7124701
0.7127002
0.7129644
0.7132684
0.713607
0.7141009
0.7110228
0.7111126
0.7112143
0.7113348
0.7114845
0.7116318
0.7117522
0.7118861
0.7120343
0.7121988
0.712382
0.7125871
0.7128179
0.713078
0.7133678
0.7138093
0.714419
0.7110218
0.7111092
0.7112084
0.7113257
0.7114701
0.7116088
0.7117217
0.7118469
0.7119852
0.7121377
0.712306
0.7124919
0.7126977
0.7129252
0.7131752
0.7135599
0.7141227
0.7147259
0.7110754
0.7110696
0.7112619
0.7110618
0.7112419
0.7114437
0.7110538
0.7112164
0.7114036
0.7116112
0.7110466
0.7111916
0.7113563
0.7115379
0.711711
0.7110405
0.7111699
0.7113129
0.711464
0.7115988
0.7110354
0.7111521
0.7112772
0.7114031
0.711509
0.7110313
0.7111381
0.7112497
0.7113576
0.7114439
0.7110282
0.7111277
0.7112299
0.711326
0.7114002
0.711026
0.7111203
0.7112165
0.7113061
0.7113741
0.7110245
0.7111156
0.7112087
0.711296
0.7113628
0.7110236
0.7111129
0.7112052
0.711294
0.7113646
0.7110231
0.7111118
0.711205
0.7112986
0.7113794
0.7110229
0.7111115
0.7112067
0.7113079
0.7114085
0.7110227
0.7111115
0.7112089
0.7113188
0.7114555
0.7116618
0.7118118
0.7119725
0.7121494
0.7123479
0.7125747
0.7128387
0.7131513
0.7135239
0.713952
0.7110225
0.7111111
0.7112099
0.711325
0.7114716
0.7116425
0.7117777
0.7119253
0.7120879
0.7122691
0.7124737
0.7127081
0.712981
0.7133023
0.7136754
0.7142783
0.7110221
0.71111
0.711209
0.7113256
0.7114724
0.7116246
0.7117478
0.7118837
0.7120337
0.7121998
0.7123851
0.7125938
0.7128309
0.7131019
0.713409
0.7138932
0.7145762
0.7110214
0.7111079
0.7112058
0.7113214
0.7114648
0.7116053
0.7117194
0.7118457
0.7119849
0.7121383
0.7123077
0.7124955
0.7127044
0.7129369
0.713194
0.7135942
0.7141837
0.7148187
0.7110204
0.7111049
0.7112004
0.7113132
0.7114516
0.7115842
0.7116915
0.7118101
0.7119405
0.7120834
0.7122401
0.7124118
0.7125999
0.7128052
0.7130277
0.713372
0.7138814
0.7144647
0.715088
0.7110763
0.7110712
0.7112676
0.7110639
0.7112495
0.7114601
0.7110562
0.711225
0.711423
0.7116505
0.711049
0.7112001
0.7113761
0.7115825
0.7118312
0.7110425
0.7111775
0.7113303
0.7115015
0.7116774
0.711037
0.7111582
0.7112907
0.7114305
0.7115584
0.7110324
0.7111423
0.7112587
0.7113749
0.7114724
0.7110288
0.7111297
0.7112342
0.7113342
0.711413
0.711026
0.7111203
0.7112165
0.7113061
0.7113741
0.7110239
0.7111137
0.7112047
0.7112887
0.7113515
0.7110226
0.7111096
0.7111979
0.7112802
0.7113424
0.7110218
0.7111073
0.7111951
0.7112792
0.7113454
0.7110214
0.7111064
0.7111954
0.7112844
0.7113606
0.7110213
0.7111064
0.7111975
0.711294
0.7113894
0.7110212
0.7111065
0.7111999
0.711305
0.7114353
0.7116314
0.7117728
0.7119231
0.7120873
0.7122698
0.7124761
0.7127137
0.7129935
0.7133324
0.7137562
0.714713
0.711021
0.7111064
0.7112013
0.7113115
0.7114516
0.7116143
0.7117421
0.7118809
0.7120328
0.7122007
0.7123885
0.7126013
0.7128463
0.713133
0.7134706
0.7140498
0.7148798
0.7110207
0.7111055
0.7112007
0.7113126
0.7114532
0.7115984
0.7117151
0.7118434
0.7119842
0.7121392
0.7123107
0.7125018
0.7127166
0.7129591
0.7132318
0.7136695
0.7143218
0.7150286
0.7110201
0.7111036
0.7111979
0.711309
0.7114465
0.7115809
0.7116893
0.7118089
0.7119401
0.712084
0.7122418
0.7124153
0.7126062
0.7128161
0.7130451
0.7134035
0.713936
0.7145458
0.7152002
0.7110192
0.7111008
0.7111929
0.7113015
0.7114345
0.7115615
0.7116637
0.7117763
0.7118997
0.7120343
0.7121811
0.7123408
0.7125142
0.7127014
0.7129015
0.7132117
0.7136697
0.7141941
0.7147938
0.7154327
0.7110721
0.7112706
0.7110654
0.7112549
0.7114714
0.7110581
0.7112321
0.7114385
0.7116795
0.7110512
0.7112081
0.7113941
0.7116197
0.7119
0.7110447
0.7111855
0.7113487
0.7115429
0.711791
0.7121514
0.711039
0.7111653
0.711307
0.7114654
0.7116314
0.711034
0.711148
0.7112714
0.7114005
0.7115183
0.7110299
0.7111336
0.7112427
0.7113504
0.7114396
0.7110265
0.7111223
0.7112207
0.7113138
0.7113861
0.7110239
0.7111137
0.7112047
0.7112887
0.7113515
0.7110221
0.7111078
0.7111941
0.7112733
0.7113316
0.7110209
0.7111041
0.7111882
0.7112661
0.7113243
0.7110202
0.7111021
0.711186
0.7112659
0.7113282
0.7110199
0.7111015
0.7111866
0.7112714
0.7113436
0.7110198
0.7111016
0.711189
0.7112812
0.711372
0.7172608
0.7110198
0.711102
0.7111917
0.7112923
0.7114168
0.7116037
0.7117375
0.7118789
0.7120322
0.7122014
0.7123907
0.7126065
0.7128579
0.7131606
0.7135433
0.7144352
0.7155462
0.7110197
0.7111019
0.7111932
0.711299
0.7114332
0.7115885
0.7117097
0.7118408
0.7119834
0.7121401
0.7123138
0.7125089
0.712731
0.712988
0.7132882
0.7138103
0.7145892
0.7154237
0.7110194
0.7111012
0.7111929
0.7113005
0.7114354
0.7115742
0.7116852
0.7118068
0.7119395
0.7120848
0.7122446
0.7124213
0.7126177
0.7128369
0.7130803
0.7134724
0.7140597
0.7147297
0.7154518
0.7110188
0.7110996
0.7111905
0.7112975
0.7114296
0.7115582
0.7116616
0.7117752
0.7118993
0.7120348
0.7121827
0.7123441
0.7125202
0.7127117
0.7129179
0.7132408
0.7137197
0.7142666
0.7148915
0.7155598
0.711018
0.7110969
0.7111859
0.7112906
0.7114186
0.7115404
0.7116379
0.7117452
0.7118623
0.7119896
0.7121276
0.7122771
0.7124381
0.7126104
0.7127924
0.7130746
0.71349
0.7139594
0.7144952
0.7151072
0.7156032
0.7110662
0.7112577
0.7114771
0.7110595
0.7112371
0.7114492
0.7116983
0.711053
0.7112147
0.7114086
0.7116472
0.7119412
0.7110468
0.7111929
0.7113654
0.7115775
0.7118561
0.7121715
0.7110411
0.7111728
0.7113241
0.7115038
0.7117368
0.7120933
0.7123453
0.7110359
0.7111547
0.7112867
0.711433
0.711586
0.7110314
0.711139
0.7112547
0.7113744
0.7114824
0.7110275
0.711126
0.7112287
0.7113291
0.7114111
0.7110245
0.7111156
0.7112087
0.711296
0.7113628
0.7110221
0.7111078
0.7111941
0.7112733
0.7113316
0.7110204
0.7111024
0.7111846
0.7112595
0.7113141
0.7110193
0.711099
0.7111793
0.7112533
0.711308
0.7110187
0.7110974
0.7111776
0.7112537
0.7113127
0.7110185
0.7110969
0.7111786
0.7112596
0.7113282
0.7187353
0.7110184
0.7110972
0.7111811
0.7112694
0.711356
0.7167013
0.7174335
0.7110184
0.7110977
0.711184
0.7112806
0.7113997
0.7115783
0.7117053
0.7118388
0.7119829
0.7121407
0.7123159
0.7125138
0.7127419
0.7130137
0.713355
0.7141575
0.7151789
0.7161847
0.7110184
0.7110978
0.7111858
0.7112874
0.7114161
0.7115647
0.71168
0.7118042
0.7119388
0.7120857
0.7122476
0.7124279
0.7126313
0.712864
0.7131327
0.7136015
0.7142998
0.715077
0.7159097
0.7110181
0.7110972
0.7111857
0.7112893
0.7114188
0.7115518
0.7116576
0.7117731
0.7118987
0.7120356
0.7121853
0.7123497
0.7125311
0.7127313
0.7129508
0.7133049
0.713833
0.7144312
0.7151114
0.7158425
0.7110176
0.7110958
0.7111836
0.7112867
0.7114138
0.7115372
0.7116359
0.7117441
0.7118619
0.71199
0.7121291
0.7122802
0.7124439
0.7126202
0.7128078
0.7131019
0.7135363
0.7140257
0.7145825
0.7152177
0.7157358
0.7110169
0.7110933
0.7111793
0.7112804
0.7114037
0.7115207
0.711614
0.7117164
0.7118278
0.7119485
0.7120789
0.7122194
0.7123699
0.7125297
0.7126968
0.7129561
0.7133365
0.7137608
0.7142384
0.7147822
0.7152624
0.7156193
0.7110603
0.7112397
0.7114546
0.7117075
0.7110543
0.7112193
0.7114185
0.711665
0.7119649
0.7110485
0.7111991
0.7113788
0.711603
0.7118951
0.712191
0.711043
0.7111797
0.7113397
0.7115359
0.7117973
0.7121124
0.7123537
0.7110378
0.7111617
0.7113028
0.7114688
0.7116838
0.7120172
0.712276
0.7125314
0.7110331
0.7111454
0.7112691
0.7114049
0.7115455
0.711029
0.7111311
0.7112401
0.7113517
0.7114512
0.7110255
0.7111191
0.7112163
0.7113105
0.7113863
0.7110226
0.7111096
0.7111979
0.7112802
0.7113424
0.7110204
0.7111024
0.7111846
0.7112595
0.7113141
0.7110189
0.7110974
0.7111759
0.711247
0.7112983
0.7110179
0.7110944
0.7111712
0.7112417
0.7112934
0.7110174
0.711093
0.7111699
0.7112426
0.7112985
0.7197289
0.7110172
0.7110927
0.7111711
0.7112486
0.711314
0.718008
0.7188133
0.7110172
0.7110931
0.7111738
0.7112585
0.7113413
0.716203
0.7168547
0.7176882
0.7110172
0.7110937
0.7111769
0.7112697
0.7113839
0.7115549
0.7116757
0.7118023
0.7119382
0.7120862
0.7122496
0.7124326
0.7126416
0.7128881
0.7131948
0.7139205
0.7148306
0.7157488
0.716705
0.7110172
0.711094
0.7111788
0.7112767
0.7114003
0.7115427
0.7116527
0.7117707
0.711898
0.7120365
0.7121882
0.7123561
0.7125439
0.7127569
0.713
0.7134249
0.7140531
0.7147428
0.7155129
0.7163423
0.711017
0.7110935
0.711179
0.7112788
0.7114034
0.711531
0.7116321
0.7117421
0.7118614
0.7119908
0.7121317
0.7122856
0.7124542
0.7126388
0.7128389
0.7131619
0.7136415
0.7141764
0.7147791
0.715464
0.7160297
0.7110165
0.7110922
0.7111771
0.7112766
0.7113991
0.7115177
0.7116121
0.7117153
0.7118275
0.7119489
0.7120804
0.7122224
0.7123754
0.712539
0.7127113
0.7129818
0.7133799
0.7138223
0.7143182
0.7148808
0.7153775
0.7157524
0.7110158
0.7110899
0.7111732
0.7112708
0.7113897
0.7115023
0.7115918
0.7116896
0.7117959
0.7119107
0.7120342
0.7121668
0.7123081
0.7124572
0.7126118
0.7128521
0.7132037
0.7135914
0.7140218
0.7145046
0.7149245
0.715277
0.7156351
0.711055
0.7112217
0.7114236
0.7116737
0.7119759
0.7110497
0.7112034
0.7113881
0.7116196
0.7119176
0.7122047
0.7110446
0.7111855
0.7113522
0.7115596
0.7118334
0.7121308
0.7123639
0.7110397
0.7111683
0.7113174
0.7114987
0.7117399
0.7120349
0.712284
0.7125349
0.711035
0.7111521
0.7112843
0.7114385
0.7116367
0.7119439
0.7121864
0.7124508
0.7127149
0.7110307
0.7111372
0.7112537
0.7113805
0.7115104
0.7110268
0.711124
0.7112271
0.7113319
0.7114241
0.7110236
0.7111129
0.7112052
0.711294
0.7113646
0.7110209
0.7111041
0.7111882
0.7112661
0.7113243
0.7110189
0.7110974
0.7111759
0.711247
0.7112983
0.7110174
0.7110928
0.7111679
0.7112356
0.7112841
0.7110165
0.7110901
0.7111638
0.711231
0.7112801
0.720367
0.7110161
0.7110889
0.7111628
0.7112323
0.7112856
0.7188862
0.7197871
0.7110159
0.7110888
0.7111642
0.7112385
0.7113009
0.7173797
0.7180764
0.7189576
0.711016
0.7110893
0.7111671
0.7112484
0.7113277
0.7158012
0.7163418
0.7170806
0.7179814
0.7110161
0.71109
0.7111702
0.7112595
0.7113692
0.7115333
0.7116485
0.7117689
0.7118975
0.712037
0.7121901
0.7123605
0.7125537
0.7127796
0.7130582
0.7137215
0.7145404
0.7153468
0.716213
0.7171491
0.7110161
0.7110903
0.7111723
0.7112666
0.7113855
0.7115222
0.7116273
0.7117398
0.7118607
0.7119916
0.7121344
0.7122916
0.7124664
0.712663
0.7128852
0.7132744
0.713846
0.7144619
0.7151389
0.715901
0.716544
0.7110159
0.71109
0.7111726
0.711269
0.7113891
0.7115117
0.7116084
0.7117134
0.7118269
0.7119497
0.7120828
0.7122275
0.7123852
0.7125566
0.7127407
0.7130383
0.7134783
0.7139621
0.7144981
0.7151009
0.7156332
0.7160472
0.7110155
0.7110889
0.711171
0.7112672
0.7113853
0.7114994
0.7115899
0.7116886
0.7117956
0.7119111
0.7120356
0.7121696
0.7123133
0.7124661
0.7126257
0.7128764
0.7132445
0.7136489
0.7140958
0.7145946
0.7150272
0.7153925
0.7157686
0.7110148
0.7110868
0.7111674
0.7112618
0.7113767
0.7114851
0.711571
0.7116647
0.7117662
0.7118756
0.7119931
0.7121186
0.7122518
0.7123916
0.7125356
0.7127597
0.7130871
0.7134447
0.713837
0.7142708
0.7146367
0.7149379
0.7152915
0.7156507
0.7110504
0.7112056
0.7113928
0.7116276
0.711928
0.7122116
0.7110458
0.7111896
0.7113608
0.7115749
0.7118543
0.7121438
0.7123719
0.7110412
0.7111737
0.7113291
0.7115208
0.7117735
0.712052
0.7122936
0.7125396
0.7110367
0.7111583
0.7112981
0.7114666
0.711689
0.7119603
0.7121938
0.7124542
0.7127158
0.7110324
0.7111435
0.711268
0.7114122
0.711596
0.7118793
0.7121007
0.7123481
0.7126225
0.7128984
0.7110284
0.7111298
0.71124
0.7113591
0.71148
0.7110249
0.7111176
0.7112155
0.7113143
0.7114004
0.7110218
0.7111073
0.7111951
0.7112792
0.7113454
0.7110193
0.711099
0.7111793
0.7112533
0.711308
0.7110174
0.7110928
0.7111679
0.7112356
0.7112841
0.7110161
0.7110886
0.7111606
0.7112252
0.7112712
0.7206819
0.7110153
0.7110861
0.7111569
0.7112212
0.7112678
0.7194492
0.7204202
0.7110149
0.7110851
0.7111561
0.7112228
0.7112736
0.7181692
0.7189365
0.7199012
0.7110148
0.7110851
0.7111577
0.7112292
0.7112889
0.7168819
0.7174415
0.7182026
0.7191552
0.7110148
0.7110857
0.7111607
0.711239
0.7113151
0.7154722
0.7159291
0.7165463
0.71734
0.7182921
0.711015
0.7110865
0.7111639
0.71125
0.7113556
0.7115132
0.7116234
0.711738
0.7118602
0.7119921
0.7121363
0.7122958
0.7124757
0.7126845
0.7129402
0.7135526
0.7142991
0.715016
0.7157676
0.7166088
0.7173545
0.711015
0.711087
0.7111662
0.7112572
0.7113717
0.7115032
0.7116038
0.7117112
0.7118263
0.7119505
0.7120854
0.7122333
0.7123968
0.7125796
0.7127846
0.7131444
0.71367
0.7142273
0.7148276
0.7154919
0.7160819
0.7165627
0.7110149
0.7110867
0.7111667
0.7112598
0.7113756
0.7114936
0.7115864
0.7116868
0.711795
0.7119118
0.712038
0.7121746
0.7123227
0.7124829
0.7126536
0.71293
0.7133373
0.7137798
0.7142626
0.7147958
0.7152554
0.715649
0.7160643
0.7110145
0.7110857
0.7111653
0.7112583
0.7113723
0.7114823
0.7115692
0.7116638
0.711766
0.7118761
0.7119944
0.7121213
0.7122568
0.7124001
0.7125488
0.7127828
0.7131257
0.7134989
0.7139062
0.7143543
0.7147304
0.7150409
0.7154073
0.7157846
0.7110139
0.7110837
0.7111619
0.7112533
0.7113644
0.711469
0.7115516
0.7116415
0.7117387
0.7118431
0.7119549
0.7120741
0.7122001
0.7123318
0.7124665
0.7126767
0.7129834
0.7133158
0.713677
0.7140715
0.7143945
0.7146491
0.7149511
0.7153057
0.7156661
0.7110464
0.7111917
0.7113652
0.7115824
0.711864
0.7121503
0.7123762
0.7110423
0.7111776
0.7113372
0.7115351
0.7117929
0.7120641
0.7123013
0.7125436
0.7110382
0.7111634
0.7113091
0.7114873
0.7117203
0.7119762
0.7122028
0.7124587
0.7127169
0.7110341
0.7111494
0.7112811
0.7114386
0.711645
0.7118946
0.7121076
0.7123512
0.7126234
0.7128972
0.7110301
0.7111358
0.7112537
0.7113891
0.7115607
0.7118235
0.7120255
0.7122506
0.7125066
0.7127936
0.7130842
0.7110264
0.7111231
0.7112278
0.7113402
0.7114533
0.7110231
0.7111118
0.711205
0.7112986
0.7113794
0.7110202
0.7111021
0.711186
0.7112659
0.7113282
0.7110179
0.7110944
0.7111712
0.7112417
0.7112934
0.7110161
0.7110886
0.7111606
0.7112252
0.7112712
0.7206819
0.7110149
0.7110847
0.7111538
0.7112157
0.7112593
0.7197267
0.7207338
0.7110141
0.7110824
0.7111505
0.7112121
0.7112566
0.7186747
0.7194946
0.7205259
0.7110138
0.7110815
0.71115
0.711214
0.7112626
0.7176061
0.7182144
0.7190348
0.7200678
0.7110137
0.7110817
0.7111517
0.7112204
0.7112777
0.7164773
0.7169387
0.7175553
0.7183749
0.7193957
0.7110138
0.7110824
0.7111548
0.7112302
0.7113034
0.7151951
0.7155914
0.7161176
0.7167811
0.7176141
0.718459
0.7110139
0.7110832
0.7111581
0.7112412
0.7113428
0.7114944
0.7116
0.7117095
0.7118258
0.7119509
0.7120872
0.7122373
0.7124057
0.7126001
0.7128367
0.7134068
0.7140948
0.7147424
0.7154039
0.7161266
0.7167915
0.7173736
0.711014
0.7110838
0.7111604
0.7112483
0.7113589
0.7114854
0.7115819
0.7116846
0.7117944
0.7119125
0.7120405
0.7121801
0.7123339
0.7125048
0.7126953
0.7130303
0.713518
0.7140282
0.7145685
0.7151537
0.7156568
0.7160988
0.716581
0.7110139
0.7110836
0.7111611
0.7112511
0.711363
0.7114767
0.7115658
0.711662
0.7117655
0.7118767
0.7119966
0.712126
0.7122658
0.7124161
0.7125754
0.7128337
0.7132136
0.7136222
0.7140624
0.7145409
0.7149389
0.7152698
0.7156645
0.7160811
0.7110136
0.7110827
0.7111599
0.7112499
0.7113602
0.7114663
0.7115498
0.7116405
0.7117384
0.7118435
0.7119562
0.7120767
0.7122049
0.7123399
0.7124791
0.7126987
0.7130201
0.7133671
0.7137422
0.7141496
0.7144814
0.7147431
0.7150544
0.7154219
0.7158004
0.711013
0.7110809
0.7111568
0.7112454
0.7113528
0.7114539
0.7115333
0.7116197
0.7117129
0.7118128
0.7119196
0.712033
0.7121525
0.7122769
0.7124036
0.7126015
0.7128902
0.7132012
0.7135364
0.7138989
0.7141881
0.7144062
0.7146614
0.7149642
0.7153197
0.7156841
0.7110429
0.7111795
0.7113413
0.7115421
0.7118018
0.7120702
0.7123053
0.7125458
0.7110392
0.711167
0.7113167
0.7115007
0.7117384
0.7119874
0.7122099
0.7124625
0.7127179
0.7110355
0.7111543
0.7112916
0.7114582
0.7116744
0.7119094
0.712116
0.7123554
0.7126246
0.7128953
0.7110317
0.7111414
0.7112661
0.7114142
0.7116069
0.7118379
0.712032
0.7122535
0.7125074
0.7127926
0.7130804
0.711028
0.7111289
0.7112408
0.7113687
0.7115297
0.7117752
0.7119607
0.7121653
0.7123974
0.7126641
0.7129659
0.7132748
0.7110246
0.711117
0.7112168
0.7113232
0.7114297
0.7110214
0.7111064
0.7111954
0.7112844
0.7113606
0.7110187
0.7110974
0.7111776
0.7112537
0.7113127
0.7110165
0.7110901
0.7111638
0.711231
0.7112801
0.720367
0.7110149
0.7110847
0.7111538
0.7112157
0.7112593
0.7197267
0.7207338
0.7110137
0.711081
0.7111475
0.7112068
0.7112484
0.7189237
0.7197709
0.7208374
0.711013
0.711079
0.7111445
0.7112037
0.7112462
0.7180696
0.7187154
0.7195849
0.7206833
0.7110127
0.7110782
0.7111442
0.7112058
0.7112523
0.7171506
0.7176477
0.7183028
0.7191781
0.7202833
0.7110127
0.7110785
0.7111461
0.7112123
0.7112672
0.7161377
0.7165303
0.7170436
0.7177108
0.718584
0.7195409
0.7110128
0.7110792
0.7111492
0.711222
0.7112924
0.7149566
0.715307
0.715767
0.716334
0.7170292
0.7177608
0.718475
0.711013
0.7110802
0.7111526
0.7112328
0.7113309
0.711477
0.7115782
0.711683
0.7117939
0.711913
0.7120422
0.712184
0.7123423
0.7125243
0.7127448
0.7132789
0.7139186
0.7145111
0.7151041
0.7157352
0.7162925
0.7168085
0.7173923
0.7110131
0.7110808
0.711155
0.71124
0.7113468
0.7114688
0.7115615
0.7116599
0.7117648
0.7118775
0.7119991
0.7121313
0.7122764
0.7124371
0.7126152
0.712929
0.7133846
0.7138563
0.7143489
0.714873
0.7153061
0.7156721
0.7161152
0.7165988
0.711013
0.7110807
0.7111558
0.711243
0.7113511
0.7114609
0.7115465
0.7116388
0.7117379
0.7118442
0.7119584
0.7120813
0.7122135
0.7123552
0.7125046
0.7127472
0.7131035
0.7134838
0.7138893
0.7143242
0.7146747
0.7149523
0.715284
0.7156796
0.7160976
0.7110127
0.7110799
0.7111548
0.7112421
0.7113488
0.7114512
0.7115316
0.7116188
0.7117126
0.7118132
0.7119208
0.7120355
0.7121571
0.7122846
0.7124156
0.7126226
0.7129252
0.7132499
0.7135981
0.7139724
0.7142692
0.7144933
0.7147557
0.7150678
0.7154362
0.7158187
0.7110122
0.7110782
0.7111519
0.7112378
0.711342
0.7114396
0.7115162
0.7115993
0.7116888
0.7117845
0.7118866
0.7119947
0.7121084
0.7122263
0.7123458
0.7125329
0.7128057
0.7130981
0.7134112
0.713747
0.7140092
0.714199
0.7144177
0.7146735
0.7149771
0.7153362
0.7157009
0.7110398
0.7111689
0.7113206
0.7115072
0.7117468
0.711993
0.7122137
0.7124646
0.7127184
0.7110365
0.7111577
0.7112988
0.7114708
0.7116914
0.7119199
0.7121226
0.712359
0.7126256
0.7128935
0.711033
0.7111461
0.711276
0.7114327
0.7116346
0.7118518
0.7120398
0.7122574
0.7125086
0.712791
0.7130747
0.7110296
0.7111343
0.7112526
0.7113925
0.7115735
0.7117887
0.7119668
0.712168
0.7123982
0.7126633
0.7129626
0.7132667
0.7110261
0.7111226
0.7112292
0.7113504
0.7115023
0.7117329
0.7119046
0.7120918
0.7123021
0.7125432
0.7128225
0.7131418
0.713475
0.7110229
0.7111115
0.7112067
0.7113079
0.7114085
0.7110199
0.7111015
0.7111866
0.7112714
0.7113436
0.7110174
0.711093
0.7111699
0.7112426
0.7112985
0.7197289
0.7110153
0.7110861
0.7111569
0.7112212
0.7112678
0.7194492
0.7204202
0.7110137
0.711081
0.7111475
0.7112068
0.7112484
0.7189237
0.7197709
0.7208374
0.7110126
0.7110776
0.7111417
0.7111986
0.7112383
0.7182978
0.7189632
0.719859
0.7209925
0.711012
0.7110757
0.7111389
0.7111959
0.7112365
0.7175813
0.718107
0.7187964
0.7197192
0.7208913
0.7110117
0.7110751
0.7111388
0.7111981
0.7112428
0.7167689
0.7171893
0.717729
0.7184316
0.719363
0.7204206
0.7110117
0.7110754
0.7111408
0.7112046
0.7112575
0.7158457
0.7161875
0.716628
0.7171867
0.7178995
0.7187098
0.7195551
0.7110119
0.7110763
0.711144
0.7112143
0.7112821
0.7147475
0.7150622
0.715472
0.7159687
0.7165627
0.717162
0.7177748
0.7184909
0.7110121
0.7110773
0.7111474
0.711225
0.7113197
0.7114606
0.7115579
0.7116583
0.7117644
0.7118779
0.7120007
0.712135
0.7122845
0.7124557
0.7126623
0.7131654
0.7137641
0.7143116
0.7148508
0.715413
0.7158883
0.716308
0.7168251
0.7174105
0.7110122
0.7110779
0.7111499
0.7112322
0.7113354
0.7114532
0.7115424
0.7116368