/*--------------------------------*- C++ -*----------------------------------*\
| =========                 |                                                 |
| \\      /  F ield         | OpenFOAM: The Open Source CFD Toolbox           |
|  \\    /   O peration     | Version:  2306                                  |
|   \\  /    A nd           | Website:  www.openfoam.com                      |
|    \\/     M anipulation  |                                                 |
\*---------------------------------------------------------------------------*/
FoamFile
{
    version     2.0;
    format      ascii;
    arch        "LSB;label=32;scalar=64";
    class       volScalarField;
    location    "1.5/phiEC";
    object      T;
}
// * * * * * * * * * * * * * * * * * * * * * * * * * * * * * * * * * * * * * //

dimensions      [0 0 0 1 0 0 0];

internalField   nonuniform List<scalar> 
20000
(
1267.468
1267.466
1269.6
1267.393
1267.461
1269.599
1267.39
1272.404
1269.577
1267.245
1267.454
1269.597
1267.383
1272.404
1269.575
1267.239
1275.277
1272.405
1269.533
1267.027
1267.447
1269.594
1267.374
1272.402
1269.573
1267.228
1275.277
1272.404
1269.531
1267.017
1278.019
1275.286
1272.408
1269.472
1266.753
1267.438
1269.591
1267.363
1272.4
1269.57
1267.213
1275.275
1272.402
1269.527
1266.998
1278.018
1275.285
1272.406
1269.47
1266.734
1280.575
1278.029
1275.305
1272.416
1269.403
1266.526
1267.43
1269.588
1267.351
1272.397
1269.566
1267.194
1275.273
1272.399
1269.522
1266.971
1278.016
1275.283
1272.403
1269.464
1266.697
1280.574
1278.028
1275.303
1272.414
1269.399
1266.493
1282.943
1280.585
1278.052
1275.337
1272.436
1269.354
1266.379
1267.423
1269.585
1267.339
1272.394
1269.561
1267.175
1275.27
1272.395
1269.516
1266.94
1278.014
1275.28
1272.398
1269.457
1266.648
1280.573
1278.026
1275.3
1272.409
1269.39
1266.428
1282.943
1280.584
1278.05
1275.334
1272.433
1269.347
1266.336
1285.137
1282.953
1280.607
1278.089
1275.386
1272.464
1269.326
1266.245
1267.418
1269.582
1267.329
1272.392
1269.557
1267.154
1275.267
1272.391
1269.51
1266.907
1278.011
1275.276
1272.392
1269.448
1266.596
1280.571
1278.023
1275.295
1272.401
1269.379
1266.332
1282.941
1280.582
1278.047
1275.329
1272.426
1269.332
1266.25
1285.137
1282.952
1280.606
1278.086
1275.382
1272.46
1269.316
1266.194
1287.173
1285.146
1282.973
1280.643
1278.144
1275.438
1272.487
1269.305
1266.131
1267.415
1269.58
1267.321
1272.389
1269.553
1267.136
1275.264
1272.388
1269.503
1266.868
1278.009
1275.272
1272.386
1269.438
1266.559
1280.568
1278.02
1275.288
1272.391
1269.367
1266.211
1282.94
1280.58
1278.042
1275.32
1272.415
1269.313
1266.118
1285.136
1282.95
1280.603
1278.081
1275.376
1272.453
1269.297
1266.089
1287.173
1285.145
1282.972
1280.641
1278.141
1275.436
1272.483
1269.293
1266.073
1289.067
1287.181
1285.164
1283.006
1280.696
1278.201
1275.478
1272.516
1269.296
1266.045
1267.415
1269.579
1267.317
1272.388
1269.55
1267.122
1275.262
1272.384
1269.496
1266.83
1278.006
1275.268
1272.379
1269.425
1266.473
1280.566
1278.016
1275.282
1272.379
1269.358
1282.937
1280.576
1278.036
1275.309
1272.398
1269.291
1265.933
1285.134
1282.948
1280.598
1278.073
1275.364
1272.443
1269.269
1265.925
1287.172
1285.144
1282.969
1280.636
1278.134
1275.43
1272.475
1269.269
1265.954
1289.066
1287.18
1285.163
1283.004
1280.694
1278.199
1275.476
1272.512
1269.281
1265.982
1290.832
1289.074
1287.198
1285.194
1283.055
1280.75
1278.243
1275.522
1272.552
1269.299
1265.988
1267.418
1269.579
1267.317
1272.387
1269.549
1267.114
1275.26
1272.382
1269.491
1266.801
1278.004
1275.265
1272.374
1269.413
1266.388
1280.563
1278.012
1275.275
1272.367
1269.334
1282.935
1280.573
1278.029
1275.296
1272.373
1285.132
1282.945
1280.593
1278.062
1275.345
1272.432
1269.233
1265.691
1287.17
1285.141
1282.965
1280.629
1278.123
1275.423
1272.464
1269.232
1265.767
1289.065
1287.179
1285.161
1283
1280.688
1278.194
1275.471
1272.503
1269.253
1265.853
1290.831
1289.073
1287.196
1285.192
1283.052
1280.748
1278.241
1275.52
1272.547
1269.284
1265.923
1292.48
1290.838
1289.089
1287.224
1285.238
1283.104
1280.79
1278.289
1275.571
1272.594
1269.317
1265.963
1267.423
1269.58
1267.321
1272.387
1269.549
1267.114
1275.26
1272.381
1269.489
1266.785
1278.002
1275.262
1272.37
1269.403
1266.323
1280.561
1278.009
1275.269
1272.357
1269.306
1282.933
1280.569
1278.023
1275.284
1272.35
1285.13
1282.942
1280.587
1278.05
1275.314
1287.168
1285.139
1282.96
1280.619
1278.105
1275.415
1272.451
1269.181
1265.502
1289.064
1287.177
1285.157
1282.993
1280.677
1278.188
1275.465
1272.49
1269.208
1265.653
1290.83
1289.072
1287.194
1285.188
1283.047
1280.745
1278.238
1275.516
1272.537
1269.252
1265.791
1292.48
1290.837
1289.088
1287.223
1285.236
1283.102
1280.789
1278.288
1275.569
1272.589
1269.302
1265.898
1294.023
1292.486
1290.852
1289.113
1287.264
1285.282
1283.14
1280.833
1278.338
1275.624
1272.644
1269.351
1265.97
1267.43
1269.582
1267.329
1272.388
1269.55
1267.122
1275.26
1272.381
1269.489
1266.785
1278.001
1275.261
1272.368
1269.397
1266.289
1280.56
1278.007
1275.265
1272.349
1269.283
1282.931
1280.567
1278.018
1275.274
1272.33
1285.128
1282.939
1280.581
1278.038
1275.29
1287.167
1285.136
1282.955
1280.607
1278.074
1289.062
1287.174
1285.153
1282.984
1280.66
1278.181
1275.458
1272.472
1269.146
1265.371
1290.829
1289.07
1287.191
1285.183
1283.038
1280.739
1278.234
1275.51
1272.522
1269.204
1265.586
1292.479
1290.836
1289.086
1287.219
1285.231
1283.099
1280.786
1278.285
1275.565
1272.579
1269.27
1265.767
1294.022
1292.486
1290.851
1289.111
1287.262
1285.281
1283.139
1280.832
1278.338
1275.623
1272.639
1269.336
1265.906
1295.468
1294.028
1292.498
1290.874
1289.148
1287.304
1285.315
1283.179
1280.879
1278.391
1275.681
1272.701
1269.399
1266.006
1267.438
1269.585
1267.339
1272.389
1269.553
1267.136
1275.26
1272.382
1269.491
1266.801
1278.001
1275.261
1272.368
1269.397
1266.289
1280.559
1278.005
1275.263
1272.345
1269.27
1282.93
1280.564
1278.014
1275.267
1272.315
1285.126
1282.936
1280.576
1278.028
1275.272
1287.165
1285.133
1282.95
1280.596
1278.051
1289.061
1287.172
1285.148
1282.974
1280.632
1290.828
1289.068
1287.187
1285.175
1283.023
1280.733
1278.229
1275.503
1272.501
1269.135
1265.299
1292.478
1290.835
1289.083
1287.214
1285.223
1283.094
1280.783
1278.282
1275.56
1272.564
1269.221
1265.564
1294.021
1292.484
1290.849
1289.108
1287.257
1285.278
1283.137
1280.831
1278.336
1275.619
1272.63
1269.307
1265.777
1295.467
1294.027
1292.498
1290.872
1289.147
1287.302
1285.314
1283.179
1280.879
1278.39
1275.68
1272.697
1269.386
1265.943
1296.823
1295.473
1294.039
1292.519
1290.906
1289.184
1287.333
1285.35
1283.221
1280.928
1278.446
1275.742
1272.764
1269.461
1266.07
1267.447
1269.588
1267.351
1272.392
1269.557
1267.154
1275.262
1272.384
1269.496
1266.83
1278.002
1275.262
1272.37
1269.403
1266.323
1280.559
1278.005
1275.263
1272.345
1269.27
1282.929
1280.563
1278.012
1275.263
1272.308
1285.125
1282.934
1280.573
1278.022
1275.26
1287.163
1285.131
1282.945
1280.588
1278.035
1289.059
1287.169
1285.143
1282.964
1280.611
1290.826
1289.065
1287.183
1285.165
1282.996
1292.477
1290.833
1289.079
1287.207
1285.209
1283.089
1280.779
1278.278
1275.551
1272.541
1269.152
1265.284
1294.02
1292.483
1290.846
1289.103
1287.25
1285.273
1283.134
1280.828
1278.333
1275.614
1272.616
1269.261
1265.583
1295.467
1294.026
1292.496
1290.869
1289.143
1287.299
1285.312
1283.177
1280.878
1278.389
1275.678
1272.69
1269.361
1265.818
1296.822
1295.472
1294.039
1292.517
1290.904
1289.183
1287.332
1285.349
1283.22
1280.928
1278.446
1275.742
1272.762
1269.45
1266.007
1298.094
1296.827
1295.483
1294.058
1292.548
1290.939
1289.211
1287.364
1285.387
1283.265
1280.978
1278.504
1275.806
1272.833
1269.535
1267.135
1267.454
1269.591
1267.363
1272.394
1269.561
1267.175
1275.264
1272.388
1269.503
1266.868
1278.004
1275.265
1272.374
1269.413
1266.388
1280.56
1278.007
1275.265
1272.349
1269.283
1282.929
1280.563
1278.012
1275.263
1272.308
1285.124
1282.933
1280.571
1278.018
1275.254
1287.162
1285.129
1282.942
1280.582
1278.024
1289.058
1287.167
1285.139
1282.956
1280.596
1290.825
1289.063
1287.178
1285.156
1282.978
1292.475
1290.831
1289.075
1287.198
1285.185
1294.019
1292.481
1290.843
1289.097
1287.238
1285.269
1283.131
1280.825
1278.329
1275.606
1272.594
1269.198
1265.321
1295.466
1294.025
1292.493
1290.865
1289.136
1287.296
1285.309
1283.175
1280.876
1278.388
1275.674
1272.679
1269.322
1265.633
1296.822
1295.471
1294.037
1292.515
1290.901
1289.181
1287.33
1285.348
1283.22
1280.927
1278.446
1275.742
1272.758
1269.429
1265.882
1298.094
1296.827
1295.482
1294.057
1292.546
1290.937
1289.21
1287.364
1285.387
1283.265
1280.979
1278.505
1275.807
1272.832
1269.526
1267.05
1299.288
1298.099
1296.837
1295.5
1294.085
1292.578
1290.963
1289.239
1287.398
1285.426
1283.31
1281.03
1278.563
1275.871
1272.904
1270.508
1269.18
1267.461
1269.594
1267.374
1272.397
1269.566
1267.194
1275.267
1272.391
1269.51
1266.907
1278.006
1275.268
1272.379
1269.425
1266.473
1280.561
1278.009
1275.269
1272.357
1269.306
1282.93
1280.564
1278.014
1275.267
1272.315
1285.124
1282.933
1280.571
1278.018
1275.254
1287.162
1285.128
1282.94
1280.579
1278.019
1289.057
1287.166
1285.136
1282.951
1280.587
1290.823
1289.061
1287.175
1285.149
1282.965
1292.474
1290.829
1289.071
1287.19
1285.169
1294.018
1292.479
1290.839
1289.089
1287.216
1295.464
1294.023
1292.49
1290.859
1289.125
1287.292
1285.306
1283.173
1280.874
1278.384
1275.667
1272.66
1269.27
1265.395
1296.821
1295.47
1294.035
1292.511
1290.894
1289.177
1287.328
1285.346
1283.219
1280.926
1278.446
1275.74
1272.751
1269.4
1265.7
1298.093
1296.826
1295.481
1294.054
1292.543
1290.935
1289.208
1287.363
1285.386
1283.264
1280.979
1278.506
1275.809
1272.832
1269.508
1266.863
1299.288
1298.098
1296.836
1295.499
1294.083
1292.577
1290.962
1289.239
1287.398
1285.426
1283.31
1281.031
1278.565
1275.874
1272.906
1270.499
1269.056
1300.409
1299.292
1298.108
1296.853
1295.525
1294.112
1292.6
1290.989
1289.27
1287.433
1285.467
1283.357
1281.083
1278.622
1275.937
1273.755
1272.369
1271.239
1267.466
1269.597
1267.383
1272.4
1269.57
1267.213
1275.27
1272.395
1269.516
1266.94
1278.009
1275.272
1272.386
1269.438
1266.559
1280.563
1278.012
1275.275
1272.367
1269.334
1282.931
1280.567
1278.018
1275.274
1272.33
1285.125
1282.934
1280.573
1278.022
1275.26
1287.162
1285.128
1282.94
1280.579
1278.019
1289.056
1287.165
1285.135
1282.948
1280.583
1290.823
1289.06
1287.172
1285.145
1282.956
1292.473
1290.827
1289.068
1287.184
1285.157
1294.017
1292.477
1290.836
1289.082
1287.201
1295.463
1294.022
1292.487
1290.852
1289.106
1296.82
1295.468
1294.032
1292.505
1290.884
1289.173
1287.325
1285.344
1283.217
1280.925
1278.444
1275.736
1272.74
1269.364
1265.476
1298.093
1296.825
1295.479
1294.051
1292.538
1290.932
1289.206
1287.361
1285.385
1283.264
1280.98
1278.508
1275.812
1272.833
1269.487
1266.498
1299.287
1298.097
1296.835
1295.497
1294.08
1292.575
1290.96
1289.238
1287.397
1285.426
1283.311
1281.034
1278.568
1275.879
1272.91
1270.486
1268.761
1300.409
1299.292
1298.107
1296.852
1295.524
1294.111
1292.599
1290.988
1289.269
1287.433
1285.468
1283.358
1281.085
1278.625
1275.941
1273.764
1272.362
1271.083
1301.461
1300.413
1299.301
1298.123
1296.876
1295.55
1294.132
1292.623
1291.016
1289.302
1287.47
1285.509
1283.404
1281.136
1278.68
1276.676
1275.382
1274.23
1273.317
1267.468
1269.599
1267.39
1272.402
1269.573
1267.228
1275.273
1272.399
1269.522
1266.971
1278.011
1275.276
1272.392
1269.448
1266.596
1280.566
1278.016
1275.282
1272.379
1269.358
1282.933
1280.569
1278.023
1275.284
1272.35
1285.126
1282.936
1280.576
1278.028
1275.272
1287.162
1285.129
1282.942
1280.582
1278.024
1289.056
1287.165
1285.135
1282.948
1280.583
1290.822
1289.059
1287.171
1285.142
1282.952
1292.472
1290.826
1289.066
1287.18
1285.15
1294.016
1292.476
1290.833
1289.076
1287.191
1295.462
1294.02
1292.484
1290.846
1289.092
1296.819
1295.467
1294.029
1292.499
1290.867
1298.092
1296.823
1295.476
1294.046
1292.528
1290.929
1289.204
1287.36
1285.384
1283.263
1280.979
1278.508
1275.812
1272.832
1269.47
1265.473
1299.286
1298.096
1296.833
1295.493
1294.075
1292.572
1290.958
1289.236
1287.396
1285.426
1283.312
1281.036
1278.573
1275.888
1272.918
1270.487
1268.123
1300.408
1299.291
1298.106
1296.85
1295.521
1294.109
1292.598
1290.987
1289.269
1287.433
1285.468
1283.36
1281.089
1278.632
1275.95
1273.787
1272.355
1270.707
1301.46
1300.412
1299.3
1298.122
1296.875
1295.55
1294.132
1292.623
1291.016
1289.302
1287.47
1285.51
1283.406
1281.14
1278.685
1276.688
1275.402
1274.224
1273.139
1302.447
1301.464
1300.421
1299.315
1298.144
1296.9
1295.569
1294.154
1292.649
1291.045
1289.335
1287.507
1285.551
1283.451
1281.188
1279.324
1278.088
1277.004
1276.092
1275.418
1269.6
1267.393
1272.404
1269.575
1267.239
1275.275
1272.402
1269.527
1266.998
1278.014
1275.28
1272.398
1269.457
1266.648
1280.568
1278.02
1275.288
1272.391
1269.367
1266.211
1282.935
1280.573
1278.029
1275.296
1272.373
1285.128
1282.939
1280.581
1278.038
1275.29
1287.163
1285.131
1282.945
1280.588
1278.035
1289.057
1287.166
1285.136
1282.951
1280.587
1290.822
1289.059
1287.171
1285.142
1282.952
1292.471
1290.825
1289.065
1287.177
1285.146
1294.015
1292.475
1290.831
1289.072
1287.184
1295.461
1294.019
1292.481
1290.84
1289.083
1296.818
1295.465
1294.026
1292.493
1290.855
1298.091
1296.822
1295.473
1294.04
1292.512
1258.198
1299.286
1298.095
1296.831
1295.489
1294.067
1292.569
1290.956
1289.235
1287.395
1285.425
1283.312
1281.037
1278.578
1275.897
1272.935
1270.628
1266.455
1300.407
1299.29
1298.104
1296.847
1295.516
1294.107
1292.596
1290.986
1289.268
1287.433
1285.469
1283.362
1281.095
1278.642
1275.966
1273.858
1272.378
1269.903
1301.46
1300.412
1299.299
1298.12
1296.872
1295.548
1294.131
1292.622
1291.015
1289.302
1287.471
1285.512
1283.41
1281.146
1278.695
1276.72
1275.459
1274.219
1272.713
1302.447
1301.464
1300.42
1299.314
1298.143
1296.899
1295.569
1294.154
1292.648
1291.045
1289.335
1287.508
1285.553
1283.454
1281.192
1279.337
1278.114
1277.034
1276.086
1275.229
1303.372
1302.451
1301.472
1300.434
1299.335
1298.166
1296.917
1295.589
1294.177
1292.675
1291.075
1289.369
1287.545
1285.593
1283.497
1281.752
1280.555
1279.496
1278.622
1277.954
1276.542
1272.404
1269.577
1267.245
1275.277
1272.404
1269.531
1267.017
1278.016
1275.283
1272.403
1269.464
1266.697
1280.571
1278.023
1275.295
1272.401
1269.379
1266.332
1282.937
1280.576
1278.036
1275.309
1272.398
1269.291
1265.933
1285.13
1282.942
1280.587
1278.05
1275.314
1287.165
1285.133
1282.95
1280.596
1278.051
1289.058
1287.167
1285.139
1282.956
1280.596
1290.823
1289.06
1287.172
1285.145
1282.956
1292.471
1290.825
1289.065
1287.177
1285.146
1294.015
1292.474
1290.83
1289.07
1287.181
1295.461
1294.017
1292.479
1290.837
1289.077
1296.817
1295.464
1294.024
1292.488
1290.846
1298.09
1296.82
1295.471
1294.034
1292.501
1249.35
1299.285
1298.094
1296.828
1295.483
1294.052
1272.45
1260.821
1300.406
1299.289
1298.102
1296.842
1295.508
1294.104
1292.594
1290.984
1289.267
1287.432
1285.469
1283.364
1281.1
1278.653
1275.99
1274.19
1272.571
1268.056
1301.459
1300.411
1299.297
1298.117
1296.868
1295.545
1294.129
1292.621
1291.015
1289.301
1287.472
1285.514
1283.415
1281.156
1278.711
1276.804
1275.614
1274.242
1271.842
1302.446
1301.463
1300.419
1299.312
1298.141
1296.897
1295.567
1294.153
1292.648
1291.045
1289.336
1287.51
1285.557
1283.46
1281.202
1279.369
1278.185
1277.113
1276.078
1274.785
1303.372
1302.45
1301.471
1300.433
1299.334
1298.166
1296.916
1295.589
1294.177
1292.675
1291.075
1289.369
1287.547
1285.596
1283.501
1281.764
1280.581
1279.534
1278.658
1277.948
1276.353
1304.237
1303.375
1302.458
1301.484
1300.453
1299.356
1298.182
1296.936
1295.611
1294.202
1292.703
1291.106
1289.403
1287.583
1285.634
1283.995
1282.83
1281.78
1280.897
1280.233
1278.939
1276.663
1275.277
1272.405
1269.533
1267.027
1278.018
1275.285
1272.406
1269.47
1266.734
1280.573
1278.026
1275.3
1272.409
1269.39
1266.428
1282.94
1280.58
1278.042
1275.32
1272.415
1269.313
1266.118
1285.132
1282.945
1280.593
1278.062
1275.345
1272.432
1269.233
1265.691
1287.167
1285.136
1282.955
1280.607
1278.074
1289.059
1287.169
1285.143
1282.964
1280.611
1290.823
1289.061
1287.175
1285.149
1282.965
1292.472
1290.826
1289.066
1287.18
1285.15
1294.015
1292.474
1290.83
1289.07
1287.181
1295.46
1294.017
1292.478
1290.835
1289.074
1296.816
1295.463
1294.022
1292.485
1290.84
1298.089
1296.819
1295.468
1294.03
1292.493
1242.299
1299.284
1298.092
1296.826
1295.478
1294.042
1271.738
1253.878
1300.406
1299.287
1298.099
1296.837
1295.495
1277.329
1273.538
1263.631
1301.458
1300.409
1299.295
1298.113
1296.861
1295.543
1294.127
1292.62
1291.014
1289.301
1287.472
1285.516
1283.42
1281.167
1278.736
1277.159
1276.138
1274.391
1270.057
1302.446
1301.462
1300.417
1299.309
1298.137
1296.895
1295.566
1294.152
1292.647
1291.045
1289.336
1287.512
1285.561
1283.469
1281.218
1279.451
1278.365
1277.31
1276.085
1273.918
1303.371
1302.45
1301.47
1300.431
1299.332
1298.164
1296.915
1295.588
1294.177
1292.675
1291.076
1289.371
1287.55
1285.602
1283.51
1281.795
1280.651
1279.631
1278.749
1277.934
1275.912
1304.237
1303.375
1302.457
1301.483
1300.452
1299.355
1298.182
1296.935
1295.611
1294.202
1292.703
1291.107
1289.404
1287.586
1285.638
1284.006
1282.855
1281.818
1280.943
1280.273
1278.932
1276.475
1305.046
1304.24
1303.382
1302.47
1301.502
1300.472
1299.371
1298.2
1296.956
1295.633
1294.227
1292.731
1291.137
1289.437
1287.62
1286.076
1284.946
1283.904
1282.999
1282.291
1281.082
1279.046
1276.785
1278.019
1275.286
1272.408
1269.472
1266.753
1280.574
1278.028
1275.303
1272.414
1269.399
1266.493
1282.941
1280.582
1278.047
1275.329
1272.426
1269.332
1266.25
1285.134
1282.948
1280.598
1278.073
1275.364
1272.443
1269.269
1265.925
1287.168
1285.139
1282.96
1280.619
1278.105
1275.415
1272.451
1269.181
1265.502
1289.061
1287.172
1285.148
1282.974
1280.632
1290.825
1289.063
1287.178
1285.156
1282.978
1292.473
1290.827
1289.068
1287.184
1285.157
1294.015
1292.475
1290.831
1289.072
1287.184
1295.46
1294.017
1292.478
1290.835
1289.074
1296.816
1295.462
1294.021
1292.483
1290.838
1298.088
1296.818
1295.467
1294.027
1292.488
1237.544
1299.283
1298.091
1296.824
1295.474
1294.034
1270.353
1248.042
1300.405
1299.286
1298.097
1296.833
1295.485
1278.368
1273.066
1258.196
1301.458
1300.408
1299.293
1298.108
1296.848
1280.38
1278.177
1274.868
1266.583
1302.445
1301.461
1300.415
1299.305
1298.13
1296.892
1295.564
1294.151
1292.646
1291.044
1289.336
1287.514
1285.566
1283.479
1281.24
1279.786
1278.936
1277.842
1276.159
1272.316
1303.37
1302.449
1301.469
1300.429
1299.328
1298.162
1296.914
1295.587
1294.176
1292.675
1291.077
1289.373
1287.554
1285.61
1283.524
1281.871
1280.826
1279.862
1278.952
1277.918
1275.073
1304.236
1303.374
1302.456
1301.482
1300.45
1299.353
1298.181
1296.935
1295.61
1294.202
1292.703
1291.108
1289.407
1287.591
1285.646
1284.034
1282.921
1281.915
1281.056
1280.366
1278.916
1276.034
1305.045
1304.24
1303.381
1302.469
1301.502
1300.472
1299.37
1298.2
1296.955
1295.633
1294.227
1292.732
1291.138
1289.439
1287.623
1286.087
1284.969
1283.94
1283.045
1282.341
1281.122
1279.039
1276.597
1305.8
1305.049
1304.247
1303.393
1302.487
1301.521
1300.487
1299.387
1298.219
1296.977
1295.657
1294.253
1292.759
1291.168
1289.47
1288.015
1286.921
1285.893
1284.972
1284.211
1283.023
1281.173
1279.152
1276.907
1280.575
1278.029
1275.305
1272.416
1269.403
1266.526
1282.943
1280.584
1278.05
1275.334
1272.433
1269.347
1266.336
1285.136
1282.95
1280.603
1278.081
1275.376
1272.453
1269.297
1266.089
1287.17
1285.141
1282.965
1280.629
1278.123
1275.423
1272.464
1269.232
1265.767
1289.062
1287.174
1285.153
1282.984
1280.66
1278.181
1275.458
1272.472
1269.146
1265.371
1290.826
1289.065
1287.183
1285.165
1282.996
1292.474
1290.829
1289.071
1287.19
1285.169
1294.016
1292.476
1290.833
1289.076
1287.191
1295.461
1294.017
1292.479
1290.837
1289.077
1296.816
1295.462
1294.021
1292.483
1290.838
1298.088
1296.818
1295.466
1294.025
1292.486
1235.162
1299.282
1298.09
1296.822
1295.471
1294.03
1269.077
1244.007
1300.404
1299.285
1298.095
1296.829
1295.478
1278.612
1272.026
1253.456
1301.457
1300.407
1299.291
1298.104
1296.839
1281.818
1279.122
1274.505
1262.375
1302.444
1301.46
1300.413
1299.301
1298.118
1282.777
1281.091
1279.202
1276.341
1269.634
1303.37
1302.448
1301.467
1300.425
1299.321
1298.16
1296.913
1295.586
1294.175
1292.674
1291.077
1289.374
1287.559
1285.619
1283.545
1282.175
1281.368
1280.456
1279.412
1277.913
1273.595
1304.236
1303.373
1302.455
1301.479
1300.446
1299.351
1298.18
1296.934
1295.609
1294.202
1292.704
1291.11
1289.411
1287.598
1285.659
1284.103
1283.083
1282.141
1281.3
1280.553
1278.887
1275.199
1305.045
1304.239
1303.381
1302.467
1301.499
1300.47
1299.369
1298.199
1296.955
1295.633
1294.228
1292.733
1291.141
1289.444
1287.63
1286.112
1285.03
1284.031
1283.158
1282.459
1281.213
1279.022
1276.157
1305.799
1305.048
1304.246
1303.392
1302.486
1301.52
1300.486
1299.387
1298.218
1296.977
1295.657
1294.254
1292.761
1291.17
1289.473
1288.025
1286.942
1285.926
1285.015
1284.262
1283.074
1281.213
1279.145
1276.719
1306.501
1305.803
1305.055
1304.258
1303.41
1302.504
1301.534
1300.502
1299.405
1298.238
1296.998
1295.681
1294.279
1292.788
1291.198
1289.826
1288.77
1287.762
1286.834
1286.032
1284.847
1283.102
1281.265
1279.259
1277.03
1282.943
1280.585
1278.052
1275.337
1272.436
1269.354
1266.379
1285.137
1282.952
1280.606
1278.086
1275.382
1272.46
1269.316
1266.194
1287.172
1285.144
1282.969
1280.636
1278.134
1275.43
1272.475
1269.269
1265.954
1289.064
1287.177
1285.157
1282.993
1280.677
1278.188
1275.465
1272.49
1269.208
1265.653
1290.828
1289.068
1287.187
1285.175
1283.023
1280.733
1278.229
1275.503
1272.501
1269.135
1265.299
1292.475
1290.831
1289.075
1287.198
1285.185
1294.017
1292.477
1290.836
1289.082
1287.201
1295.461
1294.019
1292.481
1290.84
1289.083
1296.816
1295.463
1294.022
1292.485
1290.84
1298.088
1296.818
1295.466
1294.025
1292.486
1235.162
1299.282
1298.09
1296.821
1295.47
1294.028
1268.339
1241.963
1300.403
1299.284
1298.094
1296.826
1295.474
1278.561
1271.032
1250.104
1301.456
1300.406
1299.289
1298.1
1296.833
1282.513
1279.427
1273.718
1258.612
1302.443
1301.459
1300.411
1299.297
1298.11
1284.224
1282.352
1279.983
1276.029
1266.459
1303.369
1302.447
1301.465
1300.421
1299.31
1284.877
1283.391
1281.944
1280.32
1277.901
1271.28
1304.235
1303.372
1302.453
1301.476
1300.44
1299.349
1298.178
1296.933
1295.609
1294.201
1292.704
1291.111
1289.415
1287.607
1285.678
1284.378
1283.579
1282.711
1281.831
1280.909
1278.842
1273.734
1305.044
1304.239
1303.379
1302.465
1301.496
1300.469
1299.368
1298.198
1296.955
1295.633
1294.228
1292.734
1291.145
1289.451
1287.642
1286.176
1285.178
1284.241
1283.399
1282.691
1281.384
1278.991
1275.325
1305.799
1305.048
1304.246
1303.391
1302.484
1301.519
1300.485
1299.386
1298.218
1296.977
1295.657
1294.255
1292.763
1291.174
1289.48
1288.048
1286.998
1286.011
1285.122
1284.381
1283.191
1281.304
1279.128
1276.281
1306.501
1305.802
1305.055
1304.257
1303.409
1302.504
1301.534
1300.502
1299.405
1298.238
1296.999
1295.681
1294.28
1292.79
1291.201
1289.835
1288.79
1287.793
1286.875
1286.08
1284.899
1283.153
1281.305
1279.251
1276.842
1307.152
1306.504
1305.809
1305.065
1304.273
1303.426
1302.517
1301.549
1300.519
1299.423
1298.258
1297.021
1295.705
1294.305
1292.815
1291.52
1290.505
1289.522
1288.597
1287.768
1286.588
1284.916
1283.181
1281.357
1279.365
1277.145
1285.137
1282.953
1280.607
1278.089
1275.386
1272.464
1269.326
1266.245
1287.173
1285.145
1282.972
1280.641
1278.141
1275.436
1272.483
1269.293
1266.073
1289.065
1287.179
1285.161
1283
1280.688
1278.194
1275.471
1272.503
1269.253
1265.853
1290.829
1289.07
1287.191
1285.183
1283.038
1280.739
1278.234
1275.51
1272.522
1269.204
1265.586
1292.477
1290.833
1289.079
1287.207
1285.209
1283.089
1280.779
1278.278
1275.551
1272.541
1269.152
1265.284
1294.018
1292.479
1290.839
1289.089
1287.216
1295.462
1294.02
1292.484
1290.846
1289.092
1296.817
1295.464
1294.024
1292.488
1290.846
1298.088
1296.818
1295.467
1294.027
1292.488
1237.544
1299.282
1298.09
1296.821
1295.47
1294.028
1268.339
1241.963
1300.403
1299.284
1298.093
1296.825
1295.472
1278.476
1270.448
1248.389
1301.455
1300.405
1299.288
1298.098
1296.829
1282.836
1279.453
1272.95
1255.901
1302.443
1301.458
1300.409
1299.293
1298.104
1285.004
1283.022
1280.292
1275.428
1263.571
1303.368
1302.446
1301.463
1300.417
1299.302
1286.223
1284.652
1282.982
1280.922
1277.611
1268.583
1304.234
1303.371
1302.451
1301.472
1300.43
1286.803
1285.415
1284.125
1282.868
1281.488
1278.752
1271.458
1305.044
1304.238
1303.377
1302.462
1301.49
1300.467
1299.367
1298.197
1296.954
1295.632
1294.228
1292.736
1291.148
1289.458
1287.659
1286.424
1285.627
1284.766
1283.917
1283.125
1281.682
1278.942
1273.875
1305.799
1305.047
1304.244
1303.389
1302.481
1301.517
1300.484
1299.386
1298.218
1296.976
1295.658
1294.256
1292.766
1291.181
1289.491
1288.106
1287.134
1286.204
1285.348
1284.613
1283.409
1281.474
1279.096
1275.453
1306.5
1305.802
1305.054
1304.256
1303.407
1302.503
1301.533
1300.501
1299.404
1298.238
1296.999
1295.682
1294.283
1292.793
1291.207
1289.856
1288.842
1287.871
1286.974
1286.194
1285.017
1283.269
1281.395
1279.234
1276.405
1307.151
1306.504
1305.808
1305.065
1304.273
1303.426
1302.517
1301.549
1300.519
1299.423
1298.259
1297.021
1295.706
1294.307
1292.818
1291.529
1290.524
1289.551
1288.635
1287.814
1286.638
1284.967
1283.232
1281.396
1279.358
1276.957
1307.753
1307.154
1306.51
1305.819
1305.081
1304.289
1303.439
1302.531
1301.565
1300.536
1299.442
1298.279
1297.043
1295.729
1294.33
1293.109
1292.136
1291.182
1290.269
1289.426
1288.258
1286.648
1284.984
1283.26
1281.448
1279.465
1277.235
1287.173
1285.146
1282.973
1280.643
1278.144
1275.438
1272.487
1269.305
1266.131
1289.066
1287.18
1285.163
1283.004
1280.694
1278.199
1275.476
1272.512
1269.281
1265.982
1290.83
1289.072
1287.194
1285.188
1283.047
1280.745
1278.238
1275.516
1272.537
1269.252
1265.791
1292.478
1290.835
1289.083
1287.214
1285.223
1283.094
1280.783
1278.282
1275.56
1272.564
1269.221
1265.564
1294.019
1292.481
1290.843
1289.097
1287.238
1285.269
1283.131
1280.825
1278.329
1275.606
1272.594
1269.198
1265.321
1295.463
1294.022
1292.487
1290.852
1289.106
1296.818
1295.465
1294.026
1292.493
1290.855
1298.089
1296.819
1295.468
1294.03
1292.493
1242.299
1299.282
1298.09
1296.822
1295.471
1294.03
1269.077
1244.007
1300.403
1299.284
1298.093
1296.825
1295.472
1278.476
1270.448
1248.389
1301.455
1300.405
1299.287
1298.096
1296.827
1282.959
1279.416
1272.495
1254.498
1302.442
1301.457
1300.408
1299.291
1298.1
1285.417
1283.352
1280.363
1274.843
1261.455
1303.368
1302.445
1301.461
1300.414
1299.297
1286.977
1285.383
1283.586
1281.2
1277.152
1266.115
1304.234
1303.37
1302.449
1301.468
1300.422
1288.028
1286.589
1285.166
1283.683
1281.915
1278.467
1268.811
1305.043
1304.237
1303.376
1302.458
1301.48
1288.605
1287.281
1286.059
1284.919
1283.828
1282.119
1278.844
1271.637
1305.798
1305.046
1304.243
1303.386
1302.475
1301.515
1300.483
1299.385
1298.217
1296.976
1295.658
1294.257
1292.769
1291.188
1289.506
1288.332
1287.541
1286.682
1285.829
1285.045
1283.786
1281.765
1279.043
1274.017
1306.5
1305.801
1305.053
1304.253
1303.404
1302.501
1301.532
1300.501
1299.404
1298.238
1296.999
1295.684
1294.286
1292.799
1291.217
1289.91
1288.967
1288.048
1287.183
1286.414
1285.238
1283.486
1281.563
1279.201
1275.581
1307.151
1306.503
1305.807
1305.063
1304.271
1303.425
1302.516
1301.548
1300.518
1299.423
1298.259
1297.022
1295.708
1294.311
1292.823
1291.549
1290.572
1289.624
1288.728
1287.92
1286.751
1285.086
1283.348
1281.487
1279.34
1276.522
1307.753
1307.154
1306.509
1305.818
1305.08
1304.289
1303.438
1302.531
1301.565
1300.536
1299.442
1298.28
1297.044
1295.73
1294.333
1293.116
1292.154
1291.209
1290.304
1289.469
1288.305
1286.698
1285.036
1283.311
1281.488
1279.458
1277.048
1308.306
1307.755
1307.16
1306.519
1305.833
1305.096
1304.301
1303.452
1302.546
1301.581
1300.554
1299.462
1298.3
1297.065
1295.752
1294.6
1293.67
1292.749
1291.854
1291.01
1289.861
1288.311
1286.708
1285.053
1283.339
1281.534
1279.542
1277.307
1289.067
1287.181
1285.164
1283.006
1280.696
1278.201
1275.478
1272.516
1269.296
1266.045
1290.831
1289.073
1287.196
1285.192
1283.052
1280.748
1278.241
1275.52
1272.547
1269.284
1265.923
1292.479
1290.836
1289.086
1287.219
1285.231
1283.099
1280.786
1278.285
1275.565
1272.579
1269.27
1265.767
1294.02
1292.483
1290.846
1289.103
1287.25
1285.273
1283.134
1280.828
1278.333
1275.614
1272.616
1269.261
1265.583
1295.464
1294.023
1292.49
1290.859
1289.125
1287.292
1285.306
1283.173
1280.874
1278.384
1275.667
1272.66
1269.27
1265.395
1296.819
1295.467
1294.029
1292.499
1290.867
1298.09
1296.82
1295.471
1294.034
1292.501
1249.35
1299.283
1298.091
1296.824
1295.474
1294.034
1270.353
1248.042
1300.403
1299.284
1298.094
1296.826
1295.474
1278.561
1271.032
1250.104
1301.455
1300.405
1299.287
1298.096
1296.827
1282.959
1279.416
1272.495
1254.498
1302.442
1301.457
1300.408
1299.29
1298.098
1285.596
1283.485
1280.358
1274.495
1260.349
1303.367
1302.444
1301.46
1300.412
1299.293
1287.39
1285.783
1283.902
1281.29
1276.717
1264.291
1304.233
1303.369
1302.448
1301.465
1300.417
1288.724
1287.29
1285.816
1284.197
1282.142
1278.068
1266.388
1305.042
1304.236
1303.374
1302.455
1301.473
1289.716
1288.35
1287.03
1285.741
1284.432
1282.458
1278.56
1269.039
1305.797
1305.045
1304.241
1303.382
1302.466
1290.303
1289.033
1287.851
1286.753
1285.74
1284.344
1282.187
1278.937
1271.816
1306.499
1305.8
1305.051
1304.25
1303.399
1302.499
1301.531
1300.5
1299.403
1298.237
1296.999
1295.685
1294.288
1292.806
1291.231
1290.116
1289.338
1288.484
1287.624
1286.82
1285.618
1283.857
1281.849
1279.143
1274.159
1307.151
1306.502
1305.806
1305.061
1304.268
1303.423
1302.515
1301.548
1300.518
1299.423
1298.259
1297.023
1295.711
1294.316
1292.832
1291.598
1290.687
1289.787
1288.921
1288.125
1286.961
1285.305
1283.563
1281.652
1279.306
1275.703
1307.752
1307.154
1306.509
1305.817
1305.078
1304.288
1303.438
1302.531
1301.564
1300.536
1299.443
1298.281
1297.046
1295.734
1294.338
1293.135
1292.198
1291.277
1290.391
1289.568
1288.411
1286.811
1285.154