/*--------------------------------*- C++ -*----------------------------------*\
| =========                 |                                                 |
| \\      /  F ield         | OpenFOAM: The Open Source CFD Toolbox           |
|  \\    /   O peration     | Version:  2306                                  |
|   \\  /    A nd           | Website:  www.openfoam.com                      |
|    \\/     M anipulation  |                                                 |
\*---------------------------------------------------------------------------*/
FoamFile
{
    version     2.0;
    format      ascii;
    arch        "LSB;label=32;scalar=64";
    class       volScalarField;
    location    "1.2";
    object      contErrCp;
}
// * * * * * * * * * * * * * * * * * * * * * * * * * * * * * * * * * * * * * //

dimensions      [1 -1 -3 -1 0 0 0];

internalField   nonuniform List<scalar> 
52000
(
0
0
0
0
0
0
0
0
0
0
0
0
0
0
0
0
0
0
0
0
0
0
0
0
0
0
0
0
0
0
0
0
0
0
0
0
0
0
0
0
0
0
0
0
0
0
0
0
0
0
0
0
0
0
0
0
0
0
0
0
0
0
0
0
0
0
0
0
0
0
0
0
0
0
0
0
0
0
0
0
0
0
0
0
0
0
0
0
0
0
0
0
0
0
0
0
0
0
0
0
0
0
0
0
0
0
0
0
0
0
0
0
0
0
0
0
0
0
0
0
0
0
0
0
0
0
0
0
0
0
0
0
0
0
0
0
0
0
0
0
0
0
0
0
0
0
0
0
0
0
0
0
0
0
0
0
0
0
0
0
0
0
0
0
0
0
0
0
0
0
0
0
0
0
0
0
0
0
0
0
0
0
0
0
0
0
0
0
0
0
0
0
0
0
0
0
0
0
0
0
0
0
0
0
0
0
0
0
0
0
0
0
0
0
0
0
0
0
0
0
0
0
0
0
0
0
0
0
0
0
0
0
0
0
0
0
0
0
0
0
4.15593e-05
0
0
0
0
0
0
0
0
0
0
0
0
0
0
0
0
0
0
0
0
0
0
0
0
0
0
0
0
0
0
0
0
0
0
0
0
0
0
0
0
0
0
0
0
0
0
0
0
0
0
0
0
0
0
0
0
0
0
0
0
0
0
0
0
0
-8.903462e-05
0
0
0
0
0
2.205534e-05
0.0004784873
0
0
0
0
0
0
0
0
0
0
0
0
0
0
0
0
0
0
0
0
0
0
0
0
0
0
0
0
0
0
0
0
0
0
0
0
0
0
0
0
0
0
0
0
0
0
0
0
0
0
0
0
0
0
0
0
0
0
0
0
0
0
0
0
0
0
0
0
0
0
-0.000309614
0
0
0
0
0
5.394377e-05
-0.0007327921
0
0
0
0
0
0.0003088107
0.0001285227
-0.000220595
0
0
0
0
0
0
0
0
0
0
0
0
0
0
0
0
0
0
0
0
0
0
0
0
0
0
0
0
0
0
0
0
0
0
0
0
0
0
0
0
0
0
0
0
0
0
0
0
0
0
0
0
0
0
0
0
0
0
0
0
0
0
0
0
0
0
0
0
0
0
0
0
0
0
0
0.0001567735
0
0
0
0
0
-0.0007230703
0.001182652
0
0
0
0
0
-0.000224434
0.0008395583
5.243472e-05
0
0
0
0
0
0.0002240337
-0.0008420484
4.264461e-05
0.0003622912
0
0
0
0
0
0
0
0
0
0
0
0
0
0
0
0
0
0
0
0
0
0
0
0
0
0
0
0
0
0
0
0
0
0
0
0
0
0
0
0
0
0
0
0
0
0
0
0
0
0
0
0
0
0
0
0
0
0
0
0
0
0
0
0
0
0
0
0
0
0
0
0
0
0
0
0
0
0
0
0
0.0007368862
0
0
0
0
0
0.000487381
-0.000501103
0
0
0
0
0
0.0003577329
-0.0005095303
-0.0005687932
0
0
0
0
0
0.0002761612
0.0007100038
-0.0005421443
0.0005436657
0
0
0
0
0
-0.0001848768
-0.0004673209
-0.0002801415
0.0009139368
-0.001355313
0
0
0
0
0
0
0
0
0
0
0
0
0
0
0
0
0
0
0
0
0
0
0
0
0
0
0
0
0
0
0
0
0
0
0
0
0
0
0
0
0
0
0
0
0
0
0
0
0
0
0
0
0
0
0
0
0
0
0
0
0
0
0
0
0
0
0
0
0
0
0
0
0
0
0
0
0
0
0
0
0
0
0
0
0
0.0007285642
0
0
0
0
0
-0.0005608751
-0.0013432
0
0
0
0
0
-0.0008595415
0.0005286756
0.0007222408
0
0
0
0
0
0.0002781404
-0.002258228
-0.0001889786
-0.001183348
0
0
0
0
0
0.0002232098
0.0009972004
0.001333773
-0.001369116
-4.797314e-05
0
0
0
0
0
-0.0001339236
0.0003277631
0.0004043119
0.001096164
-0.000814043
0.0004101517
0
0
0
0
0
0
0
0
0
0
0
0
0
0
0
0
0
0
0
0
0
0
0
0
0
0
0
0
0
0
0
0
0
0
0
0
0
0
0
0
0
0
0
0
0
0
0
0
0
0
0
0
0
0
0
0
0
0
0
0
0
0
0
0
0
0
0
0
0
1.561727e-06
0
0
0
0
0
0
0
0
0
0
0
0
0
0
0
0
0
0
0
0
-0.000377069
0
0
0
0
0
-0.000142307
-0.00127874
0
0
0
0
0
0.0005671189
-5.192982e-05
0.0009796798
0
0
0
0
0
0.0001357994
0.0007063339
-0.001987452
-0.0008490938
0
0
0
0
0
-2.224038e-05
-0.00240044
0.000721705
0.0009681846
0.002466712
0
0
0
0
0
8.781449e-05
-0.0004396849
-0.001856006
-0.001839432
0.00147401
-0.0003548377
0
0
0
0
0
0.0001943028
-0.000160611
-0.0005336728
-0.00102109
-0.0005588314
0.0002394809
-0.0002138841
0
0
0
0
0
0
0
0
0
0
0
0
0
0
0
0
0
0
0
0
0
0
0
0
0
0
0
0
0
0
0
0
0
0
0
0
0
0
0
0
0
0
0
0
0
0
0
0
0
0
0
0
0
0
0
0
0
-1.267759e-06
0
0
0
0
0
0
0
0
0
0
0
0
0
0
0
-3.309754e-07
-1.164524e-06
0
0
0
0
0
0
0
0
0
0
0
0
0
0
0
0
0
0
0
0
-5.353812e-05
0
0
0
0
0
5.629793e-05
0.001978098
0
0
0
0
0
7.576726e-05
0.001318581
-0.001661551
0
0
0
0
0
-0.0005027652
0.001277495
0.0007561091
0.00200494
0
0
0
0
0
-6.465937e-06
0.001555684
0.0005994747
0.0001304169
-0.0003562345
0
0
0
0
0
-0.000610729
-0.001598732
0.001569431
-0.0007542524
0.0002751587
0.0001352767
0
0
0
0
0
-0.0001085712
0.0002244342
0.001269522
0.003377618
0.001184944
-0.001094886
0.0007938628
0
0
0
0
0
-4.291034e-05
-0.0002058223
9.304626e-05
0.0002484458
0.0006637989
4.747379e-05
0.000398977
0.0004241922
0
0
0
0
0
0
0
0
0
0
0
0
0
0
0
0
0
0
0
0
0
0
0
0
0
0
0
0
0
0
0
0
0
0
0
0
0
0
0
0
0
0
0
0
-1.678522e-06
0
0
0
0
0
0
0
0
0
0
0
0
0
0
0
6.071375e-07
-1.146502e-06
0
0
0
0
0
0
0
0
0
0
0
0
0
0
0
5.403323e-07
2.987976e-07
4.148803e-06
0
0
0
0
0
0
0
0
0
0
0
0
0
0
0
0
0
0
0
0
0.0004772476
0
0
0
0
0
-0.0004368769
-0.0007329622
0
0
0
0
0
-0.0005786379
-0.001293816
-0.001440976
0
0
0
0
0
-0.0002578503
-0.00110107
0.0002834352
0.0004832465
0
0
0
0
0
-0.0002107397
-0.0006812691
-0.0004543239
0.001335678
-0.002141951
0
0
0
0
0
0.0001839487
0.001362068
-0.001680213
0.002137736
-0.00177226
-0.0001681267
0
0
0
0
0
0.0005660298
0.001013549
-0.0003547467
-0.001189609
0.0001516702
-0.0003771871
-0.0005458324
0
0
0
0
0
-0.0002487334
0.0001913205
0.001216047
-0.001551844
-0.001479407
-0.001084275
0.0009329115
8.407175e-05
0
0
0
0
0
-9.82529e-05
-0.0006426906
-0.0005866098
-0.0007666029
0.0004488033
0.0001789372
-0.0001049066
-0.0004530199
-7.220029e-05
0
0
0
0
0
0
0
0
0
0
0
0
0
0
0
0
0
0
0
0
0
0
0
0
0
0
0
0
0
0
3.634062e-06
0
0
0
0
0
0
0
0
0
0
0
0
0
0
0
-1.778178e-06
2.717541e-06
0
0
0
0
0
0
0
0
0
0
0
0
0
0
0
1.653896e-06
4.508428e-06
5.318142e-07
0
0
0
0
0
0
0
0
0
0
0
0
0
0
0
-4.142028e-07
-1.983442e-06
-5.4198e-06
-1.526318e-06
0
0
0
0
0
0
0
0
0
0
0
0
0
0
0
0
0
0
0
0
-0.0002136965
0
0
0
0
0
0.001162682
-0.0001441952
0
0
0
0
0
0.001165473
0.001634346
0.0003671792
0
0
0
0
0
-0.0001814979
0.001240959
-0.0004697842
0.0001266252
0
0
0
0
0
0.0002191382
0.001535199
-9.064127e-05
-0.0009801156
0.001532482
0
0
0
0
0
0.0001831216
-0.0008406691
0.0003005631
-0.0006960147
0.000586967
0.001159403
0
0
0
0
0
-0.0002541612
0.0001598828
-8.625782e-05
0.001226897
-0.0008554931
0.001087679
-0.0004486969
0
0
0
0
0
-5.317744e-06
-0.000492559
-0.0001115692
0.0002716731
0.0004137613
0.0005373582
0.0002546298
-0.002140152
0
0
0
0
0
-0.0002404769
0.0009919461
0.001385553
-0.0005914262
-0.0006302178
-8.234377e-05
-0.0006910534
-0.0002877744
0.0005117275
0
0
0
0
0
0.000106496
-0.0003119701
0.0001764289
0.0006946118
-8.841252e-05
-0.0003857555
-0.0001775037
0.0008245869
0.0001189657
-5.406102e-05
0
0
0
0
0
0
0
0
0
0
0
0
0
0
0
1.348554e-08
0
0
0
0
0
0
0
0
0
0
0
0
0
0
0
2.39726e-06
-2.235253e-06
0
0
0
0
0
0
0
0
0
0
0
0
0
0
0
-7.263628e-07
1.376933e-06
-1.518934e-06
0
0
0
0
0
0
0
0
0
0
0
0
0
0
0
3.989501e-06
-7.435443e-08
1.462174e-06
2.596501e-06
0
0
0
0
0
0
0
0
0
0
0
0
0
0
0
-1.051423e-07
1.890593e-07
2.640049e-06
3.122739e-06
-1.372587e-06
0
0
0
0
0
0
0
0
0
0
0
0
0
0
0
0
0
0
0
0
0
0
0
0
0
-0.000277636
-0.0001751513
0
0
0
0
0
-0.0007394606
-0.001329844
0.001761084
0
0
0
0
0
-3.900495e-07
-0.002211967
-0.001807364
0.001386228
0
0
0
0
0
-0.0002218032
-0.0003846828
-0.0005006832
0.001476624
0.0002205922
0
0
0
0
0
0.0006034559
0.0003673332
0.0008200999
0.0003454834
-0.001433914
-0.001594657
0
0
0
0
0
-0.0003784346
-0.0006101234
-0.0003774263
-0.0001412484
-0.0005307841
0.0005068158
-0.001072208
0
0
0
0
0
0.0006049641
0.0003279043
-0.0008255259
0.001026159
-0.0009140058
0.001382356
-0.001525617
0.002627175
0
0
0
0
0
0.0008829124
0.0004634095
-0.003072476
-0.0002226631
0.000393262
-0.0006644192
9.892255e-05
-0.0007081239
-0.0003250622
0
0
0
0
0
-0.0003303692
0.0005293585
0.001103508
0.0007265904
0.0008647602
0.000427267
4.761132e-05
-0.00109353
0.001545313
-0.0003978249
0
0
0
0
0
0.0001834141
-2.882845e-05
-0.001275454
-0.000439169
-0.0001018491
0.0004047715
-0.0001123457
0.000263313
-0.0002624962
-0.000215042
0.0002278944
0
0
0
0
0
0
0
0
0
0
0
0
0
0
0
2.818739e-06
-3.056676e-06
0
0
0
0
0
0
0
0
0
0
0
0
0
0
0
1.10765e-06
-2.044732e-06
5.097021e-06
0
0
0
0
0
0
0
0
0
0
0
0
0
0
0
-4.462493e-07
1.706608e-06
3.253021e-06
-3.434091e-06
0
0
0
0
0
0
0
0
0
0
0
0
0
0
0
-1.436989e-07
2.746976e-06
-6.30036e-07
1.986736e-06
-3.085968e-06
0
0
0
0
0
0
0
0
0
0
0
0
0
0
0
-8.008447e-07
-6.891807e-07
-7.816167e-07
-2.39663e-06
-2.440012e-06
1.364363e-05
0
0
0
0
0
0
0
0
0
0
0
0
0
0
0
0
0
0
0
0
0
0
0
0
0
0
0
0
0
0
0.0002141142
9.325128e-05
4.960753e-05
0
0
0
0
0
-0.000216698
0.0005995887
0.0004655356
-0.001377893
0
0
0
0
0
0.0005034135
0.0003656045
0.000501427
6.633878e-05
-0.0005313427
0
0
0
0
0
-0.001252711
0.0002058364
0.0005885997
0.0005819014
-0.0005021061
0.0004510499
0
0
0
0
0
-5.814729e-05
0.0006802807
0.0005536409
-0.000894358
7.584771e-05
0.001545888
0.002119187
0
0
0
0
0
0.0002270368
0.0001808244
0.0001151816
-1.614341e-05
0.0009122685
-0.001299336
-0.0007520803
-0.0008439667
0
0
0
0
0
-0.0002287623
-0.0003125653
0.00254077
-0.000684758
-0.0004923522
0.0007012508
-0.002422325
0.00147185
0.002091937
0
0
0
0
0
0.0005627671
-0.00157827
-0.002517326
0.001118507
0.001482815
-0.0001377677
-4.534529e-05
-0.0003865343
-0.0003534434
-9.169193e-05
0
0
0
0
0
-0.0001120842
9.589093e-05
0.001321942
0.0005132087
-0.0007550998
-0.0007855996
-0.0007991274
0.001013354
0.001658148
-0.0009707478
0.0003650349
0
0
0
0
0
-7.829696e-05
-0.0002273144
0.0004928008
0.0008198725
0.0002440597
-0.0006281028
0.0001954339
0.0003985661
-0.000598244
-7.574071e-05
3.532057e-05
1.565736e-06
0
0
0
0
0
0
0
0
0
0
0
0
0
0
0
3.026377e-06
-5.768879e-07
-2.016421e-06
0
0
0
0
0
0
0
0
0
0
0
0
0
0
0
9.480091e-07
-1.929159e-07
1.504856e-06
3.227882e-06
0
0
0
0
0
0
0
0
0
0
0
0
0
0
0
9.649825e-07
2.519216e-07
1.578332e-06
-6.788334e-07
-2.584542e-06
0
0
0
0
0
0
0
0
0
0
0
0
0
0
0
-8.203387e-07
1.735318e-06
-2.505885e-08
-1.407042e-07
-9.41371e-07
2.549408e-06
0
0
0
0
0
0
0
0
0
0
0
0
0
0
0
-3.342862e-07
6.547341e-08
-4.653422e-07
8.773368e-07
4.390524e-07
-1.173709e-06
-2.399491e-05
0
0
0
0
0
0
0
0
0
0
0
0
0
0
0
0
0
0
0
0
0
0
0
0
0
0
0
0
0
0
0
0
0
0
0
-4.989284e-06
0.000314078
0.0004651705
7.945831e-05
0
0
0
0
0
-0.0002727192
0.0001069385
0.001078533
-0.001014401
-0.0008627095
0
0
0
0
0
-0.0002666392
-0.0007047977
-0.0008357257
0.001344257
-0.0004725134
-0.0007748824
0
0
0
0
0
0.0006930891
0.0005793585
0.000276448
-0.001653282
2.549351e-05
0.0001562732
-0.0007184082
0
0
0
0
0
-0.0004477244
-5.754352e-05
-0.001346641
0.0008241225
-0.000968938
0.001004793
-0.0002356233
0.0001940341
0
0
0
0
0
-4.741368e-06
-0.0007407569
-0.0001380573
-0.0001267821
-0.0007307381
0.0007559195
0.0009977221
-0.0007220187
-0.001264856
0
0
0
0
0
-0.0008704674
0.001167772
0.0006337376
-0.001072702
3.20515e-05
0.001118381
0.0009094841
0.001745733
0.0001021697
-0.0007984319
0
0
0
0
0
-4.275838e-05
0.0002480138
-0.0005803722
-0.0002946806
-0.0004042327
-0.001065307
0.0008898618
-0.0007447452
0.0005457556
0.000291944
-8.268732e-05
0
0
0
0
0
0.0006763245
0.0004830235
-0.0005440816
0.001095759
0.0007159632
-0.0001442471
-0.0002109859
0.0009321273
-0.000605458
-0.0006067547
0.0006447556
-3.237193e-06
0
0
0
0
0
-5.159023e-05
-8.734114e-05
-0.0001948611
0.0001527402
-0.0002796274
0.0001735235
0.0001494251
-0.0002926115
-0.0008046722
0.000529205
6.615465e-05
2.930957e-07
1.022465e-06
0
0
0
0
0
0
0
0
0
0
0
0
0
0
0
-1.469261e-06
-3.383971e-06
-1.945301e-06
-3.428006e-07
0
0
0
0
0
0
0
0
0
0
0
0
0
0
0
-1.72564e-08
-3.281791e-06
5.603029e-06
-3.504777e-07
-1.058108e-06
0
0
0
0
0
0
0
0
0
0
0
0
0
0
0
-9.977573e-07
-2.372142e-06
2.126063e-06
-3.704308e-06
1.532415e-07
7.007106e-06
0
0
0
0
0
0
0
0
0
0
0
0
0
0
0
-2.983545e-06
5.152017e-06
-6.651065e-07
6.017534e-07
-1.517398e-06
-1.411649e-05
8.723166e-07
0
0
0
0
0
0
0
0
0
0
0
0
0
0
0
6.362436e-08
3.784748e-09
-1.080941e-06
1.757737e-06
5.326885e-07
-3.767825e-06
1.816271e-06
-1.040887e-05
0
0
0
0
0
0
0
0
0
0
0
0
0
0
0
0
0
0
0
0
0
0
0
0
0
0
0
0
0
0
0
0
0
0
0
0
0
0
0
0
0.0003711872
0.0007170981
-0.0008963142
0.0002233118
0.0001969268
0
0
0
0
0
0.0003733633
-0.0006441411
0.0007013494
-0.0002871224
0.0006406858
0.0005859519
0
0
0
0
0
-0.001067425
-0.0009493554
-0.0009421491
0.001925752
-0.001095477
0.0003827511
0.0003202112
0
0
0
0
0
-0.0004095328
0.0006167472
0.0004952883
-0.002171975
0.001514692
-0.0001493461
0.0004951382
-0.0002841388
0
0
0
0
0
0.0001950229
-0.0004851634
-0.0006090537
0.0008365273
0.0007718814
0.0006832725
-0.0003466171
0.0004221352
0.0004186403
0
0
0
0
0
0.0004313128
-0.001800826
4.844074e-06
0.0006320722
0.0006232894
0.0002873471
-0.001609353
0.0001829461
0.001387325
0.00123943
0
0
0
0
0
0.0006574517
-0.0002952412
-0.0003820514
-0.0004389513
0.0006442344
-0.0006342354
-0.001130383
-0.001075669
0.001457253
-0.0001941231
2.084754e-06
0
0
0
0
0
0.0002299909
-0.001012221
0.0002625205
-0.001056869
0.0005935796
0.0008155106
0.0007706691
-0.001173273
0.000464076
-0.001061846
-0.00018264
-1.584399e-06
0
0
0
0
0
-0.0003184205
0.0005650924
0.0002070881
-0.0003845988
-0.0009468093
-0.0007570251
0.001142816
0.0001540388
0.001621378
-0.0005993175
0.0003007832
1.527621e-06
1.091163e-06
0
0
0
0
0
-2.55685e-05
-0.0001623978
0.0001757191
-0.000560561
-6.784472e-05
0.0002980049
0.000125627
0.000339598
-0.0001989806
0.000496913
-5.806442e-05
2.72784e-06
-2.153037e-06
-1.518538e-06
0
0
0
0
0
0
0
0
0
0
0
0
0
0
0
2.886482e-07
1.069766e-06
2.359165e-06
-1.980904e-06
2.43795e-06
0
0
0
0
0
0
0
0
0
0
0
0
0
0
0
1.993007e-06
2.422547e-06
-3.464595e-07
1.018726e-06
-2.332616e-06
-9.391252e-06
0
0
0
0
0
0
0
0
0
0
0
0
0
0
0
-2.368821e-06
2.492432e-06
4.674828e-06
-3.517516e-06
1.552327e-06
4.875264e-06
-2.05345e-05
0
0
0
0
0
0
0
0
0
0
0
0
0
0
0
1.381684e-06
-2.233708e-06
7.117985e-07
-4.553238e-07
2.605573e-07
1.565e-05
8.711802e-06
-7.903e-06
0
0
0
0
0
0
0
0
0
0
0
0
0
0
0
5.663459e-07
-1.774727e-06
-7.7303e-08
8.270554e-07
-6.080404e-07
-5.707414e-06
1.037749e-05
1.620209e-05
3.002704e-05
0
0
0
0
0
0
0
0
0
0
0
0
0
0
0
0
0
0
0
0
0
0
0
0
0
0
0
0
0
0
0
0
0
0
0
0
0
0
0
0
0
0
0
0
0
5.282604e-05
-0.0001924254
-0.0007164278
9.359392e-05
-0.0002577309
0.0004823488
0
0
0
0
0
0.000228738
0.0002495263
0.001733942
-0.0009996287
-0.001879958
-0.001503925
0.001175629
0
0
0
0
0
-0.0002253138
6.263973e-05
0.0001687562
0.001879852
-0.0002147236
-0.0008733455
-0.0006097921
0.0005145342
0
0
0
0
0
0.0001242596
0.001550476
-3.078798e-05
1.172875e-05
-0.0002572916
-0.000820918
-0.0003038154
0.001123383
0.000538851
0
0
0
0
0
0.0004574317
0.0009666748
0.001115708
0.0003512176
-1.264622e-05
-0.001347212
0.0007004146
-0.001023476
-0.0005625604
-0.0008216061
0
0
0
0
0
-0.0002397647
-0.0008186697
0.001751858
0.001160491
-0.00079674
0.001314679
-0.0002286421
0.0007457801
-6.761903e-05
-0.0005178099
-1.515852e-05
0
0
0
0
0
-0.0008055581
-0.00109273
-0.000516185
0.0005438945
-0.001666234
-0.000485822
-0.0002591171
0.0003332614
0.001049643
0.001007656
0.0003806069
-2.20907e-06
0
0
0
0
0
-8.880183e-05
-0.00133314
0.001550696
0.0001159463
0.0001160871
-0.0003628909
-0.0004701612
0.0003470438
0.0003250554
-0.0001331702
-0.0001804561
-4.227758e-07
1.002366e-06
0
0
0
0
0
0.0001241432
-0.0004152902
-0.001815084
0.0005384912
-0.0008615629
-4.785148e-05
0.001145624
0.0002481822
-9.673565e-05
-0.00194828
0.000123183
-2.697218e-07
-3.82384e-06
2.152358e-06
0
0
0
0
0
0.0004644209
0.000415426
1.861954e-05
-0.001007775
0.0004542731
0.000148548
-0.0004691983
0.0005664401
-0.0002166271
-5.476069e-05
-0.0001549542
-5.109947e-07
1.123967e-06
-2.731238e-06
2.968945e-06
0
0
0
0
0
0
0
0
0
0
0
0
0
0
0
-3.363121e-07
6.13423e-07
-1.17953e-06
-3.548751e-06
1.697231e-06
3.136771e-05
0
0
0
0
0
0
0
0
0
0
0
0
0
0
0
6.502366e-07
-4.230391e-06
-5.823931e-06
-4.082036e-06
2.670052e-06
-2.057711e-06
2.977922e-05
0
0
0
0
0
0
0
0
0
0
0
0
0
0
0
-7.607311e-07
2.452627e-06
-2.051559e-06
-7.97949e-08
-3.295684e-07
-1.327582e-05
-1.632224e-05
2.054273e-05
0
0
0
0
0
0
0
0
0
0
0
0
0
0
0
1.175394e-07
4.518136e-07
-1.60458e-06
-1.622486e-06
1.011267e-06
2.537166e-06
-2.568482e-05
2.520901e-05
8.253247e-06
0
0
0
0
0
0
0
0
0
0
0
0
0
0
0
-1.805183e-06
-3.3446e-06
1.378639e-06
-1.007882e-06
7.885743e-08
1.995841e-05
1.276296e-05
-1.831969e-05
-1.946823e-05
-1.670022e-05
0
0
0
0
0
0
0
0
0
0
0
0
0
0
0
0
0
0
0
0
0
0
0
0
0
0
0
0
0
0
0
0
0
0
0
0
0
0
0
0
0
0
0
0
0
0
0
0
0
0
5.839625e-05
-0.0003030786
0.0006357078
-0.0001800652
0.0009676431
0.0004034803
-0.0006692013
0
0
0
0
0
-0.0001039826
-0.001462035
0.0004338914
-0.0008158435
0.0002275867
0.0005769088
-0.0004266036
-0.0003296885
0
0
0
0
0
1.905691e-05
0.0006824769
0.0005864841
0.001062211
0.0009625793
-0.000820538
-0.0009956508
0.0001339695
9.075483e-06
0
0
0
0
0
4.497597e-05
-0.0008700141
-0.001747522
0.0001835116
-0.0003807535
-0.001589274
0.0008929009
7.284855e-05
-0.0003231663
-9.691019e-05
0
0
0
0
0
0.0009703202
0.0002777825
-0.001032784
0.0002532808
0.0005769117
-0.001005938
0.0003370328
0.001300004
0.001963805
0.0006872217
-0.0002099329
0
0
0
0
0
-0.000466228
4.483985e-05
0.001810983
-0.0006460585
0.0005426957
-4.247348e-05
-0.001117847
8.674804e-05
-0.00208813
-0.001068426
-7.541687e-05
-4.222374e-06
0
0
0
0
0
0.00010039
0.000404451
0.0002991534
-0.0001694902
0.0009262059
0.002318888
-0.0001019052
-0.001232145
5.68378e-05
-0.0002797348
-0.0003498196
-4.921428e-07
-2.709503e-06
0
0
0
0
0
0.0003185645
0.0008854763
0.0009583699
-0.001316898
-0.0006784955
0.00127124
-0.001287107
-2.749862e-05
-0.000502672
0.0007588453
-2.899673e-05
-8.167973e-09
4.955882e-06
-1.036372e-06
0
0
0
0
0
3.985716e-05
-0.002024553
0.0004124391
0.0008088632
-0.001321788
0.0007313703
-0.0003661146
-0.002536988
0.001027504
6.297698e-05
0.0004644556
2.16181e-06
-6.9465e-07
-2.77915e-06
-8.545823e-07
0
0
0
0
0
-0.0001006551
-0.0006434211
-0.0002994498
-0.0008061751
0.0006354418
-0.000403964
0.000498154
5.333385e-05
-0.0006266812
-0.0001163939
-5.026493e-05
3.064609e-06
-1.482322e-06
-7.628792e-07
1.763866e-06
-1.248455e-05
0
0
0
0
0
0
0
0
0
0
0
0
0
0
0
-6.136655e-07
7.000755e-07
2.376062e-06
7.696703e-07
-2.017907e-06
-2.217824e-05
-1.918193e-05
0
0
0
0
0
0
0
0
0
0
0
0
0
0
0
1.038062e-06
2.754711e-07
-1.584271e-06
1.294512e-06
-3.955188e-07
-2.821745e-07
-1.245544e-05
-2.5762e-06
0
0
0
0
0
0
0
0
0
0
0
0
0
0
0
-6.648999e-07
1.237962e-06
-1.225149e-06
4.461191e-07
9.304862e-07
1.186864e-05
-1.678247e-05
2.167914e-05
-2.156939e-05
0
0
0
0
0
0
0
0
0
0
0
0
0
0
0
2.1269e-06
1.765881e-06
4.168884e-06
-4.222605e-06
2.142253e-06
-1.152089e-05
-1.307514e-05
1.502392e-05
-1.823494e-05
-6.835971e-06
0
0
0
0
0
0
0
0
0
0
0
0
0
0
0
-8.901182e-07
2.791242e-06
2.669171e-06
-5.281505e-07
-4.530065e-07
3.062169e-06
-2.736024e-05
-2.694969e-05
3.017852e-05
1.282612e-05
-79086.71
0
0
0
0
0
0
0
0
0
0
0
0
0
0
0
0
0
0
0
0
0
0
0
0
0
0
0
0
0
0
0
0
0
0
0
0
0
0
0
0
0
0
0
0
0
0
0
0
0
0
0
0
0
0
0
0.0002274129
0.0006783848
-0.0001188203
-0.0007744066
0.0007473888
0.0003552565
6.376794e-06
8.550872e-05
0
0
0
0
0
-1.690345e-05
-0.0006059885
0.0005400393
-0.0009255656
-0.0005095885
-0.0001066849
0.00174282
-3.58648e-06
-0.001634728
0
0
0
0
0
-0.0001347387
-2.623225e-05
1.22319e-05
-0.0004757001
-0.001265965
0.0009603093
-0.0006019187
0.0003549498
9.826771e-05
-0.0003511778
0
0
0
0
0
-0.0002505159
-0.002503803
0.0007742301
-0.0006132431
-0.001605663
-0.0005781283
0.0004962391
-0.003143832
-0.0001481554
-0.0002664461
0.0001180174
0
0
0
0
0
0.001073471
-0.001023711
-0.0009036348
-0.0002728444
-0.001688572
0.0006430128
0.001157378
0.0007538305
0.001132561
-0.002448735
-0.0001802217
8.109563e-08
0
0
0
0
0
-0.0003331993
0.002396054
-0.001080026
0.0004023269
-0.001454136
-0.0003030064
-0.001037031
0.0004832307
-0.00142378
0.0002833901
0.0006626252
5.740989e-07
2.378049e-06
0
0
0
0
0
0.0003177622
0.0002518983
-6.485244e-05
0.000925843
0.0001492836
0.0003541387
-0.001030597
0.0003775742
0.002008428
-5.9457e-05
0.0002395275
1.452748e-06
-3.031676e-06
-1.349578e-06
0
0
0
0
0
-0.0003588286
4.693778e-06
0.0003739362
0.001969635
0.0004380085
-0.0001638314
-0.002148455
0.001532476
-0.001042365
0.0007073262
0.000203099
-1.956254e-06
2.059046e-07
-9.151896e-07
-2.488426e-06
0
0
0
0
0
-0.0002481806
0.0004863506
0.001812122
0.0002974694
-0.001006232
0.0005919816
-0.001322976
0.00128952
0.001962636
0.0003035787
-0.0002227524
-1.315156e-06
1.402657e-06
-1.697111e-06
3.881648e-07
-1.741415e-06
0
0
0
0
0
3.018723e-05
7.56958e-05
-0.0003495741
0.000695695
0.0006085849
-0.0004148608
-0.0001995347
0.0001144629
-0.0001470718
-0.0001079527
0.0002660913
1.967545e-06
-7.711645e-06
-1.886146e-06
2.10325e-06
9.526536e-06
6.581295e-06
0
0
0
0
0
0
0
0
0
0
0
0
0
0
0
-4.603108e-07
1.459046e-06
2.164741e-06
2.416396e-06
6.224084e-08
-2.445606e-05
1.054025e-05
-2.72591e-05
0
0
0
0
0
0
0
0
0
0
0
0
0
0
0
-7.052294e-07
-2.178516e-06
2.660322e-06
-4.2663e-07
-4.454877e-06
-1.597051e-05
1.010955e-05
1.026002e-05
-2.385067e-05
0
0
0
0
0
0
0
0
0
0
0
0
0
0
0
3.000637e-06
8.208079e-07
1.886265e-06
-9.82519e-07
-4.724528e-07
-4.177586e-06
-6.804149e-06
1.595623e-05
-1.192266e-07
1.377832e-05
0
0
0
0
0
0
0
0
0
0
0
0
0
0
0
-1.442674e-06
-5.770157e-06
-1.794288e-06
1.782454e-07
6.365389e-07
-2.004991e-05
9.56064e-06
1.151091e-05
-1.627107e-06
7.602357e-06
-79776.35
0
0
0
0
0
0
0
0
0
0
0
0
0
0
0
-1.784954e-07
1.125023e-06
-5.73186e-07
-1.18483e-06
3.36493e-07
1.732728e-06
1.519417e-05
-8.237546e-06
2.416116e-05
-2.46756e-05
-72556.25
-79675.37
0
0
0
0
0
0
0
0
0
0
0
0
0
0
0
0
0
0
0
0
0
0
0
0
0
0
0
0
0
0
0
0
0
0
0
0
0
0
0
0
0
0
0
0
0
0
0
0
0
0
0
0
0
0
0
0
0
0
0
0
0.000320852
0.0003469849
-0.0003887418
0.0002322942
-0.0003232103
-0.0004652449
-0.0006864996
0.0002246906
0.0009026105
0
0
0
0
0
4.860831e-05
-0.0005284485
0.0002456236
-6.400701e-05
-0.0002280079
-0.000840021
0.0005877911
0.0001657213
-0.0008414359
0.0007997115
0
0
0
0
0
0.0005198118
0.002339794
-0.001050375
0.0004656973
0.0008751575
9.978061e-05
0.0008315974
0.000650833
-0.0004321632
0.0001004796
0.0003253002
0
0
0
0
0
-0.0006421742
-0.0006098704
0.001962074
8.619101e-05
0.001693303
0.0005495685
0.0002188377
-0.0008239031
-0.0006287726
0.0007258475
0.0001019664
-1.634727e-06
0
0
0
0
0
0.0002489138
-0.001796325
0.0002471354
2.812865e-05
-0.0001061812
-0.0009448992
0.001077953
-0.0002902336
0.001220815
-0.0004342058
0.0007388028
-3.490869e-06
-3.869854e-07
0
0
0
0
0
-3.341176e-05
-0.0004636953
-0.002167891
-0.0001638997
-0.001388083
-0.0008295662
0.000340476
3.432738e-05
-0.001509162
-0.0004852836
0.0001184468
-1.463073e-06
-1.334352e-06
2.732472e-07
0
0
0
0
0
-0.0003059104
-0.0006582012
-0.0005168485
-0.001100853
0.0001024987
-0.0001248788
-2.997545e-05
0.0009175528
0.0001229173
-0.001400393
0.0001220243
1.104887e-06
9.549606e-07
1.410063e-06
-2.209313e-07
0
0
0
0
0
3.904424e-05
-0.0002643216
9.850816e-05
-0.0003399553
-0.0008270926
-0.0002065153
0.001542799
-0.0003501187
0.0002797773
-4.798326e-05
-0.0003037501
-3.596567e-06
2.862142e-06
2.862893e-06
5.10012e-07
1.38201e-05
0
0
0
0
0
2.210772e-05
0.0006648167
0.0002096494
-0.001249365
-0.0009820989
0.002170608
0.0002759939
0.0001347399
0.0004372832
0.0003763023
-0.0003869788
-1.254464e-06
-4.92068e-07
-1.462492e-06
-2.37032e-07
-2.731201e-06
-8.217643e-06
0
0
0
0
0
0.0001762627
-0.0003923493
-6.737159e-05
0.0001818923
0.0001923078
-4.587726e-05
7.111315e-05
0.0002898729
-3.258012e-05
-3.41603e-05
1.730155e-05
2.298847e-06
-4.145096e-06
-3.239689e-06
1.01786e-06
9.952761e-06
-2.09558e-06
-2.044603e-05
0
0
0
0
0
0
0
0
0
0
0
0
0
0
0
-6.538051e-07
3.377156e-06
9.693624e-07
-4.356893e-07
-9.463352e-08
-7.944362e-06
-3.634742e-06
-3.548105e-06
1.296102e-05
0
0
0
0
0
0
0
0
0
0
0
0
0
0
0
-4.972844e-07
2.611932e-06
-1.330397e-07
2.99355e-06
-4.251203e-07
4.435749e-06
1.285912e-05
7.81231e-07
-1.027292e-05
1.553423e-05
0
0
0
0
0
0
0
0
0
0
0
0
0
0
0
-1.148159e-08
-1.767505e-08
-8.590726e-07
-3.876718e-07
-8.297324e-07
-3.325969e-06
1.013912e-05
-5.395899e-06
1.033003e-06
-1.119046e-05
-81163.16
0
0
0
0
0
0
0
0
0
0
0
0
0
0
0
-3.093277e-06
4.153623e-07
5.176486e-06
-4.447988e-07
-1.651929e-08
3.385383e-06
2.020454e-05
-8.89137e-06
-2.134263e-05
-3.241548e-06
-73006.79
-80376.69
0
0
0
0
0
0
0
0
0
0
0
0
0
0
0
6.599362e-07
-1.078611e-06
-3.690779e-07
2.50619e-07
-9.330632e-07
7.969377e-06
6.096185e-06
-2.522405e-05
2.260249e-05
-1.011633e-05
-67047.95
-73073.2
-81227.39
0
0
0
0
0
0
0
0
0
0
0
0
0
0
0
0
0
0
0
0
0
0
0
0
0
0
0
0
0
0
0
0
0
0
0
0
0
0
0
0
0
0
0
0
0
0
0
0
0
0
0
0
0
0
0
0
0
0
0
0
0
0
0
0
0
-1.884614e-05
-0.0001420782
-0.0001376108
0.0004790373
0.0002998475
0.0003756417
-4.618401e-05
-0.0001428234
0.000551402
-0.0002434144
0
0
0
0
0
0.0003387064
-0.002168375
0.001666758
0.0004935585
0.0004115254
0.001918639
0.0007486002
0.0006602492
-4.102795e-06
0.0002474421
-0.0002449805
0
0
0
0
0
-0.0002484786
-0.001418828
-0.001620053
0.0002468582
-0.001093018
0.0009976296
0.0004018382
-0.001659378
0.001511965
0.0007657807
-0.0001498468
-8.494868e-07
0
0
0
0
0
0.0003675828
0.001554743
0.001501165
-0.0004854807
0.0007250378
0.001530318
-0.001517712
-5.581689e-05
0.0001551832
0.001036237
-0.000210014
-1.627203e-06
-2.913752e-06
0
0
0
0
0
-0.0003449328
4.77002e-05
0.0005410968
-0.0004197842
0.0003819036
0.001456225
0.0004117042
0.0004104185
6.998999e-05
0.000954878
0.0003837098
-7.50224e-07
-2.817435e-07
-9.692206e-07
0
0
0
0
0
0.0005634607
0.0013881
-0.0009797134
0.001054326
-2.01303e-05
0.00130407
0.001041943
-0.0002248195
0.0003220959
0.001307363
0.000315874
2.48711e-06
1.195208e-06
3.929312e-08
6.631741e-07
0
0
0
0
0
-0.0001069191
0.0006380094
-0.001430883
0.0004127608
-0.0003326754
0.0004752398
-0.0013557
0.0006140707
0.0002350975
0.001543804
0.0003251146
-2.20683e-06
2.267548e-07
2.887172e-07
-5.735263e-06
-6.149331e-06
0
0
0
0
0
0.0002029531
-0.000928945
0.001189204
-6.445721e-05
0.001885444
0.001390237
0.0007127267
0.000217856
-0.001047125
-0.0006732859
-0.0001960191
8.494874e-07
-3.880458e-06
6.975217e-07
-2.627825e-06
-5.342292e-06
-2.726752e-05
0
0
0
0
0
0.0004550254
0.0002194862
0.001101493
0.0001366818
-0.0003248603
0.001053656
-0.00171843
-0.001434913
-0.002063809
0.001351595
-0.0003741714
1.278357e-06
1.737813e-06
2.986555e-06
4.753736e-06
-8.249637e-06
3.517949e-06
-1.793127e-06
0
0
0
0
0
-0.0001201452
-0.0009882417
0.0006542958
-4.291619e-05
-0.0003909652
-0.0001538752
-0.0002390958
-0.0002886277
-0.0005294309
0.0003961541
-5.000883e-05
-1.045896e-06
-2.469882e-07
-7.474701e-07
-3.906385e-06
1.538959e-05
-2.128396e-05
-2.304591e-05
1.478389e-05
0
0
0
0
0
0
0
0
0
0
0
0
0
0
0
3.576179e-08
-1.22953e-06
-2.093104e-06
-1.090743e-06
1.373678e-06
1.09942e-06
2.228825e-05
1.368021e-05
-7.857498e-06
9.683962e-06
0
0
0
0
0
0
0
0
0
0
0
0
0
0
0
1.88997e-06
3.87926e-06
2.116321e-08
-1.675368e-06
4.546078e-07
-1.90314e-05
-1.635606e-05
-2.933508e-06
-7.281254e-06
8.17292e-07
-83233.23
0
0
0
0
0
0
0
0
0
0
0
0
0
0
0
-1.115995e-07
1.901307e-06
-2.755976e-06
1.947781e-06
1.891652e-06
1.811911e-06
6.365597e-06
7.390982e-06
1.565418e-06
-2.222124e-06
-73890.48
-81786.81
0
0
0
0
0
0
0
0
0
0
0
0
0
0
0
-1.544651e-06
-1.995333e-06
-1.106665e-06
-2.01434e-06
-4.340022e-07
-1.601967e-06
-1.671013e-05
-1.394961e-05
-6.574265e-07
1.825601e-05
-67393.92
-73531.68
-81956.61
0
0
0
0
0
0
0
0
0
0
0
0
0
0
0
-6.199057e-07
8.778199e-07
2.295458e-08
1.648276e-06
1.460169e-06
-2.666495e-06
-7.363391e-06
-2.193386e-05
4.009175e-06
-2.086489e-05
-62631.8
-67511.59
-74423.6
-83790.47
0
0
0
0
0
0
0
0
0
0
0
0
0
0
0
0
0
0
0
0
0
0
0
0
0
0
0
0
0
0
0
0
0
0
0
0
0
0
0
0
0
0
0
0
0
0
0
0
0
0
0
0
0
0
0
0
0
0
0
0
0
0
0
0
0
0
0
0
0
0
-1.069441e-05
0.0002938712
-0.0002251319
-0.0004086072
-0.0002375271
-0.0008939964
-0.0002637188
-0.0001187324
-0.0007946781
-0.0001673363
-3.00735e-05
0
0
0
0
0
-0.0001195811
0.0003061209
0.002073041
-0.001051938
0.0007105165
-0.0003196072
-0.001766986
-0.0004650464
-0.0008524536
0.0007094542
-0.0003980212
-3.516656e-06
0
0
0
0
0
-0.0002792111
-8.103084e-06
6.2127e-05
-0.0002807942
-6.268962e-05
0.0005605608
0.0008960255
-9.802904e-05
0.0006158698
-0.001198196
-0.0001395207
1.213055e-06
1.366129e-06
0
0
0
0
0
0.0006197846
-3.362371e-05
-0.0007944972
-5.921835e-05
-0.000935524
-0.001574093
-0.0009034324
-6.059499e-05
-0.0003153904
-3.109157e-06
-0.0001209056
1.032191e-06
-3.70427e-07
8.222522e-07
0
0
0
0
0
-0.0005718688
-0.00028287
0.00107488
8.238e-05
-0.0001901897
-8.376187e-05
-0.000937342
-0.001634682
-0.0002385685
7.923323e-05
-0.0004734678
-1.593421e-06
1.195002e-06
7.7361e-07
2.871174e-06
0
0
0
0
0
-0.000447747
0.0004282238
-0.002053587
0.0002238337
0.0003790203
-0.0001828529
-0.0001505048
0.0008516689
0.0006029428
-0.002611895
-0.0004129768
2.527708e-07
-6.839575e-08
-5.684897e-08
1.212054e-06
1.060436e-05
0
0
0
0
0
5.21007e-05
0.001383386
-0.002325681
0.001357687
-0.001071364
-0.001561233
-0.001639651
0.0008775943
3.713031e-05
-0.000837871
-0.0002362675
2.627822e-06
-4.534506e-07
2.222615e-07
2.90763e-06
-1.137988e-05
-1.607289e-05
0
0
0
0
0
-0.0002604965
-0.001036107
-0.00124278
-0.001325427
0.0001190768
-0.0009623895
-0.001310634
8.393265e-05
0.0002898429
-0.001060261
5.075246e-05
2.298269e-06
-1.09097e-06
-3.778051e-06
3.858319e-07
3.781551e-06
-3.079412e-06
-2.608223e-05
0
0
0
0
0
0.0003484099
0.001047631
-0.0001184406
-0.0001533072
-0.0001310141
0.0001832511
-0.0009330251
0.0008485988
0.001284002
0.0008022206
-0.0006165136
1.197871e-06
1.202181e-06
3.256909e-06
-1.194771e-06
3.83639e-06
-2.747891e-07
-2.631001e-05
-1.185023e-05
0
0
0
0
0
0.0001227008
0.0006361733
-0.0002030532
-0.0004603068
-0.0003260047
-0.0004517662
0.0002996448
-0.0003209866
0.0002424821
4.903558e-05
-0.0001665978
-1.841457e-06
-3.646535e-06
1.656802e-06
-1.094021e-06
-1.559319e-05
-3.506723e-05
-2.12547e-06
6.07407e-06
-3.678662e-06
0
0
0
0
0
0
0
0
0
0
0
0
0
0
0
-1.450886e-06
-2.188586e-06
9.877049e-07
2.475968e-06
1.858768e-06
1.195957e-05
-2.006805e-06
-2.02109e-05
-2.309766e-05
6.752444e-06
-85885.63
0
0
0
0
0
0
0
0
0
0
0
0
0
0
0
-5.256455e-07
-4.127383e-07
1.352675e-06
-8.695615e-07
-8.367851e-07
-7.356081e-07
1.815667e-05
1.256107e-05
-6.746133e-06
2.793805e-08
-75146.63
-83890.6
0
0
0
0
0
0
0
0
0
0
0
0
0
0
0
1.699258e-06
-6.099393e-06
9.695239e-08
2.596471e-06
-9.305515e-07
1.175706e-05
-5.599545e-06
-1.161154e-05
-1.654892e-05
5.161447e-06
-68065.31
-74431.2
-83423.14
0
0
0
0
0
0
0
0
0
0
0
0
0
0
0
2.876143e-06
1.314321e-06
-1.86478e-06
-8.135649e-07
1.450135e-06
-1.176547e-07
-1.996494e-05