/*--------------------------------*- C++ -*----------------------------------*\
| =========                 |                                                 |
| \\      /  F ield         | OpenFOAM: The Open Source CFD Toolbox           |
|  \\    /   O peration     | Version:  2306                                  |
|   \\  /    A nd           | Website:  www.openfoam.com                      |
|    \\/     M anipulation  |                                                 |
\*---------------------------------------------------------------------------*/
FoamFile
{
    version     2.0;
    format      ascii;
    arch        "LSB;label=32;scalar=64";
    class       volScalarField;
    location    "1.2";
    object      k;
}
// * * * * * * * * * * * * * * * * * * * * * * * * * * * * * * * * * * * * * //

dimensions      [1 1 -3 -1 0 0 0];

internalField   nonuniform List<scalar> 
52000
(
20
20
20
20
20
20
20
20
20
20
20
20
20
20
20
20
20
20
20
20
20
20
20
20
20
20
20
20
20
20
20
20
20
20
20
20
20
20
20
20
20
20
20
20
20
20
20
20
20
20
20
20
20
20
20
20
20
20
20
20
20
20
20
20
20
20
20
20
20
20
20
20
20
20
20
20
20
20
20
20
20
20
20
20
20
20
20
20
20
20
20
20
20
20
20
20
20
20
20
20
20
20
20
20
20
20
20
20
20
20
20
20
20
20
20
20
20
20
20
20
20
20
20
20
20
20
20
20
20
20
20
20
20
20
20
20
20
20
20
20
20
20
20
20
20
20
20
20
20
20
20
20
20
20
20
20
20
20
20
20
20
20
20
20
20
20
20
20
20
20
20
20
20
20
20
20
20
20
20
20
20
20
20
20
20
20
20
20
20
20
20
20
20
20
20
20
20
20
20
20
20
20
20
20
20
20
20
20
20
20
20
20
20
20
20
20
20
20
20
20
20
20
20
20
20
20
20
20
20
20
20
20
20
20
20
20
20
20
20
20
0.08251136
20
20
20
20
20
20
20
20
20
20
20
20
20
20
20
20
20
20
20
20
20
20
20
20
20
20
20
20
20
20
20
20
20
20
20
20
20
20
20
20
20
20
20
20
20
20
20
20
20
20
20
20
20
20
20
20
20
20
20
20
20
20
20
20
20
0.08184737
20
20
20
20
20
0.08328844
0.08183632
20
20
20
20
20
20
20
20
20
20
20
20
20
20
20
20
20
20
20
20
20
20
20
20
20
20
20
20
20
20
20
20
20
20
20
20
20
20
20
20
20
20
20
20
20
20
20
20
20
20
20
20
20
20
20
20
20
20
20
20
20
20
20
20
20
20
20
20
20
20
0.08148133
20
20
20
20
20
0.08311943
0.08021632
20
20
20
20
20
0.08349387
0.08311813
0.08146091
20
20
20
20
20
20
20
20
20
20
20
20
20
20
20
20
20
20
20
20
20
20
20
20
20
20
20
20
20
20
20
20
20
20
20
20
20
20
20
20
20
20
20
20
20
20
20
20
20
20
20
20
20
20
20
20
20
20
20
20
20
20
20
20
20
20
20
20
20
20
20
20
20
20
20
0.08127407
20
20
20
20
20
0.08297315
0.07920444
20
20
20
20
20
0.08342326
0.08261929
0.0791887
20
20
20
20
20
0.08366401
0.08342763
0.08297138
0.08124276
20
20
20
20
20
20
20
20
20
20
20
20
20
20
20
20
20
20
20
20
20
20
20
20
20
20
20
20
20
20
20
20
20
20
20
20
20
20
20
20
20
20
20
20
20
20
20
20
20
20
20
20
20
20
20
20
20
20
20
20
20
20
20
20
20
20
20
20
20
20
20
20
20
20
20
20
20
20
20
20
0.08117805
20
20
20
20
20
0.08286554
0.07859709
20
20
20
20
20
0.08335964
0.08218105
0.07765722
20
20
20
20
20
0.08362978
0.08322123
0.0821765
0.07855481
20
20
20
20
20
0.08381549
0.08363619
0.08336925
0.08286329
0.08113274
20
20
20
20
20
20
20
20
20
20
20
20
20
20
20
20
20
20
20
20
20
20
20
20
20
20
20
20
20
20
20
20
20
20
20
20
20
20
20
20
20
20
20
20
20
20
20
20
20
20
20
20
20
20
20
20
20
20
20
20
20
20
20
20
20
20
20
20
20
20
20
20
20
20
20
20
20
20
20
20
20
20
20
20
20
0.08117805
20
20
20
20
20
0.0828085
0.07830953
20
20
20
20
20
0.08331088
0.08185572
0.07669266
20
20
20
20
20
0.08359948
0.08303244
0.08146463
0.07665564
20
20
20
20
20
0.08379621
0.08354001
0.083037
0.08184176
0.07822506
20
20
20
20
20
0.08395336
0.08380302
0.08361314
0.08332705
0.08280591
0.08111422
20
20
20
20
20
20
20
20
20
20
20
20
20
20
20
20
20
20
20
20
20
20
20
20
20
20
20
20
20
20
20
20
20
20
20
20
20
20
20
20
20
20
20
20
20
20
20
20
20
20
20
20
20
20
20
20
20
20
20
20
20
20
20
20
20
20
20
20
20
0.3584798
20
20
20
20
20
20
20
20
20
20
20
20
20
20
20
20
20
20
20
20
0.08127407
20
20
20
20
20
0.0828085
0.07830953
20
20
20
20
20
0.08328433
0.08168237
0.0762231
20
20
20
20
20
0.08357639
0.08288639
0.08092889
0.07541975
20
20
20
20
20
0.08377968
0.08345298
0.082728
0.08091351
0.07611914
20
20
20
20
20
0.0839407
0.08375177
0.08346089
0.08289566
0.08165397
0.07816526
20
20
20
20
20
0.08408015
0.08394726
0.08379411
0.08359915
0.08330898
0.08280713
0.08118669
20
20
20
20
20
20
20
20
20
20
20
20
20
20
20
20
20
20
20
20
20
20
20
20
20
20
20
20
20
20
20
20
20
20
20
20
20
20
20
20
20
20
20
20
20
20
20
20
20
20
20
20
20
20
20
20
20
0.3584707
20
20
20
20
20
20
20
20
20
20
20
20
20
20
20
0.3585902
0.358548
20
20
20
20
20
20
20
20
20
20
20
20
20
20
20
20
20
20
20
20
0.08148133
20
20
20
20
20
0.08286554
0.07859709
20
20
20
20
20
0.08328433
0.08168237
0.0762231
20
20
20
20
20
0.08356384
0.08280645
0.08064136
0.07480627
20
20
20
20
20
0.08376736
0.08338592
0.08248603
0.08020653
0.07472366
20
20
20
20
20
0.08393019
0.08370657
0.08332058
0.08248925
0.08059853
0.07601835
20
20
20
20
20
0.08407055
0.08391551
0.08371534
0.0834042
0.08282172
0.08163771
0.07837425
20
20
20
20
20
0.08419758
0.08407665
0.08394412
0.08379137
0.08359824
0.08332063
0.08286984
0.08136469
20
20
20
20
20
20
20
20
20
20
20
20
20
20
20
20
20
20
20
20
20
20
20
20
20
20
20
20
20
20
20
20
20
20
20
20
20
20
20
20
20
20
20
20
0.3584519
20
20
20
20
20
20
20
20
20
20
20
20
20
20
20
0.3585841
0.3585377
20
20
20
20
20
20
20
20
20
20
20
20
20
20
20
0.3586944
0.3586528
0.3586176
20
20
20
20
20
20
20
20
20
20
20
20
20
20
20
20
20
20
20
20
0.08184737
20
20
20
20
20
0.08297315
0.07920444
20
20
20
20
20
0.08331088
0.08185572
0.07669266
20
20
20
20
20
0.08356384
0.08280645
0.08064136
0.07480627
20
20
20
20
20
0.08376074
0.08334922
0.08235272
0.07982444
0.07402154
20
20
20
20
20
0.08392253
0.08367247
0.08321097
0.08216775
0.0797888
0.07458989
20
20
20
20
20
0.08406275
0.08388831
0.08364447
0.08322188
0.08235889
0.08056365
0.07635447
20
20
20
20
20
0.08418954
0.08405359
0.08389692
0.08369318
0.08338167
0.08283207
0.08180037
0.07888202
20
20
20
20
20
0.08430683
0.08419515
0.08407576
0.08394576
0.08379695
0.08361333
0.08336414
0.08299239
0.08169013
20
20
20
20
20
20
20
20
20
20
20
20
20
20
20
20
20
20
20
20
20
20
20
20
20
20
20
20
20
20
0.3584206
20
20
20
20
20
20
20
20
20
20
20
20
20
20
20
0.3585719
0.3585155
20
20
20
20
20
20
20
20
20
20
20
20
20
20
20
0.3586892
0.3586467
0.3586063
20
20
20
20
20
20
20
20
20
20
20
20
20
20
20
0.3587897
0.3587497
0.3587164
0.3586888
20
20
20
20
20
20
20
20
20
20
20
20
20
20
20
20
20
20
20
20
0.08251136
20
20
20
20
20
0.08311943
0.08021632
20
20
20
20
20
0.08335964
0.08218105
0.07765722
20
20
20
20
20
0.08357639
0.08288639
0.08092889
0.07541975
20
20
20
20
20
0.08376074
0.08334922
0.08235272
0.07982444
0.07402154
20
20
20
20
20
0.08391847
0.08365404
0.08315051
0.08198957
0.07934916
0.07386812
20
20
20
20
20
0.08405717
0.0838683
0.08359021
0.08307778
0.08199027
0.07973791
0.07502348
20
20
20
20
20
0.0841831
0.08403432
0.08385565
0.08360342
0.08317696
0.08236593
0.08082048
0.07715668
20
20
20
20
20
0.08429971
0.08417635
0.08404242
0.0838888
0.08369115
0.0834018
0.08293189
0.08213194
0.0797666
20
20
20
20
20
0.08440885
0.08430487
0.08419513
0.08407895
0.08395353
0.08381247
0.0836459
0.08343889
0.0831719
0.08228126
20
20
20
20
20
20
20
20
20
20
20
20
20
20
20
0.3583598
20
20
20
20
20
20
20
20
20
20
20
20
20
20
20
0.3585539
0.3584759
20
20
20
20
20
20
20
20
20
20
20
20
20
20
20
0.3586791
0.3586348
0.3585817
20
20
20
20
20
20
20
20
20
20
20
20
20
20
20
0.358785
0.3587449
0.3587103
0.3586768
20
20
20
20
20
20
20
20
20
20
20
20
20
20
20
0.3588775
0.358838
0.3588056
0.3587808
0.3587616
20
20
20
20
20
20
20
20
20
20
20
20
20
20
20
20
20
20
20
20
20
20
20
20
20
0.08328844
0.08183632
20
20
20
20
20
0.08342326
0.08261929
0.0791887
20
20
20
20
20
0.08359948
0.08303244
0.08146463
0.07665564
20
20
20
20
20
0.08376736
0.08338592
0.08248603
0.08020653
0.07472366
20
20
20
20
20
0.08391847
0.08365404
0.08315051
0.08198957
0.07934916
0.07386812
20
20
20
20
20
0.08405426
0.08385766
0.08356065
0.08299774
0.08178517
0.079289
0.07435737
20
20
20
20
20
0.08417854
0.08402047
0.08382487
0.08353381
0.08301374
0.08199342
0.08006903
0.07604479
20
20
20
20
20
0.08429403
0.08416086
0.08401403
0.08383821
0.08359312
0.08320005
0.08251788
0.08134673
0.07849606
20
20
20
20
20
0.08440236
0.0842884
0.08416839
0.08403984
0.08389451
0.0837136
0.08346789
0.08311491
0.08260844
0.08120978
20
20
20
20
20
0.08450438
0.08440711
0.08430515
0.08419875
0.08408718
0.08396849
0.08383907
0.08369671
0.08354539
0.08341575
0.3580861
20
20
20
20
20
20
20
20
20
20
20
20
20
20
20
0.3585322
0.3583964
20
20
20
20
20
20
20
20
20
20
20
20
20
20
20
0.3586646
0.3586174
0.3585372
20
20
20
20
20
20
20
20
20
20
20
20
20
20
20
0.3587759
0.3587357
0.3586984
0.3586508
20
20
20
20
20
20
20
20
20
20
20
20
20
20
20
0.3588732
0.3588338
0.3588012
0.3587748
0.3587494
20
20
20
20
20
20
20
20
20
20
20
20
20
20
20
0.3589593
0.3589199
0.358887
0.3588623
0.3588462
0.6336024
20
20
20
20
20
20
20
20
20
20
20
20
20
20
20
20
20
20
20
20
20
20
20
20
20
20
20
20
20
20
0.08349387
0.08311813
0.08146091
20
20
20
20
20
0.08362978
0.08322123
0.0821765
0.07855481
20
20
20
20
20
0.08377968
0.08345298
0.082728
0.08091351
0.07611914
20
20
20
20
20
0.08392253
0.08367247
0.08321097
0.08216775
0.0797888
0.07458989
20
20
20
20
20
0.08405426
0.08385766
0.08356065
0.08299774
0.08178517
0.079289
0.07435737
20
20
20
20
20
0.08417617
0.08401322
0.08380837
0.08349559
0.0829226
0.08178577
0.07966122
0.07549549
20
20
20
20
20
0.08429003
0.08414991
0.08399339
0.08379996
0.08351625
0.0830381
0.08218642
0.08074737
0.07770163
20
20
20
20
20
0.08439718
0.08427494
0.08414602
0.08400608
0.08384128
0.08362055
0.08329551
0.08279992
0.08208895
0.08052847
20
20
20
20
20
0.08449838
0.08439215
0.08428191
0.08416794
0.08404808
0.08391662
0.08376291
0.08357857
0.08336776
0.08319672
0.3577958
20
20
20
20
20
0.08459404
0.08450277
0.08440748
0.08430877
0.08420681
0.08410124
0.08399157
0.08387814
0.08376936
0.0836997
0.3585452
0.3581844
20
20
20
20
20
20
20
20
20
20
20
20
20
20
20
0.358651
0.3585981
0.3584537
20
20
20
20
20
20
20
20
20
20
20
20
20
20
20
0.358763
0.358724
0.3586813
0.3586045
20
20
20
20
20
20
20
20
20
20
20
20
20
20
20
0.3588647
0.358826
0.3587928
0.3587628
0.3587228
20
20
20
20
20
20
20
20
20
20
20
20
20
20
20
0.3589552
0.3589161
0.3588832
0.358858
0.3588402
0.6335955
20
20
20
20
20
20
20
20
20
20
20
20
20
20
20
0.3590357
0.3589967
0.3589629
0.3589366
0.3589196
0.6336481
0.6336054
20
20
20
20
20
20
20
20
20
20
20
20
20
20
20
20
20
20
20
20
20
20
20
20
20
20
20
20
20
20
20
20
20
20
20
0.08366401
0.08342763
0.08297138
0.08124276
20
20
20
20
20
0.08379621
0.08354001
0.083037
0.08184176
0.07822506
20
20
20
20
20
0.08393019
0.08370657
0.08332058
0.08248925
0.08059853
0.07601835
20
20
20
20
20
0.08405717
0.0838683
0.08359021
0.08307778
0.08199027
0.07973791
0.07502348
20
20
20
20
20
0.08417617
0.08401322
0.08380837
0.08349559
0.0829226
0.08178577
0.07966122
0.07549549
20
20
20
20
20
0.08428796
0.08414424
0.08398252
0.0837793
0.08347374
0.0829473
0.08200156
0.0804232
0.07731528
20
20
20
20
20
0.08439354
0.08426549
0.08413003
0.08398124
0.08380051
0.08354666
0.08315576
0.08254607
0.08169169
0.08010663
20
20
20
20
20
0.08449358
0.08437996
0.08426264
0.08414186
0.08401382
0.08386874
0.08368853
0.08345745
0.08317955
0.08296748
0.3575689
20
20
20
20
20
0.08458845
0.08448893
0.08438643
0.08428222
0.08417671
0.08406892
0.08395702
0.08384007
0.0837311
0.08367963
0.3584997
0.3579509
20
20
20
20
20
0.08467835
0.08459253
0.08450315
0.08441097
0.08431644
0.08421996
0.08412195
0.08402432
0.08393432
0.08388317
0.358711
0.3585932
0.3582855
20
20
20
20
20
20
20
20
20
20
20
20
20
20
20
0.3587522
0.3587173
0.3586617
0.3585242
20
20
20
20
20
20
20
20
20
20
20
20
20
20
20
0.3588527
0.3588163
0.3587826
0.3587455
0.3586769
20
20
20
20
20
20
20
20
20
20
20
20
20
20
20
0.3589472
0.3589088
0.3588763
0.3588501
0.3588281
0.6335804
20
20
20
20
20
20
20
20
20
20
20
20
20
20
20
0.3590318
0.358993
0.3589595
0.3589331
0.3589155
0.6336447
0.6335984
20
20
20
20
20
20
20
20
20
20
20
20
20
20
20
0.3591073
0.3590688
0.3590346
0.3590065
0.3589868
0.6336874
0.6336508
0.6336083
20
20
20
20
20
20
20
20
20
20
20
20
20
20
20
20
20
20
20
20
20
20
20
20
20
20
20
20
20
20
20
20
20
20
20
20
20
20
20
20
0.08381549
0.08363619
0.08336925
0.08286329
0.08113274
20
20
20
20
20
0.0839407
0.08375177
0.08346089
0.08289566
0.08165397
0.07816526
20
20
20
20
20
0.08406275
0.08388831
0.08364447
0.08322188
0.08235889
0.08056365
0.07635447
20
20
20
20
20
0.08417854
0.08402047
0.08382487
0.08353381
0.08301374
0.08199342
0.08006903
0.07604479
20
20
20
20
20
0.08428796
0.08414424
0.08398252
0.0837793
0.08347374
0.0829473
0.08200156
0.0804232
0.07731528
20
20
20
20
20
0.08439165
0.08426063
0.08412172
0.08396806
0.0837783
0.08350551
0.08307703
0.08240418
0.08147706
0.07990213
20
20
20
20
20
0.0844902
0.08437143
0.08424902
0.08412305
0.0839883
0.08383138
0.08362798
0.08335632
0.08302271
0.08278508
0.3574169
20
20
20
20
20
0.08458396
0.08447766
0.08436905
0.08425998
0.0841509
0.0840398
0.08392273
0.08379578
0.08367298
0.08361811
0.3584384
0.35776
20
20
20
20
20
0.08467311
0.08457962
0.08448369
0.08438698
0.08429076
0.08419609
0.08410396
0.08401753
0.08394702
0.08392777
0.3587241
0.3585552
0.358098
20
20
20
20
20
0.08475774
0.08467692
0.08459291
0.08450647
0.08441822
0.08432873
0.08423893
0.08415084
0.08407148
0.08402689
0.3588207
0.3587503
0.3586468
0.3583889
20
20
20
20
20
20
20
20
20
20
20
20
20
20
20
0.3588429
0.3588134
0.3587773
0.3587247
0.3586031
20
20
20
20
20
20
20
20
20
20
20
20
20
20
20
0.3589359
0.3589001
0.3588685
0.3588403
0.3588103
0.6335548
20
20
20
20
20
20
20
20
20
20
20
20
20
20
20
0.3590242
0.3589862
0.3589532
0.3589267
0.3589077
0.6336378
0.6335834
20
20
20
20
20
20
20
20
20
20
20
20
20
20
20
0.3591036
0.3590654
0.3590313
0.3590033
0.3589834
0.6336851
0.6336473
0.6336014
20
20
20
20
20
20
20
20
20
20
20
20
20
20
20
0.3591746
0.3591369
0.3591025
0.359073
0.3590505
0.6337235
0.6336897
0.6336534
0.6336113
20
20
20
20
20
20
20
20
20
20
20
20
20
20
20
20
20
20
20
20
20
20
20
20
20
20
20
20
20
20
20
20
20
20
20
20
20
20
20
20
20
20
20
20
20
0.08395336
0.08380302
0.08361314
0.08332705
0.08280591
0.08111422
20
20
20
20
20
0.08407055
0.08391551
0.08371534
0.0834042
0.08282172
0.08163771
0.07837425
20
20
20
20
20
0.0841831
0.08403432
0.08385565
0.08360342
0.08317696
0.08236593
0.08082048
0.07715668
20
20
20
20
20
0.08429003
0.08414991
0.08399339
0.08379996
0.08351625
0.0830381
0.08218642
0.08074737
0.07770163
20
20
20
20
20
0.08439165
0.08426063
0.08412172
0.08396806
0.0837783
0.08350551
0.08307703
0.08240418
0.08147706
0.07990213
20
20
20
20
20
0.08448845
0.08436706
0.08424198
0.08411321
0.08397464
0.0838108
0.08359382
0.0832986
0.08293399
0.08268515
0.357341
20
20
20
20
20
0.0845808
0.08446979
0.08435681
0.08424413
0.08413207
0.08401761
0.08389463
0.08375649
0.08361789
0.08355697
0.3583857
0.3576294
20
20
20
20
20
0.0846689
0.0845691
0.08446764
0.08436698
0.08426902
0.08417504
0.08408577
0.08400374
0.08393846
0.08392785
0.3587165
0.3585055
0.3579399
20
20
20
20
20
0.08475282
0.08466482
0.08457474
0.08448429
0.08439507
0.08430874
0.08422752
0.08415526
0.08410169
0.08409071
0.3588513
0.35876
0.3586133
0.3582394
20
20
20
20
20
0.08483258
0.08475639
0.08467729
0.08459606
0.08451331
0.08442974
0.08434631
0.08426515
0.08419242
0.08415109
0.3589084
0.3588547
0.3587934
0.3587038
0.3584941
20
20
20
20
20
20
20
20
20
20
20
20
20
20
20
0.3589263
0.358898
0.3588674
0.3588337
0.3587877
0.6335149
20
20
20
20
20
20
20
20
20
20
20
20
20
20
20
0.3590134
0.358978
0.3589464
0.3589196
0.3588975
0.6336274
0.6335578
20
20
20
20
20
20
20
20
20
20
20
20
20
20
20
0.3590963
0.3590589
0.3590255
0.3589976
0.3589772
0.6336806
0.6336404
0.6335864
20
20
20
20
20
20
20
20
20
20
20
20
20
20
20
0.359171
0.3591335
0.3590994
0.35907
0.3590474
0.6337215
0.6336874
0.63365
0.6336044
20
20
20
20
20
20
20
20
20
20
20
20
20
20
20
0.3592378
0.3592011
0.3591669
0.3591366
0.3591119
0.6337579
0.6337255
0.6336921
0.633656
0.6336143
20
20
20
20
20
20
20
20
20
20
20
20
20
20
20
20
20
20
20
20
20
20
20
20
20
20
20
20
20
20
20
20
20
20
20
20
20
20
20
20
20
20
20
20
20
20
20
20
20
20
0.08408015
0.08394726
0.08379411
0.08359915
0.08330898
0.08280713
0.08118669
20
20
20
20
20
0.08418954
0.08405359
0.08389692
0.08369318
0.08338167
0.08283207
0.08180037
0.07888202
20
20
20
20
20
0.08429403
0.08416086
0.08401403
0.08383821
0.08359312
0.08320005
0.08251788
0.08134673
0.07849606
20
20
20
20
20
0.08439354
0.08426549
0.08413003
0.08398124
0.08380051
0.08354666
0.08315576
0.08254607
0.08169169
0.08010663
20
20
20
20
20
0.08448845
0.08436706
0.08424198
0.08411321
0.08397464
0.0838108
0.08359382
0.0832986
0.08293399
0.08268515
0.357341
20
20
20
20
20
0.08457916
0.08446575
0.08435051
0.08423591
0.08412215
0.08400556
0.08387874
0.08373347
0.08358499
0.08352047
0.3583559
0.3575635
20
20
20
20
20
0.08466592
0.08456175
0.08445636
0.08435281
0.08425337
0.08415932
0.08407079
0.08398926
0.08392337
0.0839151
0.3587039
0.3584626
0.3578297
20
20
20
20
20
0.08474885
0.08465496
0.08455976
0.08446583
0.08437559
0.08429134
0.08421581
0.08415289
0.08411151
0.08411226
0.3588623
0.3587548
0.3585723
0.3581108
20
20
20
20
20
0.08482796
0.08474503
0.08466026
0.08457533
0.08449189
0.08441179
0.08433744
0.08427298
0.08422671
0.08421766
0.3589427
0.3588786
0.3587985
0.358673
0.3583765
20
20
20
20
20
0.0849032
0.08483132
0.08475677
0.08468029
0.08460253
0.08452415
0.08444615
0.08437049
0.08430281
0.08426319
0.3589855
0.3589384
0.3588914
0.3588384
0.3587627
0.6334595
20
20
20
20
20
20
20
20
20
20
20
20
20
20
20
0.3590039
0.3589758
0.3589463
0.3589174
0.3588883
0.633614
0.6335183
20
20
20
20
20
20
20
20
20
20
20
20
20
20
20
0.3590859
0.3590509
0.3590191
0.3589915
0.3589699
0.6336746
0.63363
0.6335609
20
20
20
20
20
20
20
20
20
20
20
20
20
20
20
0.359164
0.3591273
0.3590937
0.3590647
0.359042
0.633718
0.6336829
0.633643
0.6335894
20
20
20
20
20
20
20
20
20
20
20
20
20
20
20
0.3592344
0.3591979
0.3591639
0.3591338
0.3591091
0.6337562
0.6337236
0.6336897
0.6336526
0.6336074
20
20
20
20
20
20
20
20
20
20
20
20
20
20
20
0.3592974
0.3592618
0.3592281
0.3591974
0.3591712
0.6337914
0.6337597
0.6337276
0.6336944
0.6336587
0.725213
20
20
20
20
20
20
20
20
20
20
20
20
20
20
20
20
20
20
20
20
20
20
20
20
20
20
20
20
20
20
20
20
20
20
20
20
20
20
20
20
20
20
20
20
20
20
20
20
20
20
20
20
20
20
20
0.08419758
0.08407665
0.08394412
0.08379137
0.08359824
0.08332063
0.08286984
0.08136469
20
20
20
20
20
0.08429971
0.08417635
0.08404242
0.0838888
0.08369115
0.0834018
0.08293189
0.08213194
0.0797666
20
20
20
20
20
0.08439718
0.08427494
0.08414602
0.08400608
0.08384128
0.08362055
0.08329551
0.08279992
0.08208895
0.08052847
20
20
20
20
20
0.0844902
0.08437143
0.08424902
0.08412305
0.0839883
0.08383138
0.08362798
0.08335632
0.08302271
0.08278508
0.3574169
20
20
20
20
20
0.08457916
0.08446575
0.08435051
0.08423591
0.08412215
0.08400556
0.08387874
0.08373347
0.08358499
0.08352047
0.3583559
0.3575635
20
20
20
20
20
0.08466438
0.08455798
0.08445056
0.08434549
0.0842452
0.0841509
0.08406232
0.08398022
0.0839129
0.08390517
0.3586954
0.3584382
0.3577737
20
20
20
20
20
0.08474605
0.08464806
0.08454923
0.08445278
0.08436165
0.08427853
0.08420616
0.08414795
0.08411181
0.08411754
0.3588647
0.3587453
0.3585373
0.35802
20
20
20
20
20
0.08482422
0.08473576
0.0846462
0.08455809
0.0844739
0.08439627
0.08432832
0.08427456
0.08424224
0.08424556
0.3589594
0.3588885
0.358794
0.3586388
0.3582747
20
20
20
20
20
0.08489884
0.08482064
0.08474076
0.08466084
0.08458248
0.08450749
0.08443829
0.08437874
0.08433632
0.08432645
0.3590188
0.3589654
0.3589082
0.3588386
0.3587337
0.6334008
20
20
20
20
20
0.08496986
0.08490203
0.0848317
0.08475963
0.08468643
0.08461276
0.08453956
0.08446868
0.08440513
0.08436691
0.3590562
0.3590125
0.3589706
0.3589293
0.3588841
0.6335987
0.6334635
20
20
20
20
20
20
20
20
20
20
20
20
20
20
20
0.3590765
0.3590482
0.3590188
0.3589906
0.3589651
0.6336684
0.6336166
0.6335216
20
20
20
20
20
20
20
20
20
20
20
20
20
20
20
0.359154
0.3591195
0.3590875
0.3590591
0.3590359
0.6337137
0.6336769
0.6336327
0.633564
20
20
20
20
20
20
20
20
20
20
20
20
20
20
20
0.3592276
0.3591919
0.3591585
0.3591287
0.3591041
0.6337531
0.6337201
0.6336852
0.6336457
0.6335924
20
20
20
20
20
20
20
20
20
20
20
20
20
20
20
0.3592941
0.3592587
0.3592252
0.3591947
0.3591685
0.6337898
0.633758
0.6337257
0.633692
0.6336553
0.7252078
20
20
20
20
20
20
20
20
20
20
20
20
20
20
20
0.3593537
0.3593192
0.3592862
0.3592556
0.3592284
0.6338239
0.633793
0.6337616
0.6337296
0.6336967
0.725246
0.7252149
20
20
20
20
20
20
20
20
20
20
20
20
20
20
20
20
20
20
20
20
20
20
20
20
20
20
20
20
20
20
20
20
20
20
20
20
20
20
20
20
20
20
20
20
20
20
20
20
20
20
20
20
20
20
20
20
20
20
20
20
0.08430683
0.08419515
0.08407576
0.08394576
0.08379695
0.08361333
0.08336414
0.08299239
0.08169013
20
20
20
20
20
0.08440236
0.0842884
0.08416839
0.08403984
0.08389451
0.0837136
0.08346789
0.08311491
0.08260844
0.08120978
20
20
20
20
20
0.08449358
0.08437996
0.08426264
0.08414186
0.08401382
0.08386874
0.08368853
0.08345745
0.08317955
0.08296748
0.3575689
20
20
20
20
20
0.0845808
0.08446979
0.08435681
0.08424413
0.08413207
0.08401761
0.08389463
0.08375649
0.08361789
0.08355697
0.3583857
0.3576294
20
20
20
20
20
0.08466438
0.08455798
0.08445056
0.08434549
0.0842452
0.0841509
0.08406232
0.08398022
0.0839129
0.08390517
0.3586954
0.3584382
0.3577737
20
20
20
20
20
0.0847446
0.08464453
0.08454382
0.08444605
0.08435441
0.08427174
0.08420072
0.08414438
0.08411009
0.08411783
0.3588644
0.3587388
0.3585175
0.3579734
20
20
20
20
20
0.08482157
0.08472927
0.08463632
0.08454591
0.08446107
0.08438492
0.08432085
0.08427313
0.08424785
0.084257
0.3589669
0.3588914
0.3587865
0.3586104
0.3582019
20
20
20
20
20
0.08489531
0.08481191
0.08472754
0.08464465
0.08456564
0.08449312
0.08443026
0.08438131
0.08435278
0.08435474
0.3590364
0.3589799
0.358916
0.3588337
0.3587049
0.6333499
20
20
20
20
20
0.08496576
0.08489198
0.08481665
0.08474134
0.08466758
0.08459709
0.08453215
0.08447634
0.08443625
0.08442514
0.3590867
0.3590386
0.3589901
0.3589392
0.3588796
0.6335825
0.6334058
20
20
20
20
20
0.08503282
0.08496878
0.08490242
0.08483446
0.08476548
0.08469614
0.0846273
0.08456068
0.08450085
0.0844639
0.3591223
0.3590807
0.3590412
0.3590036
0.3589675
0.6336637
0.6336012
0.6334676
20
20
20
20
20
20
20
20
20
20
20
20
20
20
20
0.3591445
0.3591164
0.3590868
0.3590582
0.3590326
0.63371
0.6336706
0.6336192
0.633525
20
20
20
20
20
20
20
20
20
20
20
20
20
20
20
0.359218
0.3591843
0.3591524
0.3591233
0.3590984
0.6337494
0.6337157
0.6336792
0.6336353
0.6335671
20
20
20
20
20
20
20
20
20
20
20
20
20
20
20
0.3592876
0.3592529
0.35922
0.3591898
0.3591637
0.6337869
0.633755
0.6337221
0.6336876
0.6336484
0.7251966
20
20
20
20
20
20
20
20
20
20
20
20
20
20
20
0.3593505
0.3593162
0.3592835
0.3592529
0.3592258
0.6338224
0.6337914
0.6337599
0.6337277
0.6336944
0.7252435
0.7252097
20
20
20
20
20
20
20
20
20
20
20
20
20
20
20
0.3594068
0.3593736
0.3593415
0.3593111
0.3592834
0.6338554
0.6338254
0.6337947
0.6337634
0.6337317
0.7252743
0.7252477
0.7252164
20
20
20
20
20
20
20
20
20
20
20
20
20
20
20
20
20
20
20
20
20
20
20
20
20
20
20
20
20
20
20
20
20
20
20
20
20
20
20
20
20
20
20
20
20
20
20
20
20
20
20
20
20
20
20
20
20
20
20
20
20
20
20
20
20
0.08440885
0.08430487
0.08419513
0.08407895
0.08395353
0.08381247
0.0836459
0.08343889
0.0831719
0.08228126
20
20
20
20
20
0.08449838
0.08439215
0.08428191
0.08416794
0.08404808
0.08391662
0.08376291
0.08357857
0.08336776
0.08319672
0.3577958
20
20
20
20
20
0.08458396
0.08447766
0.08436905
0.08425998
0.0841509
0.0840398
0.08392273
0.08379578
0.08367298
0.08361811
0.3584384
0.35776
20
20
20
20
20
0.08466592
0.08456175
0.08445636
0.08435281
0.08425337
0.08415932
0.08407079
0.08398926
0.08392337
0.0839151
0.3587039
0.3584626
0.3578297
20
20
20
20
20
0.0847446
0.08464453
0.08454382
0.08444605
0.08435441
0.08427174
0.08420072
0.08414438
0.08411009
0.08411783
0.3588644
0.3587388
0.3585175
0.3579734
20
20
20
20
20
0.0848202
0.08472595
0.08463125
0.08453963
0.08445441
0.08437894
0.08431665
0.08427161
0.08424929
0.08426097
0.3589697
0.3588917
0.3587815
0.3585944
0.3581643
20
20
20
20
20
0.08489281
0.08480581
0.08471825
0.08463321
0.08455364
0.08448265
0.08442373
0.08438098
0.08435981
0.08436761
0.3590453
0.3589869
0.3589186
0.3588275
0.358682
0.6333134
20
20
20
20
20
0.08496243
0.08488376
0.08480421
0.08472611
0.08465174
0.08458358
0.08452464
0.08447887
0.08445188
0.08445182
0.3591036
0.3590538
0.3590016
0.3589444
0.3588738
0.6335675
0.6333557
20
20
20
20
20
0.08502895
0.08495933
0.08488827
0.08481724
0.08474772
0.08468133
0.08462017
0.08456751
0.08452927
0.08451695
0.35915
0.3591046
0.3590602
0.359016
0.358971
0.6336598
0.6335851
0.6334107
20
20
20
20
20
0.08509227
0.08503183
0.0849692
0.08490508
0.08484005
0.08477471
0.0847099
0.0846472
0.08459076
0.08455516
0.3591848
0.3591448
0.3591066
0.3590705
0.3590367
0.6337089
0.6336657
0.6336037
0.6334717
20
20
20
20
20
20
20
20
20
20
20
20
20
20
20
0.3592086
0.3591807
0.3591511
0.3591221
0.3590955
0.6337467
0.6337119
0.6336728
0.6336218
0.6335284
20
20
20
20
20
20
20
20
20
20
20
20
20
20
20
0.3592783
0.3592455
0.3592139
0.3591845
0.3591583
0.6337836
0.6337513
0.6337177
0.6336815
0.633638
0.7251777
20
20
20
20
20
20
20
20
20
20
20
20
20
20
20
0.3593442
0.3593106
0.3592784
0.3592482
0.3592212
0.6338197
0.6337886
0.6337568
0.6337242
0.6336899
0.7252383
0.7251985
20
20
20
20
20
20
20
20
20
20
20
20
20
20
20
0.3594037
0.3593707
0.3593388
0.3593086
0.359281
0.633854
0.6338239
0.6337931
0.6337617
0.6337298
0.7252726
0.7252451
0.7252112
20
20
20
20
20
20
20
20
20
20
20
20
20
20
20
0.359457
0.3594251
0.359394
0.3593641
0.3593364
0.6338859
0.6338568
0.6338269
0.6337963
0.6337653
0.7253003
0.7252758
0.725249
0.7252175
20
20
20
20
20
20
20
20
20
20
20
20
20
20
20
20
20
20
20
20
20
20
20
20
20
20
20
20
20
20
20
20
20
20
20
20
20
20
20
20
20
20
20
20
20
20
20
20
20
20
20
20
20
20
20
20
20
20
20
20
20
20
20
20
20
20
20
20
20
20
0.08450438
0.08440711
0.08430515
0.08419875
0.08408718
0.08396849
0.08383907
0.08369671
0.08354539
0.08341575
0.3580861
20
20
20
20
20
0.08458845
0.08448893
0.08438643
0.08428222
0.08417671
0.08406892
0.08395702
0.08384007
0.0837311
0.08367963
0.3584997
0.3579509
20
20
20
20
20
0.0846689
0.0845691
0.08446764
0.08436698
0.08426902
0.08417504
0.08408577
0.08400374
0.08393846
0.08392785
0.3587165
0.3585055
0.3579399
20
20
20
20
20
0.08474605
0.08464806
0.08454923
0.08445278
0.08436165
0.08427853
0.08420616
0.08414795
0.08411181
0.08411754
0.3588647
0.3587453
0.3585373
0.35802
20
20
20
20
20
0.0848202
0.08472595
0.08463125
0.08453963
0.08445441
0.08437894
0.08431665
0.08427161
0.08424929
0.08426097
0.3589697
0.3588917
0.3587815
0.3585944
0.3581643
20
20
20
20
20
0.08489152
0.08480267
0.08471348
0.08462731
0.08454743
0.08447714
0.08442007
0.08438016
0.08436223
0.08437262
0.359049
0.3589896
0.3589191
0.3588235
0.3586693
0.6332945
20
20
20
20
20
0.08496006
0.08487801
0.08479546
0.08471534
0.08464045
0.08457375
0.08451856
0.08447876
0.08445887
0.08446438
0.3591124
0.3590618
0.3590076
0.3589462
0.3588684
0.6335558
0.6333197
20
20
20
20
20
0.0850258
0.0849516
0.08487655
0.0848029
0.08473279
0.08466856
0.08461299
0.08456968
0.08454361
0.08454145
0.3591654
0.359119
0.3590723
0.3590243
0.3589733
0.6336561
0.6335701
0.6333614
20
20
20
20
20
0.08508862
0.08502294
0.08495589
0.08488889
0.08482332
0.08476072
0.08470303
0.08465324
0.08461665
0.08460347
0.3592096
0.3591663
0.3591239
0.3590828
0.3590427
0.6337091
0.6336616
0.6335876
0.6334157
20
20
20
20
20
0.0851484
0.08509137
0.08503228
0.08497178
0.08491044
0.08484885
0.08478779
0.08472872
0.08467546
0.08464127
0.359244
0.3592055
0.3591684
0.3591329
0.3590997
0.6337467
0.6337106
0.6336677
0.6336062
0.6334758
20
20
20
20
20
20
20
20
20
20
20
20
20
20
20
0.359269
0.3592415
0.3592122
0.3591829
0.3591554
0.6337812
0.6337484
0.6337139
0.633675
0.6336244
0.7251489
20
20
20
20
20
20
20
20
20
20
20
20
20
20
20
0.3593351
0.3593034
0.3592724
0.3592429
0.3592159
0.6338165
0.6337852
0.6337531
0.6337198
0.6336838
0.7252305
0.7251797
20
20
20
20
20
20
20
20
20
20
20
20
20
20
20
0.3593976
0.3593653
0.3593338
0.359304
0.3592765
0.6338514
0.6338212
0.6337902
0.6337586
0.6337263
0.7252692
0.72524
0.7252
20
20
20
20
20
20
20
20
20
20
20
20
20
20
20
0.359454
0.3594223
0.3593914
0.3593617
0.359334
0.6338845
0.6338553
0.6338254
0.6337947
0.6337636
0.7252989
0.725274
0.7252465
0.7252123
20
20
20
20
20
20
20
20
20
20
20
20
20
20
20
0.3595044
0.3594739
0.3594439
0.3594148
0.3593872
0.6339153
0.6338871
0.6338581
0.6338283
0.633798
0.7253253
0.7253017
0.7252769
0.7252499
0.7252181
20
20
20
20
20
20
20
20
20
20
20
20
20
20
20
20
20
20
20
20
20
20
20
20
20
20
20
20
20
20
20
20
20
20
20
20
20
20
20
20
20
20
20
20
20
20
20
20
20
20
20
20
20
20
20
20
20
20
20
20
20
20
20
20
20
20
20
20
20
0.3583598
20
20
20
20
20
0.08459404
0.08450277
0.08440748
0.08430877
0.08420681
0.08410124
0.08399157
0.08387814
0.08376936
0.0836997
0.3585452
0.3581844
20
20
20
20
20
0.08467311
0.08457962
0.08448369
0.08438698
0.08429076
0.08419609
0.08410396
0.08401753
0.08394702
0.08392777
0.3587241
0.3585552
0.358098
20
20
20
20
20
0.08474885
0.08465496
0.08455976
0.08446583
0.08437559
0.08429134
0.08421581
0.08415289
0.08411151
0.08411226
0.3588623
0.3587548
0.3585723
0.3581108
20
20
20
20
20
0.08482157
0.08472927
0.08463632
0.08454591
0.08446107
0.08438492
0.08432085
0.08427313
0.08424785
0.084257
0.3589669
0.3588914
0.3587865
0.3586104
0.3582019
20
20
20
20
20
0.08489152
0.08480267
0.08471348
0.08462731
0.08454743
0.08447714
0.08442007
0.08438016
0.08436223
0.08437262
0.359049
0.3589896
0.3589191
0.3588235
0.3586693
0.6332945
20
20
20
20
20
0.08495883
0.08487505
0.08479097
0.08470978
0.0846346
0.08456859
0.08451518
0.08447813
0.08446141
0.08446944
0.3591162
0.3590652
0.3590101
0.3589467
0.3588651
0.6335495
0.6333011
20
20
20
20
20
0.08502357
0.08494617
0.08486831
0.08479275
0.08472215
0.08465928
0.08460721
0.08456948
0.08455008
0.08455313
0.3591737
0.3591269
0.3590791
0.3590289
0.3589742
0.6336531
0.6335586
0.633326
20
20
20
20
20
0.08508565
0.08501566
0.08494487
0.08487538
0.08480925