/*--------------------------------*- C++ -*----------------------------------*\
| =========                 |                                                 |
| \\      /  F ield         | OpenFOAM: The Open Source CFD Toolbox           |
|  \\    /   O peration     | Version:  2306                                  |
|   \\  /    A nd           | Website:  www.openfoam.com                      |
|    \\/     M anipulation  |                                                 |
\*---------------------------------------------------------------------------*/
FoamFile
{
    version     2.0;
    format      ascii;
    arch        "LSB;label=32;scalar=64";
    class       volScalarField;
    location    "1.2";
    object      rhoCp;
}
// * * * * * * * * * * * * * * * * * * * * * * * * * * * * * * * * * * * * * //

dimensions      [1 -1 -2 -1 0 0 0];

internalField   nonuniform List<scalar> 
52000
(
5346000
5346000
5346000
5346000
5346000
5346000
5346000
5346000
5346000
5346000
5346000
5346000
5346000
5346000
5346000
5346000
5346000
5346000
5346000
5346000
5346000
5346000
5346000
5346000
5346000
5346000
5346000
5346000
5346000
5346000
5346000
5346000
5346000
5346000
5346000
5346000
5346000
5346000
5346000
5346000
5346000
5346000
5346000
5346000
5346000
5346000
5346000
5346000
5346000
5346000
5346000
5346000
5346000
5346000
5346000
5346000
5346000
5346000
5346000
5346000
5346000
5346000
5346000
5346000
5346000
5346000
5346000
5346000
5346000
5346000
5346000
5346000
5346000
5346000
5346000
5346000
5346000
5346000
5346000
5346000
5346000
5346000
5346000
5346000
5346000
5346000
5346000
5346000
5346000
5346000
5346000
5346000
5346000
5346000
5346000
5346000
5346000
5346000
5346000
5346000
5346000
5346000
5346000
5346000
5346000
5346000
5346000
5346000
5346000
5346000
5346000
5346000
5346000
5346000
5346000
5346000
5346000
5346000
5346000
5346000
5346000
5346000
5346000
5346000
5346000
5346000
5346000
5346000
5346000
5346000
5346000
5346000
5346000
5346000
5346000
5346000
5346000
5346000
5346000
5346000
5346000
5346000
5346000
5346000
5346000
5346000
5346000
5346000
5346000
5346000
5346000
5346000
5346000
5346000
5346000
5346000
5346000
5346000
5346000
5346000
5346000
5346000
5346000
5346000
5346000
5346000
5346000
5346000
5346000
5346000
5346000
5346000
5346000
5346000
5346000
5346000
5346000
5346000
5346000
5346000
5346000
5346000
5346000
5346000
5346000
5346000
5346000
5346000
5346000
5346000
5346000
5346000
5346000
5346000
5346000
5346000
5346000
5346000
5346000
5346000
5346000
5346000
5346000
5346000
5346000
5346000
5346000
5346000
5346000
5346000
5346000
5346000
5346000
5346000
5346000
5346000
5346000
5346000
5346000
5346000
5346000
5346000
5346000
5346000
5346000
5346000
5346000
5346000
5346000
5346000
5346000
5346000
5346000
5346000
5346000
5346000
5346000
5346000
5346000
5346000
357.3094
5346000
5346000
5346000
5346000
5346000
5346000
5346000
5346000
5346000
5346000
5346000
5346000
5346000
5346000
5346000
5346000
5346000
5346000
5346000
5346000
5346000
5346000
5346000
5346000
5346000
5346000
5346000
5346000
5346000
5346000
5346000
5346000
5346000
5346000
5346000
5346000
5346000
5346000
5346000
5346000
5346000
5346000
5346000
5346000
5346000
5346000
5346000
5346000
5346000
5346000
5346000
5346000
5346000
5346000
5346000
5346000
5346000
5346000
5346000
5346000
5346000
5346000
5346000
5346000
5346000
360.5607
5346000
5346000
5346000
5346000
5346000
353.5683
360.6162
5346000
5346000
5346000
5346000
5346000
5346000
5346000
5346000
5346000
5346000
5346000
5346000
5346000
5346000
5346000
5346000
5346000
5346000
5346000
5346000
5346000
5346000
5346000
5346000
5346000
5346000
5346000
5346000
5346000
5346000
5346000
5346000
5346000
5346000
5346000
5346000
5346000
5346000
5346000
5346000
5346000
5346000
5346000
5346000
5346000
5346000
5346000
5346000
5346000
5346000
5346000
5346000
5346000
5346000
5346000
5346000
5346000
5346000
5346000
5346000
5346000
5346000
5346000
5346000
5346000
5346000
5346000
5346000
5346000
5346000
362.3734
5346000
5346000
5346000
5346000
5346000
354.3764
368.7616
5346000
5346000
5346000
5346000
5346000
352.6046
354.3847
362.478
5346000
5346000
5346000
5346000
5346000
5346000
5346000
5346000
5346000
5346000
5346000
5346000
5346000
5346000
5346000
5346000
5346000
5346000
5346000
5346000
5346000
5346000
5346000
5346000
5346000
5346000
5346000
5346000
5346000
5346000
5346000
5346000
5346000
5346000
5346000
5346000
5346000
5346000
5346000
5346000
5346000
5346000
5346000
5346000
5346000
5346000
5346000
5346000
5346000
5346000
5346000
5346000
5346000
5346000
5346000
5346000
5346000
5346000
5346000
5346000
5346000
5346000
5346000
5346000
5346000
5346000
5346000
5346000
5346000
5346000
5346000
5346000
5346000
5346000
5346000
363.4063
5346000
5346000
5346000
5346000
5346000
355.078
374.0055
5346000
5346000
5346000
5346000
5346000
352.939
356.7894
374.0899
5346000
5346000
5346000
5346000
5346000
351.811
352.9219
355.0928
363.5696
5346000
5346000
5346000
5346000
5346000
5346000
5346000
5346000
5346000
5346000
5346000
5346000
5346000
5346000
5346000
5346000
5346000
5346000
5346000
5346000
5346000
5346000
5346000
5346000
5346000
5346000
5346000
5346000
5346000
5346000
5346000
5346000
5346000
5346000
5346000
5346000
5346000
5346000
5346000
5346000
5346000
5346000
5346000
5346000
5346000
5346000
5346000
5346000
5346000
5346000
5346000
5346000
5346000
5346000
5346000
5346000
5346000
5346000
5346000
5346000
5346000
5346000
5346000
5346000
5346000
5346000
5346000
5346000
5346000
5346000
5346000
5346000
5346000
5346000
5346000
5346000
5346000
5346000
5346000
5346000
363.8863
5346000
5346000
5346000
5346000
5346000
355.5955
377.213
5346000
5346000
5346000
5346000
5346000
353.2399
358.9239
382.2715
5346000
5346000
5346000
5346000
5346000
351.9717
353.905
358.95
377.4434
5346000
5346000
5346000
5346000
5346000
351.1146
351.9448
353.2049
355.6193
364.1263
5346000
5346000
5346000
5346000
5346000
5346000
5346000
5346000
5346000
5346000
5346000
5346000
5346000
5346000
5346000
5346000
5346000
5346000
5346000
5346000
5346000
5346000
5346000
5346000
5346000
5346000
5346000
5346000
5346000
5346000
5346000
5346000
5346000
5346000
5346000
5346000
5346000
5346000
5346000
5346000
5346000
5346000
5346000
5346000
5346000
5346000
5346000
5346000
5346000
5346000
5346000
5346000
5346000
5346000
5346000
5346000
5346000
5346000
5346000
5346000
5346000
5346000
5346000
5346000
5346000
5346000
5346000
5346000
5346000
5346000
5346000
5346000
5346000
5346000
5346000
5346000
5346000
5346000
5346000
5346000
5346000
5346000
5346000
5346000
5346000
363.8863
5346000
5346000
5346000
5346000
5346000
355.8703
378.7477
5346000
5346000
5346000
5346000
5346000
353.4704
360.5221
387.5807
5346000
5346000
5346000
5346000
5346000
352.1133
354.8072
362.4631
387.7902
5346000
5346000
5346000
5346000
5346000
351.2041
352.3992
354.7926
360.6007
379.2118
5346000
5346000
5346000
5346000
5346000
350.4805
351.1754
352.0591
353.4147
355.9056
364.2277
5346000
5346000
5346000
5346000
5346000
5346000
5346000
5346000
5346000
5346000
5346000
5346000
5346000
5346000
5346000
5346000
5346000
5346000
5346000
5346000
5346000
5346000
5346000
5346000
5346000
5346000
5346000
5346000
5346000
5346000
5346000
5346000
5346000
5346000
5346000
5346000
5346000
5346000
5346000
5346000
5346000
5346000
5346000
5346000
5346000
5346000
5346000
5346000
5346000
5346000
5346000
5346000
5346000
5346000
5346000
5346000
5346000
5346000
5346000
5346000
5346000
5346000
5346000
5346000
5346000
5346000
5346000
5346000
5346000
352.7899
5346000
5346000
5346000
5346000
5346000
5346000
5346000
5346000
5346000
5346000
5346000
5346000
5346000
5346000
5346000
5346000
5346000
5346000
5346000
5346000
363.4063
5346000
5346000
5346000
5346000
5346000
355.8703
378.7477
5346000
5346000
5346000
5346000
5346000
353.596
361.3785
390.2107
5346000
5346000
5346000
5346000
5346000
352.2209
355.5075
365.1447
394.7846
5346000
5346000
5346000
5346000
5346000
351.2802
352.8103
356.2787
365.2276
390.8058
5346000
5346000
5346000
5346000
5346000
350.5387
351.4156
352.7797
355.4805
361.5377
379.5409
5346000
5346000
5346000
5346000
5346000
349.9011
350.5111
351.2223
352.1341
353.5138
355.9143
363.877
5346000
5346000
5346000
5346000
5346000
5346000
5346000
5346000
5346000
5346000
5346000
5346000
5346000
5346000
5346000
5346000
5346000
5346000
5346000
5346000
5346000
5346000
5346000
5346000
5346000
5346000
5346000
5346000
5346000
5346000
5346000
5346000
5346000
5346000
5346000
5346000
5346000
5346000
5346000
5346000
5346000
5346000
5346000
5346000
5346000
5346000
5346000
5346000
5346000
5346000
5346000
5346000
5346000
5346000
5346000
5346000
5346000
352.8378
5346000
5346000
5346000
5346000
5346000
5346000
5346000
5346000
5346000
5346000
5346000
5346000
5346000
5346000
5346000
352.0489
352.3313
5346000
5346000
5346000
5346000
5346000
5346000
5346000
5346000
5346000
5346000
5346000
5346000
5346000
5346000
5346000
5346000
5346000
5346000
5346000
5346000
362.3734
5346000
5346000
5346000
5346000
5346000
355.5955
377.213
5346000
5346000
5346000
5346000
5346000
353.596
361.3785
390.2107
5346000
5346000
5346000
5346000
5346000
352.2794
355.8917
366.5977
398.3369
5346000
5346000
5346000
5346000
5346000
351.3366
353.1275
357.4492
368.8182
398.8249
5346000
5346000
5346000
5346000
5346000
350.5862
351.6268
353.4451
357.444
366.828
391.3835
5346000
5346000
5346000
5346000
5346000
349.9448
350.6587
351.5922
353.0578
355.8493
361.6314
378.4312
5346000
5346000
5346000
5346000
5346000
349.365
349.9193
350.5305
351.2437
352.1515
353.4758
355.6326
363.0058
5346000
5346000
5346000
5346000
5346000
5346000
5346000
5346000
5346000
5346000
5346000
5346000
5346000
5346000
5346000
5346000
5346000
5346000
5346000
5346000
5346000
5346000
5346000
5346000
5346000
5346000
5346000
5346000
5346000
5346000
5346000
5346000
5346000
5346000
5346000
5346000
5346000
5346000
5346000
5346000
5346000
5346000
5346000
5346000
352.9375
5346000
5346000
5346000
5346000
5346000
5346000
5346000
5346000
5346000
5346000
5346000
5346000
5346000
5346000
5346000
352.0779
352.3873
5346000
5346000
5346000
5346000
5346000
5346000
5346000
5346000
5346000
5346000
5346000
5346000
5346000
5346000
5346000
351.3521
351.6292
351.8671
5346000
5346000
5346000
5346000
5346000
5346000
5346000
5346000
5346000
5346000
5346000
5346000
5346000
5346000
5346000
5346000
5346000
5346000
5346000
5346000
360.5607
5346000
5346000
5346000
5346000
5346000
355.078
374.0055
5346000
5346000
5346000
5346000
5346000
353.4704
360.5221
387.5807
5346000
5346000
5346000
5346000
5346000
352.2794
355.8917
366.5977
398.3369
5346000
5346000
5346000
5346000
5346000
351.3669
353.3011
358.0968
370.7834
402.9451
5346000
5346000
5346000
5346000
5346000
350.6206
351.7861
353.9661
359.0097
370.9748
399.616
5346000
5346000
5346000
5346000
5346000
349.9796
350.7845
351.9246
353.9243
358.0902
367.0166
389.4975
5346000
5346000
5346000
5346000
5346000
349.4013
350.0258
350.7504
351.705
353.1778
355.8163
360.8459
375.7477
5346000
5346000
5346000
5346000
5346000
348.868
349.3781
349.9279
350.5309
351.23
352.0978
353.2913
355.0705
361.4166
5346000
5346000
5346000
5346000
5346000
5346000
5346000
5346000
5346000
5346000
5346000
5346000
5346000
5346000
5346000
5346000
5346000
5346000
5346000
5346000
5346000
5346000
5346000
5346000
5346000
5346000
5346000
5346000
5346000
5346000
353.1091
5346000
5346000
5346000
5346000
5346000
5346000
5346000
5346000
5346000
5346000
5346000
5346000
5346000
5346000
5346000
352.1351
352.5095
5346000
5346000
5346000
5346000
5346000
5346000
5346000
5346000
5346000
5346000
5346000
5346000
5346000
5346000
5346000
351.3755
351.6578
351.9296
5346000
5346000
5346000
5346000
5346000
5346000
5346000
5346000
5346000
5346000
5346000
5346000
5346000
5346000
5346000
350.7049
350.9831
351.2068
351.3933
5346000
5346000
5346000
5346000
5346000
5346000
5346000
5346000
5346000
5346000
5346000
5346000
5346000
5346000
5346000
5346000
5346000
5346000
5346000
5346000
357.3094
5346000
5346000
5346000
5346000
5346000
354.3764
368.7616
5346000
5346000
5346000
5346000
5346000
353.2399
358.9239
382.2715
5346000
5346000
5346000
5346000
5346000
352.2209
355.5075
365.1447
394.7846
5346000
5346000
5346000
5346000
5346000
351.3669
353.3011
358.0968
370.7834
402.9451
5346000
5346000
5346000
5346000
5346000
350.6387
351.8721
354.254
359.8823
373.2593
403.8523
5346000
5346000
5346000
5346000
5346000
350.0041
350.8767
352.1792
354.6114
359.8916
371.2483
397.0942
5346000
5346000
5346000
5346000
5346000
349.4297
350.114
350.942
352.1266
354.1514
358.0721
365.7333
385.0499
5346000
5346000
5346000
5346000
5346000
348.9
349.4644
350.0821
350.7964
351.727
353.0994
355.3575
359.2407
371.1456
5346000
5346000
5346000
5346000
5346000
348.4046
348.8788
349.3823
349.9206
350.5064
351.1738
351.9663
352.9643
354.2455
358.5539
5346000
5346000
5346000
5346000
5346000
5346000
5346000
5346000
5346000
5346000
5346000
5346000
5346000
5346000
5346000
353.4572
5346000
5346000
5346000
5346000
5346000
5346000
5346000
5346000
5346000
5346000
5346000
5346000
5346000
5346000
5346000
352.2203
352.7372
5346000
5346000
5346000
5346000
5346000
5346000
5346000
5346000
5346000
5346000
5346000
5346000
5346000
5346000
5346000
351.4208
351.7138
352.0683
5346000
5346000
5346000
5346000
5346000
5346000
5346000
5346000
5346000
5346000
5346000
5346000
5346000
5346000
5346000
350.7255
351.0039
351.2352
351.4601
5346000
5346000
5346000
5346000
5346000
5346000
5346000
5346000
5346000
5346000
5346000
5346000
5346000
5346000
5346000
350.1137
350.3829
350.6123
350.779
350.9179
5346000
5346000
5346000
5346000
5346000
5346000
5346000
5346000
5346000
5346000
5346000
5346000
5346000
5346000
5346000
5346000
5346000
5346000
5346000
5346000
5346000
5346000
5346000
5346000
5346000
353.5683
360.6162
5346000
5346000
5346000
5346000
5346000
352.939
356.7894
374.0899
5346000
5346000
5346000
5346000
5346000
352.1133
354.8072
362.4631
387.7902
5346000
5346000
5346000
5346000
5346000
351.3366
353.1275
357.4492
368.8182
398.8249
5346000
5346000
5346000
5346000
5346000
350.6387
351.8721
354.254
359.8823
373.2593
403.8523
5346000
5346000
5346000
5346000
5346000
350.0169
350.9257
352.3179
354.9939
360.9004
373.5832
400.9893
5346000
5346000
5346000
5346000
5346000
349.4495
350.1771
351.0847
352.4539
354.9305
359.8916
369.5564
391.2531
5346000
5346000
5346000
5346000
5346000
348.9248
349.5347
350.2127
351.0314
352.1873
354.0578
357.3539
363.1159
377.8123
5346000
5346000
5346000
5346000
5346000
348.4336
348.9541
349.5054
350.1016
350.7813
351.6376
352.8072
354.5063
356.9513
363.8365
5346000
5346000
5346000
5346000
5346000
347.9717
348.4142
348.8815
349.3727
349.8935
350.4524
351.0702
351.7539
352.4938
353.1283
355.2419
5346000
5346000
5346000
5346000
5346000
5346000
5346000
5346000
5346000
5346000
5346000
5346000
5346000
5346000
5346000
352.3099
353.215
5346000
5346000
5346000
5346000
5346000
5346000
5346000
5346000
5346000
5346000
5346000
5346000
5346000
5346000
5346000
351.4845
351.7941
352.3287
5346000
5346000
5346000
5346000
5346000
5346000
5346000
5346000
5346000
5346000
5346000
5346000
5346000
5346000
5346000
350.7651
351.0422
351.2908
351.6084
5346000
5346000
5346000
5346000
5346000
5346000
5346000
5346000
5346000
5346000
5346000
5346000
5346000
5346000
5346000
350.1327
350.4004
350.631
350.8074
350.9867
5346000
5346000
5346000
5346000
5346000
5346000
5346000
5346000
5346000
5346000
5346000
5346000
5346000
5346000
5346000
349.5627
349.8323
350.0595
350.2375
350.3539
350.6392
5346000
5346000
5346000
5346000
5346000
5346000
5346000
5346000
5346000
5346000
5346000
5346000
5346000
5346000
5346000
5346000
5346000
5346000
5346000
5346000
5346000
5346000
5346000
5346000
5346000
5346000
5346000
5346000
5346000
5346000
352.6046
354.3847
362.478
5346000
5346000
5346000
5346000
5346000
351.9717
353.905
358.95
377.4434
5346000
5346000
5346000
5346000
5346000
351.2802
352.8103
356.2787
365.2276
390.8058
5346000
5346000
5346000
5346000
5346000
350.6206
351.7861
353.9661
359.0097
370.9748
399.616
5346000
5346000
5346000
5346000
5346000
350.0169
350.9257
352.3179
354.9939
360.9004
373.5832
400.9893
5346000
5346000
5346000
5346000
5346000
349.4597
350.21
351.1611
352.6338
355.3668
360.9125
371.6592
394.3808
5346000
5346000
5346000
5346000
5346000
348.942
349.5841
350.3073
351.209
352.5488
354.83
358.9654
366.1206
382.0835
5346000
5346000
5346000
5346000
5346000
348.4561
349.0148
349.6075
350.2569
351.0284
352.0738
353.6234
356.0146
359.4747
367.2607
5346000
5346000
5346000
5346000
5346000
347.9984
348.4824
348.9879
349.5145
350.0742
350.6933
351.4261
352.309
353.3312
354.1582
357.2047
5346000
5346000
5346000
5346000
5346000
347.566
347.9807
348.4163
348.8715
349.346
349.8431
350.3647
350.9128
351.4446
351.8071
352.1468
354.5909
5346000
5346000
5346000
5346000
5346000
5346000
5346000
5346000
5346000
5346000
5346000
5346000
5346000
5346000
5346000
351.5229
351.8701
352.8368
5346000
5346000
5346000
5346000
5346000
5346000
5346000
5346000
5346000
5346000
5346000
5346000
5346000
5346000
5346000
350.8195
351.0872
351.37
351.8808
5346000
5346000
5346000
5346000
5346000
5346000
5346000
5346000
5346000
5346000
5346000
5346000
5346000
5346000
5346000
350.169
350.4316
350.6643
350.8631
351.1382
5346000
5346000
5346000
5346000
5346000
5346000
5346000
5346000
5346000
5346000
5346000
5346000
5346000
5346000
5346000
349.5805
349.8481
350.0744
350.2549
350.3822
350.7077
5346000
5346000
5346000
5346000
5346000
5346000
5346000
5346000
5346000
5346000
5346000
5346000
5346000
5346000
5346000
349.0514
349.3155
349.5495
349.7326
349.8664
350.1064
350.6042
5346000
5346000
5346000
5346000
5346000
5346000
5346000
5346000
5346000
5346000
5346000
5346000
5346000
5346000
5346000
5346000
5346000
5346000
5346000
5346000
5346000
5346000
5346000
5346000
5346000
5346000
5346000
5346000
5346000
5346000
5346000
5346000
5346000
5346000
5346000
351.811
352.9219
355.0928
363.5696
5346000
5346000
5346000
5346000
5346000
351.2041
352.3992
354.7926
360.6007
379.2118
5346000
5346000
5346000
5346000
5346000
350.5862
351.6268
353.4451
357.444
366.828
391.3835
5346000
5346000
5346000
5346000
5346000
350.0041
350.8767
352.1792
354.6114
359.8916
371.2483
397.0942
5346000
5346000
5346000
5346000
5346000
349.4597
350.21
351.1611
352.6338
355.3668
360.9125
371.6592
394.3808
5346000
5346000
5346000
5346000
5346000
348.9509
349.6096
350.357
351.3049
352.7489
355.2641
359.8694
367.7631
384.1902
5346000
5346000
5346000
5346000
5346000
348.4717
349.0572
349.6801
350.3709
351.2175
352.4205
354.2871
357.2378
361.4244
369.4076
5346000
5346000
5346000
5346000
5346000
348.0192
348.5372
349.0754
349.6335
350.2314
350.9147
351.773
352.8781
354.2212
355.2434
358.7619
5346000
5346000
5346000
5346000
5346000
347.5909
348.0435
348.5124
348.9932
349.4842
349.9917
350.5238
351.088
351.6187
351.8882
352.4173
356.1523
5346000
5346000
5346000
5346000
5346000
347.1852
347.5744
347.9825
348.4068
348.8462
349.2993
349.7658
350.2363
350.6805
350.9498
351.0493
351.8419
353.9243
5346000
5346000
5346000
5346000
5346000
5346000
5346000
5346000
5346000
5346000
5346000
5346000
5346000
5346000
5346000
350.8424
351.0816
351.4507
352.3695
5346000
5346000
5346000
5346000
5346000
5346000
5346000
5346000
5346000
5346000
5346000
5346000
5346000
5346000
5346000
350.2188
350.4643
350.6994
350.9442
351.408
5346000
5346000
5346000
5346000
5346000
5346000
5346000
5346000
5346000
5346000
5346000
5346000
5346000
5346000
5346000
349.6145
349.876
350.0993
350.2853
350.4387
350.8577
5346000
5346000
5346000
5346000
5346000
5346000
5346000
5346000
5346000
5346000
5346000
5346000
5346000
5346000
5346000
349.0682
349.3302
349.5627
349.7457
349.883
350.1347
350.6727
5346000
5346000
5346000
5346000
5346000
5346000
5346000
5346000
5346000
5346000
5346000
5346000
5346000
5346000
5346000
348.573
348.8329
349.0669
349.2635
349.4095
349.6501
350.0753
350.57
5346000
5346000
5346000
5346000
5346000
5346000
5346000
5346000
5346000
5346000
5346000
5346000
5346000
5346000
5346000
5346000
5346000
5346000
5346000
5346000
5346000
5346000
5346000
5346000
5346000
5346000
5346000
5346000
5346000
5346000
5346000
5346000
5346000
5346000
5346000
5346000
5346000
5346000
5346000
5346000
351.1146
351.9448
353.2049
355.6193
364.1263
5346000
5346000
5346000
5346000
5346000
350.5387
351.4156
352.7797
355.4805
361.5377
379.5409
5346000
5346000
5346000
5346000
5346000
349.9796
350.7845
351.9246
353.9243
358.0902
367.0166
389.4975
5346000
5346000
5346000
5346000
5346000
349.4495
350.1771
351.0847
352.4539
354.9305
359.8916
369.5564
391.2531
5346000
5346000
5346000
5346000
5346000
348.9509
349.6096
350.357
351.3049
352.7489
355.2641
359.8694
367.7631
384.1902
5346000
5346000
5346000
5346000
5346000
348.4797
349.0788
349.7177
350.4313
351.3205
352.6138
354.6619
357.9246
362.4852
370.456
5346000
5346000
5346000
5346000
5346000
348.0336
348.5752
349.1368
349.719
350.3483
351.0873
352.0555
353.3545
354.966
356.1123
359.8134
5346000
5346000
5346000
5346000
5346000
347.6102
348.0939
348.591
349.094
349.6016
350.1245
350.6806
351.2913
351.8856
352.1665
352.8116
357.4501
5346000
5346000
5346000
5346000
5346000
347.2084
347.6329
348.0711
348.5163
348.9635
349.4081
349.8469
350.2642
350.6146
350.727
350.9266
352.0587
355.1629
5346000
5346000
5346000
5346000
5346000
346.8272
347.1932
347.5762
347.9735
348.383
348.803
349.2295
349.6547
350.0455
350.2851
350.3169
350.803
351.5
353.2357
5346000
5346000
5346000
5346000
5346000
5346000
5346000
5346000
5346000
5346000
5346000
5346000
5346000
5346000
5346000
350.238
350.4367
350.688
351.0358
351.8544
5346000
5346000
5346000
5346000
5346000
5346000
5346000
5346000
5346000
5346000
5346000
5346000
5346000
5346000
5346000
349.6613
349.9042
350.1198
350.3178
350.5234
351.1205
5346000
5346000
5346000
5346000
5346000
5346000
5346000
5346000
5346000
5346000
5346000
5346000
5346000
5346000
5346000
349.1006
349.3562
349.5842
349.767
349.9126
350.1913
350.8224
5346000
5346000
5346000
5346000
5346000
5346000
5346000
5346000
5346000
5346000
5346000
5346000
5346000
5346000
5346000
348.5891
348.8469
349.0791
349.2748
349.4216
349.6664
350.1035
350.6383
5346000
5346000
5346000
5346000
5346000
5346000
5346000
5346000
5346000
5346000
5346000
5346000
5346000
5346000
5346000
348.1257
348.3787
348.6131
348.8153
348.9811
349.2201
349.6227
350.0449
350.535
5346000
5346000
5346000
5346000
5346000
5346000
5346000
5346000
5346000
5346000
5346000
5346000
5346000
5346000
5346000
5346000
5346000
5346000
5346000
5346000
5346000
5346000
5346000
5346000
5346000
5346000
5346000
5346000
5346000
5346000
5346000
5346000
5346000
5346000
5346000
5346000
5346000
5346000
5346000
5346000
5346000
5346000
5346000
5346000
5346000
350.4805
351.1754
352.0591
353.4147
355.9056
364.2277
5346000
5346000
5346000
5346000
5346000
349.9448
350.6587
351.5922
353.0578
355.8493
361.6314
378.4312
5346000
5346000
5346000
5346000
5346000
349.4297
350.114
350.942
352.1266
354.1514
358.0721
365.7333
385.0499
5346000
5346000
5346000
5346000
5346000
348.942
349.5841
350.3073
351.209
352.5488
354.83
358.9654
366.1206
382.0835
5346000
5346000
5346000
5346000
5346000
348.4797
349.0788
349.7177
350.4313
351.3205
352.6138
354.6619
357.9246
362.4852
370.456
5346000
5346000
5346000
5346000
5346000
348.0409
348.5946
349.1685
349.7636
350.4107
351.1824
352.2151
353.6269
355.3887
356.5902
360.3411
5346000
5346000
5346000
5346000
5346000
347.6236
348.1289
348.6459
349.1656
349.6868
350.2253
350.809
351.4721
352.14
352.4471
353.1569
358.3447
5346000
5346000
5346000
5346000
5346000
347.2265
347.6798
348.1434
348.6066
349.0617
349.5029
349.928
350.3237
350.6474
350.7146
350.9576
352.3726
356.2257
5346000
5346000
5346000
5346000
5346000
346.8489
347.2478
347.6587
348.0744
348.4883
348.8935
349.2798
349.6302
349.8981
349.9736
350.0796
350.701
351.686
354.2113
5346000
5346000
5346000
5346000
5346000
346.4901
346.8347
347.1949
347.5677
347.9513
348.3429
348.739
349.13
349.4892
349.71
349.7377
350.1065
350.5322
351.1298
352.5435
5346000
5346000
5346000
5346000
5346000
5346000
5346000
5346000
5346000
5346000
5346000
5346000
5346000
5346000
5346000
349.6806
349.8736
350.0829
350.3177
350.6283
351.5387
5346000
5346000
5346000
5346000
5346000
5346000
5346000
5346000
5346000
5346000
5346000
5346000
5346000
5346000
5346000
349.1452
349.3827
349.6
349.7833
349.9477
350.2778
351.0841
5346000
5346000
5346000
5346000
5346000
5346000
5346000
5346000
5346000
5346000
5346000
5346000
5346000
5346000
5346000
348.6199
348.8717
349.099
349.2924
349.4414
349.6961
350.1601
350.7877
5346000
5346000
5346000
5346000
5346000
5346000
5346000
5346000
5346000
5346000
5346000
5346000
5346000
5346000
5346000
348.1411
348.3921
348.6247
348.8257
348.9912
349.2319
349.639
350.073
350.6032
5346000
5346000
5346000
5346000
5346000
5346000
5346000
5346000
5346000
5346000
5346000
5346000
5346000
5346000
5346000
347.7057
347.9517
348.183
348.3903
348.567
348.8144
349.1959
349.5959
350.0138
350.5014
5346000
5346000
5346000
5346000
5346000
5346000
5346000
5346000
5346000
5346000
5346000
5346000
5346000
5346000
5346000
5346000
5346000
5346000
5346000
5346000
5346000
5346000
5346000
5346000
5346000
5346000
5346000
5346000
5346000
5346000
5346000
5346000
5346000
5346000
5346000
5346000
5346000
5346000
5346000
5346000
5346000
5346000
5346000
5346000
5346000
5346000
5346000
5346000
5346000
5346000
349.9011
350.5111
351.2223
352.1341
353.5138
355.9143
363.877
5346000
5346000
5346000
5346000
5346000
349.4013
350.0258
350.7504
351.705
353.1778
355.8163
360.8459
375.7477
5346000
5346000
5346000
5346000
5346000
348.9248
349.5347
350.2127
351.0314
352.1873
354.0578
357.3539
363.1159
377.8123
5346000
5346000
5346000
5346000
5346000
348.4717
349.0572
349.6801
350.3709
351.2175
352.4205
354.2871
357.2378
361.4244
369.4076
5346000
5346000
5346000
5346000
5346000
348.0409
348.5946
349.1685
349.7636
350.4107
351.1824
352.2151
353.6269
355.3887
356.5902
360.3411
5346000
5346000
5346000
5346000
5346000
347.6304
348.1467
348.6741
349.2026
349.7316
350.28
350.8817
351.5782
352.2925
352.6156
353.3532
358.7977
5346000
5346000
5346000
5346000
5346000
347.239
347.7124
348.1939
348.6702
349.132
349.5733
349.9946
350.3873
350.7124
350.766
351.0305
352.6498
356.972
5346000
5346000
5346000
5346000
5346000
346.8658
347.2917
347.7259
348.1575
348.5759
348.9712
349.3304
349.6363
349.845
349.8613
349.9874
350.7151
351.9383
355.065
5346000
5346000
5346000
5346000
5346000
346.5104
346.8859
347.272
347.6618
348.0485
348.4239
348.7775
349.0899
349.3233
349.3873
349.478
349.9118
350.4607
351.2974
353.2985
5346000
5346000
5346000
5346000
5346000
346.1724
346.4972
346.8362
347.1869
347.547
347.914
348.2838
348.6484
348.982
349.1941
349.227
349.553
349.8782
350.2433
350.7529
352.1475
5346000
5346000
5346000
5346000
5346000
5346000
5346000
5346000
5346000
5346000
5346000
5346000
5346000
5346000
5346000
349.1659
349.3553
349.559
349.7562
349.9667
350.3892
351.4991
5346000
5346000
5346000
5346000
5346000
5346000
5346000
5346000
5346000
5346000
5346000
5346000
5346000
5346000
5346000
348.6628
348.8975
349.1135
349.3035
349.4595
349.7339
350.2467
351.0484
5346000
5346000
5346000
5346000
5346000
5346000
5346000
5346000
5346000
5346000
5346000
5346000
5346000
5346000
5346000
348.1706
348.4159
348.6437
348.8417
349.0073
349.2518
349.6687
350.1295
350.7522
5346000
5346000
5346000
5346000
5346000
5346000
5346000
5346000
5346000
5346000
5346000
5346000
5346000
5346000
5346000
347.7204
347.9645
348.1941
348.4001
348.5763
348.8243
349.2077
349.6122
350.0419
350.5695
5346000
5346000
5346000
5346000
5346000
5346000
5346000
5346000
5346000
5346000
5346000
5346000
5346000
5346000
5346000
347.3111
347.5488
347.7763
347.9844
348.1706
348.4194
348.7928
349.1723
349.5686
349.9841
350.4638
5346000
5346000
5346000
5346000
5346000
5346000
5346000
5346000
5346000
5346000
5346000
5346000
5346000
5346000
5346000
5346000
5346000
5346000
5346000
5346000
5346000
5346000
5346000
5346000
5346000
5346000
5346000
5346000
5346000
5346000
5346000
5346000
5346000
5346000
5346000
5346000
5346000
5346000
5346000
5346000
5346000
5346000
5346000
5346000
5346000
5346000
5346000
5346000
5346000
5346000
5346000
5346000
5346000
5346000
5346000
349.365
349.9193
350.5305
351.2437
352.1515
353.4758
355.6326
363.0058
5346000
5346000
5346000
5346000
5346000
348.9
349.4644
350.0821
350.7964
351.727
353.0994
355.3575
359.2407
371.1456
5346000
5346000
5346000
5346000
5346000
348.4561
349.0148
349.6075
350.2569
351.0284
352.0738
353.6234
356.0146
359.4747
367.2607
5346000
5346000
5346000
5346000
5346000
348.0336
348.5752
349.1368
349.719
350.3483
351.0873
352.0555
353.3545
354.966
356.1123
359.8134
5346000
5346000
5346000
5346000
5346000
347.6304
348.1467
348.6741
349.2026
349.7316
350.28
350.8817
351.5782
352.2925
352.6156
353.3532
358.7977
5346000
5346000
5346000
5346000
5346000
347.2454
347.7289
348.2197
348.703
349.1686
349.6109
350.0322
350.4272
350.7585
350.8083
351.082
352.8084
357.3534
5346000
5346000
5346000
5346000
5346000
346.8776
347.3221
347.7728
348.2159
348.6382
349.028
349.3721
349.6552
349.838
349.8286
349.9604
350.7657
352.16
355.6736
5346000
5346000
5346000
5346000
5346000
346.5264
346.927
347.3349
347.7391
348.1291
348.4927
348.8161
349.0777
349.2441
349.2462
349.3491
349.8257
350.4685
351.5027
353.9657
5346000
5346000
5346000
5346000
5346000
346.1915
346.5451
346.9085
347.2749
347.6376
347.9889
348.3176
348.6065
348.8204
348.8881
348.9766
349.3406
349.7307
350.2048
350.9082
352.8003
5346000
5346000
5346000
5346000
5346000
345.8728
346.179
346.4985
346.8287
347.1673
347.512
347.859
348.2002
348.5136
348.7172
348.7621
349.0623
349.3545
349.6366
349.9542
350.5266
352.099
5346000
5346000
5346000
5346000
5346000
5346000
5346000
5346000
5346000
5346000
5346000
5346000
5346000
5346000
5346000
348.6851
348.8752
349.0756
349.2706
349.4512
349.764
350.3586
351.46
5346000
5346000
5346000
5346000
5346000
5346000
5346000
5346000
5346000
5346000
5346000
5346000
5346000
5346000
5346000
348.212
348.4414
348.6583
348.8514
349.0194
349.2723
349.7066
350.2163
351.0118
5346000
5346000
5346000
5346000
5346000
5346000
5346000
5346000
5346000
5346000
5346000
5346000
5346000
5346000
5346000
347.7488
347.9875
348.2125
348.4154
348.5906
348.8402