/*--------------------------------*- C++ -*----------------------------------*\
| =========                 |                                                 |
| \\      /  F ield         | OpenFOAM: The Open Source CFD Toolbox           |
|  \\    /   O peration     | Version:  2306                                  |
|   \\  /    A nd           | Website:  www.openfoam.com                      |
|    \\/     M anipulation  |                                                 |
\*---------------------------------------------------------------------------*/
FoamFile
{
    version     2.0;
    format      ascii;
    arch        "LSB;label=32;scalar=64";
    class       volScalarField;
    location    "1.2";
    object      T;
}
// * * * * * * * * * * * * * * * * * * * * * * * * * * * * * * * * * * * * * //

dimensions      [0 0 0 1 0 0 0];

internalField   nonuniform List<scalar> 
52000
(
1155.246
1155.244
1156.959
1155.186
1155.24
1156.958
1155.183
1159.258
1156.939
1155.067
1155.235
1156.957
1155.178
1159.257
1156.938
1155.062
1161.657
1159.257
1156.901
1154.893
1155.229
1156.955
1155.17
1159.256
1156.936
1155.053
1161.656
1159.256
1156.9
1154.884
1163.978
1161.663
1159.256
1156.849
1154.674
1155.222
1156.952
1155.161
1159.254
1156.933
1155.041
1161.655
1159.254
1156.896
1154.869
1163.977
1161.662
1159.255
1156.846
1154.658
1166.163
1163.986
1161.677
1159.259
1156.788
1154.493
1155.215
1156.949
1155.152
1159.252
1156.93
1155.026
1161.653
1159.252
1156.892
1154.847
1163.976
1161.66
1159.252
1156.841
1154.628
1166.163
1163.986
1161.675
1159.257
1156.784
1154.467
1168.201
1166.172
1164.004
1161.7
1159.27
1156.745
1154.377
1155.209
1156.946
1155.142
1159.249
1156.926
1155.01
1161.651
1159.248
1156.887
1154.822
1163.974
1161.658
1159.248
1156.834
1154.589
1166.161
1163.984
1161.672
1159.252
1156.776
1154.414
1168.2
1166.171
1164.003
1161.698
1159.267
1156.738
1154.343
1170.096
1168.209
1166.19
1164.033
1161.737
1159.288
1156.719
1154.271
1155.205
1156.944
1155.134
1159.247
1156.922
1154.993
1161.648
1159.245
1156.88
1154.795
1163.972
1161.654
1159.243
1156.826
1154.546
1166.16
1163.981
1161.668
1159.245
1156.766
1154.337
1168.199
1166.169
1164
1161.693
1159.26
1156.725
1154.273
1170.095
1168.208
1166.188
1164.031
1161.734
1159.284
1156.711
1154.23
1171.859
1170.103
1168.226
1166.219
1164.077
1161.777
1159.304
1156.701
1154.182
1155.203
1156.942
1155.128
1159.245
1156.918
1154.979
1161.646
1159.242
1156.874
1154.763
1163.97
1161.651
1159.237
1156.817
1154.515
1166.158
1163.978
1161.662
1159.237
1156.755
1154.238
1168.197
1166.167
1163.996
1161.686
1159.25
1156.707
1154.167
1170.094
1168.206
1166.186
1164.027
1161.728
1159.277
1156.693
1154.145
1171.859
1170.102
1168.224
1166.217
1164.075
1161.775
1159.3
1156.69
1154.135
1173.503
1171.866
1170.119
1168.253
1166.263
1164.123
1161.808
1159.325
1156.691
1154.115
1155.203
1156.941
1155.124
1159.243
1156.916
1154.967
1161.644
1159.239
1156.868
1154.733
1163.967
1161.647
1159.231
1156.806
1154.446
1166.155
1163.975
1161.656
1159.226
1156.746
1141.132
1168.195
1166.164
1163.99
1161.676
1159.236
1156.687
1154.018
1170.093
1168.204
1166.182
1164.02
1161.717
1159.268
1156.667
1154.014
1171.858
1170.101
1168.222
1166.213
1164.069
1161.769
1159.292
1156.667
1154.04
1173.502
1171.865
1170.117
1168.251
1166.261
1164.121
1161.806
1159.321
1156.678
1154.065
1175.038
1173.509
1171.88
1170.144
1168.294
1166.308
1164.157
1161.843
1159.352
1156.693
1154.072
1155.205
1156.941
1155.124
1159.242
1156.914
1154.961
1161.642
1159.236
1156.864
1154.71
1163.965
1161.645
1159.226
1156.794
1154.378
1166.153
1163.971
1161.651
1159.215
1156.723
1129.119
1168.193
1166.161
1163.985
1161.665
1159.215
1155.093
1128.913
1170.091
1168.202
1166.177
1164.01
1161.701
1159.257
1156.634
1153.827
1171.856
1170.099
1168.219
1166.207
1164.059
1161.762
1159.28
1156.633
1153.89
1173.502
1171.864
1170.115
1168.248
1166.255
1164.117
1161.801
1159.311
1156.652
1153.962
1175.038
1173.508
1171.879
1170.142
1168.292
1166.306
1164.156
1161.841
1159.347
1156.679
1154.02
1176.474
1175.044
1173.522
1171.903
1170.181
1168.336
1166.341
1164.195
1161.882
1159.386
1156.708
1154.055
1155.209
1156.942
1155.128
1159.242
1156.914
1154.961
1161.641
1159.235
1156.861
1154.697
1163.964
1161.642
1159.222
1156.785
1154.327
1166.152
1163.969
1161.646
1159.206
1156.697
1122.52
1168.192
1166.158
1163.979
1161.654
1159.193
1152.025
1099.824
1170.089
1168.199
1166.172
1163.999
1161.675
1158.593
1151.978
1122.135
1171.855
1170.097
1168.214
1166.198
1164.043
1161.754
1159.266
1156.587
1153.678
1173.5
1171.862
1170.112
1168.242
1166.246
1164.111
1161.794
1159.297
1156.611
1153.802
1175.037
1173.507
1171.877
1170.139
1168.287
1166.302
1164.152
1161.836
1159.337
1156.651
1153.914
1176.474
1175.043
1173.521
1171.901
1170.179
1168.334
1166.34
1164.194
1161.88
1159.38
1156.694
1154.003
1177.82
1176.479
1175.055
1173.543
1171.937
1170.219
1168.366
1166.377
1164.236
1161.925
1159.426
1156.736
1154.062
1155.215
1156.944
1155.134
1159.243
1156.916
1154.967
1161.641
1159.235
1156.861
1154.697
1163.963
1161.641
1159.22
1156.78
1154.3
1166.15
1163.967
1161.642
1159.198
1156.676
1118.792
1168.19
1166.155
1163.975
1161.645
1159.175
1149.376
1081.813
1170.087
1168.196
1166.167
1163.989
1161.654
1157.32
1142.926
1081.523
1171.853
1170.094
1168.209
1166.188
1164.017
1161.418
1157.367
1149.273
1118.188
1173.499
1171.86
1170.108
1168.234
1166.232
1164.105
1161.786
1159.278
1156.554
1153.576
1175.036
1173.506
1171.874
1170.134
1168.279
1166.297
1164.148
1161.829
1159.32
1156.606
1153.75
1176.473
1175.042
1173.519
1171.898
1170.175
1168.331
1166.337
1164.191
1161.875
1159.369
1156.665
1153.897
1177.82
1176.479
1175.054
1173.541
1171.935
1170.217
1168.365
1166.376
1164.234
1161.923
1159.421
1156.723
1154.011
1179.083
1177.825
1176.49
1175.074
1173.573
1171.971
1170.247
1168.399
1166.416
1164.279
1161.972
1159.473
1156.777
1154.094
1155.222
1156.946
1155.142
1159.245
1156.918
1154.979
1161.642
1159.236
1156.864
1154.71
1163.963
1161.641
1159.22
1156.78
1154.3
1166.15
1163.966
1161.64
1159.195
1156.664
1117.067
1168.189
1166.154
1163.971
1161.638
1159.16
1147.431
1071.061
1170.086
1168.194
1166.163
1163.981
1161.638
1156.179
1135.002
1054.494
1171.852
1170.092
1168.205
1166.179
1163.997
1160.807
1153.624
1134.875
1070.284
1173.498
1171.858
1170.104
1168.225
1166.207
1163.904
1160.891
1156.258
1147.244
1116.173
1175.034
1173.504
1171.871
1170.127
1168.266
1166.292
1164.143
1161.819
1159.297
1156.543
1153.521
1176.472
1175.04
1173.516
1171.894
1170.168
1168.327
1166.333
1164.187
1161.867
1159.352
1156.62
1153.735
1177.819
1176.478
1175.053
1173.538
1171.931
1170.215
1168.363
1166.374
1164.232
1161.918
1159.41
1156.695
1153.909
1179.082
1177.824
1176.489
1175.073
1173.572
1171.97
1170.246
1168.399
1166.415
1164.278
1161.97
1159.468
1156.765
1154.044
1180.269
1179.087
1177.835
1176.507
1175.102
1173.604
1171.996
1170.277
1168.435
1166.457
1164.326
1162.023
1159.526
1156.829
1154.149
1155.229
1156.949
1155.152
1159.247
1156.922
1154.993
1161.644
1159.239
1156.868
1154.733
1163.964
1161.642
1159.222
1156.785
1154.327
1166.15
1163.966
1161.64
1159.195
1156.664
1117.067
1168.188
1166.153
1163.969
1161.635
1159.153
1146.4
1065.986
1170.085
1168.192
1166.16
1163.975
1161.627
1155.308
1129.136
1037.611
1171.85
1170.09
1168.201
1166.171
1163.983
1160.274
1150.213
1122.05
1036.947
1173.496
1171.856
1170.1
1168.216
1166.189
1163.566
1159.155
1150.232
1128.769
1064.433
1175.033
1173.502
1171.867
1170.118
1168.243
1166.154
1163.658
1160.424
1155.41
1146.1
1115.776
1176.471
1175.039
1173.513
1171.887
1170.156
1168.322
1166.33
1164.181
1161.857
1159.326
1156.556
1153.512
1177.818
1176.476
1175.05
1173.534
1171.924
1170.211
1168.36
1166.371
1164.228
1161.911
1159.393
1156.653
1153.753
1179.082
1177.823
1176.488
1175.07
1173.568
1171.967
1170.244
1168.397
1166.413
1164.276
1161.967
1159.46
1156.741
1153.944
1180.268
1179.087
1177.834
1176.506
1175.101
1173.603
1171.995
1170.276
1168.434
1166.456
1164.325
1162.022
1159.523
1156.819
1154.099
1181.383
1180.273
1179.096
1177.851
1176.533
1175.13
1173.627
1172.023
1170.309
1168.472
1166.5
1164.374
1162.076
1159.583
1156.892
1155.055
1155.235
1156.952
1155.161
1159.249
1156.926
1155.01
1161.646
1159.242
1156.874
1154.763
1163.965
1161.645
1159.226
1156.794
1154.378
1166.15
1163.967
1161.642
1159.198
1156.676
1118.792
1168.188
1166.153
1163.969
1161.635
1159.153
1146.4
1065.986
1170.084
1168.191
1166.158
1163.972
1161.621
1154.835
1126.015
1029.43
1171.849
1170.088
1168.198
1166.166
1163.973
1159.87
1147.579
1112.438
1015.477
1173.495
1171.854
1170.096
1168.21
1166.176
1163.283
1157.592
1144.648
1112.096
1027.577
1175.032
1173.5
1171.863
1170.111
1168.227
1165.936
1162.74
1157.67
1147.589
1125.289
1063.323
1176.47
1175.037
1173.51
1171.88
1170.135
1168.213
1166.025
1163.451
1160.087
1154.96
1145.974
1116.972
1177.817
1176.475
1175.047
1173.528
1171.914
1170.207
1168.357
1166.368
1164.223
1161.9
1159.368
1156.594
1153.543
1179.081
1177.822
1176.486
1175.067
1173.562
1171.964
1170.241
1168.395
1166.411
1164.273
1161.96
1159.445
1156.705
1153.796
1180.268
1179.086
1177.832
1176.504
1175.097
1173.601
1171.994
1170.275
1168.433
1166.455
1164.324
1162.019
1159.517
1156.799
1153.999
1181.383
1180.272
1179.096
1177.85
1176.532
1175.129
1173.626
1172.023
1170.309
1168.472
1166.5
1164.375
1162.076
1159.582
1156.883
1154.987
1182.43
1181.387
1180.281
1179.111
1177.874
1176.559
1175.151
1173.652
1172.053
1170.343
1168.511
1166.544
1164.425
1162.132
1159.645
1157.727
1156.796
1155.24
1156.955
1155.17
1159.252
1156.93
1155.026
1161.648
1159.245
1156.88
1154.795
1163.967
1161.647
1159.231
1156.806
1154.446
1166.152
1163.969
1161.646
1159.206
1156.697
1122.52
1168.189
1166.154
1163.971
1161.638
1159.16
1147.431
1071.061
1170.084
1168.191
1166.158
1163.972
1161.621
1154.835
1126.015
1029.43
1171.849
1170.087
1168.197
1166.163
1163.968
1159.651
1146.139
1107.292
1004.885
1173.494
1171.852
1170.094
1168.205
1166.168
1163.075
1156.39
1140.285
1099.466
1003.436
1175.031
1173.498
1171.86
1170.104
1168.215
1165.761
1161.939
1155.143
1140.251
1106.368
1025.778
1176.469
1175.035
1173.506
1171.873
1170.12
1168.05
1165.462
1162.035
1156.56
1146.131
1124.857
1066.914
1177.816
1176.473
1175.044
1173.522
1171.895
1170.115
1168.133
1165.924
1163.321
1159.948
1155.006
1146.911
1120.006
1179.08
1177.821
1176.483
1175.061
1173.552
1171.96
1170.239
1168.393
1166.408
1164.268
1161.95
1159.424
1156.656
1153.606
1180.267
1179.085
1177.83
1176.5
1175.092
1173.598
1171.991
1170.273
1168.432
1166.454
1164.322
1162.015
1159.507
1156.771
1153.853
1181.382
1180.271
1179.094
1177.847
1176.529
1175.127
1173.625
1172.022
1170.308
1168.472
1166.5
1164.375
1162.076
1159.579
1156.866
1154.835
1182.43
1181.386
1180.28
1179.11
1177.873
1176.558
1175.151
1173.652
1172.052
1170.343
1168.512
1166.545
1164.426
1162.133
1159.644
1157.719
1156.695
1183.415
1182.434
1181.395
1180.295
1179.133
1177.898
1176.578
1175.174
1173.678
1172.083
1170.378
1168.552
1166.59
1164.475
1162.188
1160.382
1159.327
1158.547
1155.244
1156.957
1155.178
1159.254
1156.933
1155.041
1161.651
1159.248
1156.887
1154.822
1163.97
1161.651
1159.237
1156.817
1154.515
1166.153
1163.971
1161.651
1159.215
1156.723
1129.119
1168.19
1166.155
1163.975
1161.645
1159.175
1149.376
1081.813
1170.085
1168.192
1166.16
1163.975
1161.627
1155.308
1129.136
1037.611
1171.849
1170.087
1168.197
1166.163
1163.968
1159.651
1146.139
1107.292
1004.885
1173.494
1171.852
1170.093
1168.203
1166.164
1162.964
1155.734
1137.885
1092.664
991.4051
1175.03
1173.497
1171.858
1170.1
1168.208
1165.637
1161.336
1153.173
1134.461
1091.941
1001.092
1176.468
1175.034
1173.504
1171.867
1170.11
1167.925
1164.987
1160.77
1153.275
1137.782
1105.616
1031.542
1177.815
1176.472
1175.041
1173.515
1171.882
1169.979
1167.727
1165.083
1161.555
1156.031
1146.158
1127.599
1075.74
1179.079
1177.819
1176.48
1175.055
1173.536
1171.878
1170.054
1168.075
1165.878
1163.305
1160.056
1155.58
1148.871
1125.607
1180.266
1179.083
1177.828
1176.496
1175.083
1173.594
1171.989
1170.271
1168.43
1166.451
1164.317
1162.007
1159.492
1156.737
1153.674
1181.381
1180.27
1179.092
1177.844
1176.524
1175.125
1173.623
1172.02
1170.307
1168.471
1166.499
1164.374
1162.076
1159.576
1156.845
1154.541
1182.43
1181.386
1180.279
1179.108
1177.87
1176.556
1175.149
1173.65
1172.051
1170.342
1168.512
1166.546
1164.428
1162.136
1159.645
1157.705
1156.455
1183.415
1182.434
1181.394
1180.294
1179.132
1177.897
1176.577
1175.173
1173.678
1172.083
1170.378
1168.553
1166.591
1164.478
1162.191
1160.388
1159.319
1158.42
1184.341
1183.419
1182.441
1181.408
1180.315
1179.155
1177.916
1176.599
1175.198
1173.706
1172.115
1170.415
1168.593
1166.636
1164.526
1162.834
1161.794
1160.928
1160.314
1155.246
1156.958
1155.183
1159.256
1156.936
1155.053
1161.653
1159.252
1156.892
1154.847
1163.972
1161.654
1159.243
1156.826
1154.546
1166.155
1163.975
1161.656
1159.226
1156.746
1141.132
1168.192
1166.158
1163.979
1161.654
1159.193
1152.025
1099.824
1170.086
1168.194
1166.163
1163.981
1161.638
1156.179
1135.002
1054.494
1171.849
1170.088
1168.198
1166.166
1163.973
1159.87
1147.579
1112.438
1015.477
1173.494
1171.852
1170.093
1168.203
1166.164
1162.964
1155.734
1137.885
1092.664
991.4051
1175.03
1173.496
1171.856
1170.098
1168.204
1165.573
1161.012
1152.088
1131.259
1084.141
988.76
1176.467
1175.032
1173.502
1171.863
1170.103
1167.838
1164.64
1159.805
1150.684
1131.152
1090.917
1008.492
1177.814
1176.47
1175.039
1173.51
1171.873
1169.878
1167.396
1164.356
1159.951
1152.344
1137.755
1110.038
1045.415
1179.078
1177.818
1176.477
1175.049
1173.524
1171.759
1169.726
1167.486
1164.862
1161.403
1156.233
1147.759
1133.335
1091.216
1180.265
1179.082
1177.825
1176.49
1175.068
1173.52
1171.827
1170.015
1168.062
1165.907
1163.428
1160.436
1156.669
1151.793
1135.868
1181.38
1180.269
1179.09
1177.84
1176.515
1175.121
1173.621
1172.018
1170.305
1168.469
1166.497
1164.372
1162.073
1159.571
1156.827
1153.713
1182.429
1181.385
1180.278
1179.105
1177.866
1176.553
1175.147
1173.649
1172.05
1170.342
1168.512
1166.547
1164.43
1162.141
1159.649
1157.699
1155.937
1183.415
1182.433
1181.393
1180.292
1179.129
1177.895
1176.576
1175.173
1173.678
1172.083
1170.379
1168.554
1166.594
1164.482
1162.197
1160.404
1159.308
1158.113
1184.34
1183.418
1182.441
1181.407
1180.314
1179.154
1177.915
1176.598
1175.198
1173.706
1172.115
1170.415
1168.594
1166.638
1164.529
1162.844
1161.809
1160.92
1160.169
1185.21
1184.344
1183.426
1182.454
1181.427
1180.336
1179.171
1177.935
1176.621
1175.223
1173.735
1172.148
1170.451
1168.634
1166.681
1165.092
1164.069
1163.203
1162.528
1162.1
1156.959
1155.186
1159.257
1156.938
1155.062
1161.655
1159.254
1156.896
1154.869
1163.974
1161.658
1159.248
1156.834
1154.589
1166.158
1163.978
1161.662
1159.237
1156.755
1154.238
1168.193
1166.161
1163.985
1161.665
1159.215
1155.093
1128.913
1170.087
1168.196
1166.167
1163.989
1161.654
1157.32
1142.926
1081.523
1171.85
1170.09
1168.201
1166.171
1163.983
1160.274
1150.213
1122.05
1036.947
1173.494
1171.852
1170.094
1168.205
1166.168
1163.075
1156.39
1140.285
1099.466
1003.436
1175.03
1173.496
1171.856
1170.098
1168.204
1165.573
1161.012
1152.088
1131.259
1084.141
988.76
1176.466
1175.032
1173.501
1171.862
1170.1
1167.794
1164.457
1159.28
1149.245
1127.47
1082.96
997.0362
1177.813
1176.469
1175.037
1173.507
1171.867
1169.809
1167.161
1163.818
1158.71
1149.41
1131.06
1096.649
1026.06
1179.077
1177.816
1176.475
1175.045
1173.515
1171.671
1169.463
1166.993
1163.97
1159.652
1152.604
1140.303
1119.25
1068.762
1180.264
1179.08
1177.823
1176.485
1175.057
1173.412
1171.54
1169.545
1167.37
1164.856
1161.654
1157.227
1150.822
1141.643
1116.689
1181.38
1180.268
1179.088
1177.834
1176.501
1175.053
1173.474
1171.795
1170.013
1168.105
1166.028
1163.709
1161.098
1158.274
1155.79
1147.827
1182.428
1181.383
1180.275
1179.101
1177.858
1176.551
1175.145
1173.647
1172.049
1170.34
1168.511
1166.547
1164.432
1162.145
1159.659
1157.797
1154.585
1183.414
1182.432
1181.391
1180.289
1179.125
1177.893
1176.574
1175.171
1173.677
1172.082
1170.379
1168.555
1166.598
1164.489
1162.208
1160.457
1159.315
1157.459
1184.34
1183.418
1182.44
1181.405
1180.312
1179.153
1177.914
1176.597
1175.197
1173.706
1172.116
1170.417
1168.597
1166.643
1164.537
1162.868
1161.851
1160.908
1159.821
1185.21
1184.344
1183.425
1182.453
1181.426
1180.335
1179.171
1177.934
1176.621
1175.223
1173.735
1172.149
1170.453
1168.636
1166.684
1165.102
1164.091
1163.225
1162.52
1161.946
1186.026
1185.213
1184.351
1183.437
1182.472
1181.446
1180.351
1179.189
1177.955
1176.644
1175.25
1173.765
1172.181
1170.488
1168.674
1167.179
1166.175
1165.301
1164.608
1164.13
1163.055
1159.258
1156.939
1155.067
1161.656
1159.256
1156.9
1154.884
1163.976
1161.66
1159.252
1156.841
1154.628
1166.16
1163.981
1161.668
1159.245
1156.766
1154.337
1168.195
1166.164
1163.99
1161.676
1159.236
1156.687
1154.018
1170.089
1168.199
1166.172
1163.999
1161.675
1158.593
1151.978
1122.135
1171.852
1170.092
1168.205
1166.179
1163.997
1160.807
1153.624
1134.875
1070.284
1173.495
1171.854
1170.096
1168.21
1166.176
1163.283
1157.592
1144.648
1112.096
1027.577
1175.03
1173.497
1171.858
1170.1
1168.208
1165.637
1161.336
1153.173
1134.461
1091.941
1001.092
1176.466
1175.032
1173.501
1171.862
1170.1
1167.794
1164.457
1159.28
1149.245
1127.47
1082.96
997.0362
1177.813
1176.469
1175.036
1173.505
1171.864
1169.774
1167.039
1163.53
1158.03
1147.773
1127.336
1089.411
1016.551
1179.076
1177.815
1176.473
1175.042
1173.51
1171.611
1169.28
1166.638
1163.299
1158.282
1149.697
1134.351
1108.551
1054.824
1180.263
1179.079
1177.82
1176.48
1175.049
1173.332
1171.313
1169.16
1166.783
1163.919
1159.997
1154.136
1145.165
1132.335
1104.593
1181.379
1180.266
1179.085
1177.829
1176.491
1174.953
1173.214
1171.388
1169.471
1167.416
1165.109
1162.352
1158.987
1155.108
1151.947
1140.681
1182.427
1181.382
1180.273
1179.096
1177.845
1176.487
1175.01
1173.445
1171.796
1170.058
1168.217
1166.255
1164.172
1162.104
1160.67
1159.199
1150.023
1183.413
1182.431
1181.389
1180.285
1179.118
1177.89
1176.573
1175.17
1173.675
1172.081
1170.378
1168.556
1166.601
1164.497
1162.225
1160.72
1159.444
1155.958
1184.339
1183.417
1182.438
1181.402
1180.308
1179.15
1177.912
1176.596
1175.196
1173.705
1172.116
1170.418
1168.601
1166.651
1164.55
1162.936
1161.971
1160.911
1159.108
1185.209
1184.343
1183.424
1182.451
1181.423
1180.334
1179.17
1177.934
1176.62
1175.223
1173.736
1172.15
1170.456
1168.641
1166.692
1165.129
1164.147
1163.285
1162.504
1161.581
1186.025
1185.213
1184.35
1183.436
1182.471
1181.445
1180.351
1179.189
1177.955
1176.644
1175.25
1173.766
1172.182
1170.49
1168.677
1167.189
1166.197
1165.331
1164.635
1164.121
1162.9
1186.79
1186.028
1185.219
1184.361
1183.454
1182.49
1181.46
1180.368
1179.208
1177.976
1176.668
1175.277
1173.795
1172.214
1170.524
1169.115
1168.132
1167.253
1166.527
1166.008
1164.977
1163.157
1161.657
1159.257
1156.901
1154.893
1163.977
1161.662
1159.255
1156.846
1154.658
1166.161
1163.984
1161.672
1159.252
1156.776
1154.414
1168.197
1166.167
1163.996
1161.686
1159.25
1156.707
1154.167
1170.091
1168.202
1166.177
1164.01
1161.701
1159.257
1156.634
1153.827
1171.853
1170.094
1168.209
1166.188
1164.017
1161.418
1157.367
1149.273
1118.188
1173.496
1171.856
1170.1
1168.216
1166.189
1163.566
1159.155
1150.232
1128.769
1064.433
1175.031
1173.498
1171.86
1170.104
1168.215
1165.761
1161.939
1155.143
1140.251
1106.368
1025.778
1176.467
1175.032
1173.502
1171.863
1170.103
1167.838
1164.64
1159.805
1150.684
1131.152
1090.917
1008.492
1177.813
1176.469
1175.036
1173.505
1171.864
1169.774
1167.039
1163.53
1158.03
1147.773
1127.336
1089.411
1016.551
1179.076
1177.815
1176.472
1175.04
1173.507
1171.581
1169.186
1166.452
1162.937
1157.526
1148.069
1131.037
1102.783
1048.073
1180.263
1179.078
1177.819
1176.477
1175.044
1173.279
1171.157
1168.889
1166.355
1163.205
1158.685
1151.635
1140.616
1125.241
1097.135
1181.378
1180.265
1179.083
1177.826
1176.484
1174.88
1173.009
1171.059
1169.023
1166.823
1164.273
1161.04
1156.837
1151.767
1147.915
1135.014
1182.427
1181.381
1180.271
1179.091
1177.836
1176.394
1174.77
1173.077
1171.331
1169.532
1167.653
1165.655
1163.517
1161.469
1160.435
1158.367
1144.411
1183.412
1182.43
1181.387
1180.281
1179.106
1177.831
1176.446
1174.982
1173.446
1171.839
1170.16
1168.41
1166.615
1164.896
1163.789
1163.27
1160.146
1152.369
1184.339
1183.416
1182.436
1181.399
1180.301
1179.148
1177.911
1176.595
1175.195
1173.704
1172.115
1170.419
1168.604
1166.659
1164.569
1163.231
1162.384
1160.998
1157.654
1185.209
1184.342
1183.423
1182.449
1181.42
1180.331
1179.168
1177.932
1176.619
1175.223
1173.736
1172.151
1170.459
1168.648
1166.704
1165.198
1164.294
1163.436
1162.492
1160.87
1186.025
1185.212
1184.349
1183.435
1182.469
1181.444
1180.349
1179.188
1177.954
1176.644
1175.25
1173.767
1172.185
1170.495
1168.684
1167.215
1166.255
1165.41
1164.703
1164.1
1162.538
1186.79
1186.028
1185.219
1184.361
1183.453
1182.489
1181.46
1180.367
1179.208
1177.976
1176.668
1175.277
1173.796
1172.216
1170.527
1169.125
1168.154
1167.285
1166.564
1166.037
1164.967
1163.002
1187.505
1186.793
1186.035
1185.23
1184.378
1183.471
1182.503
1181.476
1180.385
1179.228
1177.999
1176.693
1175.304
1173.825
1172.246
1170.918
1169.959
1169.081
1168.326
1167.747
1166.745
1165.068
1163.26
1163.978
1161.663
1159.256
1156.849
1154.674
1166.163
1163.986
1161.675
1159.257
1156.784
1154.467
1168.199
1166.169
1164
1161.693
1159.26
1156.725
1154.273
1170.093
1168.204
1166.182
1164.02
1161.717
1159.268
1156.667
1154.014
1171.855
1170.097
1168.214
1166.198
1164.043
1161.754
1159.266
1156.587
1153.678
1173.498
1171.858
1170.104
1168.225
1166.207
1163.904
1160.891
1156.258
1147.244
1116.173
1175.032
1173.5
1171.863
1170.111
1168.227
1165.936
1162.74
1157.67
1147.589
1125.289
1063.323
1176.468
1175.034
1173.504
1171.867
1170.11
1167.925
1164.987
1160.77
1153.275
1137.782
1105.616
1031.542
1177.813
1176.469
1175.037
1173.507
1171.867
1169.809
1167.161
1163.818
1158.71
1149.41
1131.06
1096.649
1026.06
1179.076
1177.815
1176.472
1175.04
1173.507
1171.581
1169.186
1166.452
1162.937
1157.526
1148.069
1131.037
1102.783
1048.073
1180.262
1179.078
1177.818
1176.476
1175.042
1173.252
1171.078
1168.749
1166.129
1162.817
1157.955
1150.228
1138.076
1121.415
1093.527
1181.377
1180.264
1179.082
1177.823
1176.48
1174.83
1172.869
1170.83
1168.704
1166.386
1163.624
1159.974
1155.044
1148.982
1144.698
1131.205
1182.426
1181.38
1180.269
1179.088
1177.829
1176.326
1174.581
1172.781
1170.952
1169.092
1167.157
1165.07
1162.761
1160.484
1159.435
1156.973
1139.71
1183.412
1182.429
1181.385
1180.277
1179.097
1177.745
1176.222
1174.643
1173.028
1171.393
1169.75
1168.111
1166.528
1165.186
1164.724
1163.938
1159.567
1147.969
1184.338
1183.415
1182.434
1181.394
1180.29
1179.092
1177.792
1176.42
1174.983
1173.486
1171.932
1170.331
1168.713
1167.191
1166.216
1165.94
1164.014
1161.305
1154.829
1185.208
1184.341
1183.421
1182.445
1181.414
1180.329
1179.167
1177.931
1176.618
1175.222
1173.736
1172.152
1170.462
1168.656
1166.723
1165.484
1164.767
1163.851
1162.517
1159.559
1186.024
1185.211
1184.348
1183.432
1182.465
1181.442
1180.348
1179.187
1177.954
1176.643
1175.25
1173.768
1172.188
1170.502
1168.696
1167.28
1166.403
1165.599
1164.858
1164.069
1161.848
1186.789
1186.028
1185.218
1184.359
1183.451
1182.488
1181.459
1180.366
1179.207
1177.976
1176.669
1175.278
1173.799
1172.221
1170.534
1169.149
1168.21
1167.367
1166.656
1166.107
1164.945
1162.641
1187.505
1186.792
1186.034
1185.229
1184.377
1183.471
1182.503
1181.475
1180.385
1179.228
1177.999
1176.694
1175.305
1173.827
1172.249
1170.926
1169.98
1169.112
1168.365
1167.788
1166.775
1165.058
1163.105
1188.173
1187.508
1186.799
1186.044
1185.245
1184.394
1183.484
1182.518
1181.492
1180.404
1179.248
1178.022
1176.718
1175.332
1173.854
1172.599
1171.67
1170.8
1170.025
1169.393
1168.388
1166.824
1165.159
1163.363
1166.163
1163.986
1161.677
1159.259
1156.788
1154.493
1168.2
1166.171
1164.003
1161.698
1159.267
1156.738
1154.343
1170.094
1168.206
1166.186
1164.027
1161.728
1159.277
1156.693
1154.145
1171.856
1170.099
1168.219
1166.207
1164.059
1161.762
1159.28
1156.633
1153.89
1173.499
1171.86
1170.108
1168.234
1166.232
1164.105
1161.786
1159.278
1156.554
1153.576
1175.033
1173.502
1171.867
1170.118
1168.243
1166.154
1163.658
1160.424
1155.41
1146.1
1115.776
1176.469
1175.035
1173.506
1171.873
1170.12
1168.05
1165.462
1162.035
1156.56
1146.131
1124.857
1066.914
1177.814
1176.47
1175.039
1173.51
1171.873
1169.878
1167.396
1164.356
1159.951
1152.344
1137.755
1110.038
1045.415
1179.076
1177.815
1176.473
1175.042
1173.51
1171.611
1169.28
1166.638
1163.299
1158.282
1149.697
1134.351
1108.551
1054.824
1180.262
1179.078
1177.818
1176.476
1175.042
1173.252
1171.078
1168.749
1166.129
1162.817
1157.955
1150.228
1138.076
1121.415
1093.527
1181.377
1180.264
1179.081
1177.822
1176.477
1174.806
1172.798
1170.713
1168.538
1166.152
1163.267
1159.373
1154.02
1147.407
1142.934
1129.301
1182.425
1181.379
1180.268
1179.085
1177.825
1176.28
1174.452
1172.577
1170.686
1168.775
1166.783
1164.593
1162.088
1159.54
1158.408
1155.723
1136.469
1183.411
1182.428
1181.383
1180.273
1179.091
1177.681
1176.047
1174.37
1172.688
1171.025
1169.399
1167.818
1166.326
1165.099
1164.838
1163.927
1158.509
1144.141
1184.337
1183.413
1182.432
1181.391
1180.282
1179.012
1177.583
1176.103
1174.597
1173.085
1171.591
1170.151
1168.829
1167.798
1167.495
1167.043
1164.648
1160.859
1151.413
1185.207
1184.34
1183.419
1182.441
1181.403
1180.277
1179.055
1177.767
1176.42
1175.019
1173.571
1172.085
1170.595
1169.201
1168.295
1168.062
1166.564
1164.919
1162.593
1157.369
1186.024
1185.21
1184.346
1183.429
1182.459
1181.44
1180.347
1179.186
1177.952
1176.642
1175.25
1173.769
1172.191
1170.509
1168.714
1167.546
1166.866
1166.088
1165.211
1164.029
1160.635
1186.789
1186.027
1185.217
1184.357
1183.448
1182.486
1181.457
1180.365
1179.206
1177.976
1176.669
1175.28
1173.802
1172.227
1170.545
1169.21
1168.35
1167.558
1166.854
1166.248
1164.903
1161.954
1187.505
1186.792
1186.033
1185.228
1184.375
1183.469
1182.502
1181.475
1180.384
1179.227
1177.999
1176.695
1175.308
1173.831
1172.255
1170.949
1170.032
1169.191
1168.46
1167.883
1166.843
1165.035
1162.744
1188.173
1187.508
1186.798
1186.044
1185.244
1184.393
1183.483
1182.517
1181.492
1180.403
1179.248
1178.022
1176.719
1175.333
1173.857
1172.608
1171.689
1170.829
1170.063
1169.436
1168.429
1166.854
1165.149
1163.208
1188.795
1188.176
1187.513
1186.808
1186.059
1185.26
1184.406
1183.498
1182.533
1181.509
1180.423
1179.27
1178.045
1176.743
1175.358
1174.173
1173.274
1172.418
1171.635
1170.963
1169.953
1168.457
1166.903
1165.249
1163.466
1168.201
1166.172
1164.004
1161.7
1159.27
1156.745
1154.377
1170.095
1168.208
1166.188
1164.031
1161.734
1159.284
1156.711
1154.23
1171.858
1170.101
1168.222
1166.213
1164.069
1161.769
1159.292
1156.667
1154.04
1173.5
1171.862
1170.112
1168.242
1166.246
1164.111
1161.794
1159.297
1156.611
1153.802
1175.034
1173.504
1171.871
1170.127
1168.266
1166.292
1164.143
1161.819
1159.297
1156.543
1153.521
1176.47
1175.037
1173.51
1171.88
1170.135
1168.213
1166.025
1163.451
1160.087
1154.96
1145.974
1116.972
1177.815
1176.472
1175.041
1173.515
1171.882
1169.979
1167.727
1165.083
1161.555
1156.031
1146.158
1127.599
1075.74
1179.077
1177.816
1176.475
1175.045
1173.515
1171.671
1169.463
1166.993
1163.97
1159.652
1152.604
1140.303
1119.25
1068.762
1180.263
1179.078
1177.819
1176.477
1175.044
1173.279
1171.157
1168.889
1166.355
1163.205
1158.685
1151.635
1140.616
1125.241
1097.135
1181.377
1180.264
1179.081
1177.822
1176.477
1174.806
1172.798
1170.713
1168.538
1166.152
1163.267
1159.373
1154.02
1147.407
1142.934
1129.301
1182.425
1181.379
1180.267
1179.084
1177.823
1176.257
1174.387
1172.472
1170.548
1168.609
1166.58
1164.324
1161.693
1158.973
1157.787
1155.007
1134.831
1183.41
1182.427
1181.382
1180.271
1179.087
1177.638
1175.927
1174.182
1172.451
1170.765
1169.141
1167.579
1166.103
1164.88
1164.686
1163.711
1157.53
1141.441
1184.337
1183.413
1182.431
1181.387
1180.276
1178.951
1177.418
1175.85
1174.284
1172.757
1171.306
1169.974
1168.832
1168.043
1167.995
1167.504
1164.731
1160.052
1148.364
1185.207
1184.339
1183.417
1182.438
1181.396
1180.201
1178.859
1177.471
1176.06
1174.649
1173.266
1171.95
1170.772
1169.88
1169.619
1169.245
1167.544
1165.449
1162.221
1154.779
1186.023
1185.209
1184.344
1183.425
1182.449
1181.391
1180.242
1179.032
1177.767
1176.453
1175.097
1173.71
1172.322
1171.025
1170.162
1169.913
1168.6
1167.317
1165.91
1163.957
1158.738
1186.788
1186.026
1185.215
1184.354
1183.442
1182.484
1181.456
1180.364
1179.205
1177.975
1176.668
1175.28
1173.804
1172.234
1170.56
1169.452
1168.782
1168.043
1167.289
1166.516
1164.832
1160.751
1187.504
1186.791
1186.032
1185.226
1184.372
1183.468
1182.5
1181.474
1180.384
1179.227
1177.999
1176.696
1175.31
1173.836
1172.265
1171.004
1170.163
1169.373
1168.664
1168.071
1166.971
1164.992
1162.06
1188.172
1187.507
1186.797
1186.043
1185.242
1184.392
1183.483
1182.517
1181.491
1180.403
1179.249
1178.023
1176.721
1175.337
1173.862
1172.628
1171.738
1170.903
1170.155
1169.536
1168.524
1166.922
1165.126
1162.848
1188.795
1188.175
1187.513
1186.807
1186.058
1185.26
1184.405
1183.497
1182.533
1181.509
1180.423
1179.27
1178.046
1176.745
1175.361
1174.181
1173.292
1172.446
1171.671
1171.005
1169.996
1168.498
1166.933
1165.24
1163.312
1189.373
1188.797
1188.181
1187.523
1186.822
1186.074
1185.272
1184.419
1183.512
1182.549
1181.527
1180.443
1179.291
1178.068
1176.767
1175.648
1174.782
1173.946
1173.163
1172.465
1171.455
1170.013
1168.526
1166.982
1165.34
1163.563
1170.096
1168.209
1166.19
1164.033
1161.737
1159.288
1156.719
1154.271
1171.859
1170.102
1168.224
1166.217
1164.075
1161.775
1159.3
1156.69
1154.135
1173.502
1171.864
1170.115
1168.248
1166.255
1164.117
1161.801
1159.311
1156.652
1153.962
1175.036
1173.506
1171.874
1170.134
1168.279
1166.297
1164.148
1161.829
1159.32
1156.606
1153.75
1176.471
1175.039
1173.513
1171.887
1170.156
1168.322
1166.33
1164.181
1161.857
1159.326
1156.556
1153.512
1177.816
1176.473
1175.044
1173.522
1171.895