/*--------------------------------*- C++ -*----------------------------------*\
| =========                 |                                                 |
| \\      /  F ield         | OpenFOAM: The Open Source CFD Toolbox           |
|  \\    /   O peration     | Version:  2306                                  |
|   \\  /    A nd           | Website:  www.openfoam.com                      |
|    \\/     M anipulation  |                                                 |
\*---------------------------------------------------------------------------*/
FoamFile
{
    version     2.0;
    format      ascii;
    arch        "LSB;label=32;scalar=64";
    class       volVectorField;
    location    "0.6/phiEA";
    object      i;
}
// * * * * * * * * * * * * * * * * * * * * * * * * * * * * * * * * * * * * * //

dimensions      [0 -2 0 0 0 1 0];

internalField   nonuniform List<vector> 
20000
(
(-611.3399 2420.467 2061)
(-640.3418 7781.84 2097.243)
(-1236.972 2130.448 1879.128)
(-610.6125 2419.018 6091.074)
(-703.5841 14719.07 2170.328)
(-1287.928 6859.399 1907.884)
(-639.5844 7777.467 6198.587)
(-1170.033 1910.908 1720.747)
(-1235.611 2129.298 5558.155)
(-609.2083 2416.167 9964.328)
(-811.5171 23978.09 2267.237)
(-1399.406 13007.32 1965.512)
(-702.7648 14712.27 6415.403)
(-1208.407 6157.507 1745.36)
(-1286.521 6855.944 5643.689)
(-638.1222 7768.867 10141.09)
(-1008.806 1746.717 1592.925)
(-1168.889 1909.923 5093.41)
(-1232.982 2127.027 9101.569)
(-607.1614 2411.947 13732.61)
(-976.1606 34228.67 2315.911)
(-1590.594 21252.33 2039.549)
(-810.6063 23972.27 6702.515)
(-1292.845 11692.41 1794.612)
(-1397.903 13002.05 5815.15)
(-701.183 14698.91 10497.62)
(-1038.183 5631.28 1614.786)
(-1207.234 6154.553 5166.726)
(-1283.801 6849.119 9242.651)
(-635.9907 7756.135 13977.36)
(-864.0697 1617.131 1486.764)
(-1007.87 1745.842 4717.941)
(-1166.672 1907.975 8347.965)
(-1229.146 2123.655 12553.32)
(-604.4911 2406.377 16137.24)
(-1192.813 38902.62 2167.285)
(-1883.861 30415.71 2064.559)
(-975.1552 34232.67 6843.891)
(-1438.908 19133.54 1857.074)
(-1588.953 21248.37 6035.275)
(-808.8481 23960.95 10969.12)
(-1103.019 10702.3 1658.509)
(-1291.617 11687.95 5313.481)
(-1394.998 12991.65 9525.585)
(-698.8767 14679.15 14471.21)
(-887.7481 5215.377 1506.59)
(-1037.228 5628.656 4783.12)
(-1204.964 6148.705 8469.099)
(-1279.833 6838.983 12749.17)
(-633.2095 7739.323 16425.99)
(-748.3092 1509.933 1395.823)
(-863.2813 1616.338 4405.83)
(-1006.055 1744.11 7738.389)
(-1163.436 1905.078 11522.14)
(-1224.14 2119.193 14759.1)
(-825.1184 3291.973 21209.54)
(-1404.85 35029.76 2083.697)
(-2271.64 34615.72 1908.242)
(-1191.777 38911.91 6392.31)
(-1665.08 27418.21 1873.414)
(-1882.091 30420.96 6107.967)
(-973.2169 34241.08 11195.9)
(-1215.642 17529.98 1713.545)
(-1437.604 19130.39 5499.516)
(-1585.782 21240.61 9888.615)
(-806.2843 23944.34 15123.95)
(-940.0985 9917.829 1546.241)
(-1102.025 10698.35 4913.522)
(-1289.239 11679.1 8711.69)
(-1390.759 12976.21 13142.14)
(-695.8667 14653.05 17008.9)
(-768.1782 4870.992 1414.041)
(-886.9451 5212.998 4464.982)
(-1035.376 5623.457 7846.196)
(-1201.648 6140.004 11690.51)
(-1274.654 6825.567 14990.53)
(-864.3412 10589.17 21615.82)
(-657.1404 1418.442 1316.274)
(-747.6273 1509.204 4138.262)
(-861.751 1614.765 7231.157)
(-1003.402 1741.53 10687.33)
(-1159.208 1901.24 13553.47)
(-1671.512 2899.745 19400.71)
(-821.7811 3283.923 19674.78)
(-1577.412 26582.61 2058.195)
(-2652.026 31183.77 1814.275)
(-1403.773 35034.12 6137.493)
(-1966.503 31220.97 1724.469)
(-2269.869 34625.73 5636.128)
(-1189.789 38930.87 10431.52)
(-1390.789 25139.76 1725.356)
(-1663.723 27423.51 5547.02)
(-1878.673 30431.67 10005.38)
(-970.3931 34254.17 15432.63)
(-1031.262 16255.84 1595.9)
(-1214.597 17527.31 5077.617)
(-1435.077 19124.2 9019.146)
(-1581.153 21229.17 13646.39)
(-802.9379 23922.5 17779.56)
(-812.1622 9267.165 1450.479)
(-939.2663 9914.257 4583.317)
(-1100.098 10690.52 8061.998)
(-1285.763 11665.94 12027.91)
(-1385.225 12955.76 15455.19)
(-949.9362 20057.15 22436.9)
(-674.28 4576.847 1333.17)
(-767.4845 4868.806 4192.643)
(-885.3862 5208.277 7329.075)
(-1032.668 5615.712 10837.31)
(-1197.317 6128.473 13752.62)
(-1740.534 9340.991 19729.5)
(-860.8563 10564.83 20105.69)
(-584.8366 1338.537 1245.537)
(-656.5393 1417.766 3904.051)
(-746.3021 1507.757 6795.919)
(-859.5114 1612.422 9992.159)
(-999.9354 1738.11 12577.02)
(-1583.599 2601.753 17817.66)
(-1665.253 2893.17 17993.68)
(-818.394 3274.737 19930.57)
(-1696.21 16340.77 2054.366)
(-2962.151 23669.02 1778.545)
(-1576.294 26583.78 6058.471)
(-2263.087 28124.65 1633.518)
(-2650.225 31188.95 5352.519)
(-1401.711 35043.11 9998.909)
(-1624.952 28635.66 1584.775)
(-1965.209 31230.57 5098.247)
(-2266.464 34645.94 9212.704)
(-1186.902 38959.79 14348.49)
(-1173.397 23325.1 1604.913)
(-1389.715 25144.91 5111.959)
(-1661.096 27434.26 9095.525)
(-1873.689 30448 13805.64)
(-966.709 34272.1 18140.78)
(-888.8924 15196.99 1495.949)
(-1030.391 16253.49 4731.499)
(-1212.57 17522.04 8333.558)
(-1431.384 19115.04 12455.69)
(-1575.109 21214.07 16051.87)
(-1096.284 32775.86 23517.3)
(-712.2603 8710.687 1366.971)
(-811.4452 9263.889 4301.448)
(-937.6502 9907.169 7525.069)
(-1097.279 10678.86 11137.72)
(-1281.221 11648.49 14151.94)
(-1891.654 17737.72 20390.88)
(-946.1474 20019.55 20977.98)
(-599.9224 4319.793 1261.313)
(-673.6691 4574.819 3954.506)
(-766.1363 4864.465 6885.997)
(-883.1043 5201.241 10128.47)
(-1029.128 5605.441 12754.52)
(-1635.709 8387.746 18101.89)
(-1734.041 9321.17 18348.13)
(-857.311 10537.04 20418.2)
(-526.4368 1267.584 1181.884)
(-584.299 1337.906 3695.647)
(-655.37 1416.424 6414.617)
(-744.3611 1505.601 9395.239)
(-856.5826 1609.313 11763.54)
(-1366.276 2378.647 16535.67)
(-1578.312 2596.046 16521.4)
(-1658.899 2885.567 18224.65)
(-814.9574 3264.417 20185.6)
(-1756.321 5493.578 2055.092)
(-3175.982 14551.69 1767.513)
(-1695.062 16340.9 6045.57)
(-2505.386 21343.04 1597.249)
(-2960.307 23670.89 5244.425)
(-1574.156 26586.28 9862.38)
(-1855.4 25794.94 1498.375)
(-2261.823 28129.74 4824.4)
(-2646.773 31199.43 8736.616)
(-1398.724 35056.89 13734.41)
(-1363.769 26574.86 1472.08)
(-1623.943 28644.74 4688.756)
(-1962.713 31249.87 8343.2)
(-2261.516 34676.48 12687.64)
(-1183.145 38998.8 16838.71)
(-1008.74 21814.68 1503.057)
(-1172.508 23330.05 4757.707)
(-1387.632 25155.31 8388.818)
(-1657.257 27450.55 12560.07)
(-1867.183 30470.02 16238.73)
(-1320.391 47028.76 23977.81)
(-778.6093 14290.06 1409.035)
(-888.1449 15194.89 4437.212)
(-1028.7 16248.86 7770.529)
(-1209.603 17514.23 11515.96)
(-1426.556 19102.92 14658.72)
(-2151.319 29071.31 21238.04)
(-1092.055 32746.36 22115.63)
(-633.3789 8223.872 1292.882)
(-711.63 8707.652 4055.48)
(-810.0509 9257.382 7066.321)
(-935.2836 9896.599 10401.49)
(-1093.592 10663.37 13110.29)
(-1750.469 15949.3 18673.03)
(-1884.681 17707.56 19063.16)
(-942.2769 19976.75 21406.82)
(-539.912 4091.423 1196.691)
(-599.3765 4317.899 3742.775)
(-672.4805 4570.789 6498.236)
(-764.1611 4857.99 9520.703)
(-880.1198 5191.904 11924.93)
(-1406.204 7672.294 16789.75)
(-1630.275 8370.549 16830.12)
(-1727.432 9298.212 18630.51)
(-853.7055 10505.78 20729.94)
(-478.3649 1203.785 1124.07)
(-525.9509 1266.991 3508.003)
(-583.2524 1336.652 6075.064)
(-653.6559 1414.421 8871.944)
(-741.8212 1502.739 11064.71)
(-1170.462 2202.467 15467.79)
(-1361.94 2373.531 15329.75)
(-1572.943 2589.405 16729.69)
(-1652.449 2876.936 18454.97)
(-811.4715 3252.964 29788.27)
(-1756.321 -5493.578 2055.092)
(-3284.296 4892.467 1764.683)
(-1755.159 5493.549 6047.116)
(-2672.734 13119.33 1584.919)
(-3174.104 14552.25 5210.883)
(-1692.871 16341.23 9838.168)
(-2043.559 19572.55 1463.234)
(-2504.124 21344.99 4715.151)
(-2956.778 23674.68 8554.733)
(-1571.063 26590.21 13538.35)
(-1551.102 23938.58 1390.165)
(-1854.427 25799.8 4428.884)
(-2259.392 28139.97 7884.781)
(-2641.768 31215.27 12017.35)
(-1394.842 35075.52 16102.17)
(-1169.465 24858.61 1377.233)
(-1362.939 26583.45 4358.033)
(-1621.991 28662.98 7680.087)
(-1959.079 31279 11500.71)
(-2255.073 34717.47 14900.74)
(-1617.12 53542.4 21960)
(-882.3869 20519.37 1414.777)
(-1007.98 21819.43 4457.879)
(-1170.781 23340.04 7812.731)
(-1384.584 25171.05 11591.63)
(-1652.24 27472.46 14781.54)
(-2551.203 41820.4 21474.36)
(-1315.758 47064.03 22515.09)
(-691.8897 13495.73 1332.085)
(-777.9538 14288.15 4181.134)
(-886.6909 15190.73 7291.378)
(-1026.223 16241.98 10743.65)
(-1205.721 17503.89 13558.73)
(-1949.364 26180.37 19396.78)
(-2143.667 29050.25 19974.64)
(-1087.72 32714.37 22689.1)
(-569.8166 7791.015 1226.331)
(-632.8164 8221.041 3837.116)
(-710.403 8701.622 6665.667)
(-808.0076 9247.673 9772.024)
(-932.1874 9882.562 12248.42)
(-1494.397 14601.17 17300.14)
(-1744.74 15923.28 17452.48)
(-1877.552 17672.66 19451.17)
(-938.3249 19928.71 21835.22)
(-490.5372 3885.995 1138.024)
(-539.4189 4089.645 3552.249)
(-598.3134 4314.134 6153.202)
(-670.7379 4564.777 8988.46)
(-761.5762 4849.393 11213.32)
(-1202.66 7106.531 15699.31)
(-1401.765 7656.883 15607.01)
(-1624.744 8350.503 17085.06)
(-1720.708 9272.109 18912.21)
(-850.0401 10471.06 30675.36)
(-438.079 1145.86 1071.165)
(-477.922 1203.226 3337.472)
(-525.0041 1265.814 5769.105)
(-581.717 1334.78 8405.646)
(-651.4116 1411.763 10451.8)
(-1013.642 2056.672 14550.47)
(-1166.801 2197.797 14337.76)
(-1357.541 2367.556 15520.26)
(-1567.494 2581.831 16937.4)
(-1645.906 2867.277 27229.63)
(-387.1769 1560.4 20707.91)
(-1696.21 -16340.77 2054.366)
(-3284.296 -4892.467 1764.683)
(-1755.159 -5493.549 6047.116)
(-2757.601 4410.438 1581.265)
(-3282.401 4892.581 5202.212)
(-1752.941 5493.516 9839.538)
(-2173.431 12029.54 1450.847)
(-2671.467 13119.97 4677.982)
(-3170.512 14553.38 8497.978)
(-1689.701 16341.81 13501.7)
(-1703.964 18162.74 1356.495)
(-2042.596 19574.45 4323.21)
(-2501.701 21348.9 7701.871)
(-2951.665 23680.43 11760.97)
(-1567.047 26595.59 15865.62)
(-1327.619 22392.99 1299.484)
(-1550.307 23943.21 4111.798)
(-1852.55 25809.56 7245.606)
(-2255.859 28155.39 10856.65)
(-2635.262 31236.5 14100.67)
(-1907.27 48131.4 20810.66)
(-1021.699 23386.07 1295.31)
(-1168.758 24866.75 4079.427)
(-1361.332 26600.69 7143.82)
(-1619.145 28690.46 10594.47)
(-1954.341 31318.01 13515.12)
(-3083.275 47673.61 19444.65)
(-1612.538 53610.76 20039.6)
(-783.5083 19383.78 1336.808)
(-881.7219 20523.92 4197.829)
(-1006.501 21828.99 7324.682)
(-1168.252 23355.12 10801.55)
(-1380.598 25192.17 13648.04)
(-2258.598 37709.2 19550.75)
(-2543 41859.2 20175.34)
(-1311.032 47111.8 23071)
(-622.1625 12788.76 1263.074)
(-691.3058 13493.97 3954.271)
(-776.6775 14284.36 6874.09)
(-884.5592 15184.55 10085.94)
(-1022.98 16232.86 12654.31)
(-1647.888 23990.02 17942.92)
(-1943.239 26163.17 18238.69)
(-2135.811 29026.83 20494.87)
(-1083.278 32679.79 23264.04)
(-517.5655 7401.367 1165.968)
(-569.3089 7788.359 3640.85)
(-631.7204 8215.412 6309.702)
(-708.6035 8692.618 9221.91)
(-805.3326 9234.773 11511.21)
(-1273.903 13532.47 16164.39)
(-1489.749 14577.93 16165.86)
(-1738.879 15892.96 17803.34)
(-1870.268 17632.99 19838.83)
(-934.2914 19875.39 32479.94)
(-449.1719 3699.417 1084.36)
(-490.0879 3884.319 3379.183)
(-538.4577 4086.109 5842.492)
(-596.7535 4308.514 8514.564)
(-668.456 4556.791 10589.85)
(-1040.669 6637.892 14764.01)
(-1198.918 7092.461 14591.26)
(-1397.249 7638.849 15840.45)
(-1619.115 8327.603 17339.4)
(-1713.87 9242.857 27981.1)
(-405.4631 5034.946 21463.72)
(-403.7692 1092.855 1022.451)
(-437.6725 1145.332 3181.338)
(-477.0582 1202.116 5490.855)
(-523.6141 1264.056 7985.227)
(-579.7055 1332.295 9905.404)
(-890.0827 1932.205 13745.93)
(-1010.467 2052.358 13486.09)
(-1163.088 2192.327 14514.06)
(-1353.078 2360.723 15710.24)
(-1561.964 2573.324 24984.38)
(-788.1051 1377.539 18922.37)
(-349.4985 1378.224 22321.32)
(-1577.412 -26582.61 2058.195)
(-3175.982 -14551.69 1767.513)
(-1695.062 -16340.9 6045.57)
(-2757.601 -4410.438 1581.265)
(-3282.401 -4892.581 5202.212)
(-1752.941 -5493.516 9839.538)
(-2239.264 4043.79 1447.003)
(-2756.331 4410.584 4666.961)
(-3278.775 4892.814 8483.178)
(-1749.734 5493.494 13502.39)
(-1809.407 11162.28 1344.407)
(-2172.469 12030.19 4285.974)
(-2669.034 13121.25 7639.592)
(-3165.31 14555.11 11680.66)
(-1685.587 16342.67 15820.13)
(-1456.622 16989.5 1267.319)
(-1703.18 18164.57 4010.635)
(-2040.741 19578.26 7069.029)
(-2498.182 21354.8 10599.78)
(-2945.024 23688.15 13794.65)
(-2143.24 36482.05 20425.76)
(-1158.79 21067.02 1221.394)
(-1326.944 22397.39 3845.804)
(-1548.77 23952.48 6732.429)
(-1849.818 25824.24 9984.629)
(-2251.261 28176.01 12747.41)
(-3604.593 42870.19 18233.92)
(-1902.62 48164.93 18614.93)
(-906.5955 22094.58 1223.136)
(-1021.083 23393.8 3838.585)
(-1167.387 24883.09 6691.553)
(-1358.985 26626.66 9860.878)
(-1615.432 28727.26 12456.63)
(-2673.329 43008.5 17641.51)
(-3075.398 47742.15 17758.23)
(-1607.995 53698.4 19985.63)
(-704.2014 18372.31 1267.012)
(-782.9173 19388.14 3967.999)
(-880.4274 20533.07 6901.014)
(-1004.333 21843.42 10131.72)
(-1164.941 23375.35 12722.87)
(-1887.565 34580.75 18053.9)
(-2252.247 37746.72 18366.27)
(-2534.608 41909.06 20683.78)
(-1306.21 47172.16 23632.5)
(-564.9126 12151.88 1200.559)
(-621.6364 12787.14 3750.691)
(-690.1679 13490.49 6504.121)
(-774.8048 14278.73 9512.763)
(-881.7674 15176.35 11883.76)
(-1398.202 22248.69 16747.74)
(-1642.965 23975.18 16868.24)
(-1936.938 26143.82 18709.8)
(-2127.75 29000.94 21016.47)
(-1078.729 32642.48 34808.67)
(-473.8153 7047.261 1110.793)
(-517.1033 7398.866 3462.733)
(-568.319 7783.077 5989.522)
(-630.1118 8207.005 8732.849)
(-706.2463 8680.65 10866.64)
(-1100.545 12645.74 15193.03)
(-1270 13511.29 15102.27)
(-1484.996 14550.72 16487.62)
(-1732.886 15858.29 18153.89)
(-1862.827 17588.49 29507.71)
(-445.5432 9629.676 23020.54)
(-413.951 3528.632 1034.963)
(-448.7597 3697.832 3220.789)
(-489.2114 3880.985 5560.058)
(-537.0463 4080.828 8087.554)
(-594.7098 4301.046 10034.49)
(-913.4024 6237.508 13944.57)
(-1037.428 6624.894 13720.51)
(-1195.114 7075.951 14807.51)
(-1392.655 7618.189 16073.36)
(-1613.389 8301.843 25647.52)
(-820.4341 4451.283 19572.15)
(-365.3583 4474.589 23367.53)
(-374.1394 1044.042 977.3675)
(-403.394 1092.355 3037.5)
(-436.8791 1144.282 5235.925)
(-475.7893 1200.458 7602.661)
(-521.7922 1261.721 9412.552)
(-792.0823 1823.475 13028.66)
(-887.2772 1928.187 12739.41)
(-1007.249 2047.295 13650.62)
(-1159.323 2186.059 14689.89)
(-1348.551 2353.032 23169.74)
(-751.53 1237.11 17352.69)
(-717.2557 1219.626 20387.21)
(-309.8126 1141.914 23303)
(-1404.85 -35029.76 2083.697)
(-2962.151 -23669.02 1778.545)
(-1576.294 -26583.78 6058.471)
(-2672.734 -13119.33 1584.919)
(-3174.104 -14552.25 5210.883)
(-1692.871 -16341.23 9838.168)
(-2239.264 -4043.79 1447.003)
(-2756.331 -4410.584 4666.961)
(-3278.775 -4892.814 8483.178)
(-1749.734 -5493.494 13502.39)
(-1862.834 3752.105 1340.574)
(-2238.301 4043.944 4274.43)
(-2753.89 4410.879 7621.115)
(-3273.527 4893.172 11659.59)
(-1745.57 5493.488 15820.1)
(-1545.57 10440.84 1255.645)
(-1808.626 11162.91 3974.344)
(-2170.616 12031.49 7006.842)
(-2665.502 13123.2 10512.29)
(-3158.554 14557.44 13698.6)
(-2305.667 22414.13 20339.51)
(-1270.587 15983.23 1190.685)
(-1455.959 16991.25 3749.211)
(-1701.668 18168.24 6563.562)
(-2038.043 19584 9737.028)
(-2493.605 21362.68 12441.52)
(-4029.214 32498.08 17767.75)
(-2138.461 36492.8 18111.54)
(-1027.728 19904.12 1152.747)
(-1158.203 21071.2 3616.54)
(-1325.638 22406.2 6301.413)
(-1546.53 23966.42 9283.775)
(-1846.258 25843.86 11730.19)
(-3080.746 38672 16489.19)
(-3596.788 42905.71 16319.98)
(-1898.09 48208.52 18203.39)
(-814.4892 20943.87 1158.655)
(-906.0488 22101.94 3626.246)
(-1019.887 23409.32 6300.201)
(-1165.384 24907.68 9241.678)
(-1355.921 26661.41 11599.36)
(-2210.033 39452.13 16263.35)
(-2667.514 43072.88 16112.73)
(-3067.568 47827.82 17723.76)
(-1603.49 53805.46 19929.61)
(-639.1724 17460.51 1203.878)
(-703.6697 18376.49 3762.136)
(-781.7656 19396.9 6526.278)
(-878.5283 20546.88 9549.863)
(-1001.494 21862.76 11938.17)
(-1592.794 32087.75 16832.19)
(-1882.517 34616.45 16957.87)
(-2245.728 37794.24 18827.41)
(-2526.025 41970.04 21197.24)
(-1301.291 47245.18 35330.71)
(-517.0124 11572.7 1143.475)
(-564.4342 12150.36 3566.169)
(-620.6101 12783.91 6171.88)
(-688.497 13485.3 9004.272)
(-772.3509 14271.25 11211.96)
(-1205.197 20801.11 15729.55)
(-1394.09 22235.5 15742.36)
(-1637.903 23958.34 17300.78)
(-1930.462 26122.21 19182.16)
(-2119.483 28972.49 31449.51)
(-514.9225 16110.26 25080.51)
(-436.5797 6722.962 1060.036)
(-473.3916 7044.896 3299.838)
(-516.2015 7393.888 5698.749)
(-566.8651 7775.184 8292.691)
(-628.0036 8195.824 10293.36)
(-965.1183 11887.18 14343.75)
(-1097.174 12626.21 14193.16)
(-1266.012 13486.42 15400.69)
(-1480.139 14519.52 16809.1)
(-1726.76 15819.25 26994.6)
(-891.536 8535.082 20910.53)
(-400.42 8742.992 25589.88)
(-383.5398 3371.312 989.2604)
(-413.5706 3527.129 3074.916)
(-447.9548 3694.677 5301.397)
(-487.9235 3876.004 7699.179)
(-535.1961 4073.811 9533.851)
(-812.6119 5887.536 13214.61)
(-910.542 6225.4 12957.95)
(-1034.135 6609.609 13922.49)
(-1191.247 7056.996 15023.27)
(-1387.984 7594.895 23770.07)
(-776.1208 4000.637 17929.75)
(-745.4401 3965.375 21299.51)
(-322.7422 3727.521 24604.74)
(-348.2304 998.8515 935.4579)
(-373.7915 1043.566 2904.318)
(-402.6611 1091.359 5000.922)
(-435.7128 1142.714 7251.963)
(-474.1252 1198.255 8963.887)
(-712.9344 1726.908 12381.63)
(-789.5675 1819.71 12073.94)
(-884.4341 1923.463 12893.91)
(-1003.987 2041.483 13814.72)
(-1155.506 2178.992 21661.87)
(-650.1767 1131.631 16085.38)
(-691.5999 1096.38 18681.85)
(-642.5263 1012.618 21278.46)
(-268.5169 857.527 24079.64)
(-1192.813 -38902.62 2167.285)
(-2652.026 -31183.77 1814.275)
(-1403.773 -35034.12 6137.493)
(-2505.386 -21343.04 1597.249)
(-2960.307 -23670.89 5244.425)
(-1574.156 -26586.28 9862.38)
(-2173.431 -12029.54 1450.847)
(-2671.467 -13119.97 4677.982)
(-3170.512 -14553.38 8497.978)
(-1689.701 -16341.81 13501.7)
(-1862.834 -3752.105 1340.574)
(-2238.301 -4043.944 4274.43)
(-2753.89 -4410.879 7621.115)
(-3273.527 -4893.173 11659.59)
(-1745.57 -5493.488 15820.1)
(-1590.627 3509.519 1251.899)
(-1862.053 3752.258 3962.851)
(-2236.447 4044.252 6987.581)
(-2750.348 4411.323 10486.33)
(-3266.711 4893.657 13673.32)
(-2387.858 7533.936 20331.24)
(-1347.653 9822.223 1179.462)
(-1544.911 10441.45 3714.19)
(-1807.12 11164.19 6503.046)
(-2167.922 12033.44 9649.885)
(-2660.911 13125.79 12337.35)
(-4321.891 19967.95 17619.21)
(-2300.781 22416.58 17979.37)
(-1126.499 15100.87 1123.416)
(-1270.011 15984.91 3524.35)
(-1454.677 16994.76 6140.276)
(-1699.465 18173.75 9047.177)
(-2034.53 19591.65 11435.64)
(-3413.137 29309.07 16029.9)
(-4021.306 32511.19 15760.69)
(-2133.837 36507.47 17555.87)
(-923.0348 18867.98 1091.519)
(-1027.209 19908.11 3414.835)
(-1157.066 21079.59 5929.514)
(-1323.733 22419.44 8694.588)
(-1543.61 23985.03 10912.18)
(-2526.825 35472.11 15177.21)
(-3075.217 38705.85 14759.87)
(-3589.173 42950.1 15968.73)
(-1893.681 48262.13 17790.07)
(-739.0559 19906.24 1100.42)
(-813.9983 20950.89 3436.411)
(-904.9868 22116.71 5954.851)
(-1018.136 23432.66 8705.459)
(-1162.766 24940.58 10875.38)
(-1855.077 36615.89 15146.94)
(-2205.472 39512.45 14853.88)
(-2661.711 43152.75 16082.65)
(-3059.786 47930.75 17687.35)
(-1599.025 53932.1 28889.86)
(-584.806 16630.88 1146.299)
(-638.6895 17464.52 3575.816)
(-702.6327 18384.88 6190.368)
(-780.0747 19410.11 9034.877)
(-876.04 20565.37 11256.2)
(-1369.325 30012.01 15795.98)
(-1588.602 32121.65 15808.78)
(-1877.335 34661.33 17381.56)
(-2239.038 37851.81 19293.13)
(-2517.25 42042.22 31706.54)
(-624.3063 24072.86 25569.91)
(-476.2672 11041.97 1091.007)
(-516.5742 11571.28 3397.592)
(-563.5002 12147.35 5870.535)
(-619.1021 12779.1 8547.364)
(-686.3063 13478.41 10615.71)
(-1055.633 19560.89 14841.87)
(-1201.658 20789.16 14783.79)
(-1389.865 22220.43 16143.91)
(-1632.701 23939.42 17734.49)
(-1923.81 26098.25 28698.39)
(-1015.261 14322.63 22666.75)
(-462.8123 15474.12 28782.14)
(-404.4395 6424.099 1013.099)
(-436.189 6720.721 3149.914)
(-472.564 7040.188 5432.653)
(-514.8759 7386.447 7892.732)
(-564.9586 7764.684 9777.19)
(-858.1769 11223.44 13588.38)
(-962.1478 11869 13398.68)
(-1093.73 12603.21 14472.16)
(-1261.938 13457.83 15698.87)
(-1475.176 14484.28 24989.73)
(-830.5278 7681.403 19118.78)
(-807.9701 7768.451 23240.13)
(-351.5532 7463.831 27496.95)
(-356.952 3225.632 946.7848)
(-383.1871 3369.882 2939.887)
(-412.8274 3524.136 5063.033)
(-446.7716 3689.963 7343.299)
(-486.2344 3869.382 9078.321)
(-731.2754 5576.562 12556.54)
(-810.0498 5876.189 12278.88)
(-907.6359 6211.137 13147.73)
(-1030.789 6592.033 14124.02)
(-1187.317 7035.592 22213.92)
(-669.0673 3661.306 16609.8)
(-713.2152 3567.445 19496.94)
(-665.6105 3310.115 22422.51)
(-278.0692 2797.009 25590.97)
(-325.3479 956.8259 896.362)
(-347.9064 998.3984 2780.454)
(-373.1112 1042.619 4783.198)
(-401.5831 1089.87 6928.508)
(-434.1825 1140.629 8552.429)
(-647.7926 1640.065 11792.55)
(-710.6562 1723.364 11473.78)
(-787.0197 1815.277 12219.69)
(-881.5535 1918.034 13048)
(-1000.681 2034.923 20369.23)
(-557.4437 1048.204 15033.81)
(-601.2378 1003.473 17306.83)
(-628.3149 911.0716 19488.07)
(-564.6584 762.0045 21986.29)
(-226.0784 537.3841 16816.08)
(-976.1606 -34228.67 2315.911)
(-2271.64 -34615.72 1908.242)
(-1191.777 -38911.91 6392.31)
(-2263.087 -28124.65 1633.518)
(-2650.225 -31188.95 5352.519)
(-1401.711 -35043.11 9998.909)
(-2043.559 -19572.55 1463.234)
(-2504.124 -21344.99 4715.151)
(-2956.778 -23674.68 8554.733)
(-1571.063 -26590.21 13538.35)
(-1809.407 -11162.28 1344.407)
(-2172.469 -12030.19 4285.974)
(-2669.034 -13121.25 7639.592)
(-3165.31 -14555.11 11680.66)
(-1685.587 -16342.67 15820.13)
(-1590.627 -3509.519 1251.899)
(-1862.053 -3752.258 3962.851)
(-2236.447 -4044.252 6987.581)
(-2750.348 -4411.323 10486.33)
(-3266.711 -4893.657 13673.32)
(-2387.858 -7533.936 20331.24)
(-1386.684 3301.537 1175.833)
(-1589.968 3509.669 3702.964)
(-1860.548 3752.565 6483.91)
(-2233.752 4044.714 9622.917)
(-2745.743 4411.918 12306.43)
(-4470.133 6712.024 17579.24)
(-2382.916 7534.258 17955.52)
(-1194.575 9279.865 1112.647)
(-1347.081 9822.817 3490.695)
(-1543.636 10442.69 6081.925)
(-1804.926 11166.1 8962.476)
(-2164.417 12036.05 11332.05)
(-3642.564 18004.94 15873.21)
(-4313.866 19972.02 15578.71)
(-2296.064 22420.37 17373.04)
(-1011.536 14314.77 1063.485)
(-1125.99 15102.47 3326.805)
(-1268.897 15988.27 5775.782)
(-1452.807 17000.03 8468.932)
(-1696.595 18181.09 10630.87)
(-2785.097 26879.9 14737.71)
(-3407.681 29322.02 14220.08)
(-4013.649 32527.73 15282.96)
(-2129.369 36526.02 16999.48)
(-837.3702 17933.66 1036.296)
(-922.569 18871.79 3234.8)
(-1026.201 19916.1 5601.999)
(-1155.405 21092.18 8185.782)
(-1321.246 22437.11 10224.11)
(-2112.693 32921.36 14121.88)
(-2522.542 35504.03 13585.89)
(-3069.809 38747.71 14443.63)
(-3581.749 43003.34 15615.77)
(-1889.393 48325.72 25177.5)
(-676.0335 18961.89 1047.38)
(-738.6108 19912.95 3264.857)
(-813.0436 20964.96 5645.839)
(-903.4314 22138.91 8231.925)
(-1015.848 23463.88 10248.1)
(-1590.828 34253.13 14203.96)
(-1851.311 36672.63 13834.04)
(-2200.918 39587.01 14826.03)
(-2655.923 43248.23 16050.79)
(-3052.052 48051.08 25661.66)
(-776.2809 27734.65 19158.9)
(-538.5865 15870.3 1093.428)
(-584.3642 16634.72 3405.797)
(-637.747 17472.57 5886.133)
(-701.1091 18397.53 8572.966)
(-777.858 19427.8 10652.35)
(-1197.785 28231.45 14895.39)
(-1365.73 30044.24 14834.55)
(-1584.3 32164.08 16202.3)
(-1872.017 34715.44 17809.46)
(-2232.177 37919.49 28855.66)
(-1211.531 21459.28 22974.53)
(-568.3805 25622.83 30130.89)
(-441.1123 10552.63 1042.521)
(-475.8634 11040.63 3242.568)
(-515.718 11568.46 5595.05)
(-562.1269 12142.86 8132.712)
(-617.1239 12772.7 10079.73)
(-938.0133 18474.44 14054)
(-1052.522 19549.93 13948.43)
(-1198.022 20775.45 15159.48)
(-1385.525 22203.43 16546.56)
(-1627.36 23918.32 26527.49)
(-926.0559 12910.31 20673.97)
(-919.8732 13794.51 26022.68)
(-404.5437 14293.85 32234.76)
(-376.3488 6147.237 969.4963)
(-404.0773 6421.968 3011.206)
(-435.4252 6716.256 5187.591)
(-471.3469 7033.15 7526.515)
(-513.1368 7376.546 9307.962)
(-772.0093 10633.16 12908.21)
(-855.5198 11206.41 12692.28)
(-959.1148 11847.56 13661.02)
(-1090.215 12576.73 14750.93)
(-1257.779 13425.49 23335.7)
(-710.9868 7035.732 17690.69)
(-761.4659 6998.661 21232.26)
(-717.2311 6645.815 24970.39)
(-299.3575 5690.986 29112.77)
(-333.4734 3090.128 907.1684)
(-356.6236 3224.27 2814.336)
(-382.4975 3367.036 4842.256)
(-411.7341 3519.662 7015.172)
(-445.2188 3683.695 8660.737)
(-664.3626 5296.787 11957.7)
(-728.9556 5565.877 11666.83)
(-807.4475 5862.803 12458)
(-904.684 6194.716 13337.09)
(-1027.391 6572.161 20882.04)
(-572.6975 3392.536 15517.36)
(-617.8897 3266.715 18050.21)
(-646.1489 2980.473 20513.61)
(-581.7948 2488.603 23320.47)
(-231.9223 1714.271 17928.8)
(-304.9487 917.5963 859.7637)
(-325.0451 956.3936 2664.855)
(-347.2725 997.4962 4580.59)
(-372.1101 1041.204 6628.683)
(-400.168 1087.892 8172.784)
(-593.2092 1561.208 11252.27)
(-645.7113 1636.716 10927.46)
(-708.3485 1719.186 11611.76)
(-784.4389 1810.177 12365.05)
(-878.6354 1911.9 19237.23)
(-482.7598 979.0928 14133.41)
(-516.2903 929.8608 16168.08)
(-549.6259 834.2783 18045.45)
(-562.2796 686.1627 20129.65)
(-484.5264 478.9446 15355.24)
(-1650.725 2656.097 53320.58)
(-811.5171 -23978.09 2267.237)
(-1883.861 -30415.71 2064.559)
(-975.1552 -34232.67 6843.891)
(-1966.503 -31220.97 1724.469)
(-2269.869 -34625.73 5636.128)
(-1189.789 -38930.87 10431.52)
(-1855.4 -25794.94 1498.375)
(-2261.823 -28129.74 4824.4)
(-2646.773 -31199.43 8736.616)
(-1398.724 -35056.89 13734.41)
(-1703.964 -18162.74 1356.495)
(-2042.596 -19574.45 4323.21)
(-2501.701 -21348.9 7701.871)
(-2951.665 -23680.43 11760.97)
(-1567.047 -26595.59 15865.62)
(-1545.57 -10440.84 1255.645)
(-1808.626 -11162.91 3974.344)
(-2170.616 -12031.49 7006.842)
(-2665.502 -13123.2 10512.29)
(-3158.554 -14557.44 13698.6)
(-2305.667 -22414.13 20339.51)
(-1386.684 -3301.537 1175.833)
(-1589.968 -3509.669 3702.964)
(-1860.548 -3752.565 6483.91)
(-2233.752 -4044.714 9622.917)
(-2745.743 -4411.918 12306.43)
(-4470.133 -6712.024 17579.24)
(-2382.916 -7534.258 17955.52)
(-1229.049 3119.209 1109.148)
(-1386.113 3301.682 3479.826)
(-1588.695 3509.968 6063.252)
(-1858.356 3753.024 8935.725)
(-2230.245 4045.331 11300.01)
(-3758.887 6051.511 15826.69)
(-4462.043 6712.899 15528.31)
(-2378.149 7534.89 17333.71)
(-1072.527 8796.724 1053.159)
(-1194.07 9280.435 3294.519)
(-1345.974 9824.004 5719.735)
(-1541.777 10444.54 8387.314)
(-1802.069 11168.65 10530.27)
(-2963.237 16510.45 14583.57)
(-3637.107 18009.21 14035.45)
(-4306.115 19977.24 15057.19)
(-2291.517 22425.47 16766.51)
(-917.5254 13605.95 1009.477)
(-1011.08 14316.3 3150.675)
(-1125.004 15105.68 5455.244)
(-1267.271 15993.3 7970.566)
(-1450.37 17007.06 9955.91)
(-2322.578 24944.95 13703.65)
(-2780.908 26892.3 13074.12)
(-3402.39 29338.05 13789.94)
(-4006.242 32547.65 14804.48)
(-2125.057 36548.41 23789.24)
(-765.8351 17083.29 986.0525)
(-836.9483 17937.29 3072.31)
(-921.6647 18879.41 5309.404)
(-1024.728 19928.09 7737.348)
(-1153.237 21108.98 9629.581)
(-1808.369 30797.1 13233.99)
(-2109.178 32951.48 12641.42)
(-2518.351 35543.3 13295.2)
(-3064.523 38797.56 14125.81)
(-3574.516 43065.41 22116.56)
(-922.8187 24549.03 15665.35)
(-622.4798 18095.95 998.7313)
(-675.6267 18968.3 3108.51)
(-737.7443 19926.38 5366.365)
(-811.6444 20986.13 7807.926)
(-901.3966 22168.61 9693.876)
(-1389.82 32225.45 13386.78)
(-1587.609 34306.7 12972.68)
(-1847.552 36742.59 13807.91)
(-2196.373 39675.91 14796.53)
(-2650.148 43359.44 23289.22)
(-1485.686 24749.53 17052.1)
(-734.2486 30299.02 18832.42)
(-498.7251 15168.76 1044.611)
(-538.1797 15873.99 3249.602)
(-583.5011 16642.44 5608.331)
(-636.3614 17484.69 8154.369)
(-699.1107 18414.46 10110.5)
(-1063.532 26670.15 14097.89)
(-1194.634 28262.13 13988.09)
(-1362.042 30084.46 15202.87)
(-1579.887 32215.09 16599.74)
(-1866.561 34778.85 26633.23)
(-1079.151 19368.62 20903.93)
(-1110.518 22908.47 27117.18)
(-503.758 28052.75 36163.75)
(-410.3988 10099.11 997.5073)
(-440.7383 10551.37 3099.244)
(-475.0738 11037.98 5341.558)
(-514.4583 11564.25 7753.439)
(-560.3245 12136.89 9593.109)
(-843.4446 17507.34 13345.7)
(-935.2354 18464.29 13207.23)
(-1049.327 19537.31 14301.91)
(-1194.29 20759.93 15536.2)
(-1381.072 22184.4 24747.18)
(-784.9046 11836.39 19101.93)
(-848.6437 12448.64 23718.9)
(-812.7316 12771.8 29152.47)
(-339.5208 12007.4 35821.71)
(-351.5496 5889.63 928.8433)
(-376.0118 6145.208 2882.292)
(-403.369 6417.724 4960.728)
(-434.3013 6709.58 7189.073)
(-469.7494 7023.783 8878.15)
(-701.1836 10101.74 12289.84)
(-769.6062 10617.14 12056.37)
(-852.8077 11186.3 12940.05)
(-956.0194 11822.83 13923.16)
(-1086.627 12546.73 21924.28)
(-606.607 6523.031 16514.3)
(-655.1736 6414.166 19633.72)
(-686.2713 5992.621 22800.34)
(-620.1058 5076.47 26438.6)
(-244.5866 3371.534 20599.42)
(-312.546 2963.615 870.0896)
(-333.1666 3088.828 2697.185)
(-355.9812 3221.558 4636.858)
(-381.4824 3362.781 6711.102)
(-410.2986 3513.713 8275.568)
(-608.3116 5042.652 11408.68)
(-662.2443 5286.689 11109.99)
(-726.5998 5553.258 11836.49)
(-804.8049 5847.374 12636.73)
(-901.6867 6176.131 19717.01)
(-495.5758 3169.673 14583.52)
(-529.7566 3028.087 16855.24)
(-563.3994 2730.551 18982.58)
(-575.6177 2242.535 21327.88)
(-495.0871 1529.189 16339.47)
(-1678.552 8006.036 56799.51)
(-286.631 880.8525 825.422)
(-304.6649 917.1833 2556.596)
(-324.4524 955.5327 4391.399)
(-346.3392 996.1477 6349.54)
(-370.7954 1039.322 7820.742)
(-546.7287 1489.041 10753.7)
(-591.2948 1558.034 10426.48)
(-643.6034 1632.764 11058.48)
(-706.0114 1714.375 11749.39)
(-781.8253 1804.41 18229.22)
(-423.8022 920.0438 13345.6)
(-447.1966 868.8106 15194.66)
(-472.9569 773.3372 16852.3)
(-495.8071 628.6232 18633.73)
(-494.2127 431.777 14056.7)
(-3596.675 2377.826 48768.96)
(-1528.794 1780.164 31433.07)
(-703.5841 -14719.07 2170.328)
(-1590.594 -21252.33 2039.549)
(-810.6063 -23972.27 6702.515)
(-1665.08 -27418.21 1873.414)
(-1882.091 -30420.96 6107.967)
(-973.2169 -34241.08 11195.9)
(-1624.952 -28635.66 1584.775)
(-1965.209 -31230.57 5098.247)
(-2266.464 -34645.94 9212.704)