/*--------------------------------*- C++ -*----------------------------------*\
| =========                 |                                                 |
| \\      /  F ield         | OpenFOAM: The Open Source CFD Toolbox           |
|  \\    /   O peration     | Version:  2306                                  |
|   \\  /    A nd           | Website:  www.openfoam.com                      |
|    \\/     M anipulation  |                                                 |
\*---------------------------------------------------------------------------*/
FoamFile
{
    version     2.0;
    format      ascii;
    arch        "LSB;label=32;scalar=64";
    class       volScalarField;
    location    "0.6/phiEA";
    object      phi;
}
// * * * * * * * * * * * * * * * * * * * * * * * * * * * * * * * * * * * * * //

dimensions      [1 2 -3 0 0 -1 0];

internalField   nonuniform List<scalar> 
20000
(
-0.004978016
-0.005116329
-0.004628679
-0.004973305
-0.005422693
-0.004750419
-0.005111535
-0.004271175
-0.004624384
-0.004964094
-0.005957418
-0.005020645
-0.005417732
-0.00438037
-0.004746058
-0.00510216
-0.003960089
-0.004267242
-0.004615975
-0.00495053
-0.00679287
-0.005493694
-0.005952236
-0.004623032
-0.005016152
-0.005408029
-0.004059901
-0.00437638
-0.004737519
-0.005088355
-0.003694715
-0.003956448
-0.004259533
-0.00460358
-0.004932705
-0.007913342
-0.006235064
-0.006787576
-0.005048508
-0.005489032
-0.005942098
-0.004281876
-0.00461893
-0.005007353
-0.005393738
-0.003787122
-0.00405621
-0.00436856
-0.004724932
-0.005070212
-0.003466335
-0.003691316
-0.003949305
-0.004248161
-0.004587281
-0.004913645
-0.009015876
-0.007231735
-0.007908389
-0.005716378
-0.006230345
-0.006777226
-0.004671461
-0.005044263
-0.005479899
-0.005927164
-0.003992736
-0.004278085
-0.004610887
-0.004994379
-0.005374952
-0.003552616
-0.003783678
-0.004048968
-0.004357022
-0.004708378
-0.00505081
-0.003267109
-0.003463144
-0.003684644
-0.00393876
-0.004233196
-0.004569845
-0.004897356
-0.009915043
-0.008213105
-0.009011114
-0.006615262
-0.007227373
-0.007898731
-0.005283589
-0.005712096
-0.006221102
-0.006761985
-0.004353855
-0.004667544
-0.005035937
-0.00546643
-0.005907529
-0.003744677
-0.003989202
-0.004270645
-0.004599018
-0.004977314
-0.00535486
-0.003348163
-0.003549384
-0.003776916
-0.004038276
-0.004341839
-0.004690668
-0.005034186
-0.003090826
-0.003264101
-0.003456876
-0.003674788
-0.003924877
-0.004217181
-0.004554947
-0.004880853
-0.01053488
-0.009013664
-0.009910338
-0.007500433
-0.008208958
-0.009001848
-0.006108019
-0.00661132
-0.007218852
-0.007884545
-0.004921641
-0.005279646
-0.005703699
-0.006207475
-0.006741952
-0.004082169
-0.004350207
-0.004659855
-0.005023648
-0.005448708
-0.005886525
-0.003528643
-0.003741362
-0.00398226
-0.004259658
-0.004583395
-0.004959053
-0.005337557
-0.003167314
-0.003345116
-0.003543033
-0.003766926
-0.004024197
-0.004325588
-0.004675496
-0.005017301
-0.002932917
-0.003087979
-0.003258186
-0.003447611
-0.003661805
-0.003910012
-0.0042035
-0.004539856
-0.004864138
-0.0108488
-0.00956562
-0.01053019
-0.008222385
-0.009009599
-0.009901195
-0.006919912
-0.007496699
-0.00820087
-0.008988259
-0.005686718
-0.006104396
-0.006603609
-0.007206315
-0.007865935
-0.004613076
-0.004917973
-0.005271905
-0.005691306
-0.006189547
-0.006720521
-0.003845917
-0.004078749
-0.00434304
-0.004648496
-0.005007467
-0.00542974
-0.005868334
-0.003337671
-0.003525519
-0.003734845
-0.003972002
-0.004245188
-0.004566671
-0.004943329
-0.005319897
-0.00300535
-0.003164431
-0.003339124
-0.003533645
-0.003753766
-0.004009123
-0.004311669
-0.004660088
-0.005000156
-0.002790005
-0.002930215
-0.003082379
-0.003249439
-0.003435401
-0.0036479
-0.003897317
-0.004189646
-0.004524573
-0.004847211
-0.0108488
-0.009845189
-0.0108441
-0.008720036
-0.00956158
-0.01052106
-0.007582015
-0.008218734
-0.009001677
-0.009887796
-0.006440204
-0.006916488
-0.007489406
-0.008188988
-0.008970455
-0.005328722
-0.005683353
-0.006097302
-0.00659225
-0.007189852
-0.007846057
-0.004345218
-0.004609641
-0.004910766
-0.005260471
-0.00567499
-0.006170358
-0.006701989
-0.003637249
-0.003842696
-0.004072027
-0.004332446
-0.004633533
-0.004990142
-0.005413311
-0.005849665
-0.003166713
-0.003334716
-0.003519374
-0.00372521
-0.003958485
-0.004229691
-0.004552273
-0.004927281
-0.005301879
-0.002858792
-0.003002615
-0.003158759
-0.003330263
-0.003521272
-0.003739669
-0.003996214
-0.004297538
-0.004644445
-0.004982751
-0.002659566
-0.002787435
-0.002924899
-0.003074093
-0.003237907
-0.00342232
-0.003636025
-0.003884463
-0.004175618
-0.004509098
-0.004667252
-0.01053488
-0.009845189
-0.0108441
-0.008972061
-0.009841156
-0.01083498
-0.008038344
-0.008716413
-0.009553709
-0.0105077
-0.007054637
-0.007578671
-0.008211607
-0.008990045
-0.00987025
-0.006033568
-0.006437027
-0.006909789
-0.007478677
-0.008173402
-0.008951454
-0.005018452
-0.005325574
-0.005676757
-0.006086842
-0.006577322
-0.007172257
-0.007829335
-0.004108855
-0.004341984
-0.004602887
-0.004900115
-0.00524541
-0.005657519
-0.006153756
-0.006682996
-0.003450551
-0.003634204
-0.00383636
-0.004062083
-0.004318483
-0.004617505
-0.004975139
-0.005396449
-0.005830519
-0.003012062
-0.003163909
-0.003328901
-0.003510283
-0.003712509
-0.003944005
-0.004216354
-0.004537583
-0.00491091
-0.005283505
-0.002725043
-0.002856191
-0.002997231
-0.003150366
-0.003318579
-0.003508014
-0.0037276
-0.003983111
-0.004283194
-0.004628567
-0.004797286
-0.002539674
-0.002657117
-0.002782376
-0.002917029
-0.003063166
-0.003225549
-0.00341115
-0.003624004
-0.00387145
-0.004161417
-0.004344605
-0.004304186
-0.009915043
-0.00956562
-0.01053019
-0.008972061
-0.009841156
-0.01083498
-0.008269417
-0.008968446
-0.009833299
-0.01082161
-0.007478075
-0.008035027
-0.008709343
-0.009542156
-0.0104902
-0.006608322
-0.007051536
-0.007572134
-0.00820113
-0.008974795
-0.009851531
-0.005681565
-0.006030598
-0.006430806
-0.006899926
-0.007464591
-0.008156758
-0.00893577
-0.004744894
-0.005015491
-0.005319398
-0.005667024
-0.006073086
-0.006561359
-0.007157444
-0.007812657
-0.003897499
-0.0041058
-0.004335623
-0.004592899
-0.004886077
-0.005229276
-0.005642406
-0.006136732
-0.006663537
-0.003281728
-0.003447664
-0.003628211
-0.003826984
-0.004048973
-0.004303522
-0.004603628
-0.004959744
-0.005379153
-0.005810892
-0.002870961
-0.003009397
-0.003158391
-0.003320294
-0.003498295
-0.003698899
-0.003931544
-0.004202748
-0.004522601
-0.004894217
-0.005086831
-0.002602123
-0.002722565
-0.002851069
-0.002989261
-0.003139297
-0.003306057
-0.003496665
-0.00371535
-0.003969814
-0.004268639
-0.0044594
-0.004419038
-0.00242884
-0.002537337
-0.002652294
-0.002774885
-0.002906647
-0.003051452
-0.003214997
-0.003399843
-0.003611835
-0.003858279
-0.004010498
-0.004012937
-0.003923209
-0.009015876
-0.009013664
-0.009910338
-0.008720036
-0.00956158
-0.01052106
-0.008269417
-0.008968446
-0.009833299
-0.01082161
-0.007692481
-0.00826611
-0.008961393
-0.009821766
-0.01080412
-0.007004397
-0.007475002
-0.008028547
-0.008698951
-0.009527011
-0.01047154
-0.006222282
-0.006605425
-0.00704547
-0.007562513
-0.008187379
-0.008958515
-0.009836207
-0.005371403
-0.005678773
-0.006024778
-0.006421638
-0.006886967
-0.00744954
-0.008143012
-0.008920429
-0.004500398
-0.004742098
-0.005009678
-0.005310279
-0.005654218
-0.00605837
-0.006547919
-0.00714266
-0.007796025
-0.003706455
-0.003894603
-0.004099786
-0.004326211
-0.004579729
-0.004871034
-0.00521532
-0.005626909
-0.006119283
-0.006643608
-0.003127744
-0.003278984
-0.003441978
-0.003619338
-0.003814616
-0.004034921
-0.00429057
-0.004589391
-0.004943956
-0.005361421
-0.005599759
-0.00274131
-0.002868422
-0.003004147
-0.003150219
-0.00330894
-0.003485445
-0.003687187
-0.003918835
-0.004188875
-0.004507327
-0.004715545
-0.004677068
-0.0024885
-0.002599757
-0.002717681
-0.002843483
-0.002978745
-0.00312743
-0.003295338
-0.003485147
-0.003702921
-0.003956322
-0.004113591
-0.004114572
-0.004018368
-0.00232588
-0.002426606
-0.002532731
-0.002645149
-0.002764999
-0.002895515
-0.003041451
-0.003204316
-0.003388399
-0.00359952
-0.00371833
-0.003706473
-0.003665031
-0.003527419
-0.007913342
-0.008213105
-0.009011114
-0.008222385
-0.009009599
-0.009901195
-0.008038344
-0.008716413
-0.009553709
-0.0105077
-0.007692481
-0.00826611
-0.008961393
-0.009821766
-0.01080412
-0.007204941
-0.007689417
-0.008259647
-0.008951027
-0.009806648
-0.01078545
-0.006594892
-0.007001527
-0.007468991
-0.008019012
-0.008685315
-0.009510845
-0.0104563
-0.005882272
-0.00621956
-0.006599752
-0.007036534
-0.007549878
-0.008172692
-0.008945182
-0.009821346
-0.005094291
-0.005368768
-0.005673298
-0.006016195
-0.006409586
-0.006873114
-0.007437109
-0.008129558
-0.008905431
-0.004279471
-0.004497749
-0.004736605
-0.005001091
-0.005298274
-0.005640512
-0.00604598
-0.006534504
-0.007127904
-0.007779441
-0.003532258
-0.003703703
-0.0038889
-0.004090883
-0.004313795
-0.004565612
-0.004858023
-0.005201012
-0.005611027
-0.006101404
-0.006429353
-0.002986292
-0.00312513
-0.003273576
-0.003433557
-0.00360763
-0.003801356
-0.004022757
-0.004277285
-0.004574793
-0.004927774
-0.005170657
-0.00514762
-0.002621487
-0.002738887
-0.002863418
-0.002996371
-0.003139436
-0.003296766
-0.003474389
-0.003675243
-0.003905877
-0.004174733
-0.004343885
-0.004343385
-0.004233835
-0.002382957
-0.002486239
-0.002595094
-0.002710447
-0.00283347
-0.002967469
-0.003117272
-0.003284461
-0.003473461
-0.003690312
-0.003812633
-0.003797838
-0.003749416
-0.00359888
-0.002229852
-0.002323742
-0.002422202
-0.002525906
-0.002635718
-0.002754396
-0.002886011
-0.003031329
-0.003193507
-0.003376818
-0.003468684
-0.003436604
-0.00338777
-0.003303655
-0.003120554
-0.00679287
-0.007231735
-0.007908389
-0.007500433
-0.008208958
-0.009001848
-0.007582015
-0.008218734
-0.009001677
-0.009887796
-0.007478075
-0.008035027
-0.008709343
-0.009542156
-0.0104902
-0.007204941
-0.007689417
-0.008259647
-0.008951027
-0.009806648
-0.01078545
-0.006783552
-0.007202079
-0.007683423
-0.008250138
-0.008937425
-0.009790512
-0.01077023
-0.006234309
-0.006592196
-0.006995907
-0.007460138
-0.00800649
-0.008670751
-0.009497645
-0.01044157
-0.005578568
-0.005879704
-0.006214226
-0.00659139
-0.007024791
-0.007536374
-0.008160663
-0.008932247
-0.009806947
-0.004843954
-0.005091797
-0.005363597
-0.00566522
-0.006004905
-0.006396696
-0.006861672
-0.00742494
-0.008116398
-0.008890779
-0.00407808
-0.004276956
-0.004492543
-0.004728487
-0.00498978
-0.005285421
-0.005628973
-0.006033613
-0.006521115
-0.007113181
-0.007605831
-0.00337228
-0.003529638
-0.003698281
-0.003880454
-0.004079134
-0.004300482
-0.004553402
-0.004844686
-0.00518635
-0.005594754
-0.005909097
-0.005966578
-0.002855591
-0.002983798
-0.003119978
-0.003265565
-0.003422441
-0.003595073
-0.00378988
-0.004010281
-0.004263664
-0.004559834
-0.004753708
-0.004761943
-0.004640354
-0.002510202
-0.002619171
-0.00273411
-0.002856004
-0.002986106
-0.003127871
-0.003286292
-0.003463114
-0.003663067
-0.00389267
-0.004023439
-0.00400376
-0.003940874
-0.003760503
-0.002284527
-0.002380793
-0.00248178
-0.002588184
-0.002700897
-0.002822732
-0.002957817
-0.003106965
-0.003273425
-0.003461607
-0.003556035
-0.003520226
-0.003463693
-0.003367155
-0.003165336
-0.002139967
-0.002227803
-0.002319525
-0.002415673
-0.002516894
-0.002625601
-0.002745344
-0.002876392
-0.003021085
-0.00318257
-0.003253793
-0.003205441
-0.003141436
-0.00305687
-0.002932155
-0.00285163
-0.005957418
-0.006235064
-0.006787576
-0.006615262
-0.007227373
-0.007898731
-0.006919912
-0.007496699
-0.00820087
-0.008988259
-0.007054637
-0.007578671
-0.008211607
-0.008990045
-0.00987025
-0.007004397
-0.007475002
-0.008028547
-0.008698951
-0.009527011
-0.01047154
-0.006783552
-0.007202079
-0.007683423
-0.008250138
-0.008937425
-0.009790512
-0.01077023
-0.00641255
-0.006780864
-0.007196477
-0.007674597
-0.008237652
-0.008922898
-0.009777349
-0.01075553
-0.005912278
-0.006231766
-0.006586914
-0.006987625
-0.007448505
-0.00799311
-0.00865886
-0.00948488
-0.01042735
-0.005304252
-0.005576137
-0.005874668
-0.006206358
-0.006580394
-0.007012235
-0.007525315
-0.008148992
-0.00891971
-0.009793013
-0.004615794
-0.004841586
-0.005086898
-0.005355963
-0.005654588
-0.005992825
-0.006386049
-0.006850471
-0.007413036
-0.008103532
-0.008740574
-0.003893167
-0.004075686
-0.004272009
-0.004484844
-0.004717789
-0.004977667
-0.0052746
-0.005617455
-0.00602127
-0.006507753
-0.00695893
-0.007282856
-0.003224494
-0.00336978
-0.003524473
-0.003690249
-0.003869305
-0.004066534
-0.004288969
-0.004540887
-0.00483102
-0.00517133
-0.005419743
-0.005492927
-0.00542499
-0.002734228
-0.002853208
-0.00297888
-0.003112342
-0.003254987
-0.003410518
-0.003584206
-0.003778109
-0.003997491
-0.004249707
-0.004398943
-0.004381059
-0.004303234
-0.004073128
-0.00240643
-0.002507986
-0.002614604
-0.00272703
-0.002846215
-0.002975095
-0.003117922
-0.003275612
-0.00345162
-0.003650659
-0.003751396
-0.00370883
-0.003636143
-0.003511038
-0.00326341
-0.002192401
-0.002282454
-0.002376524
-0.002475171
-0.00257906
-0.002690651
-0.002813541
-0.002948024
-0.003096509
-0.003262232
-0.003335385
-0.003282929
-0.003210959
-0.003114051
-0.002972067
-0.002878191
-0.002055595
-0.002138002
-0.00222376
-0.002313272
-0.002407051
-0.002507226
-0.002616964
-0.002736184
-0.002866658
-0.00301072
-0.003066384
-0.003006362
-0.002929748
-0.002835089
-0.002716782
-0.002686557
-0.002702601
-0.005422693
-0.005493694
-0.005952236
-0.005716378
-0.006230345
-0.006777226
-0.006108019
-0.00661132
-0.007218852
-0.007884545
-0.006440204
-0.006916488
-0.007489406
-0.008188988
-0.008970455
-0.006608322
-0.007051536
-0.007572134
-0.00820113
-0.008974795
-0.009851531
-0.006594892
-0.007001527
-0.007468991
-0.008019012
-0.008685315
-0.009510845
-0.0104563
-0.00641255
-0.006780864
-0.007196477
-0.007674597
-0.008237652
-0.008922898
-0.009777349
-0.01075553
-0.006081238
-0.006410015
-0.006775598
-0.007188221
-0.007662999
-0.00822431
-0.008911047
-0.009764632
-0.01074134
-0.005621437
-0.005909871
-0.006226779
-0.006579123
-0.006976736
-0.007436069
-0.007982184
-0.008647359
-0.00947255
-0.01041363
-0.005054268
-0.005301944
-0.005571367
-0.005867235
-0.006196008
-0.006568634
-0.007001951
-0.007514584
-0.00813768
-0.008907573
-0.009651583
-0.004406334
-0.00461354
-0.004836932
-0.005079661
-0.005345912
-0.005643209
-0.005982848
-0.006375627
-0.006839513
-0.007401397
-0.007971558
-0.008491496
-0.003722377
-0.003890884
-0.004070975
-0.00426469
-0.004474696
-0.004706329
-0.004967469
-0.0052638
-0.005605959
-0.006008952
-0.006367759
-0.006670983
-0.006978083
-0.003087294
-0.003222106
-0.003364852
-0.003516819
-0.003679643
-0.003857344
-0.004055638
-0.004277169
-0.004528064
-0.00481702
-0.005009805
-0.005041146
-0.005005191
-0.00476112
-0.002621078
-0.002731948
-0.002848507
-0.002971589
-0.003102256
-0.003243638
-0.003400198
-0.003573061
-0.003766043
-0.003984387
-0.00409962
-0.00405474
-0.003963078
-0.003790194
-0.003446297
-0.002309316
-0.002404307
-0.002503614
-0.002607832
-0.002717678
-0.002835711
-0.002965623
-0.003107777
-0.003264726
-0.003439909
-0.003517933
-0.003457782
-0.003368982
-0.003243748
-0.003059587
-0.00293169
-0.00210593
-0.002190412
-0.002278362
-0.002370195
-0.00246644
-0.002569269
-0.002681882
-0.002804215
-0.00293809
-0.003085904
-0.003143055
-0.003078763
-0.002994193
-0.002887474
-0.002752763
-0.002710336
-0.002720403
-0.001976178
-0.002053708
-0.002134123
-0.002217765
-0.002305011
-0.002397797
-0.002498972
-0.002608223
-0.002726914
-0.002856809
-0.002900625
-0.002832777
-0.002747305
-0.002643698
-0.002520311
-0.002491962
-0.002549722
-0.002537299
-0.005116329
-0.005020645
-0.005417732
-0.005048508
-0.005489032
-0.005942098
-0.005283589
-0.005712096
-0.006221102
-0.006761985
-0.005686718
-0.006104396
-0.006603609
-0.007206315
-0.007865935
-0.006033568
-0.006437027
-0.006909789
-0.007478677
-0.008173402
-0.008951454
-0.006222282
-0.006605425
-0.00704547
-0.007562513
-0.008187379
-0.008958515
-0.009836207
-0.006234309
-0.006592196
-0.006995907
-0.007460138
-0.00800649
-0.008670751
-0.009497645
-0.01044157
-0.006081238
-0.006410015
-0.006775598
-0.007188221
-0.007662999
-0.00822431
-0.008911047
-0.009764632
-0.01074134
-0.00578203
-0.006078839
-0.006405044
-0.006767832
-0.007177366
-0.0076506
-0.008213425
-0.008899597
-0.00975236
-0.01072767
-0.005356414
-0.005619152
-0.005905147
-0.00621942
-0.006568874
-0.00696509
-0.007425914
-0.007971618
-0.00863625
-0.009460655
-0.01027489
-0.004824796
-0.005052073
-0.005297413
-0.005564322
-0.005857452
-0.006184932
-0.006559001
-0.006991973
-0.007504183
-0.008126727
-0.008784327
-0.009429614
-0.004212898
-0.004404186
-0.00460911
-0.004830054
-0.005070129
-0.005335151
-0.00563381
-0.005973081
-0.006365431
-0.006828799
-0.007281997
-0.00775203
-0.008286885
-0.003563847
-0.003720197
-0.003886389
-0.004064003
-0.004255039
-0.004463822
-0.004696682
-0.00495729
-0.00525302
-0.005594488
-0.0058799
-0.006106344
-0.006398481
-0.006713324
-0.002959401
-0.00308501
-0.003217396
-0.003357545
-0.003506709
-0.003668262
-0.003847001
-0.00404447
-0.004265078
-0.004514929
-0.004666485
-0.004660553
-0.004597618
-0.004406822
-0.003895542
-0.002515203
-0.002618893
-0.002727448
-0.002841535
-0.002961956
-0.003091432
-0.003233816
-0.003389616
-0.003561638
-0.003753682
-0.003843483
-0.00377869
-0.003668872
-0.003495806
-0.003223177
-0.003011387
-0.002218172
-0.00230728
-0.002400117
-0.002497129
-0.002598886
-0.002707642
-0.002826676
-0.002955965
-0.003097437
-0.003253633
-0.003314644
-0.003242194
-0.003140742
-0.003006372
-0.002831728
-0.002758258
-0.002754126
-0.00202454
-0.00210402
-0.002186487
-0.002272294
-0.002361832
-0.002457071
-0.002560889
-0.002672985
-0.002794756
-0.002928015
-0.002972994
-0.002900827
-0.002807534
-0.002692272
-0.002553296
-0.002513435
-0.002565683
-0.00254824
-0.001901264
-0.001974365
-0.002049984
-0.002128369
-0.002209843
-0.002296145
-0.002389898
-0.002490618
-0.002599379
-0.002717535
-0.002752202
-0.002679313
-0.00258825
-0.002478574
-0.002349833
-0.002312248
-0.002366578
-0.002397227
-0.002362457
-0.004978016
-0.004750419
-0.005111535
-0.004623032
-0.005016152
-0.005408029
-0.004671461
-0.005044263
-0.005479899
-0.005927164
-0.004921641
-0.005279646
-0.005703699
-0.006207475
-0.006741952
-0.005328722
-0.005683353
-0.006097302
-0.00659225
-0.007189852
-0.007846057
-0.005681565
-0.006030598
-0.006430806
-0.006899926
-0.007464591
-0.008156758
-0.00893577
-0.005882272
-0.00621956
-0.006599752
-0.007036534
-0.007549878
-0.008172692
-0.008945182
-0.009821346
-0.005912278
-0.006231766
-0.006586914
-0.006987625
-0.007448505
-0.00799311
-0.00865886
-0.00948488
-0.01042735
-0.00578203
-0.006078839
-0.006405044
-0.006767832
-0.007177366
-0.0076506
-0.008213425
-0.008899597
-0.00975236
-0.01072767
-0.005509392
-0.005779752
-0.00607413
-0.006397708
-0.006757616
-0.007165756
-0.007640485
-0.008202908
-0.008888548
-0.009740534
-0.01058961
-0.005113153
-0.005354241
-0.005614666
-0.005898173
-0.006209735
-0.006557909
-0.006955581
-0.007416093
-0.00796141
-0.008625532
-0.009340323
-0.01006148
-0.004612897
-0.004822703
-0.00504776
-0.005290719
-0.005555046
-0.005846981
-0.006175861
-0.006549654
-0.006982302
-0.007494112
-0.008015502
-0.0085905
-0.009257987
-0.004033368
-0.004210847
-0.00439996
-0.004602559
-0.004820991
-0.005059921
-0.005326262
-0.005624609
-0.005963525
-0.006355462
-0.006718884
-0.007083282
-0.0075712
-0.008137451
-0.003416092
-0.003561762
-0.003715903
-0.003879735
-0.004054806
-0.004244695
-0.004454667
-0.004687052
-0.00494713
-0.005242263
-0.005474302
-0.005638933
-0.005858895
-0.006161206
-0.006533941
-0.002839751
-0.002957213
-0.003080502
-0.003210411
-0.003347892
-0.003495858
-0.003658421
-0.0038364
-0.004033027
-0.004252694
-0.0043737
-0.004341118
-0.004251593
-0.004053713
-0.00362641
-0.003105525
-0.00241585
-0.002513109
-0.002614582
-0.002720773
-0.002832322
-0.002951617
-0.003082066
-0.003223744
-0.003378769
-0.003549934
-0.003620769
-0.003542293
-0.003419052
-0.00323768
-0.00297954
-0.002829715
-0.002798035
-0.002132394
-0.002216218
-0.00230326
-0.002393901
-0.00248856
-0.002589284
-0.002699009
-0.002817463
-0.002946121
-0.003086901
-0.003134995
-0.003054481
-0.002944543
-0.002802569
-0.002625723
-0.002556732
-0.00259593
-0.002567957
-0.00194777
-0.002022706
-0.002100251
-0.002180663
-0.002264274
-0.002352855
-0.002449053
-0.002552388
-0.002663961
-0.002785162
-0.002820749
-0.002743557
-0.00264487
-0.002523982
-0.002380432
-0.002331952
-0.002380998
-0.002407044
-0.002368713
-0.001830458
-0.001899521
-0.001970785
-0.002044457
-0.002120765
-0.002201339
-0.002288577
-0.002381905
-0.002482166
-0.002590431
-0.002617921
-0.00254196
-0.002447696
-0.002334633
-0.002202544
-0.002155615
-0.002196285
-0.002226644
-0.002235222
-0.002182632
-0.004628679
-0.004973305
-0.00438037
-0.004746058
-0.00510216
-0.004281876
-0.00461893
-0.005007353
-0.005393738
-0.004353855
-0.004667544
-0.005035937
-0.00546643
-0.005907529
-0.004613076
-0.004917973
-0.005271905
-0.005691306
-0.006189547
-0.006720521
-0.005018452
-0.005325574
-0.005676757
-0.006086842
-0.006577322
-0.007172257
-0.007829335
-0.005371403
-0.005678773
-0.006024778
-0.006421638
-0.006886967
-0.00744954
-0.008143012
-0.008920429
-0.005578568
-0.005879704
-0.006214226
-0.00659139
-0.007024791
-0.007536374
-0.008160663
-0.008932247
-0.009806947
-0.005621437
-0.005909871
-0.006226779
-0.006579123
-0.006976736
-0.007436069
-0.007982184
-0.008647359
-0.00947255
-0.01041363
-0.005509392
-0.005779752
-0.00607413
-0.006397708
-0.006757616
-0.007165756
-0.007640485
-0.008202908
-0.008888548
-0.009740534
-0.01058961
-0.005259149
-0.005507226
-0.005775281
-0.006067179
-0.006388055
-0.006746687
-0.007156285
-0.007630712
-0.00819276
-0.008877899
-0.009621039
-0.01037853
-0.004888532
-0.005111081
-0.005349971
-0.00560804
-0.005888991
-0.006199369
-0.006548956
-0.006946384
-0.007406605
-0.007951563
-0.008517105
-0.009154988
-0.009899904
-0.004416246
-0.004610899
-0.00481859
-0.005041385
-0.005281901
-0.005545115
-0.005838404
-0.006167059
-0.006540595
-0.006972937
-0.007391841
-0.007840517
-0.008440367
-0.009140338
-0.003866056
-0.004031406
-0.00420681
-0.004393709
-0.004593925
-0.004811283
-0.005051488
-0.005317561
-0.005615608
-0.005954182
-0.006253182
-0.006535929
-0.006919525
-0.007438837
-0.008056533
-0.003277879
-0.003414095
-0.003557653
-0.003709543
-0.003870956
-0.004044946
-0.004235987
-0.004445529
-0.004677441
-0.004936992
-0.005129564
-0.005249909
-0.005410861
-0.005643402
-0.006000158
-0.002727485
-0.002837653
-0.002952894
-0.003073815
-0.003201179
-0.003337529
-0.003486475
-0.003648334
-0.003825539
-0.004021308
-0.004119544
-0.004068527
-0.003960258
-0.003750298
-0.003344644
-0.002914222
-0.002836953
-0.002322358
-0.00241384
-0.002508973
-0.002608183
-0.00271195
-0.002822431
-0.00294267
-0.003072461
-0.003213421
-0.003367657
-0.003424106
-0.003336737
-0.003204872
-0.003017294
-0.002761419
-0.002621342
-0.002635333
-0.002591302
-0.002051491
-0.002130516
-0.002212358
-0.002297295
-0.002385684
-0.002479362
-0.002581024
-0.002690208
-0.002808074
-0.002936091
-0.002974224
-0.002888651
-0.002773707
-0.002627121
-0.002447643
-0.002371693
-0.002408334
-0.002424739
-0.002379593
-0.001875213
-0.001946007
-0.002019083
-0.002094656
-0.002172964
-0.002255664
-0.002345173
-0.002440917
-0.002543764
-0.002654809
-0.002683029
-0.002602821
-0.002501158
-0.002377328
-0.002231158
-0.002173904
-0.00220952
-0.002235514
-0.00224083
-0.00218584
-0.001763407
-0.00182878
-0.001896078
-0.001965472
-0.00203715
-0.0021126
-0.00219408
-0.002280918
-0.002373816
-0.002473616
-0.002495393
-0.002417743
-0.00232196
-0.002207501
-0.002074159
-0.002020129
-0.002047475
-0.002066872
-0.002077734
-0.00206791
-0.002000747
-0.004271175
-0.004624384
-0.004964094
-0.004059901
-0.00437638
-0.004737519
-0.005088355
-0.003992736
-0.004278085
-0.004610887
-0.004994379
-0.005374952
-0.004082169
-0.004350207
-0.004659855
-0.005023648
-0.005448708
-0.005886525
-0.004345218
-0.004609641
-0.004910766
-0.005260471
-0.00567499
-0.006170358
-0.006701989
-0.004744894
-0.005015491
-0.005319398
-0.005667024
-0.006073086
-0.006561359
-0.007157444
-0.007812657
-0.005094291
-0.005368768
-0.005673298
-0.006016195
-0.006409586
-0.006873114
-0.007437109
-0.008129558
-0.008905431
-0.005304252
-0.005576137
-0.005874668
-0.006206358
-0.006580394
-0.007012235
-0.007525315
-0.008148992
-0.00891971
-0.009793013
-0.005356414
-0.005619152
-0.005905147
-0.00621942
-0.006568874
-0.00696509
-0.007425914
-0.007971618
-0.00863625
-0.009460655
-0.01027489
-0.005259149
-0.005507226
-0.005775281
-0.006067179
-0.006388055
-0.006746687
-0.007156285
-0.007630712
-0.00819276
-0.008877899
-0.009621039
-0.01037853
-0.005028087
-0.005257084
-0.005502971
-0.005768677
-0.006058028
-0.006377724
-0.00673777
-0.007147135
-0.007621281
-0.00818298
-0.008770305
-0.009438157
-0.01021968
-0.004680084
-0.004886554
-0.005107009
-0.005343661
-0.005599312
-0.005879161
-0.006190905
-0.006540296
-0.006937499
-0.007397452
-0.007851938
-0.008350071
-0.009014501
-0.009791283
-0.004232991
-0.004414336
-0.00460697
-0.004812508
-0.005032985
-0.005272458
-0.00553698
-0.005830082
-0.006158528
-0.006531822
-0.006877835
-0.007230921
-0.007704936
-0.008337308
-0.009080284
-0.003709565
-0.003864178
-0.004027544
-0.004200837
-0.004385468
-0.004584673
-0.004803264
-0.005043234
-0.005309048
-0.005606806
-0.005858328
-0.006082926
-0.006385145
-0.006799615
-0.007367044
-0.003148209
-0.003275965
-0.00341016
-0.003551566
-0.003701149
-0.003861541
-0.004036645
-0.004227294
-0.004436409
-0.004667849
-0.00483078
-0.004919161
-0.005037547
-0.005212267
-0.005497128
-0.002621857
-0.002725472
-0.002833511
-0.002946485
-0.003064976
-0.003191268
-0.003328568
-0.003476859
-0.003638001
-0.003814416
-0.003895305
-0.003831882
-0.003711393
-0.003493556
-0.003097032
-0.002697826
-0.002670278
-0.002608965
-0.00223419
-0.002320427
-0.002409868
-0.002502833
-0.002599724
-0.002702476
-0.002813872
-0.002933495
-0.003062616
-0.003202846
-0.003248191
-0.003155265
-0.003018603
-0.002828015
-0.002573641
-0.002431025
-0.002443964
-0.002445697
-0.002391707
-0.001975033
-0.002049686
-0.002126807
-0.002206628
-0.002289409
-0.002376863
-0.002471449
-0.002572603
-0.002681237
-0.002798507
-0.002828829
-0.002740299
-0.002622835
-0.002474332
-0.002294022
-0.002210801
-0.002234615
-0.002251505
-0.002250586
-0.002191286
-0.001806506
-0.001873515
-0.001942522
-0.002013705
-0.00208726
-0.002164699
-0.002248296
-0.002337379
-0.002432666
-0.002535019
-0.002557377
-0.002475559
-0.002372613
-0.00224782
-0.00210107
-0.00203724
-0.002059762
-0.002075012
-0.002082796
-0.002070769
-0.002001879
-0.00169981
-0.001761792
-0.001825466
-0.001890966
-0.001958446
-0.002029305
-0.002105631
-0.002186734
-0.002273169
-0.002365634
-0.002382799
-0.002304436
-0.002208298
-0.002093836
-0.001960833
-0.001902036
-0.001918654
-0.001926848
-0.001929122
-0.001923672
-0.001898035
-0.001818757
-0.003960089
-0.004267242
-0.004615975
-0.00495053
-0.003787122
-0.00405621
-0.00436856
-0.004724932
-0.005070212
-0.003744677
-0.003989202
-0.004270645
-0.004599018
-0.004977314
-0.00535486
-0.003845917
-0.004078749
-0.00434304
-0.004648496
-0.005007467
-0.00542974
-0.005868334
-0.004108855
-0.004341984
-0.004602887
-0.004900115
-0.00524541
-0.005657519
-0.006153756
-0.006682996
-0.004500398
-0.004742098
-0.005009678
-0.005310279
-0.005654218
-0.00605837
-0.006547919
-0.00714266
-0.007796025
-0.004843954
-0.005091797
-0.005363597
-0.00566522
-0.006004905
-0.006396696
-0.006861672
-0.00742494
-0.008116398
-0.008890779
-0.005054268
-0.005301944
-0.005571367
-0.005867235
-0.006196008
-0.006568634
-0.007001951
-0.007514584
-0.00813768
-0.008907573
-0.009651583
-0.005113153
-0.005354241
-0.005614666
-0.005898173
-0.006209735
-0.006557909
-0.006955581
-0.007416093
-0.00796141
-0.008625532
-0.009340323
-0.01006148
-0.005028087
-0.005257084
-0.005502971
-0.005768677
-0.006058028
-0.006377724
-0.00673777
-0.007147135
-0.007621281
-0.00818298
-0.008770305
-0.009438157
-0.01021968
-0.004813667
-0.005026116
-0.005253026
-0.005496682
-0.005759978
-0.00604823
-0.006369295
-0.006729155
-0.007138304
-0.007612192
-0.008084153
-0.008605611
-0.009300409
-0.01011347
-0.004485844
-0.004678193
-0.004882665
-0.00510099
-0.005335348
-0.005589966
-0.005871134
-0.006182719
-0.006531931
-0.006928927
-0.00730485
-0.007698448
-0.008223433
-0.008919979
-0.009736656
-0.004061597
-0.004231162
-0.004410578
-0.004601159
-0.004804491
-0.005023986
-0.005264723
-0.005529087
-0.005822016
-0.006150267
-0.006442736
-0.006728184
-0.007106224
-0.007611843
-0.008284653
-0.003562757
-0.003707764
-0.00386048
-0.004021828
-0.004192958
-0.004376635
-0.00457703
-0.004795414
-0.005035158
-0.005300724
-0.005516507
-0.005698761
-0.005942601
-0.006274726
-0.00673456
-0.003026219
-0.003146373
-0.003272191
-0.003404327
-0.00354353
-0.003692145
-0.003853615
-0.004028359
-0.004218619
-0.004427308
-0.004567368
-0.004632495
-0.004720054
-0.004852654
-0.00507748
-0.002522254
-0.002619923
-0.002721495
-0.002827363
-0.002938012
-0.003055484
-0.003182697
-0.003319384
-0.003467007
-0.003627417
-0.003694822
-0.003623123
-0.003495301
-0.003273864
-0.002885542
-0.002501309
-0.00247558
-0.002461559
-0.002400114
-0.002150874
-0.002232333
-0.002316611
-0.002403972
-0.002494715
-0.002590639
-0.002694278
-0.002805095
-0.002924092
-0.003052532
-0.003089153
-0.002992984
-0.002854195
-0.002663346
-0.002411926
-0.002265905
-0.002267333
-0.002270451
-0.002261452
-0.00219712
-0.001902638
-0.001973296
-0.002046118
-0.002121299
-0.002199052
-0.00228094
-0.002369274
-0.002463382
-0.00256402
-0.002672097
-0.002696203
-0.002606177
-0.002487918
-0.002339445
-0.002160206
-0.002071763
-0.002083063
-0.002089691
-0.002091606
-0.002075624
-0.002003748
-0.00174134
-0.001804872
-0.001870161
-0.001937348
-0.002006594
-0.002079318
-0.002157625
-0.002240821
-0.002329473
-0.002424298
-0.002441924
-0.002359483
-0.002256422
-0.002132041
-0.001986252
-0.001918134
-0.00193015
-0.001934405
-0.001933767
-0.001926243
-0.001899006
-0.001818211
-0.001639413
-0.001698254
-0.0017586
-0.001820545
-0.001884206
-0.001950901