/*--------------------------------*- C++ -*----------------------------------*\
| =========                 |                                                 |
| \\      /  F ield         | OpenFOAM: The Open Source CFD Toolbox           |
|  \\    /   O peration     | Version:  2306                                  |
|   \\  /    A nd           | Website:  www.openfoam.com                      |
|    \\/     M anipulation  |                                                 |
\*---------------------------------------------------------------------------*/
FoamFile
{
    version     2.0;
    format      ascii;
    arch        "LSB;label=32;scalar=64";
    class       volScalarField;
    location    "0.6/phiEA";
    object      T;
}
// * * * * * * * * * * * * * * * * * * * * * * * * * * * * * * * * * * * * * //

dimensions      [0 0 0 1 0 0 0];

internalField   nonuniform List<scalar> 
20000
(
1120.735
1120.604
1122.284
1120.744
1120.302
1122.273
1120.614
1123.715
1122.289
1120.758
1119.742
1122.247
1120.312
1123.738
1122.278
1120.628
1125.06
1123.716
1122.299
1120.777
1118.805
1122.191
1119.755
1123.788
1122.251
1120.328
1125.093
1123.739
1122.287
1120.647
1126.358
1125.058
1123.722
1122.313
1120.8
1117.438
1122.086
1118.824
1123.872
1122.194
1119.773
1125.166
1123.788
1122.259
1120.348
1126.393
1125.091
1123.744
1122.301
1120.671
1127.619
1126.353
1125.061
1123.732
1122.331
1120.829
1115.892
1121.901
1117.466
1123.997
1122.086
1118.847
1125.294
1123.871
1122.202
1119.797
1126.473
1125.163
1123.793
1122.273
1120.374
1127.654
1126.388
1125.093
1123.754
1122.32
1120.701
1128.846
1127.612
1126.353
1125.067
1123.746
1122.355
1120.858
1114.48
1121.631
1115.934
1124.145
1121.898
1117.499
1125.491
1123.992
1122.091
1118.877
1126.612
1125.289
1123.873
1122.214
1119.826
1127.733
1126.467
1125.165
1123.801
1122.291
1120.405
1128.88
1127.647
1126.388
1125.099
1123.768
1122.343
1120.731
1130.037
1128.837
1127.609
1126.356
1125.077
1123.765
1122.378
1120.888
1113.431
1121.328
1114.536
1124.254
1121.627
1115.98
1125.748
1124.134
1121.9
1117.537
1126.829
1125.483
1123.991
1122.101
1118.911
1127.872
1126.604
1125.288
1123.88
1122.231
1119.86
1128.956
1127.726
1126.465
1125.17
1123.814
1122.313
1120.437
1130.07
1128.871
1127.644
1126.391
1125.109
1123.786
1122.366
1120.761
1131.191
1130.027
1128.832
1127.61
1126.363
1125.092
1123.784
1122.402
1120.918
1112.877
1121.072
1113.496
1124.306
1121.327
1114.595
1125.984
1124.239
1121.628
1116.031
1127.117
1125.733
1124.128
1121.907
1117.581
1128.091
1126.818
1125.478
1123.994
1122.116
1118.952
1129.091
1127.863
1126.601
1125.292
1123.891
1122.253
1119.896
1130.143
1128.947
1127.721
1126.467
1125.179
1123.832
1122.337
1120.47
1131.222
1130.059
1128.866
1127.645
1126.397
1125.123
1123.805
1122.39
1120.792
1132.307
1131.18
1130.021
1128.831
1127.615
1126.374
1125.107
1123.803
1122.426
1120.948
1112.877
1120.926
1112.948
1124.319
1121.073
1113.566
1126.159
1124.289
1121.329
1114.659
1127.394
1125.964
1124.228
1121.634
1116.087
1128.382
1127.101
1125.723
1124.125
1121.918
1117.63
1129.302
1128.078
1126.811
1125.478
1124.002
1122.136
1118.993
1130.272
1129.08
1127.857
1126.601
1125.299
1123.907
1122.275
1119.932
1131.292
1130.132
1128.941
1127.721
1126.473
1125.192
1123.85
1122.36
1120.502
1132.337
1131.211
1130.053
1128.864
1127.649
1126.408
1125.138
1123.824
1122.414
1120.823
1133.384
1132.295
1131.173
1130.018
1128.833
1127.623
1126.386
1125.122
1123.822
1122.45
1121.096
1113.431
1120.926
1112.948
1124.318
1120.929
1113.022
1126.269
1124.302
1121.078
1113.639
1127.61
1126.137
1124.277
1121.337
1114.727
1128.666
1127.373
1125.949
1124.222
1121.644
1116.148
1129.586
1128.364
1127.088
1125.716
1124.128
1121.934
1117.679
1130.475
1129.289
1128.069
1126.808
1125.481
1124.014
1122.156
1119.036
1131.415
1130.259
1129.072
1127.855
1126.605
1125.31
1123.923
1122.297
1119.969
1132.404
1131.28
1130.124
1128.938
1127.724
1126.483
1125.206
1123.868
1122.384
1120.535
1133.412
1132.325
1131.203
1130.049
1128.866
1127.657
1126.419
1125.152
1123.842
1122.438
1120.975
1134.421
1133.371
1132.287
1131.168
1130.018
1128.839
1127.631
1126.397
1125.137
1123.842
1122.569
1121.378
1114.48
1121.072
1113.496
1124.318
1120.929
1113.022
1126.32
1124.301
1120.936
1113.101
1127.754
1126.246
1124.29
1121.088
1113.717
1128.893
1127.587
1126.12
1124.27
1121.349
1114.8
1129.865
1128.644
1127.356
1125.939
1124.221
1121.659
1116.209
1130.747
1129.568
1128.35
1127.08
1125.714
1124.134
1121.951
1117.729
1131.61
1130.46
1129.279
1128.064
1126.809
1125.489
1124.026
1122.177
1119.079
1132.522
1131.402
1130.251
1129.069
1127.857
1126.613
1125.322
1123.939
1122.32
1120.006
1133.476
1132.391
1131.272
1130.12
1128.94
1127.731
1126.493
1125.219
1123.885
1122.407
1120.698
1134.448
1133.399
1132.316
1131.198
1130.049
1128.872
1127.665
1126.43
1125.167
1123.861
1122.556
1121.271
1135.417
1134.408
1133.362
1132.281
1131.167
1130.022
1128.845
1127.64
1126.409
1125.152
1123.938
1122.786
1121.674
1115.892
1121.328
1114.536
1124.319
1121.073
1113.566
1126.32
1124.301
1120.936
1113.101
1127.824
1126.297
1124.289
1120.947
1113.184
1129.045
1127.729
1126.227
1124.282
1121.102
1113.8
1130.089
1128.868
1127.567
1126.107
1124.266
1121.366
1114.873
1131.016
1129.843
1128.626
1127.343
1125.932
1124.224
1121.675
1116.27
1131.871
1130.729
1129.554
1128.341
1127.075
1125.716
1124.141
1121.968
1117.779
1132.708
1131.594
1130.449
1129.272
1128.063
1126.813
1125.497
1124.039
1122.197
1119.122
1133.589
1132.508
1131.392
1130.245
1129.068
1127.862
1126.621
1125.333
1123.955
1122.343
1120.189
1134.509
1133.463
1132.381
1131.266
1130.12
1128.944
1127.739
1126.503
1125.233
1123.903
1122.524
1121.025
1135.444
1134.435
1133.39
1132.31
1131.197
1130.053
1128.877
1127.673
1126.441
1125.182
1123.955
1122.772
1121.585
1136.374
1135.404
1134.397
1133.355
1132.279
1131.169
1130.026
1128.851
1127.649
1126.42
1125.228
1124.108
1123.004
1121.982
1117.438
1121.631
1115.934
1124.306
1121.327
1114.595
1126.269
1124.302
1121.078
1113.639
1127.824
1126.297
1124.289
1120.947
1113.184
1129.121
1127.799
1126.278
1124.281
1120.963
1113.271
1130.241
1129.02
1127.708
1126.213
1124.279
1121.122
1113.882
1131.234
1130.065
1128.848
1127.552
1126.098
1124.268
1121.383
1114.946
1132.129
1130.995
1129.825
1128.613
1127.335
1125.93
1124.227
1121.691
1116.331
1132.959
1131.852
1130.714
1129.543
1128.335
1127.075
1125.719
1124.148
1121.985
1117.83
1133.768
1132.692
1131.583
1130.441
1129.269
1128.065
1126.818
1125.505
1124.051
1122.218
1119.336
1134.619
1133.575
1132.497
1131.386
1130.243
1129.071
1127.868
1126.63
1125.345
1123.971
1122.455
1120.57
1135.503
1134.496
1133.453
1132.375
1131.264
1130.123
1128.949
1127.746
1126.513
1125.246
1123.993
1122.739
1121.382
1136.4
1135.43
1134.424
1133.383
1132.307
1131.199
1130.057
1128.883
1127.681
1126.452
1125.255
1124.122
1122.992
1121.915
1137.291
1136.36
1135.393
1134.39
1133.352
1132.28
1131.171
1130.03
1128.857
1127.657
1126.479
1125.361
1124.276
1123.224
1122.298
1118.805
1121.901
1117.466
1124.254
1121.627
1115.98
1126.159
1124.289
1121.329
1114.659
1127.754
1126.246
1124.29
1121.088
1113.717
1129.121
1127.799
1126.278
1124.281
1120.963
1113.271
1130.317
1129.095
1127.777
1126.263
1124.278
1120.984
1113.359
1131.382
1130.216
1128.998
1127.691
1126.203
1124.28
1121.141
1113.964
1132.339
1131.21
1130.045
1128.832
1127.541
1126.093
1124.269
1121.4
1115.018
1133.207
1132.108
1130.977
1129.811
1128.603
1127.33
1125.928
1124.23
1121.707
1116.391
1134.01
1132.94
1131.837
1130.703
1129.536
1128.332
1127.074
1125.721
1124.155
1122.002
1118.072
1134.791
1133.752
1132.68
1131.574
1130.437
1129.269
1128.067
1126.823
1125.512
1124.064
1122.321
1119.781
1135.608
1134.604
1133.564
1132.49
1131.383
1130.245
1129.075
1127.873
1126.638
1125.356
1124.051
1122.669
1121.001
1136.457
1135.489
1134.485
1133.446
1132.372
1131.266
1130.126
1128.954
1127.753
1126.523
1125.315
1124.15
1122.961
1121.765
1137.316
1136.386
1135.42
1134.417
1133.38
1132.308
1131.201
1130.06
1128.889
1127.689
1126.509
1125.383
1124.286
1123.213
1122.256
1138.168
1137.277
1136.35
1135.386
1134.386
1133.352
1132.28
1131.174
1130.034
1128.863
1127.701
1126.58
1125.49
1124.442
1123.445
1122.479
1119.742
1122.086
1118.824
1124.145
1121.898
1117.499
1125.984
1124.239
1121.628
1116.031
1127.61
1126.137
1124.277
1121.337
1114.727
1129.045
1127.729
1126.227
1124.282
1121.102
1113.8
1130.317
1129.095
1127.777
1126.263
1124.278
1120.984
1113.359
1131.456
1130.292
1129.073
1127.76
1126.253
1124.279
1121.005
1113.446
1132.482
1131.357
1130.195
1128.981
1127.679
1126.197
1124.281
1121.16
1114.045
1133.409
1132.316
1131.19
1130.029
1128.82
1127.533
1126.088
1124.271
1121.417
1115.089
1134.249
1133.186
1132.09
1130.962
1129.801
1128.597
1127.325
1125.926
1124.233
1121.723
1116.679
1135.024
1133.991
1132.925
1131.826
1130.695
1129.532
1128.33
1127.074
1125.723
1124.163
1122.087
1118.522
1135.775
1134.775
1133.74
1132.67
1131.568
1130.436
1129.27
1128.069
1126.827
1125.52
1124.126
1122.524
1120.296
1136.559
1135.594
1134.592
1133.556
1132.486
1131.383
1130.246
1129.078
1127.878
1126.646
1125.414
1124.192
1122.895
1121.48
1137.371
1136.443
1135.478
1134.477
1133.442
1132.372
1131.267
1130.128
1128.959
1127.76
1126.574
1125.431
1124.305
1123.188
1122.166
1138.192
1137.302
1136.375
1135.412
1134.413
1133.379
1132.309
1131.203
1130.064
1128.894
1127.731
1126.605
1125.507
1124.448
1123.437
1122.452
1139.006
1138.154
1137.266
1136.342
1135.381
1134.385
1133.351
1132.281
1131.176
1130.038
1128.894
1127.775
1126.677
1125.616
1124.607
1123.57
1122.535
1120.302
1122.191
1119.755
1123.997
1122.086
1118.847
1125.748
1124.134
1121.9
1117.537
1127.394
1125.964
1124.228
1121.634
1116.087
1128.893
1127.587
1126.12
1124.27
1121.349
1114.8
1130.241
1129.02
1127.708
1126.213
1124.279
1121.122
1113.882
1131.456
1130.292
1129.073
1127.76
1126.253
1124.279
1121.005
1113.446
1132.554
1131.431
1130.27
1129.055
1127.747
1126.246
1124.28
1121.025
1113.531
1133.546
1132.458
1131.336
1130.177
1128.967
1127.67
1126.191
1124.282
1121.179
1114.125
1134.443
1133.386
1132.296
1131.174
1130.016
1128.811
1127.526
1126.083
1124.272
1121.434
1115.427
1135.254
1134.228
1133.168
1132.076
1130.952
1129.794
1128.591
1127.32
1125.924
1124.237
1121.802
1117.165
1136
1135.005
1133.976
1132.913
1131.817
1130.69
1129.529
1128.328
1127.074
1125.726
1124.199
1122.251
1118.982
1136.721
1135.759
1134.762
1133.73
1132.664
1131.566
1130.435
1129.27
1128.071
1126.832
1125.559
1124.238
1122.749
1120.905
1137.47
1136.544
1135.582
1134.584
1133.551
1132.484
1131.383
1130.248
1129.081
1127.884
1126.686
1125.51
1124.332
1123.135
1122.003
1138.247
1137.357
1136.432
1135.47
1134.473
1133.44
1132.372
1131.268
1130.131
1128.964
1127.797
1126.659
1125.543
1124.459
1123.42
1122.397
1139.03
1138.178
1137.291
1136.367
1135.407
1134.411
1133.379
1132.309
1131.205
1130.068
1128.924
1127.8
1126.696
1125.627
1124.609
1123.564
1122.513
1139.806
1138.993
1138.143
1137.258
1136.336
1135.379
1134.384
1133.351
1132.282
1131.178
1130.058
1128.946
1127.845
1126.771
1125.741
1124.699
1123.602
1122.603
1120.604
1122.247
1120.312
1123.872
1122.194
1119.773
1125.491
1123.992
1122.091
1118.877
1127.117
1125.733
1124.128
1121.907
1117.581
1128.666
1127.373
1125.949
1124.222
1121.644
1116.148
1130.089
1128.868
1127.567
1126.107
1124.266
1121.366
1114.873
1131.382
1130.216
1128.998
1127.691
1126.203
1124.28
1121.141
1113.964
1132.554
1131.431
1130.27
1129.055
1127.747
1126.246
1124.28
1121.025
1113.531
1133.616
1132.529
1131.41
1130.252
1129.041
1127.738
1126.24
1124.281
1121.046
1113.616
1134.576
1133.523
1132.437
1131.319
1130.163
1128.958
1127.661
1126.185
1124.283
1121.199
1114.503
1135.442
1134.421
1133.367
1132.28
1131.161
1130.007
1128.803
1127.519
1126.079
1124.274
1121.518
1115.97
1136.223
1135.234
1134.21
1133.154
1132.065
1130.944
1129.787
1128.585
1127.316
1125.922
1124.254
1121.947
1117.616
1136.939
1135.982
1134.99
1133.963
1132.904
1131.812
1130.686
1129.525
1128.326
1127.073
1125.738
1124.267
1122.423
1119.444
1137.627
1136.704
1135.745
1134.751
1133.723
1132.661
1131.564
1130.433
1129.27
1128.073
1126.854
1125.623
1124.354
1123.002
1121.651
1138.343
1137.456
1136.532
1135.573
1134.578
1133.549
1132.483
1131.382
1130.249
1129.084
1127.91
1126.75
1125.601
1124.473
1123.386
1122.313
1139.083
1138.232
1137.346
1136.423
1135.464
1134.471
1133.439
1132.372
1131.269
1130.134
1128.988
1127.855
1126.737
1125.65
1124.612
1123.552
1122.468
1139.829
1139.016
1138.167
1137.282
1136.361
1135.405
1134.41
1133.378
1132.31
1131.207
1130.086
1128.97
1127.865
1126.784
1125.746
1124.699
1123.597
1122.585
1140.567
1139.792
1138.981
1138.135
1137.252
1136.334
1135.377
1134.382
1133.351
1132.283
1131.19
1130.091
1128.994
1127.912
1126.863
1125.81
1124.719
1123.639
1122.68
1120.735
1122.273
1120.614
1123.788
1122.251
1120.328
1125.294
1123.871
1122.202
1119.797
1126.829
1125.483
1123.991
1122.101
1118.911
1128.382
1127.101
1125.723
1124.125
1121.918
1117.63
1129.865
1128.644
1127.356
1125.939
1124.221
1121.659
1116.209
1131.234
1130.065
1128.848
1127.552
1126.098
1124.268
1121.383
1114.946
1132.482
1131.357
1130.195
1128.981
1127.679
1126.197
1124.281
1121.16
1114.045
1133.616
1132.529
1131.41
1130.252
1129.041
1127.738
1126.24
1124.281
1121.046
1113.616
1134.643
1133.592
1132.508
1131.392
1130.237
1129.031
1127.728
1126.233
1124.283
1121.067
1114.016
1135.571
1134.553
1133.503
1132.42
1131.305
1130.153
1128.947
1127.652
1126.179
1124.284
1121.292
1115.099
1136.406
1135.421
1134.402
1133.351
1132.268
1131.152
1129.998
1128.794
1127.511
1126.074
1124.283
1121.665
1116.452
1137.155
1136.203
1135.217
1134.196
1133.143
1132.057
1130.937
1129.78
1128.579
1127.311
1125.913
1124.29
1122.092
1118.027
1137.839
1136.921
1135.966
1134.977
1133.954
1132.898
1131.807
1130.681
1129.522
1128.323
1127.071
1125.761
1124.336
1122.597
1119.894
1138.496
1137.611
1136.691
1135.735
1134.744
1133.719
1132.658
1131.561
1130.432
1129.27
1128.084
1126.886
1125.683
1124.475
1123.299
1122.2
1139.177
1138.328
1137.443
1136.523
1135.566
1134.575
1133.546
1132.482
1131.382
1130.25
1129.099
1127.948
1126.806
1125.687
1124.615
1123.533
1122.402
1139.88
1139.068
1138.221
1137.337
1136.417
1135.462
1134.468
1133.438
1132.371
1131.27
1130.148
1129.024
1127.906
1126.811
1125.756
1124.698
1123.587
1122.548
1140.589
1139.815
1139.005
1138.158
1137.276
1136.358
1135.402
1134.408
1133.377
1132.31
1131.216
1130.114
1129.013
1127.925
1126.869
1125.811
1124.718
1123.635
1122.665
1141.29
1140.553
1139.781
1138.973
1138.129
1137.249
1136.331
1135.375
1134.381
1133.35
1132.287
1131.206
1130.12
1129.038
1127.977
1126.913
1125.822
1124.739
1123.679
1122.762
1122.284
1120.744
1123.738
1122.278
1120.628
1125.166
1123.788
1122.259
1120.348
1126.612
1125.289
1123.873
1122.214
1119.826
1128.091
1126.818
1125.478
1123.994
1122.116
1118.952
1129.586
1128.364
1127.088
1125.716
1124.128
1121.934
1117.679
1131.016
1129.843
1128.626
1127.343
1125.932
1124.224
1121.675
1116.27
1132.339
1131.21
1130.045
1128.832
1127.541
1126.093
1124.269
1121.4
1115.018
1133.546
1132.458
1131.336
1130.177
1128.967
1127.67
1126.191
1124.282
1121.179
1114.125
1134.643
1133.592
1132.508
1131.392
1130.237
1129.031
1127.728
1126.233
1124.283
1121.067
1114.016
1135.636
1134.62
1133.571
1132.491
1131.378
1130.227
1129.02
1127.719
1126.227
1124.284
1121.166
1114.641
1136.53
1135.549
1134.534
1133.486
1132.407
1131.295
1130.143
1128.938
1127.644
1126.173
1124.291
1121.449
1115.616
1137.332
1136.384
1135.402
1134.387
1133.339
1132.258
1131.143
1129.989
1128.786
1127.504
1126.053
1124.303
1121.807
1116.87
1138.05
1137.136
1136.186
1135.203
1134.185
1133.135
1132.049
1130.929
1129.773
1128.573
1127.289
1125.903
1124.33
1122.233
1118.388
1138.702
1137.822
1136.905
1135.954
1134.968
1133.948
1132.892
1131.801
1130.677
1129.518
1128.312
1127.068
1125.783
1124.404
1122.766
1139.326
1138.48
1137.598
1136.68
1135.727
1134.74
1133.715
1132.654
1131.559
1130.431
1129.271
1128.093
1126.911
1125.739
1124.606
1123.506
1122.319
1139.972
1139.162
1138.316
1137.434
1136.516
1135.563
1134.572
1133.544
1132.48
1131.382
1130.256
1129.117
1127.978
1126.856
1125.771
1124.695
1123.573
1122.495
1140.64
1139.866
1139.057
1138.212
1137.331
1136.414
1135.459
1134.466
1133.437
1132.371
1131.276
1130.166
1129.054
1127.953
1126.881
1125.814
1124.717
1123.627
1122.634
1141.312
1140.576
1139.804
1138.996
1138.152
1137.273
1136.356
1135.4
1134.407
1133.377
1132.313
1131.229
1130.138
1129.051
1127.983
1126.915
1125.823
1124.739
1123.676
1122.749
1141.976
1141.277
1140.542
1139.772
1138.967
1138.125
1137.246
1136.328
1135.373
1134.38
1133.348
1132.29
1131.219
1130.145
1129.081
1128.013
1126.921
1125.834
1124.76
1123.722
1122.846
1123.715
1122.289
1120.758
1125.093
1123.739
1122.287
1120.647
1126.473
1125.163
1123.793
1122.273
1120.374
1127.872
1126.604
1125.288
1123.88
1122.231
1119.86
1129.302
1128.078
1126.811
1125.478
1124.002
1122.136
1118.993
1130.747
1129.568
1128.35
1127.08
1125.714
1124.134
1121.951
1117.729
1132.129
1130.995
1129.825
1128.613
1127.335
1125.93
1124.227
1121.691
1116.331
1133.409
1132.316
1131.19
1130.029
1128.82
1127.533
1126.088
1124.271
1121.417
1115.089
1134.576
1133.523
1132.437
1131.319
1130.163
1128.958
1127.661
1126.185
1124.283
1121.199
1114.503
1135.636
1134.62
1133.571
1132.491
1131.378
1130.227
1129.02
1127.719
1126.227
1124.284
1121.166
1114.641
1136.593
1135.613
1134.6
1133.554
1132.477
1131.367
1130.215
1129.009
1127.709
1126.221
1124.29
1121.332
1115.182
1137.454
1136.509
1135.53
1134.518
1133.473
1132.397
1131.284
1130.132
1128.928
1127.635
1126.145
1124.305
1121.596
1116.059
1138.222
1137.312
1136.367
1135.387
1134.374
1133.329
1132.249
1131.133
1129.98
1128.778
1127.469
1126.022
1124.327
1121.941
1117.225
1138.908
1138.031
1137.119
1136.173
1135.192
1134.177
1133.127
1132.042
1130.922
1129.766
1128.543
1127.255
1125.896
1124.369
1122.365
1139.527
1138.685
1137.806
1136.893
1135.945
1134.962
1133.942
1132.886
1131.796
1130.672
1129.5
1128.291
1127.063
1125.802
1124.466
1140.118
1139.31
1138.466
1137.587
1136.672
1135.722
1134.735
1133.711
1132.651
1131.556
1130.423
1129.262
1128.093
1126.928
1125.792
1124.691
1123.554
1122.429
1140.73
1139.957
1139.149
1138.306
1137.427
1136.512
1135.559
1134.569
1133.541
1132.479
1131.38
1130.256
1129.126
1128.001
1126.901
1125.817
1124.715
1123.616
1122.591
1141.362
1140.626
1139.855
1139.048
1138.205
1137.327
1136.41
1135.456
1134.464
1133.435
1132.37
1131.279
1130.178
1129.079
1127.996
1126.919
1125.825
1124.737
1123.67
1122.724
1141.998
1141.299
1140.564
1139.795
1138.989
1138.149
1137.27
1136.353
1135.398
1134.405
1133.373
1132.312
1131.237
1130.158
1129.087
1128.015
1126.923
1125.834
1124.76
1123.72
1122.836
1142.626
1141.963
1141.266
1140.533
1139.766
1138.963
1138.122
1137.243
1136.326
1135.371
1134.373
1133.34
1132.29
1131.229
1130.169
1129.104
1128.017
1126.928
1125.845
1124.781
1123.766
1122.932
1125.06
1123.716
1122.299
1120.777
1126.393
1125.091
1123.744
1122.301
1120.671
1127.733
1126.467
1125.165
1123.801
1122.291
1120.405
1129.091
1127.863
1126.601
1125.292
1123.891
1122.253
1119.896
1130.475
1129.289
1128.069
1126.808
1125.481
1124.014
1122.156
1119.036
1131.871
1130.729
1129.554
1128.341
1127.075
1125.716
1124.141
1121.968
1117.779
1133.207
1132.108
1130.977
1129.811
1128.603
1127.33
1125.928
1124.23
1121.707
1116.391
1134.443
1133.386
1132.296
1131.174
1130.016
1128.811
1127.526
1126.083
1124.272
1121.434
1115.427
1135.571
1134.553
1133.503
1132.42
1131.305
1130.153
1128.947
1127.652
1126.179
1124.284
1121.292
1115.099
1136.593
1135.613
1134.6
1133.554
1132.477
1131.367
1130.215
1129.009
1127.709
1126.221
1124.29
1121.332
1115.182
1137.515
1136.571
1135.594
1134.583
1133.541
1132.466
1131.356
1130.205
1128.999
1127.7
1126.191
1124.304
1121.484
1115.641
1138.341
1137.433
1136.49
1135.514
1134.505
1133.463
1132.386
1131.274
1130.122
1128.918
1127.593
1126.103
1124.323
1121.733
1116.428
1139.076
1138.202
1137.294
1136.352
1135.375
1134.365
1133.319
1132.239
1131.124
1129.971
1128.736
1127.414
1125.997
1124.352
1122.065
1139.728
1138.889
1138.015
1137.105
1136.162
1135.184
1134.169
1133.119
1132.034
1130.915
1129.732
1128.496
1127.226
1125.892
1124.406
1140.315
1139.51
1138.67
1137.794
1136.884
1135.938
1134.955
1133.935
1132.88
1131.791
1130.649
1129.466
1128.269
1127.055
1125.817
1140.872
1140.102
1139.296
1138.455
1137.579
1136.667
1135.717
1134.73
1133.706
1132.647
1131.542
1130.4
1129.243
1128.082
1126.935
1125.82
1124.712
1123.603
1122.535
1141.45
1140.715
1139.945
1139.14
1138.299
1137.422
1136.507
1135.555
1134.565
1133.539
1132.47
1131.367
1130.248
1129.127
1128.018
1126.925
1125.826
1124.736
1123.662
1122.687
1142.046
1141.348
1140.614
1139.845
1139.041
1138.201
1137.323
1136.407
1135.453
1134.462
1133.428
1132.36
1131.276
1130.185
1129.1
1128.019
1126.925
1125.835
1124.759
1123.715
1122.815
1142.647
1141.984
1141.287
1140.555
1139.788
1138.985
1138.145
1137.266
1136.35
1135.395
1134.396
1133.361
1132.307
1131.241
1130.175
1129.106
1128.019
1126.929
1125.845
1124.781
1123.764
1122.924
1143.238
1142.612
1141.952
1141.257
1140.527
1139.762
1138.959
1138.118
1137.239
1136.323
1135.359
1134.356
1133.329
1132.287
1131.238
1130.182
1129.106
1128.02
1126.934
1125.856
1124.803
1123.81
1123.018
1126.358
1125.058
1123.722
1122.313
1120.8
1127.654
1126.388
1125.093
1123.754
1122.32
1120.701
1128.956
1127.726
1126.465
1125.17
1123.814
1122.313
1120.437
1130.272
1129.08
1127.857
1126.601
1125.299
1123.907
1122.275
1119.932
1131.61
1130.46
1129.279
1128.064
1126.809
1125.489
1124.026
1122.177
1119.079
1132.959
1131.852
1130.714
1129.543
1128.335
1127.075
1125.719
1124.148
1121.985
1117.83
1134.249
1133.186
1132.09
1130.962
1129.801
1128.597
1127.325
1125.926
1124.233
1121.723
1116.679
1135.442
1134.421
1133.367
1132.28
1131.161
1130.007
1128.803
1127.519
1126.079
1124.274
1121.518
1115.97
1136.53
1135.549
1134.534
1133.486
1132.407
1131.295
1130.143
1128.938
1127.644
1126.173
1124.291
1121.449
1115.616
1137.515
1136.571
1135.594
1134.583
1133.541
1132.466
1131.356
1130.205
1128.999
1127.7
1126.191
1124.304
1121.484
1115.641
1138.4
1137.493
1136.552
1135.578
1134.57
1133.53
1132.455
1131.345
1130.194
1128.989
1127.655
1126.144
1124.319
1121.625
1116.022
1139.191
1138.32
1137.414
1136.475
1135.501
1134.494
1133.452
1132.375
1131.263
1130.112
1128.869
1127.526
1126.068
1124.341
1121.859
1139.892
1139.056
1138.185
1137.28
1136.34
1135.366
1134.355
1133.31
1132.23
1131.115
1129.926
1128.669
1127.368
1125.977
1124.377
1140.512
1139.71
1138.873
1138.001
1137.095
1136.153
1135.175
1134.161
1133.111
1132.026
1130.877
1129.676
1128.453
1127.2
1125.889
1141.065
1140.298
1139.495
1138.658
1137.785
1136.877
1135.931
1134.948
1133.929
1132.875
1131.763
1130.606
1129.431
1128.244
1127.045
1141.59
1140.857
1140.089
1139.286
1138.447
1137.573
1136.661
1135.712
1134.725
1133.702
1132.628
1131.508
1130.366
1129.213
1128.058
1126.931
1125.828
1124.733
1123.653
1122.64
1142.133
1141.435
1140.703
1139.935
1139.132
1138.294
1137.417
1136.503
1135.551
1134.562
1133.525
1132.445
1131.345
1130.233
1129.122
1128.026
1126.929
1125.836
1124.757
1123.709
1122.784
1142.694
1142.033
1141.336
1140.605
1139.838
1139.036
1138.197
1137.319
1136.403
1135.45
1134.45
1133.408
1132.344
1131.267
1130.188
1129.111
1128.022
1126.931
1125.846
1124.78
1123.761
1122.907
1143.259
1142.633
1141.973
1141.278
1140.549
1139.784
1138.981
1138.141
1137.263
1136.347
1135.382
1134.376
1133.346
1132.298
1131.243
1130.184
1129.108
1128.021
1126.934
1125.856
1124.803
1123.809
1123.012
1143.815
1143.225
1142.601
1141.943
1141.25
1140.523
1139.757
1138.955
1138.114
1137.236
1136.308
1135.335
1134.335
1133.316
1132.282
1131.242
1130.182
1129.107
1128.023
1126.939
1125.867
1124.825
1123.854
1123.101
1127.619
1126.353
1125.061
1123.732
1122.331
1120.829
1128.88
1127.647
1126.388
1125.099
1123.768
1122.343
1120.731
1130.143
1128.947
1127.721
1126.467
1125.179
1123.832
1122.337
1120.47
1131.415
1130.259
1129.072
1127.855
1126.605
1125.31
1123.923
1122.297
1119.969
1132.708
1131.594
1130.449
1129.272
1128.063
1126.813
1125.497
1124.039
1122.197
1119.122
1134.01
1132.94
1131.837
1130.703
1129.536
1128.332
1127.074
1125.721
1124.155
1122.002
1118.072
1135.254
1134.228
1133.168
1132.076
1130.952
1129.794
1128.591
1127.32
1125.924
1124.237
1121.802
1117.165
1136.406
1135.421
1134.402
1133.351
1132.268
1131.152
1129.998
1128.794
1127.511
1126.074
1124.283
1121.665
1116.452
1137.454
1136.509
1135.53
1134.518
1133.473
1132.397
1131.284
1130.132
1128.928
1127.635
1126.145
1124.305
1121.596
1116.059
1138.4
1137.493
1136.552
1135.578
1134.57
1133.53
1132.455
1131.345
1130.194
1128.989
1127.655
1126.144
1124.319
1121.625
1116.022
1139.249
1138.379
1137.475
1136.537
1135.565
1134.56
1133.519
1132.444
1131.334
1130.183
1128.937
1127.583
1126.105
1124.336
1121.753
1140.005
1139.171
1138.302
1137.399
1136.462
1135.491
1134.484
1133.442
1132.365
1131.253
1130.06
1128.792
1127.468
1126.039
1124.361
1140.672
1139.873
1139.039
1138.171
1137.268
1136.33
1135.356
1134.346
1133.301
1132.221
1131.068
1129.853
1128.611
1127.327
1125.961
1141.258
1140.494
1139.694
1138.86
1137.991
1137.086
1136.145
1135.167
1134.152
1133.103
1131.987
1130.816
1129.625
1128.415
1127.177
1141.779
1141.049
1140.284
1139.483
1138.648
1137.778
1136.869
1135.924
1134.941
1133.923
1132.844
1131.713
1130.562
1129.395
1128.218
1142.27
1141.574
1140.844
1140.078
1139.277
1138.441
1137.567
1136.655
1135.706
1134.72
1133.678
1132.583
1131.462
1130.32
1129.165
1128.033
1126.932
1125.837
1124.756
1123.702
1122.743
1142.779
1142.119
1141.423
1140.693
1139.928
1139.127
1138.289
1137.412
1136.499
1135.547
1134.544
1133.491
1132.412
1131.315
1130.21
1129.118
1128.026
1126.933
1125.847
1124.779
1123.757
1122.882
1143.306
1142.681
1142.021
1141.327
1140.598
1139.834
1139.032
1138.192
1137.315
1136.4
1135.434
1134.421
1133.382
1132.324
1131.256
1130.189
1129.111
1128.024
1126.935
1125.857
1124.803
1123.807
1122.999
1143.835
1143.246
1142.622
1141.964
1141.272
1140.544
1139.779
1138.977
1138.137
1137.259
1136.33
1135.354
1134.351
1133.327
1132.288
1131.244
1130.184
1129.108
1128.023
1126.939
1125.867
1124.825
1123.854
1123.097
1144.356
1143.802
1143.214
1142.593
1141.937
1141.246
1140.518
1139.753
1138.951
1138.111
1137.218
1136.277
1135.307
1134.313
1133.3
1132.279
1131.24
1130.181
1129.106
1128.024
1126.944
1125.877
1124.846
1123.897
1123.18
1128.846
1127.612
1126.353
1125.067
1123.746
1122.355
1120.858
1130.07
1128.871
1127.644
1126.391
1125.109
1123.786
1122.366
1120.761
1131.292
1130.132
1128.941
1127.721
1126.473
1125.192
1123.85
1122.36
1120.502
1132.522
1131.402
1130.251
1129.069
1127.857
1126.613
1125.322
1123.939
1122.32
1120.006
1133.768
1132.692
1131.583
1130.441
1129.269
1128.065
1126.818
1125.505
1124.051
1122.218
1119.336
1135.024
1133.991
1132.925
1131.826
1130.695
1129.532
1128.33
1127.074
1125.723
1124.163
1122.087
1118.522
1136.223
1135.234
1134.21
1133.154
1132.065
1130.944
1129.787
1128.585
1127.316
1125.922
1124.254
1121.947
1117.616
1137.332
1136.384
1135.402
1134.387
1133.339
1132.258
1131.143
1129.989
1128.786
1127.504
1126.053
1124.303
1121.807
1116.87
1138.341
1137.433
1136.49
1135.514
1134.505
1133.463
1132.386
1131.274
1130.122
1128.918
1127.593
1126.103
1124.323
1121.733
1116.428
1139.249
1138.379
1137.475
1136.537
1135.565
1134.56
1133.519
1132.444
1131.334
1130.183
1128.937
1127.583
1126.105
1124.336
1121.753
1140.062
1139.229
1138.362
1137.46
1136.524
1135.554
1134.549
1133.509
1132.433
1131.323
1130.129
1128.854
1127.52
1126.072
1124.353
1140.783
1139.986
1139.154
1138.288
1137.387
1136.452
1135.481
1134.474
1133.432
1132.355
1131.2
1129.978
1128.724
1127.419
1126.016
1141.416
1140.654
1139.857
1139.025
1138.159
1137.259
1136.321
1135.347
1134.337
1133.291
1132.173
1130.992
1129.789
1128.561
1127.293
1141.968
1141.241
1140.478
1139.681
1138.849
1137.982
1137.078
1136.137
1135.159
1134.144
1133.062
1131.921
1130.759
1129.58
1128.381
1142.457
1141.763
1141.035
1140.272
1139.474
1138.641
1137.77
1136.862
1135.917
1134.935
1133.889
1132.787
1131.661
1130.517
1129.359
1142.914
1142.255
1141.561
1140.833
1140.07
1139.271
1138.435
1137.561
1136.649
1135.701
1134.693
1133.626
1132.528
1131.403
1130.255
1129.126
1128.031
1126.935
1125.847
1124.778
1123.752
1122.848
1143.39
1142.765
1142.107
1141.413
1140.685
1139.922
1139.122
1138.283
1137.408
1136.494
1135.525
1134.502
1133.448
1132.37
1131.278
1130.196
1129.115
1128.026
1126.937
1125.857
1124.802
1123.805
1122.98
1143.882
1143.293
1142.669
1142.012
1141.32
1140.593
1139.829
1139.027
1138.188
1137.311
1136.38
1135.398
1134.387
1133.351
1132.3
1131.249
1130.187
1129.11
1128.025
1126.94
1125.867
1124.825
1123.853
1123.089
1144.376
1143.823
1143.235
1142.613
1141.958
1141.267
1140.54
1139.775
1138.973
1138.133
1137.24
1136.296
1135.322
1134.324
1133.305
1132.281
1131.242
1130.182
1129.107
1128.025
1126.944
1125.877
1124.846
1123.898
1123.179
1144.862
1144.343
1143.791
1143.206
1142.586
1141.932
1141.241
1140.513
1139.749
1138.947
1138.09
1137.182
1136.243
1135.277
1134.288
1133.291
1132.277
1131.237
1130.178
1129.105
1128.025
1126.948
1125.887
1124.867
1123.938
1123.291
1130.037
1128.837
1127.609
1126.356
1125.077
1123.765
1122.378
1120.888
1131.222
1130.059
1128.866
1127.645
1126.397
1125.123
1123.805
1122.39
1120.792
1132.404
1131.28
1130.124
1128.938
1127.724
1126.483
1125.206
1123.868
1122.384
1120.535
1133.589
1132.508
1131.392
1130.245
1129.068
1127.862
1126.621
1125.333
1123.955
1122.343
1120.189
1134.791
1133.752
1132.68
1131.574
1130.437
1129.269
1128.067
1126.823
1125.512
1124.064
1122.321
1119.781
1136
1135.005
1133.976
1132.913
1131.817
1130.69
1129.529
1128.328
1127.074
1125.726
1124.199
1122.251
1118.982
1137.155
1136.203
1135.217
1134.196
1133.143
1132.057
1130.937
1129.78
1128.579
1127.311
1125.913
1124.29
1122.092
1118.027
1138.222
1137.312
1136.367
1135.387
1134.374
1133.329
1132.249
1131.133
1129.98
1128.778
1127.469
1126.022
1124.327
1121.941
1117.225
1139.191
1138.32
1137.414
1136.475
1135.501
1134.494
1133.452
1132.375
1131.263
1130.112
1128.869
1127.526
1126.068