/*--------------------------------*- C++ -*----------------------------------*\
| =========                 |                                                 |
| \\      /  F ield         | OpenFOAM: The Open Source CFD Toolbox           |
|  \\    /   O peration     | Version:  2306                                  |
|   \\  /    A nd           | Website:  www.openfoam.com                      |
|    \\/     M anipulation  |                                                 |
\*---------------------------------------------------------------------------*/
FoamFile
{
    version     2.0;
    format      ascii;
    arch        "LSB;label=32;scalar=64";
    class       volVectorField;
    location    "0.3/phiEC";
    object      i;
}
// * * * * * * * * * * * * * * * * * * * * * * * * * * * * * * * * * * * * * //

dimensions      [0 -2 0 0 0 1 0];

internalField   nonuniform List<vector> 
20000
(
(27.30684 71.13056 15441.02)
(27.01185 208.0107 15287.94)
(64.97724 68.18062 14885.6)
(83.77823 235.0337 16075.57)
(26.44383 328.3943 14991.84)
(64.30473 199.3806 14738.9)
(82.79686 690.3634 15882)
(74.82892 64.40551 14122.47)
(198.7345 225.2201 15480.71)
(146.2791 458.2807 17508.21)
(25.64845 420.5382 14574.4)
(63.0101 314.7602 14455.15)
(80.89382 1098.687 15498.63)
(74.09791 188.3393 13983.91)
(196.5027 661.5193 15295.33)
(144.3441 1361.896 17258.68)
(70.12247 60.87045 13371.49)
(227.9932 212.7159 14676.22)
(344.8468 438.9305 16825.7)
(220.2797 734.0876 19966.26)
(24.69654 473.0527 14071.15)
(61.19778 403.0653 14055.15)
(78.20133 1420.831 14938.43)
(72.691 297.3248 13715.91)
(192.1764 1052.731 14928.24)
(140.5218 2215.534 16735.57)
(69.46402 178.0013 13240.54)
(225.5744 624.7828 14501.2)
(340.464 1304.323 16586.95)
(217.1431 2235.636 19756.57)
(61.41569 57.821 12706.05)
(213.1612 201.0319 13891.87)
(392.5963 414.4529 15929.27)
(514.5229 702.7223 19134.26)
(312.679 877.6587 23296.34)
(23.68181 477.5879 13531.94)
(59.02945 453.3864 13572.95)
(74.94332 1611.862 14234.92)
(70.72222 380.7317 13338.12)
(186.0585 1361.326 14391.88)
(134.9581 2947.954 15897.52)
(68.19694 281.0034 12987.26)
(220.8875 994.2443 14154.62)
(331.8124 2121.674 16086.51)
(210.7058 3821.011 19258.26)
(60.85056 169.0839 12581.66)
(210.9858 590.4626 13726.48)
(387.8694 1231.552 15703.95)
(507.4492 2139.897 18933.77)
(308.9047 2777.895 23441.85)
(53.06584 55.21918 12131.94)
(186.4933 190.9613 13199.96)
(365.3753 391.6612 15070.14)
(579.106 663.3513 18082.09)
(721.6799 839.9156 22253.59)
(399.7922 551.7139 25705.89)
(22.71066 432.3102 13015.95)
(56.71838 457.7291 13056.31)
(71.44421 1632.81 13458.1)
(68.36747 428.2587 12882.71)
(178.659 1544.291 13718.4)
(128.0013 3433.712 14712.62)
(66.42413 359.83 12630.22)
(214.2635 1285.657 13648.26)
(319.231 2822.749 15284.97)
(200.7125 5466.732 18268.5)
(59.76312 266.9259 12341.06)
(206.7713 939.6225 13398.96)
(378.5458 2003.204 15231.71)
(492.9496 3656.705 18457.47)
(300.6801 5191.677 23778.78)
(52.58128 161.4756 12013.15)
(184.6272 560.8836 13042.85)
(361.1343 1163.817 14857.24)
(571.5167 2019.903 17892.95)
(713.1881 2657.905 22392.53)
(397.4826 1647.549 26132.66)
(46.17199 52.97545 11635.33)
(161.0775 182.3708 12604.02)
(318.9852 372.0432 14318.48)
(535.32 626.8293 17095.7)
(800.3076 792.7406 20988.86)
(912.4343 528.6178 24492.59)
(463.0466 342.2412 26686.13)
(21.88458 342.7572 12578.41)
(54.50652 414.3378 12561.92)
(68.09673 1474.75 12720.32)
(65.85821 432.3586 12394.78)
(170.7142 1564.344 12974.78)
(120.3449 3506.797 13247.4)
(64.30411 404.7462 12199.83)
(206.2565 1458.42 13012.49)
(303.5151 3287.58 14151.95)
(187.0779 6912.101 16334.05)
(58.24174 341.8034 12001.92)
(200.8166 1215.016 12920.48)
(365.0025 2664.981 14475.4)
(470.4818 5230.454 17511.8)
(286.2985 8796.373 24448.49)
(51.64889 254.9152 11783.38)
(181.0123 892.5525 12731.74)
(352.7724 1893.005 14411.04)
(555.983 3451.337 17443.68)
(694.7277 4965.615 22714.43)
(392.8511 2653.721 27122.66)
(45.75104 154.9145 11521.36)
(159.4776 535.6526 12453.98)
(315.3506 1105.523 14116.24)
(528.5286 1908.667 16917)
(791.2236 2508.373 21119.85)
(907.1853 1578.138 24899.88)
(461.7089 984.3407 27062.56)
(40.70168 51.00965 11200.37)
(140.1428 174.9627 12088.74)
(275.3093 355.3146 13673.07)
(465.9073 595.4375 16241.69)
(733.4553 749.0755 19830.8)
(997.8253 499.2242 23067.28)
(1049.125 328.8643 25373.66)
(531.0389 175.285 27303.06)
(21.28634 219.4905 12262.73)
(52.62477 328.514 12142.67)
(65.26348 1163.696 12108.43)
(63.4566 391.3741 11927.86)
(163.1129 1412.943 12268.5)
(113.0729 3131.643 11939.18)
(62.04521 408.6204 11738.71)
(197.6621 1477.349 12310.54)
(286.2287 3357.512 12751.13)
(170.6996 7179.705 12428.58)
(56.42251 384.4695 11593.09)
(193.6206 1378.278 12319.71)
(348.1047 3103.689 13406.47)
(439.8898 6611.972 15664.14)
(261.9831 15113.55 25866.36)
(50.34446 326.4239 11459.49)
(175.9052 1154.15 12277.22)
(340.6326 2518.338 13696.46)
(531.9654 4936.135 16551.85)
(662.5611 8409.403 23354.69)
(386.1793 3167.768 29023.34)
(44.94103 244.5576 11300.93)
(156.3786 852.403 12156.85)
(308.1851 1798.187 13692.38)
(514.6378 3261.192 16492.54)
(771.5314 4685.408 21423.42)
(896.6973 2540.688 25845.13)
(459.1574 1455.007 27840.72)
(40.3303 149.166 11090.63)
(138.753 513.8944 11944.78)
(272.1939 1055.816 13479.92)
(460.0922 1813.081 16071.93)
(725.3387 2370.143 19954.51)
(992.1461 1490.179 23451.16)
(1046.003 945.4486 25731.98)
(530.5404 492.9548 27604.03)
(36.35527 49.26158 10814.09)
(123.5456 168.472 11637.39)
(239.4997 340.8887 13115.42)
(401.6883 568.6788 15511.22)
(635.8817 711.5745 18839.03)
(907.3283 471.8263 21784.64)
(1136.942 311.0206 23871.26)
(1193.921 170.2995 25898.31)
(603.5217 41.27916 27633.08)
(20.97289 75.48427 12097.77)
(51.26178 210.3736 11840.18)
(63.22378 741.7942 11676.71)
(61.41306 310.3098 11531.9)
(156.6773 1114.967 11682.69)
(107.0328 2429.975 10934.82)
(59.8832 369.8864 11297.44)
(189.4385 1334.382 11643.83)
(269.8042 2998.523 11500.17)
(155.8986 6099.925 9960.136)
(54.48416 388.1494 11155.07)
(185.8979 1396.164 11656.41)
(329.5314 3169.688 12084.98)
(403.1989 6867.912 11934.8)
(219.1013 16254.63 5881.402)
(48.78466 367.1705 11069.05)
(169.7342 1309.234 11706.54)
(325.4941 2932.869 12686.52)
(499.3423 6239.271 14809.65)
(608.3948 14441.58 24710.47)
(379.1877 1609.881 32554.17)
(43.80781 313.1612 10990.19)
(152.0004 1102.236 11722.76)
(297.7842 2392.198 13013.58)
(493.182 4664.046 15650)
(737.3608 7933.044 22027.41)
(881.6632 3031.134 27660.72)
(455.8549 1488.664 29022.39)
(39.61566 235.4829 10878.37)
(136.0606 817.7799 11659.72)
(266.0522 1717.341 13075.09)
(448.2013 3097.871 15668.71)
(707.7663 4426.987 20241.27)
(980.8448 2398.501 24342.3)
(1040.087 1396.467 26473.35)
(529.5886 693.8873 28168.95)
(36.02307 144.0542 10708.11)
(122.3193 494.8303 11498.77)
(236.7931 1012.951 12930.1)
(396.7049 1731.607 15349.07)
(628.9355 2251.483 18956.53)
(902.2292 1408.333 22147.2)
(1133.465 893.954 24208.57)
(1192.584 478.4516 26182.96)
(603.8154 118.451 27895.74)
(32.84283 47.68764 10466.79)
(110.3613 162.6998 11236.46)
(211.1583 328.248 12626.86)
(349.3846 545.6036 14880.62)
(547.5242 679.6135 17993.97)
(783.9247 448.2335 20694.7)
(1028.672 294.1011 22536.96)
(1281.495 161.9154 24336.25)
(1345.807 44.2157 26139.89)
(680.3585 -87.36962 27715.38)
(20.97289 -75.48427 12097.77)
(50.54752 72.34977 11682.11)
(62.15972 254.4275 11454.58)
(59.93255 198.718 11246.21)
(152.0426 710.7566 11269.32)
(102.7638 1527.199 10268.62)
(58.04337 293.2735 10923.24)
(182.4734 1052.993 11090.8)
(256.1513 2326.883 10539.56)
(144.3154 4504.804 8424.341)
(52.62896 351.3558 10735.9)
(178.5081 1261.056 11026.41)
(311.8763 2830.87 10904.77)
(369.9951 5836.083 9576.697)
(189.7606 11140.12 4265.835)
(47.12276 370.6849 10650.73)
(163.1119 1326.223 11076.47)
(308.8604 2995.229 11438)
(460.2876 6480.758 11293.54)
(513.2367 15532.4 5639.393)
(42.45275 352.2525 10615.61)
(146.7102 1250.345 11177.74)
(284.8168 2785.967 12054.21)
(464.0717 5895.193 14004.19)
(680.0954 13620.31 23306.53)
(865.9906 1539.966 31034.2)
(453.0484 675.7569 30351.75)
(38.61587 301.5411 10579.17)
(132.257 1057.467 11243.25)
(257.1377 2284.655 12426.78)
(429.8412 4430.474 14868.35)
(677.3323 7495.043 20811.87)
(964.7366 2860.701 26054.36)
(1032.494 1427.574 27600.33)
(528.3852 656.7367 28887.97)
(35.38383 227.4133 10503.13)
(119.9439 787.4435 11224.27)
(231.4572 1647.625 12541.69)
(386.5151 2958.681 14963.95)
(613.904 4205.344 19228.89)
(892.1004 2266.593 22988.92)
(1126.923 1319.914 24906.76)
(1190.093 672.3356 26717.95)
(604.2582 171.0663 28357.61)
(32.54232 139.4517 10364.19)
(109.2643 477.8767 11102.59)
(208.77 975.3905 12448.41)
(345.0548 1661.349 14725.04)
(541.5718 2150.365 18106.18)
(779.5529 1337.9 21039.05)
(1025.513 845.2595 22855.39)
(1279.805 454.6746 24603.39)
(1346.067 125.8154 26385.19)
(681.5951 -231.5699 28003.34)
(29.94236 46.25646 10151.35)
(99.70606 157.5023 10875.89)
(188.6539 317.0056 12192.7)
(308.0907 525.3817 14327.98)
(476.1478 652.0508 17265.02)
(674.2488 428.1079 19768.39)
(886.8546 279.4384 21409.45)
(1153.509 153.3971 22968.78)
(1429.895 43.88311 24532.15)
(1504.014 -75.00375 26137.31)
(761.3293 -246.6811 27525.5)
(21.28634 -219.4905 12262.73)
(50.54752 -72.34976 11682.11)
(62.15972 -254.4274 11454.58)
(59.15656 68.34167 11096.91)
(149.6241 243.7869 11056.62)
(100.5645 519.7486 9938.768)
(56.7103 187.8086 10653.24)
(177.4553 671.2621 10700.54)
(246.4945 1462.516 9902.258)
(136.4966 2733.89 7529.84)
(51.05018 278.5809 10380.45)
(172.2481 995.1344 10503.82)
(297.1871 2196.878 9998.38)
(343.9644 4310.785 8109.006)
(170.0997 7290.565 3361.304)
(45.53214 335.5465 10250.42)
(156.7749 1197.883 10478.02)
(293.0455 2675.079 10322.93)
(424.8862 5507.58 9069.845)
(447.8622 10650.1 4096.525)
(41.00897 355.6242 10214.29)
(141.0332 1266.57 10575.98)
(270.5703 2845.201 10868.21)
(429.252 6123.35 10682.68)
(579.9552 14649.3 5331.213)
(37.42034 339.1821 10218.48)
(127.6611 1199.562 10720.34)
(246.0241 2660.73 11510.49)
(404.9407 5599.971 13304.92)
(626.4409 12867.52 22020.37)
(948.0454 1453.155 29235.81)
(1026.096 647.6917 28869.3)
(527.433 280.5191 29493.53)
(34.48952 291.208 10214.17)
(116.5879 1018.24 10823.24)
(223.7124 2191.917 11919.66)
(370.7831 4231.441 14199.49)
(587.8881 7119.79 19770.88)
(877.6997 2703.14 24606.2)
(1118.605 1348.758 25968.67)
(1187.035 635.1805 27400.06)
(604.6455 164.0915 28881.87)
(31.96406 220.1475 10165.76)
(107.1393 760.4653 10837.49)
(204.0616 1586.535 12074.39)
(336.2017 2838.653 14355.51)
(528.6924 4016.512 18366.29)
(770.8744 2153.206 21838.55)
(1019.587 1247.858 23514.61)
(1276.718 638.4002 25105.77)
(1346.405 179.3676 26817.03)
(683.6469 -292.2477 28499.27)
(29.66809 135.2665 10051.83)
(98.71369 462.611 10746.3)
(186.5173 941.9847 12020.35)
(304.2698 1599.778 14178.16)
(470.9759 2063.165 17372.67)
(670.5001 1277.83 20097.26)
(884.1349 803.1024 21711.85)
(1151.901 430.68 23220.69)
(1429.693 124.4308 24760.98)
(1506.06 -198.6857 26402.03)
(763.9468 -665.4419 27918.99)
(27.49806 44.94494 9862.546)
(90.90591 152.7761 10548.35)
(170.4646 306.8817 11802.06)
(275.3205 507.3948 13836.58)
(419.9657 627.8941 16625.94)
(586.2803 410.747 18969.72)
(762.2634 266.9036 20452.89)
(992.332 145.8349 21820.11)
(1280.286 42.19467 23146.51)
(1580.834 -66.91708 24497)
(1667.645 -220.506 25870.63)
(845.8459 -480.8557 26958.68)
(21.88458 -342.7572 12578.41)
(51.26178 -210.3736 11840.18)
(63.22378 -741.7942 11676.71)
(59.15656 -68.34167 11096.91)
(149.6241 -243.7868 11056.62)
(100.5645 -519.7486 9938.768)
(56.01154 64.58989 10512.15)
(174.8359 230.2428 10499.73)
(241.517 497.756 9586.67)
(132.5793 914.1373 7117.625)
(49.90621 178.3996 10123.97)
(167.737 634.3812 10135.04)
(286.788 1380.856 9397.001)
(326.3669 2616.529 7253.915)
(157.9487 4140.632 2872.954)
(44.17851 266.0459 9910.958)
(151.4065 945.282 9981.604)
(279.8818 2076 9466.551)
(397.0744 4068.522 7685.568)
(403.9059 6972.446 3232.382)
(39.62713 321.9133 9830.236)
(135.6008 1144.002 10004.43)
(257.0241 2541.084 9808.978)
(397.6656 5203.951 8581.967)
(510.8223 10046.81 3876.5)
(36.14655 342.4288 9832.042)
(122.7291 1215.128 10143.01)
(233.8145 2717.301 10377.73)
(375.1656 5816.697 10149.68)
(537.6331 13839.67 5041.055)
(33.42013 327.5593 9865.847)
(112.5328 1155.066 10319.72)
(214.0569 2552.734 11040.52)
(349.4488 5348.438 12706.18)
(544.418 12223.31 20918.84)
(862.8179 1373.054 27611.72)
(1111.66 611.7767 27164.88)
(1184.678 270.997 27975.59)
(604.8416 70.19704 29256.04)
(31.15505 281.9041 9886.032)
(104.1372 983.3562 10450.19)
(197.2275 2110.652 11475.4)
(322.533 4059.811 13622.01)
(506.405 6800.184 18883.91)
(758.5471 2567.877 23374.77)
(1012.08 1274.948 24517.45)
(1273.025 602.5878 25746.88)
(1346.603 169.9258 27308.02)
(685.7704 -241.6925 29041.62)
(29.14032 213.5406 9859.352)
(96.79133 736.173 10489.67)
(182.3051 1532.201 11659.13)
(296.4569 2733.463 13822.31)
(459.7851 3853.675 17622.22)
(663.0602 2056.535 20860.83)
(879.0362 1185.583 22337.93)
(1148.984 604.5351 23694.54)
(1429.263 176.4234 25164.05)
(1509.449 -250.494 26858.07)
(768.3788 -867.2124 28610.94)
(27.24597 131.4313 9765.851)
(90.00016 448.7294 10422.64)
(168.5315 911.9022 11635.22)
(271.9019 1545.011 13691.88)
(415.4011 1986.738 16729.59)
(583.0226 1226.014 19285.25)
(759.9279 767.0748 20741.68)
(990.9241 409.4272 22059.25)
(1279.927 119.5007 23361.83)
(1582.142 -177.2224 24742.1)
(1672.191 -594.9463 26228.13)
(850.6804 -1317.009 27553.07)
(25.40279 43.73559 9596.417)
(83.48857 148.4449 10248.42)
(155.4371 297.675 11447.08)
(248.8288 491.1959 13394.2)
(375.4103 606.4053 16057.31)
(517.2168 395.5308 18269.27)
(662.7706 256.0832 19628.32)
(852.3626 139.318 20847.27)
(1099.005 40.29855 21989.86)
(1407.738 -61.92236 23106.62)
(1732.963 -201.2152 24214.26)
(1835.139 -432.511 25246.45)
(932.5521 -841.0714 25814.59)
(22.71066 -432.3102 13015.95)
(52.62477 -328.514 12142.67)
(65.26348 -1163.696 12108.43)
(59.93255 -198.718 11246.21)
(152.0426 -710.7565 11269.32)
(102.7638 -1527.199 10268.62)
(56.01154 -64.58988 10512.15)
(174.8359 -230.2428 10499.73)
(241.517 -497.756 9586.67)
(132.5793 -914.1372 7117.625)
(49.30654 61.354 9989.946)
(165.3819 217.5932 9945.278)
(281.4244 469.9734 9099.18)
(317.5416 874.9639 6859.784)
(152.1326 1344.18 2657.933)
(43.19767 170.3722 9666.019)
(147.5376 602.6009 9631.302)
(270.5586 1304.889 8898.339)
(378.2392 2469.662 6878.96)
(376.6706 3960.96 2765.694)
(38.45118 255.2363 9504.561)
(130.9986 902.7611 9530.333)
(245.7472 1972.01 8995.488)
(372.8266 3844.315 7274.195)
(464.1494 6578.649 3061.596)
(34.9274 309.9686 9462.239)
(118.0096 1097.537 9594.652)
(222.205 2426.848 9366.062)
(348.1483 4943.325 8154.135)
(476.1875 9492.047 3666.844)
(32.28072 330.6947 9492.647)
(108.1812 1170.055 9763.783)
(203.4492 2607.01 9953.676)
(323.9397 5555.425 9692.453)
(468.6154 13146.77 4789.307)
(30.18765 317.0941 9548.832)
(100.5097 1115.495 9963.91)
(188.7072 2458.098 10628.81)
(303.9968 5131.537 12189.18)
(469.1714 11674.8 19980.3)
(745.8203 1304.337 26229.76)
(1005.839 578.2483 25647.31)
(1270.245 256.9468 26288.29)
(1346.62 72.15793 27659.11)
(687.1254 -93.64496 29408.68)
(28.40195 273.4439 9588.022)
(94.07544 951.9446 10114.73)
(176.191 2038.374 11080.63)
(284.394 3909.392 13115.95)
(440.4197 6524.581 18118.84)
(652.4949 2452.599 22328.06)
(872.5881 1211.277 23290.41)
(1145.526 570.4451 24299.43)
(1428.668 166.242 25622.72)
(1512.951 -206.9076 27357)
(773.1076 -745.3165 29393.5)
(26.76089 207.4861 9578.826)
(88.2456 714.0829 10173.71)
(164.7206 1483.272 11285.53)
(264.9115 2639.895 13348.2)
(405.5242 3710.951 16969.89)
(576.5572 1973.154 20017.86)
(755.5509 1132.391 21339.59)
(988.3766 574.6536 22509.12)
(1279.252 169.1172 23741.17)
(1584.304 -223.3359 25164.42)
(1679.89 -775.6043 26856.74)
(859.0665 -1766.76 28649.54)
(25.16976 127.8948 9502.324)
(82.65606 436.008 10126.27)
(153.6727 884.545 11285.24)
(245.7357 1495.688 13254.11)
(371.326 1918.75 16157.41)
(514.3416 1180.599 18573.11)
(660.7401 735.9777 19905.39)
(851.1468 391.1255 21075.63)
(1098.641 114.0884 22194.13)
(1408.587 -163.9841 23336.63)
(1736.233 -542.9852 24543.45)
(1843.613 -1184.804 25783.07)
(940.9467 -2356.302 26702.78)
(23.579 42.61466 9349.884)
(77.12963 144.451 9972.006)
(142.7668 289.2375 11121.94)
(226.9317 476.4635 12992)
(339.3818 587.051 15545.06)
(462.4747 381.9953 17645.72)
(584.7828 246.5984 18904.93)
(741.0764 133.6777 20008.83)
(943.3906 38.55218 21011.97)
(1205.786 -58.43208 21953.56)
(1534.63 -187.8074 22834.37)
(1884.459 -396.1148 23599.55)
(2003.558 -757.1255 24085.01)
(1018.805 -1369.039 23799.62)
(23.68181 -477.5879 13531.94)
(54.50652 -414.3378 12561.92)
(68.09673 -1474.75 12720.32)
(61.41306 -310.3098 11531.9)
(156.6773 -1114.967 11682.69)
(107.0328 -2429.975 10934.82)
(56.7103 -187.8086 10653.24)
(177.4553 -671.2621 10700.54)
(246.4945 -1462.516 9902.258)
(136.4966 -2733.89 7529.84)
(49.30654 -61.35399 9989.946)
(165.3819 -217.5932 9945.278)
(281.4244 -469.9734 9099.18)
(317.5416 -874.9638 6859.784)
(152.1326 -1344.18 2657.933)
(42.68352 58.59324 9538.025)
(145.5177 206.6925 9451.042)
(265.7486 444.1205 8616.939)
(368.7821 825.884 6507.141)
(363.6137 1286.018 2560.167)
(37.59909 163.4497 9269.572)
(127.6819 575.4936 9195.779)
(237.7591 1239.524 8455.733)
(355.9906 2333.606 6512.141)
(435.1429 3737.71 2621.436)
(33.8899 245.7655 9148.645)
(114.0115 866.0932 9139.797)
(212.54 1883.35 8589.107)
(326.8952 3651.772 6911.844)
(434.6266 6215.652 2897.007)
(31.19019 299.3468 9135.514)
(104.0171 1056.825 9235.752)
(193.3629 2328.339 8983.022)
(300.792 4721.247 7786.444)
(416.1286 9016.748 3483.89)
(29.15691 320.1294 9187.553)
(96.61696 1129.971 9427.01)
(179.3466 2510.361 9582.211)
(281.833 5330.129 9297.477)
(404.2542 12556.78 4573.806)
(27.51902 307.5779 9260.94)
(90.79376 1079.863 9643.977)
(168.5682 2373.925 10263.01)
(268.0346 4941.437 11736.13)
(408.0672 11201.81 19170.77)
(641.5903 1245.786 25054.9)
(867.234 549.3589 24363.61)
(1142.945 243.1928 24810.42)
(1428.177 70.36634 25951.01)
(1515.181 -80.09559 27694.84)
(776.226 -296.8649 29945.53)
(26.08224 265.6911 9315.188)
(85.76677 923.3805 9810.023)
(159.1889 1973.284 10725.49)
(254.1181 3775.588 12665.99)
(388.4315 6283.004 17448.1)
(567.3762 2353.178 21425.6)
(750.0182 1156.927 22249.26)
(985.3659 542.1986 23083.46)
(1278.421 159.065 24172.99)
(1586.528 -184.3744 25626.59)
(1688.106 -666.8443 27567.53)
(868.3672 -1576.281 29994.16)
(24.72136 201.9033 9320.331)
(81.04337 693.8391 9884.398)
(150.1942 1438.775 10946.03)
(239.4107 2555.624 12921.39)
(362.488 3583.98 16389.47)
(508.6353 1900.071 19278.58)
(656.935 1086.486 20479.04)
(848.9488 548.9531 21505.22)
(1097.968 161.364 22554.03)
(1409.986 -206.6277 23732.97)
(1741.773 -708.0655 25122.31)
(1858.312 -1589.892 26773.04)
(956.0284 -3308.304 28458.75)
(23.36259 124.6169 9258.202)
(76.36004 424.2773 9853.146)
(141.145 859.4733 10964.68)
(224.1083 1450.829 12856.11)
(335.6861 1857.515 15641.97)
(459.9022 1140.2 17939.16)
(582.9906 708.7192 19171.73)
(740.0177 375.2894 20227.91)
(943.0617 109.1314 21206.98)
(1206.409 -154.7407 22171.57)
(1536.981 -506.847 23142.68)
(1890.687 -1085.28 24092.31)
(2018.268 -2121.539 24883.86)
(1032.572 -3961.17 25002.88)
(21.9683 41.57148 9120.551)
(71.59413 140.749 9715.923)
(131.9019 281.4569 10822.22)
(208.46 462.9613 12623.47)
(309.5831 569.448 15079.11)
(418.1969 369.8048 17083.73)
(522.9857 238.1615 18260.69)
(653.9791 128.7314 19272.99)
(820.1989 37.00912 20169.25)
(1034.423 -55.6906 20980.3)
(1311.638 -177.7108 21697.45)
(1659.419 -370.2344 22251.37)
(2032.472 -693.9741 22489.09)
(2167.689 -1231.369 22123.36)
(1100.178 -2044.33 40150.74)
(24.69654 -473.0527 14071.15)
(56.71838 -457.7291 13056.31)
(71.44421 -1632.81 13458.1)
(63.4566 -391.3741 11927.86)
(163.1129 -1412.943 12268.5)
(113.0729 -3131.643 11939.18)
(58.04337 -293.2735 10923.24)
(182.4734 -1052.993 11090.8)
(256.1513 -2326.883 10539.56)
(144.3154 -4504.804 8424.341)
(49.90621 -178.3996 10123.97)
(167.737 -634.3812 10135.04)
(286.788 -1380.856 9397.001)
(326.3669 -2616.529 7253.915)
(157.9487 -4140.632 2872.954)
(42.68352 -58.59324 9538.025)
(145.5177 -206.6925 9451.042)
(265.7486 -444.1205 8616.939)
(368.7821 -825.884 6507.141)
(363.6137 -1286.018 2560.167)
(37.15243 56.21247 9146.777)
(125.9503 197.3945 9023.623)
(233.6375 421.8732 8188.427)
(347.5327 780.3928 6160.852)
(421.2109 1213.611 2427.572)
(33.13813 157.3847 8922.374)
(111.1301 552.1177 8818.822)
(205.6936 1183.792 8073.598)
(312.4857 2216.723 6187.949)
(408.7608 3531.575 2481.175)
(30.26215 237.3436 8832.664)
(100.4894 833.9652 8797.759)
(184.9661 1806.896 8237.572)
(282.5818 3487.689 6599.907)
(380.6047 5904.382 2752.596)
(28.17039 289.7829 8841.829)
(92.8919 1020.619 8917.058)
(170.4462 2242.017 8647.503)
(261.7213 4529.747 7468.671)
(359.2979 8611.94 3326.942)
(26.57828 310.5221 8910.502)
(87.27205 1093.877 9124.219)
(160.1936 2424.399 9252.216)
(248.4732 5132.671 8951.406)
(351.6586 12048.03 4387.735)
(25.27072 298.8574 8997.379)
(82.77151 1047.461 9353.388)
(152.2922 2298.123 9933.961)
(239.4799 4772.329 11333.35)
(359.874 10787.18 18461.06)
(557.9007 1195.291 24041.94)
(745.4262 524.7077 23274.25)
(983.1258 231.1373 23568.71)
(1277.796 67.25385 24482.17)
(1587.939 -71.34386 25939.63)
(1693.525 -265.6803 28068.81)
(874.7967 -645.6749 31053.17)
(24.09401 258.5422 9063.786)
(78.76495 897.2037 9531.018)
(145.145 1914.089 10402.79)
(229.6443 3655.076 12260.94)
(347.1923 6068.078 16851.31)
(500.532 2266.034 20634.19)
(652.1257 1110.03 21351.82)
(846.3539 517.9369 22053.69)
(1097.162 151.6863 22963.76)
(1411.422 -170.5542 24166.78)
(1747.689 -608.9728 25776.88)
(1874.612 -1418.979 27987.21)
(973.8028 -3148.946 30900.51)
(22.94616 196.7286 9080.873)
(74.86924 675.1718 9617.777)
(137.9476 1397.995 10635.08)
(218.3346 2478.981 12533.36)
(327.6887 3469.613 15866.62)
(454.7962 1835.058 18620.48)
(579.6322 1046.247 19724.12)
(738.104 526.7237 20640.05)
(942.4577 154.3247 21550.58)
(1207.436 -194.9792 22547.27)
(1540.967 -661.0391 23684.85)
(1901.493 -1456.763 25001.53)
(2044.692 -2979.744 26464.1)
(1058.532 -5964.496 27602.13)
(21.76659 121.5664 9031.114)
(70.87941 413.4041 9600.108)
(130.4026 836.3533 10669.2)
(205.8646 1409.716 12491.43)
(306.2094 1801.819 15173.1)
(415.8691 1103.814 17367.8)
(521.3822 684.4721 18518.36)
(653.0445 361.4021 19483.94)
(819.9088 104.759 20356.32)
(1034.927 -147.4825 21188.37)
(1313.467 -479.6201 21989.5)
(1663.982 -1014.468 22712.39)
(2043.301 -1944.968 23221.58)
(2191.732 -3563.902 23201.71)
(1121.064 -6158.817 42842.74)
(20.52959 40.5976 8906.518)
(66.70483 137.3038 9477.69)
(122.4423 274.2447 10544.51)
(192.615 450.5097 12283.68)
(284.4297 553.3142 14652)
(381.5534 358.7177 16572.34)
(472.9916 230.5636 17679.85)
(584.982 124.3319 18617.37)
(723.929 35.6509 19429.31)
(899.3424 -53.39296 20141.57)
(1124.589 -169.5182 20739.22)
(1415.301 -350.4826 21147.5)
(1779.835 -648.8351 21204.9)
(2172.47 -1128.608 20643.03)
(2319.218 -1835.47 37161.05)
(150.2993 -414.7231 12638.18)
(25.64845 -420.5382 14574.4)
(59.02945 -453.3864 13572.95)
(74.94332 -1611.862 14234.92)
(65.85821 -432.3586 12394.78)
(170.7142 -1564.344 12974.78)
(120.3449 -3506.796 13247.4)
(59.8832 -369.8864 11297.44)
(189.4385 -1334.382 11643.83)
(269.8042 -2998.523 11500.17)
(155.8986 -6099.925 9960.136)
(51.05018 -278.5809 10380.45)
(172.2481 -995.1344 10503.82)
(297.1871 -2196.878 9998.38)
(343.9644 -4310.785 8109.006)
(170.0997 -7290.565 3361.304)
(43.19767 -170.3722 9666.019)
(147.5376 -602.6009 9631.302)
(270.5586 -1304.889 8898.339)
(378.2392 -2469.662 6878.96)
(376.6706 -3960.96 2765.694)
(37.15243 -56.21247 9146.777)
(125.9503 -197.3945 9023.623)
(233.6375 -421.8732 8188.427)
(347.5327 -780.3928 6160.852)
(421.2109 -1213.611 2427.572)
(32.74406 54.1266 8804.135)
(109.6257 189.3764 8653.655)
(202.1609 402.9041 7818.301)
(305.2453 741.3045 5854.252)
(396.3264 1146.698 2298.022)
(29.5897 151.9913 8614.145)
(97.94712 531.6361 8488.684)
(179.018 1135.733 7742.969)
(270.2346 2117.107 5908.51)
(358.4853 3354.708 2357.585)
(27.33086 229.7606 8548.653)
(89.73622 805.3936 8494.063)
(163.0367 1739.901 7929.666)
(245.8998 3346.198 6330.21)
(328.8667 5639.219 2628.46)
(25.6779 281.0863 8575.152)
(83.90209 988.0173 8630.549)
(152.2307 2165.24 8349.49)
(230.7235 4361.915 7190.277)
(312.5963 8262.874 3191.361)
(24.40606 301.7181 8656.876)
(79.55716 1061.054 8849.219)
(144.715 2346.986 8955.416)
(221.976 4957.017 8643.818)
(310.0785 11602.07 4224.678)
(23.34384 290.8161 8754.527)
(76.01185 1017.767 9087.324)
(138.8498 2229.186 9634.988)
(216.3987 4620.016 10970.8)
(321.6353 10418.28 17829.61)
(492.1683 1151.031 23153.67)
(648.1346 503.4393 22335.26)
(844.425 220.7913 22517.1)
(1096.566 64.11209 23257.16)
(1412.33 -65.98823 24460.66)
(1751.595 -242.6773 26238.54)
(1885.88 -581.3796 28943.61)
(987.182 -1355.872 33240.91)
(22.36355 251.9159 8830.903)
(72.76303 873.0653 9273.902)
(133.3064 1859.839 10107.23)
(209.4194 3545.468 11892.7)
(313.8472 5874.477 16313.71)
(447.5451 2188.508 19929.71)
(575.3874 1068.923 20564.57)
(735.8455 496.9607 21166.26)
(941.7385 145.0433 21941.77)
(1208.488 -160.937 22958.51)
(1545.23 -568.6239 24297.99)
(1913.482 -1300.599 26116.97)
(2075.826 -2837.41 28663.29)
(1092.089 -6358.441 31930.59)
(21.37846 191.9128 8858.126)
(69.49489 657.8689 9370.77)
(127.4468 1360.39 10348.46)
(200.5573 2408.736 12177.82)
(298.9087 3365.59 15391.01)
(411.249 1776.501 18027.38)
(518.3773 1010.453 19051.84)
(651.3552 507.2309 19880.8)
(819.3769 148.1319 20685.94)
(1035.757 -185.8374 21546.95)
(1316.57 -625.5782 22503.11)
(1671.907 -1361.942 23563.2)
(2062.757 -2732.726 24671.2)
(2237.067 -5369.319 25534.2)
(1162.822 -10236.02 49285.42)
(20.34105 118.7185 8819.176)
(66.03867 403.285 9364.709)
(121.0498 814.9225 10395.4)
(190.2156 1371.802 12155.19)
(281.3284 1750.771 14743.33)
(379.4285 1070.721 16847.89)
(471.5408 662.6355 17929.29)
(584.146 349.05 18821.09)
(723.6724 100.9115 19609.43)
(899.7724 -141.3997 20341.15)
(1126.103 -457.5217 21017.89)
(1418.888 -960.3995 21584.06)
(1787.806 -1818.682 21889.82)
(2190.092 -3267.389 21630.43)
(2355.512 -5532.371 39552.94)
(154.7286 -1321.769 13500.88)
(19.23608 39.68605 8706.218)
(62.33714 134.0874 9255.339)
(114.0851 267.5326 10286.12)
(178.816 438.9675 11968.76)
(262.8438 538.4352 14258.1)
(350.6038 348.5561 16103.45)
(431.6015 223.6538 17151.15)
(529.1511 120.3708 18026.02)
(647.6828 34.44347 18769.69)
(793.9352 -51.38987 19404.7)
(977.759 -162.5713 19913.29)
(1212.839 -334.3664 20218.13)
(1514.961 -614.2662 20159.25)
(1892.403 -1055.153 19471.12)
(2297.696 -1681.382 34684.7)
(311.4924 -370.4304 11686.21)
(177.9337 -662.9989 18086)
(26.44383 -328.3942 14991.84)
(61.19778 -403.0653 14055.15)
(78.20133 -1420.831 14938.43)
(68.36747 -428.2587 12882.71)
(178.659 -1544.291 13718.4)
(128.0013 -3433.712 14712.62)
(62.04521 -408.6204 11738.71)
(197.6621 -1477.349 12310.54)
(286.2287 -3357.512 12751.13)
(170.6996 -7179.705 12428.58)
(52.62896 -351.3558 10735.9)
(178.5081 -1261.056 11026.41)
(311.8763 -2830.87 10904.77)
(369.9951 -5836.083 9576.697)
(189.7606 -11140.12 4265.835)
(44.17851 -266.0459 9910.958)
(151.4065 -945.282 9981.604)
(279.8818 -2076 9466.551)
(397.0744 -4068.522 7685.568)
(403.9059 -6972.446 3232.382)
(37.59909 -163.4497 9269.572)
(127.6819 -575.4936 9195.779)
(237.7591 -1239.524 8455.733)
(355.9906 -2333.606 6512.141)
(435.1429 -3737.71 2621.436)
(32.74406 -54.1266 8804.135)
(109.6257 -189.3764 8653.655)
(202.1609 -402.9041 7818.301)
(305.2453 -741.3045 5854.252)
(396.3264 -1146.698 2298.022)
(29.2372 52.27175 8499.958)
(96.61983 182.3511 8329.641)
(175.9489 386.5465 7498.027)
(264.0302 707.9891 5589.795)
(347.8488 1089.267 2183.603)
(26.72255 147.1352 8337.115)
(87.46202 513.4219 8195.572)
(157.7882 1093.621 7453.387)
(235.1723 2031.207 5666.834)
(309.9165 3204.016 2251.177)
(24.91168 222.8652 8290.774)
(81.04725 779.6664 8221.06)
(145.6018 1680.316 7656.216)
(216.7606 3222.198 6093.959)
(286.1557 5410.569 2521.171)
(23.57849 273.1168 8331.032)
(76.48132 958.3709 8370.357)
(137.5106 2096.1 8081.495)
(206.0936 4212.621 6942.908)
(275.5988 7956.911 3072.567)
(22.54454 293.5999 8423.185)
(73.05738 1030.975 8597.443)
(131.9334 2276.583 8685.779)
(200.5596 4798.809 8367.03)
(277.0687 11205.28 4079.708)
(21.66687 283.3627 8529.57)
(70.218 990.3854 8842.142)
(127.5198 2166.007 9361.179)
(197.3279 4481.482 10641.22)
(290.7186 10085.95 17260.78)
(440.0607 1111.654 22363.01)
(571.8646 484.7963 21511.59)
(734.1671 211.8486 21610.87)
(941.2105 61.29782 22221.91)
(1209.152 -62.26641 23237.12)
(1548.047 -226.6244 24730.48)
(1921.773 -533.0003 26995.88)
(2099.254 -1222.08 30773.19)
(1121.569 -2986.076 37793.74)
(20.83543 245.7492 8614.274)
(67.53883 850.6912 9035.707)
(123.1562 1809.811 9834.804)
(192.3621 3445.009 11555.3)
(286.2726 5698.377 15824.7)
(404.6875 2118.678 19294.83)
(514.5791 1032.354 19863.52)
(649.3614 478.5678 20387.5)
(818.7448 139.2142 21061.22)
(1036.608 -153.3945 21939.48)
(1319.892 -538.1679 23084)
(1680.711 -1216.179 24607.21)
(2085.689 -2603.319 26689.97)
(2295.667 -5728.063 29426.02)
(1224.26 -13340.55 63378.25)
(19.97824 187.417 8650.24)
(64.74822 641.766 9140.984)
(118.3047 1325.531 10082.88)
(185.309 2343.956 11850.01)
(274.6171 3270.245 14955.06)
(375.211 1723.242 17487.68)
(468.822 978.2163 18445.74)
(582.6347 489.8926 19204.35)
(723.2022 142.6852 19926.81)
(900.481 -178.1769 20685.11)
(1128.673 -596.7825 21508)
(1425.121 -1289.479 22389.8)
(1802.14 -2555.859 23245.7)
(2223.333 -4925.151 23768.04)
(2428.101 -9204.059 45295.37)
(164.2947 -2594.497 15566.11)
(19.05938 116.0529 8620.836)
(61.71444 393.838 9145.005)
(112.7873 794.9774 10140.65)
(176.5876 1336.656 11843.56)
(259.9767 1703.693 14346.97)
(348.6505 1040.39 16371.19)
(430.2773 642.7763 17393.1)
(528.3948 337.9285 18223.23)
(647.4535 97.49108 18943.63)
(794.3138 -136.0965 19596.85)
(979.0607 -438.7802 20180.57)
(1215.82 -916.2699 20634.63)
(1521.243 -1721.917 20807.64)
(1905.376 -3055.271 20393.78)
(2324.094 -5069.987 36867.1)
(319.0993 -1181.815 12450.07)
(185.2172 -2159.962 19259.28)
(18.06652 38.83061 8518.288)
(58.41006 131.0769 9047.249)
(106.6178 261.2662 10044.93)
(166.6212 428.2252 11675.7)