/*--------------------------------*- C++ -*----------------------------------*\
| =========                 |                                                 |
| \\      /  F ield         | OpenFOAM: The Open Source CFD Toolbox           |
|  \\    /   O peration     | Version:  2306                                  |
|   \\  /    A nd           | Website:  www.openfoam.com                      |
|    \\/     M anipulation  |                                                 |
\*---------------------------------------------------------------------------*/
FoamFile
{
    version     2.0;
    format      ascii;
    arch        "LSB;label=32;scalar=64";
    class       volScalarField;
    location    "0.3/phiEC";
    object      phi;
}
// * * * * * * * * * * * * * * * * * * * * * * * * * * * * * * * * * * * * * //

dimensions      [1 2 -3 0 0 -1 0];

internalField   nonuniform List<scalar> 
20000
(
0.8626476
0.8626469
0.8626448
0.8628035
0.8626455
0.8626442
0.8628011
0.8626411
0.8627951
0.8629691
0.8626436
0.8626429
0.8627966
0.8626404
0.8627928
0.8629645
0.8626374
0.8627836
0.8629545
0.8631536
0.8626413
0.862641
0.8627901
0.8626392
0.8627885
0.8629555
0.8626368
0.8627815
0.8629501
0.8631463
0.8626341
0.8627723
0.8629346
0.8631316
0.8633684
0.8626389
0.8626388
0.8627824
0.8626375
0.8627823
0.8629424
0.8626356
0.8627773
0.8629414
0.8631313
0.8626335
0.8627703
0.8629305
0.8631246
0.8633596
0.8626312
0.8627623
0.8629152
0.8631022
0.8633371
0.8635568
0.8626365
0.8626365
0.862774
0.8626354
0.8627749
0.862926
0.8626339
0.8627715
0.8629289
0.8631081
0.8626324
0.8627664
0.8629223
0.8631102
0.8633406
0.8626307
0.8627604
0.8629113
0.8630955
0.8633287
0.8635513
0.8626288
0.8627536
0.8628981
0.8630737
0.8632962
0.8635168
0.8636883
0.8626345
0.8626342
0.862766
0.8626332
0.8627669
0.862908
0.862632
0.8627645
0.8629132
0.8630766
0.8626308
0.8627609
0.8629104
0.863088
0.8633077
0.8626296
0.8627567
0.8629036
0.863082
0.8633106
0.8635403
0.8626282
0.8627518
0.8628943
0.8630674
0.8632883
0.8635115
0.8636848
0.8626266
0.8627462
0.8628833
0.8630486
0.8632571
0.8634655
0.863642
0.8638236
0.8626331
0.8626323
0.8627593
0.8626311
0.8627592
0.8628909
0.8626299
0.8627569
0.862896
0.863039
0.862629
0.8627542
0.8628956
0.8630579
0.8632527
0.8626281
0.8627514
0.8628924
0.863061
0.8632791
0.8635247
0.8626272
0.8627483
0.862887
0.8630546
0.8632712
0.863501
0.8636784
0.8626261
0.8627444
0.8628797
0.8630427
0.8632496
0.8634605
0.8636387
0.8638219
0.8626247
0.8627396
0.8628705
0.8630271
0.8632229
0.863417
0.8635833
0.8637705
0.8639613
0.8626323
0.862631
0.8627544
0.8626293
0.8627527
0.8628767
0.8626279
0.8627497
0.8628796
0.8630048
0.862627
0.8627471
0.8628794
0.8630219
0.8631566
0.8626263
0.8627451
0.8628784
0.8630326
0.8632265
0.8635086
0.8626258
0.8627433
0.8628764
0.8630348
0.8632415
0.8634861
0.8636703
0.8626251
0.862741
0.8628727
0.8630305
0.8632334
0.8634506
0.8636325
0.8638187
0.8626242
0.8627379
0.8628671
0.8630214
0.8632158
0.8634123
0.8635802
0.8637688
0.8639609
0.862623
0.8627338
0.8628594
0.8630085
0.8631935
0.8633748
0.8635283
0.8637042
0.8639009
0.8641
0.8626323
0.8626302
0.8627518
0.862628
0.8627481
0.8628666
0.8626262
0.8627436
0.862866
0.862978
0.8626251
0.8627403
0.8628639
0.8629892
0.8630901
0.8626244
0.8627383
0.862863
0.8629986
0.8631347
0.8626241
0.8627373
0.8628631
0.863008
0.8631918
0.8634707
0.8636635
0.8626237
0.8627362
0.8628626
0.8630117
0.8632054
0.8634365
0.8636247
0.8638149
0.8626233
0.8627347
0.8628604
0.8630098
0.8632004
0.8634029
0.8635744
0.8637657
0.8639601
0.8626225
0.8627322
0.8628561
0.863003
0.8631867
0.8633703
0.8635253
0.8637026
0.8639005
0.8641008
0.8626214
0.8627286
0.8628494
0.8629922
0.8631681
0.8633386
0.8634805
0.8636424
0.8638267
0.8640319
0.8642384
0.8626331
0.8626302
0.8627518
0.8626273
0.8627456
0.8628614
0.862625
0.8627392
0.8628563
0.8629598
0.8626235
0.8627345
0.8628511
0.8629635
0.8630452
0.8626226
0.8627319
0.8628484
0.8629678
0.8630711
0.8626223
0.8627308
0.8628485
0.8629759
0.8631053
0.8626221
0.8627305
0.8628499
0.8629862
0.8631585
0.863422
0.8636182
0.8638121
0.8626219
0.8627301
0.8628507
0.8629918
0.8631737
0.8633896
0.863567
0.8637621
0.8639592
0.8626216
0.862729
0.8628496
0.8629919
0.863172
0.8633614
0.8635198
0.8636997
0.8638997
0.8641023
0.8626209
0.862727
0.8628462
0.8629869
0.8631616
0.8633343
0.8634777
0.8636408
0.8638263
0.8640327
0.8642409
0.86262
0.8627238
0.8628405
0.8629777
0.8631459
0.8633074
0.8634396
0.8635889
0.8637579
0.8639496
0.8641623
0.8643752
0.8626345
0.862631
0.8627544
0.8626273
0.8627456
0.8628614
0.8626243
0.8627369
0.8628514
0.8629506
0.8626223
0.8627303
0.862842
0.8629461
0.8630172
0.8626211
0.8627264
0.8628363
0.8629436
0.8630282
0.8626205
0.8627246
0.8628346
0.8629467
0.8630453
0.8626203
0.8627242
0.862836
0.8629557
0.8630767
0.8626203
0.8627245
0.8628385
0.8629675
0.8631292
0.8633759
0.8635609
0.8637594
0.8639585
0.8626203
0.8627246
0.8628402
0.8629746
0.8631466
0.8633488
0.8635128
0.8636962
0.8638987
0.8641038
0.8626201
0.862724
0.86284
0.8629762
0.8631475
0.8633258
0.8634724
0.8636381
0.8638255
0.8640339
0.8642451
0.8626195
0.8627223
0.8628374
0.8629726
0.8631396
0.8633033
0.8634369
0.8635874
0.8637575
0.8639502
0.8641645
0.86438
0.8626187
0.8627195
0.8628324
0.8629646
0.8631262
0.86328
0.8634043
0.8635431
0.8636987
0.8638738
0.8640717
0.8642906
0.864508
0.8626365
0.8626323
0.8627593
0.862628
0.8627481
0.8628666
0.8626243
0.8627369
0.8628514
0.8629506
0.8626217
0.8627281
0.8628373
0.8629374
0.8630038
0.86262
0.8627224
0.8628277
0.8629271
0.8630014
0.862619
0.8627193
0.8628231
0.8629238
0.8630048
0.8626187
0.8627183
0.8628227
0.862928
0.8630201
0.8626186
0.8627185
0.8628251
0.8629383
0.8630515
0.8626188
0.8627192
0.8628285
0.8629513
0.863104
0.8633357
0.8635071
0.8636937
0.863898
0.8641047
0.8626188
0.8627197
0.8628309
0.8629596
0.8631231
0.8633138
0.8634658
0.8636348
0.8638245
0.8640352
0.8642496
0.8626187
0.8627194
0.8628314
0.8629622
0.863126
0.8632951
0.8634319
0.8635848
0.8637568
0.8639513
0.8641683
0.8643884
0.8626182
0.862718
0.8628294
0.8629597
0.8631201
0.863276
0.8634017
0.8635418
0.8636983
0.8638745
0.8640737
0.864295
0.8645164
0.8626174
0.8627155
0.8628249
0.8629528
0.8631084
0.8632556
0.8633733
0.8635037
0.863648
0.8638088
0.863989
0.8641917
0.8644148
0.8646334
0.8626389
0.8626342
0.862766
0.8626293
0.8627527
0.8628767
0.862625
0.8627392
0.8628563
0.8629598
0.8626217
0.8627281
0.8628373
0.8629374
0.8630038
0.8626194
0.8627203
0.8628232
0.8629189
0.8629886
0.862618
0.8627156
0.8628149
0.8629083
0.8629796
0.8626172
0.8627133
0.8628117
0.8629063
0.8629818
0.862617
0.8627128
0.8628124
0.8629119
0.8629977
0.8626171
0.8627134
0.8628156
0.8629233
0.8630298
0.8626173
0.8627144
0.8628196
0.8629371
0.8630823
0.8633013
0.8634603
0.8636324
0.8638238
0.864036
0.8642526
0.8626175
0.8627152
0.8628226
0.8629462
0.8631025
0.8632835
0.8634256
0.8635817
0.8637558
0.8639525
0.8641723
0.8643977
0.8626174
0.8627151
0.8628235
0.8629497
0.863107
0.8632682
0.8633969
0.8635392
0.8636975
0.8638755
0.8640771
0.8643025
0.8645316
0.862617
0.862714
0.8628221
0.862948
0.8631025
0.8632518
0.8633708
0.8635023
0.8636477
0.8638094
0.8639909
0.8641957
0.8644223
0.8646471
0.8626163
0.8627118
0.8628181
0.8629419
0.8630922
0.8632337
0.8633458
0.863469
0.8636043
0.8637533
0.8639182
0.8641022
0.8643077
0.8645315
0.864746
0.8626413
0.8626365
0.862774
0.8626311
0.8627592
0.8628909
0.8626262
0.8627436
0.862866
0.862978
0.8626223
0.8627303
0.862842
0.8629461
0.8630172
0.8626194
0.8627203
0.8628232
0.8629189
0.8629886
0.8626174
0.8627136
0.8628107
0.8629005
0.8629674
0.8626162
0.8627096
0.8628039
0.8628915
0.8629579
0.8626157
0.8627079
0.8628018
0.8628911
0.8629613
0.8626156
0.8627079
0.8628034
0.862898
0.8629785
0.8626157
0.8627089
0.8628072
0.8629102
0.8630111
0.862616
0.8627101
0.8628116
0.8629245
0.8630632
0.8632716
0.8634203
0.8635794
0.8637552
0.8639532
0.8641749
0.8644042
0.8626162
0.8627111
0.862815
0.8629342
0.8630842
0.863257
0.8633908
0.8635363
0.8636967
0.8638765
0.8640808
0.8643109
0.8645495
0.8626162
0.8627113
0.8628163
0.8629383
0.8630898
0.8632442
0.8633662
0.8634999
0.863647
0.8638103
0.8639941
0.8642026
0.864436
0.864673
0.8626159
0.8627104
0.8628153
0.8629373
0.8630865
0.86323
0.8633434
0.8634678
0.863604
0.8637538
0.86392
0.8641059
0.8643146
0.8645438
0.8647665
0.8626152
0.8627083
0.8628118
0.8629319
0.8630774
0.8632138
0.863321
0.8634383
0.863566
0.8637053
0.8638579
0.8640258
0.8642115
0.8644166
0.864636
0.8649482
0.8626436
0.8626388
0.8627824
0.8626332
0.8627669
0.862908
0.8626279
0.8627497
0.8628796
0.8630048
0.8626235
0.8627345
0.8628511
0.8629635
0.8630452
0.86262
0.8627224
0.8628277
0.8629271
0.8630014
0.8626174
0.8627136
0.8628107
0.8629005
0.8629674
0.8626157
0.8627077
0.8627999
0.8628841
0.8629464
0.8626147
0.8627045
0.8627943
0.862877
0.8629387
0.8626142
0.8627032
0.8627932
0.862878
0.8629437
0.8626142
0.8627035
0.8627954
0.8628857
0.8629618
0.8626145
0.8627047
0.8627996
0.8628985
0.8629947
0.8626148
0.8627062
0.8628044
0.8629131
0.8630463
0.8632455
0.8633858
0.8635341
0.863696
0.8638772
0.8640832
0.8643167
0.8645631
0.862615
0.8627073
0.8628081
0.8629232
0.8630678
0.8632335
0.8633604
0.863497
0.8636461
0.8638113
0.8639975
0.8642102
0.8644521
0.8647067
0.8626151
0.8627077
0.8628097
0.8629278
0.8630742
0.8632227
0.8633389
0.8634654
0.8636033
0.8637547
0.863923
0.8641123
0.8643271
0.8645671
0.8648076
0.8626148
0.862707
0.862809
0.8629274
0.8630719
0.8632102
0.8633187
0.863437
0.8635657
0.8637059
0.8638595
0.8640293
0.864218
0.8644279
0.8646544
0.8649828
0.8626142
0.8627051
0.8628059
0.8629227
0.8630638
0.8631956
0.8632985
0.8634105
0.8635319
0.8636633
0.8638058
0.8639607
0.8641297
0.8643142
0.8645141
0.864823
0.865254
0.8626455
0.862641
0.8627901
0.8626354
0.8627749
0.862926
0.8626299
0.8627569
0.862896
0.863039
0.8626251
0.8627403
0.8628639
0.8629892
0.8630901
0.8626211
0.8627264
0.8628363
0.8629436
0.8630282
0.862618
0.8627156
0.8628149
0.8629083
0.8629796
0.8626157
0.8627077
0.8627999
0.8628841
0.8629464
0.8626141
0.8627026
0.8627905
0.86287
0.8629278
0.8626133
0.8626998
0.862786
0.8628645
0.8629221
0.8626129
0.862699
0.8627855
0.8628665
0.8629284
0.862613
0.8626995
0.8627882
0.8628749
0.8629472
0.8626133
0.8627009
0.8627927
0.862888
0.8629801
0.8626137
0.8627025
0.8627978
0.8629028
0.8630311
0.8632224
0.8633555
0.8634949
0.8636455
0.8638119
0.8639998
0.8642156
0.8644644
0.8647366
0.862614
0.8627038
0.8628017
0.8629132
0.8630529
0.8632123
0.8633333
0.8634627
0.8636025
0.8637557
0.8639262
0.8641195
0.8643419
0.8645975
0.8648688
0.8626141
0.8627043
0.8628036
0.8629182
0.8630599
0.8632031
0.8633144
0.8634348
0.863565
0.8637068
0.8638624
0.8640354
0.8642297
0.8644493
0.8646913
0.8650584
0.8626138
0.8627038
0.8628032
0.8629183
0.8630584
0.8631921
0.8632962
0.8634093
0.8635316
0.8636638
0.8638074
0.863964
0.8641358
0.8643248
0.8645309
0.8648538
0.8653092
0.8626133
0.8627021
0.8628003
0.8629141
0.8630511
0.8631788
0.8632778
0.8633853
0.8635013
0.863626
0.8637601
0.8639045
0.86406
0.8642274
0.8644062
0.8646886
0.8651057
0.8655511
0.8626469
0.8626429
0.8627966
0.8626375
0.8627823
0.8629424
0.862632
0.8627645
0.8629132
0.8630766
0.862627
0.8627471
0.8628794
0.8630219
0.8631566
0.8626226
0.8627319
0.8628484
0.8629678
0.8630711
0.862619
0.8627193
0.8628231
0.8629238
0.8630048
0.8626162
0.8627096
0.8628039
0.8628915
0.8629579
0.8626141
0.8627026
0.8627905
0.86287
0.8629278
0.8626128
0.8626981
0.8627823
0.8628577
0.8629117
0.862612
0.8626957
0.8627786
0.8628535
0.8629077
0.8626117
0.8626951
0.8627786
0.8628563
0.8629151
0.8626119
0.8626959
0.8627816
0.8628651
0.8629342
0.8626122
0.8626974
0.8627864
0.8628784
0.8629669
0.8626126
0.8626991
0.8627916
0.8628934
0.8630172
0.8632015
0.8633286
0.8634606
0.8636019
0.8637563
0.8639284
0.8641245
0.8643532
0.8646244
0.864941
0.862613
0.8627005
0.8627958
0.862904
0.8630392
0.863193
0.8633089
0.8634321
0.8635642
0.8637077
0.8638655
0.8640422
0.8642436
0.8644771
0.8647464
0.865199
0.8626131
0.8627012
0.8627979
0.8629093
0.8630467
0.8631852
0.863292
0.8634072
0.863531
0.8636647
0.8638101
0.8639698
0.8641469
0.8643448
0.8645648
0.8649215
0.8654339
0.8626129
0.8627008
0.8627977
0.8629098
0.8630459
0.8631754
0.8632757
0.8633842
0.8635009
0.8636264
0.8637616
0.8639077
0.8640659
0.8642373
0.864422
0.8647169
0.8651549
0.8656248
0.8626124
0.8626993
0.8627952
0.862906
0.8630394
0.8631632
0.8632588
0.8633622
0.8634734
0.8635923
0.8637194
0.8638552
0.8639999
0.8641534
0.8643149
0.8645712
0.8649526
0.8653805
0.8658367
0.8626476
0.8626442
0.8628011
0.8626392
0.8627885
0.8629555
0.8626339
0.8627715
0.8629289
0.8631081
0.862629
0.8627542
0.8628956
0.8630579
0.8632527
0.8626244
0.8627383
0.862863
0.8629986
0.8631347
0.8626205
0.8627246
0.8628346
0.8629467
0.8630453
0.8626172
0.8627133
0.8628117
0.8629063
0.8629818
0.8626147
0.8627045
0.8627943
0.862877
0.8629387
0.8626128
0.8626981
0.8627823
0.8628577
0.8629117
0.8626115
0.862694
0.862775
0.862847
0.8628977
0.8626108
0.8626919
0.8627719
0.8628438
0.8628951
0.8626106
0.8626916
0.8627724
0.8628472
0.8629032
0.8626108
0.8626925
0.8627756
0.8628563
0.8629226
0.8626112
0.8626941
0.8627806
0.8628697
0.862955
0.8626117
0.862696
0.862786
0.8628847
0.8630045
0.8631826
0.8633044
0.8634301
0.8635637
0.8637082
0.8638676
0.8640469
0.8642541
0.8645018
0.8648115
0.8655432
0.862612
0.8626975
0.8627902
0.8628954
0.8630266
0.8631754
0.8632867
0.8634046
0.8635302
0.8636656
0.8638131
0.8639763
0.86416
0.8643709
0.8646153
0.8650476
0.8656746
0.8626122
0.8626983
0.8627926
0.862901
0.8630345
0.8631686
0.8632716
0.8633821
0.8635003
0.8636273
0.8637643
0.8639133
0.8640765
0.8642563
0.8644536
0.8647787
0.8652661
0.8657913
0.8626121
0.862698
0.8627926
0.8629018
0.8630342
0.8631599
0.8632567
0.8633611
0.863473
0.8635928
0.8637209
0.8638583
0.8640055
0.864163
0.8643298
0.8645975
0.8649975
0.8654459
0.8659257
0.8626116
0.8626966
0.8627904
0.8628985
0.8630284
0.8631487
0.8632412
0.863341
0.8634478
0.8635617
0.8636828
0.8638113
0.8639472
0.8640897
0.8642372
0.8644721
0.8648207
0.8652094
0.8656449
0.8661084
0.8626448
0.8628035
0.8626404
0.8627928
0.8629645
0.8626356
0.8627773
0.8629414
0.8631313
0.8626308
0.8627609
0.8629104
0.863088
0.8633077
0.8626263
0.8627451
0.8628784
0.8630326
0.8632265
0.8635086
0.8626223
0.8627308
0.8628485
0.8629759
0.8631053
0.8626187
0.8627183
0.8628227
0.862928
0.8630201
0.8626157
0.8627079
0.8628018
0.8628911
0.8629613
0.8626133
0.8626998
0.862786
0.8628645
0.8629221
0.8626115
0.862694
0.862775
0.862847
0.8628977
0.8626103
0.8626903
0.8627684
0.8628375
0.8628855
0.8626097
0.8626885
0.8627658
0.862835
0.8628839
0.8626096
0.8626883
0.8627667
0.8628389
0.8628926
0.8626098
0.8626894
0.8627701
0.8628482
0.862912
0.8626103
0.8626911
0.8627752
0.8628616
0.8629441
0.8675601
0.8626107
0.8626931
0.8627807
0.8628766
0.8629929
0.8631652
0.8632824
0.8634027
0.8635297
0.8636661
0.8638151
0.8639808
0.86417
0.864394
0.8646751
0.8653578
0.8662024
0.8626111
0.8626947
0.8627851
0.8628875
0.8630149
0.8631591
0.8632664
0.8633796
0.8634996
0.8636281
0.8637671
0.8639195
0.864089
0.864281
0.8645009
0.8648944
0.8654815
0.8661045
0.8626113
0.8626955
0.8627876
0.8628933
0.8630232
0.8631533
0.8632527
0.8633591
0.8634724
0.8635936
0.8637235
0.8638637
0.8640157
0.864181
0.8643598
0.8646553
0.8650992
0.8655941
0.8661254
0.8626112
0.8626954
0.8627879
0.8628944
0.8630234
0.8631455
0.8632391
0.8633399
0.8634475
0.8635621
0.8636843
0.8638143
0.8639526
0.8640988
0.8642514
0.864497
0.8648626
0.865269
0.8657238
0.8662093
0.8626108
0.8626941
0.8627858
0.8628914
0.8630181
0.8631351
0.8632248
0.8633212
0.8634242
0.8635336
0.8636495
0.8637718
0.8639002
0.8640337
0.8641702
0.8643878
0.8647098
0.8650634
0.8654565
0.8658966
0.8662427
0.8626411
0.8627951
0.8629691
0.8626368
0.8627815
0.8629501
0.8631463
0.8626324
0.8627664
0.8629223
0.8631102
0.8633406
0.8626281
0.8627514
0.8628924
0.863061
0.8632791
0.8635247
0.8626241
0.8627373
0.8628631
0.863008
0.8631918
0.8634707
0.8636635
0.8626203
0.8627242
0.862836
0.8629557
0.8630767
0.862617
0.8627128
0.8628124
0.8629119
0.8629977
0.8626142
0.8627032
0.8627932
0.862878
0.8629437
0.862612
0.8626957
0.8627786
0.8628535
0.8629077
0.8626103
0.8626903
0.8627684
0.8628375
0.8628855
0.8626093
0.8626869
0.8627625
0.8628289
0.8628746
0.8626088
0.8626853
0.8627603
0.862827
0.8628739
0.8626087
0.8626853
0.8627614
0.8628312
0.8628829
0.8626089
0.8626865
0.862765
0.8628407
0.8629023
0.8687275
0.8626094
0.8626883
0.8627702
0.8628542
0.8629341
0.8671815
0.8676966
0.8626099
0.8626903
0.8627758
0.8628692
0.862982
0.8631492
0.8632622
0.8633777
0.8634991
0.8636286
0.863769
0.8639238
0.8640985
0.8643029
0.8645569
0.8651796
0.8659563
0.8667074
0.8626103
0.862692
0.8627803
0.8628801
0.863004
0.863144
0.8632477
0.8633566
0.8634717
0.8635944
0.8637263
0.8638696
0.8640277
0.8642046
0.8644045
0.8647635
0.8652965
0.865874
0.8664885
0.8626105
0.8626929
0.8627829
0.862886
0.8630126
0.8631391
0.8632353
0.8633379
0.8634469
0.8635629
0.8636867
0.8638195
0.8639624
0.8641161
0.86428
0.8645517
0.8649575
0.8654044
0.8659011
0.8664338
0.8626105
0.8626929
0.8627834
0.8628874
0.8630132
0.863132
0.8632228
0.8633201
0.8634239
0.863534
0.8636509
0.8637747
0.8639055
0.8640425
0.8641838
0.8644116
0.8647494
0.8651191
0.8655284
0.8659859
0.8663481
0.8626101
0.8626917
0.8627815
0.8628848
0.8630085
0.8631225
0.8632095
0.8633029
0.8634023
0.8635077
0.8636189
0.8637359
0.8638579
0.8639839
0.8641114
0.8643151
0.8646156
0.8649412
0.8652972
0.8656922
0.8660213
0.8662553
0.8626374
0.8627836
0.8629545
0.8631536
0.8626335
0.8627703
0.8629305
0.8631246
0.8633596
0.8626296
0.8627567
0.8629036
0.863082
0.8633106
0.8635403
0.8626258
0.8627433
0.8628764
0.8630348
0.8632415
0.8634861
0.8636703
0.8626221
0.8627305
0.8628499
0.8629862
0.8631585
0.863422
0.8636182
0.8638121
0.8626186
0.8627185
0.8628251
0.8629383
0.8630515
0.8626156
0.8627079
0.8628034
0.862898
0.8629785
0.8626129
0.862699
0.8627855
0.8628665
0.8629284
0.8626108
0.8626919
0.8627719
0.8628438
0.8628951
0.8626093
0.8626869
0.8627625
0.8628289
0.8628746
0.8626083
0.8626838
0.862757
0.8628211
0.8628649
0.8626078
0.8626824
0.8627552
0.8628198
0.8628647
0.8626078
0.8626825
0.8627565
0.8628242
0.862874
0.8695144
0.8626081
0.8626838
0.8627602
0.8628338
0.8628934
0.8682331
0.8687892
0.8626086
0.8626857
0.8627655
0.8628472
0.8629247
0.8668595
0.867305
0.8678979
0.8626091
0.8626878
0.8627712
0.8628622
0.862972
0.8631344
0.8632436
0.8633548
0.8634712
0.8635949
0.8637281
0.8638738
0.8640368
0.8642255
0.8644576
0.8650306
0.8657325
0.8664148
0.8671187
0.8626095
0.8626895
0.8627758
0.8628731
0.8629938
0.86313
0.8632304
0.8633355
0.8634462
0.8635637
0.8636894
0.8638253
0.8639739
0.8641387
0.8643228
0.8646541
0.865142
0.8656605
0.8662246
0.8668302
0.8626098
0.8626905
0.8627785
0.8628792
0.8630027
0.8631257
0.863219
0.8633182
0.8634233
0.8635348
0.8636533
0.8637797
0.8639149
0.8640592
0.8642113
0.8644637
0.8648392
0.8652453
0.8656902
0.8661846
0.8665814
0.8626097
0.8626905
0.8627791
0.8628809
0.8630037
0.8631194
0.8632075
0.8633018
0.863402
0.8635082
0.8636203
0.8637387
0.863863
0.8639924
0.8641245
0.8643378
0.8646534
0.8649938
0.8653642
0.8657734
0.8661143
0.8663611
0.8626094
0.8626895
0.8627775
0.8628785
0.8629994
0.8631106
0.8631951
0.8632857
0.863382
0.8634837
0.8635908
0.8637029
0.8638194
0.8639389
0.8640589
0.8642511
0.8645342
0.8648374
0.8651642
0.8655203
0.865809
0.866033
0.8662678
0.8626341
0.8627723
0.8629346
0.8631316
0.8633684
0.8626307
0.8627604
0.8629113
0.8630955
0.8633287
0.8635513
0.8626272
0.8627483
0.862887
0.8630546
0.8632712
0.863501
0.8636784
0.8626237
0.8627362
0.8628626
0.8630117
0.8632054
0.8634365
0.8636247
0.8638149
0.8626203
0.8627245
0.8628385
0.8629675
0.8631292
0.8633759
0.8635609
0.8637594
0.8639585
0.8626171
0.8627134
0.8628156
0.8629233
0.8630298
0.8626142
0.8627035
0.8627954
0.8628857
0.8629618
0.8626117
0.8626951
0.8627786
0.8628563
0.8629151
0.8626097
0.8626885
0.8627658
0.862835
0.8628839
0.8626083
0.8626838
0.862757
0.8628211
0.8628649
0.8626074
0.8626809
0.862752
0.862814
0.862856
0.862607
0.8626797
0.8627505
0.8628131
0.8628564
0.8700197
0.862607
0.8626799
0.8627519
0.8628177
0.8628658
0.8689398
0.8695603
0.8626073
0.8626812
0.8627558
0.8628273
0.8628851
0.8678257
0.8682882
0.8689031
0.8626078
0.8626832
0.8627612
0.8628407
0.8629161
0.8666061
0.8669736
0.8674868
0.8681296
0.8626083
0.8626853
0.8627669
0.8628556
0.8629626
0.8631206
0.8632263
0.8633338
0.8634457
0.8635642
0.8636912
0.8638293
0.8639827
0.8641588
0.8643734
0.8649073
0.8655501
0.8661566
0.8667884
0.8674697
0.8626088
0.8626871
0.8627715
0.8628666
0.8629843
0.8631169
0.8632142
0.8633159
0.8634227
0.8635356
0.8636559
0.8637853
0.863926
0.8640809
0.8642522
0.8645614
0.8650138
0.8654846
0.8659859
0.8665368
0.8669894
0.8626091
0.8626882
0.8627744
0.8628729
0.8629933
0.8631133
0.8632038
0.8632999
0.8634015
0.8635089
0.8636227
0.8637435
0.8638721
0.8640085
0.8641509
0.8643878
0.864739
0.8651132
0.8655151
0.8659545
0.8663205
0.8665952
0.8626091
0.8626883
0.8627751
0.8628747
0.8629947
0.8631076
0.8631932
0.8632847
0.8633817
0.8634841
0.8635921
0.8637056
0.8638243
0.8639471
0.8640716
0.864273
0.8645704
0.8648875
0.8652275
0.8655959
0.8658935
0.8661263
0.8663739
0.8626088
0.8626874
0.8627737
0.8628726
0.8629909
0.8630994
0.8631817
0.8632697
0.863363
0.8634614
0.8635647
0.8636725
0.8637841
0.863898
0.8640117
0.8641941
0.8644626
0.8647476
0.8650512
0.865377
0.865631
0.86582
0.8660446
0.8662801
0.8626312
0.8627623
0.8629152
0.8631022
0.8633371
0.8635568
0.8626282
0.8627518
0.8628943
0.8630674
0.8632883
0.8635115
0.8636848
0.8626251
0.862741
0.8628727
0.8630305
0.8632334
0.8634506
0.8636325
0.8638187
0.8626219
0.8627301
0.8628507
0.8629918
0.8631737
0.8633896
0.863567
0.8637621
0.8639592
0.8626188
0.8627192
0.8628285
0.8629513
0.863104
0.8633357
0.8635071
0.8636937
0.863898
0.8641047
0.8626157
0.8627089
0.8628072
0.8629102
0.8630111
0.862613
0.8626995
0.8627882
0.8628749
0.8629472
0.8626106
0.8626916
0.8627724
0.8628472
0.8629032
0.8626088
0.8626853
0.8627603
0.862827
0.8628739
0.8626074
0.8626809
0.862752
0.862814
0.862856
0.8626065
0.8626782
0.8627473
0.8628074
0.8628479
0.8702691
0.8626062
0.8626771
0.8627461
0.8628068
0.8628487
0.8693927
0.8700616
0.8626062
0.8626775
0.8627477
0.8628117
0.8628582
0.8684737
0.8689802
0.8696504
0.8626065
0.8626788
0.8627516
0.8628213
0.8628774
0.867511
0.8678765
0.8683897
0.8690592
0.862607
0.8626809
0.8627571
0.8628347
0.862908
0.8664016
0.8667133
0.8671416
0.8676956
0.8683751
0.8626076
0.8626831
0.8627628
0.8628495
0.8629538
0.8631077
0.8632103
0.8633142
0.8634222
0.863536
0.8636576
0.8637892
0.8639345
0.8641003
0.8643008
0.8648032
0.8654006
0.8659488
0.8665023
0.8671069
0.8676319
0.8626081
0.8626849
0.8627675
0.8628605
0.8629754
0.8631046
0.8631992
0.8632977
0.8634008
0.8635096
0.8636252
0.8637489
0.8638829
0.8640295
0.8641903
0.8644815
0.8649055
0.8653396
0.8657912
0.866276
0.8666823
0.8670042
0.8626084
0.862686
0.8627705
0.8628668
0.8629846
0.8631016
0.8631896
0.8632828
0.8633812
0.8634849
0.8635944
0.8637103
0.8638332
0.8639627
0.8640971
0.8643211
0.8646524
0.8650013
0.86537
0.8657647
0.8660814
0.8663332
0.8666087
0.8626084
0.8626862
0.8627714
0.8628689
0.8629863
0.8630965
0.8631798
0.8632687
0.8633627
0.8634618
0.863566
0.8636751
0.8637889
0.863906
0.8640239
0.8642153
0.8644974
0.8647956
0.8651114
0.8654484
0.8657097
0.8659048
0.8661382
0.8663865
0.8626081
0.8626854
0.8627701
0.8628671
0.8629828
0.8630889
0.863169
0.8632546
0.8633452
0.8634405
0.8635404
0.8636443
0.8637515
0.8638605
0.8639686
0.8641427
0.8643987
0.8646686
0.8649533
0.8652552
0.8654828
0.8656415
0.8658309
0.866056
0.8662922
0.8626288
0.8627536
0.8628981
0.8630737
0.8632962
0.8635168
0.8636883
0.8626261
0.8627444
0.8628797
0.8630427
0.8632496
0.8634605
0.8636387
0.8638219
0.8626233
0.8627347
0.8628604
0.8630098
0.8632004
0.8634029
0.8635744
0.8637657
0.8639601
0.8626203
0.8627246
0.8628402
0.8629746
0.8631466
0.8633488
0.8635128
0.8636962
0.8638987
0.8641038
0.8626173
0.8627144
0.8628196
0.8629371
0.8630823
0.8633013
0.8634603
0.8636324
0.8638238
0.864036
0.8642526
0.8626145
0.8627047
0.8627996
0.8628985
0.8629947
0.8626119
0.8626959
0.8627816
0.8628651
0.8629342
0.8626096
0.8626883
0.8627667
0.8628389
0.8628926
0.8626078
0.8626824
0.8627552
0.8628198
0.8628647
0.8626065
0.8626782
0.8627473
0.8628074
0.8628479
0.8702691
0.8626057
0.8626757
0.862743
0.8628014
0.8628404
0.8696159
0.87031
0.8626054
0.8626747
0.862742
0.8628011
0.8628415
0.8688885
0.8694292
0.8701451
0.8626055
0.8626752
0.8627437
0.862806
0.8628512
0.8681172
0.8685109
0.8690593
0.8697818
0.8626058
0.8626766
0.8627477
0.8628157
0.8628702
0.8672592
0.8675587
0.8679701
0.8685283
0.8692491
0.8626064
0.8626787
0.8627532
0.862829
0.8629004
0.8662306
0.8665035
0.8668713
0.8673347
0.8679161
0.8685069
0.8626069
0.8626809
0.862759
0.8628437
0.8629455
0.8630956
0.8631953
0.863296
0.8634004
0.8635101
0.8636268
0.8637527
0.8638911
0.8640481
0.8642371
0.8647135
0.8652747
0.8657792
0.866274
0.8667975
0.867254
0.867647
0.8626074
0.8626828
0.8627638
0.8628547
0.8629671
0.8630931
0.8631851
0.8632807
0.8633805
0.8634856
0.8635968
0.8637156
0.8638436
0.8639831
0.8641352
0.8644113
0.8648121
0.8652172
0.8656312
0.8660647
0.8664115
0.8666959
0.8670186
0.8626077
0.862684
0.8627668
0.8628612
0.8629763
0.8630906
0.8631763
0.8632669
0.8633622
0.8634625
0.8635682
0.8636797
0.8637974
0.8639211
0.8640486
0.8642617
0.8645763
0.8649046
0.8652472
0.8656078
0.8658847
0.8660933
0.8663457
0.8666219
0.8626078
0.8626843
0.8627678
0.8628634
0.8629783
0.863086
0.8631672
0.8632536
0.8633449
0.8634409
0.8635416
0.8636469
0.8637562
0.8638683
0.8639805
0.8641631
0.8644323
0.8647147
0.865011
0.8653232
0.865557
0.8657204
0.8659159
0.8661498
0.8663989
0.8626075
0.8626835
0.8627667
0.8628618
0.8629752
0.8630789
0.8631571
0.8632404
0.8633285
0.863421
0.8635177
0.863618
0.8637213
0.8638259
0.8639292
0.8640959
0.864341
0.8645979
0.8648671
0.8651498
0.8653567
0.8654927
0.8656518
0.8658416
0.8660673
0.8663064
0.8626266
0.8627462
0.8628833
0.8630486
0.8632571
0.8634655
0.863642
0.8638236
0.8626242
0.8627379
0.8628671
0.8630214
0.8632158
0.8634123
0.8635802
0.8637688
0.8639609
0.8626216
0.862729
0.8628496
0.8629919
0.863172
0.8633614
0.8635198
0.8636997
0.8638997
0.8641023
0.8626188
0.8627197
0.8628309
0.8629596
0.8631231
0.8633138
0.8634658
0.8636348
0.8638245
0.8640352
0.8642496
0.862616
0.8627101
0.8628116
0.8629245
0.8630632
0.8632716
0.8634203
0.8635794
0.8637552
0.8639532
0.8641749
0.8644042
0.8626133
0.8627009
0.8627927
0.862888
0.8629801
0.8626108
0.8626925
0.8627756
0.8628563
0.8629226
0.8626087
0.8626853
0.8627614
0.8628312
0.8628829
0.862607
0.8626797
0.8627505
0.8628131
0.8628564
0.8700197
0.8626057
0.8626757
0.862743
0.8628014
0.8628404
0.8696159
0.87031
0.862605
0.8626733
0.862739
0.8627957
0.8628335
0.8690928
0.8696515
0.8703917
0.8626047
0.8626725
0.8627381
0.8627957
0.8628349
0.8685049
0.868922
0.8695019
0.8702692
0.8626048
0.862673
0.86274
0.8628007
0.8628446
0.8678334
0.868152
0.8685835
0.8691746
0.8699519
0.8626052
0.8626745
0.8627441
0.8628104
0.8628635
0.8670493
0.8673045
0.8676465
0.8680979
0.8686967
0.8693637
0.8626057
0.8626766
0.8627496
0.8628236
0.8628933
0.8660836
0.8663279
0.8666536
0.8670528
0.8675386
0.8680343
0.8685195
0.8626063
0.8626789
0.8627554
0.8628383
0.8629377
0.8630843
0.8631813
0.863279
0.8633801
0.863486
0.8635985
0.8637193
0.8638516
0.8640011
0.8641803
0.8646348
0.8651663
0.8656367
0.8660882
0.8665518
0.8669339
0.8672676
0.8676618
0.8626068
0.8626808
0.8627602
0.8628493
0.8629592
0.8630823
0.8631718
0.8632647
0.8633616
0.8634632
0.8635706
0.8636849
0.8638076
0.8639408
0.8640855
0.8643488
0.8647301
0.8651116
0.8654962
0.8658915
0.8661925
0.8664241
0.8667091
0.8670327
0.8626071
0.8626821
0.8627633
0.8628558
0.8629686
0.8630802
0.8631637
0.8632519
0.8633444
0.8634416
0.8635438
0.8636513
0.8637645
0.8638829
0.8640044
0.8642081
0.8645085
0.8648196
0.8651411
0.865475
0.8657222
0.8658959
0.8661049
0.8663579
0.8666349
0.8626072
0.8626824
0.8627644
0.8628582
0.8629708
0.8630761
0.8631553
0.8632395
0.8633283
0.8634214
0.8635189
0.8636206
0.8637258
0.8638334
0.8639407
0.8641157
0.8643735
0.8646424
0.8649226
0.8652148
0.8654273
0.8655672
0.8657309
0.8659269
0.8661613
0.8664133
0.862607
0.8626817
0.8627634
0.8628568
0.862968
0.8630696
0.8631458
0.8632271
0.8633128
0.8634027
0.8634964
0.8635935
0.8636932
0.8637938
0.8638927
0.8640529
0.8642884
0.8645341
0.86479
0.8650567
0.8652474
0.8653662
0.8655025
0.8656619
0.8658522
0.8660805
0.8663197
0.8626247
0.8627396
0.8628705
0.8630271
0.8632229
0.863417
0.8635833
0.8637705
0.8639613
0.8626225
0.8627322
0.8628561
0.863003
0.8631867
0.8633703
0.8635253
0.8637026
0.8639005
0.8641008
0.8626201
0.862724
0.86284
0.8629762
0.8631475
0.8633258
0.8634724
0.8636381
0.8638255
0.8640339
0.8642451
0.8626175
0.8627152
0.8628226
0.8629462
0.8631025
0.8632835
0.8634256
0.8635817
0.8637558
0.8639525
0.8641723
0.8643977
0.8626148
0.8627062
0.8628044
0.8629131
0.8630463
0.8632455
0.8633858
0.8635341
0.863696
0.8638772
0.8640832
0.8643167
0.8645631
0.8626122
0.8626974
0.8627864
0.8628784
0.8629669
0.8626098
0.8626894
0.8627701
0.8628482
0.862912
0.8626078
0.8626825
0.8627565
0.8628242
0.862874
0.8695144
0.8626062
0.8626771
0.8627461
0.8628068
0.8628487
0.8693927
0.8700616
0.862605
0.8626733
0.862739
0.8627957
0.8628335
0.8690928
0.8696515
0.8703917
0.8626043
0.8626711
0.8627352
0.8627904
0.8628271
0.8686959
0.8691253
0.8697223
0.870514
0.862604
0.8626704
0.8627345
0.8627906
0.8628287
0.8682005
0.8685363
0.8689885
0.8696098
0.8704333
0.8626041
0.862671
0.8627365
0.8627958
0.8628385
0.8675972
0.8678664
0.8682202
0.8686894
0.8693234
0.8700603
0.8626045
0.8626725
0.8627406
0.8628054
0.8628572
0.8668692
0.8670926
0.8673879
0.8677666
0.868253
0.8687979
0.8693749
0.8626051
0.8626747
0.8627461
0.8628186
0.8628866
0.8659546
0.8661771
0.8664714
0.866826
0.8672446
0.8676478
0.8680455
0.8685321
0.8626057
0.862677
0.862752
0.8628331
0.8629304
0.8630737
0.8631681
0.8632631
0.8633611
0.8634636
0.8635721
0.8636884
0.8638153
0.8639583
0.8641292
0.8645646
0.8650711
0.865514
0.8659322
0.8663523
0.8666803
0.8669466
0.867281
0.8676761
0.8626062
0.8626789
0.8627568
0.8628441
0.8629517
0.8630721