/*--------------------------------*- C++ -*----------------------------------*\
| =========                 |                                                 |
| \\      /  F ield         | OpenFOAM: The Open Source CFD Toolbox           |
|  \\    /   O peration     | Version:  2306                                  |
|   \\  /    A nd           | Website:  www.openfoam.com                      |
|    \\/     M anipulation  |                                                 |
\*---------------------------------------------------------------------------*/
FoamFile
{
    version     2.0;
    format      ascii;
    arch        "LSB;label=32;scalar=64";
    class       volVectorField;
    location    "0.6/phiEC";
    object      i;
}
// * * * * * * * * * * * * * * * * * * * * * * * * * * * * * * * * * * * * * //

dimensions      [0 -2 0 0 0 1 0];

internalField   nonuniform List<vector> 
20000
(
(36.76839 81.61721 17686.02)
(36.37207 238.6783 17510.36)
(87.8657 77.65402 16938.24)
(112.788 269.7036 18418.57)
(35.60896 376.813 17170.58)
(86.95742 227.084 16771.15)
(111.4697 792.2041 18196.41)
(101.7897 72.53439 15903.11)
(268.7171 256.5206 17618.08)
(196.8668 525.9437 20071.8)
(34.54041 482.5464 16691.57)
(85.2089 358.4963 16447.97)
(108.9134 1260.776 17756.42)
(100.7952 212.1103 15747.06)
(265.7031 753.4575 17406.93)
(194.2679 1562.992 19785.36)
(95.81682 67.70832 14878.57)
(310.1433 239.5628 16526.88)
(466.205 499.9549 19154.16)
(296.3168 842.579 22907.48)
(33.26161 542.8074 16114.07)
(82.76124 459.0728 15992.38)
(105.2967 1630.468 17113.45)
(98.88102 334.8512 15445.23)
(259.8604 1199.046 16988.79)
(189.1344 2542.734 19184.85)
(94.91639 197.9969 14732.91)
(306.8524 703.6367 16329.77)
(460.2865 1485.669 18882.19)
(292.1049 2566.101 22666.73)
(84.10512 63.53005 13967.61)
(291.2818 223.6111 15456.67)
(534.0722 466.7583 17938.26)
(695.4259 800.46 21790.04)
(420.3554 1007.444 26750.86)
(31.89842 548.0125 15495.31)
(79.83278 516.3875 15443.16)
(100.9204 1849.703 16305.99)
(96.20243 428.7851 15019.77)
(251.5982 1550.538 16377.84)
(181.6626 3383.408 18222.75)
(93.18364 312.5692 14451.18)
(300.4756 1119.727 15939.44)
(448.6035 2416.681 18312.11)
(283.4612 4386.005 22094.57)
(83.33059 185.7785 13830.94)
(288.3067 656.7805 15272.7)
(527.6406 1386.977 17684.51)
(685.8743 2437.544 21561.64)
(415.287 3188.82 26917.96)
(72.66027 59.96299 13181.03)
(255.4028 209.8121 14509.32)
(499.3277 435.6394 16765.71)
(787.8317 747.0624 20362.9)
(975.1216 956.7589 25351.92)
(537.1681 633.1471 29536.68)
(30.59377 496.0571 14903.19)
(76.71156 521.3341 14854.72)
(96.22043 1873.746 15414.35)
(92.99872 482.3106 14506.88)
(241.6055 1758.941 15610.69)
(172.3206 3941.001 16862.39)
(90.75931 400.2499 14054.05)
(291.4632 1447.919 15369.18)
(431.6143 3215.269 17399.01)
(270.0442 6275.399 20958.03)
(81.8402 293.2804 13566.6)
(282.5431 1045.154 14908.42)
(514.9548 2256.012 17152.67)
(666.2959 4165.398 21019.02)
(404.2441 5960.146 27304.82)
(71.99644 175.3477 13052.04)
(252.8452 616.2505 14336.71)
(493.5275 1294.495 16528.92)
(777.505 2274.801 20149.89)
(963.6543 3027.707 25510.21)
(534.0627 1890.839 30026.83)
(63.09118 56.89179 12501.51)
(220.5611 198.0345 13692.75)
(436.8897 408.7566 15736.25)
(731.682 697.1924 19016.2)
(1088.841 892.7708 23636.35)
(1232.527 602.0926 27910.23)
(621.9385 392.5288 30678.27)
(29.48401 393.2972 14401.1)
(73.72434 471.9129 14291.6)
(91.72409 1692.355 14567.55)
(89.58479 486.9281 13957.37)
(230.8764 1781.783 14763.65)
(162.0392 4024.894 15180.13)
(87.86015 450.2111 13575.32)
(280.5692 1642.485 14653.18)
(410.393 3744.767 16108.28)
(251.7406 7934.947 18736.54)
(79.75507 375.5502 13193.97)
(274.3996 1351.474 14376.21)
(496.5274 3001.303 16300.94)
(635.9604 5958.193 19941.64)
(384.9393 10099.46 28073.72)
(70.71909 276.814 12802.53)
(247.8906 980.657 13994.91)
(482.0912 2105.549 16032.65)
(756.3683 3886.866 19643.95)
(938.728 5656.67 25876.95)
(527.8376 3045.904 31163.76)
(62.51584 166.3668 12379.11)
(218.3693 581.6583 13529.82)
(431.9078 1214.612 15514.07)
(722.393 2122.91 18817.45)
(1076.479 2824.884 23783.87)
(1225.433 1797.534 28374.28)
(620.1337 1129.079 31110.82)
(55.42433 54.20958 11908.08)
(191.4988 187.8942 12987.64)
(376.9978 385.8205 14851.72)
(638.2023 654.1724 17846.11)
(1002.686 833.1412 22054.62)
(1357.679 562.2076 25976.66)
(1416.926 374.4808 28919.93)
(713.0026 200.5989 31404.89)
(28.68033 251.8535 14038.85)
(71.18294 374.1627 13814.09)
(87.91842 1335.392 13865.25)
(86.31734 440.7708 13431.52)
(220.6112 1609.335 13959.14)
(152.2741 3594.262 13678.18)
(84.77106 454.5203 13062.41)
(268.876 1663.803 13862.65)
(387.0515 3824.43 14512.45)
(229.7557 8242.162 14251.35)
(77.26171 422.4281 12744.79)
(264.5586 1533.069 13708.01)
(473.5357 3495.374 15097.12)
(594.6581 7532.062 17836.6)
(352.3084 17354.34 29701.53)
(68.93205 354.465 12450.82)
(240.8909 1268.073 13495.54)
(465.4879 2801.078 15237.89)
(723.6873 5559.021 18639.59)
(895.3006 9580.099 26606.34)
(518.8744 3636.355 33346.35)
(61.40875 262.6365 12142.39)
(214.1236 925.6112 13207.19)
(422.0863 1975.616 15048.42)
(703.3934 3627.221 18345.39)
(1049.681 5276.609 24125.77)
(1211.261 2894.022 29451.24)
(616.6939 1669.211 32004.85)
(54.91861 158.5234 11791.46)
(189.5992 551.8756 12833.04)
(372.7296 1146.461 14641.99)
(630.2314 1991.915 17659.62)
(991.5829 2636.113 22192.21)
(1349.948 1678.186 26409)
(1412.697 1076.633 29328.28)
(712.3168 564.2606 31751.15)
(49.29002 51.83452 11383.21)
(168.2346 179.038 12371.84)
(327.2731 366.0739 14088.55)
(550.101 617.4827 16844.73)
(871.1837 781.7446 20695.19)
(1240.606 524.7861 24224.19)
(1547.057 350.2441 26881.51)
(1612.202 193.7406 29524.07)
(810.0206 46.27352 31804.07)
(28.25923 86.61388 13849.56)
(69.34214 239.6057 13469.55)
(85.17861 851.2341 13369.75)
(83.53706 349.4752 12985.59)
(211.9202 1269.937 13291.86)
(144.1629 2788.883 12525.15)
(81.81448 411.4356 12571.58)
(257.6872 1502.793 13111.8)
(364.8738 3415.498 13087.36)
(209.8868 7002.304 11416.76)
(74.6051 426.4713 12263.53)
(253.9972 1552.963 12970.25)
(448.2643 3569.702 13608.89)
(545.124 7823.624 13587.68)
(294.7742 18664.46 6746.75)
(66.79517 398.7114 12026.85)
(232.4329 1438.461 12868.57)
(444.7832 3262.137 14114.65)
(679.2964 7026.584 16677.6)
(822.1821 16452.69 28150.84)
(509.4862 1848.142 37400.74)
(59.85991 336.3111 11808.69)
(208.1255 1196.897 12735.84)
(407.83 2628.223 14302.7)
(674.0461 5187.474 17408.37)
(1003.181 8933.998 24806)
(1190.953 3452.841 31519.74)
(612.2461 1708.117 33362.19)
(53.94547 250.2547 11565.89)
(185.9194 878.2187 12526.93)
(364.3152 1864.771 14202.44)
(613.9317 3403.398 17216.67)
(967.5455 4923.697 22511.16)
(1334.565 2701.113 27412.61)
(1404.688 1590.335 30173.1)
(711.0121 794.5307 32400.94)
(48.8397 151.5781 11271.7)
(166.5647 525.8638 12224.53)
(323.5737 1087.786 13889.55)
(543.2733 1880.204 16668.68)
(861.6615 2473.483 20824.27)
(1233.63 1566.399 24627.42)
(1542.321 1006.698 27261.42)
(1610.373 544.3557 29848.64)
(810.3845 133.0331 32106.97)
(44.31171 49.70634 10913.51)
(149.6251 171.1955 11827.07)
(287.5382 348.8264 13421.98)
(477.4455 585.8959 15981.61)
(749.8969 737.9195 19536.4)
(1074.18 492.4478 22729.68)
(1406.69 327.1243 25057.95)
(1743.876 182.304 27404.32)
(1816.983 49.91249 29806.04)
(912.8054 -102.3008 31920.32)
(28.25923 -86.61388 13849.56)
(68.37749 82.40291 13289.52)
(83.7493 291.9627 13114.81)
(81.52279 223.799 12663.83)
(205.6611 809.5429 12821)
(138.4298 1752.737 11760.38)
(79.2985 326.2171 12155.35)
(248.2108 1185.891 12488.97)
(346.4383 2650.44 11993.06)
(194.3363 5170.984 9653.304)
(72.06244 386.0452 11802.99)
(243.891 1402.684 12269.52)
(424.2423 3188.129 12279.75)
(500.2966 6648.11 10901.13)
(255.4004 12790.36 4891.413)
(64.5184 402.5276 11572.61)
(223.3563 1457.127 12176.34)
(422.0332 3331.496 12726.06)
(626.1534 7298.546 12717.89)
(693.7435 17695.38 6421.658)
(58.00787 378.2917 11406.42)
(200.8779 1357.723 12144.04)
(390.0557 3060.827 13248.78)
(634.228 6556.724 15578.02)
(925.2534 15338.77 26246.53)
(1169.789 1754.261 35363.05)
(608.47 775.4564 34888.93)
(52.58403 320.4563 11247.92)
(180.7207 1135.617 12079.69)
(352.1021 2480.773 13498.52)
(588.764 4867.367 16337.47)
(925.9137 8335.822 23145.81)
(1312.641 3221.634 29340.71)
(1394.416 1625.878 31457.24)
(709.3694 752.2695 33227.68)
(47.97316 239.2907 11056.01)
(163.33 836.8267 11932.83)
(316.2807 1769.341 13472.48)
(529.3125 3212.548 16250.54)
(841.0554 4619.917 21123.49)
(1219.774 2520.954 25563.57)
(1533.41 1486.392 28047.76)
(1606.97 765.0567 30458.59)
(810.9291 192.6768 32639.5)
(43.90635 145.3548 10806.57)
(148.1381 502.8295 11686.21)
(284.286 1036.537 13232.35)
(471.5276 1784.03 15814.56)
(741.7413 2334.83 19658.23)
(1068.186 1469.858 23107.97)
(1402.368 940.1623 25412.1)
(1741.566 511.9353 27705.22)
(1817.29 142.1181 30086.03)
(914.4101 -271.1693 32253.36)
(40.19347 47.78097 10489.04)
(134.5222 164.1678 11339.45)
(255.768 333.5517 12832.07)
(419.5321 558.3041 15227.59)
(650.6996 700.1888 18538.54)
(923.5479 464.8486 21459.22)
(1215.346 307.0209 23511.52)
(1577.605 170.6432 25534.8)
(1945.984 49.34275 27623.72)
(2030.237 -86.25418 29809.85)
(1021.067 -286.7687 31724.64)
(28.68033 -251.8535 14038.85)
(68.37749 -82.40291 13289.52)
(83.7493 -291.9627 13114.81)
(80.46704 76.96738 12495.7)
(202.395 277.6697 12578.72)
(135.4763 596.4997 11381.73)
(77.47552 208.9055 11855.02)
(241.3834 755.9824 12049.47)
(333.3984 1665.871 11267.08)
(183.8388 3138.077 8626.275)
(69.89864 306.0857 11412.45)
(235.33 1106.899 11688.26)
(404.256 2474.13 11258.99)
(465.1519 4910.504 9229.058)
(229.0121 8369.853 3852.721)
(62.33929 364.371 11137.92)
(214.6707 1316.121 11518.85)
(400.4034 2975.415 11485.89)
(577.9825 6202.582 10213.64)
(605.4972 12132.74 4663.845)
(56.03458 381.9125 10975.44)
(193.1004 1375.341 11490.64)
(370.528 3125.904 11945.87)
(586.5997 6810.485 11884.11)
(788.9777 16497.61 6003.653)
(50.95606 360.4581 10864.61)
(174.4392 1288.211 11518.17)
(336.8759 2889.116 12503.66)
(554.6305 6152.119 14620.04)
(856.2948 14310.66 24489.91)
(1289.925 1636.5 32923.6)
(1385.765 737.6955 32903.05)
(708.0742 321.4005 33923.73)
(46.76086 306.4169 10751.97)
(158.7601 1082.095 11506.66)
(305.6953 2353.829 12804.54)
(507.7581 4594.461 15420.57)
(805.3907 7821.49 21718.93)
(1200.073 3006.441 27362.26)
(1522.082 1518.887 29243.71)
(1602.801 722.8901 31236.16)
(811.3982 185.3234 33243.78)
(43.12635 229.4663 10599.74)
(145.2576 800.1723 11407.28)
(277.8745 1685.987 12834.9)
(459.4271 3048.246 15417.78)
(724.0946 4360.988 19940.66)
(1056.288 2365.538 23986.26)
(1394.257 1387.944 26145.26)
(1737.35 718.8164 28271.09)
(1817.673 202.8141 30578.89)
(917.0726 -342.2812 32826.91)
(39.8254 139.7245 10386.25)
(133.1836 482.1883 11204.37)
(252.8717 991.1498 12650.73)
(414.3291 1700.019 15068.39)
(643.6304 2215.461 18654.13)
(918.4112 1387.482 21816.29)
(1211.617 882.364 23843.71)
(1575.401 479.0942 25814.94)
(1945.691 139.9271 27881.52)
(2032.917 -228.4972 30112.4)
(1024.481 -773.5549 32180.67)
(36.72184 46.02561 10102.41)
(122.0268 157.8096 10898.71)
(229.9826 319.863 12303.82)
(373.2569 533.8661 14559.94)
(571.8724 667.2273 17666.55)
(801.2368 441.0807 20365.8)
(1044.169 289.8267 22199.34)
(1360.041 160.2638 23958.84)
(1751.238 46.98474 25728.57)
(2151.622 -75.49947 27582.44)
(2250.771 -252.6333 29512.29)
(1134.04 -558.3294 31095.05)
(29.48401 -393.2972 14401.1)
(69.34214 -239.6057 13469.55)
(85.17861 -851.2341 13369.75)
(80.46704 -76.96738 12495.7)
(202.395 -277.6697 12578.72)
(135.4763 -596.4997 11381.73)
(76.51995 71.84545 11698.08)
(237.8196 259.3019 11823.31)
(326.6771 566.9642 10907.58)
(178.5791 1049.267 8153.007)
(68.33076 196.0136 11130.65)
(229.1608 705.6305 11278.08)
(390.1069 1555.125 10581.73)
(441.3924 2980.505 8254.917)
(212.7014 4753.332 3291.979)
(60.48486 288.9004 10769.3)
(207.3127 1038.589 10973.47)
(382.3998 2309.086 10533.42)
(540.1394 4581.942 8654.706)
(546.1579 7942.864 3679.343)
(54.14594 345.7098 10563)
(185.658 1242.248 10870.03)
(351.9604 2791.795 10782.23)
(543.3948 5787.97 9547.829)
(694.9022 11314.51 4365.41)
(49.22151 363.9083 10453.94)
(167.6983 1304.927 10898.19)
(320.1481 2950.542 11273.77)
(513.8141 6390.214 11154.05)
(734.8014 15391.87 5607.537)
(45.31121 344.6665 10385.45)
(153.2382 1227.499 10971.58)
(292.4983 2741.287 11860.53)
(478.528 5807.224 13799.31)
(745.7967 13427.65 22980.06)
(1179.714 1527.101 30704.88)
(1512.627 688.9483 30590.89)
(1599.594 308.4485 31892.14)
(811.6294 79.40616 33674.89)
(42.03509 293.8367 10308.18)
(141.188 1034.699 10999.77)
(268.5684 2242.948 12198.4)
(440.7447 4359.522 14630.19)
(693.5575 7383.234 20502.69)
(1039.388 2821.041 25673.86)
(1383.985 1418.052 27260.57)
(1732.308 678.5103 28993.18)
(1817.866 192.3269 31139.19)
(919.8282 -283.1289 33454.09)
(39.11713 220.5781 10187.42)
(130.5906 767.3259 10936.89)
(247.1618 1612.166 12270.68)
(403.6901 2904.719 14690.27)
(628.3345 4138.079 18922.1)
(908.2165 2232.972 22645.32)
(1204.625 1302.567 24531.45)
(1571.405 672.4778 26341.91)
(1945.078 198.4289 28335.6)
(2037.359 -288.1 30633.58)
(1030.262 -1008.045 32982.63)
(36.38528 134.5914 10003.39)
(120.8113 463.5135 10768.86)
(227.3752 950.4747 12129.93)
(368.6228 1625.61 14407.7)
(565.6566 2111.179 17776.7)
(796.7836 1316.545 20704.61)
(1040.968 832.9459 22512.88)
(1358.108 449.9264 24221.5)
(1750.739 133.0568 25967.99)
(2153.37 -199.9518 27858.63)
(2256.764 -681.6113 29921.26)
(1140.351 -1529.156 31784.64)
(33.74577 44.41537 9747.974)
(111.4919 152.0128 10497.2)
(208.6438 307.4776 11826.2)
(335.6949 511.9634 13961.77)
(508.9335 638.031 16894)
(704.2983 420.3164 19410.06)
(905.7944 275.0094 21070.37)
(1167.663 151.3153 22624.1)
(1506.416 44.35736 24141.07)
(1925.87 -68.7736 25679.85)
(2358.984 -226.848 27261.73)
(2476.528 -495.2176 28806.15)
(1249.958 -976.3533 29798.77)
(30.59377 -496.0571 14903.19)
(71.18294 -374.1627 13814.09)
(87.91842 -1335.392 13865.25)
(81.52279 -223.799 12663.83)
(205.6611 -809.5429 12821)
(138.4298 -1752.737 11760.38)
(76.51995 -71.84544 11698.08)
(237.8196 -259.3019 11823.31)
(326.6771 -566.9642 10907.58)
(178.5791 -1049.267 8153.007)
(67.5089 67.41171 10983.4)
(225.9402 242.0321 11067.01)
(382.8093 529.2861 10246.32)
(429.4764 996.6703 7805.92)
(204.8936 1543.036 3045.094)
(59.14114 185.0081 10503.32)
(202.0101 662.0841 10588.6)
(369.649 1451.404 9901.442)
(514.5111 2781.323 7746.321)
(509.3893 4512.148 3147.665)
(52.5387 274.1042 10213.26)
(179.353 980.2922 10355.24)
(336.5033 2166.586 9888.541)
(509.4203 4275.79 8093.377)
(631.3922 7408.774 3447.691)
(47.56136 329.4122 10060.95)
(161.2479 1178.647 10309.34)
(304.2426 2635.168 10175.35)
(476.7787 5430.789 8961.93)
(650.746 10556.89 4079.247)
(43.76665 347.9656 9992.765)
(147.3126 1243.428 10380.81)
(277.9998 2799.571 10693.49)
(443.5777 6031.968 10527.38)
(641.8739 14442.12 5262.644)
(40.73019 330.516 9956.705)
(136.2707 1173.735 10488.12)
(256.9662 2612.162 11298.81)
(415.4093 5510.314 13091.71)
(642.5415 12675.49 21693.12)
(1021.94 1432.914 28810.17)
(1375.444 643.1457 28517.16)
(1728.515 289.3252 29602.97)
(1817.841 81.71842 31539.77)
(921.5863 -109.7162 33878.53)
(38.12624 282.4553 9907.155)
(126.9272 992.2267 10546.1)
(238.8738 2144.746 11662.02)
(387.2638 4154.284 13939.72)
(601.8653 7005.959 19455.39)
(893.7397 2662.962 24238.33)
(1195.783 1330.766 25577.77)
(1566.667 634.5406 27014.61)
(1944.238 187.0091 28852.32)
(2041.948 -237.9917 31203.76)
(1036.431 -866.2931 33889.63)
(35.73765 212.4747 9811.867)
(118.4567 737.6084 10511.74)
(222.2349 1546.008 11765.46)
(359.1469 2777.593 14046.12)
(552.2069 3943.337 18032.04)
(787.9457 2118.823 21491.26)
(1034.969 1229.609 23162.03)
(1354.611 631.4739 24715.64)
(1749.802 188.2791 26389.79)
(2156.26 -251.9794 28334.52)
(2266.912 -888.5448 30640.34)
(1151.301 -2051.247 33056.72)
(33.43629 129.8826 9652.419)
(110.3805 446.4872 10372.12)
(206.276 913.672 11659.04)
(331.5228 1558.92 13815.77)
(503.397 2018.806 16999.32)
(700.3826 1254.571 19732.92)
(903.018 790.3633 21367.87)
(1165.995 424.7981 22871.99)
(1505.912 125.5634 24365.38)
(1927.016 -182.1247 25935.55)
(2363.377 -612.1482 27632.74)
(2487.71 -1356.545 29420.28)
(1260.916 -2735.219 30829.75)
(31.15824 42.93081 9421.379)
(102.4597 146.6949 10129.08)
(190.6478 296.185 11390.97)
(304.5983 492.1447 13420.67)
(457.8371 611.862 16201.42)
(626.9453 401.9243 18562.92)
(796.302 262.0631 20083.31)
(1012.84 143.5841 21476.03)
(1292.449 41.93928 22799.1)
(1652.988 -64.04253 24096.55)
(2099.827 -208.7081 25372.25)
(2565.627 -446.5159 26566.39)
(2703.638 -866.7656 27485.38)
(1365.379 -1589.314 27494.64)
(31.89842 -548.0125 15495.31)
(73.72434 -471.9129 14291.6)
(91.72409 -1692.355 14567.55)
(83.53706 -349.4752 12985.59)
(211.9202 -1269.937 13291.86)
(144.1629 -2788.883 12525.15)
(77.47552 -208.9055 11855.02)
(241.3834 -755.9824 12049.47)
(333.3984 -1665.871 11267.08)
(183.8388 -3138.077 8626.275)
(67.5089 -67.41171 10983.4)
(225.9402 -242.032 11067.01)
(382.8093 -529.2861 10246.32)
(429.4764 -996.6703 7805.92)
(204.8936 -1543.036 3045.094)
(58.43677 63.62676 10364.33)
(199.2417 227.0956 10390.56)
(363.0706 493.988 9588.462)
(501.6433 930.1081 7327.585)
(491.7614 1464.958 2913.521)
(51.3741 175.5327 9960.9)
(174.8092 624.9196 9991.966)
(325.5544 1361.833 9295.565)
(486.3928 2595.544 7245.838)
(591.9227 4209.367 2951.994)
(46.14858 261.182 9727.686)
(155.7833 930.101 9820.886)
(291.0012 2045.026 9331.754)
(447.6457 4011.922 7597.229)
(593.8951 6913.069 3223.079)
(42.28835 314.9806 9616.985)
(141.6422 1123.098 9819.688)
(264.2141 2500.326 9651.206)
(411.8631 5126.286 8458.032)
(569.9197 9905.443 3828.654)
(39.33985 333.6797 9580.139)
(130.9938 1188.967 9923.203)
(244.2198 2667.7 10186.69)
(385.1158 5723.565 9986.829)
(553.5931 13633.1 4967.237)
(36.94135 317.714 9569.297)
(122.5006 1125.557 10055.44)
(228.5408 2497.801 10801.78)
(364.9872 5250.935 12473.58)
(557.645 12028.01 20584.95)
(878.7982 1352.624 27198.91)
(1188.442 603.5427 26756.71)
(1563.132 270.5137 27582.89)
(1943.552 79.16452 29222.14)
(2044.87 -92.13464 31589.82)
(1040.5 -345.0341 34529.49)
(34.83159 272.0789 9541.893)
(115.1302 953.7998 10136.08)
(214.7735 2056.738 11181.76)
(344.5161 3972.492 13328.37)
(528.9315 6676.34 18540.22)
(775.3962 2526.858 23002.85)
(1027.386 1256.223 24149.65)
(1350.48 595.7867 25346.51)
(1748.652 177.0668 26869.95)
(2159.233 -208.0213 28855.3)
(2277.744 -763.9073 31453.42)
(1163.449 -1829.988 34616.7)
(32.84077 205.0412 9467.599)
(108.2274 710.5142 10124.43)
(201.608 1486.148 11308.67)
(322.9913 2663.652 13469)
(491.4166 3770.828 17243.49)
(692.6115 2019.097 20482.55)
(897.8156 1166.752 21983.83)
(1162.979 596.1924 23338.34)
(1504.981 177.5588 24760.6)
(1928.905 -229.4792 26376.16)
(2370.82 -798.2372 28285.13)
(2507.109 -1820.269 30553.23)
(1280.611 -3840.107 32867.94)
(30.87235 125.5414 9329.018)
(101.4376 430.868 10008.38)
(188.4826 880.1165 11229.94)
(300.8093 1498.574 13280.32)
(452.8521 1936.01 16302.42)
(623.4576 1199.677 18871.66)
(793.8607 753.1579 20366.8)
(1011.391 403.0934 21711.23)
(1291.994 118.7046 23010.74)
(1653.833 -169.5951 24335.87)
(2103.016 -563.25 25714.95)
(2574.001 -1223.35 27121.78)
(2723.049 -2428.689 28399.84)
(1383.343 -4598.324 28891.97)
(28.88174 41.55646 9119.154)
(94.60584 141.7921 9789.851)
(175.2147 285.8252 10991.85)
(278.3621 474.0737 12927.41)
(415.5142 588.1814 15574.63)
(564.1354 385.4398 17803.15)
(708.962 250.5962 19208.1)
(890.5255 136.8262 20471.96)
(1121.009 39.80817 21645.05)
(1417.265 -60.32634 22760.59)
(1798.343 -194.9647 23810.23)
(2271.02 -411.4727 24718.67)
(2767.732 -782.2451 25311.73)
(2925.233 -1409.671 25248.77)
(1474.544 -2373.691 46433.07)
(33.26161 -542.8074 16114.07)
(76.71156 -521.3341 14854.72)
(96.22043 -1873.746 15414.35)
(86.31734 -440.7708 13431.52)
(220.6112 -1609.335 13959.14)
(152.2741 -3594.262 13678.18)
(79.2985 -326.2171 12155.35)
(248.2108 -1185.891 12488.97)
(346.4383 -2650.44 11993.06)
(194.3363 -5170.984 9653.304)
(68.33076 -196.0135 11130.65)
(229.1608 -705.6305 11278.08)
(390.1069 -1555.125 10581.73)
(441.3924 -2980.505 8254.917)
(212.7014 -4753.332 3291.979)
(58.43677 -63.62676 10364.33)
(199.2417 -227.0956 10390.56)
(363.0706 -493.988 9588.462)
(501.6433 -930.1081 7327.585)
(491.7614 -1464.958 2913.521)
(50.76362 60.36799 9829.029)
(172.4369 214.3479 9805.032)
(319.905 463.5022 9001.9)
(474.8245 867.9922 6855.139)
(572.9655 1366.758 2733.669)
(45.12489 167.2573 9487.223)
(151.8451 592.9226 9476.202)
(281.6214 1285.421 8772.023)
(427.8938 2435.365 6801.992)
(558.5147 3927.881 2760.607)
(41.03032 249.7394 9298.322)
(136.8385 886.2646 9354.245)
(252.7375 1940.374 8850.738)
(386.9136 3786.941 7169.785)
(521.2217 6486.461 3025.317)
(38.00915 302.0489 9219.784)
(125.9442 1073.906 9386.644)
(232.0999 2382.544 9193.451)
(357.6272 4864.148 8023.162)
(491.9962 9350.363 3613.542)
(35.67887 320.7552 9207.314)
(117.7503 1140.163 9513.702)
(217.1885 2550.908 9738.3)
(338.3503 5454.146 9514.66)
(480.5444 12936.67 4712.567)
(33.74813 306.0424 9216.446)
(111.1105 1081.967 9664.412)
(205.4708 2395.309 10356.8)
(324.6735 5021.179 11926.32)
(490.0445 11462.28 19616.61)
(762.4443 1283.499 25812.17)
(1021.093 569.7341 25262.5)
(1347.406 253.9753 25879.53)
(1747.788 74.85971 27213.74)
(2161.118 -80.49418 29208.03)
(2284.891 -304.3405 32026.85)
(1171.85 -749.568 35845.32)
(32.0076 262.5601 9207.069)
(105.1855 918.7649 9762.568)
(194.8321 1977.106 10747.57)
(309.8183 3809.55 12780.67)
(470.6829 6384.335 17729.42)
(681.5764 2407.948 21923.01)
(891.2405 1192.012 22920.97)
(1159.42 562.4855 23933.77)
(1503.867 166.8767 25210.54)
(1930.845 -189.4097 26858.42)
(2378.772 -686.507 29022.81)
(2528.63 -1624.503 31942.69)
(1303.832 -3654.9 35701.86)
(30.32222 198.1879 9150.375)
(99.45774 685.659 9769.356)
(184.2139 1431.569 10892.44)
(293.0613 2560.548 12946.96)
(442.065 3616.196 16536.57)
(616.5357 1930.761 19588.48)
(789.286 1111.833 20953.76)
(1008.772 565.7293 22153.73)
(1291.16 167.8292 23383.66)
(1655.225 -213.6889 24748.3)
(2108.423 -734.5942 26317.58)
(2588.536 -1642.048 28146.55)
(2757.928 -3410.954 30208.63)
(1417.232 -6923.355 31910.01)
(28.61664 121.5224 9029.749)
(93.66167 416.4677 9673.179)
(173.2236 849.3328 10836.45)
(274.8971 1443.55 12792.21)
(410.9868 1861.085 15671.72)
(560.9953 1150.476 18099.22)
(706.7877 720.2038 19479.19)
(889.2512 384.1216 20696.08)
(1120.608 112.6695 21845.85)
(1417.948 -159.7563 22986.33)
(1800.833 -526.1856 24130.76)
(2277.214 -1127.455 25231.08)
(2782.297 -2192.315 26137.37)
(2956.948 -4079.788 26483.38)
(1501.775 -7150.593 49562.35)
(26.85914 40.27977 8838.493)
(87.69549 137.2532 9475.911)
(161.7924 276.2738 10624)
(255.8538 457.4949 12474.97)
(379.7872 566.5883 15003.04)
(512.0854 370.5233 17115.29)
(638.0335 240.3196 18422.88)
(792.989 130.8412 19581.3)
(985.7755 37.93875 20635.34)
(1229.215 -57.21544 21611.82)
(1540.922 -183.8086 22494.45)
(1940.768 -384.5695 23200.92)
(2436.374 -721.1194 23549.38)
(2959.228 -1272.16 23227.31)
(3130.37 -2101.38 42405.05)
(201.6108 -481.8142 14619.49)
(34.54041 -482.5464 16691.57)
(79.83278 -516.3875 15443.16)
(100.9204 -1849.703 16305.99)
(89.58479 -486.9281 13957.37)
(230.8764 -1781.783 14763.65)
(162.0392 -4024.894 15180.13)
(81.81448 -411.4356 12571.58)
(257.6872 -1502.793 13111.8)
(364.8738 -3415.498 13087.36)
(209.8868 -7002.304 11416.76)
(69.89864 -306.0857 11412.45)
(235.33 -1106.899 11688.26)
(404.256 -2474.13 11258.99)
(465.1519 -4910.504 9229.058)
(229.0121 -8369.853 3852.721)
(59.14114 -185.0081 10503.32)
(202.0101 -662.0841 10588.6)
(369.649 -1451.404 9901.442)
(514.5111 -2781.323 7746.321)
(509.3893 -4512.148 3147.665)
(50.76362 -60.36799 9829.029)
(172.4369 -214.3479 9805.032)
(319.905 -463.5022 9001.9)
(474.8245 -867.9922 6855.139)
(572.9655 -1366.758 2733.669)
(44.58827 57.52196 9361.569)
(149.789 203.3727 9298.834)
(276.7815 437.4944 8494.824)
(417.9692 814.4255 6435.404)
(541.5068 1275.386 2556.91)
(40.11877 159.9296 9068.392)
(133.3766 564.9768 9025.798)
(244.6078 1219.636 8319.626)
(369.997 2298.779 6419.109)
(490.9002 3685.484 2591.384)
(36.87673 239.4861 8914.202)
(121.6665 847.4453 8941.577)
(222.0104 1848.964 8430.658)
(336.0024 3593.26 6800.727)
(450.3017 6122.874 2855.199)
(34.47056 290.3494 8860.915)
(113.2047 1029.825 8999.158)
(206.3945 2278.232 8788.515)
(314.1804 4635.152 7643.336)
(427.1534 8872.529 3427.989)
(32.59374 308.9718 8867.76)
(106.7969 1096.008 9143.649)
(195.2505 2446.237 9336.921)
(300.9466 5215.498 9096.735)
(422.2384 12328.18 4490.095)
(31.01132 295.3355 8893.006)
(101.5099 1042.225 9308.223)
(186.3841 2302.571 9954.522)
(291.9524 4815.24 11436.08)
(436.0401 10961.08 18758.71)
(670.187 1223.105 24600.18)
(885.7843 540.6144 23976.94)
(1156.775 239.7759 24436.86)
(1503.045 70.52405 25532.75)
(1932.07 -73.28169 27185.12)
(2384.022 -273.5699 29543.08)
(2543.511 -665.5614 33037.12)
(1321.32 -1573.658 38417.87)
(29.55256 253.7844 8898.552)
(96.66055 886.6251 9420.148)
(178.0176 1904.499 10351.93)
(281.0977 3662.103 12285.26)
(423.3955 6122.576 17002.56)
(606.706 2302.613 20965.94)
(783.5043 1135.91 21846.8)
(1005.682 533.744 22718.7)
(1290.167 157.7045 23808.23)
(1656.651 -176.3727 25199.74)
(2114.208 -631.8891 26999.07)
(2604.668 -1465.972 29403.68)
(2799.046 -3247.803 32725.64)
(1461.071 -7379.917 36934.71)
(28.10651 191.8433 8856.825)
(91.83266 662.7434 9442.146)
(169.2981 1381.499 10510.75)
(267.8115 2466.535 12471.09)
(401.1897 3476.261 15896.8)
(554.7631 1851.582 18786.64)
(702.7132 1063.188 20040.46)
(886.9481 539.1035 21117.74)
(1119.876 159.2897 22199.66)
(1419.072 -201.2968 23375.38)
(1805.059 -686.3126 24694.44)
(2287.975 -1513.605 26176.69)
(2808.474 -3080.135 27771.26)
(3016.777 -6146.073 29153.58)
(1556.253 -11882.84 57048.71)
(26.61253 117.7891 8751.835)
(86.81995 403.1363 9362.973)
(159.9529 820.9508 10473.79)
(252.6673 1393.069 12344.5)
(375.6468 1792.764 15096.56)
(509.2336 1105.954 17399.9)
(636.0759 690.6695 18682.84)
(791.8543 367.3193 19795.61)
(985.4231 107.3771 20826.68)
(1229.797 -151.5205 21825.99)
(1542.982 -496.0908 22796.73)
(1945.654 -1053.8 23679.99)
(2447.195 -2021.269 24310.62)
(2982.923 -3682.877 24340.37)
(3178.21 -6333.503 45144.83)
(207.3719 -1535.394 15622.71)
(25.04715 39.09033 8577.081)
(81.55545 133.0368 9184.357)
(149.9805 267.431 10283.52)
(236.2722 442.209 12057.88)
(349.1217 546.7775 14478.59)
(468.1254 356.922 16487.82)
(579.237 231.0211 17711.78)
(713.7677 125.4789 18781.9)
(877.9676 36.28428 19739.27)
(1081.104 -54.51173 20606.25)
(1336.442 -174.3608 21363)
(1661.988 -362.6089 21924.19)
(2077.791 -674.0328 22110.13)
(2591.179 -1172.715 21615.61)
(3131.048 -1895.299 39000.62)
(420.8455 -424.2038 13334.14)
(238.9303 -770.5468 20921.4)
(35.60896 -376.813 17170.58)
(82.76125 -459.0728 15992.38)
(105.2967 -1630.468 17113.45)
(92.99872 -482.3106 14506.88)
(241.6055 -1758.941 15610.69)
(172.3206 -3941.001 16862.39)
(84.77106 -454.5203 13062.41)
(268.876 -1663.803 13862.65)
(387.0515 -3824.43 14512.45)
(229.7557 -8242.162 14251.35)
(72.06244 -386.0452 11802.99)
(243.891 -1402.684 12269.52)
(424.2423 -3188.129 12279.75)
(500.2966 -6648.11 10901.13)
(255.4004 -12790.36 4891.413)
(60.48486 -288.9004 10769.3)
(207.3127 -1038.589 10973.47)
(382.3998 -2309.086 10533.42)
(540.1394 -4581.942 8654.706)
(546.1579 -7942.864 3679.343)
(51.3741 -175.5327 9960.9)
(174.8092 -624.9196 9991.966)
(325.5544 -1361.833 9295.565)
(486.3928 -2595.544 7245.838)
(591.9227 -4209.367 2951.994)
(44.58827 -57.52196 9361.569)
(149.789 -203.3727 9298.834)
(276.7815 -437.4944 8494.824)
(417.9692 -814.4255 6435.404)
(541.5068 -1275.386 2556.91)
(39.64093 55.00183 8948.242)
(131.5692 193.7871 8856.785)
(240.413 415.1037 8056.602)
(361.4966 768.7463 6073.065)
(476.3198 1196.679 2400.258)
(36.05619 153.3634 8693.711)
(118.5837 540.2297 8627.51)
(214.8633 1162.176 7924.548)
(321.3402 2181.195 6088.409)
(424.338 3478.861 2445.576)
(33.44229 230.2098 8567.168)
(109.3539 812.6588 8572.353)
(197.4087 1768.008 8059.095)
(295.1671 3424.071 6478.402)
(391.0142 5809.879 2708.377)
(31.48886 279.683 8534.085)
(102.6692 989.9423 8649.026)
(185.5328 2184.746 8426.083)
(279.4178 4432.316 7307.224)
(375.2874 8455.061 3265.911)
(29.94979 298.1624 8556.518)
(97.56547 1055.75 8806.582)
(177.1027 2351.528 8974.109)
(270.5886 5001.588 8722.449)
(375.6307 11789.1 4293.126)
(28.63221 285.4643 8594.986)
(93.28058 1005.766 8981.692)
(170.2922 2218.014 9587.991)
(264.8716 4628.882 10992.67)
(392.2 10511.76 17989.64)
(596.5604 1169.606 23526.03)
(778.7064 515.1722 22853.09)
(1003.386 227.5239 23196.06)
(1289.439 66.64071 24112.29)
(1657.551 -68.23638 25505.59)
(2118.033 -251.8368 27479.75)
(2615.828 -600.7579 30394.18)
(2830.005 -1398.772 35140.17)
(1499.619 -3465.571 43739.19)
(27.39281 245.66 8613.063)
(89.24864 856.9933 9104.606)
(163.6001 1837.889 9989.141)
(256.8706 3527.654 11833.67)
(384.233 5885.686 16344.75)
(545.9124 2208.194 20107.62)
(697.5634 1086.216 20894.42)
(884.2304 508.6243 21656.11)
(1119.006 149.6742 22602.5)
(1420.224 -166.1486 23801.25)
(1809.583 -590.414 25331.94)
(2299.932 -1351.584 27336.97)
(2839.343 -2934.132 30046.46)
(3094.17 -6556.05 33608.11)
(1636.492 -15484.08 73415.1)
(26.13798 185.9496 8584.223)
(85.12392 641.5287 9139.335)
(156.3266 1335.334 10158.97)
(246.1512 2380.283 12034.6)
(366.6869 3348.657 15313.37)
(503.5735 1779.931 18060.72)
(632.4077 1019.59 19221.09)
(789.8033 515.5218 20198.81)
(984.7779 151.8045 21163.83)
(1230.755 -190.925 22195.09)
(1546.48 -647.0912 23328.35)
(1954.147 -1414.871 24564.18)
(2466.661 -2840.49 25817.54)
(3027.645 -5551.131 26749.8)
(3273.949 -10535.68 51721.1)
(219.8245 -3012.976 18023.31)
(24.81712 114.3108 8492.981)
(80.74098 390.752 9074.888)
(148.2748 794.6746 10138.12)
(233.3284 1346.524 11931.76)
(345.314 1730.082 14568.83)
(465.5174 1065.357 16761.98)
(577.4594 663.946 17961.68)
(712.7464 352.2647 18987.42)
(877.6542 102.693 19922.22)
(1081.614 -144.3624 20810.33)
(1338.209 -470.6005 21649.76)
(1666.048 -993.6608 22375.92)
(2086.349 -1889.44 22821.63)
(2608.788 -3395.618 22641.1)
(3166.525 -5714.806 41461.27)
(430.8482 -1353.257 14209.27)
(248.39 -2509.881 22286.15)
(23.41241 37.97945 8332.985)
(76.05449 129.1085 8912.786)
(139.4841 259.2164 9967.294)