/*--------------------------------*- C++ -*----------------------------------*\
| =========                 |                                                 |
| \\      /  F ield         | OpenFOAM: The Open Source CFD Toolbox           |
|  \\    /   O peration     | Version:  2306                                  |
|   \\  /    A nd           | Website:  www.openfoam.com                      |
|    \\/     M anipulation  |                                                 |
\*---------------------------------------------------------------------------*/
FoamFile
{
    version     2.0;
    format      ascii;
    arch        "LSB;label=32;scalar=64";
    class       volScalarField;
    location    "0.6/phiEC";
    object      phi;
}
// * * * * * * * * * * * * * * * * * * * * * * * * * * * * * * * * * * * * * //

dimensions      [1 2 -3 0 0 -1 0];

internalField   nonuniform List<scalar> 
20000
(
0.8023381
0.8023373
0.8023345
0.8025167
0.8023358
0.8023337
0.802514
0.8023294
0.8025054
0.8027065
0.8023336
0.8023322
0.8025088
0.8023286
0.8025029
0.8027013
0.8023243
0.8024898
0.8026868
0.8029181
0.8023309
0.8023301
0.8025014
0.8023272
0.8024979
0.8026909
0.8023236
0.8024874
0.8026818
0.8029097
0.8023198
0.8024744
0.8026599
0.8028885
0.8031647
0.8023281
0.8023276
0.8024925
0.8023253
0.8024909
0.8026758
0.8023223
0.8024828
0.802672
0.8028925
0.8023191
0.8024722
0.8026552
0.8028805
0.8031546
0.8023159
0.8024607
0.8026334
0.8028486
0.8031226
0.803381
0.8023255
0.8023249
0.8024829
0.8023229
0.8024824
0.8026571
0.8023205
0.8024762
0.8026577
0.8028659
0.8023179
0.8024679
0.802646
0.8028641
0.8031328
0.8023153
0.8024586
0.8026291
0.8028411
0.8031131
0.8033747
0.8023125
0.8024489
0.80261
0.8028097
0.8030672
0.8033273
0.8035322
0.8023232
0.8023224
0.8024737
0.8023205
0.8024733
0.8026364
0.8023183
0.8024683
0.8026398
0.8028297
0.8023162
0.8024617
0.8026327
0.8028389
0.803095
0.8023141
0.8024545
0.8026205
0.8028259
0.8030924
0.8033621
0.8023119
0.8024469
0.8026059
0.8028028
0.8030582
0.8033213
0.8035282
0.8023096
0.8024387
0.8025897
0.8027754
0.8030137
0.8032578
0.80347
0.8036878
0.8023215
0.8023202
0.802466
0.8023181
0.8024646
0.8026168
0.802316
0.8024598
0.8026202
0.8027865
0.8023142
0.8024543
0.802616
0.8028046
0.8030318
0.8023125
0.8024488
0.802608
0.8028023
0.8030565
0.8033442
0.8023108
0.8024431
0.8025978
0.8027885
0.8030389
0.8033093
0.8035209
0.802309
0.8024368
0.8025859
0.8027689
0.8030054
0.8032522
0.8034662
0.8036858
0.802307
0.8024297
0.8025723
0.8027459
0.8029669
0.8031916
0.8033905
0.8036165
0.8038462
0.8023207
0.8023187
0.8024604
0.8023161
0.8024572
0.8026005
0.8023138
0.8024517
0.8026016
0.8027473
0.802312
0.8024464
0.8025977
0.8027635
0.8029214
0.8023106
0.8024419
0.8025925
0.8027703
0.8029966
0.8033258
0.8023093
0.8024376
0.8025861
0.8027665
0.8030055
0.8032924
0.8035115
0.802308
0.8024331
0.8025783
0.8027555
0.8029874
0.803241
0.8034592
0.8036822
0.8023065
0.8024279
0.8025686
0.8027397
0.8029591
0.8031863
0.803387
0.8036146
0.8038457
0.8023046
0.8024218
0.802557
0.8027204
0.8029266
0.8031337
0.8033153
0.8035266
0.8037652
0.8040059
0.8023207
0.8023178
0.8024575
0.8023146
0.8024519
0.8025889
0.8023119
0.8024448
0.8025861
0.8027165
0.8023099
0.8024388
0.8025803
0.8027263
0.8028451
0.8023085
0.8024344
0.8025754
0.802732
0.802892
0.8023075
0.8024311
0.8025715
0.8027366
0.8029496
0.8032748
0.8035038
0.8023065
0.802428
0.8025672
0.8027349
0.8029562
0.8032252
0.8034503
0.8036779
0.8023055
0.8024245
0.8025614
0.8027271
0.8029422
0.8031759
0.8033804
0.8036111
0.8038449
0.8023041
0.8024201
0.8025535
0.8027146
0.8029192
0.8031288
0.803312
0.8035248
0.8037647
0.8040069
0.8023025
0.8024148
0.8025435
0.8026982
0.8028919
0.8030841
0.8032498
0.8034421
0.8036645
0.8039146
0.8041654
0.8023215
0.8023178
0.8024575
0.8023138
0.8024491
0.802583
0.8023105
0.8024398
0.8025751
0.8026956
0.8023081
0.8024324
0.8025658
0.8026971
0.8027935
0.8023066
0.8024273
0.8025592
0.8026973
0.8028196
0.8023055
0.8024241
0.8025555
0.8027009
0.8028521
0.8023048
0.8024218
0.8025535
0.8027068
0.802904
0.8032088
0.8034429
0.8036747
0.8023041
0.8024196
0.8025509
0.8027076
0.8029129
0.8031611
0.8033721
0.8036069
0.8038438
0.8023032
0.8024168
0.8025466
0.8027026
0.8029033
0.803119
0.8033059
0.8035215
0.8037638
0.8040086
0.8023021
0.8024131
0.8025402
0.8026926
0.8028849
0.8030795
0.8032467
0.8034404
0.803664
0.8039154
0.8041683
0.8023006
0.8024084
0.8025314
0.8026785
0.8028616
0.8030414
0.8031937
0.8033688
0.8035706
0.8038028
0.8040633
0.8043231
0.8023232
0.8023187
0.8024604
0.8023138
0.8024491
0.802583
0.8023098
0.8024372
0.8025694
0.8026851
0.8023068
0.8024277
0.8025556
0.8026772
0.8027614
0.8023049
0.8024213
0.8025456
0.80267
0.8027706
0.8023037
0.8024173
0.8025403
0.8026685
0.8027846
0.8023029
0.8024151
0.8025383
0.8026733
0.8028131
0.8023024
0.8024136
0.8025378
0.8026812
0.8028639
0.8031458
0.8033652
0.8036039
0.803843
0.8023018
0.8024121
0.8025367
0.8026841
0.8028756
0.8031051
0.8032981
0.8035176
0.8037627
0.8040103
0.8023011
0.8024099
0.8025336
0.8026812
0.8028697
0.8030703
0.803241
0.8034373
0.8036631
0.8039169
0.8041731
0.8023002
0.8024068
0.8025282
0.8026731
0.8028549
0.803037
0.8031908
0.8033672
0.8035701
0.8038036
0.8040658
0.8043287
0.8022989
0.8024026
0.8025205
0.8026608
0.8028347
0.803004
0.8031454
0.8033061
0.8034894
0.8036994
0.8039403
0.8042097
0.8044764
0.8023255
0.8023202
0.802466
0.8023146
0.8024519
0.8025889
0.8023098
0.8024372
0.8025694
0.8026851
0.8023062
0.8024253
0.8025503
0.8026673
0.802746
0.8023037
0.8024169
0.8025361
0.8026515
0.8027402
0.8023021
0.8024116
0.8025276
0.802643
0.8027389
0.8023011
0.8024087
0.802524
0.8026429
0.8027501
0.8023006
0.8024073
0.8025235
0.8026495
0.8027786
0.8023002
0.8024065
0.8025242
0.802659
0.8028294
0.8030908
0.8032917
0.8035147
0.8037619
0.8040114
0.8022999
0.8024055
0.8025241
0.8026635
0.8028435
0.8030572
0.8032337
0.8034337
0.803662
0.8039183
0.8041784
0.8022993
0.8024037
0.8025219
0.8026622
0.8028404
0.8030282
0.8031854
0.8033643
0.8035693
0.8038048
0.8040701
0.8043384
0.8022984
0.802401
0.8025174
0.8026557
0.8028283
0.8029998
0.8031426
0.8033046
0.8034889
0.8037001
0.8039426
0.8042147
0.8044861
0.8022972
0.8023972
0.8025106
0.8026449
0.8028107
0.8029709
0.8031031
0.8032521
0.80342
0.8036103
0.8038274
0.8040755
0.8043514
0.8046211
0.8023281
0.8023224
0.8024737
0.8023161
0.8024572
0.8026005
0.8023105
0.8024398
0.8025751
0.8026956
0.8023062
0.8024253
0.8025503
0.8026673
0.802746
0.802303
0.8024146
0.8025311
0.8026422
0.8027255
0.8023009
0.8024075
0.8025186
0.8026258
0.8027105
0.8022996
0.8024033
0.802512
0.802619
0.8027075
0.8022989
0.8024012
0.8025099
0.8026208
0.8027195
0.8022985
0.8024004
0.8025105
0.802629
0.8027489
0.8022983
0.8024
0.8025122
0.8026396
0.8027997
0.8030436
0.8032277
0.803431
0.8036612
0.8039192
0.8041818
0.802298
0.8023994
0.8025128
0.8026454
0.8028155
0.8030158
0.8031785
0.8033609
0.8035683
0.8038061
0.8040747
0.8043492
0.8022976
0.8023981
0.8025114
0.8026453
0.8028145
0.8029915
0.8031375
0.8033019
0.8034881
0.8037012
0.8039465
0.8042233
0.8045037
0.8022968
0.8023958
0.8025076
0.80264
0.8028045
0.8029669
0.8031005
0.8032506
0.8034195
0.8036109
0.8038295
0.8040799
0.80436
0.804637
0.8022957
0.8023923
0.8025014
0.8026304
0.8027889
0.8029413
0.8030657
0.8032048
0.8033601
0.8035341
0.8037304
0.8039531
0.804206
0.8044846
0.8047513
0.8023309
0.8023249
0.8024829
0.8023181
0.8024646
0.8026168
0.8023119
0.8024448
0.8025861
0.8027165
0.8023068
0.8024277
0.8025556
0.8026772
0.8027614
0.802303
0.8024146
0.8025311
0.8026422
0.8027255
0.8023003
0.8024054
0.802514
0.8026171
0.8026968
0.8022985
0.8023994
0.8025035
0.8026028
0.802681
0.8022975
0.8023961
0.8024985
0.8025983
0.8026795
0.8022969
0.8023946
0.8024975
0.8026018
0.8026931
0.8022967
0.8023942
0.8024991
0.802611
0.8027232
0.8022966
0.8023942
0.8025014
0.8026225
0.8027737
0.8030029
0.8031728
0.8033584
0.8035675
0.8038069
0.8040778
0.8043567
0.8022964
0.8023939
0.8025026
0.8026291
0.8027906
0.8029796
0.803131
0.8032987
0.8034872
0.8037024
0.8039506
0.8042329
0.8045245
0.802296
0.8023929
0.8025018
0.8026299
0.8027913
0.8029589
0.8030956
0.803248
0.8034188
0.8036119
0.803833
0.8040877
0.8043757
0.8046671
0.8022953
0.8023909
0.8024986
0.8026256
0.802783
0.8029375
0.8030632
0.8032035
0.8033597
0.8035347
0.8037323
0.8039573
0.8042138
0.8044987
0.804775
0.8022944
0.8023878
0.802493
0.8026171
0.8027691
0.8029145
0.8030322
0.803163
0.8033079
0.8034685
0.8036476
0.8038484
0.8040746
0.8043286
0.8046039
0.8049852
0.8023336
0.8023276
0.8024925
0.8023205
0.8024733
0.8026364
0.8023138
0.8024517
0.8026016
0.8027473
0.8023081
0.8024324
0.8025658
0.8026971
0.8027935
0.8023037
0.8024169
0.8025361
0.8026515
0.8027402
0.8023003
0.8024054
0.802514
0.8026171
0.8026968
0.802298
0.8023974
0.8024991
0.8025947
0.8026682
0.8022964
0.8023924
0.8024904
0.802583
0.8026547
0.8022955
0.8023896
0.8024867
0.8025803
0.8026554
0.8022951
0.8023886
0.8024866
0.8025851
0.8026703
0.802295
0.8023886
0.8024888
0.8025951
0.8027008
0.8022949
0.8023889
0.8024916
0.8026072
0.8027507
0.8029674
0.8031256
0.8032963
0.8034865
0.8037031
0.8039533
0.8042395
0.8045403
0.8022948
0.8023889
0.8024933
0.8026144
0.8027684
0.8029476
0.8030894
0.803245
0.8034179
0.803613
0.8038368
0.8040963
0.8043941
0.8047062
0.8022945
0.8023882
0.802493
0.8026159
0.8027703
0.8029298
0.8030585
0.803201
0.803359
0.8035357
0.8037356
0.8039644
0.8042279
0.8045254
0.8048228
0.802294
0.8023864
0.8024903
0.8026125
0.8027634
0.8029108
0.8030298
0.8031617
0.8033075
0.8034691
0.8036494
0.8038522
0.8040818
0.8043413
0.8046249
0.8050253
0.8022931
0.8023835
0.8024853
0.8026048
0.8027509
0.8028901
0.8030019
0.8031255
0.8032616
0.8034112
0.8035763
0.8037591
0.8039624
0.8041886
0.8044383
0.8048172
0.8053389
0.8023358
0.8023301
0.8025014
0.8023229
0.8024824
0.8026571
0.802316
0.8024598
0.8026202
0.8027865
0.8023099
0.8024388
0.8025803
0.8027263
0.8028451
0.8023049
0.8024213
0.8025456
0.80267
0.8027706
0.8023009
0.8024075
0.8025186
0.8026258
0.8027105
0.802298
0.8023974
0.8024991
0.8025947
0.8026682
0.8022959
0.8023904
0.8024863
0.8025753
0.8026427
0.8022945
0.8023861
0.802479
0.8025658
0.8026319
0.8022938
0.8023839
0.8024763
0.8025647
0.8026345
0.8022935
0.8023832
0.8024769
0.8025703
0.8026504
0.8022934
0.8023835
0.8024795
0.8025809
0.802681
0.8022935
0.8023841
0.8024827
0.8025933
0.8027301
0.8029359
0.8030843
0.8032427
0.8034172
0.8036137
0.8038394
0.8041024
0.8044081
0.8047409
0.8022934
0.8023843
0.8024848
0.802601
0.8027483
0.8029189
0.8030526
0.8031981
0.8033581
0.8035367
0.8037392
0.8039724
0.8042446
0.8045601
0.8048939
0.8022932
0.8023837
0.8024848
0.8026031
0.8027512
0.8029035
0.8030253
0.8031594
0.8033068
0.80347
0.8036525
0.8038589
0.8040948
0.8043654
0.8046672
0.8051131
0.8022927
0.8023822
0.8024826
0.8026004
0.8027455
0.8028865
0.8029996
0.8031243
0.8032612
0.8034117
0.803578
0.8037627
0.8039691
0.8042004
0.8044572
0.8048525
0.8054031
0.8022919
0.8023796
0.802478
0.8025934
0.8027342
0.8028677
0.8029743
0.8030916
0.8032201
0.8033604
0.8035139
0.8036822
0.8038668
0.8040695
0.8042907
0.8046345
0.8051398
0.8056826
0.8023373
0.8023322
0.8025088
0.8023253
0.8024909
0.8026758
0.8023183
0.8024683
0.8026398
0.8028297
0.802312
0.8024464
0.8025977
0.8027635
0.8029214
0.8023066
0.8024273
0.8025592
0.8026973
0.8028196
0.8023021
0.8024116
0.8025276
0.802643
0.8027389
0.8022985
0.8023994
0.8025035
0.8026028
0.802681
0.8022959
0.8023904
0.8024863
0.8025753
0.8026427
0.802294
0.8023842
0.8024751
0.8025585
0.8026206
0.8022928
0.8023805
0.802469
0.8025508
0.8026122
0.8022922
0.8023787
0.802467
0.8025508
0.8026163
0.802292
0.8023784
0.8024681
0.8025571
0.8026328
0.802292
0.8023788
0.8024711
0.8025681
0.8026633
0.8022921
0.8023796
0.8024746
0.8025807
0.8027115
0.8029077
0.8030477
0.8031959
0.8033575
0.8035374
0.8037415
0.8039779
0.8042573
0.8045909
0.8049777
0.8022921
0.80238
0.8024769
0.8025887
0.80273
0.802893
0.8030196
0.8031566
0.803306
0.803471
0.8036559
0.8038663
0.8041102
0.8043968
0.8047302
0.8052764
0.8022919
0.8023796
0.8024773
0.8025913
0.8027336
0.8028795
0.8029953
0.803122
0.8032605
0.8034126
0.803581
0.803769
0.8039813
0.8042226
0.8044954
0.80493
0.805548
0.8022915
0.8023783
0.8024755
0.8025892
0.8027289
0.8028643
0.8029721
0.8030904
0.8032197
0.8033609
0.8035156
0.8036856
0.8038732
0.8040804
0.8043082
0.8046663
0.8051961
0.8057682
0.8022907
0.8023759
0.8024713
0.8025829
0.8027187
0.8028471
0.802949
0.8030607
0.8031825
0.8033149
0.8034587
0.8036149
0.8037845
0.8039681
0.8041654
0.8044737
0.8049312
0.8054533
0.8060129
0.8023381
0.8023337
0.802514
0.8023272
0.8024979
0.8026909
0.8023205
0.8024762
0.8026577
0.8028659
0.8023142
0.8024543
0.802616
0.8028046
0.8030318
0.8023085
0.8024344
0.8025754
0.802732
0.802892
0.8023037
0.8024173
0.8025403
0.8026685
0.8027846
0.8022996
0.8024033
0.802512
0.802619
0.8027075
0.8022964
0.8023924
0.8024904
0.802583
0.8026547
0.802294
0.8023842
0.8024751
0.8025585
0.8026206
0.8022923
0.8023787
0.8024652
0.8025439
0.8026015
0.8022912
0.8023754
0.8024599
0.8025376
0.802595
0.8022907
0.802374
0.8024585
0.8025384
0.8026002
0.8022906
0.8023739
0.8024601
0.8025452
0.802617
0.8022907
0.8023746
0.8024634
0.8025564
0.8026472
0.8022908
0.8023754
0.8024671
0.8025691
0.8026945
0.8028822
0.8030149
0.8031545
0.8033054
0.8034716
0.8036581
0.8038715
0.8041219
0.8044247
0.8048047
0.8056759
0.8022909
0.802376
0.8024697
0.8025774
0.8027132
0.8028694
0.8029898
0.8031193
0.8032597
0.8034136
0.8035841
0.803776
0.8039957
0.8042516
0.8045524
0.8050744
0.8058275
0.8022907
0.8023758
0.8024703
0.8025804
0.8027175
0.8028574
0.8029679
0.8030883
0.8032191
0.8033618
0.8035184
0.8036916
0.8038846
0.8041012
0.8043434
0.8047361
0.8053235
0.8059617
0.8022904
0.8023747
0.8024688
0.8025787
0.8027136
0.8028437
0.8029468
0.8030596
0.8031822
0.8033154
0.8034603
0.8036182
0.8037905
0.8039784
0.8041817
0.8045029
0.8049819
0.8055283
0.8061165
0.8022897
0.8023725
0.802465
0.8025731
0.8027043
0.802828
0.8029256
0.8030324
0.8031483
0.8032737
0.8034092
0.8035553
0.8037126
0.8038807
0.8040589
0.8043376
0.8047503
0.8052198
0.8057549
0.8063272
0.8023345
0.8025167
0.8023286
0.8025029
0.8027013
0.8023223
0.8024828
0.802672
0.8028925
0.8023162
0.8024617
0.8026327
0.8028389
0.803095
0.8023106
0.8024419
0.8025925
0.8027703
0.8029966
0.8033258
0.8023055
0.8024241
0.8025555
0.8027009
0.8028521
0.8023011
0.8024087
0.802524
0.8026429
0.8027501
0.8022975
0.8023961
0.8024985
0.8025983
0.8026795
0.8022945
0.8023861
0.802479
0.8025658
0.8026319
0.8022923
0.8023787
0.8024652
0.8025439
0.8026015
0.8022908
0.8023737
0.8024563
0.8025309
0.8025848
0.8022898
0.8023708
0.8024518
0.8025257
0.8025798
0.8022894
0.8023696
0.8024509
0.8025272
0.8025857
0.8022893
0.8023697
0.8024527
0.8025344
0.8026028
0.8022894
0.8023706
0.8024562
0.8025457
0.8026326
0.8080156
0.8022896
0.8023716
0.8024601
0.8025584
0.8026789
0.802859
0.8029853
0.8031174
0.8032592
0.8034141
0.8035862
0.8037809
0.8040066
0.8042773
0.8046197
0.8054294
0.8064402
0.8022897
0.8023723
0.8024629
0.8025669
0.8026977
0.8028477
0.8029627
0.8030857
0.8032183
0.8033627
0.8035214
0.8036983
0.8038982
0.8041283
0.804396
0.8048664
0.8055701
0.8063257
0.8022896
0.8023723
0.8024638
0.8025703
0.8027025
0.8028371
0.8029428
0.8030575
0.8031816
0.8033162
0.803463
0.8036239
0.8038014
0.803998
0.8042146
0.8045672
0.8050965
0.805698
0.8063486
0.8022893
0.8023713
0.8024626
0.802569
0.8026993
0.8028247
0.8029236
0.8030313
0.803148
0.8032742
0.8034107
0.8035585
0.8037183
0.8038905
0.8040742
0.8043649
0.8047969
0.8052871
0.8058453
0.8064446
0.8022887
0.8023693
0.8024592
0.8025639
0.8026909
0.8028102
0.802904
0.8030063
0.8031169
0.8032361
0.8033644
0.8035019
0.8036488
0.8038044
0.8039671
0.8042219
0.804598
0.8050195
0.8054976
0.806042
0.8064825
0.8023294
0.8025054
0.8027065
0.8023236
0.8024874
0.8026818
0.8029097
0.8023179
0.8024679
0.802646
0.8028641
0.8031328
0.8023125
0.8024488
0.802608
0.8028023
0.8030565
0.8033442
0.8023075
0.8024311
0.8025715
0.8027366
0.8029496
0.8032748
0.8035038
0.8023029
0.8024151
0.8025383
0.8026733
0.8028131
0.8022989
0.8024012
0.8025099
0.8026208
0.8027195
0.8022955
0.8023896
0.8024867
0.8025803
0.8026554
0.8022928
0.8023805
0.802469
0.8025508
0.8026122
0.8022908
0.8023737
0.8024563
0.8025309
0.8025848
0.8022893
0.8023692
0.8024483
0.8025194
0.8025701
0.8022885
0.8023666
0.8024444
0.802515
0.8025663
0.8022881
0.8023657
0.8024438
0.802517
0.8025727
0.8022881
0.8023659
0.8024459
0.8025244
0.8025898
0.8093706
0.8022883
0.8023669
0.8024496
0.8025358
0.8026192
0.8075154
0.8081739
0.8022885
0.802368
0.8024537
0.8025486
0.8026646
0.8028377
0.8029583
0.8030838
0.8032178
0.8033632
0.8035234
0.8037029
0.8039085
0.8041523
0.8044581
0.8051878
0.8061135
0.8070256
0.8022886
0.8023688
0.8024566
0.8025572
0.8026834
0.8028277
0.8029377
0.803055
0.8031808
0.8033171
0.8034659
0.8036303
0.8038143
0.8040235
0.8042638
0.8046874
0.8053189
0.8060184
0.8067705
0.8022886
0.8023689
0.8024578
0.8025608
0.8026886
0.8028183
0.8029197
0.8030292
0.8031474
0.803275
0.8034133
0.8035639
0.8037287
0.8039091
0.8041053
0.8044249
0.8049025
0.8054397
0.8060484
0.8067056
0.8022883
0.8023681
0.8024568
0.80256
0.8026861
0.8028071
0.802902
0.8030052
0.8031166
0.8032366
0.8033658
0.8035049
0.8036543
0.8038137
0.8039817
0.8042477
0.8046414
0.8050814
0.8055787
0.8061443
0.8066051
0.8022877
0.8023663
0.8024536
0.8025553
0.8026784
0.8027937
0.8028839
0.8029821
0.8030879
0.8032017
0.8033235
0.8034535
0.8035916
0.8037367
0.8038868
0.8041222
0.8044686
0.8048514
0.8052788
0.8057624
0.8061842
0.8064971
0.8023243
0.8024898
0.8026868
0.8029181
0.8023191
0.8024722
0.8026552
0.8028805
0.8031546
0.8023141
0.8024545
0.8026205
0.8028259
0.8030924
0.8033621
0.8023093
0.8024376
0.8025861
0.8027665
0.8030055
0.8032924
0.8035115
0.8023048
0.8024218
0.8025535
0.8027068
0.802904
0.8032088
0.8034429
0.8036747
0.8023006
0.8024073
0.8025235
0.8026495
0.8027786
0.8022969
0.8023946
0.8024975
0.8026018
0.8026931
0.8022938
0.8023839
0.8024763
0.8025647
0.8026345
0.8022912
0.8023754
0.8024599
0.8025376
0.802595
0.8022893
0.8023692
0.8024483
0.8025194
0.8025701
0.802288
0.802365
0.802441
0.8025089
0.8025569
0.8022873
0.8023627
0.8024376
0.8025053
0.802554
0.802287
0.802362
0.8024374
0.8025077
0.8025608
0.8102843
0.802287
0.8023624
0.8024397
0.8025152
0.8025779
0.8087189
0.8094423
0.8022872
0.8023634
0.8024435
0.8025266
0.8026069
0.8070801
0.8076565
0.8084075
0.8022875
0.8023647
0.8024477
0.8025394
0.8026513
0.8028181
0.8029335
0.8030532
0.8031803
0.8033176
0.8034678
0.8036347
0.8038241
0.8040462
0.804322
0.8049842
0.8058103
0.8066376
0.8075025
0.8022876
0.8023656
0.8024508
0.8025481
0.80267
0.8028093
0.8029148
0.8030269
0.8031467
0.8032758
0.8034161
0.80357
0.8037409
0.8039334
0.8041516
0.8045373
0.8051075
0.8057284
0.8064189
0.8071664
0.8022876
0.8023658
0.8024521
0.802552
0.8026757
0.8028009
0.8028982
0.8030032
0.803116
0.8032374
0.8033683
0.8035101
0.8036642
0.8038314
0.8040111
0.8043042
0.80474
0.8052218
0.8057611
0.8063719
0.8068765
0.8022874
0.8023651
0.8024513
0.8025515
0.8026737
0.8027907
0.802882
0.802981
0.8030876
0.8032021
0.8033249
0.8034564
0.8035968
0.8037456
0.8039007
0.8041466
0.8045095
0.8049091
0.8053532
0.8058539
0.8062907
0.8066201
0.8022868
0.8023634
0.8024485
0.8025473
0.8026667
0.8027782
0.8028652
0.8029596
0.8030611
0.8031699
0.803286
0.8034094
0.8035398
0.8036759
0.8038155
0.804035
0.804357
0.8047087
0.8050956
0.8055261
0.8058937
0.8061976
0.8065115
0.8023198
0.8024744
0.8026599
0.8028885
0.8031647
0.8023153
0.8024586
0.8026291
0.8028411
0.8031131
0.8033747
0.8023108
0.8024431
0.8025978
0.8027885
0.8030389
0.8033093
0.8035209
0.8023065
0.802428
0.8025672
0.8027349
0.8029562
0.8032252
0.8034503
0.8036779
0.8023024
0.8024136
0.8025378
0.8026812
0.8028639
0.8031458
0.8033652
0.8036039
0.803843
0.8022985
0.8024004
0.8025105
0.802629
0.8027489
0.8022951
0.8023886
0.8024866
0.8025851
0.8026703
0.8022922
0.8023787
0.802467
0.8025508
0.8026163
0.8022898
0.8023708
0.8024518
0.8025257
0.8025798
0.802288
0.802365
0.802441
0.8025089
0.8025569
0.8022868
0.8023612
0.8024343
0.8024994
0.802545
0.8022862
0.8023591
0.8024313
0.8024963
0.8025428
0.8108713
0.8022859
0.8023585
0.8024314
0.8024991
0.8025499
0.809528
0.8103378
0.8022859
0.8023591
0.8024339
0.8025067
0.8025669
0.808169
0.8087819
0.8095747
0.8022862
0.8023602
0.8024378
0.8025181
0.8025955
0.8067344
0.8072085
0.8078643
0.8086764
0.8022865
0.8023615
0.8024421
0.8025308
0.802639
0.8027999
0.8029107
0.8030251
0.8031462
0.8032763
0.8034179
0.8035742
0.8037502
0.8039549
0.8042065
0.8048151
0.805561
0.8062876
0.8070644
0.8079095
0.8022867
0.8023625
0.8024453
0.8025396
0.8026576
0.8027921
0.8028935
0.8030009
0.8031153
0.8032381
0.803371
0.803516
0.8036759
0.8038545
0.8040551
0.8044102
0.8049316
0.8054877
0.8060945
0.8067753
0.8073508
0.8022867
0.8023629
0.8024468
0.8025437
0.8026636
0.8027846
0.8028783
0.8029791
0.8030871
0.8032029
0.8033273
0.8034614
0.8036063
0.8037625
0.8039287
0.8042003
0.8046023
0.8050401
0.8055209
0.8060582
0.806527
0.8068924
0.8022865
0.8023623
0.8024462
0.8025436
0.8026621
0.8027753
0.8028633
0.8029586
0.8030608
0.8031703
0.8032874
0.8034122
0.8035448
0.8036845
0.8038288
0.8040582
0.8043958
0.804763
0.805165
0.8056101
0.805989
0.8063044
0.8066349
0.802286
0.8023607
0.8024436
0.8025397
0.8026557
0.8027638
0.8028478
0.8029386
0.8030362
0.8031405
0.8032514
0.8033689
0.8034925
0.8036209
0.8037516
0.8039575
0.8042592
0.8045856
0.8049401
0.8053286
0.8056488
0.805906
0.8062107
0.8065257
0.8023159
0.8024607
0.8026334
0.8028486
0.8031226
0.803381
0.8023119
0.8024469
0.8026059
0.8028028
0.8030582
0.8033213
0.8035282
0.802308
0.8024331
0.8025783
0.8027555
0.8029874
0.803241
0.8034592
0.8036822
0.8023041
0.8024196
0.8025509
0.8027076
0.8029129
0.8031611
0.8033721
0.8036069
0.8038438
0.8023002
0.8024065
0.8025242
0.802659
0.8028294
0.8030908
0.8032917
0.8035147
0.8037619
0.8040114
0.8022967
0.8023942
0.8024991
0.802611
0.8027232
0.8022935
0.8023832
0.8024769
0.8025703
0.8026504
0.8022907
0.802374
0.8024585
0.8025384
0.8026002
0.8022885
0.8023666
0.8024444
0.802515
0.8025663
0.8022868
0.8023612
0.8024343
0.8024994
0.802545
0.8022857
0.8023576
0.8024282
0.8024906
0.8025341
0.811161
0.8022851
0.8023558
0.8024255
0.8024881
0.8025325
0.8100467
0.8109202
0.8022849
0.8023553
0.8024258
0.8024911
0.8025399
0.8088996
0.8095743
0.8104426
0.802285
0.802356
0.8024284
0.8024988
0.8025568
0.80774
0.8082261
0.8088979
0.809756
0.8022852
0.8023572
0.8024325
0.8025102
0.8025848
0.8064542
0.8068534
0.8073976
0.8081029
0.8089612
0.8022856
0.8023586
0.8024368
0.8025229
0.8026275
0.802783
0.8028895
0.8029992
0.8031148
0.8032386
0.8033727
0.80352
0.8036848
0.803875
0.8041071
0.8046723
0.8053559
0.8060036
0.8066766
0.8074282
0.8080976
0.8022858
0.8023597
0.8024401
0.8025317
0.8026461
0.8027761
0.8028737
0.8029769
0.8030864
0.8032036
0.8033299
0.803467
0.8036176
0.8037846
0.8039706
0.8043008
0.804783
0.8052886
0.8058279
0.8064207
0.8069415
0.807368
0.8022859
0.8023601
0.8024418
0.802536
0.8026523
0.8027694
0.8028598
0.8029567
0.8030603
0.803171
0.8032897
0.803417
0.8035539
0.8037007
0.8038556
0.8041093
0.8044838
0.8048864
0.8053214
0.8057977
0.8062008
0.8065415
0.806908
0.8022857
0.8023596
0.8024414
0.8025361
0.8026512
0.8027609
0.8028459
0.8029377
0.803036
0.8031409
0.8032527
0.8033716
0.8034974
0.8036291
0.8037644
0.8039797
0.8042961
0.804637
0.8050054
0.8054069
0.8057362
0.8060016
0.8063179
0.8066495
0.8022852
0.8023582
0.802439
0.8025326
0.8026454
0.8027502
0.8028314
0.8029191
0.803013
0.8031132
0.8032194
0.8033316
0.8034491
0.8035707
0.8036937
0.803888
0.8041723
0.8044775
0.8048059
0.805161
0.8054443
0.8056603
0.8059182
0.8062238
0.8065398
0.8023125
0.8024489
0.80261
0.8028097
0.8030672
0.8033273
0.8035322
0.802309
0.8024368
0.8025859
0.8027689
0.8030054
0.8032522
0.8034662
0.8036858
0.8023055
0.8024245
0.8025614
0.8027271
0.8029422
0.8031759
0.8033804
0.8036111
0.8038449
0.8023018
0.8024121
0.8025367
0.8026841
0.8028756
0.8031051
0.8032981
0.8035176
0.8037627
0.8040103
0.8022983
0.8024
0.8025122
0.8026396
0.8027997
0.8030436
0.8032277
0.803431
0.8036612
0.8039192
0.8041818
0.802295
0.8023886
0.8024888
0.8025951
0.8027008
0.802292
0.8023784
0.8024681
0.8025571
0.8026328
0.8022894
0.8023696
0.8024509
0.8025272
0.8025857
0.8022873
0.8023627
0.8024376
0.8025053
0.802554
0.8022857
0.8023576
0.8024282
0.8024906
0.8025341
0.811161
0.8022847
0.8023543
0.8024225
0.8024826
0.8025242
0.8103025
0.8112087
0.8022841
0.8023527
0.8024201
0.8024805
0.8025231
0.8093674
0.8100886
0.8110174
0.8022839
0.8023524
0.8024206
0.8024837
0.8025306
0.8084139
0.8089414
0.8096648
0.8105956
0.8022841
0.8023531
0.8024234
0.8024915
0.8025474
0.8073952
0.8077929
0.8083315
0.8090565
0.8099768
0.8022844
0.8023544
0.8024275
0.8025028
0.802575
0.8062199
0.8065658
0.8070287
0.8076148
0.8083549
0.8091143
0.8022847
0.8023559
0.8024319
0.8025154
0.8026168
0.8027673
0.8028699
0.8029752
0.803086
0.8032041
0.8033316
0.8034709
0.8036261
0.8038042
0.8040202
0.8045496
0.8051833
0.805771
0.8063645
0.8070086
0.8075962
0.8081151
0.802285
0.802357
0.8024353
0.8025243
0.8026352
0.8027611
0.8028553
0.8029546
0.8030597
0.8031718
0.8032921
0.8034224
0.8035648
0.8037219
0.8038957
0.8042051
0.8046551
0.8051206
0.8056081
0.8061312
0.806573
0.8069569
0.8073847
0.8022851
0.8023575
0.8024371
0.8025287
0.8026417
0.8027552
0.8028425
0.8029359
0.8030354
0.8031416
0.803255
0.8033763
0.8035062
0.8036447
0.8037901
0.8040285
0.8043799
0.804754
0.8051527
0.8055819
0.8059307
0.8062141
0.8065557
0.8069234
0.8022849
0.8023571
0.8024369
0.8025291
0.802641
0.8027474
0.8028296
0.8029181
0.8030128
0.8031136
0.8032207
0.8033342
0.8034538
0.8035786
0.803706
0.8039093
0.8042076
0.8045265
0.8048677
0.8052347
0.8055258
0.8057481
0.8060141
0.8063313
0.8066639
0.8022845
0.8023558
0.8024347
0.8025259
0.8026356
0.8027375
0.8028161
0.8029008
0.8029914
0.8030877
0.8031897
0.803297
0.8034091
0.8035246
0.8036409
0.8038249
0.8040943
0.8043815
0.804688
0.8050162
0.8052708
0.8054552
0.8056717
0.8059302
0.8062366
0.8065562
0.8023096
0.8024387
0.8025897
0.8027754
0.8030137
0.8032578
0.80347
0.8036878
0.8023065
0.8024279
0.8025686
0.8027397
0.8029591
0.8031863
0.803387
0.8036146
0.8038457
0.8023032
0.8024168
0.8025466
0.8027026
0.8029033
0.803119
0.8033059
0.8035215
0.8037638
0.8040086
0.8022999
0.8024055
0.8025241
0.8026635
0.8028435
0.8030572
0.8032337
0.8034337
0.803662
0.8039183
0.8041784
0.8022966
0.8023942
0.8025014
0.8026225
0.8027737
0.8030029
0.8031728
0.8033584
0.8035675
0.8038069
0.8040778
0.8043567
0.8022934
0.8023835
0.8024795
0.8025809
0.802681
0.8022906
0.8023739
0.8024601
0.8025452
0.802617
0.8022881
0.8023657
0.8024438
0.802517
0.8025727
0.8022862
0.8023591
0.8024313
0.8024963
0.8025428
0.8108713
0.8022847
0.8023543
0.8024225
0.8024826
0.8025242
0.8103025
0.8112087
0.8022837
0.8023513
0.8024172
0.8024752
0.802515
0.8095978
0.8103432
0.811304
0.8022832
0.8023498
0.8024151
0.8024734
0.8025143
0.8088451
0.8094051
0.8101718
0.8111621
0.8022831
0.8023496
0.8024158
0.8024768
0.802522
0.8080255
0.8084526
0.8090232
0.8097967
0.8107936
0.8022832
0.8023504
0.8024186
0.8024846
0.8025386
0.8071078
0.8074448
0.8078905
0.8084753
0.809249
0.8101101
0.8022835
0.8023518
0.8024228
0.8024959
0.8025657
0.806019
0.8063253
0.8067303
0.8072302
0.8078442
0.8084899
0.8091289
0.8022839
0.8023533
0.8024273
0.8025084
0.8026068
0.8027526
0.8028516
0.8029529
0.8030592
0.8031722
0.8032938
0.8034262
0.803573
0.8037407
0.8039432
0.8044422
0.805035
0.8055755
0.8061096
0.8066727
0.807162
0.8076118
0.8081322
0.8022842
0.8023545
0.8024308
0.8025173
0.8026251
0.8027472
0.8028381
0.8029338
0.8030348
0.8031423
0.8032574
0.8033815
0.8035166
0.8036651
0.8038285
0.8041201
0.8045431
0.804976
0.8054228
0.8058931
0.806273
0.8065871
0.806972
0.807401
0.8022843
0.802355
0.8024326
0.8025219
0.8026317
0.8027419
0.8028263
0.8029164
0.8030123
0.8031142
0.8032228
0.8033387
0.8034623
0.8035936
0.8037307
0.8039561
0.8042877
0.8046379
0.8050073
0.8053994
0.8057071
0.8059432
0.8062272
0.8065696
0.8069384
0.8022842
0.8023548
0.8024326
0.8025225
0.8026314
0.8027348
0.8028143
0.8028999
0.8029911
0.8030881
0.8031909
0.8032995
0.8034137
0.8035322
0.8036527
0.8038454
0.8041281
0.8044283
0.8047469
0.805086
0.8053474
0.805537
0.8057597
0.8060264
0.8063444
0.8066806
0.8022838
0.8023536
0.8024306
0.8025196
0.8026265
0.8027255
0.8028017
0.8028836
0.8029711
0.8030639
0.8031619
0.8032649
0.8033721
0.8034821
0.8035924
0.8037674
0.8040235
0.8042952
0.8045832
0.8048891
0.8051208
0.8052811
0.805466
0.805683
0.8059421
0.8062517
0.8065715
0.802307
0.8024297
0.8025723
0.8027459
0.8029669
0.8031916
0.8033905
0.8036165
0.8038462
0.8023041
0.8024201
0.8025535
0.8027146
0.8029192
0.8031288
0.803312
0.8035248
0.8037647
0.8040069
0.8023011
0.8024099
0.8025336
0.8026812
0.8028697
0.8030703
0.803241
0.8034373
0.8036631
0.8039169
0.8041731
0.802298
0.8023994
0.8025128
0.8026454
0.8028155
0.8030158
0.8031785
0.8033609
0.8035683
0.8038061
0.8040747
0.8043492
0.8022949
0.8023889
0.8024916
0.8026072
0.8027507
0.8029674
0.8031256
0.8032963
0.8034865
0.8037031
0.8039533
0.8042395
0.8045403
0.802292
0.8023788
0.8024711
0.8025681
0.8026633
0.8022893
0.8023697
0.8024527
0.8025344
0.8026028
0.802287
0.802362
0.8024374
0.8025077
0.8025608
0.8102843
0.8022851
0.8023558
0.8024255
0.8024881
0.8025325
0.8100467
0.8109202
0.8022837
0.8023513
0.8024172
0.8024752
0.802515
0.8095978
0.8103432
0.811304
0.8022828
0.8023484
0.8024122
0.8024682
0.8025065
0.8090575
0.8096344
0.8104243
0.8114465
0.8022823
0.802347
0.8024104
0.8024668
0.8025062
0.8084285
0.80888
0.80948
0.8102954
0.8113532
0.8022822
0.8023469
0.8024113
0.8024703
0.802514
0.8077023
0.8080617
0.8085283
0.8091425
0.809967
0.8109198
0.8022824
0.8023478
0.8024142
0.8024782
0.8025304
0.8068618
0.8071547
0.8075363
0.8080237
0.8086499
0.8093647
0.8101231
0.8022828
0.8023493
0.8024184
0.8024894
0.8025571
0.8058432
0.8061192
0.8064808
0.8069193
0.807443
0.8079671
0.8085028
0.8091436
0.8022831
0.8023508
0.8024229
0.8025018
0.8025973
0.8027388
0.8028345
0.8029322
0.8030344
0.8031427
0.8032589
0.8033851
0.8035245
0.8036831
0.803874
0.8043469
0.8049052
0.8054077
0.8058957
0.806399
0.8068152
0.8071763
0.8076271
0.8081488
0.8022834
0.8023521
0.8024265
0.8025107