/*--------------------------------*- C++ -*----------------------------------*\
| =========                 |                                                 |
| \\      /  F ield         | OpenFOAM: The Open Source CFD Toolbox           |
|  \\    /   O peration     | Version:  2306                                  |
|   \\  /    A nd           | Website:  www.openfoam.com                      |
|    \\/     M anipulation  |                                                 |
\*---------------------------------------------------------------------------*/
FoamFile
{
    version     2.0;
    format      ascii;
    arch        "LSB;label=32;scalar=64";
    class       volScalarField;
    location    "0.6/phiEC";
    object      T;
}
// * * * * * * * * * * * * * * * * * * * * * * * * * * * * * * * * * * * * * //

dimensions      [0 0 0 1 0 0 0];

internalField   nonuniform List<scalar> 
20000
(
1113.511
1113.509
1114.967
1113.459
1113.506
1114.966
1113.457
1116.927
1114.95
1113.358
1113.501
1114.965
1113.452
1116.927
1114.949
1113.354
1118.98
1116.926
1114.917
1113.21
1113.496
1114.963
1113.446
1116.925
1114.947
1113.347
1118.98
1116.925
1114.916
1113.203
1120.975
1118.985
1116.925
1114.872
1113.024
1113.49
1114.961
1113.439
1116.924
1114.945
1113.336
1118.978
1116.924
1114.913
1113.19
1120.974
1118.984
1116.924
1114.87
1113.011
1122.86
1120.981
1118.996
1116.927
1114.82
1112.871
1113.484
1114.958
1113.43
1116.922
1114.942
1113.324
1118.977
1116.921
1114.909
1113.172
1120.973
1118.983
1116.921
1114.866
1112.986
1122.859
1120.981
1118.995
1116.925
1114.816
1112.848
1124.624
1122.867
1120.996
1119.016
1116.935
1114.782
1112.772
1113.479
1114.956
1113.422
1116.92
1114.938
1113.31
1118.975
1116.919
1114.905
1113.151
1120.971
1118.981
1116.918
1114.86
1112.952
1122.858
1120.979
1118.992
1116.921
1114.81
1112.804
1124.624
1122.866
1120.995
1119.014
1116.932
1114.776
1112.743
1126.273
1124.631
1122.882
1121.021
1119.046
1116.95
1114.76
1112.682
1113.476
1114.954
1113.415
1116.918
1114.935
1113.296
1118.973
1116.916
1114.9
1113.128
1120.969
1118.978
1116.913
1114.853
1112.916
1122.856
1120.977
1118.989
1116.915
1114.801
1112.738
1124.623
1122.865
1120.992
1119.01
1116.927
1114.765
1112.684
1126.272
1124.63
1122.881
1121.019
1119.044
1116.946
1114.753
1112.647
1127.813
1126.279
1124.645
1122.907
1121.057
1119.08
1116.963
1114.744
1112.606
1113.474
1114.952
1113.41
1116.916
1114.932
1113.284
1118.971
1116.913
1114.894
1113.101
1120.967
1118.975
1116.909
1114.845
1112.89
1122.855
1120.974
1118.984
1116.908
1114.792
1112.655
1124.621
1122.863
1120.989
1119.003
1116.918
1114.75
1112.594
1126.271
1124.629
1122.878
1121.015
1119.038
1116.94
1114.738
1112.575
1127.812
1126.278
1124.644
1122.905
1121.055
1119.077
1116.959
1114.734
1112.566
1129.255
1127.819
1126.292
1124.669
1122.943
1121.096
1119.105
1116.98
1114.735
1112.549
1113.474
1114.951
1113.407
1116.915
1114.93
1113.274
1118.969
1116.91
1114.889
1113.076
1120.965
1118.972
1116.904
1114.836
1112.832
1122.853
1120.971
1118.979
1116.899
1114.784
1124.62
1122.86
1120.984
1118.995
1116.906
1114.733
1112.468
1126.27
1124.627
1122.875
1121.009
1119.03
1116.932
1114.716
1112.464
1127.812
1126.277
1124.642
1122.901
1121.05
1119.073
1116.952
1114.715
1112.485
1129.254
1127.818
1126.291
1124.667
1122.941
1121.094
1119.103
1116.976
1114.724
1112.506
1130.607
1129.26
1127.831
1126.313
1124.703
1122.981
1121.124
1119.135
1117.002
1114.736
1112.512
1113.476
1114.951
1113.407
1116.914
1114.929
1113.269
1118.968
1116.909
1114.885
1113.056
1120.964
1118.969
1116.899
1114.826
1112.775
1122.851
1120.969
1118.974
1116.89
1114.765
1124.618
1122.857
1120.98
1118.986
1116.889
1126.268
1124.625
1122.871
1121.001
1119.016
1116.923
1114.688
1112.306
1127.81
1126.275
1124.639
1122.896
1121.042
1119.067
1116.942
1114.686
1112.359
1129.253
1127.817
1126.289
1124.664
1122.937
1121.09
1119.099
1116.968
1114.702
1112.419
1130.606
1129.259
1127.83
1126.312
1124.701
1122.98
1121.123
1119.132
1116.998
1114.724
1112.468
1131.877
1130.611
1129.271
1127.85
1126.345
1124.738
1123.009
1121.156
1119.167
1117.03
1114.748
1112.497
1113.479
1114.952
1113.41
1116.914
1114.929
1113.269
1118.967
1116.908
1114.883
1113.046
1120.962
1118.968
1116.896
1114.818
1112.732
1122.85
1120.966
1118.97
1116.882
1114.743
1124.617
1122.855
1120.975
1118.977
1116.871
1126.267
1124.623
1122.867
1120.992
1118.994
1127.809
1126.273
1124.636
1122.889
1121.029
1119.06
1116.93
1114.647
1112.179
1129.252
1127.815
1126.286
1124.659
1122.929
1121.085
1119.093
1116.956
1114.667
1112.283
1130.606
1129.258
1127.828
1126.309
1124.697
1122.977
1121.12
1119.128
1116.989
1114.7
1112.378
1131.877
1130.611
1129.27
1127.849
1126.343
1124.737
1123.008
1121.155
1119.165
1117.025
1114.736
1112.453
1133.073
1131.882
1130.622
1129.289
1127.879
1126.377
1124.764
1123.04
1121.19
1119.203
1117.064
1114.772
1112.503
1113.484
1114.954
1113.415
1116.915
1114.93
1113.274
1118.967
1116.908
1114.883
1113.046
1120.962
1118.967
1116.894
1114.814
1112.709
1122.848
1120.965
1118.967
1116.875
1114.725
1124.615
1122.853
1120.971
1118.969
1116.854
1126.265
1124.62
1122.862
1120.983
1118.976
1127.808
1126.271
1124.632
1122.88
1121.006
1129.251
1127.813
1126.283
1124.652
1122.917
1121.08
1119.086
1116.939
1114.618
1112.093
1130.605
1129.257
1127.825
1126.305
1124.69
1122.972
1121.116
1119.122
1116.974
1114.662
1112.24
1131.876
1130.61
1129.268
1127.846
1126.34
1124.734
1123.006
1121.152
1119.161
1117.016
1114.712
1112.363
1133.072
1131.881
1130.621
1129.287
1127.877
1126.376
1124.763
1123.039
1121.189
1119.201
1117.059
1114.76
1112.46
1134.199
1133.077
1131.891
1130.638
1129.315
1127.908
1126.401
1124.793
1123.072
1121.227
1119.243
1117.103
1114.806
1112.529
1113.49
1114.956
1113.422
1116.916
1114.932
1113.284
1118.968
1116.909
1114.885
1113.056
1120.962
1118.967
1116.894
1114.814
1112.709
1122.848
1120.964
1118.965
1116.872
1114.715
1124.614
1122.851
1120.968
1118.963
1116.842
1126.264
1124.618
1122.859
1120.976
1118.962
1127.806
1126.269
1124.628
1122.872
1120.99
1129.25
1127.812
1126.279
1124.645
1122.896
1130.604
1129.255
1127.822
1126.299
1124.679
1122.968
1121.112
1119.114
1116.954
1114.608
1112.046
1131.875
1130.609
1129.266
1127.842
1126.333
1124.731
1123.003
1121.149
1119.154
1117.001
1114.673
1112.227
1133.072
1131.88
1130.619
1129.285
1127.874
1126.374
1124.762
1123.037
1121.187
1119.197
1117.05
1114.737
1112.373
1134.199
1133.076
1131.89
1130.637
1129.313
1127.907
1126.4
1124.792
1123.072
1121.226
1119.241
1117.099
1114.796
1112.487
1135.262
1134.203
1133.085
1131.906
1130.662
1129.342
1127.93
1126.427
1124.823
1123.107
1121.266
1119.286
1117.148
1114.85
1112.575
1113.496
1114.958
1113.43
1116.918
1114.935
1113.296
1118.969
1116.91
1114.889
1113.076
1120.962
1118.968
1116.896
1114.818
1112.732
1122.848
1120.964
1118.965
1116.872
1114.715
1124.614
1122.85
1120.967
1118.961
1116.836
1126.263
1124.617
1122.856
1120.971
1118.953
1127.805
1126.267
1124.624
1122.866
1120.977
1129.249
1127.81
1126.276
1124.637
1122.881
1130.602
1129.253
1127.819
1126.291
1124.66
1131.874
1130.607
1129.263
1127.837
1126.323
1124.727
1122.999
1121.144
1119.145
1116.978
1114.619
1112.037
1133.071
1131.879
1130.617
1129.281
1127.868
1126.37
1124.759
1123.034
1121.184
1119.191
1117.036
1114.701
1112.241
1134.199
1133.076
1131.889
1130.635
1129.31
1127.905
1126.398
1124.791
1123.07
1121.225
1119.238
1117.092
1114.775
1112.402
1135.262
1134.203
1133.085
1131.905
1130.661
1129.341
1127.929
1126.426
1124.822
1123.107
1121.266
1119.285
1117.145
1114.841
1112.533
1136.265
1135.266
1134.211
1133.099
1131.928
1130.687
1129.361
1127.953
1126.454
1124.855
1123.144
1121.308
1119.331
1117.196
1114.903
1113.342
1113.501
1114.961
1113.439
1116.92
1114.938
1113.31
1118.971
1116.913
1114.894
1113.101
1120.964
1118.969
1116.899
1114.826
1112.775
1122.848
1120.965
1118.967
1116.875
1114.725
1124.614
1122.85
1120.967
1118.961
1116.836
1126.263
1124.616
1122.855
1120.968
1118.948
1127.804
1126.266
1124.622
1122.861
1120.969
1129.248
1127.808
1126.273
1124.631
1122.869
1130.601
1129.252
1127.816
1126.285
1124.646
1131.873
1130.606
1129.26
1127.83
1126.306
1133.07
1131.878
1130.615
1129.276
1127.859
1126.367
1124.756
1123.031
1121.179
1119.181
1117.014
1114.651
1112.064
1134.198
1133.075
1131.887
1130.631
1129.305
1127.902
1126.396
1124.789
1123.068
1121.221
1119.232
1117.079
1114.745
1112.277
1135.261
1134.202
1133.084
1131.903
1130.658
1129.339
1127.928
1126.425
1124.821
1123.106
1121.265
1119.283
1117.14
1114.824
1112.448
1136.265
1135.265
1134.211
1133.098
1131.927
1130.686
1129.361
1127.953
1126.454
1124.855
1123.144
1121.308
1119.331
1117.195
1114.895
1113.284
1137.211
1136.268
1135.273
1134.224
1133.12
1131.951
1130.705
1129.383
1127.978
1126.483
1124.888
1123.182
1121.35
1119.378
1117.248
1115.611
1114.814
1113.506
1114.963
1113.446
1116.922
1114.942
1113.324
1118.973
1116.916
1114.9
1113.128
1120.965
1118.972
1116.904
1114.836
1112.832
1122.85
1120.966
1118.97
1116.882
1114.743
1124.614
1122.851
1120.968
1118.963
1116.842
1126.263
1124.616
1122.855
1120.968
1118.948
1127.804
1126.265
1124.621
1122.859
1120.965
1129.247
1127.807
1126.271
1124.627
1122.862
1130.6
1129.25
1127.813
1126.28
1124.636
1131.872
1130.604
1129.257
1127.824
1126.293
1133.069
1131.876
1130.612
1129.27
1127.843
1134.197
1133.073
1131.885
1130.627
1129.297
1127.899
1126.394
1124.786
1123.065
1121.217
1119.223
1117.06
1114.703
1112.116
1135.26
1134.201
1133.082
1131.9
1130.653
1129.336
1127.926
1126.423
1124.82
1123.104
1121.263
1119.279
1117.131
1114.8
1112.324
1136.264
1135.264
1134.209
1133.097
1131.924
1130.684
1129.359
1127.952
1126.453
1124.854
1123.143
1121.308
1119.331
1117.193
1114.881
1113.155
1137.211
1136.268
1135.272
1134.223
1133.119
1131.95
1130.704
1129.382
1127.978
1126.483
1124.888
1123.182
1121.351
1119.379
1117.248
1115.603
1114.728
1138.105
1137.215
1136.275
1135.285
1134.243
1133.141
1131.967
1130.724
1129.406
1128.005
1126.513
1124.923
1123.22
1121.393
1119.425
1117.875
1116.967
1116.296
1113.509
1114.965
1113.452
1116.924
1114.945
1113.336
1118.975
1116.919
1114.905
1113.151
1120.967
1118.975
1116.909
1114.845
1112.89
1122.851
1120.969
1118.974
1116.89
1114.765
1124.615
1122.853
1120.971
1118.969
1116.854
1126.263
1124.617
1122.856
1120.971
1118.953
1127.804
1126.265
1124.621
1122.859
1120.965
1129.246
1127.806
1126.27
1124.625
1122.859
1130.6
1129.249
1127.811
1126.276
1124.63
1131.871
1130.603
1129.255
1127.819
1126.284
1133.068
1131.875
1130.609
1129.265
1127.832
1134.196
1133.072
1131.882
1130.621
1129.282
1135.26
1134.2
1133.08
1131.895
1130.645
1129.333
1127.924
1126.421
1124.818
1123.102
1121.259
1119.272
1117.118
1114.771
1112.173
1136.263
1135.264
1134.208
1133.094
1131.92
1130.681
1129.357
1127.95
1126.452
1124.853
1123.143
1121.307
1119.33
1117.189
1114.863
1112.903
1137.211
1136.267
1135.271
1134.222
1133.117
1131.948
1130.703
1129.381
1127.977
1126.483
1124.888
1123.183
1121.353
1119.381
1117.248
1115.591
1114.523
1138.105
1137.214
1136.275
1135.284
1134.242
1133.14
1131.967
1130.724
1129.405
1128.004
1126.514
1124.923
1123.222
1121.395
1119.428
1117.879
1116.96
1116.187
1138.949
1138.108
1137.221
1136.287
1135.303
1134.263
1133.156
1131.985
1130.745
1129.43
1128.032
1126.545
1124.958
1123.259
1121.436
1119.976
1119.074
1118.323
1117.791
1113.511
1114.966
1113.457
1116.925
1114.947
1113.347
1118.977
1116.921
1114.909
1113.172
1120.969
1118.978
1116.913
1114.853
1112.916
1122.853
1120.971
1118.979
1116.899
1114.784
1124.617
1122.855
1120.975
1118.977
1116.871
1126.264
1124.618
1122.859
1120.976
1118.962
1127.804
1126.266
1124.622
1122.861
1120.969
1129.246
1127.806
1126.27
1124.625
1122.859
1130.599
1129.249
1127.81
1126.274
1124.627
1131.871
1130.602
1129.253
1127.816
1126.278
1133.067
1131.873
1130.607
1129.261
1127.824
1134.195
1133.07
1131.879
1130.616
1129.272
1135.259
1134.198
1133.077
1131.89
1130.632
1136.263
1135.262
1134.206
1133.09
1131.913
1130.679
1129.356
1127.949
1126.45
1124.851
1123.141
1121.305
1119.327
1117.185
1114.847
1112.191
1137.21
1136.266
1135.27
1134.219
1133.112
1131.946
1130.701
1129.38
1127.976
1126.482
1124.888
1123.183
1121.355
1119.385
1117.251
1115.585
1114.078
1138.105
1137.214
1136.274
1135.283
1134.24
1133.139
1131.966
1130.723
1129.405
1128.004
1126.514
1124.924
1123.224
1121.399
1119.433
1117.893
1116.949
1115.924
1138.948
1138.108
1137.221
1136.286
1135.302
1134.262
1133.156
1131.985
1130.745
1129.429
1128.032
1126.545
1124.959
1123.262
1121.439
1119.984
1119.086
1118.316
1117.667
1139.744
1138.951
1138.115
1137.232
1136.304
1135.322
1134.277
1133.173
1132.005
1130.767
1129.455
1128.06
1126.576
1124.993
1123.298
1121.92
1121.028
1120.271
1119.68
1119.303
1114.967
1113.459
1116.927
1114.949
1113.354
1118.978
1116.924
1114.913
1113.19
1120.971
1118.981
1116.918
1114.86
1112.952
1122.855
1120.974
1118.984
1116.908
1114.792
1112.655
1124.618
1122.857
1120.98
1118.986
1116.889
1126.265
1124.62
1122.862
1120.983
1118.976
1127.805
1126.267
1124.624
1122.866
1120.977
1129.247
1127.807
1126.271
1124.627
1122.862
1130.599
1129.249
1127.81
1126.274
1124.627
1131.87
1130.601
1129.252
1127.814
1126.276
1133.067
1131.873
1130.605
1129.258
1127.818
1134.194
1133.069
1131.877
1130.612
1129.264
1135.258
1134.197
1133.075
1131.886
1130.622
1136.262
1135.261
1134.203
1133.085
1131.901
1107.122
1137.209
1136.265
1135.268
1134.215
1133.106
1131.943
1130.699
1129.378
1127.975
1126.481
1124.887
1123.183
1121.356
1119.388
1117.259
1115.665
1112.916
1138.104
1137.213
1136.272
1135.28
1134.236
1133.136
1131.964
1130.722
1129.404
1128.004
1126.514
1124.925
1123.227
1121.405
1119.442
1117.937
1116.953
1115.362
1138.948
1138.107
1137.22
1136.284
1135.3
1134.261
1133.155
1131.984
1130.744
1129.429
1128.032
1126.546
1124.961
1123.266
1121.445
1120.005
1119.122
1118.305
1117.368
1139.744
1138.951
1138.114
1137.232
1136.303
1135.321
1134.277
1133.173
1132.004
1130.767
1129.455
1128.061
1126.577
1124.995
1123.301
1121.929
1121.046
1120.29
1119.672
1119.17
1140.493
1139.747
1138.958
1138.125
1137.248
1136.321
1135.335
1134.293
1133.191
1132.025
1130.79
1129.48
1128.089
1126.608
1125.027
1123.725
1122.845
1122.077
1121.464
1121.038
1120.111
1116.927
1114.95
1113.358
1118.98
1116.925
1114.916
1113.203
1120.973
1118.983
1116.921
1114.866
1112.986
1122.856
1120.977
1118.989
1116.915
1114.801
1112.738
1124.62
1122.86
1120.984
1118.995
1116.906
1114.733
1112.468
1126.267
1124.623
1122.867
1120.992
1118.994
1127.806
1126.269
1124.628
1122.872
1120.99
1129.248
1127.808
1126.273
1124.631
1122.869
1130.6
1129.249
1127.811
1126.276
1124.63
1131.87
1130.601
1129.252
1127.814
1126.276
1133.066
1131.872
1130.605
1129.256
1127.816
1134.194
1133.068
1131.876
1130.609
1129.26
1135.257
1134.196
1133.073
1131.882
1130.616
1136.261
1135.26
1134.201
1133.081
1131.892
1101.003
1137.209
1136.264
1135.266
1134.211
1133.094
1116.831
1108.99
1138.103
1137.212
1136.27
1135.277
1134.23
1133.134
1131.962
1130.72
1129.402
1128.002
1126.513
1124.925
1123.229
1121.411
1119.456
1118.159
1117.057
1114.071
1138.947
1138.106
1137.219
1136.282
1135.297
1134.259
1133.153
1131.983
1130.743
1129.429
1128.032
1126.547
1124.964
1123.272
1121.456
1120.062
1119.223
1118.305
1116.756
1139.743
1138.951
1138.113
1137.23
1136.301
1135.32
1134.276
1133.172
1132.004
1130.767
1129.455
1128.062
1126.58
1124.999
1123.307
1121.951
1121.094
1120.34
1119.658
1118.858
1140.493
1139.746
1138.957
1138.124
1137.248
1136.32
1135.335
1134.293
1133.191
1132.025
1130.79
1129.481
1128.09
1126.61
1125.03
1123.734
1122.864
1122.103
1121.487
1121.03
1119.978
1141.198
1140.496
1139.753
1138.968
1138.14
1137.265
1136.334
1135.35
1134.31
1133.21
1132.046
1130.814
1129.507
1128.118
1126.639
1125.407
1124.543
1123.767
1123.122
1122.654
1121.755
1120.197
1118.98
1116.926
1114.917
1113.21
1120.974
1118.984
1116.924
1114.87
1113.011
1122.858
1120.979
1118.992
1116.921
1114.81
1112.804
1124.621
1122.863
1120.989
1119.003
1116.918
1114.75
1112.594
1126.268
1124.625
1122.871
1121.001
1119.016
1116.923
1114.688
1112.306
1127.808
1126.271
1124.632
1122.88
1121.006
1129.249
1127.81
1126.276
1124.637
1122.881
1130.6
1129.25
1127.813
1126.28
1124.636
1131.871
1130.602
1129.253
1127.816
1126.278
1133.066
1131.872
1130.605
1129.256
1127.816
1134.193
1133.068
1131.875
1130.608
1129.257
1135.257
1134.195
1133.072
1131.88
1130.611
1136.26
1135.259
1134.2
1133.077
1131.885
1096.159
1137.208
1136.263
1135.264
1134.207
1133.086
1116.092
1104.18
1138.102
1137.211
1136.268
1135.273
1134.219
1120.317
1117.633
1110.984
1138.947
1138.106
1137.217
1136.279
1135.291
1134.257
1133.152
1131.982
1130.742
1129.428
1128.032
1126.548
1124.967
1123.279
1121.472
1120.313
1119.572
1118.372
1115.504
1139.743
1138.95
1138.112
1137.228
1136.297
1135.318
1134.274
1133.171
1132.003
1130.766
1129.455
1128.063
1126.583
1125.005
1123.318
1122.01
1121.219
1120.468
1119.645
1118.246
1140.493
1139.746
1138.956
1138.123
1137.246
1136.319
1135.334
1134.292
1133.19
1132.025
1130.79
1129.482
1128.092
1126.614
1125.036
1123.756
1122.914
1122.171
1121.545
1121.011
1119.667
1141.198
1140.496
1139.752
1138.967
1138.14
1137.264
1136.333
1135.35
1134.31
1133.21
1132.046
1130.814
1129.508
1128.119
1126.641
1125.415
1124.561
1123.794
1123.154
1122.679
1121.747
1120.065
1141.861
1141.201
1140.502
1139.762
1138.982
1138.156
1137.277
1136.348
1135.366
1134.327
1133.23
1132.068
1130.838
1129.533
1128.145
1126.979
1126.134
1125.357
1124.684
1124.161
1123.28
1121.832
1120.284
1120.975
1118.985
1116.925
1114.872
1113.024
1122.859
1120.981
1118.995
1116.925
1114.816
1112.848
1124.623
1122.865
1120.992
1119.01
1116.927
1114.765
1112.684
1126.27
1124.627
1122.875
1121.009
1119.03
1116.932
1114.716
1112.464
1127.809
1126.273
1124.636
1122.889
1121.029
1119.06
1116.93
1114.647
1112.179
1129.25
1127.812
1126.279
1124.645
1122.896
1130.601
1129.252
1127.816
1126.285
1124.646
1131.871
1130.603
1129.255
1127.819
1126.284
1133.067
1131.873
1130.605
1129.258
1127.818
1134.193
1133.068
1131.875
1130.608
1129.257
1135.256
1134.195
1133.071
1131.878
1130.609
1136.26
1135.258
1134.198
1133.075
1131.881
1092.906
1137.207
1136.262
1135.262
1134.204
1133.08
1114.878
1100.159
1138.102
1137.21
1136.266
1135.269
1134.212
1120.863
1117.115
1107.21
1138.946
1138.104
1137.215
1136.275
1135.281
1122.62
1120.948
1118.617
1113.073
1139.742
1138.949
1138.11
1137.225
1136.292
1135.316
1134.273
1133.17
1132.002
1130.765
1129.455
1128.064
1126.585
1125.012
1123.333
1122.255
1121.621
1120.817
1119.659
1117.117
1140.492
1139.745
1138.955
1138.121
1137.242
1136.317
1135.332
1134.291
1133.19
1132.024
1130.79
1129.483
1128.095
1126.619
1125.046
1123.812
1123.041
1122.331
1121.676
1120.982
1119.074
1141.198
1140.495
1139.751
1138.966
1138.138
1137.263
1136.332
1135.349
1134.309
1133.21
1132.047
1130.815
1129.51
1128.123
1126.647
1125.436
1124.61
1123.865
1123.232
1122.739
1121.727
1119.754
1141.861
1141.201
1140.501
1139.762
1138.981
1138.155
1137.276
1136.347
1135.365
1134.327
1133.23
1132.069
1130.839
1129.534
1128.148
1126.987
1126.152
1125.384
1124.717
1124.196
1123.306
1121.824
1120.151
1142.482
1141.863
1141.207
1140.511
1139.776
1138.997
1138.168
1137.29
1136.362
1135.382
1134.346
1133.25
1132.09
1130.862
1129.558
1128.453
1127.63
1126.858
1126.166
1125.595
1124.707
1123.347
1121.909
1120.371
1122.86
1120.981
1118.996
1116.927
1114.82
1112.871
1124.624
1122.866
1120.995
1119.014
1116.932
1114.776
1112.743
1126.271
1124.629
1122.878
1121.015
1119.038
1116.94
1114.738
1112.575
1127.81
1126.275
1124.639
1122.896
1121.042
1119.067
1116.942
1114.686
1112.359
1129.251
1127.813
1126.283
1124.652
1122.917
1121.08
1119.086
1116.939
1114.618
1112.093
1130.602
1129.253
1127.819
1126.291
1124.66
1131.872
1130.604
1129.257
1127.824
1126.293
1133.067
1131.873
1130.607
1129.261
1127.824
1134.194
1133.068
1131.876
1130.609
1129.26
1135.256
1134.195
1133.071
1131.878
1130.609
1136.26
1135.258
1134.198
1133.074
1131.879
1091.28
1137.207
1136.261
1135.261
1134.201
1133.077
1113.795
1097.388
1138.101
1137.209
1136.265
1135.266
1134.206
1120.831
1116.191
1103.931
1138.945
1138.103
1137.213
1136.271
1135.274
1123.546
1121.469
1118.215
1110.141
1139.741
1138.948
1138.108
1137.221
1136.283
1124.462
1123.15
1121.716
1119.709
1115.231
1140.492
1139.744
1138.953
1138.118
1137.237
1136.315
1135.331
1134.29
1133.188
1132.023
1130.79
1129.483
1128.097
1126.626
1125.061
1124.04
1123.437
1122.747
1121.973
1120.942
1118.029
1141.197
1140.495
1139.75
1138.963
1138.135
1137.261
1136.331
1135.348
1134.308
1133.209
1132.047
1130.816
1129.512
1128.128
1126.656
1125.488
1124.731
1124.028
1123.401
1122.857
1121.689
1119.164
1141.86
1141.2
1140.5
1139.76
1138.98
1138.154
1137.276
1136.347
1135.365
1134.327
1133.23
1132.069
1130.841
1129.538
1128.153
1127.006
1126.197
1125.452
1124.799
1124.278
1123.364
1121.804
1119.842
1142.481
1141.863
1141.206
1140.51
1139.776
1138.997
1138.167
1137.29
1136.362
1135.382
1134.346
1133.25
1132.091
1130.863
1129.56
1128.46
1127.647
1126.883
1126.199
1125.632
1124.743
1123.373
1121.901
1120.239
1143.062
1142.484
1141.869
1141.216
1140.525
1139.791
1139.008
1138.18
1137.304
1136.378
1135.399
1134.365
1133.27
1132.112
1130.885
1129.837
1129.039
1128.278
1127.577
1126.97
1126.074
1124.765
1123.414
1121.986
1120.458
1124.624
1122.867
1120.996
1119.016
1116.935
1114.782
1112.772
1126.272
1124.63
1122.881
1121.019
1119.044
1116.946
1114.753
1112.647
1127.812
1126.277
1124.642
1122.901
1121.05
1119.073
1116.952
1114.715
1112.485
1129.252
1127.815
1126.286
1124.659
1122.929
1121.085
1119.093
1116.956
1114.667
1112.283
1130.604
1129.255
1127.822
1126.299
1124.679
1122.968
1121.112
1119.114
1116.954
1114.608
1112.046
1131.873
1130.606
1129.26
1127.83
1126.306
1133.068
1131.875
1130.609
1129.265
1127.832
1134.194
1133.069
1131.877
1130.612
1129.264
1135.257
1134.195
1133.072
1131.88
1130.611
1136.26
1135.258
1134.198
1133.074
1131.879
1091.28
1137.206
1136.261
1135.26
1134.2
1133.075
1113.175
1095.987
1138.101
1137.208
1136.264
1135.264
1134.203
1120.63
1115.34
1101.62
1138.945
1138.103
1137.212
1136.268
1135.268
1123.923
1121.522
1117.509
1107.526
1139.741
1138.947
1138.107
1137.218
1136.276
1125.464
1123.974
1122.153
1119.375
1113.004
1140.491
1139.743
1138.952
1138.114
1137.228
1126.076
1124.92
1123.791
1122.559
1120.868
1116.394
1141.197
1140.494
1139.749
1138.961
1138.13
1137.259
1136.33
1135.347
1134.307
1133.208
1132.046
1130.816
1129.514
1128.134
1126.67
1125.698
1125.102
1124.443
1123.771
1123.082
1121.623
1118.127
1141.86
1141.2
1140.499
1139.758
1138.977
1138.153
1137.274
1136.346
1135.364
1134.327
1133.23
1132.07
1130.843
1129.542
1128.162
1127.055
1126.31
1125.608
1124.974
1124.439
1123.472
1121.765
1119.253
1142.481
1141.863
1141.205
1140.509
1139.774
1138.996
1138.166
1137.289
1136.362
1135.382
1134.346
1133.251
1132.093
1130.866
1129.565
1128.478
1127.689
1126.948
1126.279
1125.719
1124.824
1123.431
1121.88
1119.93
1143.062
1142.484
1141.868
1141.215
1140.524
1139.79
1139.008
1138.18
1137.304
1136.378
1135.399
1134.365
1133.271
1132.114
1130.887
1129.844
1129.055
1128.302
1127.608
1127.007
1126.111
1124.801
1123.44
1121.977
1120.326
1143.603
1143.064
1142.489
1141.877
1141.229
1140.538
1139.801
1139.02
1138.193
1137.319
1136.394
1135.417
1134.384
1133.291
1132.134
1131.14
1130.37
1129.623
1128.922
1128.291
1127.392
1126.125
1124.824
1123.481
1122.063
1120.54
1126.273
1124.631
1122.882
1121.021
1119.046
1116.95
1114.76
1112.682
1127.812
1126.278
1124.644
1122.905
1121.055
1119.077
1116.959
1114.734
1112.566
1129.253
1127.817
1126.289
1124.664
1122.937
1121.09
1119.099
1116.968
1114.702
1112.419
1130.605
1129.257
1127.825
1126.305
1124.69
1122.972
1121.116
1119.122
1116.974
1114.662
1112.24
1131.874
1130.607
1129.263
1127.837
1126.323
1124.727
1122.999
1121.144
1119.145
1116.978
1114.619
1112.037
1133.069
1131.876
1130.612
1129.27
1127.843
1134.195
1133.07
1131.879
1130.616
1129.272
1135.257
1134.196
1133.073
1131.882
1130.616
1136.26
1135.258
1134.198
1133.075
1131.881
1092.906
1137.206
1136.261
1135.26
1134.2
1133.075
1113.175
1095.987
1138.1
1137.208
1136.263
1135.263
1134.201
1120.478
1114.848
1100.439
1138.944
1138.102
1137.21
1136.266
1135.265
1124.053
1121.407
1116.847
1105.646
1139.74
1138.946
1138.105
1137.215
1136.271
1125.967
1124.358
1122.243
1118.833
1110.984
1140.49
1139.742
1138.95
1138.111
1137.222
1127.049
1125.801
1124.473
1122.893
1120.576
1114.493
1141.196
1140.493
1139.747
1138.957
1138.121
1127.554
1126.48
1125.473
1124.49
1123.443
1121.501
1116.519
1141.859
1141.199
1140.498
1139.756
1138.972
1138.151
1137.273
1136.345
1135.363
1134.326
1133.23
1132.071
1130.845
1129.548
1128.174
1127.246
1126.652
1126
1125.349
1124.738
1123.657
1121.696
1118.227
1142.481
1141.862
1141.204
1140.507
1139.771
1138.994
1138.165
1137.288
1136.361
1135.381
1134.346
1133.252
1132.095
1130.871
1129.573
1128.523
1127.794
1127.094
1126.448
1125.888
1124.975
1123.537
1121.84
1119.344
1143.062
1142.483
1141.868
1141.214
1140.522
1139.789
1139.007
1138.179
1137.304
1136.378
1135.4
1134.366
1133.273
1132.117
1130.891
1129.861
1129.095
1128.362
1127.684
1127.092
1126.198
1124.882
1123.498
1121.957
1120.018
1143.603
1143.064
1142.489
1141.877
1141.228
1140.538
1139.801
1139.02
1138.193
1137.319
1136.394
1135.417
1134.385
1133.292
1132.136
1131.146
1130.384
1129.646
1128.951
1128.326
1127.429
1126.163
1124.859
1123.506
1122.054
1120.408
1144.106
1143.605
1143.07
1142.498
1141.89
1141.242
1140.549
1139.813
1139.033
1138.208
1137.334
1136.411
1135.435
1134.403
1133.311
1132.368
1131.627
1130.9
1130.204
1129.561
1128.666
1127.437
1126.176
1124.882
1123.548
1122.135
1120.603
1127.813
1126.279
1124.645
1122.907
1121.057
1119.08
1116.963
1114.744
1112.606
1129.254
1127.818
1126.291
1124.667
1122.941
1121.094
1119.103
1116.976
1114.724
1112.506
1130.606
1129.258
1127.828
1126.309
1124.697
1122.977
1121.12
1119.128
1116.989
1114.7
1112.378
1131.875
1130.609
1129.266
1127.842
1126.333
1124.731
1123.003
1121.149
1119.154
1117.001
1114.673
1112.227
1133.07
1131.878
1130.615
1129.276
1127.859
1126.367
1124.756
1123.031
1121.179
1119.181
1117.014
1114.651
1112.064
1134.196
1133.072
1131.882
1130.621
1129.282
1135.258
1134.197
1133.075
1131.886
1130.622
1136.26
1135.259
1134.2
1133.077
1131.885
1096.159
1137.207
1136.261
1135.261
1134.201
1133.077
1113.795
1097.388
1138.1
1137.208
1136.263
1135.263
1134.201
1120.478
1114.848
1100.439
1138.944
1138.102
1137.21
1136.265
1135.264
1124.085
1121.306
1116.461
1104.675
1139.74
1138.945
1138.104
1137.213
1136.268
1126.211
1124.514
1122.187
1118.326
1109.504
1140.49
1139.742
1138.949
1138.108
1137.217
1127.571
1126.282
1124.83
1122.99
1120.163
1112.756
1141.196
1140.492
1139.745
1138.954
1138.115
1128.462
1127.333
1126.202
1125.024
1123.674
1121.224
1114.651
1141.859
1141.198
1140.496
1139.752
1138.964
1128.936
1127.914
1126.966
1126.074
1125.218
1123.92
1121.569
1116.644
1142.48
1141.861
1141.203
1140.505
1139.767
1138.992
1138.164
1137.287
1136.36
1135.381
1134.346
1133.252
1132.097
1130.876
1129.584
1128.698
1128.108
1127.458
1126.806
1126.199
1125.233
1123.718
1121.769
1118.327
1143.061
1142.483
1141.866
1141.212
1140.52
1139.788
1139.006
1138.178
1137.303
1136.377
1135.4
1134.367
1133.275
1132.121
1130.899
1129.902
1129.192
1128.499
1127.843
1127.256
1126.358
1125.032
1123.603
1121.916
1119.435
1143.603
1143.064
1142.488
1141.876
1141.226
1140.537
1139.8
1139.019
1138.193
1137.319
1136.395
1135.418
1134.386
1133.295
1132.14
1131.162
1130.422
1129.703
1129.023
1128.407
1127.514
1126.249
1124.94
1123.564
1122.034
1120.101
1144.105
1143.605
1143.069
1142.497
1141.889
1141.242
1140.548
1139.813
1139.033
1138.207
1137.334
1136.412
1135.436
1134.404
1133.313
1132.374
1131.641
1130.921
1130.232
1129.594
1128.701
1127.474
1126.214
1124.918
1123.573
1122.126
1120.471
1144.57
1144.108
1143.61
1143.078
1142.51
1141.903
1141.252
1140.56
1139.825
1139.047
1138.222
1137.35
1136.428
1135.453
1134.421
1133.528
1132.817
1132.112
1131.427
1130.779
1129.895
1128.706
1127.482
1126.227
1124.94
1123.61
1122.19
1120.652
1129.255
1127.819
1126.292
1124.669
1122.943
1121.096
1119.105
1116.98
1114.735
1112.549
1130.606
1129.259
1127.83
1126.312
1124.701
1122.98
1121.123
1119.132
1116.998
1114.724
1112.468
1131.876
1130.61
1129.268
1127.846
1126.34
1124.734
1123.006
1121.152
1119.161
1117.016
1114.712
1112.363
1133.071
1131.879
1130.617
1129.281
1127.868
1126.37
1124.759
1123.034
1121.184
1119.191
1117.036
1114.701
1112.241
1134.197
1133.073
1131.885
1130.627
1129.297
1127.899
1126.394
1124.786
1123.065
1121.217
1119.223
1117.06
1114.703
1112.116
1135.259
1134.198
1133.077
1131.89
1130.632
1136.261
1135.26
1134.201
1133.081
1131.892
1101.003
1137.207
1136.262
1135.262
1134.204
1133.08
1114.878
1100.159
1138.101
1137.208
1136.264
1135.264
1134.203
1120.63
1115.34
1101.62
1138.944
1138.102
1137.21
1136.265
1135.264
1124.085
1121.306
1116.461
1104.675
1139.74
1138.945
1138.104
1137.212
1136.266
1126.309
1124.564
1122.124
1118.03
1108.732
1140.489
1139.741
1138.948
1138.107
1137.214
1127.845
1126.529
1124.993
1122.971
1119.784
1111.474
1141.195
1140.491
1139.744
1138.952
1138.111
1128.963
1127.824
1126.636
1125.334
1123.758
1120.866
1112.944
1141.858
1141.197
1140.495
1139.749
1138.958
1129.774
1128.71
1127.673
1126.65
1125.612
1124.099
1121.294
1114.809
1142.479
1141.86
1141.201
1140.501
1139.759
1130.242
1129.261
1128.347
1127.493
1126.698
1125.61
1123.971
1121.637
1116.769
1143.06
1142.482
1141.865
1141.209
1140.515
1139.786
1139.005
1138.177
1137.302
1136.377
1135.399
1134.367
1133.277
1132.125
1130.909
1130.064
1129.482
1128.835
1128.178
1127.558
1126.631
1125.285
1123.779
1121.842
1118.428
1143.602
1143.063
1142.487
1141.874
1141.224
1140.535
1139.799
1139.019
1138.192
1137.318
1136.395
1135.419
1134.388
1133.299
1132.147
1131.201
1130.513
1129.831
1129.172
1128.564
1127.672
1126.408
1125.089
1123.668
1121.992
1119.521
1144.105
1143.605
1143.068
1142.496
1141.888
1141.241
1140.548
1139.812
1139.032
1138.207
1137.335
1136.412
1135.437
1134.407
1133.317
1132.389
1131.676
1130.975
1130.299
1129.671
1128.783
1127.559
1126.3
1124.999
1123.631
1122.106
1120.165
1144.57
1144.108