/*--------------------------------*- C++ -*----------------------------------*\
| =========                 |                                                 |
| \\      /  F ield         | OpenFOAM: The Open Source CFD Toolbox           |
|  \\    /   O peration     | Version:  2306                                  |
|   \\  /    A nd           | Website:  www.openfoam.com                      |
|    \\/     M anipulation  |                                                 |
\*---------------------------------------------------------------------------*/
FoamFile
{
    version     2.0;
    format      ascii;
    arch        "LSB;label=32;scalar=64";
    class       volScalarField;
    location    "0.6/air";
    object      diffSp.O2;
}
// * * * * * * * * * * * * * * * * * * * * * * * * * * * * * * * * * * * * * //

dimensions      [0 2 -1 0 0 0 0];

internalField   nonuniform List<scalar> 
16000
(
0.0002053521
0.0002019614
0.0002093318
0.0002019048
0.0002001158
0.000208446
0.0001938061
0.0002103232
0.0002084326
0.0002000099
0.0001990788
0.0002076837
0.0001888801
0.0002099498
0.0002058291
0.0001888026
0.0002111318
0.0002099624
0.0002076543
0.0001989131
0.0001985996
0.0002071256
0.0001859719
0.0002096157
0.0002035658
0.0001815271
0.0002109497
0.0002088656
0.0002035297
0.0001857662
0.0002118447
0.0002109728
0.0002096366
0.0002070723
0.0001983547
0.0001985996
0.0002068308
0.0001846068
0.0002093609
0.0002019006
0.0001770582
0.0002107904
0.0002078688
0.0001998935
0.0001768867
0.0002117421
0.0002104537
0.0002078731
0.000201797
0.0001841969
0.000212495
0.0002117678
0.0002108318
0.0002093874
0.0002067449
0.0001982457
0.0001220271
0.0001990788
0.0002068308
0.0001846068
0.0002092225
0.0002010192
0.0001749137
0.0002106699
0.0002071013
0.0001971933
0.0001712879
0.000211656
0.000209987
0.0002062464
0.000197098
0.0001744367
0.0002124279
0.0002114877
0.0002100084
0.0002071015
0.0002008142
0.0001839029
0.0002130931
0.0002124529
0.0002117026
0.0002107296
0.0002092548
0.0002067087
0.0001985789
0.000122015
0.0001224544
0.0001223012
0.0002001158
0.0002071256
0.0001859719
0.0002092225
0.0002010192
0.0001749137
0.0002106046
0.0002066827
0.0001957574
0.0001685608
0.0002115927
0.0002096288
0.0002049809
0.0001935795
0.0001681946
0.000212374
0.000211243
0.0002092546
0.0002049691
0.0001955003
0.0001739728
0.0002130423
0.0002122777
0.0002112697
0.0002096746
0.0002066756
0.0002006923
0.0001848704
0.000213649
0.0002130655
0.0002124195
0.0002116611
0.000210686
0.0002092664
0.0002069757
0.0001994238
0.0001219886
0.0001224519
0.0001222839
0.0001228766
0.0001227072
0.0001225773
0.0002019614
0.0002076837
0.0001888801
0.0002093609
0.0002019006
0.0001770582
0.0002106046
0.0002066827
0.0001957574
0.0001685608
0.0002115588
0.0002094333
0.0002042869
0.0001916997
0.0001651292
0.0002123356
0.0002110594
0.0002086683
0.0002032958
0.0001915008
0.0001676017
0.000213003
0.0002121299
0.0002108835
0.0002086952
0.0002042522
0.0001952911
0.000175485
0.0002136065
0.0002129374
0.0002121567
0.0002111199
0.0002095132
0.00020668
0.0002014649
0.0001872542
0.0002141674
0.0002136277
0.0002130453
0.000212403
0.0002116536
0.0002107156
0.000209432
0.000207536
0.0002009897
0.0001219376
0.0001224475
0.0001222433
0.0001228764
0.0001227048
0.0001225558
0.0001232721
0.0001231005
0.0001229602
0.0001228569
0.0002053521
0.000208446
0.0001938061
0.0002096157
0.0002035658
0.0001815271
0.0002106699
0.0002071013
0.0001971933
0.0001712879
0.0002115588
0.0002094333
0.0002042869
0.0001916997
0.0001651292
0.0002123155
0.0002109605
0.0002083456
0.0002023736
0.0001893573
0.0001644671
0.0002129756
0.000212022
0.0002105893
0.0002079249
0.0002023398
0.0001912187
0.0001695079
0.0002135742
0.0002128324
0.0002119298
0.0002106295
0.0002084134
0.00020424
0.0001965218
0.0001791454
0.0002141297
0.0002135225
0.0002128578
0.0002120841
0.0002110686
0.0002095681
0.0002071405
0.0002030875
0.0001914729
0.0002146533
0.000214149
0.000213613
0.0002130386
0.0002124092
0.0002116878
0.0002108253
0.0002097468
0.0002083726
0.0002038808
0.0001218011
0.0001224426
0.0001221566
0.0001228769
0.0001227007
0.0001225044
0.0001232726
0.0001231018
0.0001229577
0.0001228325
0.0001236374
0.0001234688
0.000123324
0.0001232143
0.0001231381
0.0002093318
0.0002019048
0.0002099498
0.0002058291
0.0001888026
0.0002107904
0.0002078688
0.0001998935
0.0001768867
0.0002115927
0.0002096288
0.0002049809
0.0001935795
0.0001681946
0.0002123155
0.0002109605
0.0002083456
0.0002023736
0.0001893573
0.0001644671
0.0002129616
0.0002119649
0.0002104293
0.0002074983
0.0002012824
0.0001890337
0.0001665792
0.0002135522
0.0002127579
0.0002117617
0.000210251
0.0002075413
0.0002023083
0.0001927986
0.0001740695
0.0002141013
0.000213438
0.0002127007
0.0002118043
0.0002105318
0.0002084833
0.0002049699
0.0001991008
0.0001853923
0.0002146187
0.0002140562
0.0002134613
0.0002128169
0.0002120766
0.0002111385
0.0002098564
0.0002080249
0.0002054511
0.0001985262
0.0002151096
0.0002146364
0.0002141367
0.00021361
0.0002130494
0.0002124431
0.0002117692
0.0002110182
0.0002102107
0.0002095165
0.0001208479
0.0001224537
0.0001219361
0.0001228817
0.0001226978
0.0001223958
0.0001232746
0.0001231064
0.0001229536
0.0001227744
0.0001236381
0.0001234711
0.0001233265
0.0001232118
0.0001231122
0.0001239782
0.0001238105
0.0001236649
0.0001235478
0.0001234671
5.206617e-05
0.0002103232
0.0002084326
0.0002000099
0.0002109497
0.0002088656
0.0002035297
0.0001857662
0.000211656
0.000209987
0.0002062464
0.000197098
0.0001744367
0.0002123356
0.0002110594
0.0002086683
0.0002032958
0.0001915008
0.0001676017
0.0002129616
0.0002119649
0.0002104293
0.0002074983
0.0002012824
0.0001890337
0.0001665792
0.000213541
0.0002127192
0.0002116718
0.0002100437
0.0002070559
0.0002012383
0.0001908022
0.0001716054
0.0002140821
0.000213379
0.0002125876
0.0002115942
0.0002101131
0.0002076175
0.0002032473
0.0001961026
0.0001816725
0.0002145928
0.0002139824
0.0002133369
0.0002126286
0.0002117808
0.0002106274
0.0002089278
0.0002063695
0.000202796
0.0001951948
0.0002150774
0.0002145514
0.0002140037
0.0002134334
0.0002128255
0.0002121476
0.0002113417
0.0002103703
0.0002092654
0.0002084005
0.0001197171
0.0002155392
0.0002150936
0.0002146251
0.0002141348
0.0002136216
0.000213081
0.0002125089
0.0002119042
0.0002113104
0.0002108994
0.0001226595
0.0001211984
0.0001229194
0.0001227133
0.0001221514
0.0001232821
0.0001231218
0.0001229501
0.0001226566
0.0001236405
0.0001234782
0.0001233339
0.0001232071
0.0001230515
0.0001239789
0.0001238131
0.0001236688
0.0001235511
0.0001234645
5.205499e-05
0.0001242959
0.0001241313
0.0001239831
0.0001238611
0.0001237695
5.220064e-05
5.207361e-05
0.0002111318
0.0002099624
0.0002076543
0.0001989131
0.0002117421
0.0002104537
0.0002078731
0.000201797
0.0001841969
0.000212374
0.000211243
0.0002092546
0.0002049691
0.0001955003
0.0001739728
0.0002129756
0.000212022
0.0002105893
0.0002079249
0.0002023398
0.0001912187
0.0001695079
0.000213541
0.0002127192
0.0002116718
0.0002100437
0.0002070559
0.0002012383
0.0001908022
0.0001716054
0.0002140724
0.0002133488
0.0002125283
0.000211481
0.0002098822
0.0002071339
0.0002022922
0.0001944967
0.0001798863
0.0002145753
0.0002139314
0.000213249
0.0002124913
0.0002115559
0.0002102243
0.0002081798
0.0002050458
0.0002007871
0.0001931585
0.0002150532
0.0002144841
0.0002138959
0.000213287
0.0002126331
0.0002118799
0.0002109315
0.000209717
0.0002082784
0.0002072413
0.0001188247
0.0002155089
0.0002150143
0.0002145036
0.0002139812
0.0002134471
0.0002128927
0.0002123069
0.0002116834
0.0002110953
0.0002108078
0.0001225219
0.0001203069
0.0002159443
0.0002155239
0.0002150829
0.0002146235
0.000214146
0.0002136507
0.0002131375
0.0002126144
0.0002121151
0.0002117959
0.0001233113
0.0001228127
0.00012157
0.0001233253
0.0001231832
0.0001229588
0.0001224194
0.0001236484
0.0001234984
0.0001233544
0.0001232012
0.0001229337
0.0001239813
0.0001238207
0.0001236796
0.0001235599
0.000123459
5.202902e-05
0.0001242965
0.0001241339
0.0001239873
0.000123866
0.0001237732
5.21995e-05
5.206243e-05
0.0001245936
0.0001244322
0.0001242839
0.0001241555
0.000124055
5.232351e-05
5.220726e-05
5.208097e-05
0.0002118447
0.0002109728
0.0002096366
0.0002070723
0.0001983547
0.0002124279
0.0002114877
0.0002100084
0.0002071015
0.0002008142
0.0001839029
0.000213003
0.0002121299
0.0002108835
0.0002086952
0.0002042522
0.0001952911
0.000175485
0.0002135522
0.0002127579
0.0002117617
0.000210251
0.0002075413
0.0002023083
0.0001927986
0.0001740695
0.0002140724
0.0002133488
0.0002125283
0.000211481
0.0002098822
0.0002071339
0.0002022922
0.0001944967
0.0001798863
0.0002145665
0.0002139055
0.0002132036
0.0002124189
0.0002114339
0.0002100005
0.00020776
0.0002043095
0.0001997091
0.0001921783
0.000215037
0.0002144378
0.0002138207
0.0002131827
0.0002124913
0.0002116731
0.0002106006
0.000209176
0.0002074614
0.000206322
0.0001182269
0.0002154862
0.0002149516
0.0002144056
0.0002138555
0.0002133009
0.0002127276
0.0002121132
0.0002114379
0.0002107853
0.0002105041
0.0001222959
0.0001195635
0.0002159157
0.0002154492
0.0002149695
0.0002144835
0.0002139956
0.0002135092
0.000213027
0.0002125642
0.0002121734
0.0002120437
0.0001234131
0.000122715
0.0001208687
0.0002163268
0.0002159296
0.0002155136
0.0002150812
0.0002146338
0.0002141727
0.0002137008
0.0002132262
0.0002127826
0.0002124966
0.0001237464
0.0001234327
0.0001229976
0.0001219607
0.0001236907
0.0001235701
0.0001234161
0.0001232002
0.0001227192
0.0001239888
0.0001238414
0.0001237064
0.0001235811
0.0001234501
5.197976e-05
0.0001242988
0.0001241413
0.0001239986
0.0001238788
0.0001237824
5.2197e-05
5.203651e-05
0.0001245943
0.0001244346
0.000124288
0.0001241608
0.0001240605
5.232513e-05
5.220612e-05
5.206981e-05
0.0001248731
0.0001247158
0.0001245679
0.0001244363
0.0001243256
5.244e-05
5.232932e-05
5.22138e-05
5.208843e-05
0.000212495
0.0002117678
0.0002108318
0.0002093874
0.0002067449
0.0001982457
0.0002130423
0.0002122777
0.0002112697
0.0002096746
0.0002066756
0.0002006923
0.0001848704
0.0002135742
0.0002128324
0.0002119298
0.0002106295
0.0002084134
0.00020424
0.0001965218
0.0001791454
0.0002140821
0.000213379
0.0002125876
0.0002115942
0.0002101131
0.0002076175
0.0002032473
0.0001961026
0.0001816725
0.0002145665
0.0002139055
0.0002132036
0.0002124189
0.0002114339
0.0002100005
0.00020776
0.0002043095
0.0001997091
0.0001921783
0.0002150288
0.0002144144
0.0002137821
0.0002131284
0.0002124158
0.0002115596
0.0002104147
0.0002088683
0.0002070007
0.0002058195
0.0001179286
0.000215471
0.0002149086
0.0002143376
0.0002137672
0.0002131958
0.0002126036
0.0002119572
0.0002112238
0.0002104946
0.0002101984
0.0001220944
0.0001190528
0.0002158943
0.0002153902
0.0002148783
0.0002143696
0.0002138715
0.0002133886
0.0002129218
0.0002124843
0.0002121276
0.0002120613
0.0001234072
0.0001225421
0.0001202611
0.0002162998
0.000215859
0.0002154068
0.0002149506
0.000214497
0.0002140526
0.0002136273
0.0002132392
0.0002129381
0.0002128488
0.0001239195
0.0001235288
0.0001229212
0.0001214142
0.0002166883
0.0002163128
0.0002159198
0.0002155118
0.0002150907
0.0002146583
0.0002142179
0.0002137789
0.0002133695
0.0002131028
0.0001240941
0.0001238487
0.0001235776
0.0001232036
0.0001223618
0.0001240283
0.0001239121
0.0001237808
0.0001236331
0.000123439
5.18941e-05
0.0001243057
0.000124161
0.0001240263
0.0001239075
0.0001238013
5.219249e-05
5.198743e-05
0.0001245963
0.0001244416
0.0001242991
0.0001241744
0.000124074
5.232898e-05
5.220361e-05
5.204393e-05
0.0001248737
0.0001247181
0.0001245719
0.0001244415
0.0001243316
5.244245e-05
5.233094e-05
5.221266e-05
5.207728e-05
0.0001251363
0.0001249834
0.0001248375
0.0001247035
0.0001245865
5.255114e-05
5.244509e-05
5.233504e-05
5.222041e-05
5.209571e-05
0.0002130931
0.0002124529
0.0002117026
0.0002107296
0.0002092548
0.0002067087
0.0001985789
0.0002136065
0.0002129374
0.0002121567
0.0002111199
0.0002095132
0.00020668
0.0002014649
0.0001872542
0.0002141013
0.000213438
0.0002127007
0.0002118043
0.0002105318
0.0002084833
0.0002049699
0.0001991008
0.0001853923
0.0002145753
0.0002139314
0.000213249
0.0002124913
0.0002115559
0.0002102243
0.0002081798
0.0002050458
0.0002007871
0.0001931585
0.0002150288
0.0002144144
0.0002137821
0.0002131284
0.0002124158
0.0002115596
0.0002104147
0.0002088683
0.0002070007
0.0002058195
0.0001179286
0.0002154633
0.0002148868
0.0002143029
0.0002137217
0.0002131408
0.0002125368
0.0002118696
0.0002110992
0.0002103215
0.000210015
0.0001219793
0.000118795
0.0002158799
0.0002153498
0.0002148151
0.00021429
0.0002137837
0.0002133003
0.0002128377
0.0002124044
0.0002120494
0.000212007
0.0001233695
0.0001223835
0.0001198339
0.0002162795
0.0002158032
0.0002153209
0.0002148446
0.000214385
0.0002139521
0.0002135584
0.0002132227
0.0002129929
0.0002129808
0.00012399
0.0001235379
0.0001227885
0.0001209282
0.0002166628
0.0002162459
0.0002158186
0.0002153886
0.0002149629
0.0002145494
0.0002141591
0.0002138123
0.0002135503
0.0002134727
0.0001242817
0.0001240019
0.0001236576
0.0001231394
0.0001219456
0.0002170303
0.0002166749
0.0002163033
0.0002159179
0.0002155205
0.0002151132
0.0002146998
0.0002142884
0.0002139057
0.0002136495
0.0001244006
0.0001241829
0.00012397
0.0001237371
0.0001234198
5.176024e-05
0.0001243419
0.0001242274
0.0001241007
0.0001239733
0.0001238399
5.218561e-05
5.190252e-05
0.0001246026
0.0001244599
0.0001243256
0.0001242042
0.000124101
5.233629e-05
5.219904e-05
5.199506e-05
0.0001248756
0.0001247246
0.0001245823
0.0001244548
0.0001243461
5.244821e-05
5.233478e-05
5.221014e-05
5.205147e-05
0.0001251368
0.0001249855
0.0001248412
0.0001247086
0.0001245924
5.255378e-05
5.244755e-05
5.233666e-05
5.221928e-05
5.208459e-05
0.0001253844
0.0001252365
0.0001250932
0.000124959
0.000124837
5.265895e-05
5.255563e-05
5.245011e-05
5.234083e-05
5.222685e-05
3.401684e-05
0.000213649
0.0002130655
0.0002124195
0.0002116611
0.000210686
0.0002092664
0.0002069757
0.0001994238
0.0002141297
0.0002135225
0.0002128578
0.0002120841
0.0002110686
0.0002095681
0.0002071405
0.0002030875
0.0001914729
0.0002145928
0.0002139824
0.0002133369
0.0002126286
0.0002117808
0.0002106274
0.0002089278
0.0002063695
0.000202796
0.0001951948
0.000215037
0.0002144378
0.0002138207
0.0002131827
0.0002124913
0.0002116731
0.0002106006
0.000209176
0.0002074614
0.000206322
0.0001182269
0.0002154633
0.0002148868
0.0002143029
0.0002137217
0.0002131408
0.0002125368
0.0002118696
0.0002110992
0.0002103215
0.000210015
0.0001219793
0.000118795
0.0002158726
0.0002153293
0.000214783
0.0002142493
0.0002137382
0.0002132535
0.0002127908
0.0002123553
0.0002119952
0.0002119614
0.0001233412
0.0001222918
0.0001196158
0.0002162658
0.000215765
0.0002152615
0.0002147708
0.0002143063
0.0002138798
0.000213504
0.0002131956
0.0002129983
0.0002130221
0.0001240144
0.0001235162
0.000122665
0.0001205797
0.0002166435
0.000216193
0.0002157374
0.0002152888
0.0002148586
0.0002144591
0.0002141049
0.0002138185
0.0002136377
0.0002136397
0.0001243757
0.000124073
0.0001236734
0.0001230371
0.0001215689
0.000217006
0.0002166115
0.0002162074
0.0002158011
0.0002153997
0.0002150112
0.0002146469
0.0002143255
0.0002140848
0.0002140044
0.0001245829
0.000124347
0.0001240963
0.0001237978
0.0001233633
5.1607e-05
0.0002173538
0.0002170175
0.0002166659
0.0002163013
0.0002159258
0.0002155414
0.0002151515
0.0002147643
0.0002144032
0.0002141563
0.0001246812
0.0001244791
0.0001242878
0.0001241027
0.0001239021
5.217343e-05
5.177079e-05
0.0001246356
0.0001245211
0.000124396
0.0001242714
0.0001241538
5.234969e-05
5.219195e-05
5.19109e-05
0.0001248813
0.0001247415
0.0001246071
0.0001244837
0.0001243748
5.245907e-05
5.2342e-05
5.22055e-05
5.200283e-05
0.0001251385
0.0001249916
0.000124851
0.0001247212
0.0001246067
5.256e-05
5.24533e-05
5.234049e-05
5.221675e-05
5.205885e-05
0.0001253848
0.0001252385
0.0001250967
0.0001249637
0.0001248427
5.266157e-05
5.255828e-05
5.245257e-05
5.234246e-05
5.222572e-05
3.400962e-05
0.0001256188
0.0001254761
0.0001253362
0.0001252028
0.0001250784
5.276308e-05
5.266294e-05
5.256005e-05
5.245518e-05
5.234645e-05
3.410163e-05
3.40231e-05
0.0002141674
0.0002136277
0.0002130453
0.000212403
0.0002116536
0.0002107156
0.000209432
0.000207536
0.0002009897
0.0002146187
0.0002140562
0.0002134613
0.0002128169
0.0002120766
0.0002111385
0.0002098564
0.0002080249
0.0002054511
0.0001985262
0.0002150532
0.0002144841
0.0002138959
0.000213287
0.0002126331
0.0002118799
0.0002109315
0.000209717
0.0002082784
0.0002072413
0.0001188247
0.000215471
0.0002149086
0.0002143376
0.0002137672
0.0002131958
0.0002126036
0.0002119572
0.0002112238
0.0002104946
0.0002101984
0.0001220944
0.0001190528
0.0002158726
0.0002153293
0.000214783
0.0002142493
0.0002137382
0.0002132535
0.0002127908
0.0002123553
0.0002119952
0.0002119614
0.0001233412
0.0001222918
0.0001196158
0.000216259
0.0002157457
0.0002152313
0.000214733
0.0002142657
0.0002138419
0.0002134739
0.0002131766
0.0002129915
0.0002130306
0.0001240203
0.0001234973
0.0001225929
0.0001203998
0.0002166305
0.0002161567
0.0002156812
0.0002152193
0.0002147856
0.0002143946
0.0002140626
0.0002138112
0.0002136727
0.0002137145
0.0001244215
0.0001241019
0.0001236626
0.0001229422
0.000121294
0.0002169877
0.0002165613
0.0002161303
0.0002157065
0.0002153013
0.000214927
0.0002145988
0.000214338
0.0002141786
0.0002141748
0.0001246806
0.0001244364
0.0001241622
0.0001238147
0.0001232848
5.146739e-05
0.0002173307
0.0002169573
0.0002165748
0.0002161905
0.0002158112
0.0002154446
0.0002151014
0.0002147993
0.0002145713
0.0002144866
0.0001248515
0.000124638
0.0001244231
0.0001242011
0.0001239435
5.215036e-05
5.162026e-05
0.0002176598
0.0002173417
0.0002170089
0.0002166639
0.0002163087
0.0002159453
0.000215577
0.0002152113
0.0002148697
0.000214631
0.0001249444
0.0001247515
0.0001245715
0.0001244021
0.0001242389
5.236868e-05
5.217939e-05
5.178125e-05
0.0001249115
0.0001247976
0.0001246724
0.0001245479
0.00012443
5.247849e-05
5.235506e-05
5.219821e-05
5.191945e-05
0.0001251438
0.0001250072
0.000124874
0.0001247484
0.0001246348
5.257168e-05
5.246408e-05
5.234763e-05
5.221205e-05
5.201045e-05
0.0001253864
0.0001252441
0.0001251058
0.0001249756
0.0001248563
5.266772e-05
5.256449e-05
5.245831e-05
5.234627e-05
5.222319e-05
3.399292e-05
0.0001256192
0.000125478
0.0001253395
0.0001252073
0.0001250838
5.27656e-05
5.266557e-05
5.256271e-05
5.245764e-05
5.234808e-05
3.41009e-05
3.401592e-05
0.0001258404
0.0001257032
0.0001255673
0.0001254359
0.0001253105
5.286391e-05
5.276665e-05
5.266686e-05
5.256453e-05
5.24601e-05
3.417894e-05
3.410724e-05
3.402712e-05
0.0002146533
0.000214149
0.000213613
0.0002130386
0.0002124092
0.0002116878
0.0002108253
0.0002097468
0.0002083726
0.0002038808
0.0002150774
0.0002145514
0.0002140037
0.0002134334
0.0002128255
0.0002121476
0.0002113417
0.0002103703
0.0002092654
0.0002084005
0.0001197171
0.0002154862
0.0002149516
0.0002144056
0.0002138555
0.0002133009
0.0002127276
0.0002121132
0.0002114379
0.0002107853
0.0002105041
0.0001222959
0.0001195635
0.0002158799
0.0002153498
0.0002148151
0.00021429
0.0002137837
0.0002133003
0.0002128377
0.0002124044
0.0002120494
0.000212007
0.0001233695
0.0001223835
0.0001198339
0.000216259
0.0002157457
0.0002152313
0.000214733
0.0002142657
0.0002138419
0.0002134739
0.0002131766
0.0002129915
0.0002130306
0.0001240203
0.0001234973
0.0001225929
0.0001203998
0.000216624
0.0002161384
0.0002156526
0.0002151838
0.0002147481
0.0002143611
0.0002140394
0.0002138038
0.0002136835
0.0002137428
0.0001244399
0.0001241112
0.0001236508
0.0001228867
0.0001211506
0.0002169754
0.0002165269
0.000216077
0.0002156407
0.0002152325
0.0002148671
0.0002145618
0.0002143372
0.0002142222
0.0002142576
0.000124732
0.0001244824
0.0001241923
0.0001238108
0.0001232137
5.136467e-05
0.0002173134
0.0002169096
0.0002165016
0.0002161007
0.0002157178
0.0002153648
0.0002150562
0.0002148121
0.0002146617
0.000214649
0.0001249454
0.0001247296
0.0001245035
0.0001242581
0.0001239581
5.2121e-05
5.148303e-05
0.0002176379
0.0002172845
0.0002169224
0.0002165586
0.0002161997
0.000215853
0.0002155286
0.0002152425
0.0002150248
0.0002149353
0.0001251016
0.0001248999
0.0001247028
0.0001245086
0.0001243108
5.238229e-05
5.215645e-05
5.163339e-05
0.0002179493
0.0002176484
0.0002173334
0.000217007
0.0002166708
0.000216327
0.0002159787
0.0002156328
0.0002153088
0.0002150787
0.0001251934
0.000125008
0.000124834
0.000124672
0.0001245188
5.250682e-05
5.237326e-05
5.218527e-05
5.179183e-05
0.0001251715
0.0001250588
0.0001249342
0.0001248084
0.0001246884
5.259243e-05
5.248316e-05
5.236034e-05
5.220456e-05
5.192785e-05
0.0001253913
0.0001252587
0.0001251273
0.0001250011
0.0001248831
5.267927e-05
5.257611e-05
5.2469e-05
5.235331e-05
5.221843e-05
3.396159e-05
0.0001256206
0.0001254833
0.0001253481
0.0001252185
0.0001250968
5.27715e-05
5.267172e-05
5.256891e-05
5.246338e-05
5.235188e-05
3.409925e-05
3.399932e-05
0.0001258408
0.000125705
0.0001255705
0.0001254401
0.0001253156
5.286631e-05
5.276918e-05
5.266949e-05
5.256719e-05
5.246257e-05
3.418001e-05
3.410653e-05
3.401996e-05
0.0001260502
0.0001259187
0.0001257873
0.0001256585
0.0001255337
5.296123e-05
5.286713e-05
5.277016e-05
5.267083e-05
5.256885e-05
3.425246e-05
3.418395e-05
3.411078e-05
3.403022e-05
0.0002151096
0.0002146364
0.0002141367
0.00021361
0.0002130494
0.0002124431
0.0002117692
0.0002110182
0.0002102107
0.0002095165
0.0001208479
0.0002155089
0.0002150143
0.0002145036
0.0002139812
0.0002134471
0.0002128927
0.0002123069
0.0002116834
0.0002110953
0.0002108078
0.0001225219
0.0001203069
0.0002158943
0.0002153902
0.0002148783
0.0002143696
0.0002138715
0.0002133886
0.0002129218
0.0002124843
0.0002121276
0.0002120613
0.0001234072
0.0001225421
0.0001202611
0.0002162658
0.000215765
0.0002152615
0.0002147708
0.0002143063
0.0002138798
0.000213504
0.0002131956
0.0002129983
0.0002130221
0.0001240144
0.0001235162
0.000122665
0.0001205797
0.000216624
0.0002161384
0.0002156526
0.0002151838
0.0002147481
0.0002143611
0.0002140394
0.0002138038
0.0002136835
0.0002137428
0.0001244399
0.0001241112
0.0001236508
0.0001228867
0.0001211506
0.0002169692
0.0002165094
0.0002160498
0.0002156071
0.0002151972
0.0002148361
0.0002145416
0.0002143338
0.0002142386
0.0002142917
0.0001247542
0.0001245017
0.0001242033
0.0001238041
0.0001231723
5.131078e-05
0.0002173017
0.0002168769
0.0002164509
0.0002160382
0.0002156525
0.0002153082
0.0002150216
0.0002148127
0.0002147055
0.0002147306
0.0001249964
0.0001247797
0.0001245472
0.0001242868
0.0001239583
5.209506e-05
5.138196e-05
0.0002176215
0.0002172392
0.0002168528
0.0002164733
0.0002161109
0.000215777
0.0002154851
0.0002152537
0.0002151089
0.0002150867
0.0001251895
0.0001249876
0.0001247846
0.0001245772
0.000124357
5.238767e-05
5.212754e-05
5.14985e-05
0.0002179285
0.0002175941
0.0002172513
0.000216907
0.0002165672
0.000216239
0.0002159318
0.0002156603
0.0002154516
0.0002153592
0.0001253381
0.0001251451
0.000124957
0.0001247761
0.0001245984
5.253221e-05
5.238642e-05
5.216245e-05
5.164657e-05
0.0002182229
0.0002179385
0.0002176406
0.0002173316
0.0002170135
0.000216688
0.0002163584
0.0002160309
0.0002157237
0.0002155023
0.0001254302
0.0001252514
0.0001250824
0.0001249237
0.0001247744
5.262282e-05
5.251063e-05
5.237776e-05
5.219126e-05
5.180221e-05
0.0001254169
0.0001253063
0.0001251829
0.0001250568
0.0001249339
5.269967e-05
5.259653e-05
5.248773e-05
5.236569e-05
5.221073e-05
3.390832e-05
0.0001256251
0.0001254968
0.0001253682
0.0001252423
0.000125122
5.278256e-05
5.26832e-05
5.258045e-05
5.247397e-05
5.235882e-05
3.409612e-05
3.39682e-05
0.0001258422
0.00012571
0.0001255786
0.0001254507
0.0001253279
5.287192e-05
5.277509e-05
5.267564e-05
5.257338e-05
5.246829e-05
3.418248e-05
3.41049e-05
3.400342e-05
0.0001260506
0.0001259204
0.0001257902
0.0001256625
0.0001255385
5.29635e-05
5.286953e-05
5.277269e-05
5.267347e-05
5.257152e-05
3.425407e-05
3.418503e-05
3.411007e-05
3.402308e-05
0.0001262489
0.0001261232
0.0001259965
0.0001258712
0.0001257479
5.305512e-05
5.296415e-05
5.287028e-05
5.277371e-05
5.267467e-05
3.432286e-05
3.425696e-05
3.418703e-05
3.411346e-05
3.403189e-05
0.0001218011
0.0002155392
0.0002150936
0.0002146251
0.0002141348
0.0002136216
0.000213081
0.0002125089
0.0002119042
0.0002113104
0.0002108994
0.0001226595
0.0001211984
0.0002159157
0.0002154492
0.0002149695
0.0002144835
0.0002139956
0.0002135092
0.000213027
0.0002125642
0.0002121734
0.0002120437
0.0001234131
0.000122715
0.0001208687
0.0002162795
0.0002158032
0.0002153209
0.0002148446
0.000214385
0.0002139521
0.0002135584
0.0002132227
0.0002129929
0.0002129808
0.00012399
0.0001235379
0.0001227885
0.0001209282
0.0002166305
0.0002161567
0.0002156812
0.0002152193
0.0002147856
0.0002143946
0.0002140626
0.0002138112
0.0002136727
0.0002137145
0.0001244215
0.0001241019
0.0001236626
0.0001229422
0.000121294
0.0002169692
0.0002165094
0.0002160498
0.0002156071
0.0002151972
0.0002148361
0.0002145416
0.0002143338
0.0002142386
0.0002142917
0.0001247542
0.0001245017
0.0001242033
0.0001238041
0.0001231723
5.131078e-05
0.0002172958
0.0002168603
0.0002164252
0.0002160063
0.000215619
0.0002152789
0.0002150029
0.0002148105
0.0002147228
0.0002147651
0.0001250189
0.0001248018
0.0001245661
0.0001242982
0.0001239552
5.208005e-05
5.13289e-05
0.0002176104
0.0002172081
0.0002168047
0.0002164139
0.0002160489
0.0002157231
0.0002154521
0.000215254
0.0002151502
0.0002151637
0.0001252379
0.0001250368
0.0001248313
0.0001246167
0.0001243825
5.238828e-05
5.210209e-05
5.139905e-05
0.0002179128
0.000217551
0.0002171853
0.0002168259
0.0002164827
0.0002161665
0.0002158898
0.0002156696
0.0002155291
0.0002154994
0.0001254198
0.0001252271
0.0001250353
0.0001248459
0.0001246541
5.254947e-05
5.23917e-05
5.2134e-05
5.151399e-05
0.0002182031
0.0002178869
0.0002175626
0.0002172367
0.000216915
0.0002166042
0.0002163131
0.0002160554
0.0002158556
0.0002157617
0.0001255639
0.0001253778
0.0001251964
0.0001250218
0.0001248533
5.265144e-05
5.253543e-05
5.239048e-05
5.216854e-05
5.165952e-05
0.0002184812
0.0002182127
0.0002179311
0.0002176389
0.0002173378
0.0002170298
0.0002167177
0.0002164076
0.0002161162
0.0002159038
0.0001256557
0.0001254834
0.000125319
0.0001251633
0.0001250148
5.272954e-05
5.262612e-05
5.251437e-05
5.238235e-05
5.219707e-05
3.382776e-05
0.000125649
0.0001255411
0.0001254198
0.0001252941
0.0001251697
5.280203e-05
5.270332e-05
5.260055e-05
5.249235e-05
5.237086e-05
3.4091e-05
3.391546e-05
0.0001258463
0.0001257227
0.0001255974
0.0001254731
0.0001253517
5.288241e-05
5.278609e-05
5.268706e-05
5.258483e-05
5.247878e-05
3.418694e-05
3.410178e-05
3.397247e-05
0.0001260518
0.0001259251
0.0001257979
0.0001256726
0.0001255501
5.296883e-05
5.287515e-05
5.277859e-05
5.267962e-05
5.25777e-05
3.425778e-05
3.41875e-05
3.410844e-05
3.400659e-05
0.0001262493
0.0001261248
0.0001259994
0.000125875
0.0001257525
5.305729e-05
5.296643e-05
5.287269e-05
5.277625e-05
5.267731e-05
3.432459e-05
3.425857e-05
3.418811e-05
3.411275e-05
3.402476e-05
0.0001264372
0.0001263173
0.0001261958
0.0001260743
0.0001259534
5.314553e-05
5.305779e-05
5.296701e-05
5.287348e-05
5.277713e-05
3.439141e-05
3.432694e-05
3.425965e-05
3.418932e-05
3.411483e-05
0.0001219376
0.0001224537
0.0001219361
0.0002159443
0.0002155239
0.0002150829
0.0002146235
0.000214146
0.0002136507
0.0002131375
0.0002126144
0.0002121151
0.0002117959
0.0001233113
0.0001228127
0.00012157
0.0002162998
0.000215859
0.0002154068
0.0002149506
0.000214497
0.0002140526
0.0002136273
0.0002132392
0.0002129381
0.0002128488
0.0001239195
0.0001235288
0.0001229212
0.0001214142
0.0002166435
0.000216193
0.0002157374
0.0002152888
0.0002148586
0.0002144591
0.0002141049
0.0002138185
0.0002136377
0.0002136397
0.0001243757
0.000124073
0.0001236734
0.0001230371
0.0001215689
0.0002169754
0.0002165269
0.000216077
0.0002156407
0.0002152325
0.0002148671
0.0002145618
0.0002143372
0.0002142222
0.0002142576
0.000124732
0.0001244824
0.0001241923
0.0001238108
0.0001232137
5.136467e-05
0.0002172958
0.0002168603
0.0002164252
0.0002160063
0.000215619
0.0002152789
0.0002150029
0.0002148105
0.0002147228
0.0002147651
0.0001250189
0.0001248018
0.0001245661
0.0001242982
0.0001239552
5.208005e-05
5.13289e-05
0.0002176048
0.0002171924
0.0002167802
0.0002163836
0.000216017
0.0002156952
0.0002154343
0.0002152519
0.0002151668
0.0002151966
0.0001252596
0.0001250589
0.0001248524
0.0001246343
0.0001243935
5.238756e-05
5.208738e-05
5.134681e-05
0.0002179023
0.0002175216
0.0002171396
0.0002167695
0.0002164237
0.0002161151
0.0002158581
0.0002156692
0.0002155672
0.0002155712
0.0001254652
0.0001252738
0.000125081
0.0001248877
0.0001246881
5.255957e-05
5.239237e-05
5.210902e-05
5.141615e-05
0.0002181883
0.0002178461
0.0002174999
0.0002171597
0.0002168347
0.0002165351
0.0002162728
0.0002160631
0.000215927
0.0002158918
0.0001256398
0.0001254541
0.0001252698
0.0001250889
0.0001249103
5.267244e-05
5.255241e-05
5.239565e-05
5.214053e-05
5.15292e-05
0.0002184625
0.0002181639
0.0002178572
0.0002175488
0.0002172444
0.0002169501
0.0002166744
0.0002164297
0.0002162388
0.0002161451
0.0001257798
0.0001256005
0.0001254246
0.0001252548
0.00012509
5.275825e-05
5.265414e-05
5.253858e-05
5.239463e-05
5.217446e-05
3.373642e-05
0.0002187249
0.0002184718
0.0002182059
0.0002179297
0.0002176449
0.0002173534
0.000217058
0.0002167643
0.0002164879
0.0002162849
0.0001258707
0.0001257049
0.0001255454
0.0001253926
0.0001252453
5.283048e-05
5.273245e-05
5.262934e-05
5.251817e-05
5.238677e-05
3.408191e-05
3.383605e-05
0.0001258686
0.0001257641
0.0001256455
0.0001255214
0.0001253964
5.290083e-05
5.280531e-05
5.270688e-05
5.260461e-05
5.24968e-05
3.419457e-05
3.409659e-05
3.392019e-05
0.0001260558
0.0001259371
0.0001258156
0.0001256937
0.0001255726
5.297877e-05
5.288559e-05
5.278954e-05
5.269096e-05
5.258906e-05
3.426455e-05
3.419193e-05
3.410528e-05
3.397579e-05
0.0001262505
0.0001261293
0.0001260067
0.0001258846
0.0001257635
5.306235e-05
5.297176e-05
5.287831e-05
5.278215e-05
5.268344e-05
3.432861e-05
3.426229e-05
3.419057e-05
3.41111e-05
3.40083e-05
0.0001264375
0.0001263189
0.0001261985
0.000126078
0.0001259579
5.314759e-05
5.305996e-05
5.29693e-05
5.28759e-05
5.277967e-05
3.439313e-05
3.432868e-05
3.426126e-05
3.419039e-05
3.41141e-05
0.0001266157
0.0001265017
0.0001263853
0.0001262683
0.0001261505
5.323249e-05