/*--------------------------------*- C++ -*----------------------------------*\
| =========                 |                                                 |
| \\      /  F ield         | OpenFOAM: The Open Source CFD Toolbox           |
|  \\    /   O peration     | Version:  2306                                  |
|   \\  /    A nd           | Website:  www.openfoam.com                      |
|    \\/     M anipulation  |                                                 |
\*---------------------------------------------------------------------------*/
FoamFile
{
    version     2.0;
    format      ascii;
    arch        "LSB;label=32;scalar=64";
    class       volScalarField;
    location    "0.6/air";
    object      N2;
}
// * * * * * * * * * * * * * * * * * * * * * * * * * * * * * * * * * * * * * //

dimensions      [0 0 0 0 0 0 0];

internalField   nonuniform List<scalar> 
16000
(
0.7702526
0.7702472
0.7712093
0.7702864
0.7702392
0.7711275
0.7702784
0.7732149
0.7713194
0.7703649
0.7702317
0.771022
0.7702674
0.7731055
0.7712084
0.7703496
0.775386
0.7733573
0.7716078
0.770514
0.7702273
0.7709326
0.7702574
0.7729562
0.771073
0.7703312
0.7752732
0.7732147
0.7714551
0.7704813
0.7775529
0.7755355
0.773713
0.772144
0.7707878
0.7702273
0.7708826
0.7702515
0.772824
0.7709626
0.7703151
0.7751184
0.7730286
0.7712706
0.7704454
0.7774427
0.7753896
0.7735304
0.7719468
0.7707231
0.77965
0.777699
0.7759059
0.7743458
0.7729948
0.7712889
0.8086818
0.7702317
0.7708826
0.7702515
0.772748
0.7709022
0.770306
0.7749805
0.7728679
0.771123
0.7704182
0.7772917
0.775198
0.773295
0.7717028
0.770649
0.7795447
0.777557
0.7757221
0.7741255
0.7727565
0.7711822
0.7816586
0.7797903
0.7780602
0.7765583
0.7753096
0.774212
0.7721439
0.8073495
0.810233
0.8088926
0.7702392
0.7709326
0.7702574
0.772748
0.7709022
0.770306
0.774901
0.7727769
0.7710431
0.7704037
0.7771572
0.7750316
0.7730941
0.7715035
0.770592
0.7794003
0.7773706
0.7754839
0.7738408
0.7724535
0.7710456
0.7815583
0.7796547
0.7778825
0.7763417
0.7750568
0.7739339
0.7719921
0.7835782
0.7817922
0.780137
0.7786937
0.7775388
0.776648
0.7758596
0.773517
0.8046579
0.809036
0.8075653
0.8107095
0.8104264
0.8093134
0.7702472
0.771022
0.7702674
0.772824
0.7709626
0.7703151
0.774901
0.7727769
0.7710431
0.7704037
0.7770797
0.7749369
0.772981
0.7713948
0.7705616
0.7792719
0.7772087
0.7752792
0.7735976
0.7722004
0.7709315
0.7814208
0.7794768
0.7776526
0.7760604
0.7747271
0.7735767
0.771786
0.7834826
0.781663
0.7799677
0.7784864
0.7772972
0.7763663
0.7755295
0.7732866
0.7854151
0.7837056
0.7821223
0.7807441
0.7796408
0.7788792
0.7783958
0.7780125
0.7756582
0.8005075
0.8066232
0.8048909
0.809594
0.8092331
0.8079948
0.8109746
0.8108884
0.8108125
0.809943
0.7702526
0.7711275
0.7702784
0.7729562
0.771073
0.7703312
0.7749805
0.7728679
0.771123
0.7704182
0.7770797
0.7749369
0.772981
0.7713948
0.7705616
0.7791978
0.7771166
0.7751633
0.7734608
0.7720603
0.7708681
0.7812984
0.7793224
0.777455
0.7758184
0.774444
0.7732748
0.771608
0.7833517
0.7814937
0.7797488
0.7782177
0.7769806
0.775995
0.7751016
0.7729726
0.7853238
0.7835826
0.7819611
0.7805474
0.7794122
0.7786177
0.7780804
0.7775986
0.775225
0.7871767
0.7855367
0.7840203
0.7827001
0.7816503
0.7809277
0.7805992
0.7805864
0.7807648
0.7790292
0.794508
0.8029196
0.8008056
0.8073466
0.8068339
0.8053492
0.8099285
0.8097762
0.8096256
0.8086351
0.8112539
0.811142
0.8112457
0.8113903
0.8107799
0.7712093
0.7702864
0.7731055
0.7712084
0.7703496
0.7751184
0.7730286
0.7712706
0.7704454
0.7771572
0.7750316
0.7730941
0.7715035
0.770592
0.7791978
0.7771166
0.7751633
0.7734608
0.7720603
0.7708681
0.7812279
0.7792345
0.7773433
0.7756814
0.7742843
0.7731061
0.7715074
0.7832352
0.7813467
0.7795609
0.7779869
0.7767067
0.7756741
0.774738
0.7727051
0.7851988
0.7834213
0.7817529
0.7802926
0.7791133
0.778271
0.7776614
0.7770679
0.7747025
0.7870893
0.7854191
0.7838668
0.782513
0.7814341
0.7806827
0.780313
0.780207
0.7801621
0.7779871
0.7888702
0.7872931
0.7858371
0.7845713
0.7835621
0.7828787
0.7825692
0.7827168
0.7832753
0.7842959
0.7847341
0.79761
0.7951233
0.8038991
0.8031838
0.8013609
0.8078215
0.8075409
0.807249
0.8060219
0.810266
0.8100989
0.810139
0.8102112
0.8094827
0.8116469
0.8114119
0.8114764
0.8117804
0.8121587
0.8119885
0.7732149
0.7713194
0.7703649
0.7752732
0.7732147
0.7714551
0.7704813
0.7772917
0.775198
0.773295
0.7717028
0.770649
0.7792719
0.7772087
0.7752792
0.7735976
0.7722004
0.7709315
0.7812279
0.7792345
0.7773433
0.7756814
0.7742843
0.7731061
0.7715074
0.783168
0.7812631
0.7794545
0.7778563
0.7765513
0.7754925
0.7745342
0.7725555
0.7850875
0.7832813
0.7815743
0.7800737
0.7788552
0.7779691
0.7772984
0.7766222
0.7742924
0.7869696
0.7852651
0.7836685
0.7822709
0.7811517
0.7803587
0.7799301
0.7797101
0.7794494
0.7770561
0.7887863
0.7871805
0.7856904
0.784393
0.7833566
0.7826478
0.7823025
0.7823747
0.7827273
0.7831616
0.7817136
0.790502
0.7889819
0.7875808
0.7863632
0.7853933
0.7847303
0.7844422
0.7845797
0.7852748
0.7866116
0.7890953
0.7875814
0.7989621
0.7981401
0.7960405
0.8045907
0.8041423
0.8036778
0.8021304
0.8082764
0.808003
0.8079237
0.8078592
0.8068987
0.8107097
0.8104267
0.8104383
0.8106803
0.8109871
0.8107026
0.8121267
0.8117967
0.8117274
0.8119769
0.8124918
0.8132692
0.8122378
0.775386
0.7733573
0.7716078
0.770514
0.7774427
0.7753896
0.7735304
0.7719468
0.7707231
0.7794003
0.7773706
0.7754839
0.7738408
0.7724535
0.7710456
0.7812984
0.7793224
0.777455
0.7758184
0.774444
0.7732748
0.771608
0.783168
0.7812631
0.7794545
0.7778563
0.7765513
0.7754925
0.7745342
0.7725555
0.7850234
0.7832017
0.7814733
0.7799499
0.7787089
0.7777972
0.7770931
0.7763745
0.7740732
0.7868631
0.7851315
0.7834984
0.7820631
0.780908
0.7800772
0.7795961
0.7792866
0.7788813
0.7764248
0.7886714
0.787033
0.785501
0.7841623
0.7830885
0.7823427
0.7819467
0.7819237
0.782072
0.7821035
0.7801183
0.7904212
0.7888738
0.7874402
0.7861927
0.7851974
0.7845108
0.7841911
0.7842605
0.7847741
0.7855667
0.786282
0.7840279
0.7920774
0.7906094
0.789258
0.7880846
0.7871484
0.7865076
0.7862169
0.7863532
0.7869995
0.7884115
0.7910575
0.7915054
0.7897974
0.799967
0.7994505
0.7989358
0.7971078
0.8052262
0.8048175
0.8045968
0.8043654
0.8030819
0.8088224
0.8084474
0.8083606
0.8084865
0.8086562
0.8081437
0.8112337
0.8108621
0.8107468
0.8109446
0.8113978
0.8121046
0.8109541
0.8126861
0.8122696
0.8120961
0.8121997
0.8126429
0.8135199
0.8134982
0.8124892
0.7775529
0.7755355
0.773713
0.772144
0.7707878
0.7795447
0.777557
0.7757221
0.7741255
0.7727565
0.7711822
0.7814208
0.7794768
0.7776526
0.7760604
0.7747271
0.7735767
0.771786
0.7832352
0.7813467
0.7795609
0.7779869
0.7767067
0.7756741
0.774738
0.7727051
0.7850234
0.7832017
0.7814733
0.7799499
0.7787089
0.7777972
0.7770931
0.7763745
0.7740732
0.7868017
0.7850554
0.7834022
0.7819457
0.7807698
0.7799172
0.779406
0.7790496
0.7785747
0.7761105
0.7885692
0.7869051
0.7853385
0.7839644
0.7828574
0.7820777
0.7816372
0.7815373
0.7815451
0.7813521
0.7791985
0.7903107
0.7887322
0.7872588
0.7859723
0.7849418
0.7842211
0.7838563
0.7838412
0.784174
0.7845902
0.7846849
0.7820903
0.7919996
0.7905054
0.789123
0.7879212
0.7869609
0.786298
0.7859779
0.7860522
0.7865298
0.7874409
0.7884449
0.7882406
0.7860799
0.7936013
0.792181
0.790875
0.7897417
0.7888369
0.7882131
0.7879259
0.7880342
0.7886494
0.7899607
0.792569
0.7932861
0.7933924
0.7916122
0.8008621
0.8004224
0.8001825
0.7998689
0.7982524
0.8059295
0.8054397
0.8052414
0.8052293
0.8052196
0.8043741
0.8094353
0.8089845
0.8087843
0.8088864
0.8092219
0.8097899
0.8084003
0.8118324
0.8113789
0.8111657
0.8112244
0.8116158
0.8124314
0.8123351
0.8112077
0.8133015
0.8128227
0.8125549
0.8125443
0.8128282
0.8136055
0.813732
0.8137291
0.8127427
0.77965
0.777699
0.7759059
0.7743458
0.7729948
0.7712889
0.7815583
0.7796547
0.7778825
0.7763417
0.7750568
0.7739339
0.7719921
0.7833517
0.7814937
0.7797488
0.7782177
0.7769806
0.775995
0.7751016
0.7729726
0.7850875
0.7832813
0.7815743
0.7800737
0.7788552
0.7779691
0.7772984
0.7766222
0.7742924
0.7868017
0.7850554
0.7834022
0.7819457
0.7807698
0.7799172
0.779406
0.7790496
0.7785747
0.7761105
0.7885103
0.7868323
0.7852467
0.7838526
0.7827265
0.781927
0.7814614
0.7813199
0.7812593
0.7809678
0.778769
0.7902124
0.7886094
0.7871032
0.7857832
0.7847216
0.7839698
0.7835651
0.7834828
0.7836907
0.7838946
0.7837132
0.7810008
0.791893
0.7903692
0.7889488
0.7877099
0.7867164
0.7860216
0.7856597
0.7856568
0.7859686
0.7865354
0.7869609
0.7863629
0.7839196
0.7935261
0.7920807
0.7907451
0.7895846
0.788657
0.7880123
0.7876975
0.7877472
0.788205
0.789046
0.7901257
0.7902496
0.7899858
0.7878788
0.7950776
0.7937013
0.792437
0.7913404
0.790464
0.7898575
0.7895692
0.7896605
0.7902188
0.7914566
0.7938815
0.7946511
0.7950264
0.7949492
0.7931458
0.8017913
0.8012909
0.8011048
0.8010397
0.8008778
0.7996328
0.8066789
0.8061318
0.8058388
0.8058315
0.806015
0.8063846
0.8046399
0.8101132
0.8095897
0.809304
0.8092799
0.8095735
0.810268
0.8100235
0.8086589
0.8124829
0.8119712
0.8116682
0.8116188
0.8118576
0.8125829
0.8126445
0.8125674
0.8114635
0.8139615
0.8134325
0.8130955
0.812982
0.8131407
0.8137366
0.813804
0.8139458
0.813962
0.8129983
0.7816586
0.7797903
0.7780602
0.7765583
0.7753096
0.774212
0.7721439
0.7834826
0.781663
0.7799677
0.7784864
0.7772972
0.7763663
0.7755295
0.7732866
0.7851988
0.7834213
0.7817529
0.7802926
0.7791133
0.778271
0.7776614
0.7770679
0.7747025
0.7868631
0.7851315
0.7834984
0.7820631
0.780908
0.7800772
0.7795961
0.7792866
0.7788813
0.7764248
0.7885103
0.7868323
0.7852467
0.7838526
0.7827265
0.781927
0.7814614
0.7813199
0.7812593
0.7809678
0.778769
0.7901557
0.7885396
0.7870152
0.7856764
0.7845968
0.7838271
0.7833997
0.7832817
0.7834279
0.7835379
0.7832446
0.7805014
0.7917982
0.790251
0.7887993
0.7875287
0.7865058
0.7857819
0.7853832
0.785319
0.7855178
0.7858908
0.7860567
0.7852576
0.7827008
0.7934232
0.7919493
0.7905774
0.7893815
0.7884224
0.7877475
0.7873935
0.7873708
0.7876741
0.7881945
0.7887406
0.7885011
0.7879229
0.7855917
0.7950049
0.7936044
0.7923117
0.7911891
0.7902909
0.7896645
0.78935
0.7893859
0.7897948
0.7905893
0.7915758
0.7918086
0.7918537
0.7915231
0.7894423
0.79651
0.7951743
0.7939485
0.7928857
0.7920356
0.7914444
0.791158
0.7912289
0.7917466
0.7928914
0.7951726
0.7958443
0.7962751
0.7964578
0.7962762
0.7946636
0.8027364
0.8021973
0.8019332
0.8019035
0.8019652
0.8021046
0.7999154
0.8074783
0.8068714
0.8065098
0.8063943
0.8065643
0.8070865
0.8066243
0.8049074
0.8108344
0.8102607
0.8098939
0.8097738
0.8099275
0.8105511
0.8104836
0.810259
0.8089194
0.8131747
0.812616
0.8122478
0.8120999
0.8122195
0.8127698
0.8127823
0.8128594
0.8128017
0.8117213
0.8146533
0.8140873
0.8136941
0.813504
0.8135504
0.8140028
0.8139239
0.8140042
0.8141614
0.8141968
0.8133102
0.7835782
0.7817922
0.780137
0.7786937
0.7775388
0.776648
0.7758596
0.773517
0.7853238
0.7835826
0.7819611
0.7805474
0.7794122
0.7786177
0.7780804
0.7775986
0.775225
0.7869696
0.7852651
0.7836685
0.7822709
0.7811517
0.7803587
0.7799301
0.7797101
0.7794494
0.7770561
0.7885692
0.7869051
0.7853385
0.7839644
0.7828574
0.7820777
0.7816372
0.7815373
0.7815451
0.7813521
0.7791985
0.7901557
0.7885396
0.7870152
0.7856764
0.7845968
0.7838271
0.7833997
0.7832817
0.7834279
0.7835379
0.7832446
0.7805014
0.7917436
0.7901838
0.7887149
0.7874264
0.7863866
0.7856458
0.7852264
0.7851294
0.7852733
0.7855602
0.78562
0.7847358
0.7821457
0.7933316
0.7918354
0.7904336
0.7892075
0.7882204
0.7875181
0.7871295
0.7870496
0.7872478
0.7875897
0.7878976
0.7874704
0.7867134
0.7842873
0.7949053
0.7934775
0.7921499
0.7909936
0.7900653
0.7894102
0.7890584
0.7890259
0.7892888
0.789782
0.7902698
0.7901734
0.7899296
0.7893514
0.7871006
0.7964396
0.7950806
0.7938274
0.7927397
0.7918688
0.7912586
0.7909472
0.7909651
0.7913408
0.7920643
0.7929854
0.7931609
0.793303
0.7932626
0.792866
0.7909985
0.7979016
0.7966037
0.7954134
0.7943819
0.7935561
0.7929796
0.7926943
0.7927506
0.7932264
0.7942999
0.7964307
0.7970324
0.7973741
0.7976092
0.7976736
0.7976026
0.7949718
0.8037098
0.8031228
0.8028054
0.8026847
0.8027654
0.8030888
0.8023558
0.8001985
0.8083081
0.8076622
0.8072313
0.8070361
0.8070844
0.8075638
0.8073069
0.8068655
0.8051764
0.8115903
0.8109759
0.8105515
0.8103414
0.8103878
0.810849
0.8107526
0.8107009
0.8104963
0.809182
0.8138954
0.8133026
0.8128812
0.8126605
0.8126722
0.813085
0.8129579
0.8129834
0.8130761
0.813038
0.8120359
0.8153695
0.8147745
0.8143388
0.8140858
0.8140476
0.8143721
0.8141806
0.8141128
0.814206
0.8143789
0.8144834
0.8136296
0.7854151
0.7837056
0.7821223
0.7807441
0.7796408
0.7788792
0.7783958
0.7780125
0.7756582
0.7870893
0.7854191
0.7838668
0.782513
0.7814341
0.7806827
0.780313
0.780207
0.7801621
0.7779871
0.7886714
0.787033
0.785501
0.7841623
0.7830885
0.7823427
0.7819467
0.7819237
0.782072
0.7821035
0.7801183
0.7902124
0.7886094
0.7871032
0.7857832
0.7847216
0.7839698
0.7835651
0.7834828
0.7836907
0.7838946
0.7837132
0.7810008
0.7917436
0.7901838
0.7887149
0.7874264
0.7863866
0.7856458
0.7852264
0.7851294
0.7852733
0.7855602
0.78562
0.7847358
0.7821457
0.7932789
0.7917706
0.7903523
0.7891092
0.7881061
0.7873878
0.7869797
0.7868695
0.7870165
0.7872801
0.7874907
0.7869832
0.7861478
0.7836938
0.7948167
0.7933675
0.7920113
0.790826
0.7898711
0.7891899
0.7888053
0.7887186
0.7888828
0.7892088
0.7894761
0.7892104
0.7887997
0.7880704
0.7857534
0.7963431
0.7949578
0.7936712
0.792551
0.7916514
0.7910137
0.7906667
0.7906194
0.7908564
0.7912945
0.7917463
0.7916179
0.7915012
0.7912338
0.7906422
0.7886598
0.7978333
0.7965129
0.7952963
0.7942408
0.793395
0.7928003
0.7924911
0.7924967
0.7928366
0.7935084
0.7943457
0.7944866
0.7945676
0.7946139
0.7944885
0.7942091
0.7913145
0.7992554
0.7979925
0.7968354
0.7958327
0.7950296
0.7944668
0.7941837
0.794226
0.7946686
0.7956732
0.7976822
0.7982016
0.7984813
0.7986297
0.7987407
0.7988836
0.7978721
0.7952781
0.804695
0.8040787
0.8037014
0.8035169
0.8034955
0.8038112
0.8033189
0.8026075
0.800482
0.8091623
0.8084843
0.8080059
0.8077322
0.8076898
0.8080253
0.8077694
0.8075287
0.8071082
0.8054471
0.8123694
0.8117262
0.8112546
0.8109792
0.8109262
0.8112616
0.8110389
0.8109557
0.8109199
0.8107355
0.8095022
0.8146382
0.8140186
0.8135575
0.8132769
0.8132078
0.813497
0.8132635
0.8131476
0.8131862
0.8132946
0.8133262
0.812358
0.8161035
0.8154865
0.8150168
0.8147154
0.8146072
0.8148334
0.8145415
0.8143599
0.8143034
0.8144096
0.8146442
0.8147766
0.8138727
0.7871767
0.7855367
0.7840203
0.7827001
0.7816503
0.7809277
0.7805992
0.7805864
0.7807648
0.7790292
0.7887863
0.7871805
0.7856904
0.784393
0.7833566
0.7826478
0.7823025
0.7823747
0.7827273
0.7831616
0.7817136
0.7903107
0.7887322
0.7872588
0.7859723
0.7849418
0.7842211
0.7838563
0.7838412
0.784174
0.7845902
0.7846849
0.7820903
0.7917982
0.790251
0.7887993
0.7875287
0.7865058
0.7857819
0.7853832
0.785319
0.7855178
0.7858908
0.7860567
0.7852576
0.7827008
0.7932789
0.7917706
0.7903523
0.7891092
0.7881061
0.7873878
0.7869797
0.7868695
0.7870165
0.7872801
0.7874907
0.7869832
0.7861478
0.7836938
0.7947657
0.7933049
0.7919329
0.7907313
0.7897611
0.7890648
0.7886617
0.7885464
0.7886628
0.7889153
0.7890934
0.7887554
0.7882708
0.7874733
0.7851399
0.7962573
0.7948514
0.7935372
0.7923893
0.7914642
0.7908016
0.7904234
0.7903245
0.7904678
0.7907482
0.7909935
0.79071
0.7904439
0.7900351
0.7893221
0.7873107
0.7977397
0.796394
0.7951451
0.7940584
0.7931851
0.7925641
0.7922208
0.7921639
0.7923714
0.7927717
0.7931643
0.7930224
0.7928666
0.7927124
0.7924077
0.7919762
0.788977
0.799189
0.7979044
0.7967218
0.7956961
0.7948738
0.7942935
0.7939874
0.793981
0.7942934
0.7949134
0.7956881
0.7957748
0.7958183
0.7958005
0.7957529
0.7957085
0.794482
0.7916284
0.8005735
0.7993436
0.7982172
0.7972416
0.7964595
0.7959097
0.7956288
0.7956599
0.7960718
0.7970192
0.7989157
0.7993744
0.7995809
0.79967
0.7996937
0.7998647
0.7991294
0.79814
0.7955824
0.8056899
0.8050485
0.8046314
0.8043784
0.8042845
0.8044789
0.8040254
0.8035494
0.8028597
0.800766
0.8100308
0.8093315
0.8088137
0.8084845
0.8083545
0.8085813
0.8082189
0.8079763
0.8077519
0.8073524
0.8057766
0.8131657
0.8125003
0.811994
0.8116646
0.8115381
0.8117584
0.8114416
0.8112303
0.8111603
0.8111406
0.8110271
0.8098301
0.8153967
0.8147571
0.8142641
0.8139379
0.8138017
0.8139963
0.813667
0.8134434
0.8133389
0.8133906
0.8135611
0.8136211
0.8126032
0.8168508
0.8162167
0.8157203
0.8153795
0.8152166
0.8153607
0.8149954
0.8147124
0.8145407
0.8144955
0.814658
0.8149155
0.8149996
0.8140378
0.7888702
0.7872931
0.7858371
0.7845713
0.7835621
0.7828787
0.7825692
0.7827168
0.7832753
0.7842959
0.7847341
0.7904212
0.7888738
0.7874402
0.7861927
0.7851974
0.7845108
0.7841911
0.7842605
0.7847741
0.7855667
0.786282
0.7840279
0.791893
0.7903692
0.7889488
0.7877099
0.7867164
0.7860216
0.7856597
0.7856568
0.7859686
0.7865354
0.7869609
0.7863629
0.7839196
0.7933316
0.7918354
0.7904336
0.7892075
0.7882204
0.7875181
0.7871295
0.7870496
0.7872478
0.7875897
0.7878976
0.7874704
0.7867134
0.7842873
0.7947657
0.7933049
0.7919329
0.7907313
0.7897611
0.7890648
0.7886617
0.7885464
0.7886628
0.7889153
0.7890934
0.7887554
0.7882708
0.7874733
0.7851399
0.7962079
0.7947909
0.7934615
0.792298
0.7913583
0.7906813
0.7902854
0.7901593
0.7902572
0.7904686
0.7906305
0.7902814
0.7899491
0.7894757
0.788707
0.7866962
0.7976564
0.7962909
0.7950155
0.7939022
0.7930044
0.7923596
0.7919863
0.7918802
0.7919984
0.7922487
0.7924465
0.7921609
0.7918689
0.7915893
0.7911702
0.790647
0.7876279
0.7990981
0.797789
0.7965753
0.7955196
0.7946708
0.7940653
0.7937264
0.7936601
0.7938456
0.7942062
0.7945577
0.7943787
0.7942039
0.7940046
0.793801
0.7936147
0.7922475
0.7892927
0.800509
0.799258
0.798107
0.7971091
0.7963085
0.7957419
0.7954389
0.7954232
0.7957098
0.7962883
0.7970027
0.7970534
0.7970423
0.7969852
0.7968708
0.7968839
0.7959562
0.7947531
0.7919404
0.8018588
0.8006593
0.7995619
0.7986113
0.7978489
0.7973113
0.7970331
0.7970542
0.7974397
0.7983349
0.8001352
0.8005376
0.800692
0.8007122
0.800677
0.8007495
0.800093
0.7993736
0.7984062
0.7958848
0.8066864
0.8060294
0.8055779
0.8052779
0.8051087
0.8052153
0.8046803
0.80424
0.8037803
0.8031124
0.8011101
0.8109091
0.8101938
0.809648
0.8092722
0.809079
0.8092031
0.8087647
0.8084137
0.8081845
0.8079765
0.8076497
0.8061141
0.8139734
0.813292
0.8127582
0.812388
0.8122004
0.8123335
0.8119299
0.8116231
0.8114232
0.8113665
0.8114097
0.8113256
0.8100797
0.8161666
0.8155116
0.814994
0.8146305
0.8144423
0.8145578
0.8141589
0.8138385
0.8136248
0.8135317
0.8136399
0.8138337
0.8138454
0.8127698
0.8176077
0.8169603
0.8164426
0.8160704
0.8158623
0.815941
0.8155161
0.8151588
0.8148847
0.814723
0.8147299
0.8149119
0.8151218
0.815151
0.8141223
0.794508
0.790502
0.7889819
0.7875808
0.7863632
0.7853933
0.7847303
0.7844422
0.7845797
0.7852748
0.7866116
0.7890953
0.7875814
0.7919996
0.7905054
0.789123
0.7879212
0.7869609
0.786298
0.7859779
0.7860522
0.7865298
0.7874409
0.7884449
0.7882406
0.7860799
0.7934232
0.7919493
0.7905774
0.7893815
0.7884224
0.7877475
0.7873935
0.7873708
0.7876741
0.7881945
0.7887406
0.7885011
0.7879229
0.7855917
0.7948167
0.7933675
0.7920113
0.790826
0.7898711
0.7891899
0.7888053
0.7887186
0.7888828
0.7892088
0.7894761
0.7892104
0.7887997
0.7880704
0.7857534
0.7962079
0.7947909
0.7934615
0.792298
0.7913583
0.7906813
0.7902854
0.7901593
0.7902572
0.7904686
0.7906305
0.7902814
0.7899491
0.7894757
0.788707
0.7866962
0.7976085
0.7962322
0.7949422
0.7938139
0.7929022
0.7922435
0.7918533
0.7917212
0.7917962
0.791981
0.7921005
0.7917542
0.7914022
0.7910652
0.7905929
0.7900275
0.7870133
0.7990172
0.797689
0.7964497
0.7953683
0.7944961
0.7938676
0.7935
0.7933864
0.7934865
0.7937042
0.7938708
0.7935573
0.793257
0.7929443
0.7926404
0.7923657
0.7909168
0.7879439
0.8004206
0.7991459
0.7979648
0.796938
0.7961119
0.795521
0.7951865
0.7951131
0.7952778
0.7956078
0.7959179
0.7957177
0.795503
0.7952805
0.7950267
0.7949181
0.7938601
0.7925175
0.7896068
0.8017959
0.8005761
0.7994548
0.7984827
0.7977025
0.7971487
0.7968491
0.796825
0.7970899
0.7976303
0.7982957
0.7983112
0.7982641
0.7981526
0.7979976
0.7979322
0.7971136
0.7962023
0.7950225
0.7922504
0.8031127
0.8019423
0.8008716
0.7999447
0.7992007
0.7986746
0.798399
0.7984115
0.7987734
0.799623
0.801336
0.8016937
0.8018003
0.8017724
0.8016701
0.8016757
0.800964
0.8003199
0.7996163
0.7986709
0.7962485
0.8076819
0.8070132
0.8065379
0.8061973
0.8059753
0.8059942
0.8054059
0.804882
0.8044549
0.8040116
0.8034186
0.8014626
0.8117922
0.8110662
0.8104984
0.8100885
0.8098419
0.8098897
0.8093776
0.8089492
0.8086097
0.808394
0.8082499
0.807954
0.8063712
0.8147888
0.8140954
0.8135408
0.8131376
0.8129029
0.8129629
0.8124975
0.8121027
0.811806
0.8116176
0.811618
0.811685
0.8115527
0.8102495
0.8169444
0.8162778
0.8157406
0.8153476
0.8151164
0.815169
0.8147137
0.8143229
0.8140114
0.8138078
0.8137669
0.8138949
0.814041
0.8139977
0.8128551
0.8183715
0.8177138
0.8171791
0.816781
0.8165363
0.8165601
0.8160903
0.8156728
0.8153236
0.8150584
0.8149454
0.8149695
0.8151049
0.8152617
0.8152284
0.8005075
0.79761
0.7951233
0.7920774
0.7906094
0.789258
0.7880846
0.7871484
0.7865076
0.7862169
0.7863532
0.7869995
0.7884115
0.7910575
0.7915054
0.7897974
0.7935261
0.7920807
0.7907451
0.7895846
0.788657
0.7880123
0.7876975
0.7877472
0.788205
0.789046
0.7901257
0.7902496
0.7899858
0.7878788
0.7949053
0.7934775
0.7921499
0.7909936
0.7900653
0.7894102
0.7890584
0.7890259
0.7892888
0.789782
0.7902698
0.7901734
0.7899296
0.7893514
0.7871006
0.7962573
0.7948514
0.7935372
0.7923893
0.7914642
0.7908016
0.7904234
0.7903245
0.7904678
0.7907482
0.7909935
0.79071
0.7904439
0.7900351
0.7893221
0.7873107
0.7976085
0.7962322
0.7949422
0.7938139
0.7929022
0.7922435
0.7918533
0.7917212
0.7917962
0.791981
0.7921005
0.7917542
0.7914022
0.7910652
0.7905929
0.7900275
0.7870133
0.7989706
0.7976321
0.7963788
0.7952829
0.7943972
0.7937555
0.7933717
0.7932332
0.7932919
0.7934473
0.7935396
0.7931695
0.7928141
0.7924497
0.792099
0.7917827
0.7902965
0.7873295
0.800342
0.7990488
0.797843
0.7967914
0.7959427
0.7953297
0.7949676
0.7948487
0.7949315
0.7951247
0.7952587
0.7949317
0.7946001
0.7942739
0.7939304
0.7937456
0.7926091
0.7911855
0.7882589
0.8017099
0.8004671
0.7993167
0.7983167
0.7975119
0.7969346
0.7966046
0.7965249
0.7966726
0.7969741
0.7972523
0.7970296
0.7967914
0.7965271
0.7962469
0.796074
0.7951453
0.7941043
0.7927862
0.7899195
0.8030514
0.8018613
0.8007674
0.7998197
0.7990585
0.7985168
0.7982205
0.7981894
0.7984349
0.7989425
0.7995635
0.799553
0.7994713
0.7993243
0.7991155
0.799001
0.7981476
0.7973417
0.7964467
0.7952901
0.7926231
0.8043378
0.803194
0.8021489
0.8012439
0.8005173
0.800002
0.7997292
0.7997341
0.8000749
0.8008832
0.8025187
0.8028368
0.8029068
0.8028355
0.8026872
0.8026198
0.8018785
0.801177
0.8005453
0.7998576
0.7989893
0.7966209
0.8086729
0.8079971
0.8075027
0.8071328
0.8068654
0.8068209
0.8061755
0.8055969
0.8050841
0.8046702
0.804292
0.8037321
0.8017311
0.8126774
0.8119441
0.8113601
0.8109225
0.8106358
0.8106188
0.8100564
0.8095533
0.8091349
0.8088069
0.808649
0.8085296
0.8081855
0.806546
0.8156088
0.8149069
0.8143359
0.8139068
0.8136335
0.8136356
0.81312
0.8126627
0.8122769
0.8119903
0.8118546
0.8118751
0.8118943
0.8117069
0.8103364
0.8177278
0.8170522
0.8164995
0.8160823
0.8158164
0.8158164
0.8153189
0.8148709
0.8144882
0.8141857
0.814031
0.8140074
0.8140887
0.8141816
0.8140756
0.81914
0.8184746
0.8179259
0.8175067
0.8172314
0.8172097
0.816704
0.8162409
0.8158308
0.8154897
0.8152704
0.8151727
0.8151515
0.8152358
0.8153332
0.8046579
0.8029196
0.8008056
0.7989621
0.7981401
0.7960405
0.7936013
0.792181
0.790875
0.7897417
0.7888369
0.7882131
0.7879259
0.7880342
0.7886494
0.7899607
0.792569
0.7932861
0.7933924
0.7916122
0.7950049
0.7936044
0.7923117
0.7911891
0.7902909
0.7896645
0.78935
0.7893859
0.7897948
0.7905893
0.7915758
0.7918086
0.7918537
0.7915231
0.7894423
0.7963431
0.7949578
0.7936712
0.792551
0.7916514
0.7910137
0.7906667
0.7906194
0.7908564
0.7912945
0.7917463
0.7916179
0.7915012
0.7912338
0.7906422
0.7886598
0.7976564
0.7962909
0.7950155
0.7939022
0.7930044
0.7923596
0.7919863
0.7918802
0.7919984
0.7922487
0.7924465
0.7921609
0.7918689
0.7915893
0.7911702
0.790647
0.7876279
0.7989706
0.7976321
0.7963788
0.7952829
0.7943972
0.7937555
0.7933717
0.7932332
0.7932919
0.7934473
0.7935396
0.7931695
0.7928141
0.7924497
0.792099
0.7917827
0.7902965
0.7873295
0.8002967
0.7989935
0.7977742
0.7967087
0.795847
0.7952212
0.7948435
0.7947007
0.7947439
0.7948774
0.7949408
0.7945606
0.7941777
0.7938044
0.7934191
0.7931983
0.7920251
0.7905646
0.7876449
0.8016334
0.8003726
0.7991983
0.7981744
0.7973478
0.7967492
0.7963926
0.7962692
0.796338
0.7965083
0.7966181
0.7962753
0.7959275
0.7955672
0.7952061
0.794966
0.7939706
0.7928515
0.7914533
0.7885728
0.8029675
0.8017552
0.8006331
0.7996584
0.7988733
0.798309
0.7979834
0.7978986
0.798031
0.7983087
0.7985577
0.7983203
0.7980584
0.7977692
0.797446
0.7972367
0.796287
0.7953712
0.7943472
0.7930536
0.7902961
0.8042781
0.8031151
0.8020475
0.8011223
0.800379
0.7998486
0.7995559
0.7995186
0.7997469
0.8002249
0.8008076
0.8007741
0.8006675
0.8004872
0.8002437
0.8000693
0.7992047
0.7983617
0.7975683
0.7966896
0.795612
0.7930049
0.8055349
0.8044172
0.8033954
0.8025114
0.8018008
0.8012959
0.8010258
0.8010241
0.8013458
0.8021168
0.8036821
0.8039668
0.8040049
0.8039012
0.8037118
0.8035937
0.8028126
0.8020801
0.8013887
0.8007693
0.8001477
0.7993152
0.7969047
0.8096578
0.8089774
0.8084692
0.8080753
0.8077745
0.8076754
0.806994
0.8063572
0.8057882
0.8052865
0.8049311
0.8045789
0.8039707
0.8019138
0.8135621
0.8128243
0.812228
0.8117691
0.8114494
0.811382
0.8107786
0.8102243
0.8097301
0.8093217
0.809047
0.8089098
0.8087423
0.8083428
0.8066355
0.8164314
0.8157233
0.8151396
0.8146896
0.8143852
0.814339
0.8137866
0.8132783
0.8128291
0.8124525
0.812215
0.8120969
0.8120706
0.8120364
0.8117857
0.8185144
0.8178324
0.8172671
0.8168303
0.8165355
0.8164919
0.8159607
0.81547
0.8150294
0.8146548
0.8143983
0.814259
0.8141901
0.8142201
0.8142534
0.8199117
0.8192401
0.8186804
0.8182435
0.8179427
0.8178824
0.8173486
0.8168491
0.8163928
0.8159901
0.8156924
0.815487
0.8153454
0.8152748
0.8153025
0.8073495
0.8066232
0.8048909
0.8038991
0.8031838
0.8013609
0.799967
0.7994505
0.7989358
0.7971078
0.7950776
0.7937013
0.792437
0.7913404
0.790464
0.7898575
0.7895692
0.7896605
0.7902188
0.7914566
0.7938815
0.7946511
0.7950264
0.7949492
0.7931458
0.7964396
0.7950806
0.7938274
0.7927397
0.7918688
0.7912586
0.7909472
0.7909651
0.7913408
0.7920643
0.7929854
0.7931609
0.793303
0.7932626
0.792866
0.7909985
0.7977397
0.796394
0.7951451
0.7940584
0.7931851
0.7925641
0.7922208
0.7921639
0.7923714
0.7927717
0.7931643
0.7930224
0.7928666
0.7927124
0.7924077
0.7919762
0.788977
0.7990172
0.797689
0.7964497
0.7953683
0.7944961
0.7938676
0.7935
0.7933864
0.7934865
0.7937042
0.7938708
0.7935573
0.793257
0.7929443
0.7926404
0.7923657
0.7909168
0.7879439
0.8002967
0.7989935
0.7977742
0.7967087
0.795847
0.7952212
0.7948435
0.7947007
0.7947439
0.7948774
0.7949408
0.7945606
0.7941777
0.7938044
0.7934191
0.7931983
0.7920251
0.7905646
0.7876449
0.8015893
0.8003189
0.7991315
0.798094
0.7972549
0.7966441
0.7962725
0.7961259
0.7961567
0.7962699
0.7963123
0.7959191
0.7955233
0.7951194
0.7947206
0.794449
0.7934222
0.7922666
0.7908319
0.7879593
0.802893
0.8016632
0.800518
0.7995201
0.798714
0.7981292
0.7977778
0.7976509
0.7977073
0.7978587
0.7979464
0.7975947
0.7972293
0.7968508
0.7964534
0.7961845
0.7951768
0.7941946
0.7930929
0.79172
0.7889514
0.8041963
0.8030116
0.8019167
0.8009653
0.800199
0.7996468
0.7993256
0.7992364
0.7993555
0.7996118
0.7998365
0.7995861
0.7993086
0.7989951
0.7986465
0.7983866
0.7974379
0.7964988
0.795596
0.7945888
0.7933756
0.7906819
0.8054766
0.8043402
0.8032965
0.802393
0.8016662
0.8011468
0.8008573
0.8008147
0.8010275
0.8014792
0.8020275
0.8019756
0.8018472
0.8016432
0.8013678
0.801154
0.800263
0.7994071
0.7985742
0.7977933
0.7969815
0.7959415
0.7932958
0.8067072
0.8056124
0.8046136
0.8037486
0.8030536
0.8025583
0.802291
0.8022833
0.8025877
0.8033248
0.8048263
0.8050816
0.8050936
0.8049622
0.8047427
0.80458
0.8037778
0.8030042
0.8022803
0.8015991
0.8010387
0.8004445
0.7995632
0.7970977
0.8106351
0.8099525
0.8094336
0.8090215
0.808693
0.8085523
0.8078412
0.8071675
0.8065391
0.8059797
0.8055319
0.805198
0.8047971
0.8041328
0.8020074
0.8144449
0.8137045
0.8130991
0.8126232
0.8122774
0.8121678
0.8115355
0.8109394
0.8103931
0.8099079
0.8095492
0.8092925
0.809108
0.8088867
0.8084232
0.8172547
0.8165425
0.8159488
0.815482
0.815152
0.815066
0.8144844
0.8139388
0.8134379
0.8129969
0.8126665
0.8124447
0.812281
0.8122031
0.8121089
0.8193031
0.8186161
0.8180409
0.8175877
0.817269
0.8171884
0.8166312
0.8161062
0.8156223
0.8151892
0.8148581
0.8146156
0.8144323
0.8143139
0.8142872
0.8206852
0.8200091
0.8194401
0.8189887
0.8186662
0.8185729
0.8180166
0.8174886
0.8169954
0.816546
0.8161845
0.8158995
0.8156515
0.8154623
0.8153377
0.8086818
0.809036
0.8075653
0.8073466
0.8068339
0.8053492
0.8045907
0.8041423
0.8036778
0.8021304
0.8008621
0.8004224
0.8001825
0.7998689
0.7982524
0.79651
0.7951743
0.7939485
0.7928857
0.7920356
0.7914444
0.791158
0.7912289
0.7917466
0.7928914
0.7951726
0.7958443
0.7962751
0.7964578
0.7962762
0.7946636
0.7978333
0.7965129
0.7952963
0.7942408
0.793395
0.7928003
0.7924911
0.7924967
0.7928366
0.7935084
0.7943457
0.7944866
0.7945676
0.7946139
0.7944885
0.7942091
0.7913145
0.7990981
0.797789
0.7965753
0.7955196
0.7946708
0.7940653
0.7937264
0.7936601
0.7938456
0.7942062
0.7945577
0.7943787
0.7942039
0.7940046
0.793801
0.7936147
0.7922475
0.7892927
0.800342
0.7990488
0.797843
0.7967914
0.7959427
0.7953297
0.7949676
0.7948487
0.7949315
0.7951247
0.7952587
0.7949317
0.7946001
0.7942739
0.7939304
0.7937456
0.7926091
0.7911855
0.7882589
0.8015893
0.8003189
0.7991315
0.798094
0.7972549
0.7966441
0.7962725
0.7961259
0.7961567
0.7962699
0.7963123
0.7959191
0.7955233
0.7951194
0.7947206
0.794449
0.7934222
0.7922666
0.7908319
0.7879593
0.80285
0.8016109
0.8004529
0.799442
0.7986238
0.7980271
0.7976613
0.7975121
0.7975319
0.7976285
0.7976516
0.7972521
0.7968415
0.7964223
0.7959904
0.7956935
0.7946587
0.7936453
0.7925072
0.7910983
0.7883388
0.8041236
0.802922
0.8018046
0.8008308
0.8000441
0.799472
0.799126