/*--------------------------------*- C++ -*----------------------------------*\
| =========                 |                                                 |
| \\      /  F ield         | OpenFOAM: The Open Source CFD Toolbox           |
|  \\    /   O peration     | Version:  2306                                  |
|   \\  /    A nd           | Website:  www.openfoam.com                      |
|    \\/     M anipulation  |                                                 |
\*---------------------------------------------------------------------------*/
FoamFile
{
    version     2.0;
    format      ascii;
    arch        "LSB;label=32;scalar=64";
    class       volScalarField;
    location    "0.6/air";
    object      nernst;
}
// * * * * * * * * * * * * * * * * * * * * * * * * * * * * * * * * * * * * * //

dimensions      [1 2 -3 0 0 -1 0];

internalField   nonuniform List<scalar> 
16000
(
-0.673884
-0.6668601
-0.6821924
-0.6667475
-0.6630177
-0.6803659
-0.6498025
-0.6844202
-0.6803577
-0.662813
-0.6608525
-0.6787884
-0.6393724
-0.6836428
-0.6749865
-0.6392179
-0.6862974
-0.683697
-0.678787
-0.6605428
-0.6598504
-0.6776309
-0.6331692
-0.6829409
-0.6702941
-0.6236348
-0.6859122
-0.6814311
-0.6702573
-0.6327579
-0.6879855
-0.6859886
-0.6830681
-0.6776438
-0.6594099
-0.6598504
-0.6770189
-0.6302456
-0.682403
-0.6668292
-0.6139539
-0.6855691
-0.6793615
-0.6626826
-0.6135974
-0.6877635
-0.6849096
-0.6794264
-0.6667115
-0.6294265
-0.689536
-0.6878446
-0.6857409
-0.6826262
-0.677057
-0.6592398
-0.6865934
-0.6608525
-0.6770189
-0.6302456
-0.6821103
-0.6649911
-0.6092776
-0.6853071
-0.6777637
-0.6570259
-0.6013424
-0.6875707
-0.6839322
-0.6760499
-0.6568827
-0.6082799
-0.6893871
-0.6872559
-0.6840338
-0.6779032
-0.664749
-0.6288482
-0.6909732
-0.6894658
-0.6877516
-0.6856038
-0.6824597
-0.6771107
-0.6600304
-0.6863828
-0.6883364
-0.6876199
-0.6630177
-0.6776309
-0.6331692
-0.6821103
-0.6649911
-0.6092776
-0.6851646
-0.6768909
-0.6540068
-0.595322
-0.6874261
-0.6831794
-0.6734146
-0.6494681
-0.594537
-0.6892608
-0.6867347
-0.6824614
-0.6734724
-0.6536045
-0.6073119
-0.6908581
-0.6890927
-0.6868463
-0.6834177
-0.6771269
-0.6646167
-0.6310093
-0.6923145
-0.6909322
-0.6894369
-0.6877378
-0.6856235
-0.6826306
-0.6778385
-0.6619432
-0.6859532
-0.6881761
-0.6873906
-0.689936
-0.6892822
-0.6886801
-0.6668601
-0.6787884
-0.6393724
-0.682403
-0.6668292
-0.6139539
-0.6851646
-0.6768909
-0.6540068
-0.595322
-0.6873483
-0.6827677
-0.6719664
-0.6454876
-0.5877225
-0.6891678
-0.6863409
-0.6812348
-0.6699824
-0.6451446
-0.5932652
-0.6907621
-0.6887705
-0.6860302
-0.6813761
-0.6720855
-0.6532776
-0.6106945
-0.6922169
-0.6906559
-0.6888808
-0.6866072
-0.6831923
-0.6772788
-0.6663935
-0.6362414
-0.693572
-0.6922858
-0.6909287
-0.6894719
-0.6878289
-0.6858337
-0.6831641
-0.6792284
-0.6654383
-0.6852635
-0.6878577
-0.6869105
-0.6897937
-0.6891224
-0.6884359
-0.6913992
-0.6907739
-0.6902536
-0.6897772
-0.673884
-0.6803659
-0.6498025
-0.6829409
-0.6702941
-0.6236348
-0.6853071
-0.6777637
-0.6570259
-0.6013424
-0.6873483
-0.6827677
-0.6719664
-0.6454876
-0.5877225
-0.6891183
-0.6861282
-0.680559
-0.6680542
-0.6405851
-0.5862852
-0.6906924
-0.6885326
-0.6854056
-0.6797658
-0.6680902
-0.644653
-0.5975547
-0.692136
-0.6904223
-0.6883922
-0.685573
-0.6808983
-0.6721972
-0.656021
-0.6187749
-0.6934845
-0.6920571
-0.6905273
-0.6887978
-0.686606
-0.6834518
-0.6784162
-0.6699875
-0.645411
-0.6947553
-0.6935486
-0.6922922
-0.690981
-0.6895876
-0.6880442
-0.6862518
-0.6840552
-0.6812562
-0.6718121
-0.684051
-0.6873847
-0.6860971
-0.6895127
-0.6888064
-0.6879189
-0.6912678
-0.6906372
-0.6900941
-0.689523
-0.6927577
-0.6921361
-0.6916338
-0.6912512
-0.6909122
-0.6821924
-0.6667475
-0.6836428
-0.6749865
-0.6392179
-0.6855691
-0.6793615
-0.6626826
-0.6135974
-0.6874261
-0.6831794
-0.6734146
-0.6494681
-0.594537
-0.6891183
-0.6861282
-0.680559
-0.6680542
-0.6405851
-0.5862852
-0.6906557
-0.688406
-0.6850655
-0.6788728
-0.6658751
-0.6399988
-0.5910561
-0.6920777
-0.6902534
-0.6880272
-0.6847717
-0.679074
-0.6681568
-0.6481446
-0.6076943
-0.693412
-0.691866
-0.6901829
-0.6881969
-0.685473
-0.6811848
-0.673889
-0.6616294
-0.6324084
-0.6946745
-0.6933457
-0.6919649
-0.6905068
-0.688883
-0.6868921
-0.684233
-0.6804737
-0.6751641
-0.6605494
-0.6958718
-0.6947345
-0.6935585
-0.6923496
-0.6911019
-0.6897969
-0.6883973
-0.686887
-0.6853115
-0.6840077
-0.6794761
-0.6867825
-0.6846153
-0.6891038
-0.6883459
-0.6870362
-0.691009
-0.6903721
-0.6897796
-0.6889845
-0.6926341
-0.6920118
-0.6915016
-0.6910917
-0.6906531
-0.6940376
-0.6934072
-0.6928929
-0.6925152
-0.6922743
-0.6916205
-0.6844202
-0.6803577
-0.662813
-0.6859122
-0.6814311
-0.6702573
-0.6327579
-0.6875707
-0.6839322
-0.6760499
-0.6568827
-0.6082799
-0.6891678
-0.6863409
-0.6812348
-0.6699824
-0.6451446
-0.5932652
-0.6906557
-0.688406
-0.6850655
-0.6788728
-0.6658751
-0.6399988
-0.5910561
-0.6920472
-0.6901648
-0.6878315
-0.6843321
-0.6780572
-0.6659128
-0.643899
-0.6022731
-0.69336
-0.6917296
-0.6899314
-0.6877424
-0.6845858
-0.6793701
-0.6702816
-0.6553013
-0.6243723
-0.6946076
-0.6931772
-0.6916881
-0.6900945
-0.688246
-0.6858088
-0.6822832
-0.6770064
-0.6695844
-0.6534609
-0.6957962
-0.694548
-0.6932702
-0.6919688
-0.6906211
-0.6891665
-0.687492
-0.6855202
-0.6833084
-0.6815837
-0.6750055
-0.6969278
-0.6958524
-0.6947453
-0.693616
-0.6924687
-0.6913013
-0.6901111
-0.688904
-0.6877788
-0.6871075
-0.68655
-0.6810671
-0.688639
-0.6877904
-0.6855083
-0.6906346
-0.6900067
-0.6893248
-0.6880775
-0.6923905
-0.6917722
-0.6912484
-0.6907771
-0.6901069
-0.6939201
-0.6932908
-0.6927743
-0.6923863
-0.6921146
-0.6913615
-0.6952456
-0.6946131
-0.6940753
-0.6936691
-0.6934171
-0.6929098
-0.6917125
-0.6862974
-0.683697
-0.678787
-0.6605428
-0.6877635
-0.6849096
-0.6794264
-0.6667115
-0.6294265
-0.6892608
-0.6867347
-0.6824614
-0.6734724
-0.6536045
-0.6073119
-0.6906924
-0.6885326
-0.6854056
-0.6797658
-0.6680902
-0.644653
-0.5975547
-0.6920472
-0.6901648
-0.6878315
-0.6843321
-0.6780572
-0.6659128
-0.643899
-0.6022731
-0.6933328
-0.6916588
-0.6897988
-0.6874969
-0.684096
-0.6783549
-0.6682766
-0.6518976
-0.6204914
-0.6945595
-0.6930578
-0.6914892
-0.6897904
-0.6877584
-0.6849507
-0.680708
-0.6742245
-0.6653437
-0.6491021
-0.6957334
-0.6943935
-0.6930283
-0.6916433
-0.6901973
-0.6885842
-0.6866114
-0.6841286
-0.6812046
-0.6790766
-0.6715616
-0.6968566
-0.6956781
-0.6944811
-0.6932829
-0.6920897
-0.6908913
-0.6896693
-0.6884154
-0.6872805
-0.6867987
-0.6857228
-0.6774114
-0.6979286
-0.6969096
-0.6958634
-0.6948013
-0.6937307
-0.6926578
-0.6915891
-0.690548
-0.6896159
-0.6891378
-0.6891423
-0.6873783
-0.6826735
-0.6902245
-0.6896566
-0.6887793
-0.6866089
-0.6920383
-0.6914486
-0.6909088
-0.6903215
-0.689207
-0.6936884
-0.6930668
-0.6925495
-0.6921398
-0.6917983
-0.6908177
-0.6951331
-0.6945025
-0.6939648
-0.6935546
-0.6932898
-0.69275
-0.6914536
-0.69639
-0.6957587
-0.6952061
-0.6947613
-0.6944633
-0.6939799
-0.6929928
-0.6918049
-0.6879855
-0.6859886
-0.6830681
-0.6776438
-0.6594099
-0.6893871
-0.6872559
-0.6840338
-0.6779032
-0.664749
-0.6288482
-0.6907621
-0.6887705
-0.6860302
-0.6813761
-0.6720855
-0.6532776
-0.6106945
-0.6920777
-0.6902534
-0.6880272
-0.6847717
-0.679074
-0.6681568
-0.6481446
-0.6076943
-0.6933328
-0.6916588
-0.6897988
-0.6874969
-0.684096
-0.6783549
-0.6682766
-0.6518976
-0.6204914
-0.6945344
-0.692996
-0.6913855
-0.689629
-0.687493
-0.6844737
-0.6798228
-0.6726745
-0.6630621
-0.6469974
-0.6956883
-0.6942843
-0.6928559
-0.6914074
-0.6898811
-0.6881309
-0.6858982
-0.6829737
-0.6794628
-0.6770958
-0.6692685
-0.6967972
-0.6955336
-0.6942601
-0.6930008
-0.6917618
-0.6905207
-0.6892347
-0.6878647
-0.6865762
-0.6860637
-0.6847177
-0.6744789
-0.6978611
-0.6967452
-0.6956165
-0.6944967
-0.6934019
-0.6923446
-0.6913356
-0.6904105
-0.6896805
-0.6895316
-0.6892039
-0.6866431
-0.6796916
-0.6988783
-0.6979113
-0.6969205
-0.6959175
-0.6949113
-0.6939102
-0.6929261
-0.6919828
-0.6911604
-0.690744
-0.6908843
-0.689837
-0.6882697
-0.6843016
-0.6916538
-0.6911685
-0.6905917
-0.6897675
-0.6878412
-0.6933529
-0.6927655
-0.6922573
-0.6918097
-0.6913365
-0.6899327
-0.6949111
-0.6942897
-0.693756
-0.6933388
-0.6930454
-0.6924326
-0.6909103
-0.6962819
-0.6956529
-0.6951015
-0.6946552
-0.6943511
-0.6938528
-0.6928329
-0.6915462
-0.6974755
-0.6968509
-0.6962887
-0.6958162
-0.695464
-0.6949632
-0.694054
-0.693076
-0.6918979
-0.689536
-0.6878446
-0.6857409
-0.6826262
-0.677057
-0.6592398
-0.6908581
-0.6890927
-0.6868463
-0.6834177
-0.6771269
-0.6646167
-0.6310093
-0.692136
-0.6904223
-0.6883922
-0.685573
-0.6808983
-0.6721972
-0.656021
-0.6187749
-0.69336
-0.6917296
-0.6899314
-0.6877424
-0.6845858
-0.6793701
-0.6702816
-0.6553013
-0.6243723
-0.6945344
-0.692996
-0.6913855
-0.689629
-0.687493
-0.6844737
-0.6798228
-0.6726745
-0.6630621
-0.6469974
-0.6956647
-0.6942279
-0.6927667
-0.6912838
-0.6897118
-0.6878816
-0.6854973
-0.682317
-0.6784811
-0.6760149
-0.6681264
-0.6967544
-0.6954316
-0.6941032
-0.6927985
-0.6915217
-0.6902383
-0.6888821
-0.6873853
-0.6859249
-0.6853569
-0.6838744
-0.6724888
-0.6978047
-0.6966088
-0.69541
-0.6942397
-0.6931203
-0.6920661
-0.6910838
-0.6902011
-0.6895217
-0.6894621
-0.6890089
-0.6857994
-0.6772311
-0.6988143
-0.6977556
-0.6966875
-0.6956327
-0.6946111
-0.6936417
-0.6927494
-0.6919756
-0.6914262
-0.6913563
-0.6912208
-0.6898278
-0.6875928
-0.6818806
-0.6997808
-0.698862
-0.6979221
-0.6969726
-0.6960228
-0.6950822
-0.6941628
-0.6932901
-0.6925335
-0.6921475
-0.6922913
-0.691495
-0.6905676
-0.689198
-0.6859441
-0.6929828
-0.6925095
-0.6920172
-0.6914827
-0.6907621
-0.6886303
-0.6945888
-0.6940027
-0.6934867
-0.6930594
-0.6927115
-0.6919661
-0.6900273
-0.6960684
-0.6954488
-0.6949035
-0.694456
-0.6941387
-0.6936075
-0.6925154
-0.6910034
-0.6973712
-0.696749
-0.6961885
-0.6957158
-0.6953604
-0.6948513
-0.6939268
-0.6929161
-0.6916393
-0.6985069
-0.6978922
-0.6973279
-0.6968351
-0.6964421
-0.695911
-0.6950296
-0.6941282
-0.6931595
-0.6919911
-0.6909732
-0.6894658
-0.6877516
-0.6856038
-0.6824597
-0.6771107
-0.6600304
-0.6922169
-0.6906559
-0.6888808
-0.6866072
-0.6831923
-0.6772788
-0.6663935
-0.6362414
-0.693412
-0.691866
-0.6901829
-0.6881969
-0.685473
-0.6811848
-0.673889
-0.6616294
-0.6324084
-0.6945595
-0.6930578
-0.6914892
-0.6897904
-0.6877584
-0.6849507
-0.680708
-0.6742245
-0.6653437
-0.6491021
-0.6956647
-0.6942279
-0.6927667
-0.6912838
-0.6897118
-0.6878816
-0.6854973
-0.682317
-0.6784811
-0.6760149
-0.6681264
-0.696732
-0.6953789
-0.6940222
-0.6926932
-0.691395
-0.6900854
-0.688684
-0.6871071
-0.6855399
-0.6849398
-0.6834026
-0.6714894
-0.6977639
-0.6965124
-0.6952636
-0.6940562
-0.6929164
-0.6918579
-0.6908799
-0.6899986
-0.6893094
-0.6892763
-0.6887675
-0.6850968
-0.6755338
-0.6987605
-0.6976262
-0.6964925
-0.6953926
-0.694355
-0.6934055
-0.692573
-0.6918979
-0.6914759
-0.6915261
-0.6913126
-0.689657
-0.6868725
-0.6798498
-0.6997199
-0.6987142
-0.6977012
-0.6967036
-0.6957418
-0.6948373
-0.6940169
-0.6933258
-0.6928524
-0.6928001
-0.6926943
-0.6917117
-0.6904816
-0.6885606
-0.6839991
-0.7006392
-0.6997655
-0.6988728
-0.6979724
-0.6970737
-0.696186
-0.6953217
-0.6945041
-0.6937975
-0.6934247
-0.6935439
-0.692841
-0.6921275
-0.6913134
-0.6901442
-0.6869149
-0.694228
-0.6937544
-0.6932727
-0.6928121
-0.6923506
-0.6913782
-0.6887324
-0.6957574
-0.695172
-0.6946475
-0.6942007
-0.6938575
-0.6932672
-0.6920485
-0.6901225
-0.697165
-0.6965523
-0.6959986
-0.6955274
-0.6951652
-0.6946383
-0.6936814
-0.6925985
-0.6910972
-0.6984061
-0.6977939
-0.6972314
-0.696739
-0.6963442
-0.6958077
-0.6949177
-0.6940011
-0.6929996
-0.6917328
-0.6994881
-0.6988865
-0.6983247
-0.6978207
-0.6973965
-0.6968447
-0.695971
-0.6950962
-0.6942028
-0.6932433
-0.6920888
-0.6923145
-0.6909322
-0.6894369
-0.6877378
-0.6856235
-0.6826306
-0.6778385
-0.6619432
-0.6934845
-0.6920571
-0.6905273
-0.6887978
-0.686606
-0.6834518
-0.6784162
-0.6699875
-0.645411
-0.6946076
-0.6931772
-0.6916881
-0.6900945
-0.688246
-0.6858088
-0.6822832
-0.6770064
-0.6695844
-0.6534609
-0.6956883
-0.6942843
-0.6928559
-0.6914074
-0.6898811
-0.6881309
-0.6858982
-0.6829737
-0.6794628
-0.6770958
-0.6692685
-0.696732
-0.6953789
-0.6940222
-0.6926932
-0.691395
-0.6900854
-0.688684
-0.6871071
-0.6855399
-0.6849398
-0.6834026
-0.6714894
-0.6977426
-0.6964627
-0.6951881
-0.6939611
-0.6928097
-0.6917465
-0.6907659
-0.6898763
-0.6891702
-0.6891447
-0.6886142
-0.6847039
-0.6746747
-0.6987216
-0.6975347
-0.6963544
-0.6952216
-0.6941707
-0.693231
-0.692431
-0.6918049
-0.6914369
-0.6915395
-0.6913017
-0.6894587
-0.6862845
-0.6784312
-0.6996686
-0.6985911
-0.6975163
-0.6964769
-0.6955025
-0.6946229
-0.6938717
-0.693296
-0.6929709
-0.6930455
-0.6928789
-0.6917769
-0.6903137
-0.6879366
-0.6823598
-0.7005812
-0.699625
-0.698663
-0.6977172
-0.6968078
-0.6959559
-0.6951888
-0.6945482
-0.6941145
-0.6940501
-0.6939392
-0.6931135
-0.6922293
-0.6911527
-0.6895341
-0.6851903
-0.7014561
-0.7006249
-0.6997763
-0.6989216
-0.6980698
-0.6972301
-0.6964144
-0.6956446
-0.6949783
-0.6946166
-0.6947011
-0.6940458
-0.6934037
-0.6927654
-0.692061
-0.6907361
-0.6870369
-0.695404
-0.694925
-0.6944411
-0.6939827
-0.6935764
-0.6928825
-0.6914596
-0.688835
-0.6968641
-0.6962838
-0.6957513
-0.6952858
-0.6949097
-0.6943511
-0.6933405
-0.6921312
-0.6902186
-0.6982066
-0.6976035
-0.6970481
-0.6965583
-0.6961601
-0.6956122
-0.6947047
-0.6937555
-0.692682
-0.6911914
-0.6993904
-0.6987913
-0.6982314
-0.6977282
-0.6973029
-0.6967473
-0.6958678
-0.6949843
-0.6940756
-0.6930834
-0.6918307
-0.7004225
-0.6998361
-0.6992812
-0.6987723
-0.698328
-0.6977619
-0.6968994
-0.6960313
-0.6951631
-0.6942775
-0.6933312
-0.6921782
-0.693572
-0.6922858
-0.6909287
-0.6894719
-0.6878289
-0.6858337
-0.6831641
-0.6792284
-0.6654383
-0.6946745
-0.6933457
-0.6919649
-0.6905068
-0.688883
-0.6868921
-0.684233
-0.6804737
-0.6751641
-0.6605494
-0.6957334
-0.6943935
-0.6930283
-0.6916433
-0.6901973
-0.6885842
-0.6866114
-0.6841286
-0.6812046
-0.6790766
-0.6715616
-0.6967544
-0.6954316
-0.6941032
-0.6927985
-0.6915217
-0.6902383
-0.6888821
-0.6873853
-0.6859249
-0.6853569
-0.6838744
-0.6724888
-0.6977426
-0.6964627
-0.6951881
-0.6939611
-0.6928097
-0.6917465
-0.6907659
-0.6898763
-0.6891702
-0.6891447
-0.6886142
-0.6847039
-0.6746747
-0.6987013
-0.6974875
-0.6962831
-0.695133
-0.6940746
-0.6931384
-0.692352
-0.6917451
-0.6913961
-0.6915206
-0.6912757
-0.6893337
-0.6859578
-0.6777082
-0.6996314
-0.6985041
-0.6973852
-0.6963153
-0.6953305
-0.6944654
-0.6937556
-0.6932448
-0.6929946
-0.6931303
-0.6929503
-0.6917685
-0.6901425
-0.6874436
-0.6812049
-0.7005322
-0.6995078
-0.6984871
-0.6975019
-0.6965813
-0.6957549
-0.6950573
-0.6945326
-0.6942481
-0.6943056
-0.6941438
-0.6932542
-0.6922551
-0.6909752
-0.6889888
-0.6837407
-0.7014009
-0.7004912
-0.6995768
-0.6986789
-0.697817
-0.6970114
-0.6962877
-0.6956852
-0.6952741
-0.6951948
-0.6950632
-0.6943134
-0.6935555
-0.6927618
-0.6918291
-0.6901357
-0.6853355
-0.702234
-0.7014429
-0.7006359
-0.6998238
-0.6990157
-0.6982202
-0.6974487
-0.6967216
-0.6960916
-0.69574
-0.6957943
-0.6951643
-0.6945547
-0.6939666
-0.6933986
-0.6925349
-0.6908156
-0.6871589
-0.6965172
-0.6960365
-0.6955455
-0.6950784
-0.6946616
-0.6940454
-0.6929535
-0.6915411
-0.6889384
-0.6979147
-0.6973423
-0.6968077
-0.6963255
-0.6959194
-0.6953516
-0.6944169
-0.6934139
-0.6922142
-0.6903151
-0.6991969
-0.6986067
-0.6980538
-0.6975538
-0.6971267
-0.696563
-0.6956723
-0.6947711
-0.6938299
-0.6927656
-0.6912901
-0.7003277
-0.6997437
-0.6991909
-0.6986829
-0.6982379
-0.6976688
-0.696802
-0.6959281
-0.6950512
-0.6941503
-0.6931713
-0.6919204
-0.7013133
-0.7007437
-0.7001988
-0.6996907
-0.699234
-0.698662
-0.6978121
-0.6969543
-0.6960918
-0.6952301
-0.6943562
-0.6934116
-0.6922462
-0.6947553
-0.6935486
-0.6922922
-0.690981
-0.6895876
-0.6880442
-0.6862518
-0.6840552
-0.6812562
-0.6718121
-0.6957962
-0.694548
-0.6932702
-0.6919688
-0.6906211
-0.6891665
-0.687492
-0.6855202
-0.6833084
-0.6815837
-0.6750055
-0.6967972
-0.6955336
-0.6942601
-0.6930008
-0.6917618
-0.6905207
-0.6892347
-0.6878647
-0.6865762
-0.6860637
-0.6847177
-0.6744789
-0.6977639
-0.6965124
-0.6952636
-0.6940562
-0.6929164
-0.6918579
-0.6908799
-0.6899986
-0.6893094
-0.6892763
-0.6887675
-0.6850968
-0.6755338
-0.6987013
-0.6974875
-0.6962831
-0.695133
-0.6940746
-0.6931384
-0.692352
-0.6917451
-0.6913961
-0.6915206
-0.6912757
-0.6893337
-0.6859578
-0.6777082
-0.6996119
-0.6984591
-0.6973175
-0.6962317
-0.695241
-0.6943823
-0.6936914
-0.6932094
-0.6929906
-0.6931534
-0.6929717
-0.6917488
-0.690038
-0.687173
-0.6806128
-0.7004966
-0.6994248
-0.6983624
-0.6973485
-0.6964186
-0.6956076
-0.6949527
-0.6944957
-0.6942907
-0.6944095
-0.6942398
-0.6933129
-0.6922394
-0.6908202
-0.6885768
-0.682717
-0.701354
-0.7003796
-0.6994094
-0.698474
-0.6976015
-0.6968203
-0.696163
-0.6956714
-0.6954025
-0.6954373
-0.6952598
-0.6944696
-0.693644
-0.6927424
-0.6916357
-0.689625
-0.6839056
-0.7021813
-0.7013157
-0.7004461
-0.699593
-0.6987749
-0.6980113
-0.6973263
-0.6967554
-0.6963623
-0.6962681
-0.6961178
-0.695406
-0.6947069
-0.6940098
-0.6932983
-0.6922662
-0.6902161
-0.6854801
-0.7029747
-0.7022218
-0.7014541
-0.7006823
-0.699915
-0.6991607
-0.6984302
-0.6977424
-0.6971456
-0.6968055
-0.6968349
-0.6962252
-0.6956299
-0.6950605
-0.6945217
-0.6938046
-0.6926004
-0.6908951
-0.687281
-0.697574
-0.6970946
-0.6966005
-0.6961212
-0.6956864
-0.6950809
-0.6941088
-0.6930245
-0.6916229
-0.6890423
-0.6989133
-0.6983521
-0.6978193
-0.6973275
-0.6968957
-0.6963181
-0.6954111
-0.6944826
-0.6934875
-0.6922974
-0.6904163
-0.7001398
-0.6995644
-0.6990184
-0.6985139
-0.698068
-0.6974926
-0.6966178
-0.6957324
-0.6948379
-0.6939044
-0.6928534
-0.6913806
-0.7012211
-0.700654
-0.7001111
-0.699604
-0.6991469
-0.6985724
-0.6977191
-0.6968569
-0.6959885
-0.6951182
-0.6942289
-0.6932516
-0.6919885
-0.7021631
-0.7016115
-0.7010792
-0.7005759
-0.7001137
-0.6995415
-0.6987085
-0.6978625
-0.6970094
-0.6961524
-0.6953011
-0.6944281
-0.6934721
-0.6922941
-0.6958718
-0.6947345
-0.6935585
-0.6923496
-0.6911019
-0.6897969
-0.6883973
-0.686887
-0.6853115
-0.6840077
-0.6794761
-0.6968566
-0.6956781
-0.6944811
-0.6932829
-0.6920897
-0.6908913
-0.6896693
-0.6884154
-0.6872805
-0.6867987
-0.6857228
-0.6774114
-0.6978047
-0.6966088
-0.69541
-0.6942397
-0.6931203
-0.6920661
-0.6910838
-0.6902011
-0.6895217
-0.6894621
-0.6890089
-0.6857994
-0.6772311
-0.6987216
-0.6975347
-0.6963544
-0.6952216
-0.6941707
-0.693231
-0.692431
-0.6918049
-0.6914369
-0.6915395
-0.6913017
-0.6894587
-0.6862845
-0.6784312
-0.6996119
-0.6984591
-0.6973175
-0.6962317
-0.695241
-0.6943823
-0.6936914
-0.6932094
-0.6929906
-0.6931534
-0.6929717
-0.6917488
-0.690038
-0.687173
-0.6806128
-0.7004779
-0.699382
-0.698298
-0.6972691
-0.696334
-0.69553
-0.6948952
-0.6944692
-0.694299
-0.6944457
-0.6942769
-0.6933318
-0.692221
-0.6907303
-0.6883551
-0.6821909
-0.7013199
-0.7003005
-0.6992905
-0.6983279
-0.6974467
-0.6966803
-0.6960644
-0.6956386
-0.695447
-0.6955407
-0.6953575
-0.6945478
-0.6936833
-0.6927132
-0.6914902
-0.6892503
-0.6828957
-0.7021364
-0.7012093
-0.7002866
-0.6993977
-0.6985695
-0.6978287
-0.6972061
-0.6967394
-0.6964793
-0.6964907
-0.6962978
-0.6955548
-0.694809
-0.6940435
-0.6932324
-0.6920621
-0.6897088
-0.6840698
-0.7029244
-0.7021008
-0.7012735
-0.7004626
-0.6996856
-0.6989611
-0.6983114
-0.6977695
-0.6973922
-0.6972875
-0.6971216
-0.6964366
-0.6957649
-0.6951102
-0.6944665
-0.6936559
-0.6923278
-0.6902964
-0.6856245
-0.7036801
-0.7029636
-0.7022333
-0.7014996
-0.7007708
-0.7000552
-0.699363
-0.6987118
-0.6981465
-0.6978189
-0.69783
-0.6972384
-0.6966551
-0.6960904
-0.695557
-0.6948814
-0.6938619
-0.6926658
-0.6909747
-0.6874029
-0.6985787
-0.6981045
-0.6976105
-0.6971241
-0.69667
-0.6960652
-0.6951382
-0.694172
-0.6930955
-0.6917046
-0.6891505
-0.6998638
-0.699316
-0.6987892
-0.6982933
-0.6978444
-0.6972582
-0.6963724
-0.6954706
-0.6945486
-0.6935611
-0.6923848
-0.690509
-0.7010383
-0.7004795
-0.6999434
-0.6994399
-0.6989824
-0.6984028
-0.6975429
-0.6966726
-0.6957927
-0.6949046
-0.6939828
-0.6929336
-0.6914493
-0.7020733
-0.7015242
-0.7009939
-0.7004917
-0.7000294
-0.6994549
-0.6986189
-0.6977695
-0.696912
-0.6960491
-0.6951891
-0.6943008
-0.693312
-0.6920366
-0.7029742
-0.7024416
-0.7019236
-0.7014285
-0.7009661
-0.7003986
-0.6995847
-0.698755
-0.6979132
-0.6970647
-0.6962169
-0.6953659
-0.6944815
-0.693514
-0.6923206
-0.684051
-0.6969278
-0.6958524
-0.6947453
-0.693616
-0.6924687
-0.6913013
-0.6901111
-0.688904
-0.6877788
-0.6871075
-0.68655
-0.6810671
-0.6978611
-0.6967452
-0.6956165
-0.6944967
-0.6934019
-0.6923446
-0.6913356
-0.6904105
-0.6896805
-0.6895316
-0.6892039
-0.6866431
-0.6796916
-0.6987605
-0.6976262
-0.6964925
-0.6953926
-0.694355
-0.6934055
-0.692573
-0.6918979
-0.6914759
-0.6915261
-0.6913126
-0.689657
-0.6868725
-0.6798498
-0.6996314
-0.6985041
-0.6973852
-0.6963153
-0.6953305
-0.6944654
-0.6937556
-0.6932448
-0.6929946
-0.6931303
-0.6929503
-0.6917685
-0.6901425
-0.6874436
-0.6812049
-0.7004779
-0.699382
-0.698298
-0.6972691
-0.696334
-0.69553
-0.6948952
-0.6944692
-0.694299
-0.6944457
-0.6942769
-0.6933318
-0.692221
-0.6907303
-0.6883551
-0.6821909
-0.701302
-0.7002596
-0.6992291
-0.6982523
-0.6973662
-0.6966067
-0.6960103
-0.6956149
-0.695458
-0.6955788
-0.6953974
-0.6945792
-0.6936963
-0.6926927
-0.691411
-0.6890514
-0.6823765
-0.7021037
-0.7011338
-0.7001733
-0.6992585
-0.6984218
-0.697695
-0.6971114
-0.6967068
-0.69652
-0.6965867
-0.6963893
-0.6956336
-0.6948643
-0.6940595
-0.6931868
-0.6919189
-0.6893378
-0.6830735
-0.7028814
-0.7019994
-0.7011216
-0.7002766
-0.6994897
-0.6987864
-0.6981952
-0.6977505
-0.6974972
-0.6974899
-0.6972834
-0.696571
-0.6958619
-0.6951574
-0.6944465
-0.693565
-0.6921222
-0.6897924
-0.6842335
-0.703632
-0.7028485
-0.7020616
-0.7012906
-0.7005525
-0.6998647
-0.6992482
-0.6987333
-0.6983719
-0.6982603
-0.6980842
-0.6974208
-0.6967687
-0.6961315
-0.6955145
-0.6947775
-0.6937079
-0.6923892
-0.6903767
-0.6857682
-0.7043515
-0.7036701
-0.7029755
-0.7022781
-0.7015858
-0.7009068
-0.7002506
-0.699634
-0.6990985
-0.6987847
-0.698783
-0.6982101
-0.6976382
-0.6970782
-0.6965406
-0.6958819
-0.6949329
-0.693919
-0.6927312
-0.6910541
-0.6875278
-0.6995352
-0.6990691
-0.6985796
-0.69809
-0.6976233
-0.6970153
-0.6961175
-0.6951953
-0.6942353
-0.6931665
-0.6917907
-0.6892497
-0.7007694
-0.7002369
-0.6997192
-0.6992243
-0.698765
-0.6981764
-0.6973081
-0.6964266
-0.6955302
-0.6946145
-0.6936387
-0.6924645
-0.6905798
-0.7018952
-0.7013543
-0.7008306
-0.700332
-0.6998697
-0.6992908
-0.6984493
-0.6975932
-0.6967276
-0.6958531
-0.6949753
-0.6940543
-0.6929938
-0.6914979
-0.7028866
-0.7023565
-0.7018406
-0.7013467
-0.7008842
-0.7003148
-0.6994982
-0.6986655
-0.6978201
-0.6969672
-0.6961136
-0.6952538
-0.6943541
-0.6933538
-0.6920631
-0.7037487
-0.7032356
-0.7027336
-0.7022493
-0.7017907
-0.7012317
-0.7004391
-0.699628
-0.6988018
-0.6979639
-0.6971238
-0.6962757
-0.6954133
-0.6945178
-0.6935361
-0.6852635
-0.6867825
-0.6846153
-0.6979286
-0.6969096
-0.6958634
-0.6948013
-0.6937307
-0.6926578
-0.6915891
-0.690548
-0.6896159
-0.6891378
-0.6891423
-0.6873783
-0.6826735
-0.6988143
-0.6977556
-0.6966875
-0.6956327
-0.6946111
-0.6936417
-0.6927494
-0.6919756
-0.6914262
-0.6913563
-0.6912208
-0.6898278
-0.6875928
-0.6818806
-0.6996686
-0.6985911
-0.6975163
-0.6964769
-0.6955025
-0.6946229
-0.6938717
-0.693296
-0.6929709
-0.6930455
-0.6928789
-0.6917769
-0.6903137
-0.6879366
-0.6823598
-0.7004966
-0.6994248
-0.6983624
-0.6973485
-0.6964186
-0.6956076
-0.6949527
-0.6944957
-0.6942907
-0.6944095
-0.6942398
-0.6933129
-0.6922394
-0.6908202
-0.6885768
-0.682717
-0.701302
-0.7002596
-0.6992291
-0.6982523
-0.6973662
-0.6966067
-0.6960103
-0.6956149
-0.695458
-0.6955788
-0.6953974
-0.6945792
-0.6936963
-0.6926927
-0.691411
-0.6890514
-0.6823765
-0.7020866
-0.7010948
-0.7001147
-0.6991863
-0.698345
-0.6976246
-0.6970595
-0.6966839
-0.6965302
-0.6966227
-0.6964275
-0.695667
-0.6948875
-0.6940646
-0.6931622
-0.6918438
-0.6891412
-0.6825612
-0.7028501
-0.7019273
-0.7010136
-0.7001438
-0.6993488
-0.6986585
-0.6981038
-0.6977174
-0.6975326
-0.6975771
-0.6973665
-0.6966441
-0.6959178
-0.6951873
-0.694438
-0.6935094
-0.691979
-0.689425
-0.6832506
-0.7035909
-0.7027518
-0.7019169
-0.7011134
-0.7003656
-0.6996977
-0.6991359
-0.6987121
-0.698466
-0.6984443
-0.6982292
-0.6975398
-0.6968548
-0.6961769
-0.695509
-0.6947294
-0.6936141
-0.6921821
-0.689876
-0.6843963
-0.7043057
-0.7035606
-0.7028123
-0.7020793
-0.7013781
-0.7007252
-0.7001403
-0.6996514
-0.699306
-0.6991913
-0.6990092
-0.698367
-0.6977312
-0.6971068
-0.696498
-0.6957941
-0.6948238
-0.6937598
-0.6924506
-0.6904569
-0.6859132
-0.7049904
-0.7043427
-0.7036825
-0.7030196
-0.7023622
-0.7017179
-0.7010959
-0.700512
-0.7000052
-0.6997061
-0.6996965
-0.6991428
-0.6985843
-0.69803
-0.6974905
-0.6968379
-0.6959291
-0.6949843
-0.6939761
-0.6927965
-0.691138
-0.6876421
-0.7004466
-0.6999914
-0.6995093
-0.6990216
-0.6985474
-0.6979404
-0.6970635
-0.6961697
-0.6952525
-0.6942984
-0.6932415
-0.6918692
-0.6893265
-0.701633
-0.7011171
-0.7006112
-0.7001212
-0.6996579
-0.6990713
-0.6982226
-0.697358
-0.6964811
-0.6955898
-0.6946843
-0.6937094
-0.6925239
-0.6906301
-0.702713
-0.7021908
-0.7016814
-0.7011912
-0.700729
-0.7001557
-0.6993341
-0.6984958
-0.6976438
-0.6967826
-0.6959173
-0.6950397
-0.6941073
-0.6930352
-0.6915247
-0.7036632
-0.7031527
-0.7026527
-0.7021696
-0.7017111
-0.7011503
-0.7003553
-0.6995415
-0.6987123
-0.6978708
-0.6970263
-0.6961723
-0.6953011
-0.6943901
-0.6933758
-0.7044883
-0.7039954
-0.7035103
-0.7030388
-0.7025874
-0.7020397
-0.7012697
-0.7004796
-0.6996716
-0.6988487
-0.6980184
-0.6971776
-0.6963181
-0.6954447
-0.6945356
-0.6859532
-0.6873847
-0.6860971
-0.688639
-0.6877904
-0.6855083
-0.6988783
-0.6979113
-0.6969205
-0.6959175
-0.6949113
-0.6939102
-0.6929261
-0.6919828
-0.6911604
-0.690744
-0.6908843
-0.689837
-0.6882697
-0.6843016
-0.6997199
-0.6987142
-0.6977012
-0.6967036
-0.6957418
-0.6948373
-0.6940169
-0.6933258
-0.6928524
-0.6928001
-0.6926943
-0.6917117
-0.6904816
-0.6885606
-0.6839991
-0.7005322
-0.6995078
-0.6984871
-0.6975019
-0.6965813
-0.6957549
-0.6950573
-0.6945326
-0.6942481
-0.6943056
-0.6941438
-0.6932542
-0.6922551
-0.6909752
-0.6889888
-0.6837407
-0.7013199
-0.7003005
-0.6992905
-0.6983279
-0.6974467
-0.6966803
-0.6960644
-0.6956386
-0.695447
-0.6955407
-0.6953575
-0.6945478
-0.6936833
-0.6927132
-0.6914902
-0.6892503
-0.6828957
-0.7020866
-0.7010948
-0.7001147
-0.6991863
-0.698345
-0.6976246
-0.6970595
-0.6966839
-0.6965302
-0.6966227
-0.6964275
-0.695667
-0.6948875
-0.6940646
-0.6931622
-0.6918438
-0.6891412
-0.6825612
-0.7028337
-0.70189
-0.7009577
-0.7000749
-0.6992754
-0.6985911
-0.6980538
-0.6976946
-0.6975409
-0.6976098
-0.6974015
-0.6966756
-0.6959426
-0.6952009
-0.6944342
-0.6934819
-0.6919042
-0.6892307
-0.6827451
-0.7035609
-0.7026831
-0.7018139
-0.7009867
-0.7002311
-0.6995752
-0.6990477
-0.6986784
-0.6984964
-0.6985231
-0.6983041
-0.6976053
-0.6969061
-0.6962082
-0.6955132
-0.6947074
-0.6935572
-0.692039
-0.6895122
-0.6834268
-0.7042663
-0.7034685
-0.7026745
-0.7019106
-0.7012001
-0.7005657
-0.7000322
-0.6996286
-0.6993908
-0.6993594
-0.6991395
-0.6984717
-0.6978054
-0.6971453
-0.6964944
-0.6957614
-0.6947724
-0.6936631
-0.6922421
-0.6899593
-0.6845588
-0.7049467
-0.7042386
-0.7035274
-0.7028308
-0.7021648
-0.7015451
-0.7009904
-0.7005267
-0.7001978
-0.700083
-0.699899
-0.6992779
-0.6986591
-0.6980461
-0.6974438
-0.6967544
-0.6958364
-0.6948699
-0.6938118
-0.6925118
-0.6905413
-0.6860457
-0.7055979
-0.7049828
-0.7043555
-0.703726
-0.7031019
-0.7024907
-0.7019013
-0.7013487
-0.7008694
-0.7005858
-0.7005723
-0.7000387
-0.699495
-0.6989496
-0.6984108
-0.6977652
-0.6968816
-0.6959761
-0.6950356
-0.694033
-0.6928662
-0.6912145
-0.687733
-0.701316
-0.7008735
-0.7004017
-0.6999194
-0.6994434
-0.6988407
-0.6979852
-0.6971116
-0.6962219
-0.6953095
-0.6943655
-0.6933097
-0.6919272
-0.6893824
-0.7024569
-0.7019589
-0.7014666
-0.7009849
-0.7005223
-0.6999422
-0.6991143
-0.6982688
-0.697408
-0.6965354
-0.6956532
-0.6947477
-0.6937613
-0.6925646
-0.6906584
-0.7034937
-0.7029909
-0.7024973
-0.7020179
-0.70156
-0.7009957
-0.7001962
-0.6993774
-0.6985426
-0.6976943
-0.6968415
-0.6959758
-0.6950866
-0.6941429
-0.6930567
-0.7044048
-0.7039144
-0.7034314
-0.7029611
-0.7025099
-0.7019606
-0.7011884
-0.7003959
-0.6995851
-0.6987592
-0.6979253
-0.6970801
-0.6962146
-0.6953323
-0.6944078
-0.7051947
-0.7047222
-0.7042551
-0.7037979
-0.7033562
-0.702822
-0.7020757
-0.7013079
-0.7005204
-0.6997152
-0.6988994
-0.6980681
-0.6972159
-0.6963454
-0.6954588
-0.6863828
-0.6878577
-0.6869105
-0.6891038
-0.6883459
-0.6870362
-0.6902245
-0.6896566
-0.6887793
-0.6866089
-0.6997808
-0.698862
-0.6979221
-0.6969726
-0.6960228
-0.6950822
-0.6941628
-0.6932901
-0.6925335
-0.6921475
-0.6922913
-0.691495
-0.6905676
-0.689198
-0.6859441
-0.7005812
-0.699625
-0.698663
-0.6977172
-0.6968078
-0.6959559
-0.6951888
-0.6945482
-0.6941145
-0.6940501
-0.6939392
-0.6931135
-0.6922293
-0.6911527
-0.6895341
-0.6851903
-0.701354
-0.7003796
-0.6994094
-0.698474
-0.6976015
-0.6968203
-0.696163
-0.6956714
-0.6954025
-0.6954373
-0.6952598
-0.6944696
-0.693644
-0.6927424
-0.6916357
-0.689625
-0.6839056
-0.7021037
-0.7011338
-0.7001733
-0.6992585
-0.6984218
-0.697695
-0.6971114
-0.6967068
-0.69652
-0.6965867
-0.6963893
-0.6956336
-0.6948643
-0.6940595
-0.6931868
-0.6919189
-0.6893378
-0.6830735
-0.7028337
-0.70189
-0.7009577
-0.7000749
-0.6992754
-0.6985911
-0.6980538
-0.6976946
-0.6975409
-0.6976098
-0.6974015
-0.6966756
-0.6959426
-0.6952009
-0.6944342
-0.6934819
-0.6919042
-0.6892307
-0.6827451
-0.7035451
-0.7026475
-0.7017606
-0.7009211
-0.7001611
-0.6995107
-0.6989995
-0.6986557
-0.6985029
-0.6985525
-0.6983356
-0.6976339
-0.6969294
-0.6962233
-0.6955167
-0.6946984
-0.6935294
-0.6919645
-0.6893202
-0.682928
-0.7042376
-0.703403
-0.7025763
-0.7017899
-0.7010718
-0.7004486
-0.6999472
-0.6995948
-0.699417
-0.6994308
-0.6992069
-0.69853
-0.6978507
-0.6971737
-0.6965013
-0.6957517
-0.6947488
-0.693605
-0.692099
-0.6895991
-0.6836017
-0.7049091
-0.704151
-0.7033962
-0.7026702
-0.7019953