/*--------------------------------*- C++ -*----------------------------------*\
| =========                 |                                                 |
| \\      /  F ield         | OpenFOAM: The Open Source CFD Toolbox           |
|  \\    /   O peration     | Version:  2306                                  |
|   \\  /    A nd           | Website:  www.openfoam.com                      |
|    \\/     M anipulation  |                                                 |
\*---------------------------------------------------------------------------*/
FoamFile
{
    version     2.0;
    format      ascii;
    arch        "LSB;label=32;scalar=64";
    class       volScalarField;
    location    "0.6/air";
    object      O2;
}
// * * * * * * * * * * * * * * * * * * * * * * * * * * * * * * * * * * * * * //

dimensions      [0 0 0 0 0 0 0];

internalField   nonuniform List<scalar> 
16000
(
0.2300167
0.2300399
0.2286432
0.2299932
0.2300694
0.2287201
0.2300268
0.226784
0.2285401
0.2299159
0.2300936
0.2288195
0.2300667
0.2268978
0.2286457
0.2299649
0.2246137
0.226639
0.2282692
0.2297449
0.2301067
0.2289033
0.2300977
0.2270553
0.2287738
0.2300219
0.2247268
0.2267858
0.2284166
0.2298134
0.2224455
0.2244638
0.22628
0.2277621
0.2294237
0.2301067
0.22895
0.230114
0.227196
0.2288773
0.2300643
0.2248823
0.2269812
0.2285933
0.2298931
0.2225558
0.22461
0.2264646
0.2279545
0.2295155
0.2203479
0.2222994
0.2240929
0.2256455
0.2269497
0.2288708
0.1913195
0.2300936
0.22895
0.230114
0.2272773
0.2289336
0.2300858
0.2250209
0.227152
0.2287332
0.2299519
0.2227069
0.2248024
0.2267071
0.2281923
0.2296262
0.2204532
0.2224415
0.2242769
0.2258661
0.2271868
0.2289905
0.2183389
0.2202075
0.2219381
0.22344
0.2246821
0.2257628
0.2279723
0.192653
0.1897631
0.1911085
0.2300694
0.2289033
0.2300977
0.2272773
0.2289336
0.2300858
0.2251009
0.2272494
0.2288081
0.2299823
0.2228415
0.2249696
0.2269181
0.2283862
0.2297119
0.2205975
0.222628
0.2245157
0.2261529
0.2274851
0.2291431
0.2184392
0.2203431
0.2221158
0.2236566
0.2249349
0.2260448
0.2281303
0.216419
0.2182053
0.2198608
0.2213045
0.222459
0.2233455
0.2241328
0.2265663
0.1953474
0.1909605
0.1924371
0.1892857
0.1895697
0.1906873
0.2300399
0.2288195
0.2300667
0.227196
0.2288773
0.2300643
0.2251009
0.2272494
0.2288081
0.2299823
0.222919
0.2250649
0.227038
0.22849
0.2297576
0.220726
0.2227899
0.2247212
0.2263996
0.2277331
0.2292684
0.2185767
0.220521
0.2223458
0.2239382
0.2252652
0.2264049
0.2283434
0.2165145
0.2183345
0.2200301
0.2215117
0.2227006
0.2236275
0.2244666
0.2267996
0.2145818
0.2162916
0.2178752
0.2192536
0.2203572
0.2211184
0.2215995
0.2219888
0.2244017
0.1995026
0.193374
0.1951141
0.1904012
0.1907634
0.1920071
0.1890209
0.1891067
0.1891835
0.1900572
0.2300167
0.2287201
0.2300268
0.2270553
0.2287738
0.2300219
0.2250209
0.227152
0.2287332
0.2299519
0.222919
0.2250649
0.227038
0.22849
0.2297576
0.2208001
0.222882
0.2248376
0.2265407
0.2278699
0.2293376
0.2186991
0.2206755
0.2225434
0.2241807
0.2255493
0.2267082
0.2285252
0.2166455
0.2185038
0.220249
0.2217805
0.2230174
0.2239993
0.2248981
0.2271173
0.2146731
0.2164146
0.2180363
0.2194504
0.2205858
0.2213799
0.2219154
0.222405
0.2248366
0.21282
0.2144602
0.2159769
0.2172973
0.2183474
0.2190702
0.2193984
0.2194103
0.2192399
0.2210149
0.20551
0.1970788
0.199204
0.1926489
0.1931632
0.1946553
0.190067
0.1902191
0.1903706
0.1913663
0.1887419
0.1888534
0.1887494
0.1886055
0.1892197
0.2286432
0.2299932
0.2268978
0.2286457
0.2299649
0.2248823
0.2269812
0.2285933
0.2298931
0.2228415
0.2249696
0.2269181
0.2283862
0.2297119
0.2208001
0.222882
0.2248376
0.2265407
0.2278699
0.2293376
0.2187696
0.2207634
0.2226552
0.224318
0.2257102
0.2268774
0.2286275
0.216762
0.2186508
0.220437
0.2220114
0.2232914
0.2243209
0.225264
0.2273866
0.2147982
0.2165759
0.2182445
0.2197052
0.2208847
0.2217267
0.2223351
0.2229384
0.2253614
0.2129074
0.2145778
0.2161304
0.2174844
0.2185636
0.2193152
0.2196846
0.2197901
0.219844
0.222059
0.2111264
0.2127036
0.2141598
0.2154259
0.2164353
0.2171188
0.2174286
0.2172807
0.2167221
0.2157091
0.2152994
0.2023902
0.2048936
0.1960968
0.1968145
0.1986479
0.1921742
0.1924546
0.192748
0.1939819
0.1897299
0.1898966
0.1898562
0.1897849
0.190518
0.1883493
0.1885839
0.188519
0.1882146
0.1878368
0.1880102
0.226784
0.2285401
0.2299159
0.2247268
0.2267858
0.2284166
0.2298134
0.2227069
0.2248024
0.2267071
0.2281923
0.2296262
0.220726
0.2227899
0.2247212
0.2263996
0.2277331
0.2292684
0.2187696
0.2207634
0.2226552
0.224318
0.2257102
0.2268774
0.2286275
0.2168292
0.2187344
0.2205433
0.222142
0.2234471
0.2245029
0.2254688
0.2275368
0.2149094
0.2167159
0.2184232
0.2199241
0.2211429
0.2220288
0.2226986
0.2233859
0.2257732
0.2130272
0.2147319
0.2163287
0.2177266
0.218846
0.2196392
0.2200676
0.2202876
0.2205584
0.222992
0.2112103
0.2128162
0.2143065
0.2156042
0.2166407
0.2173498
0.2176952
0.2176229
0.2172705
0.2168444
0.2183243
0.2094945
0.2110147
0.212416
0.2136337
0.2146038
0.215267
0.2155553
0.2154178
0.2147226
0.213386
0.210908
0.2124466
0.2010343
0.2018598
0.2039747
0.1954053
0.1958536
0.1963203
0.1978773
0.1917197
0.1919927
0.1920718
0.1921376
0.1931041
0.1892865
0.1895692
0.1895572
0.1893148
0.1890088
0.1892971
0.1878697
0.1881994
0.1882684
0.1880184
0.1875031
0.1867261
0.1877607
0.2246137
0.226639
0.2282692
0.2297449
0.2225558
0.22461
0.2264646
0.2279545
0.2295155
0.2205975
0.222628
0.2245157
0.2261529
0.2274851
0.2291431
0.2186991
0.2206755
0.2225434
0.2241807
0.2255493
0.2267082
0.2285252
0.2168292
0.2187344
0.2205433
0.222142
0.2234471
0.2245029
0.2254688
0.2275368
0.2149736
0.2167955
0.2185242
0.2200479
0.2212892
0.2222008
0.2229042
0.2236345
0.2259931
0.2131337
0.2148655
0.2164988
0.2179344
0.2190897
0.2199207
0.2204017
0.2207116
0.2211278
0.2236248
0.2113252
0.2129637
0.214496
0.2158349
0.2169089
0.217655
0.218051
0.2180739
0.2179262
0.2179037
0.2199223
0.2095752
0.2111228
0.2125565
0.2138042
0.2147998
0.2154866
0.2158064
0.2157371
0.2152233
0.2144311
0.2137227
0.2160051
0.2079189
0.2093871
0.2107386
0.2119121
0.2128485
0.2134895
0.2137804
0.2136442
0.212998
0.2115857
0.2089397
0.208497
0.2102263
0.2000294
0.2005458
0.2010638
0.2029056
0.1947701
0.1951784
0.195399
0.1956324
0.1969245
0.1911739
0.1915486
0.1916351
0.1915088
0.1913403
0.1918579
0.1887628
0.1891341
0.1892491
0.1890508
0.1885972
0.1878909
0.1890453
0.1873106
0.1877269
0.1879001
0.187796
0.1873524
0.1864748
0.186497
0.1875092
0.2224455
0.2244638
0.22628
0.2277621
0.2294237
0.2204532
0.2224415
0.2242769
0.2258661
0.2271868
0.2289905
0.2185767
0.220521
0.2223458
0.2239382
0.2252652
0.2264049
0.2283434
0.216762
0.2186508
0.220437
0.2220114
0.2232914
0.2243209
0.225264
0.2273866
0.2149736
0.2167955
0.2185242
0.2200479
0.2212892
0.2222008
0.2229042
0.2236345
0.2259931
0.213195
0.2149415
0.216595
0.2180518
0.2192279
0.2200807
0.2205919
0.2209489
0.221435
0.2239399
0.2114274
0.2130916
0.2146584
0.2160328
0.21714
0.21792
0.2183606
0.2184605
0.2184535
0.2186561
0.2208436
0.2096858
0.2112644
0.2127379
0.2140247
0.2150553
0.2157763
0.2161412
0.2161564
0.2158235
0.215408
0.2153209
0.2179454
0.2079968
0.2094911
0.2108736
0.2120755
0.2130361
0.2136991
0.2140194
0.2139452
0.2134677
0.2125564
0.2115527
0.2117632
0.2139486
0.206395
0.2078154
0.2091215
0.210255
0.2111599
0.2117838
0.2120712
0.2119631
0.2113479
0.2100365
0.207428
0.2067109
0.2066092
0.2084079
0.1991344
0.1995739
0.1998137
0.2001303
0.201759
0.194067
0.1945566
0.1947545
0.1947664
0.1947778
0.1956306
0.1905613
0.1910118
0.1912117
0.1911092
0.1907734
0.1902062
0.1916011
0.1881644
0.1886176
0.1888305
0.1887715
0.1883795
0.1875635
0.1876604
0.1887915
0.1866955
0.187174
0.1874416
0.1874518
0.1871676
0.1863898
0.1862628
0.186266
0.1872555
0.2203479
0.2222994
0.2240929
0.2256455
0.2269497
0.2288708
0.2184392
0.2203431
0.2221158
0.2236566
0.2249349
0.2260448
0.2281303
0.2166455
0.2185038
0.220249
0.2217805
0.2230174
0.2239993
0.2248981
0.2271173
0.2149094
0.2167159
0.2184232
0.2199241
0.2211429
0.2220288
0.2226986
0.2233859
0.2257732
0.213195
0.2149415
0.216595
0.2180518
0.2192279
0.2200807
0.2205919
0.2209489
0.221435
0.2239399
0.2114863
0.2131644
0.2147503
0.2161446
0.2172709
0.2180706
0.2185364
0.2186779
0.2187395
0.2190408
0.2212738
0.2097841
0.2113872
0.2128936
0.2142138
0.2152756
0.2160276
0.2164324
0.2165148
0.216307
0.216104
0.2162934
0.2190365
0.2081034
0.2096273
0.2110478
0.2122869
0.2132805
0.2139755
0.2143376
0.2143406
0.2140289
0.213462
0.2130371
0.213642
0.2161117
0.2064702
0.2079157
0.2092514
0.210412
0.2113398
0.2119846
0.2122996
0.21225
0.2117923
0.2109513
0.2098714
0.2097479
0.2100172
0.2121458
0.2049186
0.206295
0.2075594
0.2086561
0.2095327
0.2101393
0.2104277
0.2103366
0.2097784
0.2085406
0.2061154
0.2053456
0.2049705
0.2050517
0.2068713
0.1982053
0.1987056
0.1988914
0.1989565
0.1991209
0.2003763
0.1933177
0.1938647
0.1941574
0.1941644
0.1939806
0.1936124
0.1953645
0.1898836
0.1904068
0.1906923
0.190716
0.1904221
0.1897271
0.1899725
0.1913423
0.1875141
0.1880256
0.1883283
0.1883774
0.1881383
0.1874124
0.1873504
0.187428
0.1885356
0.1860357
0.1865645
0.1869012
0.1870144
0.1868554
0.1862591
0.1861912
0.186049
0.1860331
0.1869998
0.2183389
0.2202075
0.2219381
0.22344
0.2246821
0.2257628
0.2279723
0.2165145
0.2183345
0.2200301
0.2215117
0.2227006
0.2236275
0.2244666
0.2267996
0.2147982
0.2165759
0.2182445
0.2197052
0.2208847
0.2217267
0.2223351
0.2229384
0.2253614
0.2131337
0.2148655
0.2164988
0.2179344
0.2190897
0.2199207
0.2204017
0.2207116
0.2211278
0.2236248
0.2114863
0.2131644
0.2147503
0.2161446
0.2172709
0.2180706
0.2185364
0.2186779
0.2187395
0.2190408
0.2212738
0.2098408
0.211457
0.2129815
0.2143206
0.2154003
0.2161703
0.2165979
0.2167159
0.2165698
0.2164608
0.2167624
0.2195366
0.2081981
0.2097454
0.2111972
0.212468
0.2134911
0.2142152
0.2146141
0.2146785
0.2144797
0.2141067
0.2139416
0.2147479
0.2173321
0.2065731
0.208047
0.2094191
0.2106151
0.2115743
0.2122494
0.2126036
0.2126264
0.2123232
0.2118028
0.2112567
0.2114967
0.2120811
0.2144355
0.2049914
0.2063919
0.2076847
0.2088074
0.2097057
0.2103322
0.2106469
0.2106111
0.2102023
0.2094079
0.2084213
0.2081884
0.2081436
0.208479
0.2105788
0.2034862
0.2048219
0.2060478
0.2071107
0.2079609
0.2085523
0.2088388
0.2087681
0.2082505
0.2071056
0.2048244
0.2041526
0.2037215
0.2035389
0.203724
0.2053504
0.1972603
0.1977993
0.1980632
0.1980927
0.1980309
0.1978936
0.2000932
0.1925185
0.1931252
0.1934866
0.1936019
0.1934315
0.192909
0.1933726
0.1950968
0.1891625
0.189736
0.1901026
0.1902225
0.1900684
0.1894444
0.1895115
0.189737
0.1910815
0.1868225
0.187381
0.187749
0.1878966
0.1877767
0.1872259
0.187213
0.1871354
0.1871936
0.1882776
0.1853441
0.1859098
0.1863029
0.1864927
0.186446
0.1859933
0.1860717
0.185991
0.1858333
0.1857982
0.1866877
0.216419
0.2182053
0.2198608
0.2213045
0.222459
0.2233455
0.2241328
0.2265663
0.2146731
0.2164146
0.2180363
0.2194504
0.2205858
0.2213799
0.2219154
0.222405
0.2248366
0.2130272
0.2147319
0.2163287
0.2177266
0.218846
0.2196392
0.2200676
0.2202876
0.2205584
0.222992
0.2114274
0.2130916
0.2146584
0.2160328
0.21714
0.21792
0.2183606
0.2184605
0.2184535
0.2186561
0.2208436
0.2098408
0.211457
0.2129815
0.2143206
0.2154003
0.2161703
0.2165979
0.2167159
0.2165698
0.2164608
0.2167624
0.2195366
0.2082528
0.2098126
0.2112817
0.2125704
0.2136104
0.2143513
0.2147709
0.2148681
0.2147242
0.2144374
0.2143784
0.2152701
0.2178878
0.2066647
0.2081609
0.2095629
0.2107891
0.2117763
0.2124788
0.2128676
0.2129477
0.2127496
0.2124076
0.2120997
0.2125276
0.2132912
0.2157415
0.2050909
0.2065188
0.2078464
0.2090029
0.2099313
0.2105865
0.2109385
0.2109712
0.2107084
0.2102152
0.2097274
0.2098238
0.210068
0.2106516
0.212923
0.2035566
0.2049157
0.2061689
0.2072567
0.2081277
0.2087381
0.2090496
0.2090318
0.2086563
0.2079328
0.2070117
0.2068361
0.2066939
0.2067346
0.2071354
0.2090191
0.2020946
0.2033925
0.2045828
0.2056145
0.2064403
0.207017
0.2073024
0.2072462
0.2067705
0.2056971
0.2035662
0.2029645
0.2026227
0.2023874
0.202323
0.2023969
0.2050416
0.1962871
0.196874
0.1971912
0.1973117
0.1972307
0.1969072
0.1976423
0.1998097
0.1916889
0.1923346
0.1927654
0.1929604
0.1929118
0.192432
0.1926886
0.1931313
0.1948274
0.1884068
0.1890211
0.1894453
0.1896551
0.1896084
0.1891469
0.1892429
0.1892942
0.1894996
0.1908187
0.1861019
0.1866946
0.1871158
0.1873362
0.1873242
0.1869111
0.1870378
0.1870119
0.1869187
0.1869573
0.1879629
0.1846281
0.1852229
0.1856584
0.1859111
0.1859491
0.1856243
0.1858155
0.1858828
0.1857891
0.1856158
0.1855116
0.1863683
0.2145818
0.2162916
0.2178752
0.2192536
0.2203572
0.2211184
0.2215995
0.2219888
0.2244017
0.2129074
0.2145778
0.2161304
0.2174844
0.2185636
0.2193152
0.2196846
0.2197901
0.219844
0.222059
0.2113252
0.2129637
0.214496
0.2158349
0.2169089
0.217655
0.218051
0.2180739
0.2179262
0.2179037
0.2199223
0.2097841
0.2113872
0.2128936
0.2142138
0.2152756
0.2160276
0.2164324
0.2165148
0.216307
0.216104
0.2162934
0.2190365
0.2082528
0.2098126
0.2112817
0.2125704
0.2136104
0.2143513
0.2147709
0.2148681
0.2147242
0.2144374
0.2143784
0.2152701
0.2178878
0.2067174
0.2082257
0.2096441
0.2108874
0.2118907
0.2126091
0.2130174
0.2131278
0.2129808
0.2127173
0.2125066
0.2130149
0.2138571
0.2163357
0.2051795
0.2066288
0.2079851
0.2091705
0.2101255
0.2108069
0.2111916
0.2112785
0.2111143
0.2107885
0.2105211
0.2107869
0.2111981
0.2119333
0.2142716
0.2036531
0.2050384
0.2063251
0.2074454
0.2083451
0.2089829
0.2093301
0.2093776
0.2091407
0.2087026
0.2082508
0.2083792
0.2084958
0.2087636
0.2093601
0.2113599
0.2021629
0.2034833
0.2047
0.2057556
0.2066014
0.2071962
0.2075056
0.2075001
0.2071603
0.2064886
0.2056514
0.2055105
0.2054294
0.2053829
0.2055084
0.2057915
0.2087024
0.2007408
0.2020037
0.2031609
0.2041636
0.2049668
0.2055297
0.2058129
0.2057707
0.2053282
0.2043238
0.2023147
0.2017953
0.2015156
0.201367
0.2012558
0.2011128
0.2021273
0.2047348
0.1953019
0.1959181
0.1962953
0.1964797
0.1965009
0.1961848
0.1966771
0.1973905
0.1995259
0.1908348
0.1915127
0.1919909
0.1922644
0.1923066
0.1919708
0.1922263
0.1924667
0.1928886
0.1945565
0.1876279
0.1882709
0.1887424
0.1890176
0.1890703
0.1887347
0.1889569
0.1890398
0.1890751
0.1892604
0.1904984
0.1853593
0.1859787
0.1864397
0.18672
0.1867889
0.1864995
0.1867327
0.1868481
0.1868091
0.1867002
0.1866691
0.1876407
0.1838943
0.1845111
0.1849806
0.1852818
0.1853898
0.1851633
0.1854549
0.1856362
0.1856923
0.1855856
0.1853505
0.1852183
0.1861251
0.21282
0.2144602
0.2159769
0.2172973
0.2183474
0.2190702
0.2193984
0.2194103
0.2192399
0.2210149
0.2112103
0.2128162
0.2143065
0.2156042
0.2166407
0.2173498
0.2176952
0.2176229
0.2172705
0.2168444
0.2183243
0.2096858
0.2112644
0.2127379
0.2140247
0.2150553
0.2157763
0.2161412
0.2161564
0.2158235
0.215408
0.2153209
0.2179454
0.2081981
0.2097454
0.2111972
0.212468
0.2134911
0.2142152
0.2146141
0.2146785
0.2144797
0.2141067
0.2139416
0.2147479
0.2173321
0.2067174
0.2082257
0.2096441
0.2108874
0.2118907
0.2126091
0.2130174
0.2131278
0.2129808
0.2127173
0.2125066
0.2130149
0.2138571
0.2163357
0.2052305
0.2066913
0.2080634
0.2092651
0.2102355
0.2109319
0.2113352
0.2114507
0.2113344
0.211082
0.2109038
0.2112419
0.2117272
0.2125307
0.2148858
0.2037389
0.2051448
0.2064591
0.207607
0.2085323
0.209195
0.2095734
0.2096724
0.2095292
0.209249
0.2090037
0.2092871
0.2095532
0.2099625
0.2106807
0.2127103
0.2022565
0.2036022
0.2048512
0.2059379
0.2068113
0.2074324
0.2077759
0.2078329
0.2076255
0.2072254
0.2068328
0.2069747
0.2071305
0.2072846
0.2075895
0.2080252
0.211042
0.2008072
0.2020918
0.2032744
0.2043002
0.2051226
0.205703
0.2060092
0.2060157
0.2057035
0.2050835
0.2043089
0.2042222
0.2041787
0.2041963
0.2042438
0.2042883
0.2055185
0.2083878
0.1994226
0.2006526
0.201779
0.2027547
0.2035369
0.2040868
0.2043677
0.2043368
0.2039251
0.2029777
0.2010813
0.2006226
0.200416
0.2003268
0.2003029
0.2001317
0.200867
0.2018593
0.2044301
0.1943072
0.1949485
0.1953655
0.1956183
0.1957121
0.1955174
0.1959706
0.1964465
0.1971382
0.1992416
0.1899664
0.1906656
0.1911833
0.1915123
0.1916421
0.1914151
0.1917772
0.1920194
0.1922435
0.1926443
0.1942268
0.1868318
0.187497
0.1880031
0.1883324
0.1884586
0.1882381
0.1885546
0.1887655
0.1888351
0.1888544
0.1889687
0.1901704
0.1846011
0.1852405
0.1857332
0.1860593
0.1861953
0.1860004
0.1863294
0.1865527
0.1866568
0.1866047
0.1864337
0.1863741
0.1873954
0.1831472
0.1837812
0.1842773
0.1846179
0.1847806
0.1846363
0.1850013
0.185284
0.1854554
0.1855002
0.1853372
0.1850791
0.1849953
0.1859599
0.2111264
0.2127036
0.2141598
0.2154259
0.2164353
0.2171188
0.2174286
0.2172807
0.2167221
0.2157091
0.2152994
0.2095752
0.2111228
0.2125565
0.2138042
0.2147998
0.2154866
0.2158064
0.2157371
0.2152233
0.2144311
0.2137227
0.2160051
0.2081034
0.2096273
0.2110478
0.2122869
0.2132805
0.2139755
0.2143376
0.2143406
0.2140289
0.213462
0.2130371
0.213642
0.2161117
0.2066647
0.2081609
0.2095629
0.2107891
0.2117763
0.2124788
0.2128676
0.2129477
0.2127496
0.2124076
0.2120997
0.2125276
0.2132912
0.2157415
0.2052305
0.2066913
0.2080634
0.2092651
0.2102355
0.2109319
0.2113352
0.2114507
0.2113344
0.211082
0.2109038
0.2112419
0.2117272
0.2125307
0.2148858
0.2037883
0.2052053
0.2065347
0.2076983
0.2086382
0.2093154
0.2097114
0.2098377
0.2097399
0.2095286
0.2093667
0.2097158
0.2100481
0.2105221
0.2112961
0.2133254
0.2023397
0.2037053
0.2049808
0.2060941
0.206992
0.207637
0.2080104
0.2081166
0.2079986
0.2077483
0.2075506
0.2078362
0.2081282
0.2084078
0.2088272
0.2093549
0.2123924
0.2008981
0.2022072
0.2034209
0.2044767
0.2053256
0.2059312
0.2062702
0.2063367
0.2061512
0.2057907
0.2054393
0.2056183
0.2057931
0.2059923
0.2061958
0.2063824
0.2077537
0.2107257
0.1994872
0.2007381
0.2018892
0.2028871
0.2036878
0.2042545
0.2045576
0.2045735
0.204287
0.2037086
0.2029943
0.2029436
0.2029546
0.2030117
0.203126
0.2031127
0.2040406
0.2052472
0.2080753
0.1981374
0.1993368
0.2004343
0.2013849
0.2021474
0.2026851
0.2029635
0.2029425
0.2025571
0.201662
0.1998618
0.1994593
0.199305
0.1992847
0.1993197
0.199247
0.1999033
0.2006227
0.2015929
0.2041273
0.1933108
0.1939677
0.194419
0.1947189
0.194888
0.1947812
0.195316
0.1957561
0.1962156
0.1968855
0.1988972
0.1890883
0.1898035
0.1903492
0.1907247
0.1909178
0.1907935
0.1912317
0.1915824
0.1918112
0.1920189
0.192347
0.1938891
0.1860243
0.1867055
0.1872392
0.1876092
0.1877966
0.1876632
0.1880666
0.1883731
0.1885726
0.1886289
0.1885853
0.1886702
0.1899205
0.1838314
0.1844862
0.1850036
0.1853669
0.1855549
0.1854391
0.1858378
0.186158
0.1863713
0.186464
0.1863553
0.186161
0.1861497
0.1872287
0.1823905
0.1830377
0.1835552
0.1839272
0.1841351
0.1840563
0.1844809
0.1848379
0.1851117
0.1852731
0.1852658
0.1850832
0.1848728
0.1848438
0.1858753
0.20551
0.2094945
0.2110147
0.212416
0.2136337
0.2146038
0.215267
0.2155553
0.2154178
0.2147226
0.213386
0.210908
0.2124466
0.2079968
0.2094911
0.2108736
0.2120755
0.2130361
0.2136991
0.2140194
0.2139452
0.2134677
0.2125564
0.2115527
0.2117632
0.2139486
0.2065731
0.208047
0.2094191
0.2106151
0.2115743
0.2122494
0.2126036
0.2126264
0.2123232
0.2118028
0.2112567
0.2114967
0.2120811
0.2144355
0.2051795
0.2066288
0.2079851
0.2091705
0.2101255
0.2108069
0.2111916
0.2112785
0.2111143
0.2107885
0.2105211
0.2107869
0.2111981
0.2119333
0.2142716
0.2037883
0.2052053
0.2065347
0.2076983
0.2086382
0.2093154
0.2097114
0.2098377
0.2097399
0.2095286
0.2093667
0.2097158
0.2100481
0.2105221
0.2112961
0.2133254
0.2023877
0.2037639
0.205054
0.2061824
0.2070942
0.207753
0.2081433
0.2082756
0.2082007
0.208016
0.2078966
0.208243
0.2085949
0.2089319
0.2094047
0.2099747
0.2130075
0.2009789
0.2023072
0.2035465
0.2046279
0.2055003
0.2061289
0.2064966
0.2066103
0.2065103
0.2062928
0.2061262
0.2064397
0.20674
0.2070528
0.2073565
0.2076316
0.209085
0.2120756
0.1995756
0.2008502
0.2020313
0.2030582
0.2038844
0.2044754
0.20481
0.2048836
0.2047189
0.2043891
0.204079
0.2042793
0.204494
0.2047165
0.2049702
0.2050787
0.206137
0.2074835
0.210411
0.1982003
0.1994201
0.2005414
0.2015135
0.2022938
0.2028477
0.2031474
0.2031716
0.2029068
0.2023665
0.2017012
0.2016857
0.2017329
0.2018443
0.2019992
0.2020646
0.202883
0.2037945
0.2049777
0.2077649
0.1968836
0.1980539
0.1991246
0.2000516
0.2007957
0.2013218
0.2015975
0.2015851
0.2012234
0.2003739
0.198661
0.1983033
0.1981967
0.1982245
0.1983267
0.198321
0.1990326
0.1996765
0.20038
0.2013281
0.2037632
0.1923154
0.192984
0.1934592
0.1937996
0.1940215
0.1940025
0.1945906
0.1951143
0.1955411
0.1959842
0.1965791
0.1985445
0.1882053
0.1889312
0.1894989
0.1899087
0.190155
0.1901071
0.1906189
0.1910471
0.1913863
0.1916017
0.1917455
0.1920426
0.1936319
0.185209
0.1859023
0.1864568
0.1868598
0.1870942
0.1870341
0.1874993
0.1878937
0.1881902
0.1883782
0.1883774
0.18831
0.188443
0.1897508
0.1830537
0.1837201
0.1842572
0.18465
0.184881
0.1848282
0.1852833
0.1856739
0.1859851
0.1861883
0.1862288
0.1861003
0.1859537
0.1859974
0.1871434
0.1816269
0.1822844
0.1828189
0.1832168
0.1834613
0.1834374
0.1839069
0.1843242
0.1846731
0.184938
0.1850506
0.1850262
0.1848902
0.1847329
0.1847664
0.1995026
0.2023902
0.2048936
0.2079189
0.209387
0.2107386
0.2119121
0.2128485
0.2134895
0.2137804
0.2136442
0.212998
0.2115857
0.2089397
0.208497
0.2102263
0.2064702
0.2079157
0.2092514
0.210412
0.2113398
0.2119846
0.2122996
0.21225
0.2117923
0.2109513
0.2098714
0.2097479
0.2100172
0.2121458
0.2050909
0.2065188
0.2078464
0.2090029
0.2099313
0.2105865
0.2109385
0.2109712
0.2107084
0.2102152
0.2097274
0.2098238
0.210068
0.2106516
0.212923
0.2037389
0.2051448
0.2064591
0.207607
0.2085323
0.209195
0.2095734
0.2096724
0.2095292
0.209249
0.2090037
0.2092871
0.2095532
0.2099625
0.2106807
0.2127103
0.2023877
0.2037639
0.205054
0.2061824
0.2070942
0.207753
0.2081433
0.2082756
0.2082007
0.208016
0.2078966
0.208243
0.2085949
0.2089319
0.2094047
0.2099747
0.2130075
0.2010255
0.2023641
0.2036174
0.2047133
0.2055991
0.206241
0.2066249
0.2067635
0.2067049
0.2065497
0.2064574
0.2068275
0.207183
0.2075474
0.207898
0.2082147
0.2097055
0.2126906
0.1996542
0.2009473
0.2021532
0.2032048
0.2040536
0.2046666
0.2050289
0.2051479
0.2050652
0.2048722
0.2047383
0.2050653
0.2053969
0.2057231
0.2060666
0.2062513
0.2073881
0.208816
0.21176
0.1982863
0.1995291
0.2006795
0.2016796
0.2024844
0.2030618
0.2033919
0.2034717
0.2033241
0.2030227
0.2027446
0.2029674
0.2032055
0.2034699
0.20375
0.2039228
0.2048515
0.2058928
0.2072147
0.2100978
0.1969449
0.1981349
0.1992288
0.2001765
0.2009378
0.2014796
0.201776
0.2018072
0.2015618
0.2010544
0.2004335
0.200444
0.2005256
0.2006726
0.2008814
0.2009958
0.2018491
0.2026549
0.20355
0.2047099
0.2073918
0.1956585
0.1968022
0.1978473
0.1987524
0.1994791
0.1999944
0.2002673
0.2002625
0.1999218
0.1991137
0.1974783
0.1971602
0.1970902
0.1971614
0.1973097
0.197377
0.1981181
0.1988195
0.199451
0.2001387
0.2010096
0.2033904
0.1913244
0.1920002
0.1924945
0.1928643
0.1931315
0.1931759
0.1938211
0.1943996
0.1949122
0.1953258
0.1957038
0.1962656
0.1982757
0.1873203
0.1880535
0.1886373
0.1890748
0.1893614
0.1893782
0.1899403
0.1904433
0.1908614
0.1911891
0.1913467
0.1914658
0.191811
0.193457
0.1843892
0.185091
0.1856618
0.1860907
0.1863639
0.1863616
0.186877
0.1873341
0.1877195
0.1880059
0.1881412
0.1881202
0.1881006
0.1882888
0.1896638
0.1822706
0.1829459
0.1834985
0.1839155
0.1841812
0.184181
0.1846783
0.1851261
0.1855086
0.1858108
0.1859651
0.1859883
0.1859065
0.1858131
0.1859195
0.1808586
0.1815239
0.1820723
0.1824913
0.1827665
0.182788
0.1832935
0.1837563
0.1841662
0.184507
0.184726
0.1848233
0.1848441
0.1847593
0.1846614
0.1953474
0.1970788
0.199204
0.2010343
0.2018598
0.2039747
0.206395
0.2078154
0.2091215
0.210255
0.2111599
0.2117838
0.2120712
0.2119631
0.2113479
0.2100365
0.207428
0.2067109
0.2066092
0.2084079
0.2049914
0.2063919
0.2076847
0.2088074
0.2097057
0.2103322
0.2106469
0.2106111
0.2102023
0.2094079
0.2084213
0.2081884
0.2081436
0.208479
0.2105788
0.2036531
0.2050384
0.2063251
0.2074454
0.2083451
0.2089829
0.2093301
0.2093776
0.2091407
0.2087026
0.2082508
0.2083792
0.2084958
0.2087636
0.2093601
0.2113599
0.2023397
0.2037053
0.2049808
0.2060941
0.206992
0.207637
0.2080104
0.2081166
0.2079986
0.2077483
0.2075506
0.2078362
0.2081282
0.2084078
0.2088272
0.2093549
0.2123924
0.2010255
0.2023641
0.2036174
0.2047133
0.2055991
0.206241
0.2066249
0.2067635
0.2067049
0.2065497
0.2064574
0.2068275
0.207183
0.2075474
0.207898
0.2082147
0.2097055
0.2126906
0.1996995
0.2010026
0.202222
0.2032875
0.2041493
0.2047751
0.205153
0.205296
0.2052529
0.2051194
0.2050561
0.2054364
0.2058193
0.2061926
0.2065779
0.2067986
0.2079723
0.2094372
0.2123746
0.1983628
0.1996235
0.2007978
0.2018218
0.2026485
0.2032471
0.2036039
0.2037274
0.2036587
0.2034885
0.2033788
0.2037217
0.2040695
0.2044298
0.2047909
0.2050309
0.2060263
0.2071457
0.2085481
0.2114456
0.1970287
0.198241
0.1993631
0.2003379
0.201123
0.2016873
0.202013
0.2020979
0.2019657
0.2016881
0.2014391
0.2016766
0.2019386
0.2022277
0.2025509
0.2027602
0.2037098
0.2046255
0.2056498
0.2069472
0.2097207
0.1957182
0.1968812
0.1979487
0.198874
0.1996173
0.2001477
0.2004406
0.200478
0.2002499
0.1997719
0.1991893
0.1992228
0.1993295
0.1995098
0.1997532
0.1999275
0.200792
0.201635
0.2024283
0.2033071
0.204388
0.2070096
0.1944615
0.1955791
0.196601
0.197485
0.1981956
0.1987005
0.1989707
0.1989725
0.198651
0.1978801
0.196315
0.1960303
0.1959922
0.1960959
0.1962852
0.1964032
0.1971841
0.1979166
0.1986078
0.199227
0.1998486
0.2006837
0.2031063
0.1903397
0.1910199
0.1915281
0.1919219
0.1922226
0.1923216
0.1930028
0.1936395
0.1942083
0.1947097
0.1950648
0.1954169
0.1960269
0.1980929
0.1864357
0.1871734
0.1877696
0.1882283
0.1885479
0.1886151
0.1892184
0.1897725
0.1902665
0.1906746
0.190949
0.1910859
0.191253
0.1916537
0.1933674
0.1835668
0.1842747
0.1848583
0.1853081
0.1856123
0.1856584
0.1862106
0.1867186
0.1871676
0.187544
0.1877812
0.1878989
0.1879248
0.1879586
0.18821
0.1814841
0.182166
0.1827311
0.1831677
0.1834623
0.1835058
0.1840367
0.1845273
0.1849676
0.1853419
0.1855981
0.185737
0.1858056
0.1857751
0.1857413
0.1800871
0.1807585
0.181318
0.1817548
0.1820554
0.1821156
0.1826491
0.1831484
0.1836044
0.1840068
0.1843043
0.1845093
0.1846507
0.1847208
0.1846926
0.192653
0.193374
0.1951141
0.1960968
0.1968145
0.1986479
0.2000294
0.2005458
0.2010638
0.2029056
0.2049186
0.206295
0.2075594
0.2086561
0.2095327
0.2101393
0.2104277
0.2103366
0.2097784
0.2085406
0.2061154
0.2053456
0.2049705
0.2050517
0.2068713
0.2035566
0.2049157
0.2061689
0.2072567
0.2081277
0.2087381
0.2090496
0.2090318
0.2086563
0.2079328
0.2070117
0.2068361
0.2066939
0.2067346
0.2071354
0.2090191
0.2022565
0.2036022
0.2048512
0.2059379
0.2068113
0.2074324
0.2077759
0.2078329
0.2076255
0.2072254
0.2068328
0.2069747
0.2071305
0.2072846
0.2075895
0.2080252
0.211042
0.2009789
0.2023072
0.2035465
0.2046279
0.2055003
0.2061289
0.2064966
0.2066103
0.2065103
0.2062928
0.2061262
0.2064397
0.20674
0.2070528
0.2073565
0.2076316
0.209085
0.2120756
0.1996995
0.2010026
0.202222
0.2032875
0.2041493
0.2047751
0.205153
0.205296
0.2052529
0.2051194
0.2050561
0.2054364
0.2058193
0.2061926
0.2065779
0.2067986
0.2079723
0.2094372
0.2123746
0.1984069
0.1996772
0.2008647
0.2019021
0.2027413
0.2033523
0.203724
0.2038706
0.20384
0.2037269
0.2036846
0.2040778
0.2044737
0.2048776
0.2052763
0.2055479
0.2065747
0.2077307
0.2091698
0.2120597
0.1971033
0.198333
0.1994782
0.2004761
0.2012823
0.2018672
0.2022186
0.2023457
0.2022894
0.2021381
0.2020505
0.2024022
0.2027676
0.2031462
0.2035436
0.2038124
0.2048201
0.2058022
0.2069043
0.2082813
0.2110666
0.1958
0.1969846
0.1980795
0.199031
0.1997973
0.2003496
0.2006708
0.2007601
0.2006412
0.200385
0.2001604
0.2004108
0.2006884
0.2010018
0.2013505
0.2016103
0.2025589
0.203498
0.2044008
0.2054082
0.2066251
0.2093345
0.1945198
0.1956561
0.1966998
0.1976033
0.1983301
0.1988496
0.1991392
0.1991819
0.1989693
0.1985176
0.1979694
0.1980214
0.1981498
0.1983538
0.1986291
0.1988429
0.1997339
0.2005897
0.2014225
0.2022032
0.2030152
0.2040584
0.2067183
0.1932893
0.194384
0.1953828
0.1962478
0.1969428
0.1974382
0.1977055
0.1977134
0.1974091
0.1966721
0.1951709
0.1949156
0.1949036
0.1950349
0.1952543
0.195417
0.1962191
0.1969925
0.1977163
0.1983974
0.1989576
0.1995518
0.2004355
0.2029132
0.1893625
0.190045
0.1905638
0.1909758
0.1913042
0.1914448
0.1921557
0.1928293
0.1934575
0.1940167
0.1944644
0.1947979
0.1951986
0.1958648
0.1979993
0.1855531
0.1862934
0.1868987
0.1873744
0.1877201
0.1878295
0.1884616
0.1890576
0.1896037
0.1900887
0.1904471
0.1907035
0.1908876
0.1911087
0.1915732
0.1827436
0.1834557
0.1840492
0.1845159
0.1848458
0.1849316
0.185513
0.1860584
0.186559
0.1869998
0.18733
0.1875515
0.1877148
0.1877922
0.1878861
0.1806956
0.1813825
0.1819575
0.1824105
0.1827291
0.1828095
0.1833665
0.1838912
0.1843749
0.1848078
0.1851386
0.1853808
0.1855638
0.1856818
0.185708
0.1793138
0.1799897
0.1805585
0.1810098
0.1813321
0.1814253
0.1819814
0.1825091
0.1830021
0.1834512
0.1838124
0.1840972
0.1843449
0.1845337
0.1846579
0.1913195
0.1909605
0.1924371
0.1926489
0.1931632
0.1946553
0.1954053
0.1958536
0.1963203
0.1978773
0.1991344
0.1995739
0.1998137
0.2001303
0.201759
0.2034862
0.2048219
0.2060478
0.2071107
0.2079609
0.2085523
0.2088388
0.2087681
0.2082505
0.2071056
0.2048244
0.2041526
0.2037215
0.2035389
0.203724
0.2053504
0.2021629
0.2034833
0.2047
0.2057556
0.2066014
0.2071962
0.2075056
0.2075001
0.2071603
0.2064886
0.2056514
0.2055105
0.2054294
0.2053829
0.2055084
0.2057915
0.2087024
0.2008981
0.2022072
0.2034209
0.2044767
0.2053256
0.2059312
0.2062702
0.2063367
0.2061512
0.2057907
0.2054393
0.2056183
0.2057931
0.2059923
0.2061958
0.2063824
0.2077537
0.2107257
0.1996542
0.2009473
0.2021532
0.2032048
0.2040536
0.2046666
0.2050289
0.2051479
0.2050652
0.2048722
0.2047383
0.2050653
0.2053969
0.2057231
0.2060666
0.2062513
0.2073881
0.208816
0.21176
0.1984069
0.1996772
0.2008647
0.2019021
0.2027413
0.2033523
0.203724
0.2038706
0.20384
0.2037269
0.2036846
0.2040778
0.2044737
0.2048776
0.2052763
0.2055479
0.2065747
0.2077307
0.2091698
0.2120597
0.1971462
0.1983853
0.1995432
0.2005541
0.2013724
0.2019692
0.2023351
0.2024844
0.2024648
0.2023683
0.2023453
0.2027448
0.2031555
0.2035746
0.2040066
0.2043035
0.2053382
0.2063516
0.20749
0.2089032
0.2116797
0.1958727
0.1970742
0.1981916
0.1991655
0.1999521
0.2005243
0.2008704