/*--------------------------------*- C++ -*----------------------------------*\
| =========                 |                                                 |
| \\      /  F ield         | OpenFOAM: The Open Source CFD Toolbox           |
|  \\    /   O peration     | Version:  2306                                  |
|   \\  /    A nd           | Website:  www.openfoam.com                      |
|    \\/     M anipulation  |                                                 |
\*---------------------------------------------------------------------------*/
FoamFile
{
    version     2.0;
    format      ascii;
    arch        "LSB;label=32;scalar=64";
    class       volScalarField;
    location    "0.6/air";
    object      T;
}
// * * * * * * * * * * * * * * * * * * * * * * * * * * * * * * * * * * * * * //

dimensions      [0 0 0 1 0 0 0];

internalField   nonuniform List<scalar> 
16000
(
1101.225
1090.793
1113.333
1090.618
1085.082
1110.638
1065.389
1116.333
1110.597
1084.754
1081.863
1108.314
1049.823
1115.2
1102.646
1049.577
1118.758
1115.238
1108.224
1081.349
1080.374
1106.611
1040.551
1114.185
1095.698
1026.259
1118.206
1111.905
1095.587
1039.893
1120.898
1118.276
1114.249
1106.447
1079.613
1080.374
1105.71
1036.177
1113.411
1090.566
1011.738
1117.723
1108.868
1084.355
1011.178
1120.588
1116.702
1108.881
1090.245
1034.862
1122.841
1120.666
1117.849
1113.491
1105.446
1079.275
1113.342
1081.863
1105.71
1036.177
1112.99
1087.842
1004.714
1117.358
1106.526
1075.957
992.7536
1120.328
1115.286
1103.913
1075.659
1003.147
1122.639
1119.818
1115.351
1106.527
1087.206
1033.918
1124.627
1122.714
1120.468
1117.539
1113.088
1105.335
1080.312
1113.283
1115.611
1114.814
1085.082
1106.611
1040.551
1112.99
1087.842
1004.714
1117.16
1105.247
1071.471
983.6858
1120.136
1114.199
1100.036
1064.64
982.4639
1122.476
1119.078
1113.061
1100
1070.666
1001.622
1124.474
1122.185
1119.158
1114.338
1105.225
1086.828
1037.025
1126.281
1124.544
1122.613
1120.343
1117.407
1113.124
1106.151
1082.938
1113.154
1115.603
1114.728
1117.875
1116.967
1116.296
1090.793
1108.314
1049.823
1113.411
1090.566
1011.738
1117.16
1105.247
1071.471
983.6858
1120.034
1113.604
1097.905
1058.717
972.1864
1122.36
1118.522
1111.278
1094.858
1058.089
980.4832
1124.355
1121.738
1117.989
1111.36
1097.799
1070.01
1006.591
1126.154
1124.157
1121.819
1118.705
1113.847
1105.239
1089.218
1044.649
1127.822
1126.217
1124.483
1122.563
1120.32
1117.497
1113.627
1107.862
1087.791
1112.902
1115.591
1114.523
1117.879
1116.96
1116.187
1119.976
1119.074
1118.323
1117.791
1101.225
1110.638
1065.389
1114.185
1095.698
1026.259
1117.358
1106.526
1075.957
992.7536
1120.034
1113.604
1097.905
1058.717
972.1864
1122.299
1118.222
1110.295
1092.016
1051.302
969.9568
1124.273
1121.412
1117.097
1109.013
1091.912
1057.197
986.8439
1126.056
1123.841
1121.134
1117.219
1110.502
1097.761
1073.859
1018.542
1127.709
1125.901
1123.917
1121.6
1118.55
1114.014
1106.646
1094.224
1058.04
1129.263
1127.767
1126.173
1124.463
1122.582
1120.424
1117.829
1114.584
1110.412
1096.71
1112.191
1115.585
1114.078
1117.893
1116.949
1115.924
1119.984
1119.086
1118.316
1117.667
1121.92
1121.028
1120.271
1119.68
1119.303
1113.333
1090.618
1115.2
1102.646
1049.577
1117.723
1108.868
1084.355
1011.178
1120.136
1114.199
1100.036
1064.64
982.4639
1122.299
1118.222
1110.295
1092.016
1051.302
969.9568
1124.23
1121.24
1116.612
1107.712
1088.646
1050.274
977.0593
1125.99
1123.616
1120.625
1116.071
1107.843
1091.815
1062.181
1001.941
1127.623
1125.646
1123.443
1120.754
1116.923
1110.715
1100.002
1081.893
1038.698
1129.159
1127.488
1125.716
1123.794
1121.577
1118.761
1114.89
1109.344
1101.486
1080.149
1130.614
1129.212
1127.73
1126.164
1124.495
1122.684
1120.67
1118.414
1115.992
1113.893
1107.121
1115.665
1112.915
1117.937
1116.953
1115.362
1120.005
1119.122
1118.305
1117.368
1121.929
1121.046
1120.29
1119.672
1119.17
1123.725
1122.845
1122.077
1121.464
1121.038
1120.111
1116.333
1110.597
1084.754
1118.206
1111.905
1095.587
1039.893
1120.328
1115.286
1103.913
1075.659
1003.147
1122.36
1118.522
1111.278
1094.858
1058.089
980.4832
1124.23
1121.24
1116.612
1107.712
1088.646
1050.274
977.0593
1125.956
1123.499
1120.353
1115.442
1106.362
1088.51
1055.88
993.8069
1127.566
1125.468
1123.102
1120.119
1115.653
1108.076
1094.709
1072.549
1026.731
1129.081
1127.265
1125.341
1123.225
1120.683
1117.213
1112.068
1104.29
1093.326
1069.749
1130.517
1128.957
1127.33
1125.632
1123.82
1121.792
1119.377
1116.45
1113.121
1110.497
1101.003
1131.883
1130.566
1129.178
1127.724
1126.199
1124.591
1122.883
1121.079
1119.299
1118.081
1116.831
1108.99
1118.159
1117.057
1114.071
1120.062
1119.223
1118.305
1116.756
1121.951
1121.094
1120.34
1119.658
1118.858
1123.734
1122.864
1122.103
1121.487
1121.03
1119.978
1125.407
1124.543
1123.767
1123.122
1122.654
1121.755
1120.197
1118.758
1115.238
1108.224
1081.349
1120.588
1116.702
1108.881
1090.245
1034.862
1122.476
1119.078
1113.061
1100
1070.666
1001.622
1124.273
1121.412
1117.097
1109.013
1091.912
1057.197
986.8439
1125.956
1123.499
1120.353
1115.442
1106.362
1088.51
1055.88
993.8069
1127.536
1125.377
1122.923
1119.776
1114.952
1106.6
1091.765
1067.519
1020.947
1129.029
1127.112
1125.076
1122.811
1120.003
1115.99
1109.79
1100.235
1087.122
1063.354
1130.444
1128.754
1127.005
1125.191
1123.239
1120.983
1118.135
1114.467
1110.117
1106.962
1096.158
1131.792
1130.327
1128.813
1127.262
1125.673
1124.023
1122.274
1120.411
1118.648
1117.803
1116.092
1104.18
1133.077
1131.837
1130.534
1129.173
1127.758
1126.287
1124.761
1123.202
1121.716
1120.768
1120.317
1117.633
1110.983
1120.313
1119.572
1118.372
1115.504
1122.01
1121.219
1120.467
1119.645
1118.246
1123.756
1122.914
1122.171
1121.545
1121.011
1119.667
1125.415
1124.561
1123.794
1123.154
1122.679
1121.747
1120.065
1126.979
1126.134
1125.357
1124.684
1124.161
1123.28
1121.832
1120.284
1120.898
1118.276
1114.249
1106.447
1079.613
1122.639
1119.818
1115.351
1106.527
1087.206
1033.918
1124.355
1121.738
1117.989
1111.36
1097.799
1070.01
1006.591
1125.99
1123.616
1120.625
1116.071
1107.843
1091.815
1062.181
1001.941
1127.536
1125.377
1122.923
1119.776
1114.952
1106.6
1091.765
1067.519
1020.947
1129.002
1127.034
1124.939
1122.592
1119.634
1115.311
1108.511
1097.975
1083.781
1060.265
1130.396
1128.615
1126.779
1124.876
1122.811
1120.357
1117.132
1112.823
1107.626
1104.153
1092.906
1131.724
1130.139
1128.518
1126.884
1125.233
1123.525
1121.688
1119.668
1117.708
1116.883
1114.878
1100.158
1132.991
1131.613
1130.193
1128.753
1127.305
1125.861
1124.428
1123.051
1121.893
1121.518
1120.863
1117.115
1107.209
1134.203
1133.033
1131.806
1130.529
1129.205
1127.838
1126.438
1125.029
1123.71
1122.869
1122.62
1120.948
1118.616
1113.073
1122.255
1121.621
1120.817
1119.659
1117.117
1123.812
1123.041
1122.331
1121.676
1120.982
1119.074
1125.436
1124.61
1123.865
1123.232
1122.739
1121.727
1119.754
1126.987
1126.152
1125.384
1124.717
1124.196
1123.306
1121.824
1120.151
1128.453
1127.63
1126.858
1126.166
1125.595
1124.707
1123.347
1121.909
1120.371
1122.841
1120.666
1117.849
1113.491
1105.446
1079.275
1124.474
1122.185
1119.158
1114.338
1105.225
1086.828
1037.025
1126.056
1123.841
1121.134
1117.219
1110.502
1097.761
1073.859
1018.542
1127.566
1125.468
1123.102
1120.119
1115.653
1108.076
1094.709
1072.549
1026.731
1129.002
1127.034
1124.939
1122.592
1119.634
1115.311
1108.511
1097.975
1083.781
1060.265
1130.371
1128.545
1126.663
1124.713
1122.583
1120.014
1116.568
1111.887
1106.219
1102.614
1091.28
1131.678
1130.01
1128.314
1126.618
1124.916
1123.15
1121.217
1119.02
1116.827
1115.955
1113.794
1097.387
1132.927
1131.436
1129.919
1128.41
1126.932
1125.497
1124.111
1122.809
1121.754
1121.571
1120.831
1116.191
1103.931
1134.122
1132.822
1131.485
1130.136
1128.793
1127.477
1126.217
1125.068
1124.179
1123.933
1123.546
1121.469
1118.215
1110.14
1135.265
1134.161
1133.004
1131.801
1130.557
1129.278
1127.975
1126.673
1125.461
1124.676
1124.462
1123.15
1121.716
1119.709
1115.231
1124.04
1123.437
1122.747
1121.973
1120.942
1118.029
1125.488
1124.731
1124.028
1123.401
1122.857
1121.689
1119.163
1127.006
1126.197
1125.452
1124.799
1124.278
1123.364
1121.804
1119.842
1128.46
1127.647
1126.883
1126.199
1125.632
1124.743
1123.373
1121.901
1120.239
1129.837
1129.039
1128.278
1127.577
1126.97
1126.074
1124.765
1123.414
1121.986
1120.458
1124.627
1122.714
1120.468
1117.539
1113.088
1105.335
1080.312
1126.154
1124.157
1121.819
1118.705
1113.847
1105.239
1089.218
1044.649
1127.623
1125.646
1123.443
1120.754
1116.923
1110.715
1100.002
1081.893
1038.698
1129.029
1127.112
1125.076
1122.811
1120.003
1115.99
1109.79
1100.235
1087.122
1063.354
1130.371
1128.545
1126.663
1124.713
1122.583
1120.014
1116.568
1111.887
1106.219
1102.614
1091.28
1131.655
1129.944
1128.209
1126.481
1124.75
1122.949
1120.952
1118.643
1116.302
1115.399
1113.175
1095.987
1132.884
1131.314
1129.729
1128.171
1126.667
1125.231
1123.857
1122.568
1121.518
1121.407
1120.63
1115.34
1101.62
1134.061
1132.654
1131.228
1129.818
1128.456
1127.175
1126.009
1125.018
1124.345
1124.331
1123.923
1121.522
1117.509
1107.526
1135.188
1133.96
1132.7
1131.431
1130.173
1128.951
1127.798
1126.774
1126.006
1125.792
1125.464
1123.974
1122.153
1119.375
1113.004
1136.267
1135.225
1134.132
1132.998
1131.827
1130.625
1129.403
1128.187
1127.055
1126.305
1126.076
1124.92
1123.791
1122.559
1120.868
1116.394
1125.698
1125.102
1124.443
1123.771
1123.082
1121.623
1118.127
1127.055
1126.31
1125.608
1124.974
1124.439
1123.472
1121.765
1119.253
1128.478
1127.689
1126.948
1126.279
1125.719
1124.824
1123.431
1121.88
1119.929
1129.844
1129.055
1128.302
1127.608
1127.007
1126.111
1124.801
1123.44
1121.977
1120.326
1131.14
1130.37
1129.623
1128.922
1128.291
1127.392
1126.125
1124.824
1123.481
1122.063
1120.54
1126.281
1124.544
1122.613
1120.343
1117.407
1113.124
1106.151
1082.938
1127.709
1125.901
1123.917
1121.6
1118.55
1114.014
1106.646
1094.224
1058.04
1129.081
1127.265
1125.341
1123.225
1120.683
1117.213
1112.068
1104.29
1093.326
1069.749
1130.396
1128.615
1126.779
1124.876
1122.811
1120.357
1117.132
1112.823
1107.626
1104.153
1092.906
1131.655
1129.944
1128.209
1126.481
1124.75
1122.949
1120.952
1118.643
1116.302
1115.399
1113.175
1095.987
1132.862
1131.253
1129.633
1128.048
1126.53
1125.09
1123.716
1122.42
1121.354
1121.269
1120.478
1114.848
1100.439
1134.02
1132.54
1131.049
1129.596
1128.22
1126.957
1125.845
1124.937
1124.361
1124.456
1124.053
1121.407
1116.847
1105.645
1135.131
1133.802
1132.457
1131.131
1129.86
1128.679
1127.635
1126.793
1126.269
1126.295
1125.967
1124.358
1122.243
1118.833
1110.983
1136.195
1135.035
1133.845
1132.648
1131.464
1130.318
1129.244
1128.298
1127.594
1127.374
1127.049
1125.801
1124.473
1122.893
1120.576
1114.493
1137.214
1136.229
1135.197
1134.127
1133.022
1131.889
1130.74
1129.597
1128.532
1127.81
1127.554
1126.48
1125.473
1124.49
1123.443
1121.501
1116.519
1127.246
1126.652
1126
1125.349
1124.738
1123.656
1121.696
1118.227
1128.523
1127.794
1127.094
1126.448
1125.888
1124.975
1123.537
1121.84
1119.344
1129.86
1129.095
1128.362
1127.684
1127.092
1126.198
1124.882
1123.498
1121.957
1120.018
1131.146
1130.384
1129.646
1128.951
1128.326
1127.429
1126.163
1124.859
1123.506
1122.054
1120.408
1132.368
1131.627
1130.9
1130.204
1129.56
1128.666
1127.437
1126.176
1124.882
1123.548
1122.135
1120.603
1127.822
1126.217
1124.483
1122.563
1120.32
1117.497
1113.627
1107.862
1087.791
1129.159
1127.488
1125.716
1123.794
1121.577
1118.761
1114.89
1109.344
1101.486
1080.149
1130.444
1128.754
1127.005
1125.191
1123.239
1120.983
1118.135
1114.467
1110.117
1106.962
1096.158
1131.678
1130.01
1128.314
1126.618
1124.916
1123.15
1121.217
1119.02
1116.827
1115.955
1113.794
1097.387
1132.862
1131.253
1129.633
1128.048
1126.53
1125.09
1123.716
1122.42
1121.354
1121.269
1120.478
1114.848
1100.439
1134
1132.482
1130.959
1129.482
1128.098
1126.843
1125.754
1124.88
1124.341
1124.482
1124.085
1121.306
1116.461
1104.674
1135.092
1133.693
1132.288
1130.923
1129.64
1128.486
1127.507
1126.771
1126.375
1126.521
1126.211
1124.514
1122.187
1118.326
1109.504
1136.14
1134.884
1133.614
1132.364
1131.169
1130.065
1129.1
1128.336
1127.877
1127.887
1127.571
1126.282
1124.83
1122.99
1120.162
1112.756
1137.145
1136.049
1134.925
1133.795
1132.678
1131.599
1130.589
1129.702
1129.038
1128.803
1128.462
1127.333
1126.202
1125.024
1123.674
1121.224
1114.651
1138.108
1137.178
1136.203
1135.192
1134.149
1133.08
1131.996
1130.919
1129.914
1129.217
1128.936
1127.914
1126.966
1126.074
1125.218
1123.92
1121.569
1116.644
1128.698
1128.108
1127.458
1126.806
1126.199
1125.233
1123.718
1121.769
1118.327
1129.902
1129.192
1128.499
1127.843
1127.256
1126.358
1125.032
1123.603
1121.916
1119.435
1131.162
1130.422
1129.703
1129.023
1128.407
1127.514
1126.249
1124.94
1123.564
1122.034
1120.101
1132.374
1131.641
1130.921
1130.232
1129.594
1128.701
1127.474
1126.214
1124.918
1123.573
1122.126
1120.471
1133.528
1132.816
1132.112
1131.427
1130.779
1129.895
1128.706
1127.482
1126.227
1124.94
1123.61
1122.189
1120.652
1129.263
1127.767
1126.173
1124.463
1122.582
1120.424
1117.829
1114.584
1110.412
1096.71
1130.517
1128.957
1127.33
1125.632
1123.82
1121.792
1119.377
1116.45
1113.121
1110.497
1101.003
1131.724
1130.139
1128.518
1126.884
1125.233
1123.525
1121.688
1119.668
1117.708
1116.883
1114.878
1100.158
1132.884
1131.314
1129.729
1128.171
1126.667
1125.231
1123.857
1122.568
1121.518
1121.407
1120.63
1115.34
1101.62
1134
1132.482
1130.959
1129.482
1128.098
1126.843
1125.754
1124.88
1124.341
1124.482
1124.085
1121.306
1116.461
1104.674
1135.072
1133.638
1132.202
1130.816
1129.528
1128.385
1127.438
1126.749
1126.408
1126.606
1126.309
1124.564
1122.124
1118.03
1108.732
1136.103
1134.781
1133.454
1132.167
1130.962
1129.886
1128.988
1128.334
1128.008
1128.136
1127.845
1126.529
1124.993
1122.971
1119.784
1111.474
1137.093
1135.906
1134.706
1133.525
1132.398
1131.359
1130.454
1129.741
1129.31
1129.292
1128.963
1127.824
1126.636
1125.334
1123.758
1120.866
1112.944
1138.042
1137.007
1135.945
1134.877
1133.822
1132.804
1131.851
1131.013
1130.38
1130.132
1129.774
1128.71
1127.673
1126.65
1125.612
1124.099
1121.294
1114.809
1138.951
1138.073
1137.153
1136.198
1135.212
1134.203
1133.18
1132.164
1131.212
1130.542
1130.242
1129.261
1128.347
1127.493
1126.698
1125.61
1123.971
1121.637
1116.769
1130.064
1129.482
1128.835
1128.178
1127.558
1126.631
1125.285
1123.779
1121.842
1118.427
1131.201
1130.513
1129.83
1129.172
1128.564
1127.672
1126.408
1125.089
1123.668
1121.992
1119.521
1132.389
1131.676
1130.975
1130.299
1129.671
1128.783
1127.559
1126.3
1124.999
1123.631
1122.106
1120.165
1133.534
1132.83
1132.132
1131.453
1130.811
1129.929
1128.741
1127.519
1126.265
1124.976
1123.636
1122.181
1120.521
1134.624
1133.943
1133.262
1132.593
1131.949
1131.081
1129.931
1128.746
1127.527
1126.278
1124.995
1123.657
1122.232
1120.688
1130.614
1129.212
1127.73
1126.164
1124.495
1122.684
1120.67
1118.414
1115.992
1113.893
1107.121
1131.792
1130.327
1128.813
1127.262
1125.673
1124.023
1122.274
1120.411
1118.648
1117.803
1116.092
1104.18
1132.927
1131.436
1129.919
1128.41
1126.932
1125.497
1124.111
1122.809
1121.754
1121.571
1120.831
1116.191
1103.931
1134.02
1132.54
1131.049
1129.596
1128.22
1126.957
1125.845
1124.937
1124.361
1124.456
1124.053
1121.407
1116.847
1105.645
1135.072
1133.638
1132.202
1130.816
1129.528
1128.385
1127.438
1126.749
1126.408
1126.606
1126.309
1124.564
1122.124
1118.03
1108.732
1136.085
1134.729
1133.373
1132.066
1130.856
1129.792
1128.928
1128.324
1128.058
1128.239
1127.964
1126.632
1125.052
1122.936
1119.564
1110.801
1137.058
1135.808
1134.554
1133.338
1132.202
1131.19
1130.35
1129.743
1129.442
1129.538
1129.235
1128.093
1126.871
1125.49
1123.762
1120.546
1111.683
1137.993
1136.871
1135.736
1134.621
1133.556
1132.576
1131.721
1131.047
1130.633
1130.587
1130.242
1129.18
1128.114
1127.022
1125.864
1124.172
1120.942
1113.132
1138.889
1137.911
1136.908
1135.898
1134.902
1133.94
1133.04
1132.246
1131.641
1131.384
1131.013
1129.995
1129.01
1128.056
1127.131
1125.934
1124.145
1121.364
1114.967
1139.747
1138.919
1138.05
1137.148
1136.217
1135.264
1134.297
1133.337
1132.436
1131.793
1131.481
1130.537
1129.651
1128.817
1128.04
1127.032
1125.652
1124.023
1121.706
1116.894
1131.351
1130.78
1130.141
1129.483
1128.849
1127.94
1126.677
1125.338
1123.84
1121.915
1118.523
1132.426
1131.761
1131.094
1130.439
1129.818
1128.933
1127.716
1126.458
1125.146
1123.734
1122.063
1119.588
1133.548
1132.864
1132.183
1131.517
1130.884
1130.007
1128.823
1127.604
1126.351
1125.057
1123.693
1122.16
1120.215
1134.629
1133.956
1133.282
1132.618
1131.979
1131.113
1129.965
1128.781
1127.564
1126.316
1125.03
1123.683
1122.223
1120.557
1135.66
1135.01
1134.356
1133.705
1133.07
1132.222
1131.113
1129.967
1128.785
1127.572
1126.326
1125.035
1123.692
1122.261
1120.709
1112.191
1131.883
1130.566
1129.178
1127.724
1126.199
1124.591
1122.883
1121.079
1119.299
1118.081
1116.831
1108.99
1132.991
1131.613
1130.193
1128.753
1127.305
1125.861
1124.428
1123.051
1121.893
1121.518
1120.863
1117.115
1107.209
1134.061
1132.654
1131.228
1129.818
1128.456
1127.175
1126.009
1125.018
1124.345
1124.331
1123.923
1121.522
1117.509
1107.526
1135.092
1133.693
1132.288
1130.923
1129.64
1128.486
1127.507
1126.771
1126.375
1126.521
1126.211
1124.514
1122.187
1118.326
1109.504
1136.085
1134.729
1133.373
1132.066
1130.856
1129.792
1128.928
1128.324
1128.058
1128.239
1127.964
1126.632
1125.052
1122.936
1119.564
1110.801
1137.041
1135.759
1134.477
1133.243
1132.102
1131.102
1130.294
1129.736
1129.494
1129.641
1129.355
1128.211
1126.973
1125.552
1123.747
1120.361
1111.02
1137.96
1136.778
1135.592
1134.443
1133.37
1132.414
1131.622
1131.048
1130.757
1130.818
1130.5
1129.443
1128.364
1127.235
1126.003
1124.183
1120.628
1111.891
1138.842
1137.783
1136.71
1135.656
1134.649
1133.723
1132.914
1132.274
1131.874
1131.805
1131.448
1130.435
1129.431
1128.434
1127.434
1126.154
1124.217
1121.017
1113.319
1139.688
1138.765
1137.817
1136.864
1135.922
1135.013
1134.162
1133.41
1132.832
1132.572
1132.193
1131.214
1130.264
1129.347
1128.469
1127.395
1125.968
1124.19
1121.433
1115.125
1140.497
1139.717
1138.897
1138.045
1137.166
1136.266
1135.353
1134.445
1133.593
1132.977
1132.66
1131.751
1130.891
1130.073
1129.303
1128.333
1127.068
1125.694
1124.074
1121.774
1117.012
1132.566
1132.01
1131.382
1130.729
1130.086
1129.189
1127.98
1126.723
1125.39
1123.901
1121.984
1118.597
1133.583
1132.943
1132.295
1131.648
1131.023
1130.15
1128.973
1127.76
1126.508
1125.202
1123.795
1122.117
1119.64
1134.643
1133.988
1133.33
1132.679
1132.048
1131.187
1130.043
1128.863
1127.649
1126.402
1125.111
1123.74
1122.202
1120.251
1135.665
1135.023
1134.375
1133.729
1133.099
1132.253
1131.145
1130.001
1128.821
1127.609
1126.363
1125.07
1123.718
1122.253
1120.578
1136.64
1136.022
1135.395
1134.766
1134.144
1133.32
1132.251
1131.145
1130.002
1128.825
1127.614
1126.36
1125.064
1123.716
1122.277
1112.902
1115.665
1112.915
1133.077
1131.837
1130.534
1129.173
1127.758
1126.287
1124.761
1123.202
1121.716
1120.768
1120.317
1117.633
1110.983
1134.122
1132.822
1131.485
1130.136
1128.793
1127.477
1126.217
1125.068
1124.179
1123.933
1123.546
1121.469
1118.215
1110.14
1135.131
1133.802
1132.457
1131.131
1129.86
1128.679
1127.635
1126.793
1126.269
1126.295
1125.967
1124.358
1122.243
1118.833
1110.983
1136.103
1134.781
1133.454
1132.167
1130.962
1129.886
1128.988
1128.334
1128.008
1128.136
1127.845
1126.529
1124.993
1122.971
1119.784
1111.474
1137.041
1135.759
1134.477
1133.243
1132.102
1131.102
1130.294
1129.736
1129.494
1129.641
1129.355
1128.211
1126.973
1125.552
1123.747
1120.361
1111.02
1137.943
1136.731
1135.519
1134.352
1133.275
1132.331
1131.568
1131.042
1130.807
1130.917
1130.615
1129.562
1128.477
1127.33
1126.063
1124.175
1120.446
1111.239
1138.811
1137.695
1136.573
1135.487
1134.473
1133.569
1132.819
1132.273
1131.988
1132.021
1131.689
1130.685
1129.676
1128.659
1127.618
1126.282
1124.228
1120.709
1112.098
1139.644
1138.643
1137.63
1136.634
1135.682
1134.806
1134.041
1133.434
1133.046
1132.962
1132.597
1131.623
1130.659
1129.71
1128.778
1127.661
1126.185
1124.261
1121.092
1113.505
1140.441
1139.571
1138.676
1137.776
1136.887
1136.028
1135.223
1134.511
1133.96
1133.7
1133.32
1132.378
1131.459
1130.568
1129.712
1128.696
1127.424
1126.003
1124.236
1121.503
1115.272
1141.202
1140.468
1139.696
1138.893
1138.063
1137.213
1136.35
1135.492
1134.686
1134.098
1133.782
1132.909
1132.076
1131.275
1130.51
1129.563
1128.364
1127.104
1125.736
1124.126
1121.839
1117.107
1133.714
1133.176
1132.564
1131.919
1131.275
1130.391
1129.225
1128.021
1126.769
1125.443
1123.958
1122.035
1118.658
1134.676
1134.064
1133.436
1132.803
1132.18
1131.322
1130.185
1129.012
1127.804
1126.557
1125.255
1123.84
1122.157
1119.679
1135.678
1135.053
1134.421
1133.787
1133.165
1132.323
1131.219
1130.078
1128.903
1127.694
1126.449
1125.15
1123.774
1122.231
1120.273
1136.645
1136.034
1135.413
1134.789
1134.171
1133.349
1132.282
1131.178
1130.037
1128.861
1127.651
1126.398
1125.1
1123.741
1122.269
1137.567
1136.981
1136.382
1135.777
1135.172
1134.374
1133.346
1132.281
1131.177
1130.038
1128.863
1127.644
1126.384
1125.082
1123.727
1113.154
1115.585
1114.078
1118.159
1117.057
1114.071
1134.203
1133.033
1131.806
1130.529
1129.205
1127.838
1126.438
1125.029
1123.71
1122.869
1122.62
1120.948
1118.616
1113.073
1135.188
1133.96
1132.7
1131.431
1130.173
1128.951
1127.798
1126.774
1126.006
1125.792
1125.464
1123.974
1122.153
1119.375
1113.004
1136.14
1134.884
1133.614
1132.364
1131.169
1130.065
1129.1
1128.336
1127.877
1127.887
1127.571
1126.282
1124.83
1122.99
1120.162
1112.756
1137.058
1135.808
1134.554
1133.338
1132.202
1131.19
1130.35
1129.743
1129.442
1129.538
1129.235
1128.093
1126.871
1125.49
1123.762
1120.546
1111.683
1137.943
1136.731
1135.519
1134.352
1133.275
1132.331
1131.568
1131.042
1130.807
1130.917
1130.615
1129.562
1128.477
1127.33
1126.063
1124.175
1120.446
1111.239
1138.795
1137.65
1136.504
1135.401
1134.382
1133.489
1132.768
1132.266
1132.034
1132.114
1131.798
1130.798
1129.788
1128.763
1127.703
1126.339
1124.221
1120.531
1111.456
1139.614
1138.56
1137.5
1136.473
1135.514
1134.66
1133.95
1133.43
1133.152
1133.163
1132.822
1131.857
1130.891
1129.929
1128.972
1127.828
1126.311
1124.273
1120.79
1112.304
1140.399
1139.455
1138.499
1137.558
1136.659
1135.831
1135.107
1134.531
1134.159
1134.064
1133.697
1132.759
1131.827
1130.909
1130.011
1128.97
1127.686
1126.216
1124.306
1121.167
1113.678
1141.149
1140.33
1139.487
1138.638
1137.798
1136.987
1136.227
1135.554
1135.03
1134.775
1134.398
1133.492
1132.602
1131.735
1130.895
1129.913
1128.721
1127.453
1126.038
1124.283
1121.569
1115.393
1141.865
1141.176
1140.449
1139.692
1138.91
1138.107
1137.293
1136.482
1135.72
1135.161
1134.851
1134.013
1133.208
1132.426
1131.671
1130.744
1129.591
1128.396
1127.14
1125.779
1124.175
1121.886
1117.187
1134.8
1134.282
1133.689
1133.057
1132.417
1131.551
1130.424
1129.261
1128.061
1126.814
1125.492
1123.999
1122.073
1118.704
1135.709
1135.125
1134.521
1133.905
1133.29
1132.452
1131.354
1130.22
1129.051
1127.848
1126.604
1125.294
1123.873
1122.185
1119.703
1136.658
1136.063
1135.457
1134.844
1134.234
1133.416
1132.352
1131.251
1130.114
1128.943
1127.736
1126.483
1125.179
1123.797
1122.246
1137.572
1136.992
1136.4
1135.799
1135.198
1134.402
1133.376
1132.312
1131.21
1130.072
1128.899
1127.681
1126.422
1125.118
1123.752
1138.443
1137.889
1137.32
1136.74
1136.155
1135.384
1134.398
1133.373
1132.31
1131.209
1130.071
1128.888
1127.664
1126.398
1125.089
1113.283
1115.591
1114.523
1117.937
1116.953
1115.362
1120.313
1119.572
1118.372
1115.504
1135.265
1134.161
1133.004
1131.801
1130.557
1129.278
1127.975
1126.673
1125.461
1124.676
1124.462
1123.15
1121.716
1119.709
1115.231
1136.195
1135.035
1133.845
1132.648
1131.464
1130.318
1129.244
1128.298
1127.594
1127.374
1127.049
1125.801
1124.473
1122.893
1120.576
1114.493
1137.093
1135.906
1134.706
1133.525
1132.398
1131.359
1130.454
1129.741
1129.31
1129.292
1128.963
1127.824
1126.636
1125.334
1123.758
1120.866
1112.944
1137.96
1136.778
1135.592
1134.443
1133.37
1132.414
1131.622
1131.048
1130.757
1130.818
1130.5
1129.443
1128.364
1127.235
1126.003
1124.183
1120.628
1111.891
1138.795
1137.65
1136.504
1135.401
1134.382
1133.489
1132.768
1132.266
1132.034
1132.114
1131.798
1130.798
1129.788
1128.763
1127.703
1126.339
1124.221
1120.531
1111.456
1139.599
1138.517
1137.434
1136.392
1135.428
1134.584
1133.901
1133.423
1133.194
1133.249
1132.924
1131.963
1130.998
1130.032
1129.064
1127.908
1126.368
1124.266
1120.615
1111.672
1140.371
1139.376
1138.376
1137.406
1136.5
1135.692
1135.02
1134.527
1134.257
1134.251
1133.908
1132.977
1132.045
1131.118
1130.201
1129.146
1127.851
1126.341
1124.318
1120.871
1112.496
1141.11
1140.221
1139.319
1138.431
1137.582
1136.801
1136.117
1135.571
1135.215
1135.115
1134.751
1133.847
1132.946
1132.055
1131.18
1130.18
1128.991
1127.711
1126.248
1124.351
1121.238
1113.823
1141.815
1141.046
1140.252
1139.451
1138.66
1137.894
1137.177
1136.541
1136.044
1135.797
1135.429
1134.558
1133.699
1132.856
1132.033
1131.076
1129.935
1128.746
1127.481
1126.073
1124.326
1121.617
1115.498
1142.487
1141.841
1141.159
1140.446
1139.709
1138.952
1138.184
1137.419
1136.698
1136.169
1135.868
1135.066
1134.29
1133.531
1132.789
1131.884
1130.77
1129.619
1128.427
1127.176
1125.818
1124.208
1121.92
1117.251
1135.827
1135.332
1134.76
1134.145
1133.514
1132.668
1131.58
1130.456
1129.297
1128.101
1126.857
1125.526
1124.028
1122.098
1118.734
1136.687
1136.132
1135.553
1134.957
1134.354
1133.539
1132.481
1131.386
1130.255
1129.09
1127.889
1126.636
1125.321
1123.894
1122.199
1137.584
1137.021
1136.442
1135.852
1135.259
1134.466
1133.443
1132.382
1131.283
1130.15
1128.98
1127.765
1126.507
1125.196
1123.807
1138.448
1137.9
1137.337
1136.761
1136.18
1135.411
1134.426
1133.403
1132.341
1131.242
1130.106
1128.924
1127.701
1126.435
1125.124
1139.272
1138.75
1138.21
1137.656
1137.093
1136.352
1135.407
1134.423
1133.4
1132.339
1131.239
1130.094
1128.905
1127.674
1126.401
1113.342
1115.603
1114.728
1117.893
1116.949
1115.924
1120.062
1119.223
1118.305
1116.756
1122.255
1121.621
1120.817
1119.659
1117.117
1136.267
1135.225
1134.132
1132.998
1131.827
1130.625
1129.403
1128.187
1127.055
1126.305
1126.076
1124.92
1123.791
1122.559
1120.868
1116.394
1137.145
1136.049
1134.925
1133.795
1132.678
1131.599
1130.589
1129.702
1129.038
1128.803
1128.462
1127.333
1126.202
1125.024
1123.674
1121.224
1114.651
1137.993
1136.871
1135.736
1134.621
1133.556
1132.576
1131.721
1131.047
1130.633
1130.587
1130.242
1129.18
1128.114
1127.022
1125.864
1124.172
1120.942
1113.132
1138.811
1137.695
1136.573
1135.487
1134.473
1133.569
1132.819
1132.273
1131.988
1132.021
1131.689
1130.685
1129.676
1128.659
1127.618
1126.282
1124.228
1120.709
1112.098
1139.599
1138.517
1137.434
1136.392
1135.428
1134.584
1133.901
1133.423
1133.194
1133.249
1132.924
1131.963
1130.998
1130.032
1129.064
1127.908
1126.368
1124.266
1120.615
1111.672
1140.356
1139.336
1138.313
1137.328
1136.418
1135.62
1134.973
1134.519
1134.296
1134.332
1134.004
1133.077
1132.146
1131.216
1130.293
1129.232
1127.93
1126.398
1124.312
1120.7
1111.873
1141.083
1140.146
1139.203
1138.287
1137.431
1136.669
1136.034
1135.566
1135.307
1135.291
1134.95
1134.052
1133.151
1132.252
1131.362
1130.354
1129.165
1127.874
1126.372
1124.363
1120.947
1112.658
1141.778
1140.942
1140.093
1139.256
1138.455
1137.718
1137.073
1136.557
1136.219
1136.118
1135.761
1134.892
1134.021
1133.156
1132.302
1131.331
1130.198
1129.011
1127.735
1126.28
1124.393
1121.29
1113.951
1142.439
1141.718
1140.972
1140.219
1139.473
1138.752
1138.075
1137.476
1137.007
1136.771
1136.413
1135.578
1134.751
1133.933
1133.129
1132.198
1131.096
1129.957
1128.77
1127.51
1126.107
1124.355
1121.652
1115.587
1143.068
1142.465
1141.825
1141.156
1140.463
1139.75
1139.026
1138.304
1137.625
1137.125
1136.836
1136.07
1135.325
1134.59
1133.865
1132.983
1131.906
1130.795
1129.647
1128.459
1127.21
1125.844
1124.229
1121.94
1117.299
1136.799
1136.329
1135.779
1135.184
1134.567
1133.745
1132.695
1131.609
1130.488
1129.333
1128.139
1126.886
1125.549
1124.045
1122.108
1137.612
1137.086
1136.534
1135.96
1135.373
1134.583
1133.565
1132.51
1131.417
1130.29
1129.126
1127.917
1126.659
1125.337
1123.902
1138.46
1137.928
1137.377
1136.812
1136.238
1135.473
1134.491
1133.47
1132.411
1131.316
1130.183
1129.005
1127.785
1126.52
1125.202
1139.276
1138.76
1138.226
1137.677
1137.118
1136.378
1135.434
1134.451
1133.429
1132.37
1131.272
1130.128
1128.941
1127.711
1126.438
1140.054
1139.564
1139.054
1138.528
1137.989
1137.278
1136.373
1135.43
1134.447
1133.426
1132.366
1131.259
1130.107
1128.912
1127.674
1115.611
1114.814
1117.879
1116.96
1116.187
1120.005
1119.122
1118.305
1117.368
1122.01
1121.219
1120.467
1119.645
1118.246
1124.04
1123.437
1122.747
1121.973
1120.942
1118.029
1137.214
1136.229
1135.197
1134.127
1133.022
1131.889
1130.74
1129.597
1128.532
1127.81
1127.554
1126.48
1125.473
1124.49
1123.443
1121.501
1116.519
1138.042
1137.007
1135.945
1134.877
1133.822
1132.804
1131.851
1131.013
1130.38
1130.132
1129.774
1128.71
1127.673
1126.65
1125.612
1124.099
1121.294
1114.809
1138.842
1137.783
1136.71
1135.656
1134.649
1133.723
1132.914
1132.274
1131.874
1131.805
1131.448
1130.435
1129.431
1128.434
1127.434
1126.154
1124.217
1121.017
1113.319
1139.614
1138.56
1137.5
1136.473
1135.514
1134.66
1133.95
1133.43
1133.152
1133.163
1132.822
1131.857
1130.891
1129.929
1128.972
1127.828
1126.311
1124.273
1120.79
1112.304
1140.356
1139.336
1138.313
1137.328
1136.418
1135.62
1134.973
1134.519
1134.296
1134.332
1134.004
1133.077
1132.146
1131.216
1130.293
1129.232
1127.93
1126.398
1124.312
1120.7
1111.873
1141.069
1140.108
1139.143
1138.213
1137.354
1136.6
1135.989
1135.558
1135.343
1135.367
1135.04
1134.146
1133.246
1132.345
1131.45
1130.439
1129.25
1127.952
1126.428
1124.358
1120.779
1112.044
1141.752
1140.871
1139.983
1139.119
1138.313
1137.593
1136.994
1136.553
1136.306
1136.285
1135.949
1135.085
1134.214
1133.342
1132.475
1131.499
1130.37
1129.184
1127.897
1126.402
1124.406
1121.004
1112.802
1142.404
1141.62
1140.822
1140.034
1139.28
1138.586
1137.978