/*--------------------------------*- C++ -*----------------------------------*\
| =========                 |                                                 |
| \\      /  F ield         | OpenFOAM: The Open Source CFD Toolbox           |
|  \\    /   O peration     | Version:  2306                                  |
|   \\  /    A nd           | Website:  www.openfoam.com                      |
|    \\/     M anipulation  |                                                 |
\*---------------------------------------------------------------------------*/
FoamFile
{
    version     2.0;
    format      ascii;
    arch        "LSB;label=32;scalar=64";
    class       volVectorField;
    location    "0.6/air";
    object      U;
}
// * * * * * * * * * * * * * * * * * * * * * * * * * * * * * * * * * * * * * //

dimensions      [0 1 -1 0 0 0 0];

internalField   nonuniform List<vector> 
16000
(
(0.4218424 0.05936855 -0.05950386)
(0.7402082 0.1120202 -0.09172846)
(0.4412305 0.00498709 -0.004808821)
(0.7403776 0.09130897 -0.1134849)
(0.8789844 0.09590318 -0.09201289)
(0.862658 0.01249695 -0.008977136)
(1.457298 0.187969 -0.1917566)
(0.319055 -0.001664924 0.001689603)
(0.8629152 0.009156144 -0.01194656)
(0.8794845 0.09135703 -0.09979257)
(0.9410268 0.06001248 -0.08977278)
(1.08838 0.01291285 -0.00927536)
(1.819186 0.1755909 -0.2105577)
(0.6593418 -0.002223591 0.002845506)
(1.892166 0.02459263 -0.02425362)
(1.820005 0.204982 -0.1849048)
(0.370895 0.001021206 -0.001019131)
(0.6596009 -0.002814721 0.002318768)
(1.089608 0.009407785 -0.01224726)
(0.9419501 0.08889964 -0.06715796)
(0.9641802 0.02032109 -0.08850753)
(1.21157 0.008789697 -0.008886983)
(1.991062 0.1160602 -0.2116925)
(0.8613414 -0.001991428 0.003090051)
(2.495345 0.02955454 -0.0306668)
(2.288775 0.2045448 -0.2181392)
(0.7553407 0.001694822 -0.001823424)
(1.515315 -0.003934247 0.004038615)
(2.497749 0.03036348 -0.02979545)
(1.993155 0.2046095 -0.132522)
(0.3421769 -0.0005215621 0.0005296375)
(0.7555773 0.001795134 -0.001792727)
(0.8626032 -0.003074323 0.002118296)
(1.215019 0.008937133 -0.008316226)
(0.9656931 0.08732311 -0.03135144)
(0.9641802 -0.02032109 -0.08850753)
(1.266516 0.003027732 -0.008569913)
(2.05433 0.04024927 -0.2103391)
(0.977254 -0.001260221 0.003220683)
(2.834316 0.02234798 -0.03249893)
(2.518354 0.1398231 -0.2242186)
(0.9787718 0.001648046 -0.001983586)
(2.066567 -0.003618063 0.004930514)
(3.400621 0.03436944 -0.03585214)
(2.520465 0.2074447 -0.1632212)
(0.7032629 -0.0009140576 0.0009060642)
(1.714881 0.002894137 -0.003226381)
(2.069012 -0.0049523 0.003710255)
(2.842898 0.03141215 -0.02375194)
(2.057319 0.2018687 -0.06487008)
(0.3582304 0.0003325578 -0.000324074)
(0.7034888 -0.0009255932 0.0008465068)
(0.9799652 0.00192682 -0.001974012)
(0.9807112 -0.003242626 0.001303113)
(1.274114 0.008494502 -0.003132832)
(0.967711 0.0868342 0.004818719)
(0.0004554476 -0.00110542 -0.0005273477)
(0.9410268 -0.06001248 -0.08977278)
(1.266516 -0.003027732 -0.008569913)
(2.05433 -0.04024927 -0.2103391)
(1.031408 -0.0004250322 0.003294802)
(2.990893 0.008101101 -0.03192409)
(2.608729 0.04916741 -0.2233094)
(1.106912 0.001066988 -0.001978644)
(2.396801 -0.002220613 0.00552914)
(3.917359 0.02724063 -0.03951484)
(2.780652 0.1438825 -0.1717829)
(0.916518 -0.0009069925 0.0009706292)
(2.320864 0.002889409 -0.003579888)
(2.881235 -0.004922411 0.004774019)
(3.925524 0.03659658 -0.03056582)
(2.614966 0.2038119 -0.08286918)
(0.7328218 0.0005406765 -0.0005996605)
(1.610581 -0.001724521 0.001441085)
(2.323247 0.003042725 -0.003751372)
(2.4052 -0.005804611 0.002111954)
(3.012277 0.0296979 -0.01101317)
(2.061718 0.2002384 0.007298582)
(0.3492473 -0.0001419141 0.0001516514)
(0.7330516 0.0005770995 -0.0006174308)
(0.9176589 -0.001018368 0.0006424298)
(1.110245 0.001891747 -0.001738194)
(1.038693 -0.003394806 0.000156911)
(1.280242 0.008270697 0.001774026)
(0.9505573 0.08732544 0.03918987)
(0.0004691057 -0.003199333 -0.0005455745)
(0.0004977795 -0.0009756296 -0.0004842927)
(0.0004591795 -0.00110781 -0.001025753)
(0.8789844 -0.09590318 -0.09201289)
(1.21157 -0.008789696 -0.008886983)
(1.991062 -0.1160602 -0.2116925)
(1.031408 0.0004250323 0.003294802)
(2.990893 -0.008101101 -0.03192409)
(2.608729 -0.04916741 -0.2233094)
(1.165981 0.0003594153 -0.001961001)
(2.55183 -0.0007448459 0.00589842)
(4.152156 0.01021066 -0.04048221)
(2.883794 0.05105685 -0.1726704)
(1.040324 -0.0006046336 0.0009763063)
(2.680065 0.00192051 -0.00351535)
(3.379171 -0.003010878 0.005533413)
(4.554729 0.02939512 -0.03469189)
(2.888953 0.141718 -0.08976451)
(0.9523212 0.0005226843 -0.0006735714)
(2.191689 -0.001824741 0.001623822)
(3.210353 0.003012872 -0.00426625)
(3.387328 -0.006088973 0.0025896)
(4.176524 0.03610339 -0.0155793)
(2.624496 0.2011626 0.005775241)
(0.7164139 -0.0002513826 0.000237641)
(1.670832 0.0008791515 -0.001197416)
(2.193974 -0.002108968 0.001056475)
(2.688333 0.002774699 -0.003499237)
(2.570982 -0.006603154 9.077662e-05)
(3.031602 0.02834578 0.003244493)
(2.018522 0.1987205 0.07533232)
(0.3540034 0.0001207715 -0.0001117836)
(0.7166417 -0.0002552678 0.0001912875)
(0.9534773 0.0006199044 -0.0008185156)
(1.043513 -0.001053393 3.440648e-05)
(1.173098 0.001822745 -0.001520806)
(1.044515 -0.003542028 -0.001397585)
(1.233019 0.008258572 0.005973183)
(0.8984345 0.08913529 0.06950763)
(0.0004933458 -0.005775663 -0.0005867937)
(0.000516831 -0.002825226 -0.0004988944)
(0.0004728606 -0.003211628 -0.00106922)
(0.0003486373 -0.0009223531 -0.0004491579)
(0.0005004273 -0.0009783419 -0.000941598)
(0.0004569379 -0.001101357 -0.002800859)
(0.7402082 -0.1120202 -0.09172846)
(1.08838 -0.01291285 -0.00927536)
(1.819186 -0.1755909 -0.2105577)
(0.977254 0.001260221 0.003220682)
(2.834316 -0.02234799 -0.03249893)
(2.518354 -0.1398231 -0.2242187)
(1.165981 -0.0003594155 -0.001961001)
(2.55183 0.0007448458 0.00589842)
(4.152156 -0.01021066 -0.04048221)
(2.883794 -0.05105685 -0.1726704)
(1.097811 -0.0002096668 0.000979156)
(2.847743 0.0006578412 -0.003406944)
(3.615075 -0.0009818248 0.005969567)
(4.841537 0.01107147 -0.03615591)
(2.996898 0.05041845 -0.09154535)
(1.079056 0.0003346052 -0.000688467)
(2.539957 -0.001281575 0.001703254)
(3.748706 0.001995467 -0.004217288)
(3.997932 -0.003836443 0.003004243)
(4.859959 0.02924352 -0.01861977)
(2.89977 0.1395646 0.003377055)
(0.9325861 -0.0002442708 0.0002362836)
(2.267471 0.0008673609 -0.001428647)
(3.047988 -0.002331475 0.001169535)
(3.756831 0.002637067 -0.004107189)
(3.639073 -0.007131082 6.798582e-05)
(4.202728 0.03493191 0.003088738)
(2.555218 0.1999765 0.08933559)
(0.7251117 0.0001960055 -0.0002253467)
(1.637692 -0.0005101504 0.0002356507)
(2.269781 0.0008871468 -0.001727121)
(2.547894 -0.002382356 -0.0001452405)
(2.866708 0.002377335 -0.003151122)
(2.587473 -0.00728403 -0.002483005)
(2.894976 0.0286321 0.0155536)
(1.873914 0.1963914 0.1299583)
(0.3510997 -2.80775e-05 3.692556e-05)
(0.7253404 0.0002069279 -0.0002585721)
(0.9337304 -0.0002826621 -7.298362e-06)
(1.082282 0.0006043078 -0.0009645117)
(1.104632 -0.001103956 -0.0007928347)
(1.179048 0.001715884 -0.001540867)
(0.9987259 -0.003709783 -0.003398762)
(1.123171 0.008285703 0.008497349)
(0.7786951 0.09013397 0.07791466)
(0.0005382617 -0.00757339 -0.0009054999)
(0.00055086 -0.005076441 -0.0005323818)
(0.0004971047 -0.005695687 -0.001155853)
(0.0003607819 -0.002670926 -0.0004623105)
(0.0005194877 -0.002838007 -0.0009769236)
(0.0004704495 -0.00318255 -0.00286522)
(0.000494383 -0.0008589087 -0.000421321)
(0.0003502042 -0.0009252922 -0.0008734007)
(0.0004971758 -0.0009734322 -0.002573274)
(0.0004499896 -0.001077022 -0.000958645)
(0.4218424 -0.05936855 -0.05950386)
(0.862658 -0.01249695 -0.008977136)
(1.457298 -0.187969 -0.1917566)
(0.8613414 0.001991428 0.003090051)
(2.495345 -0.02955454 -0.0306668)
(2.288775 -0.2045448 -0.2181392)
(1.106912 -0.001066988 -0.001978644)
(2.396801 0.002220612 0.00552914)
(3.917359 -0.02724063 -0.03951484)
(2.780652 -0.1438825 -0.1717829)
(1.097811 0.0002096668 0.000979156)
(2.847743 -0.0006578413 -0.003406944)
(3.615075 0.0009818247 0.005969567)
(4.841537 -0.01107147 -0.03615591)
(2.996898 -0.05041845 -0.09154535)
(1.137729 0.0001127226 -0.0006922051)
(2.703625 -0.0004548908 0.001743267)
(4.002813 0.000683969 -0.004080994)
(4.289112 -0.001262715 0.003280907)
(5.172705 0.01105312 -0.02000753)
(3.007765 0.04960569 0.001824643)
(1.057834 -0.0001614769 0.0002265936)
(2.623295 0.0005643744 -0.001497274)
(3.57167 -0.001693118 0.001238622)
(4.415099 0.001687237 -0.004131143)
(4.307685 -0.004659836 0.0001727587)
(4.892049 0.02838428 0.001873414)
(2.817637 0.1380927 0.09114059)
(0.9430653 0.0001944679 -0.000267443)
(2.226118 -0.0005373251 0.0001862112)
(3.144855 0.0008523849 -0.002155121)
(3.579485 -0.002719886 -0.0002811767)
(4.026781 0.002102971 -0.003761763)
(3.663941 -0.007998089 -0.002691775)
(4.006309 0.03365277 0.01900746)
(2.361134 0.1949169 0.1527292)
(0.7197719 -5.462336e-05 3.784668e-05)
(1.655278 0.0002907879 -0.0005674606)
(2.228404 -0.0006669 -0.0002193369)
(2.631311 0.0007509865 -0.002150786)
(2.721874 -0.002683585 -0.001793021)
(2.88361 0.001898207 -0.003023587)
(2.455991 -0.007928045 -0.005489705)
(2.593341 0.02603336 0.02176279)
(1.556885 0.1809296 0.1387049)
(0.3524244 5.338009e-05 -4.523521e-05)
(0.7199996 -5.437685e-05 -1.620969e-06)
(0.9442117 0.0002206652 -0.0004490968)
(1.061026 -0.000302023 -0.0003895007)
(1.144621 0.0005614093 -0.001200112)
(1.110314 -0.001203445 -0.001862019)
(1.128845 0.001512818 -0.001949227)
(0.8947327 -0.003902021 -0.005770077)
(0.9203986 0.008163816 0.004978784)
(0.5033682 0.06304515 0.004273349)
(0.0005860752 -0.01512568 -0.001202016)
(0.0006136953 -0.006657873 -0.0008002744)
(0.0005406822 -0.007410642 -0.001743902)
(0.0003825033 -0.004793006 -0.0004926776)
(0.0005534814 -0.005012233 -0.001047609)
(0.0004943582 -0.005568282 -0.002990136)
(0.0005058787 -0.002486882 -0.00043328)
(0.000362379 -0.002684014 -0.0009055165)
(0.0005159976 -0.002814242 -0.002623244)
(0.0004631016 -0.003133173 -0.0009940981)
(0.0004667261 -0.0008152503 -0.0003982991)
(0.0004981685 -0.0008618251 -0.0008191778)
(0.0003476669 -0.0009209285 -0.002387075)
(0.0004833629 -0.0009538581 -0.0008799464)
(0.0004484956 -0.001078141 -0.009572393)
(0.4412305 -0.00498709 -0.004808821)
(0.7403776 -0.09130897 -0.1134849)
(0.6593418 0.002223591 0.002845506)
(1.892166 -0.02459263 -0.02425362)
(1.820005 -0.204982 -0.1849048)
(0.9787718 -0.001648046 -0.001983586)
(2.066567 0.003618063 0.004930514)
(3.400621 -0.03436944 -0.03585214)
(2.520465 -0.2074447 -0.1632212)
(1.040324 0.0006046336 0.0009763063)
(2.680065 -0.00192051 -0.00351535)
(3.379171 0.003010878 0.005533414)
(4.554729 -0.02939512 -0.03469189)
(2.888953 -0.141718 -0.08976451)
(1.137729 -0.0001127225 -0.0006922051)
(2.703625 0.0004548907 0.001743267)
(4.002813 -0.0006839692 -0.004080993)
(4.289112 0.001262715 0.003280907)
(5.172705 -0.01105312 -0.02000753)
(3.007765 -0.04960569 0.001824643)
(1.115938 -5.59529e-05 0.0002224982)
(2.790083 0.0001910048 -0.001508688)
(3.820429 -0.0006109024 0.001287176)
(4.728224 0.0005683582 -0.004027198)
(4.627578 -0.001565755 0.000269846)
(5.207871 0.01074066 0.0008746251)
(2.920666 0.04892377 0.08995927)
(1.069124 0.000126288 -0.000281832)
(2.578142 -0.0003789692 0.0001471278)
(3.679003 0.0005371752 -0.002308603)
(4.221474 -0.002023965 -0.0002945409)
(4.746785 0.001253035 -0.003836218)
(4.338205 -0.005362518 -0.002656231)
(4.655891 0.02725107 0.01951266)
(2.592397 0.1331962 0.1559158)
(0.9366101 -5.040612e-05 2.003522e-05)
(2.248095 0.0002893579 -0.0007332674)
(3.092432 -0.0007446487 -0.0004224361)
(3.686891 0.0006570931 -0.002752134)
(3.843571 -0.003127487 -0.002250474)
(4.052282 0.001524233 -0.003482026)
(3.463781 -0.008741278 -0.005739117)
(3.54785 0.03031029 0.02674209)
(1.952529 0.1704231 0.156288)
(0.7221486 8.518986e-05 -0.000105797)
(1.644405 -0.0001495218 -0.0001053656)
(2.250382 0.00025308 -0.001047214)
(2.586072 -0.0008217112 -0.001034351)
(2.808482 0.0005051896 -0.002658138)
(2.738061 -0.003116994 -0.003742742)
(2.740917 0.001229518 -0.003242261)
(2.158317 -0.008684181 -0.00872643)
(2.049136 0.01891691 0.01591078)
(0.92145 0.1200078 0.02902501)
(0.3513725 6.075184e-06 2.044203e-06)
(0.7223754 8.891741e-05 -0.0001426459)
(0.9377508 -6.316813e-05 -0.0001835374)
(1.07232 0.0002068386 -0.000678614)
(1.122754 -0.000342415 -0.0009124404)
(1.150397 0.0004673077 -0.001633095)
(1.061261 -0.001408125 -0.003251326)
(1.01368 0.001245947 -0.002809935)
(0.7103622 -0.00386375 -0.00959851)
(0.5426635 0.0005662173 -0.02110935)
(0.002529304 -0.01103315 -0.009830099)
(0.0006797459 -0.01310281 -0.001073287)
(0.0005856902 -0.01184883 -0.002289854)
(0.0004211707 -0.006283457 -0.0007422078)
(0.0006142454 -0.006521489 -0.001542177)
(0.0005362891 -0.007203436 -0.003549677)
(0.0005258267 -0.004460521 -0.0004609294)
(0.0003841189 -0.004734617 -0.0009698074)
(0.0005495149 -0.004905256 -0.002719319)
(0.0004862041 -0.005413701 -0.001068172)
(0.0004760996 -0.002360461 -0.0004094302)
(0.000509716 -0.002499648 -0.0008485067)
(0.0003597144 -0.002662508 -0.002431055)
(0.000501593 -0.002777393 -0.0009083701)
(0.0004615815 -0.00310386 -0.009679273)
(0.0005239336 -0.0007727268 -0.0003785945)
(0.0004705448 -0.0008181726 -0.0007744652)
(0.0004960322 -0.0008579663 -0.002239149)
(0.0003365877 -0.0009036558 -0.0008164072)
(0.000486278 -0.0009542672 -0.008802654)
(4.76651e-05 -0.0001172794 -0.003657912)
(0.319055 0.001664924 0.001689603)
(0.8629152 -0.009156144 -0.01194656)
(0.8794845 -0.09135703 -0.09979257)
(0.7553407 -0.001694822 -0.001823424)
(1.515315 0.003934247 0.004038615)
(2.497749 -0.03036348 -0.02979545)
(1.993155 -0.2046095 -0.132522)
(0.916518 0.0009069926 0.0009706291)
(2.320864 -0.002889409 -0.003579888)
(2.881235 0.004922411 0.004774019)
(3.925524 -0.03659658 -0.03056582)
(2.614966 -0.2038119 -0.08286918)
(1.079056 -0.0003346051 -0.0006884671)
(2.539957 0.001281575 0.001703255)
(3.748706 -0.001995467 -0.004217288)
(3.997932 0.003836443 0.003004243)
(4.859959 -0.02924352 -0.01861977)
(2.89977 -0.1395646 0.003377055)
(1.115938 5.59527e-05 0.0002224983)
(2.790083 -0.0001910049 -0.001508688)
(3.820429 0.0006109023 0.001287176)
(4.728224 -0.0005683585 -0.004027198)
(4.627578 0.001565755 0.000269846)
(5.207871 -0.01074066 0.0008746251)
(2.920666 -0.04892377 0.08995927)
(1.127547 4.271829e-05 -0.0002870112)
(2.743453 -0.0001351298 0.0001309635)
(3.932153 0.0001780258 -0.002345748)
(4.528749 -0.0007390496 -0.000264305)
(5.090638 0.0004048954 -0.003773814)
(4.660859 -0.001830551 -0.002636909)
(4.952746 0.010283 0.01891996)
(2.682654 0.04682471 0.154574)
(1.062158 -3.358376e-05 8.554867e-06)
(2.602187 0.0001874269 -0.0008078635)
(3.621378 -0.0005490291 -0.0005377002)
(4.340958 0.0003701316 -0.002983515)
(4.546758 -0.002360253 -0.002361817)
(4.77801 0.000811561 -0.003495717)
(4.091566 -0.005918011 -0.005608022)
(4.103609 0.02433802 0.02822848)
(2.115595 0.1151846 0.160017)
(0.9394291 8.691949e-05 -0.0001355831)
(2.234443 -0.0001606337 -0.0002043989)
(3.120306 0.0002311053 -0.001394748)
(3.629182 -0.0009606287 -0.001447588)
(3.955445 0.0003326658 -0.003369112)
(3.868054 -0.003639183 -0.004425066)
(3.835744 0.0008649592 -0.00329894)
(3.014028 -0.009266953 -0.008744328)
(2.726485 0.024706 0.02344463)
(1.110393 0.1066826 0.0382347)
(0.7201957 5.857201e-06 -2.140233e-05)
(1.649094 0.0001017763 -0.0003547738)
(2.236719 -0.0002412681 -0.0005411133)
(2.610123 0.0001385592 -0.001597267)
(2.761661 -0.001050388 -0.002082438)
(2.824916 9.66874e-05 -0.003341735)
(2.598245 -0.003800161 -0.005867584)
(2.417143 0.0002392926 -0.003775834)
(1.651723 -0.008958223 -0.01188225)
(1.107797 0.00848521 -0.01218713)
(0.003987583 0.0005992658 -0.00681568)
(0.351637 3.03489e-05 -2.288547e-05)
(0.7204228 5.686303e-06 -5.95029e-05)
(0.9405639 9.283908e-05 -0.0003200492)
(1.065337 -7.852134e-05 -0.0004780305)
(1.134371 0.0001692663 -0.001006296)
(1.128452 -0.0004323987 -0.001634467)
(1.100351 0.0002673945 -0.002382887)
(0.9496746 -0.00166939 -0.004904016)
(0.8103494 0.001132093 -0.005533027)
(0.4004047 -0.007061355 -0.02360344)
(0.002816821 -0.009816153 -0.008414639)
(0.000704089 -0.009102818 -0.01346971)
(0.0004636312 -0.01232532 -0.0009994312)
(0.0006767901 -0.01032458 -0.002010042)
(0.0005798529 -0.01061904 -0.004088636)
(0.0005609507 -0.005844044 -0.0006919593)
(0.0004217406 -0.006157563 -0.001430336)
(0.0006079973 -0.006344851 -0.003177938)
(0.0005258278 -0.006962085 -0.001453529)
(0.0004921101 -0.004231724 -0.0004352467)
(0.0005297111 -0.004407265 -0.0009071211)
(0.0003811916 -0.004635622 -0.002515355)
(0.0005339432 -0.004782972 -0.0009681723)
(0.000484678 -0.005323408 -0.009879106)
(0.0005325026 -0.002237219 -0.0003890051)
(0.0004799666 -0.00237301 -0.0008018705)
(0.0005074777 -0.002480191 -0.002278628)
(0.0003483306 -0.002631009 -0.0008421238)
(0.0005045067 -0.002748286 -0.008876686)
(4.896569e-05 -0.0003363113 -0.003692531)
(0.000523188 -0.0007384238 -0.0003613355)
(0.0005286866 -0.0007755977 -0.0007361218)
(0.0004687604 -0.0008146438 -0.002117045)
(0.0004869733 -0.000842387 -0.0007657236)
(0.0003395777 -0.0009033454 -0.00816702)
(5.023477e-05 -0.0001043358 -0.003363915)
(4.298286e-05 -0.0001056157 -0.004334212)
(0.370895 -0.001021206 -0.001019131)
(0.6596009 0.002814721 0.002318768)
(1.089608 -0.009407784 -0.01224726)
(0.9419501 -0.08889964 -0.06715796)
(0.7032629 0.0009140576 0.000906064)
(1.714881 -0.002894137 -0.003226381)
(2.069012 0.0049523 0.003710255)
(2.842898 -0.03141215 -0.02375194)
(2.057319 -0.2018687 -0.06487008)
(0.9523212 -0.0005226842 -0.0006735714)
(2.191689 0.001824741 0.001623822)
(3.210353 -0.003012872 -0.00426625)
(3.387328 0.006088973 0.0025896)
(4.176524 -0.03610339 -0.0155793)
(2.624496 -0.2011626 0.005775241)
(1.057834 0.0001614767 0.0002265937)
(2.623295 -0.0005643745 -0.001497274)
(3.57167 0.001693117 0.001238622)
(4.415099 -0.001687238 -0.004131142)
(4.307685 0.004659836 0.0001727587)
(4.892049 -0.02838428 0.001873414)
(2.817637 -0.1380927 0.09114059)
(1.127547 -4.271843e-05 -0.0002870112)
(2.743453 0.0001351297 0.0001309636)
(3.932153 -0.0001780258 -0.002345748)
(4.528749 0.0007390496 -0.000264305)
(5.090638 -0.0004048957 -0.003773814)
(4.660859 0.001830551 -0.002636909)
(4.952746 -0.010283 0.01891996)
(2.682654 -0.04682471 0.154574)
(1.12038 -1.195478e-05 3.994484e-06)
(2.768327 6.297306e-05 -0.0008339796)
(3.872488 -0.0001999744 -0.0005821308)
(4.653371 0.0001133775 -0.003045199)
(4.884631 -0.0008673589 -0.002352432)
(5.124682 0.000242983 -0.003427547)
(4.391115 -0.002034123 -0.005577937)
(4.35651 0.009164606 0.02785345)
(2.18017 0.03992237 0.1586848)
(1.065158 5.684297e-05 -0.0001482002)
(2.587214 -0.0001179988 -0.0002614796)
(3.652077 0.0001342925 -0.001560305)
(4.277337 -0.0007316041 -0.00164526)
(4.67144 0.0001076917 -0.003624514)
(4.576797 -0.002742862 -0.004546463)
(4.511351 0.0003836284 -0.003080438)
(3.540713 -0.006266274 -0.008372022)
(3.134116 0.01799917 0.02319503)
(1.190544 0.06877613 0.03908216)
(0.9370551 9.808682e-06 -4.283365e-05)
(2.240184 9.956637e-05 -0.000487665)
(3.102875 -0.0002839867 -0.0007977017)
(3.659887 7.196781e-05 -0.00212231)
(3.895557 -0.001261471 -0.002687659)
(3.980283 -0.0001481694 -0.004012023)
(3.655262 -0.004311281 -0.006462927)
(3.349404 8.34607e-05 -0.003048276)
(2.264211 -0.008949091 -0.01021482)
(1.42576 0.0105235 -0.005145155)
(0.004642018 0.0004959601 -0.0048147)
(0.7205992 4.772667e-05 -6.410538e-05)
(1.645076 -3.676398e-05 -0.0002035505)
(2.242446 4.91035e-05 -0.0007920446)
(2.59511 -0.0003634969 -0.001192269)
(2.786542 -7.115495e-05 -0.002266104)
(2.777885 -0.001439892 -0.003335797)
(2.682496 -0.0005859011 -0.00423234)
(2.283477 -0.004747184 -0.007824198)
(1.861862 -0.0009004757 -0.005389198)
(0.8593613 -0.007184102 -0.01760522)
(0.004795664 -3.848436e-05 -0.00586184)
(0.0007173517 -0.001765537 -0.009720448)
(0.3511431 1.706241e-05 -9.43986e-06)
(0.7208255 4.868e-05 -0.0001002883)
(0.93819 2.261608e-06 -0.0002307477)
(1.06832 7.967577e-05 -0.0005622033)
(1.127169 -0.0001149517 -0.0008864476)
(1.140087 8.334672e-05 -0.001515437)
(1.078839 -0.0006235844 -0.002651713)
(0.9862283 6.236351e-06 -0.003457435)
(0.755117 -0.001689155 -0.007721042)
(0.4622203 -0.003251604 -0.02073227)
(0.002005064 -0.009263011 -0.007874567)
(0.0008342503 -0.007984385 -0.01148827)
(0.0006698727 -0.008318097 -0.00946299)
(0.000599968 -0.01145488 -0.0009276732)
(0.0004618169 -0.009723522 -0.001866041)
(0.0006685734 -0.009274108 -0.003617409)
(0.0005668474 -0.009476356 -0.001814899)
(0.000520275 -0.005543562 -0.0006533405)
(0.0005639597 -0.005728747 -0.001333368)
(0.0004175749 -0.005993437 -0.002936353)
(0.0005891863 -0.006152695 -0.001290227)
(0.0005237093 -0.006826893 -0.01026161)
(0.0005467787 -0.004009606 -0.0004131848)
(0.0004960223 -0.004182111 -0.0008566718)
(0.0005272608 -0.004316179 -0.002354024)
(0.0003692221 -0.004526157 -0.0008962891)
(0.0005368911 -0.004698707 -0.009008839)
(5.135148e-05 -0.000577068 -0.003762852)
(0.0005307274 -0.002137884 -0.0003711707)
(0.0005373072 -0.002249426 -0.0007618196)
(0.0004781035 -0.002354957 -0.002153421)
(0.0004982033 -0.002452535 -0.000789123)
(0.0003512913 -0.002601899 -0.008226492)
(5.205395e-05 -0.0002994253 -0.00338668)
(4.413564e-05 -0.0003056617 -0.004375878)
(0.0005473122 -0.0007063457 -0.0003459845)
(0.0005281315 -0.0007412532 -0.0007025764)
(0.0005271212 -0.0007723617 -0.002012336)
(0.0004611561 -0.0008002868 -0.0007240194)
(0.0004871605 -0.0008419545 -0.00766253)
(3.467819e-05 -9.903289e-05 -0.003121068)
(4.449073e-05 -9.417158e-05 -0.003985784)
(4.201105e-05 -0.0001053844 -0.004275227)
(0.3421769 0.0005215621 0.0005296376)
(0.7555773 -0.001795134 -0.001792727)
(0.8626032 0.003074323 0.002118296)
(1.215019 -0.008937133 -0.008316226)
(0.9656931 -0.08732311 -0.03135144)
(0.7328218 -0.0005406764 -0.0005996605)
(1.610581 0.001724521 0.001441085)
(2.323247 -0.003042726 -0.003751372)
(2.4052 0.005804611 0.002111954)
(3.012277 -0.0296979 -0.01101317)
(2.061718 -0.2002384 0.007298582)
(0.9325861 0.0002442708 0.0002362836)
(2.267471 -0.0008673611 -0.001428647)
(3.047988 0.002331474 0.001169535)
(3.756831 -0.002637067 -0.004107189)
(3.639073 0.007131082 6.798592e-05)
(4.202728 -0.03493191 0.003088738)
(2.555218 -0.1999765 0.08933559)
(1.069124 -0.0001262882 -0.0002818319)
(2.578142 0.0003789693 0.0001471279)
(3.679003 -0.0005371752 -0.002308603)
(4.221474 0.002023965 -0.0002945409)
(4.746785 -0.001253035 -0.003836218)
(4.338205 0.005362518 -0.002656231)
(4.655891 -0.02725107 0.01951266)
(2.592397 -0.1331962 0.1559158)
(1.12038 1.195499e-05 3.994495e-06)
(2.768327 -6.297299e-05 -0.0008339796)
(3.872488 0.0001999742 -0.0005821308)
(4.653371 -0.0001133775 -0.003045199)
(4.884631 0.000867359 -0.002352432)
(5.124682 -0.0002429835 -0.003427546)
(4.391115 0.002034123 -0.005577937)
(4.35651 -0.009164605 0.02785345)
(2.18017 -0.03992237 0.1586848)
(1.123444 1.915908e-05 -0.0001530391)
(2.752828 -4.331865e-05 -0.0002841631)
(3.904336 4.177185e-05 -0.001620959)
(4.587419 -0.000270465 -0.001713561)
(5.014812 1.440021e-05 -0.003683758)
(4.917393 -0.001006507 -0.004514924)
(4.832967 9.817053e-05 -0.002930493)
(3.790531 -0.002153717 -0.008267796)
(3.315735 0.006763085 0.02282516)
(1.220632 0.02333486 0.03875361)
(1.062589 7.027903e-06 -5.431043e-05)
(2.593389 6.121054e-05 -0.0005544656)
(3.632819 -0.0002209498 -0.0009347221)
(4.311257 4.589255e-07 -0.002364122)
(4.605348 -0.0009752148 -0.002923992)
(4.7019 -0.0002505613 -0.00417213)
(4.314093 -0.003172209 -0.006400284)
(3.916859 -1.636523e-05 -0.002430895)
(2.6341 -0.005972337 -0.009501274)
(1.604665 0.007751646 -0.003835429)
(0.004918296 0.0003081096 -0.004220745)
(0.9374681 4.982136e-05 -8.830693e-05)
(2.23511 -4.069669e-05 -0.0003137697)
(3.109947 2.593181e-05 -0.001087998)
(3.640591 -0.0004538378 -0.001629574)
(3.927406 -0.0002012523 -0.002911814)
(3.920105 -0.001719914 -0.00400212)
(3.763847 -0.000838812 -0.004582172)
(3.18094 -0.005047235 -0.007798217)
(2.533056 -0.0005928422 -0.003032246)
(1.136632 -0.006007512 -0.01082781)
(0.005907459 2.150437e-05 -0.004130192)
(0.0007248452 -0.0009005466 -0.007171504)
(0.7197086 2.708013e-05 -3.981996e-05)
(1.645691 3.948366e-05 -0.0002709386)
(2.237372 -0.0001049559 -0.0006194246)
(2.601238 -5.660139e-05 -0.00134909)
(2.770955 -0.0005667131 -0.002011989)
(2.802815 -0.0004430833 -0.003100287)
(2.636583 -0.00209808 -0.004761834)
(2.361182 -0.001591581 -0.005194007)
(1.749779 -0.005437278 -0.009497697)
(0.9781221 -0.001857528 -0.01439936)
(0.003626244 -0.0001148683 -0.005470844)
(0.0008533939 -0.001713116 -0.008318866)
(0.0006793432 -0.0023598 -0.007895758)
(0.3510702 2.065498e-05 -1.358835e-05)
(0.7199342 2.547727e-05 -7.62305e-05)
(0.9385983 4.9164e-05 -0.0002632819)
(1.06575 -1.118357e-05 -0.0004882759)
(1.130197 4.534868e-05 -0.0009007432)
(1.132852 -0.0001976407 -0.001474539)
(1.090199 -0.0001005808 -0.002312066)
(0.9659654 -0.0008711775 -0.003943944)
(0.7862329 -7.706956e-05 -0.005958465)
(0.4273406 -0.004982323 -0.0203754)
(0.002347515 -0.008589421 -0.007313047)
(0.0005560618 -0.007522105 -0.01074306)
(0.0007920147 -0.007315653 -0.008155678)
(0.0006408086 -0.007571488 -0.005316209)
(0.000551617 -0.01085246 -0.0008768368)
(0.0006005325 -0.009039122 -0.001734158)
(0.0004564251 -0.008740622 -0.003337007)
(0.0006463212 -0.008319862 -0.001591842)
(0.0005643812 -0.008972043 -0.01070937)
(0.0005718087 -0.005251254 -0.0006192368)
(0.0005234946 -0.005435317 -0.001259036)
(0.0005604514 -0.005577752 -0.002740762)
(0.0004039612 -0.00582041 -0.001195186)
(0.0005913835 -0.006026396 -0.009270108)
(5.540966e-05 -0.0007391731 -0.003872588)
(0.0005430504 -0.003830541 -0.0003940576)
(0.0005516297 -0.003963201 -0.0008131894)
(0.0004939968 -0.004096522 -0.002222839)
(0.0005175783 -0.00421718 -0.0008384138)
(0.0003721258 -0.004444122 -0.008330021)
(5.539835e-05 -0.0005122602 -0.003431994)
(4.625296e-05 -0.0005244451 -0.004459368)
(0.0005542749 -0.002044956 -0.0003553085)
(0.0005357203 -0.002149796 -0.0007269106)
(0.0005356748 -0.002232621 -0.00204611)
(0.0004703392 -0.002329918 -0.0007458372)
(0.0004983177 -0.002424786 -0.007713059)
(3.585999e-05 -0.0002842994 -0.003138636)
(4.610104e-05 -0.0002729045 -0.004013347)
(4.313065e-05 -0.0003018048 -0.004315888)
(0.0005527291 -0.000678419 -0.0003321724)
(0.0005527024 -0.0007091159 -0.0006727134)
(0.0005267547 -0.0007382397 -0.001920694)
(0.0005205039 -0.0007590139 -0.000688194)
(0.0004608038 -0.0007996952 -0.007245403)
(5.157666e-05 -9.243548e-05 -0.002928344)
(3.051421e-05 -8.952983e-05 -0.00369797)
(4.308487e-05 -9.417041e-05 -0.003931622)
(4.133196e-05 -0.0001025671 -0.003855988)
(0.3582304 -0.0003325578 -0.000324074)
(0.7034888 0.000925593 0.0008465069)
(0.9799652 -0.00192682 -0.001974012)
(0.9807112 0.003242627 0.001303113)
(1.274114 -0.008494502 -0.003132832)
(0.967711 -0.0868342 0.004818719)
(0.7164139 0.0002513827 0.000237641)
(1.670832 -0.0008791517 -0.001197417)
(2.193974 0.002108968 0.001056475)
(2.688333 -0.002774699 -0.003499237)
(2.570982 0.006603154 9.077655e-05)
(3.031602 -0.02834578 0.003244493)
(2.018522 -0.1987205 0.07533232)
(0.9430653 -0.000194468 -0.000267443)
(2.226118 0.0005373251 0.0001862111)
(3.144855 -0.0008523848 -0.002155121)
(3.579485 0.002719886 -0.0002811768)
(4.026781 -0.002102971 -0.003761763)
(3.663941 0.007998089 -0.002691775)
(4.006309 -0.03365277 0.01900746)
(2.361134 -0.1949169 0.1527292)
(1.062158 3.358392e-05 8.554868e-06)
(2.602187 -0.0001874269 -0.0008078634)
(3.621378 0.0005490291 -0.0005377001)
(4.340958 -0.0003701316 -0.002983515)
(4.546758 0.002360253 -0.002361817)
(4.77801 -0.0008115611 -0.003495717)
(4.091566 0.005918011 -0.005608022)
(4.103609 -0.02433802 0.02822848)
(2.115595 -0.1151846 0.160017)
(1.123444 -1.915925e-05 -0.0001530391)
(2.752828 4.331856e-05 -0.0002841631)
(3.904336 -4.177199e-05 -0.001620959)
(4.587419 0.0002704649 -0.001713561)
(5.014812 -1.440021e-05 -0.003683758)
(4.917393 0.001006507 -0.004514924)
(4.832967 -9.817094e-05 -0.002930493)
(3.790531 0.002153717 -0.008267796)
(3.315735 -0.006763085 0.02282516)
(1.220632 -0.02333486 0.03875361)
(1.120799 2.284279e-06 -5.900639e-05)
(2.759154 1.962513e-05 -0.0005800996)
(3.88434 -8.297367e-05 -0.0009876671)
(4.622663 -9.6623e-06 -0.002448842)
(4.946263 -0.0003625506 -0.002987937)
(5.048036 -0.0001154417 -0.004171161)
(4.629585 -0.00114988 -0.006267217)
(4.185063 -1.848596e-05 -0.002144999)
(2.807984 -0.00203428 -0.009316941)
(1.684544 0.00288847 -0.003377754)
(0.005021625 0.0001006765 -0.003963542)
(1.062978 3.242109e-05 -9.942619e-05)
(2.587812 -3.247079e-05 -0.000375451)
(3.64043 -1.878686e-06 -0.001238092)
(4.289869 -0.0003647892 -0.001838596)
(4.640579 -0.0002187551 -0.003168761)
(4.63548 -0.00131691 -0.004164541)
(4.434968 -0.0007054526 -0.00446851)
(3.732797 -0.003527106 -0.007337701)
(2.932832 -0.0002284257 -0.001963432)
(1.300001 -0.003616286 -0.009312361)
(0.006533162 2.391778e-05 -0.003597698)
(0.0007253097 -0.0002733815 -0.006305875)
(0.9364074 2.987566e-05 -6.119788e-05)
(2.235686 3.545012e-05 -0.0003850361)
(3.103444 -0.0001315759 -0.0008840357)
(3.648154 -0.0001194954 -0.001812039)
(3.907316 -0.000720324 -0.002593282)
(3.952031 -0.0006388301 -0.003725477)
(3.705214 -0.002389482 -0.005210661)
(3.280477 -0.001689612 -0.004809434)
(2.393402 -0.005232873 -0.007806304)
(1.285677 -0.0006163043 -0.007944535)
(0.004604862 -4.570422e-05 -0.00383483)
(0.0008657684 -0.0008975896 -0.006119254)
(0.0006858118 -0.001255667 -0.006804692)
(0.7195004 3.037214e-05 -4.563861e-05)
(1.643923 5.566809e-06 -0.0002270589)
(2.237938 -1.654288e-05 -0.0006689502)
(2.595661 -0.0002098544 -0.0011977)
(2.777178 -0.0002466656 -0.002031963)
(2.787143 -0.0009248373 -0.003008022)
(2.660804 -0.001079926 -0.004116465)
(2.318467 -0.003042691 -0.006146883)
(1.813894 -0.002568171 -0.006611834)
(0.9123908 -0.004757628 -0.0148705)
(0.004171301 -8.000599e-05 -0.005070708)
(0.0005773459 -0.001635181 -0.007760162)
(0.0008060053 -0.002217142 -0.006806778)
(0.000653352 -0.002836716 -0.004291685)
(0.3508243 1.801522e-05 -1.11739e-05)
(0.7197255 3.130826e-05 -7.937054e-05)
(0.9375333 2.391657e-05 -0.0002334731)
(1.066126 3.637053e-05 -0.0004958717)