/*--------------------------------*- C++ -*----------------------------------*\
| =========                 |                                                 |
| \\      /  F ield         | OpenFOAM: The Open Source CFD Toolbox           |
|  \\    /   O peration     | Version:  2306                                  |
|   \\  /    A nd           | Website:  www.openfoam.com                      |
|    \\/     M anipulation  |                                                 |
\*---------------------------------------------------------------------------*/
FoamFile
{
    version     2.0;
    format      ascii;
    arch        "LSB;label=32;scalar=64";
    class       volScalarField;
    location    "0.6/air";
    object      X.N2;
}
// * * * * * * * * * * * * * * * * * * * * * * * * * * * * * * * * * * * * * //

dimensions      [0 0 0 0 0 0 0];

internalField   nonuniform List<scalar> 
16000
(
0.7929424
0.7929374
0.7938299
0.7929738
0.79293
0.7937541
0.7929663
0.7956897
0.7939321
0.7930466
0.792923
0.7936561
0.7929561
0.7955883
0.7938291
0.7930324
0.797702
0.7958218
0.7941995
0.7931849
0.7929189
0.7935732
0.7929468
0.7954499
0.7937035
0.7930153
0.7975974
0.7956896
0.7940579
0.7931546
0.7997092
0.7978405
0.7961515
0.7946968
0.7934389
0.7929189
0.7935268
0.7929413
0.7953273
0.793601
0.7930003
0.797454
0.795517
0.7938868
0.7931213
0.7996072
0.7977053
0.7959822
0.7945139
0.7933789
0.8016507
0.7998445
0.7981837
0.796738
0.7954857
0.7939037
0.8284217
0.792923
0.7935268
0.7929413
0.7952569
0.793545
0.7929919
0.7973263
0.795368
0.7937498
0.793096
0.7994673
0.7975278
0.795764
0.7942876
0.7933102
0.8015532
0.799713
0.7980134
0.7965339
0.7952647
0.7938048
0.8035093
0.8017806
0.800179
0.798788
0.7976312
0.796614
0.7946967
0.8271976
0.8298466
0.8286154
0.79293
0.7935732
0.7929468
0.7952569
0.793545
0.7929919
0.7972526
0.7952836
0.7936757
0.7930826
0.7993427
0.7973736
0.7955777
0.7941027
0.7932573
0.8014196
0.7995403
0.7977927
0.7962699
0.7949838
0.7936781
0.8034165
0.8016551
0.8000144
0.7985874
0.7973969
0.7963563
0.7945559
0.8052847
0.8036329
0.8021014
0.8007655
0.7996962
0.7988711
0.7981408
0.7959698
0.8247231
0.8287471
0.8273958
0.8302841
0.8300241
0.829002
0.7929374
0.7936561
0.7929561
0.7953273
0.793601
0.7930003
0.7972526
0.7952836
0.7936757
0.7930826
0.7992709
0.7972858
0.7954729
0.7940019
0.793229
0.8013007
0.7993905
0.797603
0.7960445
0.7947491
0.7935722
0.8032893
0.8014904
0.7998015
0.7983268
0.7970914
0.7960252
0.7943648
0.8051963
0.8035134
0.8019447
0.8005736
0.7994724
0.7986102
0.797835
0.7957562
0.8069827
0.8054025
0.8039382
0.8026632
0.8016422
0.8009372
0.8004897
0.8001347
0.7979541
0.820904
0.82653
0.8249373
0.8292597
0.8289282
0.8277906
0.8305275
0.8304484
0.8303787
0.8295803
0.7929424
0.7937541
0.7929663
0.7954499
0.7937035
0.7930153
0.7973263
0.795368
0.7937498
0.793096
0.7992709
0.7972858
0.7954729
0.7940019
0.793229
0.8012321
0.7993052
0.7974956
0.7959177
0.7946192
0.7935134
0.8031761
0.8013475
0.7996186
0.7981026
0.796829
0.7957453
0.7941997
0.8050752
0.8033567
0.8017422
0.8003248
0.7991792
0.7982662
0.7974384
0.7954651
0.8068983
0.8052887
0.8037892
0.8024812
0.8014306
0.8006951
0.8001977
0.7997516
0.7975528
0.8086104
0.8070951
0.8056934
0.8044727
0.8035016
0.8028331
0.8025291
0.8025173
0.8026823
0.8010761
0.8153765
0.823124
0.8211785
0.8271948
0.8267237
0.8253588
0.829567
0.829427
0.8292888
0.8283788
0.830784
0.8306812
0.8307764
0.8309092
0.8303488
0.7938299
0.7929738
0.7955883
0.7938291
0.7930324
0.797454
0.795517
0.7938868
0.7931213
0.7993427
0.7973736
0.7955777
0.7941027
0.7932573
0.8012321
0.7993052
0.7974956
0.7959177
0.7946192
0.7935134
0.8031109
0.8012661
0.7995151
0.7979757
0.796681
0.7955888
0.7941064
0.8049675
0.8032208
0.8015682
0.800111
0.7989255
0.7979689
0.7971015
0.7952171
0.8067827
0.8051395
0.8035966
0.8022454
0.8011539
0.8003741
0.7998096
0.79926
0.7970686
0.8085296
0.8069864
0.8055515
0.8042996
0.8033016
0.8026064
0.8022643
0.8021662
0.8021246
0.8001112
0.8101745
0.8087179
0.8073727
0.8062028
0.8052698
0.8046379
0.8043515
0.8044881
0.8050046
0.8059482
0.8063532
0.8182356
0.8159438
0.8240251
0.8233671
0.8216897
0.8276313
0.8273734
0.8271051
0.8259772
0.8298769
0.8297234
0.8297603
0.8298265
0.8291575
0.8311448
0.8309291
0.8309882
0.8312674
0.8316146
0.8314584
0.7956897
0.7939321
0.7930466
0.7975974
0.7956896
0.7940579
0.7931546
0.7994673
0.7975278
0.795764
0.7942876
0.7933102
0.8013007
0.7993905
0.797603
0.7960445
0.7947491
0.7935722
0.8031109
0.8012661
0.7995151
0.7979757
0.796681
0.7955888
0.7941064
0.8049054
0.8031434
0.8014698
0.7999902
0.7987815
0.7978007
0.7969126
0.7950784
0.8066799
0.8050101
0.8034313
0.8020428
0.800915
0.8000946
0.7994735
0.7988472
0.7966885
0.808419
0.806844
0.8053681
0.8040757
0.8030403
0.8023066
0.8019099
0.8017064
0.801465
0.7992491
0.810097
0.8086139
0.8072371
0.8060379
0.8050798
0.8044243
0.8041049
0.8041717
0.8044978
0.8048995
0.8035602
0.8116809
0.8102776
0.8089836
0.8078588
0.8069626
0.8063498
0.8060834
0.8062106
0.806853
0.8080883
0.8103823
0.8089843
0.8194811
0.8187239
0.8167892
0.8246613
0.8242488
0.8238216
0.8223979
0.8280492
0.8277981
0.8277252
0.8276659
0.8267833
0.8302843
0.8300245
0.8300351
0.8302574
0.830539
0.8302778
0.8315853
0.8312823
0.8312187
0.8314478
0.8319204
0.8326338
0.8316872
0.797702
0.7958218
0.7941995
0.7931849
0.7996072
0.7977053
0.7959822
0.7945139
0.7933789
0.8014196
0.7995403
0.7977927
0.7962699
0.7949838
0.7936781
0.8031761
0.8013475
0.7996186
0.7981026
0.796829
0.7957453
0.7941997
0.8049054
0.8031434
0.8014698
0.7999902
0.7987815
0.7978007
0.7969126
0.7950784
0.8066207
0.8049365
0.8033378
0.8019283
0.8007795
0.7999354
0.7992834
0.7986178
0.7964854
0.8083207
0.8067206
0.8052108
0.8038835
0.8028148
0.8020461
0.8016008
0.8013144
0.8009391
0.7986643
0.8099909
0.8084777
0.8070621
0.8058247
0.8048319
0.804142
0.8037758
0.8037546
0.8038917
0.8039208
0.8020841
0.8116064
0.8101778
0.8088538
0.8077013
0.8067815
0.8061468
0.8058513
0.8059155
0.8063903
0.8071228
0.8077838
0.8057004
0.8131347
0.8117801
0.8105325
0.809449
0.8085842
0.8079922
0.8077236
0.8078496
0.8084466
0.8097509
0.8121936
0.8126069
0.8110305
0.8204064
0.8199309
0.8194568
0.8177728
0.8252456
0.8248698
0.8246668
0.8244541
0.8232734
0.8285509
0.8282064
0.8281266
0.8282424
0.8283982
0.8279274
0.8307655
0.8304243
0.8303184
0.8305
0.8309161
0.831565
0.8305087
0.8320987
0.8317164
0.8315571
0.8316523
0.832059
0.8328639
0.8328439
0.8319179
0.7997092
0.7978405
0.7961515
0.7946968
0.7934389
0.8015532
0.799713
0.7980134
0.7965339
0.7952647
0.7938048
0.8032893
0.8014904
0.7998015
0.7983268
0.7970914
0.7960252
0.7943648
0.8049675
0.8032208
0.8015682
0.800111
0.7989255
0.7979689
0.7971015
0.7952171
0.8066207
0.8049365
0.8033378
0.8019283
0.8007795
0.7999354
0.7992834
0.7986178
0.7964854
0.808264
0.8066503
0.8051219
0.8037749
0.802687
0.801898
0.8014248
0.8010949
0.8006553
0.7983732
0.8098965
0.8083595
0.8069119
0.8056417
0.8046181
0.8038969
0.8034895
0.803397
0.8034043
0.8032257
0.8012328
0.8115043
0.810047
0.8086862
0.8074976
0.8065453
0.805879
0.8055418
0.8055278
0.8058355
0.8062203
0.8063078
0.8039086
0.8130629
0.8116841
0.8104079
0.8092981
0.808411
0.8077986
0.8075028
0.8075715
0.8080127
0.8088544
0.8097817
0.8095931
0.807597
0.8145404
0.8132303
0.8120251
0.810979
0.8101437
0.8095677
0.8093024
0.8094024
0.8099705
0.8111812
0.8135882
0.8142497
0.8143477
0.8127055
0.8212306
0.8208258
0.8206049
0.8203161
0.8188273
0.8258923
0.8254419
0.8252597
0.8252485
0.8252396
0.824462
0.8291139
0.8286999
0.828516
0.8286097
0.8289179
0.8294396
0.8281631
0.8313151
0.8308988
0.830703
0.8307569
0.8311163
0.8318649
0.8317765
0.8307416
0.8326634
0.832224
0.8319782
0.8319686
0.8322291
0.8329423
0.8330584
0.8330558
0.8321506
0.8016507
0.7998445
0.7981837
0.796738
0.7954857
0.7939037
0.8034165
0.8016551
0.8000144
0.7985874
0.7973969
0.7963563
0.7945559
0.8050752
0.8033567
0.8017422
0.8003248
0.7991792
0.7982662
0.7974384
0.7954651
0.8066799
0.8050101
0.8034313
0.8020428
0.800915
0.8000946
0.7994735
0.7988472
0.7966885
0.808264
0.8066503
0.8051219
0.8037749
0.802687
0.801898
0.8014248
0.8010949
0.8006553
0.7983732
0.8098421
0.8082922
0.806827
0.8055383
0.804497
0.8037576
0.8033268
0.803196
0.8031399
0.8028702
0.8008351
0.8114136
0.8099337
0.8085425
0.8073229
0.8063417
0.8056467
0.8052725
0.8051964
0.8053886
0.8055772
0.8054095
0.8029007
0.8129646
0.8115583
0.810247
0.8091029
0.8081851
0.8075432
0.8072087
0.8072061
0.8074941
0.8080179
0.808411
0.8078585
0.8056003
0.814471
0.8131377
0.8119052
0.810834
0.8099775
0.8093822
0.8090915
0.8091374
0.8095602
0.8103368
0.8113336
0.8114479
0.8112044
0.8092589
0.8159016
0.8146326
0.8134664
0.8124546
0.8116458
0.811086
0.8108198
0.8109041
0.8114195
0.8125619
0.8147988
0.8155085
0.8158544
0.8157833
0.8141202
0.8220858
0.8216253
0.8214539
0.821394
0.821245
0.8200987
0.8265812
0.8260782
0.8258089
0.8258021
0.8259709
0.8263107
0.8247065
0.8297365
0.8292558
0.8289933
0.8289712
0.8292409
0.8298788
0.8296542
0.8284007
0.8319122
0.8314425
0.8311643
0.831119
0.8313382
0.832004
0.8320605
0.8319898
0.8309764
0.833269
0.8327836
0.8324744
0.8323703
0.8325159
0.8330627
0.8331245
0.8332546
0.8332695
0.8323852
0.8035093
0.8017806
0.800179
0.798788
0.7976312
0.796614
0.7946967
0.8051963
0.8035134
0.8019447
0.8005736
0.7994724
0.7986102
0.797835
0.7957562
0.8067827
0.8051395
0.8035966
0.8022454
0.8011539
0.8003741
0.7998096
0.79926
0.7970686
0.8083207
0.8067206
0.8052108
0.8038835
0.8028148
0.8020461
0.8016008
0.8013144
0.8009391
0.7986643
0.8098421
0.8082922
0.806827
0.8055383
0.804497
0.8037576
0.8033268
0.803196
0.8031399
0.8028702
0.8008351
0.8113612
0.8098691
0.8084612
0.8072242
0.8062264
0.8055147
0.8051196
0.8050105
0.8051457
0.8052474
0.8049762
0.8024386
0.8128771
0.8114492
0.810109
0.8089356
0.8079906
0.8073217
0.8069532
0.8068938
0.8070776
0.8074223
0.8075756
0.8068372
0.8044732
0.8143761
0.8130165
0.8117505
0.8106466
0.809761
0.8091377
0.8088107
0.8087897
0.8090698
0.8095505
0.8100547
0.8098336
0.8092996
0.8071459
0.8158346
0.8145432
0.8133508
0.812315
0.811486
0.8109079
0.8106175
0.8106506
0.8110281
0.8117615
0.8126719
0.8128867
0.8129283
0.8126232
0.8107027
0.817222
0.8159908
0.8148606
0.8138803
0.8130961
0.8125506
0.8122863
0.8123517
0.8128294
0.8138857
0.8159893
0.8166084
0.8170055
0.8171738
0.8170065
0.8155199
0.8229555
0.8224594
0.8222164
0.822189
0.8222458
0.8223741
0.820359
0.8273159
0.8267582
0.8264258
0.8263196
0.8264759
0.8269558
0.826531
0.8249525
0.8303989
0.829872
0.8295352
0.8294249
0.829566
0.8301387
0.8300767
0.8298705
0.8286401
0.832547
0.8320343
0.8316964
0.8315606
0.8316704
0.8321755
0.832187
0.8322577
0.8322048
0.8312131
0.8339036
0.8333845
0.8330237
0.8328493
0.8328919
0.8333069
0.8332345
0.8333081
0.8334524
0.8334849
0.8326715
0.8052847
0.8036329
0.8021014
0.8007655
0.7996962
0.7988711
0.7981408
0.7959698
0.8068983
0.8052887
0.8037892
0.8024812
0.8014306
0.8006951
0.8001977
0.7997516
0.7975528
0.808419
0.806844
0.8053681
0.8040757
0.8030403
0.8023066
0.8019099
0.8017064
0.801465
0.7992491
0.8098965
0.8083595
0.8069119
0.8056417
0.8046181
0.8038969
0.8034895
0.803397
0.8034043
0.8032257
0.8012328
0.8113612
0.8098691
0.8084612
0.8072242
0.8062264
0.8055147
0.8051196
0.8050105
0.8051457
0.8052474
0.8049762
0.8024386
0.8128267
0.8113872
0.8100311
0.808841
0.8078804
0.8071959
0.8068083
0.8067186
0.8068516
0.8071168
0.807172
0.8063549
0.8039599
0.8142917
0.8129114
0.8116178
0.8104859
0.8095744
0.8089257
0.8085668
0.8084929
0.808676
0.8089919
0.8092763
0.8088817
0.8081824
0.8059402
0.8157428
0.8144262
0.8132016
0.8121346
0.8112778
0.8106731
0.8103482
0.8103182
0.810561
0.8110163
0.8114666
0.8113776
0.8111525
0.8106188
0.8085401
0.817157
0.8159044
0.8147489
0.8137457
0.8129422
0.8123791
0.8120917
0.8121083
0.812455
0.8131226
0.8139723
0.8141342
0.8142653
0.814228
0.8138622
0.8121391
0.8185042
0.8173083
0.8162113
0.8152602
0.8144987
0.813967
0.8137038
0.8137557
0.8141947
0.8151846
0.8171489
0.8177033
0.8180182
0.8182348
0.8182942
0.8182288
0.8158041
0.823851
0.823311
0.823019
0.822908
0.8229822
0.8232797
0.8226053
0.8206196
0.8280784
0.8274849
0.8270889
0.8269095
0.8269539
0.8273945
0.8271584
0.8267527
0.8251999
0.8310929
0.8305287
0.830139
0.8299461
0.8299888
0.8304123
0.8303237
0.8302763
0.8300884
0.8288813
0.8332084
0.8326644
0.8322777
0.8320752
0.832086
0.8324648
0.8323482
0.8323715
0.8324566
0.8324216
0.8315019
0.8345606
0.8340149
0.8336152
0.8333831
0.833348
0.8336457
0.83347
0.8334079
0.8334934
0.8336519
0.8337478
0.8329644
0.8069827
0.8054025
0.8039382
0.8026632
0.8016422
0.8009372
0.8004897
0.8001347
0.7979541
0.8085296
0.8069864
0.8055515
0.8042996
0.8033016
0.8026064
0.8022643
0.8021662
0.8021246
0.8001112
0.8099909
0.8084777
0.8070621
0.8058247
0.8048319
0.804142
0.8037758
0.8037546
0.8038917
0.8039208
0.8020841
0.8114136
0.8099337
0.8085425
0.8073229
0.8063417
0.8056467
0.8052725
0.8051964
0.8053886
0.8055772
0.8054095
0.8029007
0.8128267
0.8113872
0.8100311
0.808841
0.8078804
0.8071959
0.8068083
0.8067186
0.8068516
0.8071168
0.807172
0.8063549
0.8039599
0.814243
0.8128516
0.8115427
0.8103951
0.8094688
0.8088054
0.8084284
0.8083266
0.8084624
0.8087059
0.8089005
0.8084317
0.8076598
0.8053915
0.8156611
0.8143248
0.8130737
0.8119799
0.8110985
0.8104696
0.8101145
0.8100345
0.8101861
0.8104871
0.8107339
0.8104886
0.8101094
0.8094359
0.8072953
0.8170681
0.8157912
0.8146048
0.8135716
0.8127416
0.8121532
0.8118329
0.8117892
0.812008
0.8124123
0.8128292
0.8127107
0.8126031
0.8123563
0.8118103
0.8099802
0.8184412
0.8172246
0.8161032
0.8151301
0.8143501
0.8138016
0.8135163
0.8135215
0.8138351
0.8144547
0.8152268
0.8153567
0.8154314
0.8154741
0.8153585
0.8151009
0.8124307
0.8197511
0.8185879
0.8175218
0.8165977
0.8158574
0.8153385
0.8150775
0.8151165
0.8155246
0.8164507
0.8183021
0.8187806
0.8190382
0.8191749
0.8192771
0.8194087
0.818477
0.8160865
0.8247572
0.8241904
0.8238433
0.8236736
0.8236539
0.8239443
0.8234914
0.8228369
0.8208806
0.8288632
0.8282403
0.8278007
0.8275492
0.8275103
0.8278186
0.8275834
0.8273623
0.8269758
0.8254488
0.831808
0.8312176
0.8307846
0.8305317
0.8304832
0.830791
0.8305866
0.8305102
0.8304774
0.830308
0.8291754
0.8338898
0.8333214
0.8328983
0.8326409
0.8325774
0.8328428
0.8326285
0.8325222
0.8325576
0.8326571
0.8326861
0.8317975
0.8352337
0.8346679
0.8342371
0.8339606
0.8338613
0.8340688
0.8338011
0.8336345
0.8335826
0.8336801
0.8338953
0.8340168
0.8331875
0.8086104
0.8070951
0.8056934
0.8044727
0.8035016
0.8028331
0.8025291
0.8025173
0.8026823
0.8010761
0.810097
0.8086139
0.8072371
0.8060379
0.8050798
0.8044243
0.8041049
0.8041717
0.8044978
0.8048995
0.8035602
0.8115043
0.810047
0.8086862
0.8074976
0.8065453
0.805879
0.8055418
0.8055278
0.8058355
0.8062203
0.8063078
0.8039086
0.8128771
0.8114492
0.810109
0.8089356
0.8079906
0.8073217
0.8069532
0.8068938
0.8070776
0.8074223
0.8075756
0.8068372
0.8044732
0.814243
0.8128516
0.8115427
0.8103951
0.8094688
0.8088054
0.8084284
0.8083266
0.8084624
0.8087059
0.8089005
0.8084317
0.8076598
0.8053915
0.8156141
0.8142671
0.8130014
0.8118926
0.810997
0.8103542
0.809982
0.8098754
0.8099829
0.8102161
0.8103806
0.8100684
0.8096209
0.8088844
0.8067283
0.8169891
0.8156931
0.8144813
0.8134225
0.8125689
0.8119574
0.8116083
0.8115171
0.8116493
0.8119081
0.8121345
0.8118729
0.8116273
0.8112499
0.8105917
0.8087342
0.818355
0.817115
0.8159639
0.8149619
0.8141565
0.8135837
0.813267
0.8132145
0.813406
0.8137752
0.8141373
0.8140064
0.8138627
0.8137205
0.8134394
0.8130413
0.8102731
0.81969
0.8185068
0.8174172
0.8164718
0.8157137
0.8151787
0.8148965
0.8148906
0.8151786
0.8157503
0.8164644
0.8165444
0.8165844
0.8165681
0.8165242
0.8164832
0.8153525
0.8127205
0.8209649
0.8198324
0.8187949
0.8178961
0.8171754
0.8166687
0.8164098
0.8164385
0.8168181
0.8176912
0.8194383
0.8198607
0.8200509
0.820133
0.8201548
0.8203122
0.8196351
0.8187238
0.816367
0.825672
0.8250822
0.8246987
0.824466
0.8243796
0.8245584
0.8241413
0.8237035
0.823069
0.821142
0.8296609
0.8290186
0.8285429
0.8282404
0.828121
0.8283294
0.8279964
0.8277735
0.8275674
0.8272002
0.8257518
0.8325388
0.8319282
0.8314635
0.831161
0.831045
0.8312472
0.8309563
0.8307623
0.8306981
0.83068
0.8305758
0.8294765
0.8345855
0.8339989
0.8335467
0.8332473
0.8331224
0.833301
0.8329988
0.8327936
0.8326977
0.8327452
0.8329016
0.8329566
0.8320226
0.8359189
0.8353375
0.8348823
0.8345698
0.8344203
0.8345525
0.8342174
0.8339579
0.8338003
0.8337589
0.833908
0.8341442
0.8342213
0.833339
0.8101745
0.8087179
0.8073727
0.8062028
0.8052698
0.8046379
0.8043515
0.8044881
0.8050046
0.8059482
0.8063532
0.8116064
0.8101778
0.8088538
0.8077013
0.8067815
0.8061468
0.8058513
0.8059155
0.8063903
0.8071228
0.8077838
0.8057004
0.8129646
0.8115583
0.810247
0.8091029
0.8081851
0.8075432
0.8072087
0.8072061
0.8074941
0.8080179
0.808411
0.8078585
0.8056003
0.8142917
0.8129114
0.8116178
0.8104859
0.8095744
0.8089257
0.8085668
0.8084929
0.808676
0.8089919
0.8092763
0.8088817
0.8081824
0.8059402
0.8156141
0.8142671
0.8130014
0.8118926
0.810997
0.8103542
0.809982
0.8098754
0.8099829
0.8102161
0.8103806
0.8100684
0.8096209
0.8088844
0.8067283
0.8169435
0.8156373
0.8144115
0.8133382
0.8124712
0.8118463
0.811481
0.8113645
0.8114549
0.8116501
0.8117995
0.8114773
0.8111705
0.8107335
0.8100238
0.8081664
0.8182783
0.81702
0.8158444
0.8148178
0.8139899
0.813395
0.8130506
0.8129527
0.8130618
0.8132927
0.8134752
0.8132117
0.8129423
0.8126843
0.8122976
0.8118147
0.8090271
0.8196063
0.8184005
0.8172821
0.8163091
0.8155266
0.8149683
0.8146558
0.8145946
0.8147657
0.8150982
0.8154223
0.8152573
0.8150961
0.8149123
0.8147246
0.8145527
0.8132916
0.8105645
0.8209054
0.8197536
0.8186934
0.8177741
0.8170363
0.8165141
0.8162348
0.8162202
0.8164844
0.8170176
0.817676
0.8177227
0.8177125
0.8176599
0.8175545
0.8175666
0.8167116
0.8156025
0.8130083
0.8221479
0.8210439
0.8200334
0.8191579
0.8184557
0.8179603
0.817704
0.8177234
0.8180787
0.8189034
0.8205613
0.8209318
0.8210739
0.8210925
0.8210601
0.8211269
0.8205225
0.81986
0.8189691
0.8166458
0.8265881
0.8259841
0.8255691
0.8252932
0.8251376
0.8252356
0.8247436
0.8243387
0.8239159
0.8233014
0.8214588
0.8304674
0.8298105
0.8293093
0.8289642
0.8287866
0.8289006
0.8284979
0.8281754
0.8279648
0.8277737
0.8274734
0.826062
0.8332799
0.8326547
0.8321648
0.8318251
0.8316529
0.8317751
0.8314046
0.8311229
0.8309394
0.8308874
0.8309271
0.8308498
0.8297058
0.8352916
0.8346909
0.8342162
0.8338828
0.8337101
0.8338161
0.8334501
0.8331561
0.8329601
0.8328747
0.832974
0.8331518
0.8331625
0.8321755
0.8366127
0.8360193
0.8355447
0.8352034
0.8350125
0.8350847
0.834695
0.8343673
0.8341159
0.8339676
0.8339739
0.8341409
0.8343334
0.8343602
0.8334166
0.8153765
0.8116809
0.8102776
0.8089836
0.8078588
0.8069626
0.8063498
0.8060834
0.8062106
0.806853
0.8080883
0.8103823
0.8089843
0.8130629
0.8116841
0.8104079
0.8092981
0.808411
0.8077986
0.8075028
0.8075715
0.8080127
0.8088544
0.8097817
0.8095931
0.807597
0.8143761
0.8130165
0.8117505
0.8106466
0.809761
0.8091377
0.8088107
0.8087897
0.8090698
0.8095505
0.8100547
0.8098336
0.8092996
0.8071459
0.8156611
0.8143248
0.8130737
0.8119799
0.8110985
0.8104696
0.8101145
0.8100345
0.8101861
0.8104871
0.8107339
0.8104886
0.8101094
0.8094359
0.8072953
0.8169435
0.8156373
0.8144115
0.8133382
0.8124712
0.8118463
0.811481
0.8113645
0.8114549
0.8116501
0.8117995
0.8114773
0.8111705
0.8107335
0.8100238
0.8081664
0.8182342
0.816966
0.8157769
0.8147365
0.8138956
0.8132879
0.812928
0.812806
0.8128752
0.8130458
0.813156
0.8128364
0.8125117
0.8122007
0.8117648
0.8112429
0.8084594
0.8195318
0.8183083
0.8171664
0.8161697
0.8153655
0.814786
0.814447
0.8143422
0.8144345
0.8146353
0.8147889
0.8144998
0.8142229
0.8139344
0.8136541
0.8134007
0.8120637
0.8093191
0.820824
0.8196504
0.8185625
0.8176164
0.8168551
0.8163104
0.8160021
0.8159343
0.8160863
0.8163904
0.8166763
0.8164917
0.8162938
0.8160887
0.8158547
0.8157546
0.8147791
0.8135407
0.8108546
0.8220901
0.8209672
0.8199348
0.8190395
0.8183208
0.8178105
0.8175345
0.8175123
0.8177564
0.8182543
0.8188673
0.8188815
0.8188381
0.8187354
0.8185927
0.8185324
0.8177782
0.8169384
0.8158508
0.8132943
0.8233017
0.8222248
0.8212392
0.8203859
0.8197007
0.8192162
0.8189624
0.8189739
0.8193072
0.8200896
0.8216667
0.8219959
0.8220941
0.8220684
0.8219743
0.8219794
0.8213243
0.8207313
0.8200836
0.8192129
0.816981
0.827503
0.8268884
0.8264516
0.8261385
0.8259344
0.8259518
0.8254109
0.8249292
0.8245363
0.8241287
0.8235831
0.8217832
0.8312782
0.8306117
0.8300903
0.8297138
0.8294874
0.8295312
0.829061
0.8286674
0.8283555
0.8281573
0.8280249
0.827753
0.8262983
0.834028
0.8333919
0.832883
0.832513
0.8322977
0.8323527
0.8319255
0.8315632
0.8312908
0.8311179
0.8311183
0.8311798
0.8310583
0.8298617
0.8360047
0.8353936
0.8349009
0.8345405
0.8343284
0.8343767
0.8339591
0.8336005
0.8333148
0.833128
0.8330905
0.8332079
0.833342
0.8333022
0.8322538
0.8373128
0.8367101
0.8362199
0.8358549
0.8356306
0.8356524
0.8352216
0.8348387
0.8345184
0.8342753
0.8341716
0.8341937
0.8343179
0.8344618
0.8344312
0.820904
0.8182356
0.8159438
0.8131347
0.8117801
0.8105325
0.809449
0.8085842
0.8079922
0.8077236
0.8078496
0.8084466
0.8097509
0.8121936
0.8126069
0.8110305
0.814471
0.8131377
0.8119052
0.810834
0.8099775
0.8093822
0.8090915
0.8091374
0.8095602
0.8103368
0.8113336
0.8114479
0.8112044
0.8092589
0.8157428
0.8144262
0.8132016
0.8121346
0.8112778
0.8106731
0.8103482
0.8103182
0.810561
0.8110163
0.8114666
0.8113776
0.8111525
0.8106188
0.8085401
0.8169891
0.8156931
0.8144813
0.8134225
0.8125689
0.8119574
0.8116083
0.8115171
0.8116493
0.8119081
0.8121345
0.8118729
0.8116273
0.8112499
0.8105917
0.8087342
0.8182342
0.816966
0.8157769
0.8147365
0.8138956
0.8132879
0.812928
0.812806
0.8128752
0.8130458
0.813156
0.8128364
0.8125117
0.8122007
0.8117648
0.8112429
0.8084594
0.8194889
0.8182559
0.817101
0.816091
0.8152743
0.8146826
0.8143286
0.8142009
0.8142551
0.8143983
0.8144835
0.8141422
0.8138143
0.8134781
0.8131546
0.8128628
0.8114912
0.8087516
0.8207517
0.8195609
0.8184502
0.8174813
0.8166991
0.8161341
0.8158003
0.8156907
0.815767
0.815945
0.8160686
0.8157671
0.8154614
0.8151607
0.8148439
0.8146735
0.8136252
0.8123118
0.80961
0.8220108
0.8208669
0.8198076
0.8188865
0.8181451
0.8176132
0.8173092
0.8172357
0.8173718
0.8176497
0.817906
0.8177008
0.8174813
0.8172377
0.8169795
0.8168202
0.815964
0.8150042
0.8137886
0.8111433
0.8232453
0.8221502
0.8211434
0.8202709
0.8195698
0.8190709
0.818798
0.8187694
0.8189955
0.819463
0.8200349
0.8200252
0.81995
0.8198146
0.8196223
0.8195169
0.8187309
0.8179884
0.8171637
0.8160976
0.8136381
0.8244287
0.8233765
0.8224149
0.8215819
0.8209131
0.8204386
0.8201875
0.820192
0.8205058
0.8212499
0.8227552
0.8230479
0.8231122
0.8230467
0.8229102
0.8228482
0.8221661
0.8215204
0.8209389
0.8203057
0.8195061
0.8173242
0.8284136
0.8277926
0.8273383
0.8269984
0.8267526
0.8267117
0.8261185
0.8255865
0.825115
0.8247343
0.8243866
0.8238715
0.8220304
0.8320907
0.8314176
0.8308815
0.8304797
0.8302164
0.8302008
0.8296844
0.8292223
0.828838
0.8285367
0.8283916
0.8282819
0.8279658
0.826459
0.8347801
0.8341363
0.8336125
0.8332188
0.832968
0.83297
0.8324969
0.8320772
0.8317231
0.83146
0.8313355
0.8313543
0.8313719
0.8311998
0.8299415
0.8367228
0.8361036
0.8355968
0.8352143
0.8349704
0.8349704
0.8345142
0.8341033
0.8337522
0.8334747
0.8333327
0.8333111
0.8333857
0.833471
0.8333737
0.838017
0.8374072
0.8369044
0.8365202
0.8362678
0.8362479
0.8357843
0.8353597
0.8349836
0.8346708
0.8344697
0.8343801
0.8343606
0.8344379
0.8345273
0.8247231
0.823124
0.8211785
0.8194811
0.8187239
0.8167892
0.8145404
0.8132303
0.8120251
0.810979
0.8101437
0.8095677
0.8093024
0.8094024
0.8099705
0.8111812
0.8135882
0.8142497
0.8143477
0.8127055
0.8158346
0.8145432
0.8133508
0.812315
0.811486
0.8109079
0.8106175
0.8106506
0.8110281
0.8117615
0.8126719
0.8128867
0.8129283
0.8126232
0.8107027
0.8170681
0.8157912
0.8146048
0.8135716
0.8127416
0.8121532
0.8118329
0.8117892
0.812008
0.8124123
0.8128292
0.8127107
0.8126031
0.8123563
0.8118103
0.8099802
0.8182783
0.81702
0.8158444
0.8148178
0.8139899
0.813395
0.8130506
0.8129527
0.8130618
0.8132927
0.8134752
0.8132117
0.8129423
0.8126843
0.8122976
0.8118147
0.8090271
0.8194889
0.8182559
0.817101
0.816091
0.8152743
0.8146826
0.8143286
0.8142009
0.8142551
0.8143983
0.8144835
0.8141422
0.8138143
0.8134781
0.8131546
0.8128628
0.8114912
0.8087516
0.82071
0.81951
0.8183868
0.817405
0.8166109
0.8160341
0.8156858
0.8155541
0.815594
0.8157171
0.8157756
0.815425
0.815072
0.8147277
0.8143724
0.8141687
0.8130864
0.8117387
0.8090428
0.8219404
0.8207799
0.8196986
0.8187555
0.817994
0.8174424
0.8171138
0.817
0.8170635
0.8172204
0.8173216
0.8170056
0.8166851
0.816353
0.8160201
0.8157988
0.8148809
0.8138488
0.8125588
0.8098999
0.8231681
0.8220525
0.8210197
0.8201222
0.8193993
0.8188795
0.8185796
0.8185015
0.8186234
0.8188792
0.8191086
0.8188899
0.8186486
0.8183823
0.8180844
0.8178916
0.8170164
0.8161723
0.8152282
0.8140352
0.8114909
0.8243737
0.8233039
0.8223216
0.82147
0.8207858
0.8202975
0.8200279
0.8199935
0.8202037
0.8206439
0.8211804
0.8211495
0.8210513
0.8208853
0.8206612
0.8205006
0.8197045
0.818928
0.8181971
0.8173875
0.8163943
0.8139903
0.8255295
0.8245017
0.8235617
0.8227484
0.8220945
0.8216298
0.8213812
0.8213796
0.8216757
0.8223854
0.8238255
0.8240874
0.8241224
0.824027
0.8238528
0.8237442
0.8230256
0.8223515
0.8217153
0.8211451
0.8205728
0.8198063
0.8175857
0.8293183
0.8286933
0.8282264
0.8278645
0.8275881
0.827497
0.8268708
0.8262855
0.8257623
0.8253011
0.8249743
0.8246504
0.824091
0.8221985
0.8329026
0.8322255
0.8316782
0.831257
0.8309635
0.8309016
0.8303476
0.8298385
0.8293847
0.8290096
0.8287572
0.8286312
0.8284773
0.8281103
0.8265413
0.8355344
0.8348851
0.8343497
0.833937
0.8336578
0.8336154
0.8331085
0.8326422
0.8322299
0.8318842
0.8316663
0.8315579
0.8315337
0.8315023
0.8312722
0.8374438
0.8368187
0.8363005
0.8359001
0.8356298
0.8355898
0.8351028
0.8346527
0.8342487
0.8339051
0.8336698
0.833542
0.8334787
0.8335063
0.8335368
0.838724
0.8381088
0.8375959
0.8371955
0.8369198
0.8368645
0.8363752
0.8359173
0.835499
0.8351298
0.8348567
0.8346684
0.8345385
0.8344737
0.8344992
0.8271976
0.82653
0.8249373
0.8240251
0.8233671
0.8216897
0.8204064
0.8199309
0.8194568
0.8177728
0.8159016
0.8146326
0.8134664
0.8124546
0.8116458
0.811086
0.8108198
0.8109041
0.8114195
0.8125619
0.8147988
0.8155085
0.8158544
0.8157833
0.8141202
0.817157
0.8159044
0.8147489
0.8137457
0.8129422
0.8123791
0.8120917
0.8121083
0.812455
0.8131226
0.8139723
0.8141342
0.8142653
0.814228
0.8138622
0.8121391
0.818355
0.817115
0.8159639
0.8149619
0.8141565
0.8135837
0.813267
0.8132145
0.813406
0.8137752
0.8141373
0.8140064
0.8138627
0.8137205
0.8134394
0.8130413
0.8102731
0.8195318
0.8183083
0.8171664
0.8161697
0.8153655
0.814786
0.814447
0.8143422
0.8144345
0.8146353
0.8147889
0.8144998
0.8142229
0.8139344
0.8136541
0.8134007
0.8120637
0.8093191
0.82071
0.81951
0.8183868
0.817405
0.8166109
0.8160341
0.8156858
0.8155541
0.815594
0.8157171
0.8157756
0.815425
0.815072
0.8147277
0.8143724
0.8141687
0.8130864
0.8117387
0.8090428
0.8218998
0.8207304
0.819637
0.8186815
0.8179084
0.8173455
0.817003
0.816868
0.8168964
0.8170007
0.8170398
0.8166774
0.8163125
0.8159402
0.8155726
0.8153221
0.8143752
0.8133092
0.8119854
0.8093333
0.8230995
0.8219679
0.8209137
0.8199949
0.8192525
0.8187138
0.8183902
0.8182732
0.8183252
0.8184647
0.8185455
0.8182215
0.8178848
0.817536
0.8171698
0.816922
0.8159931
0.8150876
0.8140715
0.812805
0.8102494
0.8242985
0.8232087
0.8222012
0.8213255
0.8206201
0.8201116
0.8198158
0.8197337
0.8198433
0.8200794
0.8202863
0.8200557
0.8198001
0.8195115
0.8191903
0.818951
0.818077
0.8172117
0.8163795
0.815451
0.8143322
0.811847
0.8254759
0.8244308
0.8234708
0.8226395
0.8219706
0.8214925
0.8212261
0.8211869
0.8213827
0.8217986
0.8223032
0.8222554
0.8221372
0.8219495
0.821696
0.8214992
0.8206789
0.8198908
0.8191238
0.8184044
0.8176564
0.816698
0.8142586
0.8266072
0.8256008
0.8246823
0.8238867
0.8232473
0.8227916
0.8225457
0.8225385
0.8228187
0.8234969
0.8248779
0.8251127
0.8251237
0.8250029
0.8248011
0.8246514
0.8239136
0.8232019
0.8225358
0.8219089
0.8213931
0.8208461
0.8200347
0.8177635
0.8302158
0.8295889
0.8291124
0.8287338
0.828432
0.8283028
0.8276494
0.8270303
0.8264527
0.8259385
0.8255267
0.8252197
0.8248511
0.8242401
0.8222846
0.8337125
0.8330332
0.8324777
0.832041
0.8317236
0.831623
0.8310426
0.8304952
0.8299936
0.829548
0.8292185
0.8289827
0.8288133
0.8286099
0.8281842
0.8362892
0.8356363
0.8350919
0.8346638
0.8343611
0.8342822
0.8337487
0.8332482
0.8327886
0.8323839
0.8320807
0.8318771
0.8317269
0.8316554
0.8315689
0.8381665
0.837537
0.8370098
0.8365945
0.8363022
0.8362284
0.8357175
0.8352362
0.8347924
0.8343952
0.8340916
0.8338691
0.8337009
0.8335923
0.8335678
0.8394326
0.8388133
0.838292
0.8378783
0.8375828
0.8374974
0.8369875
0.8365036
0.8360515
0.8356395
0.835308
0.8350467
0.8348192
0.8346457
0.8345314
0.8284217
0.8287471
0.8273958
0.8271948
0.8267237
0.8253588
0.8246613
0.8242488
0.8238216
0.8223979
0.8212306
0.8208258
0.8206049
0.8203161
0.8188273
0.817222
0.8159908
0.8148606
0.8138803
0.8130961
0.8125506
0.8122863
0.8123517
0.8128294
0.8138857
0.8159893
0.8166084
0.8170055
0.8171738
0.8170065
0.8155199
0.8184412
0.8172246
0.8161032
0.8151301
0.8143501
0.8138016
0.8135163
0.8135215
0.8138351
0.8144547
0.8152268
0.8153567
0.8154314
0.8154741
0.8153585
0.8151009
0.8124307
0.8196063
0.8184005
0.8172821
0.8163091
0.8155266
0.8149683
0.8146558
0.8145946
0.8147657
0.8150982
0.8154223
0.8152573
0.8150961
0.8149123
0.8147246
0.8145527
0.8132916
0.8105645
0.8207517
0.8195609
0.8184502
0.8174813
0.8166991
0.8161341
0.8158003
0.8156907
0.815767
0.815945
0.8160686
0.8157671
0.8154614
0.8151607
0.8148439
0.8146735
0.8136252
0.8123118
0.80961
0.8218998
0.8207304
0.819637
0.8186815
0.8179084
0.8173455
0.817003
0.816868
0.8168964
0.8170007
0.8170398
0.8166774
0.8163125
0.8159402
0.8155726
0.8153221
0.8143752
0.8133092
0.8119854
0.8093333
0.82306
0.8219198
0.8208538
0.819923
0.8191695
0.8186198
0.8182828
0.8181454
0.8181636
0.8182526
0.8182739
0.8179058
0.8175274
0.8171412
0.8167431
0.8164694
0.8155155
0.814581
0.8135313
0.8122312
0.8096837
0.8242316
0.8231263
0.8220981
0.8212017
0.8204774
0.8199507