/*--------------------------------*- C++ -*----------------------------------*\
| =========                 |                                                 |
| \\      /  F ield         | OpenFOAM: The Open Source CFD Toolbox           |
|  \\    /   O peration     | Version:  2306                                  |
|   \\  /    A nd           | Website:  www.openfoam.com                      |
|    \\/     M anipulation  |                                                 |
\*---------------------------------------------------------------------------*/
FoamFile
{
    version     2.0;
    format      ascii;
    arch        "LSB;label=32;scalar=64";
    class       volScalarField;
    location    "0.6/air";
    object      X.O2;
}
// * * * * * * * * * * * * * * * * * * * * * * * * * * * * * * * * * * * * * //

dimensions      [0 0 0 0 0 0 0];

internalField   nonuniform List<scalar> 
16000
(
0.2070576
0.2070626
0.2061701
0.2070262
0.20707
0.2062459
0.2070337
0.2043103
0.2060679
0.2069534
0.207077
0.2063439
0.2070439
0.2044117
0.2061709
0.2069676
0.202298
0.2041782
0.2058005
0.2068151
0.2070811
0.2064268
0.2070532
0.2045501
0.2062965
0.2069847
0.2024026
0.2043104
0.2059421
0.2068454
0.2002908
0.2021595
0.2038485
0.2053032
0.2065611
0.2070811
0.2064732
0.2070587
0.2046727
0.206399
0.2069997
0.202546
0.204483
0.2061132
0.2068787
0.2003928
0.2022947
0.2040178
0.2054861
0.2066211
0.1983493
0.2001555
0.2018163
0.203262
0.2045143
0.2060963
0.1715783
0.207077
0.2064732
0.2070587
0.2047431
0.206455
0.2070081
0.2026737
0.204632
0.2062502
0.206904
0.2005327
0.2024722
0.204236
0.2057124
0.2066898
0.1984468
0.200287
0.2019866
0.2034661
0.2047353
0.2061952
0.1964907
0.1982194
0.199821
0.201212
0.2023688
0.203386
0.2053033
0.1728024
0.1701534
0.1713846
0.20707
0.2064268
0.2070532
0.2047431
0.206455
0.2070081
0.2027474
0.2047164
0.2063243
0.2069174
0.2006573
0.2026264
0.2044223
0.2058973
0.2067427
0.1985804
0.2004597
0.2022073
0.2037301
0.2050162
0.2063219
0.1965835
0.1983449
0.1999856
0.2014126
0.2026031
0.2036437
0.2054441
0.1947153
0.1963671
0.1978986
0.1992345
0.2003038
0.2011289
0.2018592
0.2040302
0.1752769
0.1712529
0.1726042
0.1697159
0.1699759
0.170998
0.2070626
0.2063439
0.2070439
0.2046727
0.206399
0.2069997
0.2027474
0.2047164
0.2063243
0.2069174
0.2007291
0.2027142
0.2045271
0.2059981
0.206771
0.1986993
0.2006095
0.202397
0.2039555
0.2052509
0.2064278
0.1967107
0.1985096
0.2001985
0.2016732
0.2029086
0.2039748
0.2056352
0.1948037
0.1964866
0.1980553
0.1994264
0.2005276
0.2013898
0.202165
0.2042438
0.1930173
0.1945975
0.1960618
0.1973368
0.1983578
0.1990628
0.1995103
0.1998653
0.2020459
0.179096
0.17347
0.1750627
0.1707403
0.1710718
0.1722094
0.1694725
0.1695516
0.1696213
0.1704197
0.2070576
0.2062459
0.2070337
0.2045501
0.2062965
0.2069847
0.2026737
0.204632
0.2062502
0.206904
0.2007291
0.2027142
0.2045271
0.2059981
0.206771
0.1987679
0.2006948
0.2025044
0.2040823
0.2053808
0.2064866
0.1968239
0.1986525
0.2003814
0.2018974
0.203171
0.2042547
0.2058003
0.1949248
0.1966433
0.1982578
0.1996752
0.2008208
0.2017338
0.2025616
0.2045349
0.1931017
0.1947113
0.1962108
0.1975188
0.1985694
0.1993049
0.1998023
0.2002484
0.2024472
0.1913896
0.1929049
0.1943066
0.1955273
0.1964984
0.1971669
0.1974709
0.1974827
0.1973177
0.1989239
0.1846235
0.176876
0.1788215
0.1728052
0.1732763
0.1746412
0.170433
0.170573
0.1707112
0.1716212
0.169216
0.1693188
0.1692236
0.1690908
0.1696512
0.2061701
0.2070262
0.2044117
0.2061709
0.2069676
0.202546
0.204483
0.2061132
0.2068787
0.2006573
0.2026264
0.2044223
0.2058973
0.2067427
0.1987679
0.2006948
0.2025044
0.2040823
0.2053808
0.2064866
0.1968891
0.1987339
0.2004849
0.2020243
0.203319
0.2044112
0.2058936
0.1950325
0.1967792
0.1984318
0.199889
0.2010745
0.2020311
0.2028985
0.2047829
0.1932173
0.1948605
0.1964034
0.1977546
0.1988461
0.1996259
0.2001904
0.20074
0.2029314
0.1914704
0.1930136
0.1944485
0.1957004
0.1966984
0.1973936
0.1977357
0.1978338
0.1978754
0.1998888
0.1898255
0.1912821
0.1926273
0.1937972
0.1947302
0.1953621
0.1956485
0.1955119
0.1949954
0.1940518
0.1936468
0.1817644
0.1840562
0.1759749
0.1766329
0.1783103
0.1723687
0.1726266
0.1728949
0.1740228
0.1701231
0.1702766
0.1702397
0.1701735
0.1708425
0.1688552
0.1690709
0.1690118
0.1687326
0.1683854
0.1685416
0.2043103
0.2060679
0.2069534
0.2024026
0.2043104
0.2059421
0.2068454
0.2005327
0.2024722
0.204236
0.2057124
0.2066898
0.1986993
0.2006095
0.202397
0.2039555
0.2052509
0.2064278
0.1968891
0.1987339
0.2004849
0.2020243
0.203319
0.2044112
0.2058936
0.1950946
0.1968566
0.1985302
0.2000098
0.2012185
0.2021993
0.2030874
0.2049216
0.1933201
0.1949899
0.1965687
0.1979572
0.199085
0.1999054
0.2005265
0.2011528
0.2033115
0.191581
0.193156
0.1946319
0.1959243
0.1969597
0.1976934
0.1980901
0.1982936
0.198535
0.2007509
0.189903
0.1913861
0.1927629
0.1939621
0.1949202
0.1955757
0.1958951
0.1958283
0.1955022
0.1951005
0.1964398
0.1883191
0.1897224
0.1910164
0.1921412
0.1930374
0.1936502
0.1939166
0.1937894
0.193147
0.1919117
0.1896177
0.1910157
0.1805189
0.1812761
0.1832108
0.1753387
0.1757512
0.1761784
0.1776021
0.1719508
0.1722019
0.1722748
0.1723341
0.1732167
0.1697157
0.1699755
0.1699649
0.1697426
0.169461
0.1697222
0.1684147
0.1687177
0.1687813
0.1685522
0.1680796
0.1673662
0.1683128
0.202298
0.2041782
0.2058005
0.2068151
0.2003928
0.2022947
0.2040178
0.2054861
0.2066211
0.1985804
0.2004597
0.2022073
0.2037301
0.2050162
0.2063219
0.1968239
0.1986525
0.2003814
0.2018974
0.203171
0.2042547
0.2058003
0.1950946
0.1968566
0.1985302
0.2000098
0.2012185
0.2021993
0.2030874
0.2049216
0.1933793
0.1950635
0.1966622
0.1980717
0.1992205
0.2000646
0.2007166
0.2013822
0.2035146
0.1916793
0.1932794
0.1947892
0.1961165
0.1971852
0.1979539
0.1983992
0.1986856
0.1990609
0.2013357
0.1900091
0.1915223
0.1929379
0.1941753
0.1951681
0.195858
0.1962242
0.1962454
0.1961083
0.1960792
0.1979159
0.1883936
0.1898222
0.1911462
0.1922987
0.1932185
0.1938532
0.1941487
0.1940845
0.1936097
0.1928772
0.1922162
0.1942996
0.1868653
0.1882199
0.1894675
0.190551
0.1914158
0.1920078
0.1922764
0.1921504
0.1915534
0.1902491
0.1878064
0.1873931
0.1889695
0.1795936
0.1800691
0.1805432
0.1822272
0.1747544
0.1751302
0.1753332
0.1755459
0.1767266
0.1714491
0.1717936
0.1718734
0.1717576
0.1716018
0.1720726
0.1692345
0.1695757
0.1696816
0.1695
0.1690839
0.168435
0.1694913
0.1679013
0.1682836
0.1684429
0.1683477
0.167941
0.1671361
0.1671561
0.1680821
0.2002908
0.2021595
0.2038485
0.2053032
0.2065611
0.1984468
0.200287
0.2019866
0.2034661
0.2047353
0.2061952
0.1967107
0.1985096
0.2001985
0.2016732
0.2029086
0.2039748
0.2056352
0.1950325
0.1967792
0.1984318
0.199889
0.2010745
0.2020311
0.2028985
0.2047829
0.1933793
0.1950635
0.1966622
0.1980717
0.1992205
0.2000646
0.2007166
0.2013822
0.2035146
0.191736
0.1933497
0.1948781
0.1962251
0.197313
0.198102
0.1985752
0.1989051
0.1993447
0.2016268
0.1901035
0.1916405
0.1930881
0.1943583
0.1953819
0.1961031
0.1965105
0.196603
0.1965957
0.1967743
0.1987672
0.1884957
0.189953
0.1913138
0.1925024
0.1934547
0.194121
0.1944582
0.1944722
0.1941645
0.1937797
0.1936922
0.1960914
0.1869371
0.1883159
0.1895921
0.1907019
0.191589
0.1922014
0.1924972
0.1924285
0.1919873
0.1911456
0.1902183
0.1904069
0.192403
0.1854596
0.1867697
0.1879749
0.189021
0.1898563
0.1904323
0.1906976
0.1905976
0.1900295
0.1888188
0.1864118
0.1857503
0.1856523
0.1872945
0.1787694
0.1791742
0.1793951
0.1796839
0.1811727
0.1741077
0.1745581
0.1747403
0.1747515
0.1747604
0.175538
0.1708861
0.1713001
0.171484
0.1713903
0.1710821
0.1705604
0.1718369
0.1686849
0.1691012
0.169297
0.1692431
0.1688837
0.1681351
0.1682235
0.1692584
0.1673366
0.167776
0.1680218
0.1680314
0.1677709
0.1670577
0.1669416
0.1669442
0.1678494
0.1983493
0.2001555
0.2018163
0.203262
0.2045143
0.2060963
0.1965835
0.1983449
0.1999856
0.2014126
0.2026031
0.2036437
0.2054441
0.1949248
0.1966433
0.1982578
0.1996752
0.2008208
0.2017338
0.2025616
0.2045349
0.1933201
0.1949899
0.1965687
0.1979572
0.199085
0.1999054
0.2005265
0.2011528
0.2033115
0.191736
0.1933497
0.1948781
0.1962251
0.197313
0.198102
0.1985752
0.1989051
0.1993447
0.2016268
0.1901579
0.1917078
0.193173
0.1944617
0.195503
0.1962424
0.1966732
0.196804
0.1968601
0.1971298
0.1991649
0.1885864
0.1900663
0.1914575
0.1926771
0.1936583
0.1943533
0.1947275
0.1948036
0.1946114
0.1944228
0.1945905
0.1970993
0.1870354
0.1884417
0.189753
0.1908971
0.1918149
0.1924568
0.1927913
0.1927939
0.1925059
0.1919821
0.191589
0.1921415
0.1943997
0.185529
0.1868623
0.1880948
0.189166
0.1900225
0.1906178
0.1909085
0.1908626
0.1904398
0.1896632
0.1886664
0.1885521
0.1887956
0.1907411
0.1840984
0.1853674
0.1865336
0.1875454
0.1883542
0.188914
0.1891802
0.1890959
0.1885805
0.1874381
0.1852012
0.1844915
0.1841456
0.1842167
0.1858798
0.1779142
0.1783747
0.1785461
0.178606
0.178755
0.1799013
0.1734188
0.1739218
0.1741911
0.1741979
0.1740291
0.1736893
0.1752935
0.1702635
0.1707442
0.1710067
0.1710288
0.1707591
0.1701212
0.1703458
0.1715993
0.1680878
0.1685575
0.1688357
0.168881
0.1686618
0.167996
0.1679395
0.1680102
0.1690236
0.166731
0.1672164
0.1675256
0.1676297
0.1674841
0.1669373
0.1668755
0.1667454
0.1667305
0.1676148
0.1964907
0.1982194
0.199821
0.201212
0.2023688
0.203386
0.2053033
0.1948037
0.1964866
0.1980553
0.1994264
0.2005276
0.2013898
0.202165
0.2042438
0.1932173
0.1948605
0.1964034
0.1977546
0.1988461
0.1996259
0.2001904
0.20074
0.2029314
0.1916793
0.1932794
0.1947892
0.1961165
0.1971852
0.1979539
0.1983992
0.1986856
0.1990609
0.2013357
0.1901579
0.1917078
0.193173
0.1944617
0.195503
0.1962424
0.1966732
0.196804
0.1968601
0.1971298
0.1991649
0.1886388
0.1901309
0.1915388
0.1927758
0.1937736
0.1944853
0.1948804
0.1949895
0.1948543
0.1947526
0.1950238
0.1975614
0.1871229
0.1885508
0.189891
0.1910644
0.1920094
0.1926783
0.1930468
0.1931062
0.1929224
0.1925777
0.1924244
0.1931628
0.1955268
0.1856239
0.1869835
0.1882495
0.1893534
0.190239
0.1908623
0.1911893
0.1912103
0.1909302
0.1904495
0.1899453
0.1901664
0.1907004
0.1928541
0.1841654
0.1854568
0.1866492
0.187685
0.188514
0.1890921
0.1893825
0.1893494
0.1889719
0.1882385
0.1873281
0.1871133
0.1870717
0.1873768
0.1892973
0.182778
0.1840092
0.1851394
0.1861197
0.1869039
0.1874494
0.1877137
0.1876483
0.1871706
0.1861143
0.1840107
0.1833916
0.1829945
0.1828262
0.1829935
0.1844801
0.1770445
0.1775406
0.1777836
0.177811
0.1777542
0.1776259
0.179641
0.1726841
0.1732418
0.1735742
0.1736804
0.1735241
0.1730442
0.173469
0.1750475
0.1696011
0.170128
0.1704648
0.1705751
0.170434
0.1698613
0.1699233
0.1701295
0.1713599
0.167453
0.1679657
0.1683036
0.1684394
0.1683296
0.1678245
0.167813
0.1677423
0.1677952
0.1687869
0.1660964
0.1666155
0.1669763
0.1671507
0.1671081
0.1666931
0.1667655
0.1666919
0.1665476
0.1665151
0.1673285
0.1947153
0.1963671
0.1978986
0.1992345
0.2003038
0.2011289
0.2018592
0.2040302
0.1931017
0.1947113
0.1962108
0.1975188
0.1985694
0.1993049
0.1998023
0.2002484
0.2024472
0.191581
0.193156
0.1946319
0.1959243
0.1969597
0.1976934
0.1980901
0.1982936
0.198535
0.2007509
0.1901035
0.1916405
0.1930881
0.1943583
0.1953819
0.1961031
0.1965105
0.196603
0.1965957
0.1967743
0.1987672
0.1886388
0.1901309
0.1915388
0.1927758
0.1937736
0.1944853
0.1948804
0.1949895
0.1948543
0.1947526
0.1950238
0.1975614
0.1871733
0.1886128
0.1899689
0.191159
0.1921196
0.1928041
0.1931917
0.1932814
0.1931484
0.1928832
0.192828
0.1936451
0.1960401
0.1857083
0.1870886
0.1883822
0.1895141
0.1904256
0.1910743
0.1914332
0.1915071
0.191324
0.1910081
0.1907237
0.1911183
0.1918176
0.1940598
0.1842572
0.1855738
0.1867984
0.1878654
0.1887222
0.1893269
0.1896518
0.1896818
0.189439
0.1889837
0.1885334
0.1886224
0.1888475
0.1893812
0.1914599
0.182843
0.1840956
0.1852511
0.1862543
0.1870578
0.1876209
0.1879083
0.1878917
0.187545
0.1868774
0.1860277
0.1858658
0.1857347
0.185772
0.1861378
0.1878609
0.1814958
0.1826917
0.1837887
0.1847398
0.1855013
0.186033
0.1862962
0.1862443
0.1858053
0.1848154
0.1828511
0.1822967
0.1819818
0.1817652
0.1817058
0.1817712
0.1841959
0.176149
0.176689
0.176981
0.177092
0.1770178
0.1767203
0.1773947
0.1793804
0.1719216
0.1725151
0.1729111
0.1730905
0.1730461
0.1726055
0.1728416
0.1732473
0.1748001
0.1689071
0.1694713
0.169861
0.1700539
0.1700112
0.1695877
0.1696763
0.1697237
0.1699116
0.1711187
0.1667916
0.1673356
0.1677223
0.1679248
0.167914
0.1675352
0.1676518
0.1676285
0.1675434
0.1675784
0.1684981
0.1654394
0.1659851
0.1663848
0.1666169
0.166652
0.1663543
0.16653
0.1665921
0.1665066
0.1663481
0.1662522
0.1670356
0.1930173
0.1945975
0.1960618
0.1973368
0.1983578
0.1990628
0.1995103
0.1998653
0.2020459
0.1914704
0.1930136
0.1944485
0.1957004
0.1966984
0.1973936
0.1977357
0.1978338
0.1978754
0.1998888
0.1900091
0.1915223
0.1929379
0.1941753
0.1951681
0.195858
0.1962242
0.1962454
0.1961083
0.1960792
0.1979159
0.1885864
0.1900663
0.1914575
0.1926771
0.1936583
0.1943533
0.1947275
0.1948036
0.1946114
0.1944228
0.1945905
0.1970993
0.1871733
0.1886128
0.1899689
0.191159
0.1921196
0.1928041
0.1931917
0.1932814
0.1931484
0.1928832
0.192828
0.1936451
0.1960401
0.185757
0.1871484
0.1884573
0.1896049
0.1905312
0.1911946
0.1915716
0.1916734
0.1915376
0.1912941
0.1910995
0.1915683
0.1923402
0.1946085
0.1843389
0.1856752
0.1869263
0.1880201
0.1889015
0.1895304
0.1898855
0.1899655
0.1898139
0.1895129
0.1892661
0.1895114
0.1898906
0.1905641
0.1927047
0.1829319
0.1842088
0.1853952
0.1864284
0.1872584
0.1878468
0.1881671
0.1882108
0.187992
0.1875877
0.1871708
0.1872893
0.1873969
0.1876437
0.1881897
0.1900198
0.1815588
0.1827754
0.1838968
0.1848699
0.1856499
0.1861984
0.1864837
0.1864785
0.1861649
0.1855453
0.1847732
0.1846433
0.1845686
0.1845259
0.1846415
0.1848991
0.1875693
0.1802489
0.1814121
0.1824782
0.1834023
0.1841426
0.1846615
0.1849225
0.1848835
0.1844754
0.1835493
0.1816979
0.1812194
0.1809618
0.1808251
0.1807229
0.1805913
0.181523
0.1839135
0.1752428
0.1758096
0.1761567
0.1763264
0.1763461
0.1760557
0.1765086
0.1771631
0.1791194
0.1711368
0.1717597
0.1721993
0.1724508
0.1724897
0.1721814
0.1724166
0.1726377
0.1730242
0.1745512
0.168192
0.1687824
0.1692154
0.1694683
0.1695168
0.169209
0.1694134
0.1694898
0.1695226
0.169692
0.1708246
0.1661102
0.1666786
0.1671017
0.1673591
0.1674226
0.1671572
0.1673715
0.1674778
0.1674424
0.1673429
0.1673139
0.1682025
0.1647663
0.1653321
0.1657629
0.1660394
0.1661387
0.1659312
0.1661989
0.1663655
0.1664174
0.1663199
0.1661047
0.1659832
0.1668125
0.1913896
0.1929049
0.1943066
0.1955273
0.1964984
0.1971669
0.1974709
0.1974827
0.1973177
0.1989239
0.189903
0.1913861
0.1927629
0.1939621
0.1949202
0.1955757
0.1958951
0.1958283
0.1955022
0.1951005
0.1964398
0.1884957
0.189953
0.1913138
0.1925024
0.1934547
0.194121
0.1944582
0.1944722
0.1941645
0.1937797
0.1936922
0.1960914
0.1871229
0.1885508
0.189891
0.1910644
0.1920094
0.1926783
0.1930468
0.1931062
0.1929224
0.1925777
0.1924244
0.1931628
0.1955268
0.185757
0.1871484
0.1884573
0.1896049
0.1905312
0.1911946
0.1915716
0.1916734
0.1915376
0.1912941
0.1910995
0.1915683
0.1923402
0.1946085
0.1843859
0.1857329
0.1869986
0.1881074
0.189003
0.1896458
0.190018
0.1901246
0.1900171
0.1897839
0.1896194
0.1899316
0.1903791
0.1911156
0.1932717
0.1830109
0.1843069
0.1855187
0.1865775
0.1874311
0.1880426
0.1883917
0.1884829
0.1883507
0.1880919
0.1878655
0.1881271
0.1883727
0.1887501
0.1894083
0.1912658
0.181645
0.182885
0.1840361
0.1850381
0.1858435
0.1864163
0.186733
0.1867855
0.186594
0.1862248
0.1858627
0.1859936
0.1861373
0.1862795
0.1865606
0.1869587
0.1897269
0.18031
0.1814932
0.1825828
0.1835282
0.1842863
0.1848213
0.1851035
0.1851094
0.1848214
0.1842497
0.1835356
0.1834556
0.1834156
0.1834319
0.1834758
0.1835168
0.1846475
0.1872795
0.1790351
0.1801676
0.1812051
0.1821039
0.1828246
0.1833313
0.1835902
0.1835615
0.1831819
0.1823088
0.1805617
0.1801393
0.1799491
0.179867
0.1798452
0.1796878
0.1803649
0.1812762
0.183633
0.174328
0.1749178
0.1753013
0.175534
0.1756204
0.1754416
0.1758587
0.1762965
0.176931
0.178858
0.1703391
0.1709814
0.1714571
0.1717596
0.171879
0.1716706
0.1720036
0.1722265
0.1724326
0.1727998
0.1742482
0.1674612
0.1680718
0.1685365
0.168839
0.168955
0.1687528
0.1690437
0.1692377
0.1693019
0.16932
0.1694242
0.1705235
0.1654145
0.1660011
0.1664533
0.1667527
0.1668776
0.166699
0.1670012
0.1672064
0.1673023
0.1672548
0.1670984
0.1670434
0.1679774
0.1640811
0.1646625
0.1651177
0.1654302
0.1655797
0.1654475
0.1657826
0.1660421
0.1661997
0.1662411
0.166092
0.1658558
0.1657787
0.166661
0.1898255
0.1912821
0.1926273
0.1937972
0.1947302
0.1953621
0.1956485
0.1955119
0.1949954
0.1940518
0.1936468
0.1883936
0.1898222
0.1911462
0.1922987
0.1932185
0.1938532
0.1941487
0.1940845
0.1936097
0.1928772
0.1922162
0.1942996
0.1870354
0.1884417
0.189753
0.1908971
0.1918149
0.1924568
0.1927913
0.1927939
0.1925059
0.1919821
0.191589
0.1921415
0.1943997
0.1857083
0.1870886
0.1883822
0.1895141
0.1904256
0.1910743
0.1914332
0.1915071
0.191324
0.1910081
0.1907237
0.1911183
0.1918176
0.1940598
0.1843859
0.1857329
0.1869986
0.1881074
0.189003
0.1896458
0.190018
0.1901246
0.1900171
0.1897839
0.1896194
0.1899316
0.1903791
0.1911156
0.1932717
0.1830565
0.1843627
0.1855885
0.1866618
0.1875288
0.1881537
0.188519
0.1886355
0.1885451
0.1883499
0.1882005
0.1885227
0.1888295
0.1892665
0.1899762
0.1918336
0.1817217
0.18298
0.1841556
0.1851822
0.1860101
0.186605
0.1869494
0.1870473
0.1869382
0.1867073
0.1865248
0.1867883
0.1870577
0.1873157
0.1877024
0.1881853
0.1909729
0.1803937
0.1815995
0.1827179
0.1836909
0.1844734
0.1850317
0.1853442
0.1854054
0.1852343
0.1849018
0.1845777
0.1847427
0.1849039
0.1850877
0.1852754
0.1854473
0.1867084
0.1894355
0.1790946
0.1802464
0.1813066
0.1822259
0.1829637
0.1834859
0.1837652
0.1837798
0.1835156
0.1829824
0.182324
0.1822773
0.1822875
0.1823401
0.1824455
0.1824334
0.1832884
0.1843975
0.1869917
0.1778521
0.1789561
0.1799666
0.1808421
0.1815443
0.1820397
0.182296
0.1822766
0.1819213
0.1810966
0.1794387
0.1790682
0.1789261
0.1789075
0.1789399
0.1788731
0.1794775
0.18014
0.1810309
0.1833542
0.1734119
0.1740159
0.1744309
0.1747068
0.1748624
0.1747644
0.1752564
0.1756613
0.1760841
0.1766986
0.1785412
0.1695326
0.1701895
0.1706907
0.1710358
0.1712134
0.1710994
0.1715021
0.1718246
0.1720352
0.1722263
0.1725266
0.173938
0.1667201
0.1673453
0.1678352
0.1681749
0.1683471
0.1682249
0.1685954
0.1688771
0.1690606
0.1691126
0.1690729
0.1691502
0.1702942
0.1647084
0.1653091
0.1657838
0.1661172
0.1662899
0.1661839
0.1665499
0.1668439
0.1670399
0.1671253
0.167026
0.1668482
0.1668375
0.1678245
0.1633873
0.1639807
0.1644553
0.1647966
0.1649875
0.1649153
0.165305
0.1656327
0.1658841
0.1660324
0.1660261
0.1658591
0.1656666
0.1656398
0.1665834
0.1846235
0.1883191
0.1897224
0.1910164
0.1921412
0.1930374
0.1936502
0.1939166
0.1937894
0.193147
0.1919117
0.1896177
0.1910157
0.1869371
0.1883159
0.1895921
0.1907019
0.191589
0.1922014
0.1924972
0.1924285
0.1919873
0.1911456
0.1902183
0.1904069
0.192403
0.1856239
0.1869835
0.1882495
0.1893534
0.190239
0.1908623
0.1911893
0.1912103
0.1909302
0.1904495
0.1899453
0.1901664
0.1907004
0.1928541
0.1843389
0.1856752
0.1869263
0.1880201
0.1889015
0.1895304
0.1898855
0.1899655
0.1898139
0.1895129
0.1892661
0.1895114
0.1898906
0.1905641
0.1927047
0.1830565
0.1843627
0.1855885
0.1866618
0.1875288
0.1881537
0.188519
0.1886355
0.1885451
0.1883499
0.1882005
0.1885227
0.1888295
0.1892665
0.1899762
0.1918336
0.1817658
0.183034
0.1842231
0.1852635
0.1861044
0.1867121
0.187072
0.187194
0.1871248
0.1869542
0.186844
0.1871636
0.1874883
0.1877993
0.1882352
0.1887571
0.1915406
0.1804682
0.1816917
0.1828336
0.1838303
0.1846345
0.185214
0.185553
0.1856578
0.1855655
0.1853647
0.1852111
0.1855002
0.1857771
0.1860656
0.1863459
0.1865993
0.1879363
0.1906809
0.179176
0.1803496
0.1814375
0.1823836
0.1831449
0.1836896
0.1839979
0.1840657
0.1839137
0.1836096
0.1833237
0.1835083
0.1837062
0.1839113
0.1841453
0.1842454
0.1852209
0.1864593
0.1891454
0.1779099
0.1790328
0.1800652
0.1809605
0.1816792
0.1821895
0.1824655
0.1824877
0.1822436
0.1817457
0.1811327
0.1811185
0.1811619
0.1812646
0.1814073
0.1814676
0.1822218
0.1830616
0.1841492
0.1867057
0.1766983
0.1777752
0.1787608
0.1796141
0.1802993
0.1807838
0.1810376
0.1810261
0.1806928
0.1799104
0.1783333
0.1780041
0.1779059
0.1779316
0.1780257
0.1780206
0.1786757
0.1792687
0.1799164
0.1807871
0.183019
0.172497
0.1731116
0.1735484
0.1738615
0.1740656
0.1740482
0.1745891
0.1750708
0.1754637
0.1758713
0.1764169
0.1782168
0.1687218
0.1693883
0.1699097
0.1702862
0.1705126
0.1704688
0.170939
0.1713326
0.1716445
0.1718427
0.1719751
0.172247
0.1737017
0.165972
0.1666081
0.167117
0.167487
0.1677023
0.1676473
0.1680745
0.1684368
0.1687092
0.1688821
0.1688817
0.1688202
0.1689417
0.1701383
0.1639953
0.1646064
0.1650991
0.1654595
0.1656716
0.1656233
0.1660409
0.1663995
0.1666852
0.166872
0.1669095
0.1667921
0.166658
0.1666978
0.1677462
0.1626872
0.1632899
0.1637801
0.1641451
0.1643694
0.1643476
0.1647784
0.1651613
0.1654816
0.1657247
0.1658284
0.1658063
0.1656821
0.1655382
0.1655688
0.179096
0.1817644
0.1840562
0.1868653
0.1882199
0.1894675
0.190551
0.1914158
0.1920078
0.1922764
0.1921504
0.1915534
0.1902491
0.1878064
0.1873931
0.1889695
0.185529
0.1868623
0.1880948
0.189166
0.1900225
0.1906178
0.1909085
0.1908626
0.1904398
0.1896632
0.1886664
0.1885521
0.1887956
0.1907411
0.1842572
0.1855738
0.1867984
0.1878654
0.1887222
0.1893269
0.1896518
0.1896818
0.189439
0.1889837
0.1885334
0.1886224
0.1888475
0.1893812
0.1914599
0.1830109
0.1843069
0.1855187
0.1865775
0.1874311
0.1880426
0.1883917
0.1884829
0.1883507
0.1880919
0.1878655
0.1881271
0.1883727
0.1887501
0.1894083
0.1912658
0.1817658
0.183034
0.1842231
0.1852635
0.1861044
0.1867121
0.187072
0.187194
0.1871248
0.1869542
0.186844
0.1871636
0.1874883
0.1877993
0.1882352
0.1887571
0.1915406
0.1805111
0.1817441
0.182899
0.183909
0.1847257
0.1853174
0.1856714
0.1857991
0.1857449
0.1856017
0.1855165
0.1858578
0.1861857
0.1865219
0.1868454
0.1871372
0.1885088
0.1912484
0.1792483
0.1804391
0.1815498
0.1825187
0.1833009
0.1838659
0.1841997
0.1843093
0.184233
0.184055
0.1839314
0.1842329
0.1845386
0.1848393
0.1851561
0.1853265
0.1863748
0.1876882
0.19039
0.1779892
0.1791331
0.1801924
0.1811135
0.1818549
0.1823868
0.1826908
0.1827643
0.1826282
0.1823503
0.182094
0.1822992
0.1825187
0.1827623
0.1830205
0.1831798
0.184036
0.1849958
0.1862114
0.1888567
0.1767547
0.1778498
0.1788566
0.1797291
0.1804302
0.1809291
0.181202
0.1812306
0.1810045
0.180537
0.1799651
0.1799748
0.18005
0.1801854
0.1803777
0.1804831
0.1812691
0.1820116
0.1828363
0.1839024
0.1863619
0.1755713
0.1766235
0.1775851
0.1784181
0.1790869
0.1795614
0.1798125
0.179808
0.1794942
0.1787501
0.1772448
0.1769521
0.1768878
0.1769533
0.1770898
0.1771518
0.1778339
0.1784796
0.1790611
0.1796943
0.1804939
0.1826758
0.1715864
0.1722074
0.1726617
0.1730016
0.1732474
0.1732883
0.1738815
0.1744135
0.174885
0.1752657
0.1756134
0.1761285
0.1779696
0.1679093
0.1685824
0.1691185
0.1695203
0.1697836
0.1697992
0.1703156
0.1707777
0.171162
0.1714633
0.1716084
0.1717181
0.1720342
0.173541
0.1652199
0.1658637
0.1663875
0.1667812
0.167032
0.16703
0.1675031
0.1679228
0.1682769
0.16854
0.1686645
0.1686457
0.1686281
0.1688002
0.1700585
0.1632772
0.1638964
0.1644032
0.1647857
0.1650296
0.1650296
0.1654858
0.1658967
0.1662478
0.1665253
0.1666673
0.1666889
0.1666143
0.166529
0.1666263
0.161983
0.1625928
0.1630956
0.1634798
0.1637322
0.1637521
0.1642157
0.1646403
0.1650164
0.1653292
0.1655303
0.1656199
0.1656394
0.1655621
0.1654727
0.1752769
0.176876
0.1788215
0.1805189
0.1812761
0.1832108
0.1854596
0.1867697
0.1879749
0.189021
0.1898563
0.1904323
0.1906976
0.1905976
0.1900295
0.1888188
0.1864118
0.1857503
0.1856523
0.1872945
0.1841654
0.1854568
0.1866492
0.187685
0.188514
0.1890921
0.1893825
0.1893494
0.1889719
0.1882385
0.1873281
0.1871133
0.1870717
0.1873768
0.1892973
0.1829319
0.1842088
0.1853952
0.1864284
0.1872584
0.1878468
0.1881671
0.1882108
0.187992
0.1875877
0.1871708
0.1872893
0.1873969
0.1876437
0.1881897
0.1900198
0.1817217
0.18298
0.1841556
0.1851822
0.1860101
0.186605
0.1869494
0.1870473
0.1869382
0.1867073
0.1865248
0.1867883
0.1870577
0.1873157
0.1877024
0.1881853
0.1909729
0.1805111
0.1817441
0.182899
0.183909
0.1847257
0.1853174
0.1856714
0.1857991
0.1857449
0.1856017
0.1855165
0.1858578
0.1861857
0.1865219
0.1868454
0.1871372
0.1885088
0.1912484
0.17929
0.18049
0.1816132
0.182595
0.1833891
0.1839659
0.1843142
0.1844459
0.184406
0.1842829
0.1842244
0.184575
0.184928
0.1852723
0.1856276
0.1858313
0.1869136
0.1882613
0.1909572
0.1780596
0.1792201
0.1803014
0.1812445
0.182006
0.1825576
0.1828862
0.183
0.1829365
0.1827796
0.1826784
0.1829944
0.1833149
0.183647
0.1839799
0.1842012
0.1851191
0.1861512
0.1874412
0.1901001
0.1768319
0.1779475
0.1789803
0.1798778
0.1806007
0.1811205
0.1814204
0.1814985
0.1813766
0.1811208
0.1808914
0.1811101
0.1813514
0.1816177
0.1819156
0.1821084
0.1829836
0.1838277
0.1847718
0.1859648
0.1885091
0.1756263
0.1766961
0.1776784
0.17853
0.1792142
0.1797025
0.1799721
0.1800065
0.1797963
0.1793561
0.1788196
0.1788505
0.1789487
0.1791147
0.1793388
0.1794994
0.1802955
0.181072
0.1818029
0.1826125
0.1836057
0.1860097
0.1744705
0.1754983
0.1764383
0.1772516
0.1779055
0.1783702
0.1786188
0.1786204
0.1783243
0.1776146
0.1761745
0.1759126
0.1758776
0.175973
0.1761472
0.1762558
0.1769744
0.1776485
0.1782847
0.1788549
0.1794272
0.1801937
0.1824143
0.1706817
0.1713067
0.1717736
0.1721355
0.1724119
0.172503
0.1731292
0.1737145
0.1742377
0.1746989
0.1750257
0.1753496
0.175909
0.1778015
0.1670974
0.1677745
0.1683218
0.168743
0.1690365
0.1690984
0.1696524
0.1701615
0.1706153
0.1709904
0.1712428
0.1713688
0.1715227
0.1718897
0.1734587
0.1644656
0.1651149
0.1656503
0.166063
0.1663422
0.1663846
0.1668915
0.1673578
0.1677701
0.1681158
0.1683337
0.1684421
0.1684663
0.1684977
0.1687278
0.1625562
0.1631813
0.1636995
0.1640999
0.1643702
0.1644102
0.1648972
0.1653473
0.1657513
0.1660949
0.1663302
0.166458
0.1665213
0.1664937
0.1664632
0.161276
0.1618912
0.1624041
0.1628045
0.1630802
0.1631355
0.1636248
0.1640827
0.164501
0.1648702
0.1651433
0.1653316
0.1654615
0.1655263
0.1655008
0.1728024
0.17347
0.1750627
0.1759749
0.1766329
0.1783103
0.1795936
0.1800691
0.1805432
0.1822272
0.1840984
0.1853674
0.1865336
0.1875454
0.1883542
0.188914
0.1891802
0.1890959
0.1885805
0.1874381
0.1852012
0.1844915
0.1841456
0.1842167
0.1858798
0.182843
0.1840956
0.1852511
0.1862543
0.1870578
0.1876209
0.1879083
0.1878917
0.187545
0.1868774
0.1860277
0.1858658
0.1857347
0.185772
0.1861378
0.1878609
0.181645
0.182885
0.1840361
0.1850381
0.1858435
0.1864163
0.186733
0.1867855
0.186594
0.1862248
0.1858627
0.1859936
0.1861373
0.1862795
0.1865606
0.1869587
0.1897269
0.1804682
0.1816917
0.1828336
0.1838303
0.1846345
0.185214
0.185553
0.1856578
0.1855655
0.1853647
0.1852111
0.1855002
0.1857771
0.1860656
0.1863459
0.1865993
0.1879363
0.1906809
0.17929
0.18049
0.1816132
0.182595
0.1833891
0.1839659
0.1843142
0.1844459
0.184406
0.1842829
0.1842244
0.184575
0.184928
0.1852723
0.1856276
0.1858313
0.1869136
0.1882613
0.1909572
0.1781002
0.1792696
0.180363
0.1813185
0.1820916
0.1826545
0.182997
0.183132
0.1831036
0.1829993
0.1829602
0.1833226
0.1836875
0.1840598
0.1844274
0.1846779
0.1856248
0.1866908
0.1880146
0.1906667
0.1769005
0.1780321
0.1790863
0.1800051
0.1807475
0.1812862
0.1816098
0.1817268
0.1816748
0.1815353
0.1814545
0.1817785
0.1821152
0.182464
0.1828302
0.183078
0.1840069
0.1849124
0.1859285
0.187195
0.1897506
0.1757015
0.1767913
0.1777988
0.1786745
0.1793799
0.1798884
0.1801842
0.1802663
0.1801567
0.1799206
0.1797137
0.1799443
0.1801999
0.1804885
0.1808097
0.181049
0.181923
0.1827883
0.1836205
0.184549
0.1856678
0.188153
0.1745241
0.1755692
0.1765292
0.1773605
0.1780294
0.1785075
0.1787739
0.1788131
0.1786173
0.1782014
0.1776968
0.1777446
0.1778628
0.1780505
0.178304
0.1785008
0.1793211
0.1801092
0.1808762
0.1815956
0.1823436
0.183302
0.1857414
0.1733928
0.1743992
0.1753177
0.1761133
0.1767527
0.1772084
0.1774543
0.1774615
0.1771813
0.1765031
0.1751221
0.1748873
0.1748763
0.1749971
0.1751989
0.1753486
0.1760864
0.1767981
0.1774642
0.1780911
0.1786069
0.1791539
0.1799653
0.1822365
0.1697842
0.1704111
0.1708876
0.1712662
0.171568
0.1716972
0.1723506
0.1729697
0.1735473
0.1740615
0.1744733
0.1747803
0.1751489
0.1757599
0.1777154
0.1662875
0.1669668
0.1675223
0.167959
0.1682764
0.168377
0.1689574
0.1695048
0.1700064
0.170452
0.1707815
0.1710173
0.1711867
0.1713901
0.1718158
0.1637108
0.1643637
0.1649081
0.1653362
0.1656389
0.1657178
0.1662513
0.1667518
0.1672114
0.1676161
0.1679193
0.1681229
0.1682731
0.1683446
0.1684311
0.1618335
0.162463
0.1629902
0.1634055
0.1636978
0.1637716
0.1642825
0.1647638
0.1652076
0.1656048
0.1659084
0.1661309
0.1662991
0.1664077
0.1664322
0.1605674
0.1611867
0.161708
0.1621217
0.1624172
0.1625026
0.1630125
0.1634964
0.1639485
0.1643605
0.164692
0.1649533
0.1651808
0.1653543
0.1654686
0.1715783
0.1712529
0.1726042
0.1728052
0.1732763
0.1746412
0.1753387
0.1757512
0.1761784
0.1776021
0.1787694
0.1791742
0.1793951
0.1796839
0.1811727
0.182778
0.1840092
0.1851394
0.1861197
0.1869039
0.1874494
0.1877137
0.1876483
0.1871706
0.1861143
0.1840107
0.1833916
0.1829945
0.1828262
0.1829935
0.1844801
0.1815588
0.1827754
0.1838968
0.1848699
0.1856499
0.1861984
0.1864837
0.1864785
0.1861649
0.1855453
0.1847732
0.1846433
0.1845686
0.1845259
0.1846415
0.1848991
0.1875693
0.1803937
0.1815995
0.1827179
0.1836909
0.1844734
0.1850317
0.1853442
0.1854054
0.1852343
0.1849018
0.1845777
0.1847427
0.1849039
0.1850877
0.1852754
0.1854473
0.1867084
0.1894355
0.1792483
0.1804391
0.1815498
0.1825187
0.1833009
0.1838659
0.1841997
0.1843093
0.184233
0.184055
0.1839314
0.1842329
0.1845386
0.1848393
0.1851561
0.1853265
0.1863748
0.1876882
0.19039
0.1781002
0.1792696
0.180363
0.1813185
0.1820916
0.1826545
0.182997
0.183132
0.1831036
0.1829993
0.1829602
0.1833226
0.1836875
0.1840598
0.1844274
0.1846779
0.1856248
0.1866908
0.1880146
0.1906667
0.17694
0.1780802
0.1791462
0.180077
0.1808305
0.1813802
0.1817172
0.1818546
0.1818364
0.1817474
0.1817261
0.1820942
0.1824726
0.1828588
0.1832569
0.1835306
0.1844845
0.185419
0.1864687
0.1877688
0.1903163
0.1757684
0.1768737
0.1779019
0.1787983
0.1795226
0.1800493