/*--------------------------------*- C++ -*----------------------------------*\
| =========                 |                                                 |
| \\      /  F ield         | OpenFOAM: The Open Source CFD Toolbox           |
|  \\    /   O peration     | Version:  2306                                  |
|   \\  /    A nd           | Website:  www.openfoam.com                      |
|    \\/     M anipulation  |                                                 |
\*---------------------------------------------------------------------------*/
FoamFile
{
    version     2.0;
    format      ascii;
    arch        "LSB;label=32;scalar=64";
    class       volScalarField;
    location    "1.2/interconnect";
    object      p;
}
// * * * * * * * * * * * * * * * * * * * * * * * * * * * * * * * * * * * * * //

dimensions      [1 -1 -2 0 0 0 0];

internalField   uniform 100000;

boundaryField
{
    interconnect0
    {
        type            calculated;
        value           uniform 100000;
    }
    interconnectSides
    {
        type            calculated;
        value           uniform 100000;
    }
    interconnect1
    {
        type            calculated;
        value           uniform 100000;
    }
    interconnect_to_air
    {
        type            calculated;
        value           uniform 100000;
    }
    interconnect_to_fuel
    {
        type            calculated;
        value           uniform 100000;
    }
}


// ************************************************************************* //
