/*--------------------------------*- C++ -*----------------------------------*\
| =========                 |                                                 |
| \\      /  F ield         | OpenFOAM: The Open Source CFD Toolbox           |
|  \\    /   O peration     | Version:  2306                                  |
|   \\  /    A nd           | Website:  www.openfoam.com                      |
|    \\/     M anipulation  |                                                 |
\*---------------------------------------------------------------------------*/
FoamFile
{
    version     2.0;
    format      ascii;
    arch        "LSB;label=32;scalar=64";
    class       volScalarField;
    location    "1.5";
    object      contErrCp;
}
// * * * * * * * * * * * * * * * * * * * * * * * * * * * * * * * * * * * * * //

dimensions      [1 -1 -3 -1 0 0 0];

internalField   nonuniform List<scalar> 
52000
(
0
0
0
0
0
0
0
0
0
0
0
0
0
0
0
0
0
0
0
0
0
0
0
0
0
0
0
0
0
0
0
0
0
0
0
0
0
0
0
0
0
0
0
0
0
0
0
0
0
0
0
0
0
0
0
0
0
0
0
0
0
0
0
0
0
0
0
0
0
0
0
0
0
0
0
0
0
0
0
0
0
0
0
0
0
0
0
0
0
0
0
0
0
0
0
0
0
0
0
0
0
0
0
0
0
0
0
0
0
0
0
0
0
0
0
0
0
0
0
0
0
0
0
0
0
0
0
0
0
0
0
0
0
0
0
0
0
0
0
0
0
0
0
0
0
0
0
0
0
0
0
0
0
0
0
0
0
0
0
0
0
0
0
0
0
0
0
0
0
0
0
0
0
0
0
0
0
0
0
0
0
0
0
0
0
0
0
0
0
0
0
0
0
0
0
0
0
0
0
0
0
0
0
0
0
0
0
0
0
0
0
0
0
0
0
0
0
0
0
0
0
0
0
0
0
0
0
0
0
0
0
0
0
0
0
0
0
0
0
0
0.0005560942
0
0
0
0
0
0
0
0
0
0
0
0
0
0
0
0
0
0
0
0
0
0
0
0
0
0
0
0
0
0
0
0
0
0
0
0
0
0
0
0
0
0
0
0
0
0
0
0
0
0
0
0
0
0
0
0
0
0
0
0
0
0
0
0
0
-0.0009647433
0
0
0
0
0
-0.0001342157
-0.0008351129
0
0
0
0
0
0
0
0
0
0
0
0
0
0
0
0
0
0
0
0
0
0
0
0
0
0
0
0
0
0
0
0
0
0
0
0
0
0
0
0
0
0
0
0
0
0
0
0
0
0
0
0
0
0
0
0
0
0
0
0
0
0
0
0
0
0
0
0
0
0
0.0003651061
0
0
0
0
0
-0.0001533393
0.0010354
0
0
0
0
0
-0.0001310548
-0.000248835
0.0002814234
0
0
0
0
0
0
0
0
0
0
0
0
0
0
0
0
0
0
0
0
0
0
0
0
0
0
0
0
0
0
0
0
0
0
0
0
0
0
0
0
0
0
0
0
0
0
0
0
0
0
0
0
0
0
0
0
0
0
0
0
0
0
0
0
0
0
0
0
0
0
0
0
0
0
0
0.0004041382
0
0
0
0
0
-0.0004776853
-3.174929e-05
0
0
0
0
0
8.079371e-05
0.001590052
0.0003865253
0
0
0
0
0
-0.0002346284
-0.0004579659
0.0003836355
0.0008440011
0
0
0
0
0
0
0
0
0
0
0
0
0
0
0
0
0
0
0
0
0
0
0
0
0
0
0
0
0
0
0
0
0
0
0
0
0
0
0
0
0
0
0
0
0
0
0
0
0
0
0
0
0
0
0
0
0
0
0
0
0
0
0
0
0
0
0
0
0
0
0
0
0
0
0
0
0
0
0
0
0.0002912431
0
0
0
0
0
0.0005569769
-0.0002855644
0
0
0
0
0
-0.0004813235
0.001487249
-0.0009908722
0
0
0
0
0
0.000263933
0.0003706188
-0.001727281
-0.001144404
0
0
0
0
0
-4.459981e-07
7.081276e-05
0.0003033703
-0.0004036106
-0.0004541675
0
0
0
0
0
0
0
0
0
0
0
0
0
0
0
0
0
0
0
0
0
0
0
0
0
0
0
0
0
0
0
0
0
0
0
0
0
0
0
0
0
0
0
0
0
0
0
0
0
0
0
0
0
0
0
0
0
0
0
0
0
0
0
0
0
0
0
0
0
0
0
0
0
0
0
0
0
0
0
0
0
0
0
0
0
-7.189828e-05
0
0
0
0
0
-0.0004012035
0.0004722769
0
0
0
0
0
0.0004808239
-0.001102984
-0.0008678844
0
0
0
0
0
-5.08332e-05
4.15443e-05
-0.001001153
-7.009516e-05
0
0
0
0
0
0.0002082086
0.0001856263
0.0005542863
0.001503917
-5.571785e-05
0
0
0
0
0
-7.908956e-05
0.0002196728
0.0001594458
0.0001797182
0.0003920143
-0.0005718738
0
0
0
0
0
0
0
0
0
0
0
0
0
0
0
0
0
0
0
0
0
0
0
0
0
0
0
0
0
0
0
0
0
0
0
0
0
0
0
0
0
0
0
0
0
0
0
0
0
0
0
0
0
0
0
0
0
0
0
0
0
0
0
0
0
0
0
0
0
-2.576034e-06
0
0
0
0
0
0
0
0
0
0
0
0
0
0
0
0
0
0
0
0
0.0003049888
0
0
0
0
0
-0.0004473637
-0.003183813
0
0
0
0
0
-0.0008333999
-0.0008486664
0.0006858379
0
0
0
0
0
0.0002871623
-0.0002517057
0.00205112
0.0002524814
0
0
0
0
0
0.0007611601
0.001227211
0.0003297316
0.0002458152
0.0009375923
0
0
0
0
0
-1.799569e-05
-0.0008144743
-0.001511567
-0.00137296
-0.002808499
0.001750824
0
0
0
0
0
0.000486057
0.0003363625
0.000468261
-0.0003272393
0.0002677044
-0.0004752342
0.0005064389
0
0
0
0
0
0
0
0
0
0
0
0
0
0
0
0
0
0
0
0
0
0
0
0
0
0
0
0
0
0
0
0
0
0
0
0
0
0
0
0
0
0
0
0
0
0
0
0
0
0
0
0
0
0
0
0
0
4.64521e-08
0
0
0
0
0
0
0
0
0
0
0
0
0
0
0
-1.503197e-06
-6.522924e-07
0
0
0
0
0
0
0
0
0
0
0
0
0
0
0
0
0
0
0
0
0.0005373515
0
0
0
0
0
-1.268655e-05
0.001219029
0
0
0
0
0
0.0001351227
0.001208733
0.00154276
0
0
0
0
0
-0.0008306376
0.001424831
-0.000174188
0.0001958614
0
0
0
0
0
-0.0002836144
0.0001300336
0.0004680932
-0.002255711
0.0007868806
0
0
0
0
0
0.0008252755
0.0004634516
-0.0008335802
-0.0008321696
0.001145673
-0.003078944
0
0
0
0
0
-0.0003016668
0.0006968968
-4.289465e-05
0.0001738284
0.00117248
0.001065271
-0.0001171151
0
0
0
0
0
-0.0002588178
-0.0004927236
-0.0002320359
0.0007366661
-0.000208253
-0.0003605995
-0.0004732235
-0.0002522161
0
0
0
0
0
0
0
0
0
0
0
0
0
0
0
0
0
0
0
0
0
0
0
0
0
0
0
0
0
0
0
0
0
0
0
0
0
0
0
0
0
0
0
0
2.506057e-06
0
0
0
0
0
0
0
0
0
0
0
0
0
0
0
1.079114e-06
1.521243e-06
0
0
0
0
0
0
0
0
0
0
0
0
0
0
0
-2.273748e-07
2.675432e-06
-5.610609e-07
0
0
0
0
0
0
0
0
0
0
0
0
0
0
0
0
0
0
0
0
-0.0001724456
0
0
0
0
0
0.0005763142
-0.001091338
0
0
0
0
0
-8.940645e-05
0.0003801593
-0.0002150719
0
0
0
0
0
0.000260761
-0.0002287933
0.0004773099
-0.001224849
0
0
0
0
0
-1.981928e-05
0.0003982103
-0.0006247347
6.470543e-05
-0.001173949
0
0
0
0
0
8.654557e-05
6.200398e-05
0.0003673184
-0.0006970667
0.001316118
0.001268468
0
0
0
0
0
0.0002299942
-0.001839387
-0.001273841
0.001698771
-0.001401778
0.0003609603
0.002501922
0
0
0
0
0
0.0003662491
0.000698087
-0.0004831758
-0.001146745
0.001132302
0.0003530361
0.001355817
-0.0005882048
0
0
0
0
0
-0.0001287358
-0.0001843788
0.0004108124
5.050453e-05
-0.0004832239
0.0003101036
-0.0001675959
0.0001271923
-0.001350927
0
0
0
0
0
0
0
0
0
0
0
0
0
0
0
0
0
0
0
0
0
0
0
0
0
0
0
0
0
0
-1.356698e-07
0
0
0
0
0
0
0
0
0
0
0
0
0
0
0
9.099123e-07
-4.242662e-06
0
0
0
0
0
0
0
0
0
0
0
0
0
0
0
-8.273408e-06
-3.302872e-07
1.013957e-06
0
0
0
0
0
0
0
0
0
0
0
0
0
0
0
-1.670298e-06
3.034462e-06
-3.498709e-07
2.085376e-07
0
0
0
0
0
0
0
0
0
0
0
0
0
0
0
0
0
0
0
0
-0.0001232586
0
0
0
0
0
-0.0004910581
-0.0003844998
0
0
0
0
0
-0.000856823
-0.0004919867
0.001179157
0
0
0
0
0
-0.0005151135
0.0009490698
-0.0003216944
0.0008910021
0
0
0
0
0
0.0002849374
0.0008924217
-0.0005048038
-0.000162025
0.001691451
0
0
0
0
0
0.0002133167
5.109215e-05
-0.001143343
0.001408691
0.000797993
0.0006430802
0
0
0
0
0
0.00129278
0.001139314
1.731407e-05
0.0003512601
0.001234215
-0.0001823524
-0.002882141
0
0
0
0
0
0.0002526655
-0.0006371496
-7.708963e-05
0.0002738231
-0.001270007
0.0002277527
-0.001324455
-0.0003319475
0
0
0
0
0
0.0003779912
-0.0002731993
-0.001025389
0.0009031776
0.0009604211
-0.001271637
0.0003035405
0.0004554105
0.002087246
0
0
0
0
0
-5.021581e-05
-0.0009521687
-0.0001023248
-0.0004937819
0.0009287939
8.135654e-05
0.000405483
0.001000022
-0.0008386851
0.0005368271
0
0
0
0
0
0
0
0
0
0
0
0
0
0
0
-9.804493e-07
0
0
0
0
0
0
0
0
0
0
0
0
0
0
0
-7.989859e-07
-3.977869e-06
0
0
0
0
0
0
0
0
0
0
0
0
0
0
0
8.059422e-07
-9.122557e-07
1.674348e-06
0
0
0
0
0
0
0
0
0
0
0
0
0
0
0
-1.615076e-06
-9.712974e-07
-5.488579e-07
-7.67153e-07
0
0
0
0
0
0
0
0
0
0
0
0
0
0
0
2.306251e-06
4.333985e-06
-1.416047e-06
4.94221e-06
1.509962e-06
0
0
0
0
0
0
0
0
0
0
0
0
0
0
0
0
0
0
0
0
0
0
0
0
0
-0.0002029017
0.0003616589
0
0
0
0
0
0.0007661078
-0.0001366396
-0.0006595865
0
0
0
0
0
-0.0001741805
0.0007695847
0.001256246
-0.0006019326
0
0
0
0
0
1.136956e-05
-0.0001179422
-0.0002922553
-0.0007450923
0.0005483717
0
0
0
0
0
0.0002522466
0.0007052188
-0.001677642
-0.0002199357
-0.0009823245
-0.00189926
0
0
0
0
0
-0.001252535
-0.002199523
0.0004829493
0.0001739073
-5.211731e-05
-0.00157603
-0.0002871002
0
0
0
0
0
-0.0004828053
-0.001329245
0.000938558
-0.0007111694
-0.00110261
0.002219389
2.755654e-06
0.0003074129
0
0
0
0
0
0.0005096697
-0.0006645143
0.001070906
-0.001485941
-0.0004405308
0.0009128346
-0.0006115872
0.0005057661
-0.0003344515
0
0
0
0
0
0.000142351
0.0008880303
0.0001820006
0.002431532
-0.001053607
0.0004429849
0.0005780421
-0.001345674
0.000746669
-1.809447e-05
0
0
0
0
0
0.000126174
-0.0005020799
0.0004035409
-0.0007242348
3.147496e-05
-0.0009675004
-8.707034e-05
-0.0003834334
-0.00105177
0.0003822036
-0.0002876626
0
0
0
0
0
0
0
0
0
0
0
0
0
0
0
-4.457849e-07
4.468766e-06
0
0
0
0
0
0
0
0
0
0
0
0
0
0
0
3.300678e-06
-5.164173e-06
1.386587e-06
0
0
0
0
0
0
0
0
0
0
0
0
0
0
0
-1.014054e-06
-3.45377e-06
2.565205e-06
-2.975205e-08
0
0
0
0
0
0
0
0
0
0
0
0
0
0
0
-4.088471e-07
4.07481e-07
-1.336799e-06
-3.361747e-06
6.932676e-07
0
0
0
0
0
0
0
0
0
0
0
0
0
0
0
7.368184e-08
-1.80272e-06
-9.660909e-07
1.704554e-06
-4.065872e-06
-2.037292e-06
0
0
0
0
0
0
0
0
0
0
0
0
0
0
0
0
0
0
0
0
0
0
0
0
0
0
0
0
0
0
2.872392e-05
0.0002016789
0.0006442037
0
0
0
0
0
-9.041508e-05
-0.0004027086
0.001528001
0.0006729362
0
0
0
0
0
-0.0001338441
-0.0003946916
-0.0002134041
-0.001395949
0.00032744
0
0
0
0
0
-0.0003511951
-0.002783848
0.001861836
-0.0004462093
-0.0006084461
-0.001702236
0
0
0
0
0
0.0007832601
0.001319328
-0.0002437268
0.0007598486
0.0006614796
0.001112133
0.0001797261
0
0
0
0
0
-2.767369e-05
0.0007850737
-0.0001538252
0.001315891
-0.0006104772
-0.0007018041
-8.916271e-05
0.0007545294
0
0
0
0
0
-0.0001138629
0.001095421
-0.00129827
0.00110832
0.001212874
0.0004269908
-0.0003901195
0.000218665
0.001881955
0
0
0
0
0
0.0002281073
-0.001585283
0.0008714362
-0.000693053
-0.000213304
-0.0003726642
-0.001877454
0.002065528
-0.001397286
-0.000746189
0
0
0
0
0
-0.0001114193
0.0007007905
-0.0001030232
0.002481841
-0.001126398
0.001251523
-0.0002553667
-0.0006214873
0.0002626533
0.001383062
6.850976e-06
0
0
0
0
0
0.000201647
0.0006516425
5.416257e-05
0.0003836211
-0.0001142759
0.0003092165
0.0008219094
-0.0006478933
3.368696e-05
0.0005618828
-8.305005e-05
-8.354996e-07
0
0
0
0
0
0
0
0
0
0
0
0
0
0
0
-2.517773e-06
3.209109e-06
-2.061765e-06
0
0
0
0
0
0
0
0
0
0
0
0
0
0
0
2.085872e-06
3.603172e-06
-7.084578e-07
5.369846e-06
0
0
0
0
0
0
0
0
0
0
0
0
0
0
0
8.168527e-07
1.236392e-06
4.512157e-06
-1.504295e-06
8.627071e-07
0
0
0
0
0
0
0
0
0
0
0
0
0
0
0
-6.3018e-07
4.597391e-07
1.043847e-06
3.161247e-06
2.661481e-06
2.791524e-05
0
0
0
0
0
0
0
0
0
0
0
0
0
0
0
2.092785e-06
1.821483e-06
2.264218e-06
-1.97394e-06
-2.267062e-06
-1.853934e-05
-2.2318e-05
0
0
0
0
0
0
0
0
0
0
0
0
0
0
0
0
0
0
0
0
0
0
0
0
0
0
0
0
0
0
0
0
0
0
0
0.000261324
6.104732e-05
-0.0005551095
-0.0004272994
0
0
0
0
0
-0.0002624406
0.001630152
-0.0002305315
-0.0008610608
-0.00102634
0
0
0
0
0
0.0007123358
0.00176177
-0.0002734942
9.307182e-05
0.0007260816
0.001120042
0
0
0
0
0
-0.0002740569
-3.233156e-07
0.001600808
-0.002642185
-6.636686e-05
-0.0003306789
0.001750657
0
0
0
0
0
0.0002834658
-0.0003737943
-0.0007964705
-0.001830639
0.0007445029
-0.001068594
3.441914e-05
-5.624353e-05
0
0
0
0
0
-0.0007683012
0.0001139055
0.000909695
-0.0009245332
-0.001563236
0.0005406822
-0.0002765836
-0.0007715713
-0.001770429
0
0
0
0
0
-0.0005065372
-0.0003060207
-0.0008371982
0.0005554648
0.0006196009
-0.001049596
0.001012159
-0.0007316165
-0.0006291895
-9.284539e-05
0
0
0
0
0
0.0004499722
-0.0001831404
8.671363e-05
-0.001278478
0.001752198
0.001874272
0.0004589435
0.0009164804
-0.0005684095
-0.0007184848
0.0003582622
0
0
0
0
0
5.665124e-05
-0.0003755874
-0.001230077
-9.248627e-05
-0.001458996
-0.0002267436
-0.0007822927
0.0009218366
0.0002170262
-0.000114572
-0.001003187
1.025137e-06
0
0
0
0
0
-1.550423e-05
-0.0002026342
1.658484e-05
0.0004712608
-0.0004810002
0.0007863229
0.000301086
-5.665098e-05
1.581082e-05
-0.0006725304
-0.0001503279
-1.732086e-06
-1.12165e-06
0
0
0
0
0
0
0
0
0
0
0
0
0
0
0
-2.307013e-07
-1.903856e-06
7.499571e-07
2.141634e-06
0
0
0
0
0
0
0
0
0
0
0
0
0
0
0
8.41534e-07
7.281508e-07
3.209461e-06
6.97857e-07
-7.456045e-06
0
0
0
0
0
0
0
0
0
0
0
0
0
0
0
1.460799e-06
1.179996e-06
-4.247469e-06
-9.631638e-07
-2.740479e-09
1.478694e-05
0
0
0
0
0
0
0
0
0
0
0
0
0
0
0
1.897344e-06
4.041421e-07
6.767506e-07
2.357581e-06
9.714717e-07
-1.349355e-05
-7.562676e-05
0
0
0
0
0
0
0
0
0
0
0
0
0
0
0
7.397092e-07
-3.298928e-06
-1.049247e-06
7.587179e-07
-6.165527e-07
-1.096803e-05
1.328215e-05
2.124059e-05
0
0
0
0
0
0
0
0
0
0
0
0
0
0
0
0
0
0
0
0
0
0
0
0
0
0
0
0
0
0
0
0
0
0
0
0
0
0
0
0
0.0002948557
-0.001125266
0.0008285806
0.000166545
0.0001730107
0
0
0
0
0
-0.000187153
-0.0008113242
-0.001700383
0.0006744012
0.00129379
0.0008006146
0
0
0
0
0
0.0008117906
0.0006359116
0.0001454059
0.002727761
0.0001425663
0.001313767
-0.001025895
0
0
0
0
0
-0.0001274353
0.0007554757
0.0003992061
-0.0002959549
-0.001367096
-0.0002503004
0.0007499577
-0.0005310917
0
0
0
0
0
-8.290858e-06
0.000503012
-0.0007375486
0.0003904408
0.001150135
-0.0007937488
-0.000126128
-0.0003203692
0.001250865
0
0
0
0
0
0.0008992244
0.001560033
0.0009873943
-0.001608456
-0.0008430791
0.0006278545
-0.001281098
-0.0004332438
0.001696782
0.0004682769
0
0
0
0
0
-0.0003513674
0.001245143
0.001101611
-0.001161057
-0.0005304077
-0.00230458
0.001088639
-0.0001220615
-0.0007580039
-0.0003855915
-0.0003243898
0
0
0
0
0
-0.0002245211
-0.0007024007
0.0007336008
-0.001449617
-0.0004449516
-0.0009674861
-0.001887484
-0.002519861
-0.0009716309
-0.0003237092
0.0002830263
2.772136e-06
0
0
0
0
0
-0.0003049997
0.0003263078
0.0004503587
0.0002996029
-0.0003252386
-0.001066693
-0.001698149
0.0006494997
0.0002957781
0.001249535
0.0001423183
1.580759e-06
6.026269e-07
0
0
0
0
0
-6.128249e-05
0.0001595746
-0.0001822929
0.0004972371
0.0004263332
-0.000236457
-0.0003560678
0.0005029584
0.000349904
0.000410467
0.0001228182
1.585513e-06
-1.20359e-06
-1.976024e-06
0
0
0
0
0
0
0
0
0
0
0
0
0
0
0
-1.031937e-06
2.912634e-06
3.10682e-06
2.855289e-06
-8.249071e-08
0
0
0
0
0
0
0
0
0
0
0
0
0
0
0
1.530097e-07
-2.750903e-06
-1.057536e-06
-2.808162e-07
-3.451069e-06
3.153032e-06
0
0
0
0
0
0
0
0
0
0
0
0
0
0
0
1.922367e-06
-3.968964e-06
1.360827e-06
2.278885e-07
-2.107475e-06
2.565842e-05
-1.521853e-05
0
0
0
0
0
0
0
0
0
0
0
0
0
0
0
-3.052877e-06
2.392953e-06
2.652671e-06
3.588335e-07
2.62479e-06
1.595484e-05
-1.349539e-05
3.126735e-05
0
0
0
0
0
0
0
0
0
0
0
0
0
0
0
-1.297738e-06
1.035502e-06
2.683273e-06
-9.370386e-08
1.459085e-07
1.386395e-06
-1.553373e-05
-1.624655e-05
5.460058e-06
0
0
0
0
0
0
0
0
0
0
0
0
0
0
0
0
0
0
0
0
0
0
0
0
0
0
0
0
0
0
0
0
0
0
0
0
0
0
0
0
0
0
0
0
0
0.0001341172
-0.0005702671
0.001268977
-0.0005079488
-0.0002522664
2.191659e-05
0
0
0
0
0
0.0002395515
9.409094e-05
0.001239089
-0.001133373
-0.0008563184
3.001967e-05
0.0005885529
0
0
0
0
0
-0.0001215371
-0.002312071
-0.0009577132
0.0009451436
-0.0007149964
0.0002711499
-0.001992349
0.000370799
0
0
0
0
0
0.0006731472
-0.001267848
0.001373522
-0.0002328403
0.0005327294
0.001065692
0.0001184374
0.00230753
-0.001030265
0
0
0
0
0
-0.0007165285
-0.0006217697
0.000340937
0.00146463
0.001663785
-8.655045e-05
-1.359603e-05
0.0007422766
2.076047e-05
0.0002277878
0
0
0
0
0
9.576701e-05
-0.00209612
-0.0001391047
0.0007641689
0.0006387098
0.0004343762
8.447011e-05
0.0003434416
0.00152851
0.000182138
-0.0004398059
0
0
0
0
0
0.000137157
0.001237753
-0.001215362
0.001165308
0.0008478673
-0.001004349
0.001316005
0.0005529384
0.0008129431
-0.000379192
-9.366007e-05
3.136439e-06
0
0
0
0
0
0.0004049915
0.0003893514
1.468191e-05
-0.001321398
0.002666612
-0.001589623
0.0001737011
0.000446777
0.0007979649
-0.0002643303
0.0003612635
3.007679e-07
-2.537276e-06
0
0
0
0
0
-6.958891e-06
8.942783e-06
0.0002647476
-0.001151702
0.0006655186
0.0003174361
0.0005861475
0.00155825
-0.001676043
-0.001517292
2.413702e-05
-2.929999e-06
8.749153e-07
1.912049e-07
0
0
0
0
0
8.650914e-05
0.0002062164
-0.0002676224
9.207711e-05
-0.0006645806
2.369436e-05
-7.124307e-05
-9.755055e-06
0.0006049785
-0.0003012287
-6.871844e-05
1.064093e-06
-2.820351e-06
1.01894e-06
5.21121e-06
0
0
0
0
0
0
0
0
0
0
0
0
0
0
0
-2.057378e-06
-1.487446e-07
-1.953325e-06
4.364348e-06
-1.003026e-06
-2.348949e-05
0
0
0
0
0
0
0
0
0
0
0
0
0
0
0
1.72903e-06
-1.969724e-06
-3.383552e-06
1.705629e-06
1.252076e-06
4.357855e-06
1.674109e-05
0
0
0
0
0
0
0
0
0
0
0
0
0
0
0
2.367511e-06
-2.039195e-06
1.38098e-07
-8.138179e-07
-1.668082e-06
2.3132e-05
-5.011181e-06
1.524248e-05
0
0
0
0
0
0
0
0
0
0
0
0
0
0
0
-1.535615e-06
-5.526644e-06
3.7364e-06
-1.295674e-06
-9.715497e-07
3.114693e-06
-1.013276e-05
3.239122e-06
-1.727625e-05
0
0
0
0
0
0
0
0
0
0
0
0
0
0
0
-5.508112e-07
4.637043e-06
6.312103e-06
4.448324e-07
-3.031435e-07
-3.91325e-07
-2.193424e-06
2.883797e-06
1.860097e-05
1.687831e-05
0
0
0
0
0
0
0
0
0
0
0
0
0
0
0
0
0
0
0
0
0
0
0
0
0
0
0
0
0
0
0
0
0
0
0
0
0
0
0
0
0
0
0
0
0
0
0
0
0
0
-0.0001153247
-0.0002520191
0.0004955474
-0.0001976319
0.0004267944
-0.0002022545
-0.0002384277
0
0
0
0
0
-0.0004979559
0.0005511618
-0.0007025249
-0.001339603
0.0009096646
0.0005678308
0.0006606399
-0.001075662
0
0
0
0
0
-0.0003052258
0.001175242
0.0003150273
-0.0003722359
-0.001401147
-0.0006307749
0.001375016
-0.001411701
0.002250769
0
0
0
0
0
-0.0001329334
-0.001313668
-0.000367478
-0.0003755695
-0.0001375292
0.0003613266
-0.000160692
-0.0001261886
-0.0008010153
-4.080157e-05
0
0
0
0
0
0.0004252968
0.00171469
-0.0008077448
-0.0004398484
-0.0005789396
-0.001355411
-0.0007633879
0.001502481
0.001066873
-0.0006320953
5.353122e-05
0
0
0
0
0
-0.0003417574
0.0006004506
0.0007540164
-0.001827402
0.0006091317
0.0006834316
0.0009846579
-0.000853535
-0.001398933
5.313055e-05
0.0002332675
2.411104e-06
0
0
0
0
0
-0.0003850404
1.539067e-05
-0.0003022084
0.0007522681
-0.001669583
0.002005136
0.001239443
-0.001552549
0.0009704016
0.0004209712
0.0003916212
-1.818669e-07
-2.285342e-06
0
0
0
0
0
-6.59812e-05
-0.0004050823
0.0002866328
0.0006298246
0.0002735991
-0.0007744921
0.001418993
0.0001925157
0.000215397
0.0011321
9.113439e-05
-1.259838e-06
2.031692e-06
6.953688e-06
0
0
0
0
0
0.0007728768
9.923277e-05
0.001236643
-0.001600697
1.079914e-05
-0.0002203065
0.0005260427
-0.0008589885
-0.002288258
0.0007260334
0.0003353779
-4.17658e-07
2.028906e-06
-4.384238e-06
-3.788356e-06
0
0
0
0
0
0.0001701207
-5.123838e-06
0.0007305112
0.0001696422
0.001271802
0.0006354233
-0.0001164146
-0.000154593
-0.0005855471
-0.0001543954
4.373154e-05
-8.463313e-07
-6.189063e-06
-2.025342e-06
1.867277e-06
9.225029e-06
0
0
0
0
0
0
0
0
0
0
0
0
0
0
0
-5.674536e-07
1.795768e-06
1.97095e-07
5.19999e-06
5.603745e-06
-4.391187e-06
-4.668099e-06
0
0
0
0
0
0
0
0
0
0
0
0
0
0
0
-1.783696e-06
1.719989e-07
2.066897e-06
4.169145e-07
-2.952707e-06
2.008108e-05
-1.015856e-05
1.280039e-05
0
0
0
0
0
0
0
0
0
0
0
0
0
0
0
1.989533e-06
-5.532368e-07
6.526445e-08
-1.318082e-06
-9.245944e-07
1.417898e-05
-1.814641e-05
-4.746324e-06
-4.294697e-07
0
0
0
0
0
0
0
0
0
0
0
0
0
0
0
5.75161e-07
-5.71796e-07
-1.465903e-06
-5.440084e-07
3.219375e-06
1.240044e-05
9.567405e-06
2.769937e-05
-4.074352e-06
-1.625577e-05
0
0
0
0
0
0
0
0
0
0
0
0
0
0
0
-1.298394e-06
2.235286e-06
-1.077495e-06
-3.127348e-06
-3.000092e-07
-1.462088e-05
5.819277e-07
7.281412e-06
5.703703e-06
-6.331409e-06
-78032.99
0
0
0
0
0
0
0
0
0
0
0
0
0
0
0
0
0
0
0
0
0
0
0
0
0
0
0
0
0
0
0
0
0
0
0
0
0
0
0
0
0
0
0
0
0
0
0
0
0
0
0
0
0
0
0
0.0001727194
-0.0003789638
0.0008372967
0.0004475768
-7.92483e-05
-0.0001655053
2.791278e-05
2.098417e-06
0
0
0
0
0
0.0006095919
0.001387743
0.001677936
0.0005431203
0.0005365014
0.000598225
-0.001888909
0.0008543877
-0.002133582
0
0
0
0
0
-0.0002900142
0.0005303486
0.0001326703
-0.0005727412
0.0006253745
-0.001220603
0.00136804
-0.00119393
-0.0002746409
0.000115312
0
0
0
0
0
-0.0007519499
-0.0006436906
0.00109127
0.0004490718
0.001159556
-0.0002619229
0.0004063076
0.0006096458
-0.001196488
0.0005586977
-0.0003916446
0
0
0
0
0
-0.0004756109
-0.0004173407
-0.0005596925
0.00154154
0.0003400545
-0.0001080343
-2.071329e-05
0.0002265091
-0.001646266
-0.0007260775
-0.0001153814
5.737642e-06
0
0
0
0
0
0.0006409425
0.001198448
-0.001641315
-0.0003719722
0.001292561
-0.0003745207
-0.0005808915
-0.0002074574
0.0001105859
0.0003676178
1.063516e-06
-3.458871e-06
7.006513e-07
0
0
0
0
0
0.0002520847
-0.0004524303
-0.0007524489
0.0006857757
-0.0005347081
-0.0001284609
-0.001138953
6.878341e-05
7.567577e-05
-0.0007616355
-0.0001762448
-2.207017e-07
2.691001e-06
-2.072374e-06
0
0
0
0
0
-0.0003201743
0.0001466304
-0.001249174
0.0007002118
-0.0006002662
-0.000295305
-9.159994e-05
0.0004545942
0.0001361448
0.00046432
-0.0001977682
-2.888878e-06
1.169453e-06
9.398521e-07
2.440433e-07
0
0
0
0
0
0.000240812
2.809512e-05
-0.001349054
-0.0006592162
-0.001592246
0.000538314
-0.000334229
-0.000141164
0.0008231415
-0.0005026445
-0.0001189426
5.834838e-07
-1.105485e-06
8.899539e-07
7.486601e-07
-4.015777e-05
0
0
0
0
0
6.740103e-05
-0.0004492925
-2.20475e-05
-0.0005297635
-0.0006015264
-0.0007847213
0.0003943183
8.363459e-05
-0.0006309154
0.0006791429
7.046815e-05
-4.447207e-06
1.28382e-07
-1.642358e-06
-8.972191e-07
1.181009e-05
-2.656316e-06
0
0
0
0
0
0
0
0
0
0
0
0
0
0
0
-2.109138e-06
-4.174217e-07
-5.242674e-07
1.256084e-06
1.202124e-06
-4.480971e-06
-1.813168e-06
2.420405e-05
0
0
0
0
0
0
0
0
0
0
0
0
0
0
0
1.791361e-07
7.263041e-06
-7.328708e-06
-3.816248e-06
-3.318e-06
-1.883002e-05
-4.690685e-05
1.724268e-05
3.984883e-06
0
0
0
0
0
0
0
0
0
0
0
0
0
0
0
1.321581e-06
-1.006985e-06
-2.01501e-06
2.263811e-06
8.015408e-07
-5.876907e-06
-2.965497e-06
1.027321e-05
1.174417e-05
-6.944084e-06
0
0
0
0
0
0
0
0
0
0
0
0
0
0
0
-9.108752e-07
-2.918696e-06
-1.156398e-06
-1.285567e-06
4.468393e-06
-7.333349e-06
-6.440806e-06
-1.902233e-05
-1.821577e-05
1.304658e-05
-78707.4
0
0
0
0
0
0
0
0
0
0
0
0
0
0
0
5.118473e-07
5.469656e-06
-1.484846e-06
2.355702e-06
2.828802e-06
-2.1826e-05
2.206765e-05
4.311452e-06
-2.315277e-05
6.82773e-07
-71720.79
-78645.45
0
0
0
0
0
0
0
0
0
0
0
0
0
0
0
0
0
0
0
0
0
0
0
0
0
0
0
0
0
0
0
0
0
0
0
0
0
0
0
0
0
0
0
0
0
0
0
0
0
0
0
0
0
0
0
0
0
0
0
0
-7.566637e-06
-0.0006941033
-0.0002581975
-5.746776e-05
0.000144214
-0.0005592459
0.0003135123
0.000463659
0.0009078674
0
0
0
0
0
0.0004910887
-0.001749399
-0.0009921306
-0.000936142
-0.0009753113
-0.0002054548
-0.001244287
0.001406523
0.001317073
0.0002765539
0
0
0
0
0
0.0001274947
0.0003136247
-0.0002289406
-0.0006262062
0.0004705527
0.001423191
0.001146714
-0.001251986
0.001093964
-0.0003748094
-0.0001858454
0
0
0
0
0
-0.0001654575
0.0008575325
-0.0004920205
-0.000911368
0.0001429961
-0.001329399
0.001106694
0.0004830999
0.0003817363
0.0001769229
0.0001182117
5.001334e-06
0
0
0
0
0
-0.000342552
0.0008531886
-0.0002872637
-0.0001716477
-0.001784165
-0.0008512007
0.0008180059
0.001645537
7.669543e-05
0.001427326
0.0006567708
3.998103e-06
-5.118459e-07
0
0
0
0
0
0.0002159781
-0.0003729316
-0.0001263116
0.0004176897
0.0004555626
-0.0005629308
-0.0004821525
-1.30517e-05
-0.001075682
0.0004999952
-0.0002989419
-1.160299e-06
4.482117e-06
-6.325086e-07
0
0
0
0
0
0.0006761017
8.186687e-05
0.002284016
0.001460747
-0.0005971399
0.001673755
0.0008243018
-0.0007134087
0.0002667489
-9.642429e-05
0.0005636769
-1.601344e-06
-5.573008e-06
3.711271e-06
-4.24331e-06
0
0
0
0
0
-0.0009340934
-0.0003681668
-0.0004393214
0.002282588
-0.001011014
0.0001494474
-0.001029171
0.001029481
-0.0003448491
0.001230139
-4.61631e-05
1.556759e-06
1.572161e-06
1.236237e-07
3.537247e-06
-2.337843e-05
0
0
0
0
0
-0.0001552785
-5.069783e-05
-0.000735609
0.0001486356
0.0001080622
0.000795928
-0.001503899
0.0002936196
0.001568202
-0.0006821274
9.944481e-05
-1.862889e-06
4.016101e-06
4.261531e-07
-3.768471e-06
7.913277e-06
2.547066e-05
0
0
0
0
0
2.129608e-05
-0.0003992225
-0.0001125939
0.0002507505
0.0001829927
0.0004400991
0.0005125923
-0.0002995025
0.0003482773
0.0004662447
-0.0001554944
-2.357417e-06
-2.043704e-06
7.064864e-07
-4.308674e-06
1.604846e-05
-4.616587e-07
1.926876e-05
0
0
0
0
0
0
0
0
0
0
0
0
0
0
0
1.098588e-06
-6.671365e-07
2.286951e-07
2.579347e-06
-3.274412e-07
4.831163e-06
4.48428e-06
-1.161126e-05
-3.832627e-06
0
0
0
0
0
0
0
0
0
0
0
0
0
0
0
1.824382e-06
1.629098e-06
1.619615e-06
-2.463857e-06
-1.639363e-06
1.051427e-05
-2.330133e-06
2.717152e-05
-1.386159e-05
7.082177e-06
0
0
0
0
0
0
0
0
0
0
0
0
0
0
0
1.287718e-06
-1.580345e-06
1.666399e-06
-6.151348e-06
1.380566e-07
-2.111833e-05
1.26439e-05
2.394535e-05
-6.883624e-07
-6.507818e-08
-80061.55
0
0
0
0
0
0
0
0
0
0
0
0
0
0
0
4.721091e-07
-3.337873e-06
-5.234807e-06
9.199656e-07
-5.871622e-07
6.141678e-07
-1.277372e-05
-1.365362e-05
1.523345e-05
-3.350156e-08
-72166.23
-79331.98
0
0
0
0
0
0
0
0
0
0
0
0
0
0
0
5.667701e-07
7.527746e-07
-3.952482e-06
2.614454e-06
-4.015e-07
-6.965262e-06
3.24129e-05
-2.145387e-05
8.930356e-06
8.810048e-06
-66385.09
-72260.54
-80242.68
0
0
0
0
0
0
0
0
0
0
0
0
0
0
0
0
0
0
0
0
0
0
0
0
0
0
0
0
0
0
0
0
0
0
0
0
0
0
0
0
0
0
0
0
0
0
0
0
0
0
0
0
0
0
0
0
0
0
0
0
0
0
0
0
0
-3.790401e-06
0.0001743715
0.0006912626
-0.0005286937
-0.0002303277
-5.763711e-05
-7.403074e-07
-0.0002509069
-0.0002918815
0.0002500617
0
0
0
0
0
-8.225146e-05
-0.0001873068
0.002105773
0.001425546
-0.0006732004
-0.0005489088
0.0004400045
0.0002543295
-5.877806e-05
-0.0002998319
0.0001919895
0
0
0
0
0
-0.0007107785
-0.0004025603
0.0002956691
0.001105136
0.0009609915
-0.0006423568
0.0002632097
-0.001413462
0.0007825514
-0.0005053267
0.0004035902
3.812527e-06
0
0
0
0
0
0.0006491886
0.0001975211
-0.0009620838
0.0005793152
0.0007212765
0.0003283471
-0.0007144354
-0.001162708
-0.001071649
-0.001567872
0.000152475
-9.005975e-07
-6.213438e-06
0
0
0
0
0
-0.0001290591
-3.973577e-05
-0.001166442
0.001317275
0.0004353119
0.001071178
0.001123971
0.0001158731
0.001051618
-0.001422334
-0.0003505579
8.798015e-07
7.643754e-07
1.865678e-07
0
0
0
0
0
0.0001995598
-5.207932e-05
0.0004203048
-0.002605663
-0.0003225246
-0.000431822
-0.001093682
0.001836076
-0.0008963524
0.0008586153
-0.0003105298
4.194684e-07
9.72334e-07
-5.139695e-06
3.157223e-06
0
0
0
0
0
0.0008326522
-0.0008748775
0.00126152
-0.002588562
-0.002108611
0.0004364751
-3.15021e-06
0.001491698
0.0007449805
-0.0003291378
4.58493e-05
-3.75889e-06
-1.234033e-06
-2.593032e-06
3.702823e-06
-9.196518e-06
0
0
0
0
0
0.0003080254
0.0004975905
3.613476e-05
0.001219412
0.0003767583
0.0009888156
0.001319829
0.001212813
-0.001981001
4.154111e-05
-0.0005782008
-1.362845e-06
5.22201e-06
3.643051e-06
6.604774e-07
-3.246487e-05
1.0469e-05
0
0
0
0
0
-0.0001786353
0.0009739285
0.001078419
0.0007567973
-0.0002778521
-0.0005866582
2.547078e-05
0.0001400844
0.000135032
-0.0007770604
6.76489e-05
-1.320929e-06
2.731383e-06
-2.804152e-06
-2.626522e-06
-3.886087e-05
3.068117e-06
8.12649e-06
0
0
0
0
0
-9.200218e-05
-8.170986e-05
-0.0001335253
7.726407e-05
4.558988e-05
0.0004870006
0.0005017035
-0.0003451233
0.0001789303
0.0003492707
-6.271175e-05
1.445836e-06
-6.657768e-06
-2.485953e-06
3.103104e-06
1.565218e-06
-7.193894e-06
5.234367e-06
2.524051e-06
0
0
0
0
0
0
0
0
0
0
0
0
0
0
0
-2.346955e-07
-1.70224e-06
-6.3387e-06
4.43154e-06
1.330823e-06
2.93179e-06
-1.668048e-05
-3.579611e-06
2.199754e-05
-1.020491e-05
0
0
0
0
0
0
0
0
0
0
0
0
0
0
0
1.220856e-06
-4.311088e-06
3.909156e-06
3.762986e-06
-5.13088e-06
-9.606048e-06
-1.280075e-05
6.149725e-06
-3.120601e-05
2.66857e-05
-82080.59
0
0
0
0
0
0
0
0
0
0
0
0
0
0
0
2.688933e-06
-2.089529e-06
3.562871e-07
-2.237127e-07
-2.328686e-06
2.825746e-05
3.301449e-05
-5.960709e-06
-3.379314e-05
2.165479e-06
-73039.18
-80710.36
0
0
0
0
0
0
0
0
0
0
0
0
0
0
0
-6.426393e-07
8.77023e-07
1.534756e-07
-3.543455e-07
5.362962e-07
-7.668806e-06
-2.609816e-06
2.069424e-05
2.613282e-05
1.336506e-06
-66729.04
-72714.32
-80957.96
0
0
0
0
0
0
0
0
0
0
0
0
0
0
0
-1.306387e-06
-8.677598e-07
3.985946e-06
2.477775e-06
-1.832411e-06
-8.251313e-06
8.690251e-06
-7.679217e-06
-5.744165e-06
-1.832961e-05
-62096.9
-66871.07
-73656.02
-82875.22
0
0
0
0
0
0
0
0
0
0
0
0
0
0
0
0
0
0
0
0
0
0
0
0
0
0
0
0
0
0
0
0
0
0
0
0
0
0
0
0
0
0
0
0
0
0
0
0
0
0
0
0
0
0
0
0
0
0
0
0
0
0
0
0
0
0
0
0
0
0
2.927498e-05
-2.045966e-05
-0.0009528321
-0.0009702953
8.605028e-05
0.0004924696
-0.00082371
0.0003872765
-0.0005457587
-0.0006344788
3.210748e-05
0
0
0
0
0
0.0007161996
0.0003043528
-4.962261e-05
-0.001755202
-0.0007566543
0.0005993684
-0.0006991516
-0.0002559819
-0.0003908664
0.0002112288
0.0008872622
-5.831758e-06
0
0
0
0
0
-5.00818e-05
0.001566192
-0.001788775
-0.0003697885
-0.001911174
0.0003289845
0.0008961029
-0.001376417
0.0005371332
-0.0002378227
0.0002228487
-2.38884e-06
-2.509316e-06
0
0
0
0
0
0.0003437906
-0.000760875
0.0002680966
0.0002047383
0.0002174314
-0.0008052216
-0.0002819685
-7.72773e-05
-0.0007613465
0.001225394
0.0003628888
-1.595516e-06
-2.009223e-06
4.086877e-06
0
0
0
0
0
-4.640609e-05
0.0005589893
-0.0005471572
0.001622051
-0.001222443
-0.00174234
4.185274e-05
-0.001430273
0.0003644685
-0.001226727
0.0004138872
-2.612582e-06
7.135427e-07
3.933951e-06
-1.209982e-06
0
0
0
0
0
0.000248497
0.0004658804
-0.00110622
0.0007636236
0.003302456
0.001252581
0.0005000687
-0.001392846
0.001186105
-0.0006309328
0.0002220896
3.724063e-06
3.965604e-06
-2.325295e-06
-1.962382e-06
9.827961e-06
0
0
0
0
0
-0.0001717639
-0.001268577
0.0002600077
-0.0007458904
-0.0004494681
0.002756783
-0.0005926842
-0.0009850248
-0.0007001545
6.179654e-05
0.000508798
8.36488e-07
9.613758e-07
-6.441209e-06
-4.486173e-06
3.545309e-05
2.29296e-05
0
0
0
0
0
-0.0005890024
0.0006150495
0.0007756747
0.0004559073
-0.001311031
0.0003828493
5.273063e-05
-0.0004591777
0.0002649208
0.0005253492
-5.92911e-05
1.878725e-06
2.544995e-07
4.230648e-06
1.502772e-06
-2.086356e-06
9.290899e-06
2.95187e-05
0
0
0
0
0
-0.0002356392
0.000253539
-0.0003465619
0.0001019406
-0.0003326529
-0.0001969941
-2.485274e-05
-0.000407919
0.0008453183
-0.001180628
1.64238e-05
-2.039025e-06
6.558925e-08
8.295595e-07
-7.893321e-08
-1.550854e-05
-1.014916e-06
4.718764e-06
2.476686e-05
0
0
0
0
0
0.000135289
0.0009167919
-4.162926e-05
-0.0001671252
-8.231811e-05
-0.0002265721
-0.000517114
-0.0003104726
-6.569764e-05
-0.0008576395
-7.750313e-05
-8.222642e-07
1.742978e-06
-2.597163e-06
-1.067056e-06
3.297215e-05
1.740303e-06
-8.412337e-06
4.377152e-08
-2.253822e-05
0
0
0
0
0
0
0
0
0
0
0
0
0
0
0
-1.325562e-06
-6.398852e-07
-2.046985e-06
-2.501351e-06
6.583345e-07
2.719397e-05
-5.476842e-06
4.308539e-06
1.327236e-05
-1.438212e-05
-84661.71
0
0
0
0
0
0
0
0
0
0
0
0
0
0
0
1.605467e-06
-8.757947e-07
3.064901e-06
1.269518e-07
3.01928e-06
-2.727941e-05
-8.926156e-06
-8.047872e-06
-1.351039e-05
1.506758e-05
-74281.17
-82764.57
0
0
0
0
0
0
0
0
0
0
0
0
0
0
0
1.589894e-06
-1.871741e-06
-2.244562e-06
-2.882565e-06
-2.687456e-06
4.049664e-06
-1.358691e-05
-1.237808e-05
2.971588e-06
8.794203e-06
-67396.02
-73603.89
-82394.44
0
0
0
0
0
0
0
0
0
0
0
0
0
0
0
-1.705231e-06
-2.472939e-06
5.357079e-07
1.102428e-06
1.579976e-06
3.898386e-05
2.115213e-05
-2.807552e-06
8.991571e-06