/*--------------------------------*- C++ -*----------------------------------*\
| =========                 |                                                 |
| \\      /  F ield         | OpenFOAM: The Open Source CFD Toolbox           |
|  \\    /   O peration     | Version:  2306                                  |
|   \\  /    A nd           | Website:  www.openfoam.com                      |
|    \\/     M anipulation  |                                                 |
\*---------------------------------------------------------------------------*/
FoamFile
{
    version     2.0;
    format      ascii;
    arch        "LSB;label=32;scalar=64";
    class       volScalarField;
    location    "1.5";
    object      k;
}
// * * * * * * * * * * * * * * * * * * * * * * * * * * * * * * * * * * * * * //

dimensions      [1 1 -3 -1 0 0 0];

internalField   nonuniform List<scalar> 
52000
(
20
20
20
20
20
20
20
20
20
20
20
20
20
20
20
20
20
20
20
20
20
20
20
20
20
20
20
20
20
20
20
20
20
20
20
20
20
20
20
20
20
20
20
20
20
20
20
20
20
20
20
20
20
20
20
20
20
20
20
20
20
20
20
20
20
20
20
20
20
20
20
20
20
20
20
20
20
20
20
20
20
20
20
20
20
20
20
20
20
20
20
20
20
20
20
20
20
20
20
20
20
20
20
20
20
20
20
20
20
20
20
20
20
20
20
20
20
20
20
20
20
20
20
20
20
20
20
20
20
20
20
20
20
20
20
20
20
20
20
20
20
20
20
20
20
20
20
20
20
20
20
20
20
20
20
20
20
20
20
20
20
20
20
20
20
20
20
20
20
20
20
20
20
20
20
20
20
20
20
20
20
20
20
20
20
20
20
20
20
20
20
20
20
20
20
20
20
20
20
20
20
20
20
20
20
20
20
20
20
20
20
20
20
20
20
20
20
20
20
20
20
20
20
20
20
20
20
20
20
20
20
20
20
20
20
20
20
20
20
20
0.08031786
20
20
20
20
20
20
20
20
20
20
20
20
20
20
20
20
20
20
20
20
20
20
20
20
20
20
20
20
20
20
20
20
20
20
20
20
20
20
20
20
20
20
20
20
20
20
20
20
20
20
20
20
20
20
20
20
20
20
20
20
20
20
20
20
20
0.07968816
20
20
20
20
20
0.08105375
0.07967801
20
20
20
20
20
20
20
20
20
20
20
20
20
20
20
20
20
20
20
20
20
20
20
20
20
20
20
20
20
20
20
20
20
20
20
20
20
20
20
20
20
20
20
20
20
20
20
20
20
20
20
20
20
20
20
20
20
20
20
20
20
20
20
20
20
20
20
20
20
20
0.07934574
20
20
20
20
20
0.08088055
0.07815014
20
20
20
20
20
0.08124585
0.08087925
0.0793269
20
20
20
20
20
20
20
20
20
20
20
20
20
20
20
20
20
20
20
20
20
20
20
20
20
20
20
20
20
20
20
20
20
20
20
20
20
20
20
20
20
20
20
20
20
20
20
20
20
20
20
20
20
20
20
20
20
20
20
20
20
20
20
20
20
20
20
20
20
20
20
20
20
20
20
0.07915396
20
20
20
20
20
0.08073113
0.07720558
20
20
20
20
20
0.08116742
0.08036812
0.07719115
20
20
20
20
20
0.08140679
0.08117131
0.08072904
0.07912478
20
20
20
20
20
20
20
20
20
20
20
20
20
20
20
20
20
20
20
20
20
20
20
20
20
20
20
20
20
20
20
20
20
20
20
20
20
20
20
20
20
20
20
20
20
20
20
20
20
20
20
20
20
20
20
20
20
20
20
20
20
20
20
20
20
20
20
20
20
20
20
20
20
20
20
20
20
20
20
20
0.07906536
20
20
20
20
20
0.08062144
0.07664316
20
20
20
20
20
0.08109675
0.07992032
0.0757646
20
20
20
20
20
0.08136633
0.08094113
0.07991521
0.07660438
20
20
20
20
20
0.08155104
0.08137229
0.08110522
0.08061829
0.07902288
20
20
20
20
20
20
20
20
20
20
20
20
20
20
20
20
20
20
20
20
20
20
20
20
20
20
20
20
20
20
20
20
20
20
20
20
20
20
20
20
20
20
20
20
20
20
20
20
20
20
20
20
20
20
20
20
20
20
20
20
20
20
20
20
20
20
20
20
20
20
20
20
20
20
20
20
20
20
20
20
20
20
20
20
20
0.07906536
20
20
20
20
20
0.08056348
0.0763778
20
20
20
20
20
0.08104261
0.07958842
0.07487262
20
20
20
20
20
0.08133033
0.08073057
0.07918822
0.07483856
20
20
20
20
20
0.08152748
0.08125719
0.08073414
0.07957295
0.07629991
20
20
20
20
20
0.08168275
0.08153393
0.08134301
0.08105669
0.08055924
0.07900536
20
20
20
20
20
20
20
20
20
20
20
20
20
20
20
20
20
20
20
20
20
20
20
20
20
20
20
20
20
20
20
20
20
20
20
20
20
20
20
20
20
20
20
20
20
20
20
20
20
20
20
20
20
20
20
20
20
20
20
20
20
20
20
20
20
20
20
20
20
0.3569178
20
20
20
20
20
20
20
20
20
20
20
20
20
20
20
20
20
20
20
20
0.07915396
20
20
20
20
20
0.08056348
0.0763778
20
20
20
20
20
0.08101317
0.0794121
0.07444021
20
20
20
20
20
0.08130284
0.08056768
0.07864218
0.07369209
20
20
20
20
20
0.08150707
0.0811527
0.08038899
0.07862565
0.07434403
20
20
20
20
20
0.08166732
0.08146973
0.08115983
0.08057429
0.07938085
0.07624424
20
20
20
20
20
0.08180397
0.08167362
0.08152076
0.08132389
0.08103451
0.08055948
0.07907198
20
20
20
20
20
20
20
20
20
20
20
20
20
20
20
20
20
20
20
20
20
20
20
20
20
20
20
20
20
20
20
20
20
20
20
20
20
20
20
20
20
20
20
20
20
20
20
20
20
20
20
20
20
20
20
20
20
0.3569091
20
20
20
20
20
20
20
20
20
20
20
20
20
20
20
0.3570196
0.3569835
20
20
20
20
20
20
20
20
20
20
20
20
20
20
20
20
20
20
20
20
0.07934574
20
20
20
20
20
0.08062144
0.07664316
20
20
20
20
20
0.08101317
0.0794121
0.07444021
20
20
20
20
20
0.08128786
0.08047863
0.07834967
0.07311942
20
20
20
20
20
0.08149176
0.08107196
0.08011878
0.07790588
0.07304159
20
20
20
20
20
0.08165432
0.08141271
0.08099047
0.08011983
0.07830383
0.07425018
20
20
20
20
20
0.08179252
0.08163352
0.08142094
0.08108815
0.08048881
0.07936281
0.07643671
20
20
20
20
20
0.08191621
0.08179844
0.08166774
0.08151455
0.08131963
0.08104473
0.08062183
0.07923688
20
20
20
20
20
20
20
20
20
20
20
20
20
20
20
20
20
20
20
20
20
20
20
20
20
20
20
20
20
20
20
20
20
20
20
20
20
20
20
20
20
20
20
20
0.3568911
20
20
20
20
20
20
20
20
20
20
20
20
20
20
20
0.3570136
0.3569737
20
20
20
20
20
20
20
20
20
20
20
20
20
20
20
0.3571164
0.3570803
0.3570506
20
20
20
20
20
20
20
20
20
20
20
20
20
20
20
20
20
20
20
20
0.07968816
20
20
20
20
20
0.08073113
0.07720558
20
20
20
20
20
0.08104261
0.07958842
0.07487262
20
20
20
20
20
0.08128786
0.08047863
0.07834967
0.07311942
20
20
20
20
20
0.08148351
0.08102771
0.07997001
0.07751753
0.07238346
20
20
20
20
20
0.08164477
0.08136943
0.08085782
0.07976044
0.07747968
0.07291507
20
20
20
20
20
0.08178311
0.08159881
0.08133056
0.08086705
0.07997052
0.07826633
0.07455961
20
20
20
20
20
0.08190689
0.08176989
0.08160706
0.08138875
0.08105619
0.08049613
0.07952608
0.07690716
20
20
20
20
20
0.0820206
0.08191237
0.08179576
0.08166717
0.08151787
0.08133363
0.08108959
0.080745
0.07954227
20
20
20
20
20
20
20
20
20
20
20
20
20
20
20
20
20
20
20
20
20
20
20
20
20
20
20
20
20
20
0.3568612
20
20
20
20
20
20
20
20
20
20
20
20
20
20
20
0.3570018
0.3569526
20
20
20
20
20
20
20
20
20
20
20
20
20
20
20
0.3571114
0.3570743
0.3570398
20
20
20
20
20
20
20
20
20
20
20
20
20
20
20
0.357206
0.3571703
0.3571418
0.3571191
20
20
20
20
20
20
20
20
20
20
20
20
20
20
20
20
20
20
20
20
0.08031786
20
20
20
20
20
0.08088055
0.07815014
20
20
20
20
20
0.08109675
0.07992032
0.0757646
20
20
20
20
20
0.08130284
0.08056768
0.07864218
0.07369209
20
20
20
20
20
0.08148351
0.08102771
0.07997001
0.07751753
0.07238346
20
20
20
20
20
0.08163969
0.08134596
0.08078454
0.07956136
0.07703301
0.07223864
20
20
20
20
20
0.08177633
0.08157302
0.08126098
0.08069187
0.07955794
0.07742558
0.07331988
20
20
20
20
20
0.08189934
0.08174576
0.08155348
0.0812731
0.08080661
0.079973
0.07852473
0.07530182
20
20
20
20
20
0.08201252
0.08188975
0.08175363
0.08159263
0.08138044
0.08107397
0.08060171
0.07986157
0.07773489
20
20
20
20
20
0.08211803
0.08201756
0.08191111
0.08179752
0.08167351
0.08153265
0.08136742
0.08116811
0.08092591
0.08010556
20
20
20
20
20
20
20
20
20
20
20
20
20
20
20
0.3568038
20
20
20
20
20
20
20
20
20
20
20
20
20
20
20
0.3569841
0.3569149
20
20
20
20
20
20
20
20
20
20
20
20
20
20
20
0.3571014
0.3570626
0.3570164
20
20
20
20
20
20
20
20
20
20
20
20
20
20
20
0.3572014
0.3571656
0.3571359
0.3571078
20
20
20
20
20
20
20
20
20
20
20
20
20
20
20
0.3572892
0.3572534
0.3572249
0.3572043
0.3571893
20
20
20
20
20
20
20
20
20
20
20
20
20
20
20
20
20
20
20
20
20
20
20
20
20
0.08105375
0.07967801
20
20
20
20
20
0.08116742
0.08036812
0.07719115
20
20
20
20
20
0.08133033
0.08073057
0.07918822
0.07483856
20
20
20
20
20
0.08149176
0.08107196
0.08011878
0.07790588
0.07304159
20
20
20
20
20
0.08163969
0.08134596
0.08078454
0.07956136
0.07703301
0.07223864
20
20
20
20
20
0.08177276
0.08155923
0.08122293
0.08059442
0.07932849
0.07696934
0.07269502
20
20
20
20
20
0.08189397
0.08172825
0.08151313
0.08118294
0.08060724
0.07955532
0.07775893
0.07427271
20
20
20
20
20
0.08200602
0.08187097
0.08171738
0.0815258
0.08125258
0.08082618
0.08013532
0.07905767
0.07655183
20
20
20
20
20
0.08211075
0.08199824
0.08187833
0.08174705
0.08159443
0.08140135
0.08114502
0.08079819
0.08034504
0.07910019
20
20
20
20
20
0.08220919
0.08211541
0.08201693
0.08191376
0.08180483
0.08168798
0.08156004
0.08142136
0.08127981
0.08117133
0.356549
20
20
20
20
20
20
20
20
20
20
20
20
20
20
20
0.3569627
0.3568402
20
20
20
20
20
20
20
20
20
20
20
20
20
20
20
0.3570871
0.3570456
0.3569743
20
20
20
20
20
20
20
20
20
20
20
20
20
20
20
0.3571924
0.3571565
0.3571242
0.357083
20
20
20
20
20
20
20
20
20
20
20
20
20
20
20
0.3572849
0.3572492
0.3572204
0.3571984
0.3571776
20
20
20
20
20
20
20
20
20
20
20
20
20
20
20
0.3573669
0.3573309
0.3573014
0.3572801
0.3572677
0.6327031
20
20
20
20
20
20
20
20
20
20
20
20
20
20
20
20
20
20
20
20
20
20
20
20
20
20
20
20
20
20
0.08124585
0.08087925
0.0793269
20
20
20
20
20
0.08136633
0.08094113
0.07991521
0.07660438
20
20
20
20
20
0.08150707
0.0811527
0.08038899
0.07862565
0.07434403
20
20
20
20
20
0.08164477
0.08136943
0.08085782
0.07976044
0.07747968
0.07291507
20
20
20
20
20
0.08177276
0.08155923
0.08122293
0.08059442
0.07932849
0.07696934
0.07269502
20
20
20
20
20
0.08189117
0.08171902
0.08149137
0.08113327
0.08049578
0.07932265
0.07734413
0.07376264
20
20
20
20
20
0.08200142
0.08185756
0.08169072
0.08147482
0.0811519
0.08062714
0.07976261
0.07844601
0.07581612
20
20
20
20
20
0.08210492
0.08198236
0.08185067
0.08170299
0.08152256
0.08127773
0.08093053
0.08044068
0.07981201
0.07846715
20
20
20
20
20
0.08220251
0.08209815
0.08198921
0.08187521
0.08175283
0.08161556
0.08145393
0.08126671
0.0810695
0.08094319
0.3562798
20
20
20
20
20
0.08229468
0.08220683
0.08211505
0.08201984
0.08192119
0.08181855
0.08171151
0.08160115
0.08149817
0.08143895
0.3569727
0.3566427
20
20
20
20
20
20
20
20
20
20
20
20
20
20
20
0.3570733
0.3570262
0.3568958
20
20
20
20
20
20
20
20
20
20
20
20
20
20
20
0.3571797
0.3571448
0.3571073
0.3570392
20
20
20
20
20
20
20
20
20
20
20
20
20
20
20
0.3572766
0.3572414
0.3572121
0.3571867
0.3571524
20
20
20
20
20
20
20
20
20
20
20
20
20
20
20
0.3573629
0.357327
0.3572976
0.3572759
0.3572618
0.6326964
20
20
20
20
20
20
20
20
20
20
20
20
20
20
20
0.3574396
0.3574037
0.3573731
0.35735
0.357336
0.6327455
0.6327059
20
20
20
20
20
20
20
20
20
20
20
20
20
20
20
20
20
20
20
20
20
20
20
20
20
20
20
20
20
20
20
20
20
20
20
0.08140679
0.08117131
0.08072904
0.07912478
20
20
20
20
20
0.08152748
0.08125719
0.08073414
0.07957295
0.07629991
20
20
20
20
20
0.08165432
0.08141271
0.08099047
0.08011983
0.07830383
0.07425018
20
20
20
20
20
0.08177633
0.08157302
0.08126098
0.08069187
0.07955794
0.07742558
0.07331988
20
20
20
20
20
0.08189117
0.08171902
0.08149137
0.08113327
0.08049578
0.07932265
0.07734413
0.07376264
20
20
20
20
20
0.08199904
0.08185059
0.08167658
0.08144712
0.08109609
0.08051551
0.079555
0.0781159
0.07545957
20
20
20
20
20
0.08210081
0.08197114
0.08183072
0.08167023
0.08146711
0.08117946
0.0807571
0.08015381
0.07940632
0.07807724
20
20
20
20
20
0.08219716
0.08208405
0.0819661
0.08184228
0.08170684
0.08154862
0.08135156
0.08111164
0.08085211
0.08070788
0.3560701
20
20
20
20
20
0.08228849
0.08219103
0.08209042
0.08198759
0.08188236
0.08177305
0.08165796
0.08153836
0.08143394
0.08140138
0.3569254
0.3564259
20
20
20
20
20
0.08237501
0.0822925
0.08220659
0.08211798
0.08202706
0.0819341
0.08183951
0.08174546
0.08166005
0.08161575
0.357128
0.3570195
0.3567388
20
20
20
20
20
20
20
20
20
20
20
20
20
20
20
0.3571688
0.3571374
0.3570878
0.3569637
20
20
20
20
20
20
20
20
20
20
20
20
20
20
20
0.3572648
0.3572318
0.3572017
0.3571695
0.3571089
20
20
20
20
20
20
20
20
20
20
20
20
20
20
20
0.357355
0.3573199
0.3572906
0.3572679
0.3572499
0.6326821
20
20
20
20
20
20
20
20
20
20
20
20
20
20
20
0.3574358
0.3574002
0.3573697
0.3573464
0.3573319
0.6327421
0.6326993
20
20
20
20
20
20
20
20
20
20
20
20
20
20
20
0.3575078
0.3574723
0.3574411
0.3574159
0.3573991
0.632782
0.632748
0.6327088
20
20
20
20
20
20
20
20
20
20
20
20
20
20
20
20
20
20
20
20
20
20
20
20
20
20
20
20
20
20
20
20
20
20
20
20
20
20
20
20
0.08155104
0.08137229
0.08110522
0.08061829
0.07902288
20
20
20
20
20
0.08166732
0.08146973
0.08115983
0.08057429
0.07938085
0.07624424
20
20
20
20
20
0.08178311
0.08159881
0.08133056
0.08086705
0.07997052
0.07826633
0.07455961
20
20
20
20
20
0.08189397
0.08172825
0.08151313
0.08118294
0.08060724
0.07955532
0.07775893
0.07427271
20
20
20
20
20
0.08199904
0.08185059
0.08167658
0.08144712
0.08109609
0.08051551
0.079555
0.0781159
0.07545957
20
20
20
20
20
0.08209868
0.08196535
0.08182027
0.08165271
0.08143675
0.0811247
0.08065953
0.07999386
0.07918767
0.07788883
20
20
20
20
20
0.08219339
0.08207414
0.08194964
0.08181829
0.08167222
0.08149625
0.08126886
0.08098373
0.08067318
0.08052197
0.35593
20
20
20
20
20
0.08228352
0.08217815
0.08207002
0.08196043
0.08184878
0.08173195
0.0816062
0.0814714
0.08135252
0.08132549
0.3568631
0.3562492
20
20
20
20
20
0.08236922
0.08227786
0.0821841
0.08208947
0.08199499
0.08190133
0.08180931
0.08172293
0.08165502
0.08164617
0.3571359
0.3569801
0.3565645
20
20
20
20
20
0.08245057
0.08237297
0.08229234
0.08220944
0.08212486
0.08203916
0.08195319
0.08186909
0.08179424
0.08175503
0.3572331
0.3571665
0.3570718
0.3568372
20
20
20
20
20
20
20
20
20
20
20
20
20
20
20
0.3572549
0.3572283
0.3571955
0.3571488
0.3570393
20
20
20
20
20
20
20
20
20
20
20
20
20
20
20
0.3573439
0.3573112
0.3572828
0.3572579
0.3572323
0.6326578
20
20
20
20
20
20
20
20
20
20
20
20
20
20
20
0.3574283
0.3573935
0.3573635
0.35734
0.357324
0.6327353
0.632685
20
20
20
20
20
20
20
20
20
20
20
20
20
20
20
0.3575042
0.3574689
0.3574379
0.3574127
0.3573957
0.6327797
0.6327446
0.6327021
20
20
20
20
20
20
20
20
20
20
20
20
20
20
20
0.3575718
0.357537
0.3575056
0.357479
0.3574592
0.6328159
0.6327843
0.6327506
0.6327116
20
20
20
20
20
20
20
20
20
20
20
20
20
20
20
20
20
20
20
20
20
20
20
20
20
20
20
20
20
20
20
20
20
20
20
20
20
20
20
20
20
20
20
20
20
0.08168275
0.08153393
0.08134301
0.08105669
0.08055924
0.07900536
20
20
20
20
20
0.08179252
0.08163352
0.08142094
0.08108815
0.08048881
0.07936281
0.07643671
20
20
20
20
20
0.08189934
0.08174576
0.08155348
0.0812731
0.08080661
0.079973
0.07852473
0.07530182
20
20
20
20
20
0.08200142
0.08185756
0.08169072
0.08147482
0.0811519
0.08062714
0.07976261
0.07844601
0.07581612
20
20
20
20
20
0.08209868
0.08196535
0.08182027
0.08165271
0.08143675
0.0811247
0.08065953
0.07999386
0.07918767
0.07788883
20
20
20
20
20
0.08219144
0.08206905
0.08194111
0.08180565
0.08165358
0.08146733
0.08122237
0.08091115
0.0805725
0.08042043
0.3558602
20
20
20
20
20
0.08228001
0.08216913
0.0820556
0.08194093
0.08182406
0.08170048
0.08156443
0.08141441
0.08127948
0.08125383
0.3568099
0.3561285
20
20
20
20
20
0.08236457
0.08226593
0.08216552
0.08206564
0.08196769
0.08187237
0.08178011
0.08169493
0.08163077
0.08163449
0.357124
0.3569296
0.3564179
20
20
20
20
20
0.08244515
0.08235931
0.0822715
0.08218345
0.08209668
0.08201267
0.08193353
0.08186334
0.08181307
0.08180904
0.3572593
0.3571721
0.3570373
0.3566978
20
20
20
20
20
0.08252174
0.08244868
0.08237285
0.08229507
0.08221597
0.08213623
0.08205679
0.08197983
0.08191162
0.08187523
0.3573177
0.3572664
0.3572089
0.3571274
0.356937
20
20
20
20
20
20
20
20
20
20
20
20
20
20
20
0.3573345
0.3573088
0.357281
0.3572505
0.3572099
0.6326202
20
20
20
20
20
20
20
20
20
20
20
20
20
20
20
0.3574177
0.3573853
0.3573566
0.3573327
0.3573137
0.6327251
0.6326607
20
20
20
20
20
20
20
20
20
20
20
20
20
20
20
0.357497
0.3574625
0.3574321
0.3574071
0.3573895
0.6327752
0.6327378
0.6326878
20
20
20
20
20
20
20
20
20
20
20
20
20
20
20
0.3575683
0.3575338
0.3575025
0.3574761
0.3574562
0.632814
0.6327819
0.6327472
0.632705
20
20
20
20
20
20
20
20
20
20
20
20
20
20
20
0.357632
0.3575981
0.3575668
0.3575393
0.3575173
0.6328484
0.6328179
0.6327865
0.6327531
0.6327145
20
20
20
20
20
20
20
20
20
20
20
20
20
20
20
20
20
20
20
20
20
20
20
20
20
20
20
20
20
20
20
20
20
20
20
20
20
20
20
20
20
20
20
20
20
20
20
20
20
20
0.08180397
0.08167362
0.08152076
0.08132389
0.08103451
0.08055948
0.07907198
20
20
20
20
20
0.08190689
0.08176989
0.08160706
0.08138875
0.08105619
0.08049613
0.07952608
0.07690716
20
20
20
20
20
0.08200602
0.08187097
0.08171738
0.0815258
0.08125258
0.08082618
0.08013532
0.07905767
0.07655183
20
20
20
20
20
0.08210081
0.08197114
0.08183072
0.08167023
0.08146711
0.08117946
0.0807571
0.08015381
0.07940632
0.07807724
20
20
20
20
20
0.08219144
0.08206905
0.08194111
0.08180565
0.08165358
0.08146733
0.08122237
0.08091115
0.0805725
0.08042043
0.3558602
20
20
20
20
20
0.0822782
0.0821645
0.08204815
0.08193076
0.08181095
0.08168335
0.08154099
0.08138163
0.08123674
0.08121173
0.3567799
0.3560678
20
20
20
20
20
0.08236129
0.08225758
0.08215243
0.08204867
0.08194792
0.08185065
0.08175667
0.08166947
0.0816037
0.08161299
0.3571082
0.3568863
0.3563159
20
20
20
20
20
0.08244079
0.08234817
0.08225431
0.0821618
0.0820729
0.08198964
0.08191455
0.08185198
0.08181297
0.08182252
0.3572666
0.3571634
0.3569958
0.3565783
20
20
20
20
20
0.08251665
0.08243588
0.08235341
0.082271
0.08219032
0.08211316
0.0820419
0.08198076
0.0819385
0.08193542
0.3573489
0.3572869
0.3572108
0.357096
0.3568271
20
20
20
20
20
0.08258882
0.08251997
0.0824486
0.08237548
0.08230127
0.08222667
0.08215267
0.08208125
0.08201806
0.08198317
0.357392
0.3573472
0.3573026
0.3572532
0.3571848
0.632568
20
20
20
20
20
20
20
20
20
20
20
20
20
20
20
0.3574084
0.357383
0.3573561
0.3573299
0.3573038
0.6327118
0.6326234
20
20
20
20
20
20
20
20
20
20
20
20
20
20
20
0.3574868
0.3574547
0.3574257
0.357401
0.357382
0.632769
0.6327276
0.6326637
20
20
20
20
20
20
20
20
20
20
20
20
20
20
20
0.3575614
0.3575277
0.357497
0.3574708
0.3574508
0.6328104
0.6327774
0.6327404
0.6326907
20
20
20
20
20
20
20
20
20
20
20
20
20
20
20
0.3576287
0.357595
0.3575639
0.3575365
0.3575145
0.6328467
0.632816
0.6327842
0.6327498
0.6327079
20
20
20
20
20
20
20
20
20
20
20
20
20
20
20
0.3576887
0.3576558
0.3576249
0.357597
0.3575735
0.63288
0.6328502
0.6328199
0.6327888
0.6327557
0.724538
20
20
20
20
20
20
20
20
20
20
20
20
20
20
20
20
20
20
20
20
20
20
20
20
20
20
20
20
20
20
20
20
20
20
20
20
20
20
20
20
20
20
20
20
20
20
20
20
20
20
20
20
20
20
20
0.08191621
0.08179844
0.08166774
0.08151455
0.08131963
0.08104473
0.08062183
0.07923688
20
20
20
20
20
0.08201252
0.08188975
0.08175363
0.08159263
0.08138044
0.08107397
0.08060171
0.07986157
0.07773489
20
20
20
20
20
0.08210492
0.08198236
0.08185067
0.08170299
0.08152256
0.08127773
0.08093053
0.08044068
0.07981201
0.07846715
20
20
20
20
20
0.08219339
0.08207414
0.08194964
0.08181829
0.08167222
0.08149625
0.08126886
0.08098373
0.08067318
0.08052197
0.35593
20
20
20
20
20
0.0822782
0.0821645
0.08204815
0.08193076
0.08181095
0.08168335
0.08154099
0.08138163
0.08123674
0.08121173
0.3567799
0.3560678
20
20
20
20
20
0.0823596
0.0822533
0.08214569
0.08203987
0.08193754
0.08183899
0.08174358
0.08165442
0.0815867
0.08159834
0.3570981
0.3568618
0.3562641
20
20
20
20
20
0.08243771
0.08234038
0.08224221
0.08214644
0.08205582
0.08197264
0.08189942
0.08184021
0.08180578
0.08182184
0.3572662
0.3571513
0.3569605
0.3564939
20
20
20
20
20
0.08251255
0.08242545
0.08233737
0.08225098
0.08216876
0.08209329
0.0820276
0.08197636
0.0819477
0.08195814
0.357363
0.3572938
0.3572034
0.3570615
0.3567321
20
20
20
20
20
0.08258404
0.08250797
0.08243039
0.08235301
0.08227751
0.08220572
0.08214006
0.08208443
0.08204652
0.08204223
0.3574232
0.3573717
0.3573167
0.357251
0.3571556
0.632513
20
20
20
20
20
0.08265207
0.08258717
0.08251994
0.08245112
0.08238137
0.08231138
0.0822421
0.08217539
0.08211626
0.08208263
0.3574597
0.3574185
0.3573789
0.35734
0.3572982
0.6326965
0.6325719
20
20
20
20
20
20
20
20
20
20
20
20
20
20
20
0.3574776
0.3574521
0.3574253
0.3573996
0.3573766
0.6327625
0.6327143
0.6326266
20
20
20
20
20
20
20
20
20
20
20
20
20
20
20
0.3575516
0.3575201
0.3574909
0.3574652
0.3574445
0.6328059
0.6327713
0.6327302
0.6326667
20
20
20
20
20
20
20
20
20
20
20
20
20
20
20
0.357622
0.3575891
0.3575585
0.3575315
0.3575096
0.6328436
0.6328124
0.6327797
0.632743
0.6326936
20
20
20
20
20
20
20
20
20
20
20
20
20
20
20
0.3576855
0.3576528
0.3576221
0.3575943
0.3575708
0.6328784
0.6328485
0.632818
0.6327865
0.6327523
0.7245331
20
20
20
20
20
20
20
20
20
20
20
20
20
20
20
0.3577421
0.3577103
0.3576801
0.3576521
0.3576276
0.6329107
0.6328816
0.632852
0.6328219
0.6327911
0.7245687
0.7245399
20
20
20
20
20
20
20
20
20
20
20
20
20
20
20
20
20
20
20
20
20
20
20
20
20
20
20
20
20
20
20
20
20
20
20
20
20
20
20
20
20
20
20
20
20
20
20
20
20
20
20
20
20
20
20
20
20
20
20
20
0.0820206
0.08191237
0.08179576
0.08166717
0.08151787
0.08133363
0.08108959
0.080745
0.07954227
20
20
20
20
20
0.08211075
0.08199824
0.08187833
0.08174705
0.08159443
0.08140135
0.08114502
0.08079819
0.08034504
0.07910019
20
20
20
20
20
0.08219716
0.08208405
0.0819661
0.08184228
0.08170684
0.08154862
0.08135156
0.08111164
0.08085211
0.08070788
0.3560701
20
20
20
20
20
0.08228001
0.08216913
0.0820556
0.08194093
0.08182406
0.08170048
0.08156443
0.08141441
0.08127948
0.08125383
0.3568099
0.3561285
20
20
20
20
20
0.0823596
0.0822533
0.08214569
0.08203987
0.08193754
0.08183899
0.08174358
0.08165442
0.0815867
0.08159834
0.3570981
0.3568618
0.3562641
20
20
20
20
20
0.08243611
0.08233639
0.08223599
0.08213851
0.08204692
0.08196361
0.08189102
0.08183293
0.0818
0.08181893
0.3572645
0.3571434
0.3569405
0.3564507
20
20
20
20
20
0.08250965
0.08241814
0.08232609
0.08223681
0.08215336
0.08207876
0.08201629
0.08197048
0.08194859
0.08196579
0.3573685
0.3572943
0.3571939
0.3570328
0.3566642
20
20
20
20
20
0.08258017
0.08249818
0.08241536
0.08233433
0.08225758
0.08218775
0.08212803
0.08208272
0.08205873
0.08206718
0.3574391
0.357384
0.357322
0.3572439
0.3571267
0.6324655
20
20
20
20
20
0.08264757
0.08257591
0.08250285
0.08243007
0.08235918
0.08229195
0.0822307
0.08217906
0.08214365
0.08213798
0.357489
0.357443
0.3573965
0.3573479
0.3572921
0.6326803
0.6325177
20
20
20
20
20
0.08271173
0.08265055
0.08258718
0.08252237
0.08245674
0.08239096
0.08232593
0.08226336
0.08220783
0.08217532
0.3575229
0.3574838
0.3574468
0.3574115
0.3573778
0.6327573
0.632699
0.6325758
20
20
20
20
20
20
20
20
20
20
20
20
20
20
20
0.3575424
0.357517
0.3574901
0.3574641
0.3574409
0.632802
0.6327647
0.6327168
0.6326298
20
20
20
20
20
20
20
20
20
20
20
20
20
20
20
0.3576126
0.3575817
0.3575526
0.3575262
0.3575039
0.6328398
0.6328079
0.6327735
0.6327327
0.6326697
20
20
20
20
20
20
20
20
20
20
20
20
20
20
20
0.3576791
0.3576471
0.3576169
0.3575895
0.3575661
0.6328756
0.6328454
0.6328144
0.632782
0.6327455
0.7245224
20
20
20
20
20
20
20
20
20
20
20
20
20
20
20
0.357739
0.3577074
0.3576774
0.3576495
0.3576251
0.6329093
0.6328801
0.6328503
0.63282
0.6327887
0.7245662
0.7245349
20
20
20
20
20
20
20
20
20
20
20
20
20
20
20
0.3577925
0.3577619
0.3577325
0.3577048
0.3576797
0.6329406
0.6329122
0.6328832
0.6328538
0.6328239
0.724595
0.7245703
0.7245413
20
20
20
20
20
20
20
20
20
20
20
20
20
20
20
20
20
20
20
20
20
20
20
20
20
20
20
20
20
20
20
20
20
20
20
20
20
20
20
20
20
20
20
20
20
20
20
20
20
20
20
20
20
20
20
20
20
20
20
20
20
20
20
20
20
0.08211803
0.08201756
0.08191111
0.08179752
0.08167351
0.08153265
0.08136742
0.08116811
0.08092591
0.08010556
20
20
20
20
20
0.08220251
0.08209815
0.08198921
0.08187521
0.08175283
0.08161556
0.08145393
0.08126671
0.0810695
0.08094319
0.3562798
20
20
20
20
20
0.08228352
0.08217815
0.08207002
0.08196043
0.08184878
0.08173195
0.0816062
0.0814714
0.08135252
0.08132549
0.3568631
0.3562492
20
20
20
20
20
0.08236129
0.08225758
0.08215243
0.08204867
0.08194792
0.08185065
0.08175667
0.08166947
0.0816037
0.08161299
0.3571082
0.3568863
0.3563159
20
20
20
20
20
0.08243611
0.08233639
0.08223599
0.08213851
0.08204692
0.08196361
0.08189102
0.08183293
0.0818
0.08181893
0.3572645
0.3571434
0.3569405
0.3564507
20
20
20
20
20
0.08250814
0.0824144
0.08232029
0.0822295
0.08214536
0.0820711
0.08201006
0.08196658
0.08194751
0.08196774
0.3573703
0.3572934
0.3571877
0.3570168
0.3566292
20
20
20
20
20
0.08257743
0.08249132
0.08240479
0.08232112
0.08224337
0.08217468
0.08211858
0.08207926
0.08206267
0.08207763
0.3574468
0.3573894
0.3573228
0.3572361
0.3571037
0.6324314
20
20
20
20
20
0.08264393
0.08256671
0.08248875
0.08241257
0.08234057
0.08227532
0.08221987
0.08217826
0.08215623
0.08216239
0.3575047
0.3574568
0.3574063
0.3573511
0.3572847
0.6326653
0.6324709
20
20
20
20
20
0.0827075
0.08263998
0.08257115
0.08250262
0.08243593
0.08237277
0.08231531
0.08226684
0.08223331
0.08222627
0.3575497
0.3575067
0.3574645
0.3574225
0.3573799
0.6327526
0.6326828
0.6325224
20
20
20
20
20
0.08276799
0.08271033
0.08265061
0.08258954
0.08252775
0.08246586
0.08240473
0.08234594
0.08229365
0.08226235
0.3575824
0.357545
0.3575094
0.3574757
0.3574442
0.6328003
0.6327592
0.6327014
0.6325796
20
20
20
20
20
20
20
20
20
20
20
20
20
20
20
0.3576034
0.3575782
0.3575513
0.3575249
0.3575008
0.6328369
0.6328039
0.6327669
0.6327193
0.6326331
20
20
20
20
20
20
20
20
20
20
20
20
20
20
20
0.3576699
0.3576398
0.357611
0.3575843
0.3575607
0.6328722
0.6328416
0.6328099
0.6327758
0.6327353
0.7245045
20
20
20
20
20
20
20
20
20
20
20
20
20
20
20
0.3577328
0.3577019
0.3576724
0.3576449
0.3576206
0.6329066
0.6328772
0.6328472
0.6328164
0.6327842
0.7245611
0.7245243
20
20
20
20
20
20
20
20
20
20
20
20
20
20
20
0.3577895
0.3577591
0.3577298
0.3577023
0.3576773
0.6329392
0.6329107
0.6328817
0.6328521
0.632822
0.7245933
0.7245678
0.7245364
20
20
20
20
20
20
20
20
20
20
20
20
20
20
20
0.3578401
0.3578108
0.3577822
0.357755
0.3577298
0.6329694
0.6329419
0.6329137
0.6328849
0.6328556
0.7246195
0.7245965
0.7245716
0.7245423
20
20
20
20
20
20
20
20
20
20
20
20
20
20
20
20
20
20
20
20
20
20
20
20
20
20
20
20
20
20
20
20
20
20
20
20
20
20
20
20
20
20
20
20
20
20
20
20
20
20
20
20
20
20
20
20
20
20
20
20
20
20
20
20
20
20
20
20
20
20
0.08220919
0.08211541
0.08201693
0.08191376
0.08180483
0.08168798
0.08156004
0.08142136
0.08127981
0.08117133
0.356549
20
20
20
20
20
0.08228849
0.08219103
0.08209042
0.08198759
0.08188236
0.08177305
0.08165796
0.08153836
0.08143394
0.08140138
0.3569254
0.3564259
20
20
20
20
20
0.08236457
0.08226593
0.08216552
0.08206564
0.08196769
0.08187237
0.08178011
0.08169493
0.08163077
0.08163449
0.357124
0.3569296
0.3564179
20
20
20
20
20
0.08243771
0.08234038
0.08224221
0.08214644
0.08205582
0.08197264
0.08189942
0.08184021
0.08180578
0.08182184
0.3572662
0.3571513
0.3569605
0.3564939
20
20
20
20
20
0.08250814
0.0824144
0.08232029
0.0822295
0.08214536
0.0820711
0.08201006
0.08196658
0.08194751
0.08196774
0.3573703
0.3572934
0.3571877
0.3570168
0.3566292
20
20
20
20
20
0.08257602
0.0824878
0.08239936
0.0823143
0.082236
0.08216782
0.0821134
0.08207679
0.08206345
0.08208136
0.3574498
0.3573913
0.3573223
0.3572313
0.357091
0.6324137
20
20
20
20
20
0.08264135
0.08256026
0.08247883
0.08240019
0.0823273
0.08226326
0.08221142
0.08217576
0.08216103
0.08217334
0.3575127
0.3574638
0.3574109
0.3573515
0.3572781
0.6326536
0.6324373
20
20
20
20
20
0.08270406
0.08263132
0.08255791
0.08248619
0.08241848
0.08235721
0.08230525
0.08226625
0.08224527
0.08224913
0.3575644
0.3575202
0.3574755
0.3574294
0.3573807
0.6327482
0.6326679
0.6324762
20
20
20
20
20
0.08276401
0.08270041
0.08263556
0.08257101
0.08250822
0.08244878
0.08239471
0.08234904
0.08231708
0.08230902
0.3576067
0.3575659
0.357526
0.3574871
0.3574491
0.6327999
0.6327544
0.6326853
0.6325271
20
20
20
20
20
0.08282104
0.08276672
0.08271044
0.08265291
0.0825947
0.08253644
0.08247894
0.08242364
0.08237438
0.08234434
0.3576388
0.3576028
0.3575683
0.3575353
0.3575046
0.6328366
0.632802
0.6327612
0.6327038
0.6325835
20
20
20
20
20
20
20
20
20
20
20
20
20
20
20
0.3576609
0.357636
0.3576093
0.3575827
0.3575578
0.6328697
0.6328386
0.6328058
0.632769
0.6327219
0.7244773
20
20
20
20
20
20
20
20
20
20
20
20
20
20
20
0.357724
0.3576948
0.3576666
0.3576397
0.3576154
0.6329034
0.6328738
0.6328434
0.6328119
0.632778
0.7245534
0.7245064
20
20
20
20
20
20
20
20
20
20
20
20
20
20
20
0.3577836
0.3577538
0.357725
0.3576978
0.3576729
0.6329366
0.6329081
0.6328788
0.632849
0.6328185
0.7245899
0.7245627
0.7245258
20
20
20
20
20
20
20
20
20
20
20
20
20
20
20
0.3578372
0.3578081
0.3577797
0.3577526
0.3577275
0.632968
0.6329405
0.6329122
0.6328833
0.6328539
0.724618
0.7245947
0.7245691
0.7245374
20
20
20
20
20
20
20
20
20
20
20
20
20
20
20
0.3578851
0.357857
0.3578295
0.3578029
0.3577779
0.6329972
0.6329706
0.6329432
0.6329151
0.6328865
0.724643
0.7246208
0.7245976
0.7245725
0.7245429
20
20
20
20
20
20
20
20
20
20
20
20
20
20
20
20
20
20
20
20
20
20
20
20
20
20
20
20
20
20
20
20
20
20
20
20
20
20
20
20
20
20
20
20
20
20
20
20
20
20
20
20
20
20
20
20
20
20
20
20
20
20
20
20
20
20
20
20
20
0.3568038
20
20
20
20
20
0.08229468
0.08220683
0.08211505
0.08201984
0.08192119
0.08181855
0.08171151
0.08160115
0.08149817
0.08143895
0.3569727
0.3566427
20
20
20
20
20
0.08236922
0.08227786
0.0821841
0.08208947
0.08199499
0.08190133
0.08180931
0.08172293
0.08165502
0.08164617
0.3571359
0.3569801
0.3565645
20
20
20
20
20
0.08244079
0.08234817
0.08225431
0.0821618
0.0820729
0.08198964
0.08191455
0.08185198
0.08181297
0.08182252
0.3572666
0.3571634
0.3569958
0.3565783
20
20
20
20
20
0.08250965
0.08241814
0.08232609
0.08223681
0.08215336
0.08207876
0.08201629
0.08197048
0.08194859
0.08196579
0.3573685
0.3572943
0.3571939
0.3570328
0.3566642
20
20
20
20
20
0.08257602
0.0824878
0.08239936
0.0823143
0.082236
0.08216782
0.0821134
0.08207679
0.08206345
0.08208136
0.3574498
0.3573913
0.3573223
0.3572313
0.357091
0.6324137
20
20
20
20
20
0.08264001
0.08255695
0.08247373
0.0823938
0.08232043
0.08225693
0.0822068
0.08217389
0.08216242
0.08217756
0.3575161
0.3574666
0.3574127
0.3573512
0.3572741
0.6326473
0.6324199
20
20
20
20
20
0.08270163
0.08262526
0.08254859
0.08247457
0.08240604
0.08234593
0.08229742
0.08226409
0.08225005
0.08225965
0.3575722
0.3575274
0.3574814
0.3574329
0.3573805
0.6327446
0.6326564
0.6324431
20
20
20
20
20
0.08276078
0.08269228
0.08262312
0.08255558