/*--------------------------------*- C++ -*----------------------------------*\
| =========                 |                                                 |
| \\      /  F ield         | OpenFOAM: The Open Source CFD Toolbox           |
|  \\    /   O peration     | Version:  2306                                  |
|   \\  /    A nd           | Website:  www.openfoam.com                      |
|    \\/     M anipulation  |                                                 |
\*---------------------------------------------------------------------------*/
FoamFile
{
    version     2.0;
    format      ascii;
    arch        "LSB;label=32;scalar=64";
    class       volScalarField;
    location    "1.5";
    object      rhoCp;
}
// * * * * * * * * * * * * * * * * * * * * * * * * * * * * * * * * * * * * * //

dimensions      [1 -1 -2 -1 0 0 0];

internalField   nonuniform List<scalar> 
52000
(
5346000
5346000
5346000
5346000
5346000
5346000
5346000
5346000
5346000
5346000
5346000
5346000
5346000
5346000
5346000
5346000
5346000
5346000
5346000
5346000
5346000
5346000
5346000
5346000
5346000
5346000
5346000
5346000
5346000
5346000
5346000
5346000
5346000
5346000
5346000
5346000
5346000
5346000
5346000
5346000
5346000
5346000
5346000
5346000
5346000
5346000
5346000
5346000
5346000
5346000
5346000
5346000
5346000
5346000
5346000
5346000
5346000
5346000
5346000
5346000
5346000
5346000
5346000
5346000
5346000
5346000
5346000
5346000
5346000
5346000
5346000
5346000
5346000
5346000
5346000
5346000
5346000
5346000
5346000
5346000
5346000
5346000
5346000
5346000
5346000
5346000
5346000
5346000
5346000
5346000
5346000
5346000
5346000
5346000
5346000
5346000
5346000
5346000
5346000
5346000
5346000
5346000
5346000
5346000
5346000
5346000
5346000
5346000
5346000
5346000
5346000
5346000
5346000
5346000
5346000
5346000
5346000
5346000
5346000
5346000
5346000
5346000
5346000
5346000
5346000
5346000
5346000
5346000
5346000
5346000
5346000
5346000
5346000
5346000
5346000
5346000
5346000
5346000
5346000
5346000
5346000
5346000
5346000
5346000
5346000
5346000
5346000
5346000
5346000
5346000
5346000
5346000
5346000
5346000
5346000
5346000
5346000
5346000
5346000
5346000
5346000
5346000
5346000
5346000
5346000
5346000
5346000
5346000
5346000
5346000
5346000
5346000
5346000
5346000
5346000
5346000
5346000
5346000
5346000
5346000
5346000
5346000
5346000
5346000
5346000
5346000
5346000
5346000
5346000
5346000
5346000
5346000
5346000
5346000
5346000
5346000
5346000
5346000
5346000
5346000
5346000
5346000
5346000
5346000
5346000
5346000
5346000
5346000
5346000
5346000
5346000
5346000
5346000
5346000
5346000
5346000
5346000
5346000
5346000
5346000
5346000
5346000
5346000
5346000
5346000
5346000
5346000
5346000
5346000
5346000
5346000
5346000
5346000
5346000
5346000
5346000
5346000
5346000
5346000
5346000
368.3018
5346000
5346000
5346000
5346000
5346000
5346000
5346000
5346000
5346000
5346000
5346000
5346000
5346000
5346000
5346000
5346000
5346000
5346000
5346000
5346000
5346000
5346000
5346000
5346000
5346000
5346000
5346000
5346000
5346000
5346000
5346000
5346000
5346000
5346000
5346000
5346000
5346000
5346000
5346000
5346000
5346000
5346000
5346000
5346000
5346000
5346000
5346000
5346000
5346000
5346000
5346000
5346000
5346000
5346000
5346000
5346000
5346000
5346000
5346000
5346000
5346000
5346000
5346000
5346000
5346000
371.5443
5346000
5346000
5346000
5346000
5346000
364.535
371.5973
5346000
5346000
5346000
5346000
5346000
5346000
5346000
5346000
5346000
5346000
5346000
5346000
5346000
5346000
5346000
5346000
5346000
5346000
5346000
5346000
5346000
5346000
5346000
5346000
5346000
5346000
5346000
5346000
5346000
5346000
5346000
5346000
5346000
5346000
5346000
5346000
5346000
5346000
5346000
5346000
5346000
5346000
5346000
5346000
5346000
5346000
5346000
5346000
5346000
5346000
5346000
5346000
5346000
5346000
5346000
5346000
5346000
5346000
5346000
5346000
5346000
5346000
5346000
5346000
5346000
5346000
5346000
5346000
5346000
5346000
373.3278
5346000
5346000
5346000
5346000
5346000
365.406
379.6689
5346000
5346000
5346000
5346000
5346000
363.5924
365.415
373.4273
5346000
5346000
5346000
5346000
5346000
5346000
5346000
5346000
5346000
5346000
5346000
5346000
5346000
5346000
5346000
5346000
5346000
5346000
5346000
5346000
5346000
5346000
5346000
5346000
5346000
5346000
5346000
5346000
5346000
5346000
5346000
5346000
5346000
5346000
5346000
5346000
5346000
5346000
5346000
5346000
5346000
5346000
5346000
5346000
5346000
5346000
5346000
5346000
5346000
5346000
5346000
5346000
5346000
5346000
5346000
5346000
5346000
5346000
5346000
5346000
5346000
5346000
5346000
5346000
5346000
5346000
5346000
5346000
5346000
5346000
5346000
5346000
5346000
5346000
5346000
374.333
5346000
5346000
5346000
5346000
5346000
366.1599
384.8081
5346000
5346000
5346000
5346000
5346000
363.9839
368.0076
384.888
5346000
5346000
5346000
5346000
5346000
362.7939
363.9671
366.1776
374.488
5346000
5346000
5346000
5346000
5346000
5346000
5346000
5346000
5346000
5346000
5346000
5346000
5346000
5346000
5346000
5346000
5346000
5346000
5346000
5346000
5346000
5346000
5346000
5346000
5346000
5346000
5346000
5346000
5346000
5346000
5346000
5346000
5346000
5346000
5346000
5346000
5346000
5346000
5346000
5346000
5346000
5346000
5346000
5346000
5346000
5346000
5346000
5346000
5346000
5346000
5346000
5346000
5346000
5346000
5346000
5346000
5346000
5346000
5346000
5346000
5346000
5346000
5346000
5346000
5346000
5346000
5346000
5346000
5346000
5346000
5346000
5346000
5346000
5346000
5346000
5346000
5346000
5346000
5346000
5346000
374.799
5346000
5346000
5346000
5346000
5346000
366.7148
387.9243
5346000
5346000
5346000
5346000
5346000
364.3369
370.304
392.879
5346000
5346000
5346000
5346000
5346000
362.9942
365.122
370.3349
388.1416
5346000
5346000
5346000
5346000
5346000
362.0893
362.9677
364.3026
366.7456
375.0253
5346000
5346000
5346000
5346000
5346000
5346000
5346000
5346000
5346000
5346000
5346000
5346000
5346000
5346000
5346000
5346000
5346000
5346000
5346000
5346000
5346000
5346000
5346000
5346000
5346000
5346000
5346000
5346000
5346000
5346000
5346000
5346000
5346000
5346000
5346000
5346000
5346000
5346000
5346000
5346000
5346000
5346000
5346000
5346000
5346000
5346000
5346000
5346000
5346000
5346000
5346000
5346000
5346000
5346000
5346000
5346000
5346000
5346000
5346000
5346000
5346000
5346000
5346000
5346000
5346000
5346000
5346000
5346000
5346000
5346000
5346000
5346000
5346000
5346000
5346000
5346000
5346000
5346000
5346000
5346000
5346000
5346000
5346000
5346000
5346000
374.799
5346000
5346000
5346000
5346000
5346000
367.0086
389.4094
5346000
5346000
5346000
5346000
5346000
364.6075
372.0214
398.0203
5346000
5346000
5346000
5346000
5346000
363.172
366.1834
374.1152
398.2192
5346000
5346000
5346000
5346000
5346000
362.2049
363.5406
366.1705
372.1133
389.848
5346000
5346000
5346000
5346000
5346000
361.445
362.1761
363.1183
364.5535
367.0562
375.1204
5346000
5346000
5346000
5346000
5346000
5346000
5346000
5346000
5346000
5346000
5346000
5346000
5346000
5346000
5346000
5346000
5346000
5346000
5346000
5346000
5346000
5346000
5346000
5346000
5346000
5346000
5346000
5346000
5346000
5346000
5346000
5346000
5346000
5346000
5346000
5346000
5346000
5346000
5346000
5346000
5346000
5346000
5346000
5346000
5346000
5346000
5346000
5346000
5346000
5346000
5346000
5346000
5346000
5346000
5346000
5346000
5346000
5346000
5346000
5346000
5346000
5346000
5346000
5346000
5346000
5346000
5346000
5346000
5346000
363.6581
5346000
5346000
5346000
5346000
5346000
5346000
5346000
5346000
5346000
5346000
5346000
5346000
5346000
5346000
5346000
5346000
5346000
5346000
5346000
5346000
374.333
5346000
5346000
5346000
5346000
5346000
367.0086
389.4094
5346000
5346000
5346000
5346000
5346000
364.7549
372.9392
400.5538
5346000
5346000
5346000
5346000
5346000
363.3076
367.008
376.9972
404.9458
5346000
5346000
5346000
5346000
5346000
362.3045
364.0613
367.922
377.0916
401.1185
5346000
5346000
5346000
5346000
5346000
361.52
362.4934
364.0319
366.9877
373.1241
390.1622
5346000
5346000
5346000
5346000
5346000
360.8558
361.4919
362.246
363.2216
364.6764
367.0702
374.7765
5346000
5346000
5346000
5346000
5346000
5346000
5346000
5346000
5346000
5346000
5346000
5346000
5346000
5346000
5346000
5346000
5346000
5346000
5346000
5346000
5346000
5346000
5346000
5346000
5346000
5346000
5346000
5346000
5346000
5346000
5346000
5346000
5346000
5346000
5346000
5346000
5346000
5346000
5346000
5346000
5346000
5346000
5346000
5346000
5346000
5346000
5346000
5346000
5346000
5346000
5346000
5346000
5346000
5346000
5346000
5346000
5346000
363.7077
5346000
5346000
5346000
5346000
5346000
5346000
5346000
5346000
5346000
5346000
5346000
5346000
5346000
5346000
5346000
362.9333
363.1934
5346000
5346000
5346000
5346000
5346000
5346000
5346000
5346000
5346000
5346000
5346000
5346000
5346000
5346000
5346000
5346000
5346000
5346000
5346000
5346000
373.3278
5346000
5346000
5346000
5346000
5346000
366.7148
387.9243
5346000
5346000
5346000
5346000
5346000
364.7549
372.9392
400.5538
5346000
5346000
5346000
5346000
5346000
363.3814
367.4601
378.5566
408.3055
5346000
5346000
5346000
5346000
5346000
362.3789
364.4644
369.3028
380.9496
408.7611
5346000
5346000
5346000
5346000
5346000
361.5825
362.7749
364.8793
369.305
378.8178
401.6684
5346000
5346000
5346000
5346000
5346000
360.911
361.6888
362.7403
364.3988
367.433
373.2325
389.0855
5346000
5346000
5346000
5346000
5346000
360.3105
360.8848
361.5254
362.2847
363.2549
364.6411
366.7735
373.9239
5346000
5346000
5346000
5346000
5346000
5346000
5346000
5346000
5346000
5346000
5346000
5346000
5346000
5346000
5346000
5346000
5346000
5346000
5346000
5346000
5346000
5346000
5346000
5346000
5346000
5346000
5346000
5346000
5346000
5346000
5346000
5346000
5346000
5346000
5346000
5346000
5346000
5346000
5346000
5346000
5346000
5346000
5346000
5346000
363.8106
5346000
5346000
5346000
5346000
5346000
5346000
5346000
5346000
5346000
5346000
5346000
5346000
5346000
5346000
5346000
362.9643
363.251
5346000
5346000
5346000
5346000
5346000
5346000
5346000
5346000
5346000
5346000
5346000
5346000
5346000
5346000
5346000
362.2502
362.5056
362.7229
5346000
5346000
5346000
5346000
5346000
5346000
5346000
5346000
5346000
5346000
5346000
5346000
5346000
5346000
5346000
5346000
5346000
5346000
5346000
5346000
371.5443
5346000
5346000
5346000
5346000
5346000
366.1599
384.8081
5346000
5346000
5346000
5346000
5346000
364.6075
372.0214
398.0203
5346000
5346000
5346000
5346000
5346000
363.3814
367.4601
378.5566
408.3055
5346000
5346000
5346000
5346000
5346000
362.419
364.6855
370.0669
383.0589
412.6287
5346000
5346000
5346000
5346000
5346000
361.6282
362.9886
365.5451
371.155
383.2743
409.5011
5346000
5346000
5346000
5346000
5346000
360.9557
361.8586
363.188
365.5078
370.0825
379.0318
399.8531
5346000
5346000
5346000
5346000
5346000
360.3552
361.0241
361.8238
362.9081
364.5708
367.411
372.3994
386.4739
5346000
5346000
5346000
5346000
5346000
359.805
360.3311
360.9022
361.5358
362.28
363.2015
364.437
366.1755
372.3521
5346000
5346000
5346000
5346000
5346000
5346000
5346000
5346000
5346000
5346000
5346000
5346000
5346000
5346000
5346000
5346000
5346000
5346000
5346000
5346000
5346000
5346000
5346000
5346000
5346000
5346000
5346000
5346000
5346000
5346000
363.9868
5346000
5346000
5346000
5346000
5346000
5346000
5346000
5346000
5346000
5346000
5346000
5346000
5346000
5346000
5346000
363.0255
363.3758
5346000
5346000
5346000
5346000
5346000
5346000
5346000
5346000
5346000
5346000
5346000
5346000
5346000
5346000
5346000
362.2756
362.5363
362.7868
5346000
5346000
5346000
5346000
5346000
5346000
5346000
5346000
5346000
5346000
5346000
5346000
5346000
5346000
5346000
361.6057
361.8719
362.0749
362.2427
5346000
5346000
5346000
5346000
5346000
5346000
5346000
5346000
5346000
5346000
5346000
5346000
5346000
5346000
5346000
5346000
5346000
5346000
5346000
5346000
368.3018
5346000
5346000
5346000
5346000
5346000
365.406
379.6689
5346000
5346000
5346000
5346000
5346000
364.3369
370.304
392.879
5346000
5346000
5346000
5346000
5346000
363.3076
367.008
376.9972
404.9458
5346000
5346000
5346000
5346000
5346000
362.419
364.6855
370.0669
383.0589
412.6287
5346000
5346000
5346000
5346000
5346000
361.6525
363.1045
365.9138
372.1866
385.7269
413.4782
5346000
5346000
5346000
5346000
5346000
360.9877
361.9846
363.533
366.3903
372.2145
383.582
407.126
5346000
5346000
5346000
5346000
5346000
360.3907
361.1411
362.0869
363.4818
365.8238
370.0841
377.6671
395.5423
5346000
5346000
5346000
5346000
5346000
359.8436
360.4408
361.1081
361.9026
362.961
364.4975
366.8948
370.6842
381.9519
5346000
5346000
5346000
5346000
5346000
359.3338
359.8215
360.3412
360.9008
361.5158
362.2226
363.0542
364.0702
365.2958
369.4798
5346000
5346000
5346000
5346000
5346000
5346000
5346000
5346000
5346000
5346000
5346000
5346000
5346000
5346000
5346000
364.3383
5346000
5346000
5346000
5346000
5346000
5346000
5346000
5346000
5346000
5346000
5346000
5346000
5346000
5346000
5346000
363.1171
363.6066
5346000
5346000
5346000
5346000
5346000
5346000
5346000
5346000
5346000
5346000
5346000
5346000
5346000
5346000
5346000
362.325
362.5965
362.9279
5346000
5346000
5346000
5346000
5346000
5346000
5346000
5346000
5346000
5346000
5346000
5346000
5346000
5346000
5346000
361.6281
361.8948
362.1054
362.3108
5346000
5346000
5346000
5346000
5346000
5346000
5346000
5346000
5346000
5346000
5346000
5346000
5346000
5346000
5346000
361.0134
361.2739
361.4915
361.6386
361.7605
5346000
5346000
5346000
5346000
5346000
5346000
5346000
5346000
5346000
5346000
5346000
5346000
5346000
5346000
5346000
5346000
5346000
5346000
5346000
5346000
5346000
5346000
5346000
5346000
5346000
364.535
371.5973
5346000
5346000
5346000
5346000
5346000
363.9839
368.0076
384.888
5346000
5346000
5346000
5346000
5346000
363.172
366.1834
374.1152
398.2192
5346000
5346000
5346000
5346000
5346000
362.3789
364.4644
369.3028
380.9496
408.7611
5346000
5346000
5346000
5346000
5346000
361.6525
363.1045
365.9138
372.1866
385.7269
413.4782
5346000
5346000
5346000
5346000
5346000
361.0044
362.0519
363.7219
366.8828
373.4092
386.09
410.7928
5346000
5346000
5346000
5346000
5346000
360.4157
361.2258
362.2849
363.9299
366.8298
372.2417
381.7808
401.5429
5346000
5346000
5346000
5346000
5346000
359.8739
360.5313
361.2847
362.2311
363.5954
365.7405
369.269
374.867
388.4627
5346000
5346000
5346000
5346000
5346000
359.3683
359.9149
360.5007
361.1476
361.9049
362.8725
364.162
365.9256
368.2328
374.6883
5346000
5346000
5346000
5346000
5346000
358.8937
359.3481
359.8284
360.3351
360.8756
361.4596
362.1072
362.8117
363.5447
364.107
366.0914
5346000
5346000
5346000
5346000
5346000
5346000
5346000
5346000
5346000
5346000
5346000
5346000
5346000
5346000
5346000
363.2167
364.0838
5346000
5346000
5346000
5346000
5346000
5346000
5346000
5346000
5346000
5346000
5346000
5346000
5346000
5346000
5346000
362.3949
362.6836
363.1904
5346000
5346000
5346000
5346000
5346000
5346000
5346000
5346000
5346000
5346000
5346000
5346000
5346000
5346000
5346000
361.6714
361.9374
362.1654
362.4612
5346000
5346000
5346000
5346000
5346000
5346000
5346000
5346000
5346000
5346000
5346000
5346000
5346000
5346000
5346000
361.034
361.2933
361.5124
361.6691
361.8305
5346000
5346000
5346000
5346000
5346000
5346000
5346000
5346000
5346000
5346000
5346000
5346000
5346000
5346000
5346000
360.458
360.7223
360.9405
361.1069
361.2044
361.4773
5346000
5346000
5346000
5346000
5346000
5346000
5346000
5346000
5346000
5346000
5346000
5346000
5346000
5346000
5346000
5346000
5346000
5346000
5346000
5346000
5346000
5346000
5346000
5346000
5346000
5346000
5346000
5346000
5346000
5346000
363.5924
365.415
373.4273
5346000
5346000
5346000
5346000
5346000
362.9942
365.122
370.3349
388.1416
5346000
5346000
5346000
5346000
5346000
362.3045
364.0613
367.922
377.0916
401.1185
5346000
5346000
5346000
5346000
5346000
361.6282
362.9886
365.5451
371.155
383.2743
409.5011
5346000
5346000
5346000
5346000
5346000
361.0044
362.0519
363.7219
366.8828
373.4092
386.09
410.7928
5346000
5346000
5346000
5346000
5346000
360.4286
361.2704
362.3917
364.1771
367.3942
373.4528
384.0408
404.5335
5346000
5346000
5346000
5346000
5346000
359.8951
360.5956
361.4143
362.4817
364.096
366.7438
371.1847
378.1029
392.6071
5346000
5346000
5346000
5346000
5346000
359.3954
359.991
360.6344
361.3623
362.258
363.4851
365.2345
367.7325
370.9612
378.0295
5346000
5346000
5346000
5346000
5346000
358.9253
359.4312
359.9627
360.5227
361.1297
361.8153
362.6309
363.5786
364.5906
365.2379
368.0062
5346000
5346000
5346000
5346000
5346000
358.4815
358.9067
359.3535
359.8208
360.309
360.8226
361.3629
361.9284
362.4616
362.793
363.0766
365.4367
5346000
5346000
5346000
5346000
5346000
5346000
5346000
5346000
5346000
5346000
5346000
5346000
5346000
5346000
5346000
362.4432
362.7705
363.6967
5346000
5346000
5346000
5346000
5346000
5346000
5346000
5346000
5346000
5346000
5346000
5346000
5346000
5346000
5346000
361.7314
361.9893
362.2517
362.7355
5346000
5346000
5346000
5346000
5346000
5346000
5346000
5346000
5346000
5346000
5346000
5346000
5346000
5346000
5346000
361.0737
361.3282
361.5502
361.7293
361.9842
5346000
5346000
5346000
5346000
5346000
5346000
5346000
5346000
5346000
5346000
5346000
5346000
5346000
5346000
5346000
360.4773
360.7397
360.9573
361.1265
361.2349
361.5471
5346000
5346000
5346000
5346000
5346000
5346000
5346000
5346000
5346000
5346000
5346000
5346000
5346000
5346000
5346000
359.9417
360.2016
360.4296
360.6034
360.7255
360.9513
361.4419
5346000
5346000
5346000
5346000
5346000
5346000
5346000
5346000
5346000
5346000
5346000
5346000
5346000
5346000
5346000
5346000
5346000
5346000
5346000
5346000
5346000
5346000
5346000
5346000
5346000
5346000
5346000
5346000
5346000
5346000
5346000
5346000
5346000
5346000
5346000
362.7939
363.9671
366.1776
374.488
5346000
5346000
5346000
5346000
5346000
362.2049
363.5406
366.1705
372.1133
389.848
5346000
5346000
5346000
5346000
5346000
361.5825
362.7749
364.8793
369.305
378.8178
401.6684
5346000
5346000
5346000
5346000
5346000
360.9877
361.9846
363.533
366.3903
372.2145
383.582
407.126
5346000
5346000
5346000
5346000
5346000
360.4286
361.2704
362.3917
364.1771
367.3942
373.4528
384.0408
404.5335
5346000
5346000
5346000
5346000
5346000
359.906
360.6289
361.483
362.618
364.374
367.3085
372.2592
379.8689
394.6428
5346000
5346000
5346000
5346000
5346000
359.4142
360.0444
360.7306
361.5218
362.5305
363.9729
366.1053
369.193
373.0607
380.1124
5346000
5346000
5346000
5346000
5346000
358.95
359.4984
360.0738
360.682
361.3536
362.1434
363.1363
364.3489
365.676
366.4123
369.5187
5346000
5346000
5346000
5346000
5346000
358.5106
358.9825
359.4724
359.977
360.4976
361.0444
361.6246
362.2358
362.7746
362.9669
363.3788
366.9626
5346000
5346000
5346000
5346000
5346000
358.0946
358.4934
358.9113
359.3455
359.7953
360.2595
360.738
361.2191
361.6669
361.9175
361.9925
362.7621
364.7678
5346000
5346000
5346000
5346000
5346000
5346000
5346000
5346000
5346000
5346000
5346000
5346000
5346000
5346000
5346000
361.7624
361.9947
362.3432
363.2228
5346000
5346000
5346000
5346000
5346000
5346000
5346000
5346000
5346000
5346000
5346000
5346000
5346000
5346000
5346000
361.1284
361.3667
361.5925
361.8175
362.2561
5346000
5346000
5346000
5346000
5346000
5346000
5346000
5346000
5346000
5346000
5346000
5346000
5346000
5346000
5346000
360.5145
360.7709
360.9861
361.1615
361.2959
361.6993
5346000
5346000
5346000
5346000
5346000
5346000
5346000
5346000
5346000
5346000
5346000
5346000
5346000
5346000
5346000
359.96
360.2178
360.4444
360.6184
360.7443
360.9817
361.5116
5346000
5346000
5346000
5346000
5346000
5346000
5346000
5346000
5346000
5346000
5346000
5346000
5346000
5346000
5346000
359.458
359.7145
359.9435
360.1335
360.2696
360.503
360.9196
361.4071
5346000
5346000
5346000
5346000
5346000
5346000
5346000
5346000
5346000
5346000
5346000
5346000
5346000
5346000
5346000
5346000
5346000
5346000
5346000
5346000
5346000
5346000
5346000
5346000
5346000
5346000
5346000
5346000
5346000
5346000
5346000
5346000
5346000
5346000
5346000
5346000
5346000
5346000
5346000
5346000
362.0893
362.9677
364.3026
366.7456
375.0253
5346000
5346000
5346000
5346000
5346000
361.52
362.4934
364.0319
366.9877
373.1241
390.1622
5346000
5346000
5346000
5346000
5346000
360.9557
361.8586
363.188
365.5078
370.0825
379.0318
399.8531
5346000
5346000
5346000
5346000
5346000
360.4157
361.2258
362.2849
363.9299
366.8298
372.2417
381.7808
401.5429
5346000
5346000
5346000
5346000
5346000
359.906
360.6289
361.483
362.618
364.374
367.3085
372.2592
379.8689
394.6428
5346000
5346000
5346000
5346000
5346000
359.4238
360.0719
360.7809
361.6071
362.6798
364.2453
366.5967
370.0116
374.2007
381.1259
5346000
5346000
5346000
5346000
5346000
358.9671
359.5454
360.1526
360.7978
361.522
362.4002
363.5451
364.9863
366.5737
367.3458
370.5374
5346000
5346000
5346000
5346000
5346000
358.5335
359.0437
359.5701
360.1077
360.6598
361.2437
361.8768
362.5632
363.1726
363.333
363.8035
368.226
5346000
5346000
5346000
5346000
5346000
358.1218
358.5635
359.0196
359.4831
359.9503
360.4181
360.8839
361.3266
361.6859
361.7548
361.9039
363.0047
365.9809
5346000
5346000
5346000
5346000
5346000
357.7311
358.1058
358.4976
358.9035
359.3213
359.7494
360.1835
360.6151
361.0071
361.2345
361.2484
361.7364
362.4097
364.0783
5346000
5346000
5346000
5346000
5346000
5346000
5346000
5346000
5346000
5346000
5346000
5346000
5346000
5346000
5346000
361.1541
361.3475
361.5924
361.9197
362.7024
5346000
5346000
5346000
5346000
5346000
5346000
5346000
5346000
5346000
5346000
5346000
5346000
5346000
5346000
5346000
360.5657
360.8039
361.0125
361.2014
361.3877
361.9643
5346000
5346000
5346000
5346000
5346000
5346000
5346000
5346000
5346000
5346000
5346000
5346000
5346000
5346000
5346000
359.9952
360.2467
360.4692
360.6436
360.7786
361.0428
361.6635
5346000
5346000
5346000
5346000
5346000
5346000
5346000
5346000
5346000
5346000
5346000
5346000
5346000
5346000
5346000
359.4754
359.7299
359.9572
360.1464
360.2836
360.5215
360.9499
361.4767
5346000
5346000
5346000
5346000
5346000
5346000
5346000
5346000
5346000
5346000
5346000
5346000
5346000
5346000
5346000
359.0054
359.2555
359.4858
359.6822
359.8406
360.0739
360.4748
360.8885
361.3716
5346000
5346000
5346000
5346000
5346000
5346000
5346000
5346000
5346000
5346000
5346000
5346000
5346000
5346000
5346000
5346000
5346000
5346000
5346000
5346000
5346000
5346000
5346000
5346000
5346000
5346000
5346000
5346000
5346000
5346000
5346000
5346000
5346000
5346000
5346000
5346000
5346000
5346000
5346000
5346000
5346000
5346000
5346000
5346000
5346000
361.445
362.1761
363.1183
364.5535
367.0562
375.1204
5346000
5346000
5346000
5346000
5346000
360.911
361.6888
362.7403
364.3988
367.433
373.2325
389.0855
5346000
5346000
5346000
5346000
5346000
360.3907
361.1411
362.0869
363.4818
365.8238
370.0841
377.6671
395.5423
5346000
5346000
5346000
5346000
5346000
359.8951
360.5956
361.4143
362.4817
364.096
366.7438
371.1847
378.1029
392.6071
5346000
5346000
5346000
5346000
5346000
359.4238
360.0719
360.7809
361.6071
362.6798
364.2453
366.5967
370.0116
374.2007
381.1259
5346000
5346000
5346000
5346000
5346000
358.9759
359.5694
360.1935
360.8587
361.6126
362.542
363.7753
365.3488
367.0807
367.8578
371.0478
5346000
5346000
5346000
5346000
5346000
358.5493
359.0862
359.6388
360.2011
360.7789
361.3961
362.0803
362.8422
363.5309
363.682
364.1717
369.0948
5346000
5346000
5346000
5346000
5346000
358.1431
358.62
359.1082
359.5972
360.0814
360.5572
361.024
361.4601
361.799
361.8013
361.9695
363.3434
367.0182
5346000
5346000
5346000
5346000
5346000
357.7564
358.171
358.5976
359.0286
359.4571
359.8768
360.2774
360.6398
360.9087
360.9567
361.0332
361.6625
362.6168
365.0367
5346000
5346000
5346000
5346000
5346000
357.389
357.7415
358.1096
358.4901
358.8807
359.2786
359.68
360.0744
360.4332
360.6432
360.656
361.0291
361.4545
362.0286
363.3859
5346000
5346000
5346000
5346000
5346000
5346000
5346000
5346000
5346000
5346000
5346000
5346000
5346000
5346000
5346000
360.5904
360.7795
360.9841
361.2124
361.5027
362.3835
5346000
5346000
5346000
5346000
5346000
5346000
5346000
5346000
5346000
5346000
5346000
5346000
5346000
5346000
5346000
360.044
360.2772
360.4897
360.6659
360.8211
361.1363
361.9276
5346000
5346000
5346000
5346000
5346000
5346000
5346000
5346000
5346000
5346000
5346000
5346000
5346000
5346000
5346000
359.5089
359.7573
359.9799
360.1673
360.3074
360.5558
361.011
361.6282
5346000
5346000
5346000
5346000
5346000
5346000
5346000
5346000
5346000
5346000
5346000
5346000
5346000
5346000
5346000
359.0221
359.2701
359.4987
359.694
359.8524
360.0876
360.4933
360.9188
361.4411
5346000
5346000
5346000
5346000
5346000
5346000
5346000
5346000
5346000
5346000
5346000
5346000
5346000
5346000
5346000
358.5805
358.8238
359.0514
359.2539
359.424
359.6677
360.0489
360.4473
360.8568
361.3375
5346000
5346000
5346000
5346000
5346000
5346000
5346000
5346000
5346000
5346000
5346000
5346000
5346000
5346000
5346000
5346000
5346000
5346000
5346000
5346000
5346000
5346000
5346000
5346000
5346000
5346000
5346000
5346000
5346000
5346000
5346000
5346000
5346000
5346000
5346000
5346000
5346000
5346000
5346000
5346000
5346000
5346000
5346000
5346000
5346000
5346000
5346000
5346000
5346000
5346000
360.8558
361.4919
362.246
363.2216
364.6764
367.0702
374.7765
5346000
5346000
5346000
5346000
5346000
360.3552
361.0241
361.8238
362.9081
364.5708
367.411
372.3994
386.4739
5346000
5346000
5346000
5346000
5346000
359.8739
360.5313
361.2847
362.2311
363.5954
365.7405
369.269
374.867
388.4627
5346000
5346000
5346000
5346000
5346000
359.4142
360.0444
360.7306
361.5218
362.5305
363.9729
366.1053
369.193
373.0607
380.1124
5346000
5346000
5346000
5346000
5346000
358.9759
359.5694
360.1935
360.8587
361.6126
362.542
363.7753
365.3488
367.0807
367.8578
371.0478
5346000
5346000
5346000
5346000
5346000
358.5575
359.108
359.6742
360.2498
360.842
361.4791
362.1945
363.0029
363.7412
363.888
364.3802
369.534
5346000
5346000
5346000
5346000
5346000
358.1578
358.6593
359.1703
359.6782
360.1759
360.6612
361.1362
361.5818
361.9275
361.8997
362.0698
363.6395
367.7449
5346000
5346000
5346000
5346000
5346000
357.7763
358.2236
358.6793
359.1319
359.5707
359.9866
360.3669
360.6911
360.9025
360.8795
360.9648
361.7048
362.8893
365.8725
5346000
5346000
5346000
5346000
5346000
357.4127
357.8024
358.2027
358.6056
359.0039
359.3891
359.7503
360.0665
360.2957
360.3363
360.4077
360.8528
361.4062
362.2136
364.1307
5346000
5346000
5346000
5346000
5346000
357.0667
357.3987
357.745
358.1025
358.4687
358.8408
359.2145
359.581
359.913
360.1151
360.1328
360.4632
360.7907
361.1539
361.6403
362.9891
5346000
5346000
5346000
5346000
5346000
5346000
5346000
5346000
5346000
5346000
5346000
5346000
5346000
5346000
5346000
360.0694
360.2543
360.4547
360.6473
360.8508
361.2575
362.3435
5346000
5346000
5346000
5346000
5346000
5346000
5346000
5346000
5346000
5346000
5346000
5346000
5346000
5346000
5346000
359.5557
359.7868
359.9982
360.1832
360.3316
360.6009
361.1046
361.8913
5346000
5346000
5346000
5346000
5346000
5346000
5346000
5346000
5346000
5346000
5346000
5346000
5346000
5346000
5346000
359.0542
359.2964
359.5202
359.7128
359.8717
360.1114
360.5277
360.9798
361.5922
5346000
5346000
5346000
5346000
5346000
5346000
5346000
5346000
5346000
5346000
5346000
5346000
5346000
5346000
5346000
358.5964
358.8378
359.0637
359.2649
359.4347
359.6792
360.0626
360.4658
360.887
361.4068
5346000
5346000
5346000
5346000
5346000
5346000
5346000
5346000
5346000
5346000
5346000
5346000
5346000
5346000
5346000
358.1812
358.4165
358.6406
358.8443
359.0248
359.2704
359.6454
360.0245
360.4193
360.8264
361.2994
5346000
5346000
5346000
5346000
5346000
5346000
5346000
5346000
5346000
5346000
5346000
5346000
5346000
5346000
5346000
5346000
5346000
5346000
5346000
5346000
5346000
5346000
5346000
5346000
5346000
5346000
5346000
5346000
5346000
5346000
5346000
5346000
5346000
5346000
5346000
5346000
5346000
5346000
5346000
5346000
5346000
5346000
5346000
5346000
5346000
5346000
5346000
5346000
5346000
5346000
5346000
5346000
5346000
5346000
5346000
360.3105
360.8848
361.5254
362.2847
363.2549
364.6411
366.7735
373.9239
5346000
5346000
5346000
5346000
5346000
359.8436
360.4408
361.1081
361.9026
362.961
364.4975
366.8948
370.6842
381.9519
5346000
5346000
5346000
5346000
5346000
359.3954
359.991
360.6344
361.3623
362.258
363.4851
365.2345
367.7325
370.9612
378.0295
5346000
5346000
5346000
5346000
5346000
358.9671
359.5454
360.1526
360.7978
361.522
362.4002
363.5451
364.9863
366.5737
367.3458
370.5374
5346000
5346000
5346000
5346000
5346000
358.5575
359.108
359.6742
360.2498
360.842
361.4791
362.1945
363.0029
363.7412
363.888
364.3802
369.534
5346000
5346000
5346000
5346000
5346000
358.1654
358.6793
359.2022
359.72
360.2254
360.717
361.1989
361.6539
362.0087
361.9681
362.1364
363.8082
368.1158
5346000
5346000
5346000
5346000
5346000
357.7902
358.2601
358.7366
359.2048
359.6518
360.0672
360.438
360.7451
360.9327
360.8753
360.957
361.7779
363.1264
366.4671
5346000
5346000
5346000
5346000
5346000
357.4313
357.8516
358.2788
358.7008
359.1064
359.4832
359.8168
360.0836
360.2442
360.2146
360.2926
360.7861
361.4371
362.4351
364.7867
5346000
5346000
5346000
5346000
5346000
357.089
357.4557
357.832
358.21
358.5824
358.9408
359.2735
359.5621
359.7684
359.815
359.8866
360.2606
360.6589
361.1347
361.8098
363.6351
5346000
5346000
5346000
5346000
5346000
356.763
357.0758
357.4019
357.7382
358.0823
358.4313
358.7812
359.1234
359.4346
359.6285
359.6586
359.9608
360.2558
360.5386
360.8525
361.407
362.9406
5346000
5346000
5346000
5346000
5346000
5346000
5346000
5346000
5346000
5346000
5346000
5346000
5346000
5346000
5346000
359.5823
359.7679
359.9644
360.1563
360.3317
360.6415
361.2263
362.304
5346000
5346000
5346000
5346000
5346000
5346000
5346000
5346000
5346000
5346000
5346000
5346000
5346000
5346000
5346000
359.0992
359.3253
359.5381
359.7263
359.8887
360.138
360.5729
361.0734
361.8542
5346000
5346000
5346000
5346000
5346000
5346000
5346000
5346000
5346000
5346000
5346000
5346000
5346000
5346000
5346000
358.6272
358.8632
359.0844
359.2827
359.4517
359.6984