/*--------------------------------*- C++ -*----------------------------------*\
| =========                 |                                                 |
| \\      /  F ield         | OpenFOAM: The Open Source CFD Toolbox           |
|  \\    /   O peration     | Version:  2306                                  |
|   \\  /    A nd           | Website:  www.openfoam.com                      |
|    \\/     M anipulation  |                                                 |
\*---------------------------------------------------------------------------*/
FoamFile
{
    version     2.0;
    format      ascii;
    arch        "LSB;label=32;scalar=64";
    class       volScalarField;
    location    "1.5";
    object      T;
}
// * * * * * * * * * * * * * * * * * * * * * * * * * * * * * * * * * * * * * //

dimensions      [0 0 0 1 0 0 0];

internalField   nonuniform List<scalar> 
52000
(
1115.009
1115.007
1116.575
1114.953
1115.003
1116.574
1114.951
1118.697
1116.556
1114.845
1114.998
1116.572
1114.946
1118.697
1116.555
1114.84
1120.936
1118.696
1116.52
1114.686
1114.992
1116.57
1114.939
1118.695
1116.553
1114.832
1120.935
1118.695
1116.518
1114.678
1123.119
1120.941
1118.694
1116.47
1114.487
1114.986
1116.567
1114.931
1118.693
1116.55
1114.821
1120.933
1118.693
1116.515
1114.664
1123.118
1120.94
1118.692
1116.467
1114.472
1125.186
1123.126
1120.952
1118.694
1116.413
1114.323
1114.98
1116.564
1114.922
1118.691
1116.546
1114.807
1120.931
1118.69
1116.51
1114.644
1123.117
1120.938
1118.689
1116.462
1114.445
1125.186
1123.125
1120.95
1118.692
1116.408
1114.299
1127.121
1125.194
1123.142
1120.972
1118.701
1116.371
1114.218
1114.974
1116.562
1114.913
1118.689
1116.542
1114.792
1120.929
1118.687
1116.505
1114.621
1123.115
1120.935
1118.685
1116.456
1114.408
1125.184
1123.123
1120.947
1118.687
1116.401
1114.251
1127.12
1125.193
1123.14
1120.97
1118.698
1116.364
1114.186
1128.924
1127.128
1125.211
1123.168
1121.004
1118.716
1116.347
1114.122
1114.97
1116.559
1114.905
1118.686
1116.539
1114.777
1120.927
1118.684
1116.499
1114.595
1123.113
1120.932
1118.68
1116.448
1114.368
1125.183
1123.121
1120.943
1118.681
1116.39
1114.179
1127.119
1125.192
1123.138
1120.965
1118.692
1116.352
1114.123
1128.924
1127.128
1125.209
1123.166
1121.001
1118.712
1116.338
1114.085
1130.605
1128.931
1127.144
1125.238
1123.208
1121.04
1118.73
1116.329
1114.042
1114.968
1116.558
1114.9
1118.684
1116.535
1114.763
1120.924
1118.68
1116.493
1114.566
1123.11
1120.929
1118.674
1116.438
1114.339
1125.181
1123.118
1120.938
1118.672
1116.379
1114.088
1127.118
1125.189
1123.134
1120.958
1118.682
1116.334
1114.025
1128.923
1127.126
1125.207
1123.162
1120.995
1118.705
1116.321
1114.007
1130.604
1128.931
1127.143
1125.236
1123.206
1121.037
1118.725
1116.319
1114
1132.172
1130.611
1128.946
1127.17
1125.278
1123.25
1121.068
1118.748
1116.32
1113.983
1114.968
1116.557
1114.897
1118.683
1116.533
1114.753
1120.922
1118.677
1116.487
1114.539
1123.108
1120.925
1118.669
1116.427
1114.276
1125.179
1123.115
1120.932
1118.661
1116.37
1101.614
1127.116
1125.186
1123.129
1120.949
1118.668
1116.315
1113.888
1128.922
1127.124
1125.203
1123.155
1120.985
1118.695
1116.296
1113.887
1130.603
1128.929
1127.141
1125.232
1123.2
1121.032
1118.717
1116.297
1113.912
1132.172
1130.611
1128.945
1127.168
1125.276
1123.248
1121.065
1118.743
1116.308
1113.937
1133.636
1132.178
1130.625
1128.97
1127.209
1125.32
1123.282
1121.099
1118.772
1116.322
1113.945
1114.97
1116.557
1114.897
1118.682
1116.531
1114.747
1120.921
1118.675
1116.483
1114.518
1123.106
1120.922
1118.664
1116.416
1114.214
1125.177
1123.112
1120.927
1118.651
1116.347
1090.383
1127.114
1125.183
1123.123
1120.938
1118.648
1114.701
1090.199
1128.92
1127.122
1125.198
1123.146
1120.97
1118.684
1116.264
1113.716
1130.602
1128.928
1127.137
1125.226
1123.191
1121.025
1118.705
1116.263
1113.776
1132.171
1130.609
1128.943
1127.165
1125.271
1123.244
1121.06
1118.733
1116.282
1113.843
1133.635
1132.177
1130.624
1128.969
1127.206
1125.318
1123.28
1121.097
1118.767
1116.309
1113.898
1135.005
1133.641
1132.19
1130.647
1129.005
1127.248
1125.351
1123.316
1121.135
1118.803
1116.336
1113.931
1114.974
1116.558
1114.9
1118.682
1116.531
1114.747
1120.92
1118.674
1116.48
1114.506
1123.105
1120.92
1118.66
1116.407
1114.168
1125.175
1123.109
1120.922
1118.641
1116.322
1084.297
1127.112
1125.181
1123.118
1120.927
1118.627
1111.601
1063.144
1128.918
1127.119
1125.193
1123.136
1120.945
1117.959
1111.558
1083.95
1130.601
1128.925
1127.133
1125.217
1123.176
1121.017
1118.689
1116.218
1113.582
1132.17
1130.608
1128.94
1127.159
1125.262
1123.238
1121.053
1118.718
1116.242
1113.697
1133.635
1132.176
1130.622
1128.965
1127.202
1125.315
1123.276
1121.091
1118.755
1116.281
1113.801
1135.005
1133.641
1132.189
1130.645
1129.004
1127.246
1125.35
1123.315
1121.132
1118.797
1116.323
1113.884
1136.288
1135.01
1133.652
1132.21
1130.679
1129.041
1127.277
1125.385
1123.354
1121.175
1118.84
1116.363
1113.94
1114.98
1116.559
1114.905
1118.683
1116.533
1114.753
1120.92
1118.674
1116.48
1114.506
1123.104
1120.919
1118.658
1116.402
1114.144
1125.174
1123.107
1120.918
1118.634
1116.301
1080.894
1127.111
1125.178
1123.113
1120.918
1118.608
1108.933
1046.555
1128.917
1127.116
1125.188
1123.126
1120.925
1116.562
1102.417
1046.295
1130.599
1128.923
1127.129
1125.208
1123.151
1120.629
1116.603
1108.836
1080.349
1132.168
1130.606
1128.936
1127.152
1125.248
1123.231
1121.044
1118.697
1116.186
1113.491
1133.634
1132.175
1130.619
1128.96
1127.194
1125.31
1123.271
1121.083
1118.738
1116.237
1113.652
1135.004
1133.64
1132.187
1130.642
1128.999
1127.243
1125.347
1123.311
1121.127
1118.785
1116.294
1113.787
1136.287
1135.009
1133.651
1132.209
1130.677
1129.04
1127.276
1125.384
1123.353
1121.172
1118.834
1116.35
1113.893
1137.49
1136.292
1135.02
1133.671
1132.239
1130.712
1129.068
1127.308
1125.421
1123.395
1121.219
1118.883
1116.402
1113.971
1114.986
1116.562
1114.913
1118.684
1116.535
1114.763
1120.921
1118.675
1116.483
1114.518
1123.104
1120.919
1118.658
1116.402
1114.144
1125.173
1123.106
1120.916
1118.63
1116.289
1079.324
1127.109
1125.176
1123.11
1120.912
1118.593
1106.977
1036.727
1128.915
1127.114
1125.184
1123.117
1120.908
1115.31
1094.438
1021.439
1130.598
1128.921
1127.124
1125.198
1123.131
1119.914
1112.488
1094.309
1036.03
1132.167
1130.603
1128.932
1127.143
1125.225
1122.995
1119.991
1115.375
1106.795
1078.516
1133.632
1132.173
1130.616
1128.953
1127.181
1125.304
1123.266
1121.073
1118.713
1116.175
1113.443
1135.003
1133.638
1132.185
1130.638
1128.992
1127.239
1125.343
1123.307
1121.118
1118.766
1116.25
1113.64
1136.287
1135.008
1133.65
1132.206
1130.673
1129.037
1127.273
1125.382
1123.35
1121.167
1118.823
1116.323
1113.8
1137.49
1136.292
1135.019
1133.669
1132.238
1130.71
1129.067
1127.307
1125.42
1123.394
1121.216
1118.879
1116.39
1113.925
1138.619
1137.495
1136.302
1135.037
1133.697
1132.269
1130.736
1129.097
1127.342
1125.46
1123.439
1121.266
1118.933
1116.452
1114.024
1114.992
1116.564
1114.922
1118.686
1116.539
1114.777
1120.922
1118.677
1116.487
1114.539
1123.105
1120.92
1118.66
1116.407
1114.168
1125.173
1123.106
1120.916
1118.63
1116.289
1079.324
1127.109
1125.176
1123.108
1120.909
1118.585
1105.945
1032.103
1128.914
1127.113
1125.181
1123.112
1120.897
1114.354
1088.539
1006.016
1130.596
1128.919
1127.121
1125.191
1123.117
1119.285
1108.734
1081.401
1005.417
1132.165
1130.601
1128.928
1127.135
1125.207
1122.585
1117.939
1108.741
1088.166
1030.704
1133.631
1132.171
1130.612
1128.945
1127.16
1125.143
1122.67
1119.42
1114.432
1105.646
1078.156
1135.002
1133.636
1132.182
1130.631
1128.981
1127.234
1125.339
1123.301
1121.106
1118.739
1116.187
1113.436
1136.286
1135.007
1133.648
1132.202
1130.667
1129.034
1127.27
1125.378
1123.345
1121.158
1118.804
1116.282
1113.658
1137.49
1136.291
1135.018
1133.667
1132.234
1130.708
1129.065
1127.306
1125.419
1123.391
1121.212
1118.869
1116.367
1113.834
1138.619
1137.494
1136.301
1135.036
1133.696
1132.268
1130.735
1129.096
1127.341
1125.459
1123.438
1121.265
1118.93
1116.442
1113.978
1139.68
1138.623
1137.503
1136.317
1135.061
1133.725
1132.291
1130.762
1129.128
1127.378
1125.501
1123.485
1121.317
1118.988
1116.512
1114.884
1114.998
1116.567
1114.931
1118.689
1116.542
1114.792
1120.924
1118.68
1116.493
1114.566
1123.106
1120.922
1118.664
1116.416
1114.214
1125.174
1123.107
1120.918
1118.634
1116.301
1080.894
1127.109
1125.176
1123.108
1120.909
1118.585
1105.945
1032.103
1128.914
1127.112
1125.18
1123.109
1120.891
1113.834
1085.411
998.5722
1130.595
1128.917
1127.118
1125.186
1123.107
1118.807
1105.836
1071.748
985.8151
1132.164
1130.6
1128.925
1127.128
1125.194
1122.235
1116.084
1102.593
1071.4
996.8923
1133.63
1132.169
1130.608
1128.938
1127.144
1124.878
1121.532
1116.151
1105.812
1084.669
1029.694
1135.001
1133.635
1132.178
1130.624
1128.961
1127.11
1124.961
1122.39
1119
1113.922
1105.515
1079.249
1136.285
1135.006
1133.645
1132.196
1130.657
1129.029
1127.267
1125.374
1123.338
1121.145
1118.777
1116.224
1113.466
1137.489
1136.29
1135.016
1133.663
1132.229
1130.705
1129.062
1127.303
1125.416
1123.387
1121.204
1118.853
1116.332
1113.699
1138.619
1137.493
1136.3
1135.033
1133.693
1132.266
1130.733
1129.095
1127.34
1125.458
1123.436
1121.262
1118.923
1116.422
1113.886
1139.679
1138.623
1137.503
1136.316
1135.06
1133.724
1132.291
1130.761
1129.127
1127.377
1125.501
1123.485
1121.317
1118.986
1116.503
1114.821
1140.676
1139.683
1138.631
1137.518
1136.34
1135.087
1133.745
1132.315
1130.79
1129.16
1127.415
1125.544
1123.533
1121.37
1119.046
1117.309
1116.536
1115.003
1116.57
1114.939
1118.691
1116.546
1114.807
1120.927
1118.684
1116.499
1114.595
1123.108
1120.925
1118.669
1116.427
1114.276
1125.175
1123.109
1120.922
1118.641
1116.322
1084.297
1127.109
1125.176
1123.11
1120.912
1118.593
1106.977
1036.727
1128.914
1127.112
1125.18
1123.109
1120.891
1113.834
1085.411
998.5722
1130.595
1128.916
1127.117
1125.183
1123.102
1118.548
1104.254
1066.59
976.1826
1132.163
1130.598
1128.922
1127.123
1125.186
1121.976
1114.655
1097.79
1058.731
974.8651
1133.629
1132.167
1130.605
1128.932
1127.133
1124.661
1120.529
1113.14
1097.726
1065.645
995.2531
1135
1133.633
1132.175
1130.617
1128.947
1126.916
1124.256
1120.616
1114.792
1104.178
1084.222
1032.968
1136.284
1135.004
1133.642
1132.19
1130.639
1128.927
1126.995
1124.814
1122.202
1118.807
1113.951
1106.443
1082.028
1137.488
1136.288
1135.013
1133.658
1132.219
1130.701
1129.06
1127.3
1125.412
1123.38
1121.191
1118.83
1116.284
1113.525
1138.618
1137.492
1136.298
1135.03
1133.687
1132.263
1130.731
1129.093
1127.338
1125.456
1123.433
1121.256
1118.912
1116.395
1113.753
1139.679
1138.622
1137.501
1136.314
1135.057
1133.722
1132.289
1130.76
1129.126
1127.377
1125.5
1123.484
1121.316
1118.982
1116.486
1114.683
1140.675
1139.683
1138.631
1137.517
1136.338
1135.086
1133.744
1132.315
1130.79
1129.16
1127.415
1125.544
1123.533
1121.371
1119.046
1117.3
1116.444
1141.611
1140.679
1139.691
1138.645
1137.539
1136.363
1135.105
1133.767
1132.341
1130.819
1129.194
1127.454
1125.587
1123.581
1121.424
1119.755
1118.836
1118.198
1115.007
1116.572
1114.946
1118.693
1116.55
1114.821
1120.929
1118.687
1116.505
1114.621
1123.11
1120.929
1118.674
1116.438
1114.339
1125.177
1123.112
1120.927
1118.651
1116.347
1090.383
1127.111
1125.178
1123.113
1120.918
1118.608
1108.933
1046.555
1128.914
1127.113
1125.181
1123.112
1120.897
1114.354
1088.539
1006.016
1130.595
1128.916
1127.117
1125.183
1123.102
1118.548
1104.254
1066.59
976.1826
1132.163
1130.598
1128.921
1127.121
1125.182
1121.837
1113.872
1095.15
1051.92
963.9288
1133.628
1132.166
1130.603
1128.928
1127.125
1124.505
1119.77
1110.785
1091.35
1051.18
972.7263
1134.999
1133.631
1132.172
1130.612
1128.937
1126.764
1123.652
1119.019
1110.86
1094.965
1064.869
1000.497
1136.283
1135.002
1133.639
1132.184
1130.626
1128.77
1126.496
1123.742
1119.965
1114.106
1104.16
1086.947
1041.047
1137.487
1136.287
1135.01
1133.652
1132.203
1130.611
1128.842
1126.906
1124.73
1122.148
1118.9
1114.551
1108.4
1087.215
1138.617
1137.491
1136.295
1135.025
1133.679
1132.26
1130.729
1129.09
1127.335
1125.452
1123.427
1121.246
1118.895
1116.361
1113.59
1139.678
1138.621
1137.5
1136.311
1135.052
1133.719
1132.287
1130.758
1129.125
1127.375
1125.499
1123.482
1121.313
1118.977
1116.465
1114.414
1140.675
1139.682
1138.63
1137.515
1136.336
1135.084
1133.743
1132.314
1130.789
1129.159
1127.415
1125.544
1123.535
1121.373
1119.045
1117.286
1116.224
1141.611
1140.679
1139.69
1138.644
1137.538
1136.362
1135.104
1133.766
1132.34
1130.819
1129.194
1127.454
1125.588
1123.583
1121.426
1119.759
1118.828
1118.081
1142.49
1141.615
1140.686
1139.703
1138.664
1137.56
1136.38
1135.125
1133.79
1132.367
1130.85
1129.229
1127.493
1125.631
1123.629
1122.047
1121.11
1120.363
1119.874
1115.009
1116.574
1114.951
1118.695
1116.553
1114.832
1120.931
1118.69
1116.51
1114.644
1123.113
1120.932
1118.68
1116.448
1114.368
1125.179
1123.115
1120.932
1118.661
1116.37
1101.614
1127.112
1125.181
1123.118
1120.927
1118.627
1111.601
1063.144
1128.915
1127.114
1125.184
1123.117
1120.908
1115.31
1094.438
1021.439
1130.595
1128.917
1127.118
1125.186
1123.107
1118.807
1105.836
1071.748
985.8151
1132.163
1130.598
1128.921
1127.121
1125.182
1121.837
1113.872
1095.15
1051.92
963.9288
1133.628
1132.165
1130.602
1128.926
1127.122
1124.422
1119.359
1109.486
1087.824
1043.373
961.5137
1134.998
1133.63
1132.17
1130.608
1128.93
1126.656
1123.207
1117.792
1107.751
1087.656
1050.126
979.4457
1136.282
1135.001
1133.636
1132.179
1130.617
1128.65
1126.082
1122.804
1117.919
1109.67
1094.868
1069.266
1013.187
1137.486
1136.285
1135.008
1133.646
1132.191
1130.476
1128.449
1126.167
1123.412
1119.705
1114.27
1105.85
1092.681
1055.344
1138.616
1137.489
1136.293
1135.02
1133.664
1132.179
1130.541
1128.781
1126.868
1124.735
1122.26
1119.302
1115.701
1111.318
1096.858
1139.677
1138.62
1137.497
1136.306
1135.044
1133.716
1132.285
1130.756
1129.122
1127.373
1125.496
1123.479
1121.308
1118.97
1116.446
1113.659
1140.674
1139.681
1138.628
1137.512
1136.331
1135.081
1133.741
1132.312
1130.787
1129.158
1127.414
1125.545
1123.536
1121.375
1119.047
1117.277
1115.75
1141.611
1140.678
1139.689
1138.642
1137.535
1136.36
1135.103
1133.765
1132.34
1130.819
1129.194
1127.455
1125.591
1123.587
1121.43
1119.772
1118.815
1117.8
1142.49
1141.614
1140.686
1139.703
1138.663
1137.559
1136.379
1135.125
1133.789
1132.367
1130.85
1129.23
1127.495
1125.633
1123.632
1122.055
1121.123
1120.355
1119.741
1143.314
1142.493
1141.621
1140.698
1139.722
1138.684
1137.576
1136.398
1135.146
1133.814
1132.395
1130.882
1129.265
1127.533
1125.674
1124.178
1123.239
1122.463
1121.892
1121.568
1116.575
1114.953
1118.697
1116.555
1114.84
1120.933
1118.693
1116.515
1114.664
1123.115
1120.935
1118.685
1116.456
1114.408
1125.181
1123.118
1120.938
1118.672
1116.379
1114.088
1127.114
1125.183
1123.123
1120.938
1118.648
1114.701
1090.199
1128.917
1127.116
1125.188
1123.126
1120.925
1116.562
1102.417
1046.295
1130.596
1128.919
1127.121
1125.191
1123.117
1119.285
1108.734
1081.401
1005.417
1132.163
1130.598
1128.922
1127.123
1125.186
1121.976
1114.655
1097.79
1058.731
974.8651
1133.628
1132.165
1130.602
1128.926
1127.122
1124.422
1119.359
1109.486
1087.824
1043.373
961.5137
1134.997
1133.63
1132.169
1130.606
1128.927
1126.6
1122.97
1117.122
1106.023
1083.599
1042.159
969.0187
1136.281
1135
1133.634
1132.175
1130.611
1128.567
1125.784
1122.101
1116.328
1106.134
1087.474
1055.824
995.4938
1137.485
1136.284
1135.005
1133.642
1132.183
1130.374
1128.13
1125.54
1122.241
1117.444
1109.87
1097.572
1078.473
1034.709
1138.615
1137.488
1136.29
1135.015
1133.653
1132.058
1130.207
1128.209
1125.982
1123.338
1119.929
1115.344
1109.118
1101.004
1079.118
1139.676
1138.619
1137.495
1136.301
1135.031
1133.642
1132.117
1130.494
1128.762
1126.896
1124.847
1122.556
1120.018
1117.387
1115.298
1108.308
1140.674
1139.68
1138.626
1137.508
1136.324
1135.078
1133.739
1132.31
1130.786
1129.157
1127.413
1125.543
1123.536
1121.378
1119.054
1117.363
1114.518
1141.61
1140.677
1139.688
1138.639
1137.531
1136.358
1135.101
1133.764
1132.338
1130.818
1129.194
1127.456
1125.593
1123.593
1121.439
1119.819
1118.817
1117.201
1142.489
1141.614
1140.685
1139.701
1138.661
1137.558
1136.378
1135.124
1133.789
1132.367
1130.851
1129.231
1127.497
1125.638
1123.639
1122.077
1121.159
1120.341
1119.421
1143.314
1142.493
1141.621
1140.697
1139.721
1138.684
1137.575
1136.398
1135.146
1133.814
1132.396
1130.883
1129.266
1127.535
1125.678
1124.187
1123.258
1122.482
1121.882
1121.426
1144.087
1143.317
1142.499
1141.632
1140.715
1139.74
1138.699
1137.593
1136.418
1135.169
1133.84
1132.424
1130.914
1129.3
1127.571
1126.159
1125.226
1124.427
1123.812
1123.421
1122.472
1118.697
1116.556
1114.845
1120.935
1118.695
1116.518
1114.678
1123.117
1120.938
1118.689
1116.462
1114.445
1125.183
1123.121
1120.943
1118.681
1116.39
1114.179
1127.116
1125.186
1123.129
1120.949
1118.668
1116.315
1113.888
1128.918
1127.119
1125.193
1123.136
1120.945
1117.959
1111.558
1083.95
1130.598
1128.921
1127.124
1125.198
1123.131
1119.914
1112.488
1094.309
1036.03
1132.164
1130.6
1128.925
1127.128
1125.194
1122.235
1116.084
1102.593
1071.4
996.8923
1133.628
1132.166
1130.603
1128.928
1127.125
1124.505
1119.77
1110.785
1091.35
1051.18
972.7263
1134.997
1133.63
1132.169
1130.606
1128.927
1126.6
1122.97
1117.122
1106.023
1083.599
1042.159
969.0187
1136.281
1134.999
1133.633
1132.174
1130.608
1128.525
1125.628
1121.722
1115.452
1104.159
1083.364
1048.572
986.8297
1137.484
1136.283
1135.004
1133.639
1132.178
1130.305
1127.906
1125.081
1121.35
1115.667
1106.343
1090.977
1067.716
1021.964
1138.614
1137.487
1136.288
1135.01
1133.646
1131.967
1129.94
1127.735
1125.218
1122.079
1117.747
1111.544
1102.786
1091.592
1068.034
1139.676
1138.617
1137.493
1136.296
1135.021
1133.531
1131.82
1130.012
1128.089
1125.984
1123.572
1120.68
1117.283
1113.681
1111.346
1101.79
1140.673
1139.679
1138.624
1137.503
1136.311
1135.01
1133.586
1132.076
1130.483
1128.797
1127.002
1125.083
1123.054
1121.092
1119.845
1118.639
1110.365
1141.609
1140.676
1139.686
1138.636
1137.524
1136.355
1135.099
1133.762
1132.337
1130.817
1129.193
1127.456
1125.595
1123.599
1121.454
1120.058
1118.927
1115.831
1142.489
1141.613
1140.683
1139.698
1138.657
1137.555
1136.376
1135.122
1133.788
1132.366
1130.85
1129.232
1127.5
1125.644
1123.65
1122.139
1121.266
1120.338
1118.769
1143.314
1142.492
1141.62
1140.696
1139.719
1138.682
1137.574
1136.397
1135.145
1133.814
1132.396
1130.884
1129.268
1127.539
1125.684
1124.212
1123.309
1122.535
1121.865
1121.091
1144.087
1143.317
1142.499
1141.632
1140.714
1139.74
1138.698
1137.593
1136.418
1135.169
1133.84
1132.425
1130.915
1129.302
1127.575
1126.168
1125.247
1124.455
1123.836
1123.411
1122.33
1144.811
1144.09
1143.323
1142.51
1141.649
1140.733
1139.754
1138.715
1137.611
1136.439
1135.192
1133.866
1132.453
1130.946
1129.335
1128.001
1127.085
1126.271
1125.611
1125.158
1124.229
1122.569
1120.936
1118.696
1116.52
1114.686
1123.118
1120.94
1118.692
1116.467
1114.472
1125.184
1123.123
1120.947
1118.687
1116.401
1114.251
1127.118
1125.189
1123.134
1120.958
1118.682
1116.334
1114.025
1128.92
1127.122
1125.198
1123.146
1120.97
1118.684
1116.264
1113.716
1130.599
1128.923
1127.129
1125.208
1123.151
1120.629
1116.603
1108.836
1080.349
1132.165
1130.601
1128.928
1127.135
1125.207
1122.585
1117.939
1108.741
1088.166
1030.704
1133.629
1132.167
1130.605
1128.932
1127.133
1124.661
1120.529
1113.14
1097.726
1065.645
995.2531
1134.998
1133.63
1132.17
1130.608
1128.93
1126.656
1123.207
1117.792
1107.751
1087.656
1050.126
979.4457
1136.281
1134.999
1133.633
1132.174
1130.608
1128.525
1125.628
1121.722
1115.452
1104.159
1083.364
1048.572
986.8297
1137.484
1136.282
1135.003
1133.637
1132.175
1130.27
1127.79
1124.839
1120.867
1114.684
1104.368
1087.311
1061.928
1015.811
1138.614
1137.486
1136.286
1135.008
1133.641
1131.906
1129.754
1127.396
1124.653
1121.111
1116.017
1108.479
1097.717
1084.452
1061.235
1139.675
1138.616
1137.491
1136.293
1135.014
1133.449
1131.583
1129.618
1127.524
1125.188
1122.405
1118.884
1114.555
1109.865
1107.261
1096.635
1140.672
1139.678
1138.621
1137.499
1136.302
1134.908
1133.314
1131.649
1129.922
1128.121
1126.209
1124.149
1121.963
1119.999
1119.296
1117.763
1105.246
1141.608
1140.675
1139.684
1138.631
1137.512
1136.291
1134.958
1133.548
1132.068
1130.518
1128.895
1127.2
1125.464
1123.822
1122.829
1122.407
1119.548
1112.56
1142.488
1141.612
1140.681
1139.695
1138.651
1137.553
1136.375
1135.121
1133.786
1132.365
1130.85
1129.232
1127.503
1125.651
1123.667
1122.413
1121.64
1120.406
1117.439
1143.313
1142.491
1141.618
1140.693
1139.715
1138.68
1137.573
1136.396
1135.144
1133.813
1132.396
1130.885
1129.271
1127.546
1125.696
1124.276
1123.444
1122.669
1121.847
1120.438
1144.087
1143.316
1142.498
1141.63
1140.712
1139.738
1138.697
1137.592
1136.417
1135.168
1133.84
1132.426
1130.918
1129.306
1127.581
1126.192
1125.301
1124.527
1123.896
1123.388
1121.997
1144.811
1144.09
1143.323
1142.509
1141.648
1140.732
1139.754
1138.715
1137.611
1136.439
1135.192
1133.867
1132.455
1130.948
1129.338
1128.01
1127.105
1126.301
1125.644
1125.183
1124.219
1122.427
1145.487
1144.814
1144.096
1143.333
1142.525
1141.665
1140.746
1139.769
1138.732
1137.63
1136.46
1135.216
1133.893
1132.483
1130.977
1129.719
1128.823
1128.007
1127.311
1126.789
1125.866
1124.316
1122.666
1123.119
1120.941
1118.694
1116.47
1114.487
1125.186
1123.125
1120.95
1118.692
1116.408
1114.299
1127.119
1125.192
1123.138
1120.965
1118.692
1116.352
1114.123
1128.922
1127.124
1125.203
1123.155
1120.985
1118.695
1116.296
1113.887
1130.601
1128.925
1127.133
1125.217
1123.176
1121.017
1118.689
1116.218
1113.582
1132.167
1130.603
1128.932
1127.143
1125.225
1122.995
1119.991
1115.375
1106.795
1078.516
1133.63
1132.169
1130.608
1128.938
1127.144
1124.878
1121.532
1116.151
1105.812
1084.669
1029.694
1134.999
1133.631
1132.172
1130.612
1128.937
1126.764
1123.652
1119.019
1110.86
1094.965
1064.869
1000.497
1136.281
1135
1133.634
1132.175
1130.611
1128.567
1125.784
1122.101
1116.328
1106.134
1087.474
1055.824
995.4938
1137.484
1136.282
1135.003
1133.637
1132.175
1130.27
1127.79
1124.839
1120.867
1114.684
1104.368
1087.311
1061.928
1015.811
1138.613
1137.486
1136.286
1135.006
1133.638
1131.875
1129.658
1127.219
1124.352
1120.582
1115.054
1106.756
1094.895
1080.611
1057.956
1139.674
1138.615
1137.489
1136.29
1135.01
1133.393
1131.42
1129.341
1127.116
1124.593
1121.495
1117.436
1112.308
1106.727
1104.027
1093.177
1140.671
1139.677
1138.62
1137.495
1136.296
1134.831
1133.098
1131.303
1129.459
1127.547
1125.504
1123.258
1120.81
1118.609
1118.051
1116.357
1100.966
1141.608
1140.674
1139.682
1138.627
1137.504
1136.196
1134.706
1133.158
1131.574
1129.962
1128.33
1126.685
1125.094
1123.788
1123.492
1122.925
1118.932
1108.545
1142.487
1141.611
1140.679
1139.691
1138.64
1137.494
1136.242
1134.923
1133.541
1132.101
1130.607
1129.068
1127.514
1126.065
1125.175
1124.95
1123.128
1120.663
1114.859
1143.313
1142.49
1141.617
1140.69
1139.709
1138.678
1137.571
1136.394
1135.143
1133.812
1132.395
1130.885
1129.274
1127.553
1125.713
1124.546
1123.882
1123.042
1121.856
1119.236
1144.086
1143.316
1142.497
1141.628
1140.709
1139.736
1138.696
1137.591
1136.416
1135.168
1133.84
1132.427
1130.921
1129.313
1127.592
1126.254
1125.44
1124.699
1124.032
1123.352
1121.364
1144.81
1144.089
1143.322
1142.508
1141.646
1140.731
1139.753
1138.714
1137.61
1136.438
1135.193
1133.868
1132.457
1130.952
1129.344
1128.033
1127.158
1126.377
1125.728
1125.244
1124.194
1122.094
1145.487
1144.813
1144.096
1143.333
1142.524
1141.665
1140.745
1139.769
1138.732
1137.63
1136.46
1135.217
1133.894
1132.484
1130.98
1129.727
1128.843
1128.036
1127.347
1126.825
1125.892
1124.305
1122.524
1146.119
1145.49
1144.819
1144.105
1143.348
1142.541
1141.677
1140.76
1139.785
1138.75
1137.65
1136.482
1135.241
1133.919
1132.511
1131.322
1130.453
1129.642
1128.924
1128.345
1127.408
1125.941
1124.402
1122.764
1125.186
1123.126
1120.952
1118.694
1116.413
1114.323
1127.12
1125.193
1123.14
1120.97
1118.698
1116.364
1114.186
1128.923
1127.126
1125.207
1123.162
1120.995
1118.705
1116.321
1114.007
1130.602
1128.928
1127.137
1125.226
1123.191
1121.025
1118.705
1116.263
1113.776
1132.168
1130.606
1128.936
1127.152
1125.248
1123.231
1121.044
1118.697
1116.186
1113.491
1133.631
1132.171
1130.612
1128.945
1127.16
1125.143
1122.67
1119.42
1114.432
1105.646
1078.156
1135
1133.633
1132.175
1130.617
1128.947
1126.916
1124.256
1120.616
1114.792
1104.178
1084.222
1032.968
1136.282
1135.001
1133.636
1132.179
1130.617
1128.65
1126.082
1122.804
1117.919
1109.67
1094.868
1069.266
1013.187
1137.484
1136.283
1135.004
1133.639
1132.178
1130.305
1127.906
1125.081
1121.35
1115.667
1106.343
1090.977
1067.716
1021.964
1138.613
1137.486
1136.286
1135.006
1133.638
1131.875
1129.658
1127.219
1124.352
1120.582
1115.054
1106.756
1094.895
1080.611
1057.956
1139.674
1138.615
1137.489
1136.289
1135.007
1133.365
1131.337
1129.198
1126.901
1124.274
1120.993
1116.623
1111.034
1104.961
1102.259
1091.45
1140.671
1139.676
1138.618
1137.493
1136.292
1134.78
1132.95
1131.062
1129.13
1127.128
1124.968
1122.542
1119.829
1117.356
1116.848
1115.111
1098.019
1141.607
1140.673
1139.68
1138.624
1137.498
1136.125
1134.507
1132.844
1131.169
1129.5
1127.841
1126.197
1124.638
1123.42
1123.391
1122.799
1117.863
1105.055
1142.486
1141.61
1140.678
1139.687
1138.632
1137.405
1136.008
1134.562
1133.091
1131.615
1130.154
1128.741
1127.445
1126.457
1126.256
1125.918
1123.638
1120.188
1111.738
1143.312
1142.489
1141.615
1140.686
1139.699
1138.622
1137.447
1136.209
1134.916
1133.572
1132.183
1130.762
1129.339
1128.017
1127.186
1126.993
1125.555
1124.006
1121.9
1117.232
1144.086
1143.315
1142.495
1141.625
1140.703
1139.734
1138.695
1137.589
1136.415
1135.167
1133.84
1132.427
1130.923
1129.319
1127.608
1126.507
1125.876
1125.151
1124.347
1123.302
1120.25
1144.81
1144.089
1143.321
1142.506
1141.643
1140.729
1139.751
1138.713
1137.61
1136.438
1135.192
1133.868
1132.459
1130.958
1129.354
1128.091
1127.291
1126.556
1125.909
1125.367
1124.148
1121.463
1145.487
1144.813
1144.095
1143.331
1142.523
1141.663
1140.744
1139.768
1138.731
1137.63
1136.461
1135.218
1133.896
1132.488
1130.986
1129.749
1128.893
1128.111
1127.436
1126.912
1125.951
1124.28
1122.192
1146.118
1145.49
1144.819
1144.105
1143.347
1142.54
1141.677
1140.759
1139.785
1138.75
1137.651
1136.483
1135.242
1133.921
1132.513
1131.33
1130.471
1129.67
1128.96
1128.384
1127.445
1125.967
1124.392
1122.622
1146.706
1146.121
1145.495
1144.828
1144.119
1143.363
1142.553
1141.691
1140.775
1139.802
1138.768
1137.671
1136.505
1135.265
1133.945
1132.823
1131.982
1131.183
1130.455
1129.835
1128.887
1127.474
1126.017
1124.489
1122.861
1127.121
1125.194
1123.142
1120.972
1118.701
1116.371
1114.218
1128.924
1127.128
1125.209
1123.166
1121.001
1118.712
1116.338
1114.085
1130.603
1128.929
1127.141
1125.232
1123.2
1121.032
1118.717
1116.297
1113.912
1132.17
1130.608
1128.94
1127.159
1125.262
1123.238
1121.053
1118.718
1116.242
1113.697
1133.632
1132.173
1130.616
1128.953
1127.181
1125.304
1123.266
1121.073
1118.713
1116.175
1113.443
1135.001
1133.635
1132.178
1130.624
1128.961
1127.11
1124.961
1122.39
1119
1113.922
1105.515
1079.249
1136.283
1135.002
1133.639
1132.184
1130.626
1128.77
1126.496
1123.742
1119.965
1114.106
1104.16
1086.947
1041.047
1137.485
1136.284
1135.005
1133.642
1132.183
1130.374
1128.13
1125.54
1122.241
1117.444
1109.87
1097.572
1078.473
1034.709
1138.614
1137.486
1136.286
1135.008
1133.641
1131.906
1129.754
1127.396
1124.653
1121.111
1116.017
1108.479
1097.717
1084.452
1061.235
1139.674
1138.615
1137.489
1136.289
1135.007
1133.365
1131.337
1129.198
1126.901
1124.274
1120.993
1116.623
1111.034
1104.961
1102.259
1091.45
1140.67
1139.676
1138.618
1137.491
1136.29
1134.754
1132.875
1130.938
1128.96
1126.907
1124.677
1122.141
1119.265
1116.62
1116.136
1114.4
1096.531
1141.607
1140.672
1139.679
1138.621
1137.494
1136.077
1134.37
1132.626
1130.885
1129.169
1127.479
1125.809
1124.22
1122.987
1123.082
1122.503
1116.885
1102.597
1142.486
1141.609
1140.676
1139.684
1138.626
1137.338
1135.823
1134.272
1132.725
1131.214
1129.771
1128.435
1127.285
1126.519
1126.601
1126.271
1123.624
1119.371
1108.955
1143.311
1142.488
1141.613
1140.682
1139.692
1138.539
1137.228
1135.873
1134.5
1133.13
1131.791
1130.52
1129.388
1128.552
1128.373
1128.074
1126.423
1124.436
1121.508
1114.861
1144.085
1143.314
1142.493
1141.621
1140.694
1139.682
1138.579
1137.416
1136.203
1134.944
1133.647
1132.324
1131.003
1129.777
1128.984
1128.777
1127.515
1126.288
1124.969
1123.212
1118.51
1144.809
1144.088
1143.319
1142.503
1141.637
1140.727
1139.75
1138.712
1137.608
1136.437
1135.192
1133.869
1132.462
1130.964
1129.369
1128.324
1127.703
1127.011
1126.309
1125.602
1124.07
1120.359
1145.486
1144.812
1144.093
1143.329
1142.52
1141.662
1140.743
1139.767
1138.73
1137.63
1136.461
1135.219
1133.898
1132.493
1130.995
1129.802
1129.018
1128.283
1127.626
1127.084
1126.062
1124.233
1121.563
1146.118
1145.489
1144.818
1144.104
1143.346
1142.539
1141.676
1140.759
1139.784
1138.749
1137.651
1136.484
1135.244
1133.924
1132.519
1131.35
1130.518
1129.74
1129.047
1128.478
1127.531
1126.027
1124.366
1122.29
1146.706
1146.121
1145.495
1144.828
1144.119
1143.362
1142.552
1141.69
1140.774
1139.802
1138.769
1137.671
1136.506
1135.267
1133.947
1132.83
1131.999
1131.21
1130.49
1129.875
1128.928
1127.511
1126.043
1124.478
1122.719
1147.25
1146.708
1146.126
1145.504
1144.842
1144.134
1143.374
1142.565
1141.705
1140.79
1139.819
1138.788
1137.692
1136.527
1135.289
1134.229
1133.419
1132.638
1131.909
1131.263
1130.313
1128.945
1127.54
1126.093
1124.575
1122.953
1128.924
1127.128
1125.211
1123.168
1121.004
1118.716
1116.347
1114.122
1130.604
1128.931
1127.143
1125.236
1123.206
1121.037
1118.725
1116.319
1114
1132.171
1130.609
1128.943
1127.165
1125.271
1123.244
1121.06
1118.733
1116.282
1113.843
1133.634
1132.175
1130.619
1128.96
1127.194
1125.31
1123.271
1121.083
1118.738
1116.237
1113.652
1135.002
1133.636
1132.182
1130.631
1128.981
1127.234
1125.339
1123.301
1121.106
1118.739
1116.187
1113.436
1136.284
1135.004
1133.642
1132.19
1130.639
1128.927