/*--------------------------------*- C++ -*----------------------------------*\
| =========                 |                                                 |
| \\      /  F ield         | OpenFOAM: The Open Source CFD Toolbox           |
|  \\    /   O peration     | Version:  2306                                  |
|   \\  /    A nd           | Website:  www.openfoam.com                      |
|    \\/     M anipulation  |                                                 |
\*---------------------------------------------------------------------------*/
FoamFile
{
    version     2.0;
    format      ascii;
    arch        "LSB;label=32;scalar=64";
    class       volScalarField;
    location    "0.3/fuel";
    object      diffSp.H2;
}
// * * * * * * * * * * * * * * * * * * * * * * * * * * * * * * * * * * * * * //

dimensions      [0 2 -1 0 0 0 0];

internalField   nonuniform List<scalar> 
16000
(
9.400679e-05
9.399766e-05
9.422314e-05
9.401848e-05
9.39745e-05
9.422594e-05
9.400955e-05
9.441605e-05
9.42324e-05
9.404371e-05
9.393104e-05
9.423033e-05
9.398682e-05
9.442175e-05
9.423528e-05
9.403517e-05
9.458799e-05
9.442331e-05
9.425285e-05
9.407332e-05
9.384893e-05
9.423683e-05
9.394413e-05
9.4433e-05
9.423979e-05
9.401328e-05
9.459424e-05
9.442905e-05
9.425591e-05
9.406524e-05
9.474635e-05
9.459375e-05
9.443985e-05
9.427697e-05
9.413348e-05
9.373635e-05
9.423806e-05
9.386323e-05
9.445191e-05
9.424647e-05
9.397196e-05
9.460696e-05
9.444034e-05
9.426079e-05
9.404431e-05
9.475248e-05
9.460002e-05
9.44457e-05
9.428025e-05
9.412631e-05
9.48955e-05
9.475097e-05
9.460739e-05
9.445948e-05
9.432626e-05
0.0001412213
9.358623e-05
9.424135e-05
9.375237e-05
9.447469e-05
9.424784e-05
9.389306e-05
9.462864e-05
9.445926e-05
9.426798e-05
9.400456e-05
9.476513e-05
9.461274e-05
9.445718e-05
9.428556e-05
9.410725e-05
9.490134e-05
9.47571e-05
9.461371e-05
9.446545e-05
9.433001e-05
0.0001412109
9.503743e-05
9.489922e-05
9.476239e-05
9.462368e-05
9.449989e-05
0.0001415066
0.0001412312
9.344909e-05
9.421952e-05
9.360411e-05
9.450773e-05
9.425118e-05
9.378474e-05
9.465713e-05
9.448194e-05
9.42699e-05
9.392788e-05
9.478679e-05
9.463438e-05
9.447633e-05
9.429336e-05
9.407045e-05
9.491345e-05
9.476974e-05
9.462655e-05
9.447717e-05
9.433626e-05
0.0001411831
9.504293e-05
9.490505e-05
9.476857e-05
9.463008e-05
9.450616e-05
0.0001415124
0.000141221
9.517322e-05
9.504043e-05
9.490892e-05
9.477614e-05
9.465753e-05
0.0001417639
0.0001415146
0.0001412448
9.334515e-05
9.419369e-05
9.346861e-05
9.452305e-05
9.422954e-05
9.36389e-05
9.469784e-05
9.451468e-05
9.427376e-05
9.382232e-05
9.481615e-05
9.466268e-05
9.449917e-05
9.429598e-05
9.399779e-05
9.493426e-05
9.479133e-05
9.46483e-05
9.449662e-05
9.434545e-05
0.0001411292
9.505441e-05
9.491715e-05
9.478127e-05
9.464306e-05
9.451845e-05
0.000141522
0.0001411936
9.517841e-05
9.504593e-05
9.491478e-05
9.478237e-05
9.466414e-05
0.0001417733
0.0001415204
0.0001412349
9.530343e-05
9.517565e-05
9.504875e-05
9.492069e-05
9.480503e-05
0.0001419979
0.0001417703
0.0001415256
0.000141257
9.32903e-05
9.416961e-05
9.336583e-05
9.453178e-05
9.420402e-05
9.350537e-05
9.47249e-05
9.452978e-05
9.42526e-05
9.367903e-05
9.48578e-05
9.4703e-05
9.453192e-05
9.430049e-05
9.389698e-05
9.49629e-05
9.482048e-05
9.467661e-05
9.45197e-05
9.434973e-05
0.0001410221
9.507416e-05
9.493788e-05
9.480292e-05
9.466497e-05
9.453871e-05
0.000141536
0.0001411405
9.518929e-05
9.505739e-05
9.492691e-05
9.479516e-05
9.46775e-05
0.0001417918
0.0001415301
0.000141208
9.530835e-05
9.518083e-05
9.505427e-05
9.492658e-05
9.481141e-05
0.0001420078
0.0001417798
0.0001415315
0.0001412473
9.542841e-05
9.530538e-05
9.518285e-05
9.505893e-05
9.494571e-05
0.0001422173
0.0001420031
0.0001417793
0.0001415355
0.000141271
9.32903e-05
9.415587e-05
9.331158e-05
9.453424e-05
9.418025e-05
9.340393e-05
9.474498e-05
9.453843e-05
9.422757e-05
9.354754e-05
9.488827e-05
9.472973e-05
9.454698e-05
9.427988e-05
9.37576e-05
9.500335e-05
9.486175e-05
9.471677e-05
9.455256e-05
9.435596e-05
0.0001408732
9.510164e-05
9.496632e-05
9.4832e-05
9.469334e-05
9.456266e-05
0.0001415427
0.0001410347
9.520802e-05
9.507706e-05
9.494766e-05
9.481689e-05
9.469993e-05
0.0001418222
0.0001415442
0.0001411559
9.531868e-05
9.519168e-05
9.506575e-05
9.493878e-05
9.482448e-05
0.0001420279
0.0001417982
0.0001415412
0.000141221
9.543309e-05
9.531029e-05
9.518804e-05
9.506448e-05
9.495172e-05
0.0001422269
0.000142013
0.0001417887
0.0001415414
0.0001412616
9.554838e-05
9.542998e-05
9.531166e-05
9.519174e-05
9.508087e-05
0.0001424268
0.0001422215
0.0001420104
0.0001417872
0.0001415468
0.0003440788
9.334515e-05
9.415587e-05
9.331158e-05
9.453472e-05
9.41667e-05
9.335034e-05
9.475654e-05
9.45409e-05
9.420419e-05
9.344746e-05
9.491192e-05
9.474963e-05
9.455567e-05
9.425537e-05
9.362895e-05
9.50343e-05
9.489188e-05
9.47433e-05
9.456765e-05
9.43366e-05
0.0001406667
9.51403e-05
9.500641e-05
9.487305e-05
9.473341e-05
9.459632e-05
0.0001415521
0.0001408874
9.523429e-05
9.510435e-05
9.497601e-05
9.484596e-05
9.472881e-05
0.000141858
0.0001415507
0.0001410516
9.533649e-05
9.521034e-05
9.508542e-05
9.495957e-05
9.484656e-05
0.0001420615
0.0001418284
0.0001415555
0.0001411699
9.544295e-05
9.53206e-05
9.519891e-05
9.5076e-05
9.496412e-05
0.0001422464
0.000142033
0.0001418071
0.0001415512
0.0001412359
9.555285e-05
9.543465e-05
9.531658e-05
9.519695e-05
9.50865e-05
0.0001424358
0.0001422311
0.0001420203
0.0001417966
0.0001415527
0.0003440583
9.566353e-05
9.554964e-05
9.543549e-05
9.531949e-05
9.521115e-05
0.0001426284
0.0001424303
0.0001422276
0.0001420169
0.0001417964
0.0003447281
0.0003441746
9.344909e-05
9.416961e-05
9.336583e-05
9.453472e-05
9.41667e-05
9.335034e-05
9.476199e-05
9.454141e-05
9.419085e-05
9.339455e-05
9.492656e-05
9.47611e-05
9.455821e-05
9.423241e-05
9.353067e-05
9.50587e-05
9.491531e-05
9.476307e-05
9.45764e-05
9.431302e-05
0.000140476
9.517067e-05
9.503704e-05
9.490294e-05
9.475978e-05
9.461187e-05
0.0001415233
0.0001406828
9.527112e-05
9.514268e-05
9.501588e-05
9.488685e-05
9.476928e-05
0.0001419081
0.0001415598
0.0001409061
9.536164e-05
9.523643e-05
9.511261e-05
9.498786e-05
9.487595e-05
0.0001421045
0.0001418638
0.000141562
0.0001410669
9.545995e-05
9.533834e-05
9.521754e-05
9.509568e-05
9.498516e-05
0.0001422794
0.0001420664
0.0001418372
0.0001415655
0.0001411859
9.55623e-05
9.544448e-05
9.532689e-05
9.520784e-05
9.509817e-05
0.0001424544
0.0001422505
0.0001420402
0.000141815
0.0001415627
0.0003440017
9.566781e-05
9.555409e-05
9.544016e-05
9.532442e-05
9.521644e-05
0.0001426368
0.0001424393
0.0001422371
0.0001420268
0.0001418058
0.0003447429
0.0003441592
9.577398e-05
9.566451e-05
9.555449e-05
9.544242e-05
9.533681e-05
0.0001428228
0.0001426312
0.0001424353
0.0001422329
0.0001420244
0.0003453179
0.0003447999
0.0003443111
9.358623e-05
9.419369e-05
9.346861e-05
9.453424e-05
9.418025e-05
9.340393e-05
9.476199e-05
9.454141e-05
9.419085e-05
9.339455e-05
9.493372e-05
9.476652e-05
9.455877e-05
9.42193e-05
9.347861e-05
9.50742e-05
9.492984e-05
9.47745e-05
9.457902e-05
9.429067e-05
0.0001403302
9.519479e-05
9.506123e-05
9.492621e-05
9.477947e-05
9.462093e-05
0.0001414884
0.000140494
9.530062e-05
9.517276e-05
9.504625e-05
9.491653e-05
9.47958e-05
0.0001419311
0.000141531
0.0001407035
9.539682e-05
9.527298e-05
9.515072e-05
9.502755e-05
9.491704e-05
0.0001421647
0.0001419133
0.000141571
0.0001409231
9.548411e-05
9.536333e-05
9.524354e-05
9.51228e-05
9.501366e-05
0.0001423232
0.000142109
0.0001418723
0.0001415721
0.0001410845
9.55786e-05
9.546141e-05
9.534461e-05
9.522648e-05
9.511804e-05
0.0001424858
0.0001422833
0.0001420734
0.000141845
0.0001415772
0.0003438901
9.567689e-05
9.556351e-05
9.544999e-05
9.533474e-05
9.522744e-05
0.0001426543
0.0001424577
0.0001422565
0.0001420466
0.0001418241
0.0003447676
0.0003441141
9.57781e-05
9.566879e-05
9.555895e-05
9.54471e-05
9.53418e-05
0.0001428307
0.0001426396
0.0001424442
0.0001422424
0.0001420343
0.0003453404
0.0003448148
0.000344303
9.587983e-05
9.577474e-05
9.566882e-05
9.556067e-05
9.545799e-05
0.0001430105
0.0001428251
0.0001426354
0.0001424397
0.0001422391
0.0003458591
0.0003453729
0.0003449015
0.0003444344
9.373635e-05
9.421952e-05
9.360411e-05
9.453178e-05
9.420402e-05
9.350537e-05
9.475654e-05
9.45409e-05
9.420419e-05
9.344746e-05
9.493372e-05
9.476652e-05
9.455877e-05
9.42193e-05
9.347861e-05
9.508187e-05
9.493696e-05
9.47799e-05
9.457963e-05
9.427788e-05
0.0001402529
9.521031e-05
9.507662e-05
9.494065e-05
9.479085e-05
9.462375e-05
0.0001414553
0.0001403496
9.532415e-05
9.519669e-05
9.507028e-05
9.493965e-05
9.481555e-05
0.0001419446
0.0001414963
0.0001405167
9.542542e-05
9.530222e-05
9.518056e-05
9.50577e-05
9.494672e-05
0.000142204
0.0001419358
0.0001415422
0.0001407224
9.551782e-05
9.539824e-05
9.527988e-05
9.516073e-05
9.505345e-05
0.0001423843
0.0001421684
0.0001419212
0.0001415809
0.0001409425
9.560189e-05
9.548543e-05
9.536949e-05
9.525239e-05
9.514529e-05
0.0001425283
0.0001423267
0.0001421156
0.0001418798
0.0001415838
0.0003436579
9.569258e-05
9.557974e-05
9.54669e-05
9.535245e-05
9.524622e-05
0.0001426839
0.0001424889
0.0001422891
0.0001420796
0.0001418541
0.0003448031
0.0003440235
9.578686e-05
9.567784e-05
9.556836e-05
9.545694e-05
9.535222e-05
0.0001428472
0.0001426569
0.0001424626
0.0001422617
0.000142054
0.0003453842
0.0003448397
0.0003442749
9.588382e-05
9.577885e-05
9.56731e-05
9.556514e-05
9.546271e-05
0.0001430179
0.000142833
0.0001426437
0.0001424486
0.0001422485
0.0003458824
0.0003453942
0.0003449172
0.0003444349
9.59812e-05
9.588041e-05
9.577857e-05
9.567435e-05
9.557475e-05
0.0001431916
0.0001430123
0.0001428286
0.000142639
0.0001424449
0.0003463704
0.0003459007
0.000345451
0.0003449896
0.0003445611
9.384893e-05
9.424135e-05
9.375237e-05
9.452305e-05
9.422954e-05
9.36389e-05
9.474498e-05
9.453843e-05
9.422757e-05
9.354754e-05
9.492656e-05
9.47611e-05
9.455821e-05
9.423241e-05
9.353067e-05
9.508187e-05
9.493696e-05
9.47799e-05
9.457963e-05
9.427788e-05
0.0001402529
9.521803e-05
9.508424e-05
9.494772e-05
9.479624e-05
9.462446e-05
0.0001414363
0.0001402732
9.533941e-05
9.521211e-05
9.508557e-05
9.495401e-05
9.482697e-05
0.0001419488
0.0001414635
0.0001403738
9.54483e-05
9.532558e-05
9.520434e-05
9.508157e-05
9.496981e-05
0.0001422333
0.000141949
0.0001415078
0.0001405374
9.55456e-05
9.542662e-05
9.530891e-05
9.519037e-05
9.508354e-05
0.0001424284
0.0001422071
0.0001419433
0.000141552
0.0001407436
9.563432e-05
9.55189e-05
9.540422e-05
9.528856e-05
9.518327e-05
0.0001425875
0.0001423871
0.0001421745
0.0001419281
0.0001415926
0.0003433261
9.571511e-05
9.56029e-05
9.549081e-05
9.537725e-05
9.527222e-05
0.0001427245
0.000142531
0.000142332
0.0001421214
0.0001418885
0.0003448179
0.0003438152
9.580201e-05
9.569346e-05
9.558457e-05
9.547383e-05
9.537002e-05
0.0001428752
0.0001426864
0.0001424936
0.0001422941
0.0001420868
0.0003454548
0.0003448756
0.0003442151
9.589229e-05
9.578758e-05
9.568214e-05
9.557455e-05
9.547262e-05
0.0001430335
0.0001428493
0.000142661
0.0001424668
0.0001422677
0.0003459291
0.000345435
0.0003449441
0.0003444268
9.598505e-05
9.588438e-05
9.578268e-05
9.567863e-05
9.557925e-05
0.0001431986
0.0001430197
0.0001428364
0.0001426473
0.0001424537
0.0003463927
0.0003459224
0.0003454712
0.0003450063
0.0003445712
9.607816e-05
9.598161e-05
9.588383e-05
9.578355e-05
9.568715e-05
0.0001433661
0.000143193
0.0001430153
0.0001428316
0.0001426433
0.0003468621
0.0003464007
0.0003459611
0.0003455169
0.0003450785
9.393104e-05
9.423806e-05
9.386323e-05
9.450773e-05
9.425118e-05
9.378474e-05
9.47249e-05
9.452978e-05
9.42526e-05
9.367903e-05
9.491192e-05
9.474963e-05
9.455567e-05
9.425537e-05
9.362895e-05
9.50742e-05
9.492984e-05
9.47745e-05
9.457902e-05
9.429067e-05
0.0001403302
9.521803e-05
9.508424e-05
9.494772e-05
9.479624e-05
9.462446e-05
0.0001414363
0.0001402732
9.534701e-05
9.521978e-05
9.509314e-05
9.496105e-05
9.483238e-05
0.0001419499
0.0001414448
0.0001402981
9.546322e-05
9.534074e-05
9.521966e-05
9.509677e-05
9.498415e-05
0.0001422503
0.0001419532
0.0001414753
0.0001403959
9.556786e-05
9.544935e-05
9.533212e-05
9.521399e-05
9.510734e-05
0.0001424627
0.0001422361
0.0001419563
0.0001415178
0.0001405604
9.566136e-05
9.554647e-05
9.54324e-05
9.53174e-05
9.521282e-05
0.0001426322
0.0001424306
0.0001422126
0.0001419497
0.0001415637
0.0003428611
9.574643e-05
9.563512e-05
9.552412e-05
9.541183e-05
9.530841e-05
0.0001427811
0.0001425896
0.0001423919
0.0001421797
0.0001419365
0.0003448344
0.0003434938
9.582387e-05
9.571586e-05
9.560763e-05
9.549766e-05
9.539489e-05
0.0001429139
0.0001427266
0.0001425353
0.0001423366
0.0001421282
0.0003455338
0.0003448873
0.0003440414
9.590696e-05
9.580267e-05
9.569773e-05
9.559073e-05
9.548959e-05
0.0001430601
0.0001428772
0.0001426903
0.0001424977
0.0001423
0.000346006
0.0003455007
0.0003449846
0.0003444058
9.599328e-05
9.589282e-05
9.57914e-05
9.568767e-05
9.558872e-05
0.0001432134
0.0001430352
0.0001428527
0.0001426645
0.0001424719
0.000346438
0.0003459652
0.0003455096
0.000345036
0.000344586
9.60819e-05
9.598546e-05
9.58878e-05
9.578766e-05
9.569145e-05
0.0001433729
0.0001432001
0.0001430226
0.0001428394
0.0001426516
0.000346883
0.0003464213
0.000345981
0.0003455359
0.0003450966
9.617079e-05
9.607843e-05
9.598469e-05
9.588833e-05
9.579523e-05
0.0001435342
0.0001433673
0.0001431955
0.0001430177
0.0001428352
0.0003473376
0.0003468828
0.0003464468
0.0003460107
0.0003455827
9.39745e-05
9.423683e-05
9.394413e-05
9.447469e-05
9.424784e-05
9.389306e-05
9.469784e-05
9.451468e-05
9.427376e-05
9.382232e-05
9.488827e-05
9.472973e-05
9.454698e-05
9.427988e-05
9.37576e-05
9.50587e-05
9.491531e-05
9.476307e-05
9.45764e-05
9.431302e-05
0.000140476
9.521031e-05
9.507662e-05
9.494065e-05
9.479085e-05
9.462375e-05
0.0001414553
0.0001403496
9.534701e-05
9.521978e-05
9.509314e-05
9.496105e-05
9.483238e-05
0.0001419499
0.0001414448
0.0001402981
9.547067e-05
9.53483e-05
9.522729e-05
9.510431e-05
9.499117e-05
0.0001422584
0.0001419543
0.0001414568
0.0001403209
9.558245e-05
9.546418e-05
9.53472e-05
9.522923e-05
9.512248e-05
0.000142484
0.000142253
0.0001419605
0.0001414857
0.0001404203
9.568307e-05
9.55686e-05
9.5455e-05
9.534047e-05
9.523636e-05
0.0001426675
0.0001424646
0.0001422413
0.0001419625
0.0001415297
0.0003424346
9.577282e-05
9.566197e-05
9.555152e-05
9.543983e-05
9.533715e-05
0.000142825
0.0001426338
0.0001424348
0.0001422172
0.0001419576
0.0003447628
0.0003430379
9.585421e-05
9.5747e-05
9.56397e-05
9.553083e-05
9.542946e-05
0.0001429678
0.0001427827
0.0001425934
0.0001423959
0.0001421861
0.0003456423
0.0003448966
0.0003437249
9.592823e-05
9.582441e-05
9.572004e-05
9.561371e-05
9.551346e-05
0.0001430972
0.0001429156
0.0001427302
0.000142539
0.0001423421
0.0003461012
0.0003455703
0.0003449985
0.0003442826
9.600753e-05
9.590744e-05
9.580646e-05
9.570323e-05
9.560496e-05
0.0001432388
0.0001430616
0.0001428804
0.0001426936
0.0001425025
0.0003465133
0.0003460357
0.0003455722
0.0003450837
0.0003446136
9.608989e-05
9.599365e-05
9.589624e-05
9.579637e-05
9.570054e-05
0.000143387
0.0001432148
0.000143038
0.0001428556
0.0001426687
0.0003469257
0.0003464625
0.0003460201
0.000345572
0.0003451299
9.617442e-05
9.608216e-05
9.598853e-05
9.58923e-05
9.579937e-05
0.0001435407
0.000143374
0.0001432025
0.0001430251
0.000142843
0.0003473571
0.000346902
0.0003464655
0.0003460288
0.0003456006
9.625916e-05
9.617095e-05
9.60812e-05
9.598876e-05
9.589904e-05
0.0001436959
0.0001435351
0.0001433693
0.0001431976
0.0001430208
0.0003477984
0.0003473502
0.0003469171
0.0003464834
0.0003460598
9.399766e-05
9.423033e-05
9.398682e-05
9.445191e-05
9.424647e-05
9.397196e-05
9.465713e-05
9.448194e-05
9.42699e-05
9.392788e-05
9.48578e-05
9.4703e-05
9.453192e-05
9.430049e-05
9.389698e-05
9.50343e-05
9.489188e-05
9.47433e-05
9.456765e-05
9.43366e-05
0.0001406667
9.519479e-05
9.506123e-05
9.492621e-05
9.477947e-05
9.462093e-05
0.0001414884
0.000140494
9.533941e-05
9.521211e-05
9.508557e-05
9.495401e-05
9.482697e-05
0.0001419488
0.0001414635
0.0001403738
9.547067e-05
9.53483e-05
9.522729e-05
9.510431e-05
9.499117e-05
0.0001422584
0.0001419543
0.0001414568
0.0001403209
9.558973e-05
9.547159e-05
9.535472e-05
9.523681e-05
9.512999e-05
0.0001424945
0.000142261
0.0001419616
0.0001414674
0.0001403461
9.569734e-05
9.558311e-05
9.546976e-05
9.535547e-05
9.525153e-05
0.0001426901
0.0001424857
0.000142258
0.0001419666
0.0001414979
0.0003421088
9.579404e-05
9.568356e-05
9.557353e-05
9.54623e-05
9.536013e-05
0.00014286
0.0001426688
0.0001424684
0.0001422455
0.0001419702
0.0003446825
0.0003426297
9.588002e-05
9.577321e-05
9.566639e-05
9.555806e-05
9.545737e-05
0.0001430106
0.0001428261
0.0001426371
0.0001424383
0.0001422231
0.0003456878
0.0003448151
0.0003432592
9.595771e-05
9.585458e-05
9.575104e-05
9.564565e-05
9.554662e-05
0.0001431487
0.000142969
0.0001427858
0.0001425966
0.000142401
0.0003462334
0.0003456687
0.0003450078
0.0003439389
9.602826e-05
9.592859e-05
9.582811e-05
9.572547e-05
9.562796e-05
0.0001432744
0.0001430984
0.0001429185
0.0001427331
0.0001425435
0.0003466104
0.0003461202
0.0003456352
0.0003451055
0.0003445767
9.610376e-05
9.600784e-05
9.591081e-05
9.58114e-05
9.571615e-05
0.0001434113
0.00014324
0.0001430643
0.0001428831
0.0001426976
0.0003469973
0.0003465312
0.0003460851
0.0003456321
0.0003451883
9.618221e-05
9.609013e-05
9.59967e-05
9.590072e-05
9.580812e-05
0.0001435542
0.000143388
0.0001432171
0.0001430404
0.0001428591
0.0003473972
0.0003469408
0.0003465026
0.0003460638
0.0003456344
9.62627e-05
9.617457e-05
9.608492e-05
9.59926e-05
9.590303e-05
0.0001437021
0.0001435415
0.000143376
0.0001432045
0.0001430281
0.0003478167
0.0003473681
0.0003469344
0.0003465
0.000346076
9.634334e-05
9.625922e-05
9.617344e-05
9.608491e-05
9.599862e-05
0.0001438513
0.0001436966
0.0001435369
0.000143371
0.0001432001
0.0003482449
0.0003478043
0.0003473747
0.000346943
0.0003465194
9.400679e-05
9.422594e-05
9.400955e-05
9.4433e-05
9.423979e-05
9.401328e-05
9.462864e-05
9.445926e-05
9.426798e-05
9.400456e-05
9.481615e-05
9.466268e-05
9.449917e-05
9.429598e-05
9.399779e-05
9.500335e-05
9.486175e-05
9.471677e-05
9.455256e-05
9.435596e-05
0.0001408732
9.517067e-05
9.503704e-05
9.490294e-05
9.475978e-05
9.461187e-05
0.0001415233
0.0001406828
9.532415e-05
9.519669e-05
9.507028e-05
9.493965e-05
9.481555e-05
0.0001419446
0.0001414963
0.0001405167
9.546322e-05
9.534074e-05
9.521966e-05
9.509677e-05
9.498415e-05
0.0001422503
0.0001419532
0.0001414753
0.0001403959
9.558973e-05
9.547159e-05
9.535472e-05
9.523681e-05
9.512999e-05
0.0001424945
0.000142261
0.0001419616
0.0001414674
0.0001403461
9.570449e-05
9.559037e-05
9.547713e-05
9.536296e-05
9.525909e-05
0.0001427013
0.0001424961
0.0001422659
0.0001419677
0.0001414798
0.0003419362
9.580804e-05
9.569777e-05
9.558797e-05
9.547698e-05
9.537506e-05
0.0001428826
0.0001426912
0.0001424894
0.000142262
0.0001419742
0.0003446085
0.0003423213
9.590081e-05
9.579433e-05
9.568788e-05
9.557996e-05
9.547975e-05
0.0001430448
0.0001428609
0.0001426718
0.0001424715
0.000142251
0.0003457157
0.0003447331
0.000342857
9.598301e-05
9.588024e-05
9.577711e-05
9.56722e-05
9.557377e-05
0.0001431902
0.0001430114
0.0001428288
0.0001426398
0.0001424428
0.0003463166
0.0003457006
0.0003449107
0.000343446
9.605698e-05
9.595792e-05
9.585816e-05
9.575635e-05
9.565989e-05
0.0001433238
0.0001431495
0.0001429716
0.0001427883
0.0001426007
0.0003467457
0.0003462427
0.0003457327
0.0003451062
0.0003442082
9.612402e-05
9.602847e-05
9.593189e-05
9.583298e-05
9.573839e-05
0.0001434456
0.0001432753
0.0001431008
0.0001429209
0.0001427368
0.0003470918
0.0003466179
0.0003461604
0.0003456902
0.0003452304
9.619574e-05
9.610394e-05
9.601086e-05
9.591527e-05
9.582317e-05
0.0001435776
0.0001434121
0.0001432422
0.0001430665
0.0001428864
0.0003474648
0.000347006
0.000346565
0.0003461231
0.0003456934
9.627031e-05
9.618234e-05
9.609287e-05
9.600077e-05
9.591148e-05
0.0001437152
0.000143555
0.00014339
0.0001432191
0.0001430433
0.0003478545
0.0003474045
0.0003469691
0.0003465326
0.0003461069
9.63468e-05
9.626275e-05
9.617706e-05
9.608863e-05
9.600247e-05
0.0001438573
0.0001437028
0.0001435432
0.0001433777
0.000143207
0.0003482621
0.000347821
0.0003473907
0.0003469581
0.0003465339
9.64234e-05
9.634332e-05
9.626147e-05
9.617682e-05
9.609401e-05
0.0001440004
0.0001438518
0.0001436981
0.0001435383
0.0001433732
0.0003486771
0.0003482451
0.0003478206
0.0003473916
0.0003469683
9.422314e-05
9.401848e-05
9.442175e-05
9.423528e-05
9.403517e-05
9.460696e-05
9.444034e-05
9.426079e-05
9.404431e-05
9.478679e-05
9.463438e-05
9.447633e-05
9.429336e-05
9.407045e-05
9.49629e-05
9.482048e-05
9.467661e-05
9.45197e-05
9.434973e-05
0.0001410221
9.51403e-05
9.500641e-05
9.487305e-05
9.473341e-05
9.459632e-05
0.0001415521
0.0001408874
9.530062e-05
9.517276e-05
9.504625e-05
9.491653e-05
9.47958e-05
0.0001419311
0.000141531
0.0001407035
9.54483e-05
9.532558e-05
9.520434e-05
9.508157e-05
9.496981e-05
0.0001422333
0.000141949
0.0001415078
0.0001405374
9.558245e-05
9.546418e-05
9.53472e-05
9.522923e-05
9.512248e-05
0.000142484
0.000142253
0.0001419605
0.0001414857
0.0001404203
9.570449e-05
9.559037e-05
9.547713e-05
9.536296e-05
9.525909e-05
0.0001427013
0.0001424961
0.0001422659
0.0001419677
0.0001414798
0.0003419362
9.581505e-05
9.570488e-05
9.559519e-05
9.548433e-05
9.538252e-05
0.0001428939
0.0001427023
0.0001424997
0.0001422699
0.0001419754
0.0003445668
0.0003421589
9.591456e-05
9.580827e-05
9.570202e-05
9.559433e-05
9.549437e-05
0.0001430671
0.0001428833
0.000142694
0.0001424923
0.0001422673
0.0003457247
0.0003446613
0.0003425594
9.600341e-05
9.590093e-05
9.579813e-05
9.569359e-05
9.559558e-05
0.0001432236
0.0001430454
0.0001428632
0.0001426741
0.0001424757
0.0003463805
0.000345721
0.0003448229
0.0003430407
9.608182e-05
9.598308e-05
9.588369e-05
9.578229e-05
9.568635e-05
0.0001433642
0.0001431907
0.0001430135
0.0001428309
0.0001426434
0.000346841
0.0003463125
0.0003457488
0.0003449897
0.0003436539
9.615206e-05
9.605705e-05
9.59611e-05
9.586292e-05
9.576926e-05
0.0001434932
0.0001433244
0.0001431516
0.0001429736
0.0001427916
0.000347224
0.0003467449
0.0003462824
0.0003457851
0.0003452491
0.0009047289
9.621558e-05
9.612411e-05
9.603141e-05
9.593627e-05
9.584475e-05
0.0001436107
0.0001434462
0.0001432772
0.0001431027
0.0001429239
0.0003475555
0.0003470908
0.0003466421
0.0003461894
0.0003457507
9.628353e-05
9.619581e-05
9.610665e-05
9.601489e-05
9.592605e-05
0.0001437377
0.0001435782
0.0001434139
0.0001432439
0.0001430692
0.0003479183
0.0003474659
0.0003470278
0.0003465881
0.0003461607
9.635424e-05
9.627033e-05
9.618481e-05
9.609657e-05
9.601066e-05
0.0001438699
0.0001437158
0.0001435567
0.0001433916
0.0001432215
0.0003482979
0.0003478552
0.000347423
0.0003469881
0.0003465616
9.642678e-05
9.634677e-05
9.6265e-05
9.618044e-05
9.609774e-05
0.0001440061
0.0001438577
0.0001437042
0.0001435446
0.0001433798
0.0003486934
0.0003482608
0.0003478355
0.0003474056
0.0003469812
9.649939e-05
9.64233e-05
9.634536e-05
9.626457e-05
9.618525e-05
0.0001441432
0.0001440007
0.000143853
0.0001436992
0.0001435401
0.0003490948
0.0003486725
0.0003482545
0.0003478301
0.000347408
9.441605e-05
9.42324e-05
9.404371e-05
9.459424e-05
9.442905e-05
9.425591e-05
9.406524e-05
9.476513e-05
9.461274e-05
9.445718e-05
9.428556e-05
9.410725e-05
9.493426e-05
9.479133e-05
9.46483e-05
9.449662e-05
9.434545e-05
0.0001411292
9.510164e-05
9.496632e-05
9.4832e-05
9.469334e-05
9.456266e-05
0.0001415427
0.0001410347
9.527112e-05
9.514268e-05
9.501588e-05
9.488685e-05
9.476928e-05
0.0001419081
0.0001415598
0.0001409061
9.542542e-05
9.530222e-05
9.518056e-05
9.50577e-05
9.494672e-05
0.000142204
0.0001419358
0.0001415422
0.0001407224
9.556786e-05
9.544935e-05
9.533212e-05
9.521399e-05
9.510734e-05
0.0001424627
0.0001422361
0.0001419563
0.0001415178
0.0001405604
9.569734e-05
9.558311e-05
9.546976e-05
9.535547e-05
9.525153e-05
0.0001426901
0.0001424857
0.000142258
0.0001419666
0.0001414979
0.0003421088
9.581505e-05
9.570488e-05
9.559519e-05
9.548433e-05
9.538252e-05
0.0001428939
0.0001427023
0.0001424997
0.0001422699
0.0001419754
0.0003445668
0.0003421589
9.592146e-05
9.581525e-05
9.570911e-05
9.560153e-05
9.550169e-05
0.0001430782
0.0001428945
0.000142705
0.0001425025
0.0001422751
0.0003457274
0.0003446216
0.0003424041
9.601695e-05
9.591463e-05
9.581201e-05
9.570767e-05
9.560989e-05
0.0001432454
0.0001430675
0.0001428855
0.0001426961
0.0001424962
0.0003464181
0.0003457268
0.0003447508
0.0003427489
9.610188e-05
9.600339e-05
9.590429e-05
9.580322e-05
9.570766e-05
0.0001433968
0.0001432239
0.0001430472
0.000142865
0.0001426774
0.0003469167
0.0003463677
0.0003457601
0.0003448941
0.0003432263
9.617648e-05
9.608176e-05
9.598614e-05
9.588833e-05
9.579512e-05
0.0001435326
0.0001433645
0.0001431924
0.0001430151
0.0001428338
0.000347322
0.0003468282
0.0003463383
0.0003457851
0.0003450956
0.000902446
9.624299e-05
9.615201e-05
9.605988e-05
9.596539e-05
9.587468e-05
0.0001436568
0.0001434935
0.000143326
0.0001431532
0.0001429763
0.0003476828
0.0003472163
0.0003467698
0.0003463123
0.0003458728
0.0009077599
0.00090543
9.630298e-05
9.621555e-05
9.612674e-05
9.603537e-05
9.594705e-05
0.0001437699
0.0001436111
0.0001434478
0.0001432787
0.0001431052
0.0003480053
0.0003475478
0.0003471033
0.0003466549
0.0003462187
9.636718e-05
9.62835e-05
9.619824e-05
9.611031e-05
9.60248e-05
0.0001438916
0.0001437381
0.0001435797
0.0001434154
0.0001432462
0.0003483584
0.0003479132
0.0003474781
0.0003470396
0.00034661
9.643407e-05
9.635418e-05
9.627256e-05
9.618817e-05
9.61057e-05
0.0001440183
0.0001438703
0.0001437171
0.0001435579
0.0001433936
0.0003487273
0.0003482931
0.0003478657
0.0003474332
0.0003470062
9.65027e-05
9.642667e-05
9.63488e-05
9.626809e-05
9.618888e-05
0.0001441487
0.0001440064
0.0001438589
0.0001437053
0.0001435464
0.0003491103
0.0003486873
0.0003482685
0.0003478429
0.0003474197
9.657137e-05
9.649922e-05
9.642515e-05
9.634819e-05
9.627239e-05
0.0001442798
0.0001441434
0.0001440017
0.0001438539
0.0001437007
0.0003494979
0.0003490862
0.0003486762
0.0003482578
0.000347839
9.458799e-05
9.442331e-05
9.425285e-05
9.407332e-05
9.475248e-05
9.460002e-05
9.44457e-05
9.428025e-05
9.412631e-05
9.491345e-05
9.476974e-05
9.462655e-05
9.447717e-05
9.433626e-05
0.0001411831
9.507416e-05
9.493788e-05
9.480292e-05
9.466497e-05
9.453871e-05
0.000141536
0.0001411405
9.523429e-05
9.510435e-05
9.497601e-05
9.484596e-05
9.472881e-05
0.000141858
0.0001415507
0.0001410516
9.539682e-05
9.527298e-05
9.515072e-05
9.502755e-05
9.491704e-05
0.0001421647
0.0001419133
0.000141571
0.0001409231
9.55456e-05
9.542662e-05
9.530891e-05
9.519037e-05
9.508354e-05
0.0001424284
0.0001422071
0.0001419433
0.000141552
0.0001407436
9.568307e-05
9.55686e-05
9.5455e-05
9.534047e-05
9.523636e-05
0.0001426675
0.0001424646
0.0001422413
0.0001419625
0.0001415297
0.0003424346
9.580804e-05
9.569777e-05
9.558797e-05
9.547698e-05
9.537506e-05
0.0001428826
0.0001426912
0.0001424894
0.000142262
0.0001419742
0.0003446085
0.0003423213
9.592146e-05
9.581525e-05
9.570911e-05
9.560153e-05
9.550169e-05
0.0001430782
0.0001428945
0.000142705
0.0001425025
0.0001422751
0.0003457274
0.0003446216
0.0003424041
9.602374e-05
9.59215e-05
9.581897e-05
9.571473e-05
9.561706e-05
0.0001432563
0.0001430785
0.0001428966
0.0001427071
0.0001425064
0.0003464362
0.0003457285
0.000344712
0.0003425983
9.611522e-05
9.601688e-05
9.591794e-05
9.581705e-05
9.572169e-05
0.0001434181
0.0001432455
0.0001430692
0.0001428871
0.0001426992
0.0003469642
0.0003464006
0.0003457618
0.0003448205
0.0003429337
9.619624e-05
9.610174e-05
9.600638e-05
9.590885e-05
9.581597e-05
0.0001435644
0.0001433968
0.0001432253
0.0001430486
0.0001428676
0.0003474008
0.0003468956
0.0003463841
0.0003457871
0.0003449809
0.0009008806
9.626705e-05
9.617632e-05
9.608449e-05
9.599032e-05
9.590002e-05
0.0001436954
0.0001435327
0.0001433659
0.0001431937
0.0001430175
0.0003477802
0.000347304
0.0003468412
0.000346355
0.0003458446
0.0009071132
0.0009033881
9.632984e-05
9.624285e-05
9.615454e-05
9.606375e-05
9.597615e-05
0.0001438146
0.000143657
0.0001434949
0.0001433273
0.0001431554
0.0003481276
0.0003476699
0.0003472307
0.0003467862
0.0003463712
0.0009097032
0.0009080521
0.0009058275
9.638628e-05
9.630286e-05
9.621791e-05
9.613033e-05
9.604527e-05
0.000143923
0.0001437701
0.0001436124
0.000143449
0.0001432808
0.000348442
0.0003479921
0.0003475512
0.0003471046
0.0003466652
9.644675e-05
9.636706e-05
9.628569e-05
9.620157e-05
9.611945e-05
0.0001440395
0.0001438919
0.0001437393
0.0001435808
0.0001434173
0.0003487851
0.0003483481
0.0003479175
0.000347481
0.0003470499
9.650985e-05
9.643393e-05
9.635619e-05
9.627563e-05
9.619662e-05
0.0001441606
0.0001440186
0.0001438714
0.0001437181
0.0001435596
0.0003491427
0.000348718
0.0003482969
0.0003478686
0.0003474423
9.657462e-05
9.650253e-05
9.642852e-05
9.635163e-05
9.627592e-05
0.0001442852
0.0001441489
0.0001440074
0.0001438598
0.0001437068
0.0003495127
0.0003491003
0.0003486893
0.0003482697
0.0003478496
9.663938e-05
9.657115e-05
9.65009e-05
9.642776e-05
9.635548e-05
0.0001444103
0.0001442799
0.0001441442
0.0001440024
0.0001438552
0.0003498864
0.000349486
0.0003490852
0.0003486742
0.0003482604
9.474635e-05
9.459375e-05
9.443985e-05
9.427697e-05
9.413348e-05
9.490134e-05
9.47571e-05
9.461371e-05
9.446545e-05
9.433001e-05
0.0001412109
9.505441e-05
9.491715e-05
9.478127e-05
9.464306e-05
9.451845e-05
0.000141522
0.0001411936
9.520802e-05
9.507706e-05
9.494766e-05
9.481689e-05
9.469993e-05
0.0001418222
0.0001415442
0.0001411559
9.536164e-05
9.523643e-05
9.511261e-05
9.498786e-05
9.487595e-05
0.0001421045
0.0001418638
0.000141562
0.0001410669
9.551782e-05
9.539824e-05
9.527988e-05
9.516073e-05
9.505345e-05
0.0001423843
0.0001421684
0.0001419212
0.0001415809
0.0001409425
9.566136e-05
9.554647e-05
9.54324e-05
9.53174e-05
9.521282e-05
0.0001426322
0.0001424306
0.0001422126
0.0001419497
0.0001415637
0.0003428611
9.579404e-05
9.568356e-05
9.557353e-05
9.54623e-05
9.536013e-05
0.00014286
0.0001426688
0.0001424684
0.0001422455
0.0001419702
0.0003446825
0.0003426297
9.591456e-05
9.580827e-05
9.570202e-05
9.559433e-05
9.549437e-05
0.0001430671
0.0001428833
0.000142694
0.0001424923