/*--------------------------------*- C++ -*----------------------------------*\
| =========                 |                                                 |
| \\      /  F ield         | OpenFOAM: The Open Source CFD Toolbox           |
|  \\    /   O peration     | Version:  2306                                  |
|   \\  /    A nd           | Website:  www.openfoam.com                      |
|    \\/     M anipulation  |                                                 |
\*---------------------------------------------------------------------------*/
FoamFile
{
    version     2.0;
    format      ascii;
    arch        "LSB;label=32;scalar=64";
    class       volScalarField;
    location    "0.3/fuel";
    object      eta.fuel;
}
// * * * * * * * * * * * * * * * * * * * * * * * * * * * * * * * * * * * * * //

dimensions      [1 2 -3 0 0 -1 0];

internalField   nonuniform List<scalar> 
16000
(
0.1094922
0.1099403
0.103763
0.1056985
0.110811
0.1040659
0.1061192
0.09856701
0.1002902
0.1029591
0.112076
0.1046409
0.1069356
0.09880475
0.1005753
0.1033616
0.09428283
0.09537891
0.09776774
0.1012334
0.1136233
0.105449
0.1081208
0.0992508
0.1011156
0.1041423
0.09448183
0.095603
0.09804059
0.1016264
0.09066647
0.09132666
0.09305363
0.09616098
0.1004965
0.1151597
0.106384
0.1095686
0.09986586
0.1018745
0.1052759
0.09485211
0.09602277
0.09855726
0.1023888
0.09083913
0.09151445
0.09326817
0.09642688
0.1008884
0.08752253
0.08790379
0.08916459
0.09156146
0.0954484
0
0.1161129
0.1072368
0.1110041
0.1005534
0.1027512
0.1066615
0.09535447
0.0966011
0.09928281
0.1034976
0.09115845
0.09186323
0.09366961
0.09693028
0.1016496
0.0876757
0.08806686
0.08934444
0.09177034
0.09571246
0
0.08473057
0.08492577
0.0858793
0.08777067
0.09088376
0
0
0.1165582
0.107709
0.111885
0.1011439
0.1035489
0.108037
0.09589936
0.09724629
0.1001206
0.1048562
0.0915857
0.09233591
0.09422246
0.09763755
0.1027593
0.08795775
0.0883679
0.08967806
0.09216098
0.09621264
0
0.08486881
0.08507057
0.08603555
0.0879457
0.09109073
0
0
0.08220818
0.08227885
0.08302014
0.08457001
0.08712848
0
0
0
0.1167186
0.1078882
0.1122884
0.101437
0.1039854
0.1088755
0.09634113
0.09779858
0.1008824
0.1062104
0.09203674
0.09284727
0.09483852
0.09845486
0.1041253
0.08833061
0.0887701
0.09012985
0.09269899
0.0969162
0
0.08512263
0.08533667
0.08632359
0.08827014
0.09147785
0
0
0.0823347
0.08240964
0.08315894
0.08472205
0.08730171
0
0
0
0.0799003
0.07988516
0.08047767
0.08178502
0.08396128
0
0
0
0
0.11676
0.1079235
0.1124274
0.1015184
0.1041466
0.1092552
0.09653307
0.09806873
0.1012952
0.1070347
0.09238212
0.09325972
0.09536464
0.09919862
0.105496
0.08871473
0.08919329
0.09061772
0.09329841
0.09773082
0
0.08545472
0.08568784
0.08670802
0.0887094
0.09201133
0
0
0.08256659
0.0826493
0.08341365
0.08500211
0.08762279
0
0
0
0.08001727
0.08000497
0.08060311
0.08192009
0.08411166
0
0
0
0
0.07776793
0.07769274
0.07817707
0.07930841
0.08120725
0
0
0
0
0
0.11676
0.1079179
0.1124602
0.1015084
0.1041744
0.1093829
0.0965584
0.09814015
0.1014449
0.107408
0.09250881
0.09343511
0.0956187
0.09959939
0.1063336
0.08899278
0.08951493
0.09100957
0.09380976
0.09847408
0
0.08578951
0.08604812
0.08711148
0.08918329
0.09260617
0
0
0.08286738
0.08296223
0.08374934
0.08537569
0.08805759
0
0
0
0.0802315
0.08022411
0.08083262
0.08216775
0.0843886
0
0
0
0
0.07787702
0.0778036
0.07829203
0.0794305
0.08134081
0
0
0
0
0
0.07578101
0.07566488
0.07606843
0.07706694
0.07875914
0
0
0
0
0
0
0.1167186
0.1079179
0.1124602
0.1014859
0.1041663
0.1094114
0.09652126
0.09812688
0.1014681
0.1075338
0.09249758
0.09345416
0.09568308
0.09974345
0.1067173
0.08907477
0.08962893
0.09117293
0.09405419
0.09887382
0
0.08601908
0.08630629
0.08741616
0.08956279
0.0931138
0
0
0.08316497
0.08327616
0.08409262
0.08576713
0.08852671
0
0
0
0.08050739
0.08050773
0.08113182
0.08249388
0.08475803
0
0
0
0
0.07807682
0.07800624
0.07850201
0.07965368
0.0815856
0
0
0
0
0
0.07588348
0.07576836
0.07617488
0.07717888
0.07887985
0
0
0
0
0
0
0.07391674
0.07377323
0.0741166
0.07501186
0.07654394
0
0
0
0
0
0
0
0.1165582
0.1079235
0.1124274
0.1014859
0.1041663
0.1094114
0.09648818
0.09810374
0.1014587
0.1075621
0.09244241
0.09341575
0.09566764
0.09976497
0.1068506
0.08903892
0.08961356
0.09118729
0.09411431
0.09901807
0
0.08606977
0.08637815
0.08752072
0.08971838
0.09335482
0
0
0.08335899
0.08348865
0.08433644
0.08606131
0.08890185
0
0
0
0.08077598
0.08078677
0.08143081
0.08282666
0.08514493
0
0
0
0
0.07833259
0.07826655
0.07877329
0.07994435
0.08190792
0
0
0
0
0
0.07607128
0.07595752
0.07636916
0.07738312
0.0791004
0
0
0
0
0
0
0.07401359
0.07387051
0.07421603
0.07511553
0.07665459
0
0
0
0
0
0
0
0.07215644
0.07199633
0.07229443
0.07310887
0.07451309
0
0
0
0
0
0
0
0
0.1161129
0.1078882
0.1122884
0.1015084
0.1041744
0.1093829
0.09648818
0.09810374
0.1014587
0.1075621
0.09240211
0.09338285
0.09564414
0.09975524
0.1068828
0.08897179
0.08955815
0.09114787
0.09409766
0.09904058
0
0.08601726
0.08633949
0.08750209
0.0897295
0.09341334
0
0
0.08338767
0.083531
0.08440064
0.08615948
0.08905374
0
0
0
0.08094321
0.08096582
0.08163088
0.08306139
0.08543482
0
0
0
0
0.07857823
0.07851844
0.079039
0.08023403
0.08223651
0
0
0
0
0
0.07631053
0.07619905
0.07661826
0.07764669
0.07938758
0
0
0
0
0
0
0.07419129
0.07404848
0.07439752
0.07530457
0.07685643
0
0
0
0
0
0
0
0.07224843
0.07208835
0.07238796
0.07320573
0.07461558
0
0
0
0
0
0
0
0
0.07048667
0.07031656
0.07058136
0.07133148
0.07263252
0
0
0
0
0
0
0
0
0
0.1151597
0.107709
0.111885
0.1015184
0.1041466
0.1092552
0.09652126
0.09812688
0.1014681
0.1075338
0.09240211
0.09338285
0.09564414
0.09975524
0.1068828
0.08892675
0.08951842
0.09111507
0.09407403
0.09903166
0
0.08594236
0.08627272
0.08744636
0.08968932
0.09339639
0
0
0.08332416
0.08347658
0.08435967
0.08613838
0.08906301
0
0
0
0.08095625
0.08098747
0.08166686
0.08312025
0.08552953
0
0
0
0
0.078725
0.07867237
0.07920713
0.08042614
0.08246725
0
0
0
0
0
0.07653773
0.07642949
0.07685812
0.07790404
0.07967343
0
0
0
0
0
0
0.07441675
0.0742746
0.07462877
0.07554665
0.07711679
0
0
0
0
0
0
0
0.07241741
0.07225692
0.07255883
0.07338239
0.0748024
0
0
0
0
0
0
0
0
0.07057422
0.07040404
0.07066989
0.07142264
0.07272829
0
0
0
0
0
0
0
0
0
0.06889555
0.06872132
0.06896052
0.0696597
0.07087594
0
0
0
0
0
0
0
0
0
0
0.1136233
0.1072368
0.1110041
0.101437
0.1039854
0.1088755
0.0965584
0.09814015
0.1014449
0.107408
0.09244241
0.09341575
0.09566764
0.09976497
0.1068506
0.08892675
0.08951842
0.09111507
0.09407403
0.09903166
0
0.08589436
0.08622848
0.087407
0.08965654
0.09337287
0
0
0.08324456
0.0834024
0.084293
0.08608222
0.08902226
0
0
0
0.08088568
0.08092265
0.08161077
0.08307739
0.08550671
0
0
0
0
0.07872685
0.07867936
0.07922336
0.08045758
0.08252299
0
0
0
0
0
0.07666868
0.07656428
0.0770023
0.07806509
0.07986185
0
0
0
0
0
0
0.07462871
0.07448785
0.07484824
0.07577893
0.07737063
0
0
0
0
0
0
0
0.07263089
0.0724702
0.07277546
0.07360719
0.07504152
0
0
0
0
0
0
0
0
0.07073524
0.07056449
0.07083185
0.07158903
0.07290289
0
0
0
0
0
0
0
0
0
0.06897918
0.06880464
0.06904474
0.06974602
0.07096608
0
0
0
0
0
0
0
0
0
0
0.06737471
0.06719946
0.06741992
0.06807708
0.06922352
0
0
0
0
0
0
0
0
0
0
0.112076
0.106384
0.1095686
0.1011439
0.1035489
0.108037
0.09653307
0.09806873
0.1012952
0.1070347
0.09249758
0.09345416
0.09568308
0.09974345
0.1067173
0.08897179
0.08955815
0.09114787
0.09409766
0.09904058
0
0.08589436
0.08622848
0.087407
0.08965654
0.09337287
0
0
0.08319492
0.0833553
0.08424926
0.086043
0.08898942
0
0
0
0.08080357
0.08084399
0.08153695
0.08301055
0.08545001
0
0
0
0
0.07865192
0.07860789
0.07915731
0.08040001
0.08247862
0
0
0
0
0
0.07666255
0.07656085
0.07700459
0.0780774
0.07989051
0
0
0
0
0
0
0.07474661
0.07460791
0.07497423
0.07591674
0.07752831
0
0
0
0
0
0
0
0.07282976
0.07266926
0.07297863
0.07381974
0.07527056
0
0
0
0
0
0
0
0
0.07093833
0.07076661
0.07103632
0.07179969
0.07312495
0
0
0
0
0
0
0
0
0
0.06913353
0.06895767
0.06919902
0.06990381
0.07113055
0
0
0
0
0
0
0
0
0
0
0.06745498
0.06727911
0.06750018
0.06815923
0.06930888
0
0
0
0
0
0
0
0
0
0
0.06591604
0.06574315
0.06594888
0.06657199
0.06765897
0
0
0
0
0
0
0
0
0
0
0.110811
0.105449
0.1081208
0.1005534
0.1027512
0.1066615
0.09634113
0.09779858
0.1008824
0.1062104
0.09250881
0.09343511
0.0956187
0.09959939
0.1063336
0.08903892
0.08961356
0.09118729
0.09411431
0.09901807
0
0.08594236
0.08627272
0.08744636
0.08968932
0.09339639
0
0
0.08319492
0.0833553
0.08424926
0.086043
0.08898942
0
0
0
0.08075327
0.08079531
0.08149045
0.08296704
0.08541071
0
0
0
0
0.07856875
0.07852684
0.07907918
0.08032621
0.08241132
0
0
0
0
0
0.076585
0.0764853
0.07693222
0.0780102
0.07983166
0
0
0
0
0
0
0.07473436
0.07459709
0.07496667
0.07591561
0.07753815
0
0
0
0
0
0
0
0.0729378
0.07277719
0.07309067
0.07393995
0.0754053
0
0
0
0
0
0
0
0
0.07112679
0.07095351
0.07122606
0.07199649
0.07333451
0
0
0
0
0
0
0
0
0
0.06932798
0.06915012
0.06939291
0.07010273
0.07133867
0
0
0
0
0
0
0
0
0
0
0.06760351
0.06742593
0.06764741
0.0683096
0.06946487
0
0
0
0
0
0
0
0
0
0
0.06599335
0.06581967
0.06602564
0.0666503
0.06774021
0
0
0
0
0
0
0
0
0
0
0.06451357
0.0643448
0.06453998
0.06513404
0.06617076
0
0
0
0
0
0
0
0
0
0
0.1099403
0.1046409
0.1069356
0.09986586
0.1018745
0.1052759
0.09589936
0.09724629
0.1001206
0.1048562
0.09238212
0.09325972
0.09536464
0.09919862
0.105496
0.08907477
0.08962893
0.09117293
0.09405419
0.09887382
0
0.08601726
0.08633949
0.08750209
0.0897295
0.09341334
0
0
0.08324456
0.0834024
0.084293
0.08608222
0.08902226
0
0
0
0.08075327
0.08079531
0.08149045
0.08296704
0.08541071
0
0
0
0
0.07851843
0.07847752
0.07903115
0.08027999
0.08236776
0
0
0
0
0
0.07650163
0.07640326
0.0768518
0.0779322
0.07975749
0
0
0
0
0
0
0.07465558
0.07451914
0.07489045
0.07584232
0.07746983
0
0
0
0
0
0
0
0.0729219
0.07276073
0.07307618
0.07392936
0.07540195
0
0
0
0
0
0
0
0
0.07122727
0.07105232
0.07132662
0.07210325
0.0734519
0
0
0
0
0
0
0
0
0
0.06950771
0.06932739
0.06957114
0.07028656
0.0715327
0
0
0
0
0
0
0
0
0
0
0.06779044
0.06761037
0.06783216
0.06849831
0.06966142
0
0
0
0
0
0
0
0
0
0
0.0661368
0.06596109
0.066167
0.06679387
0.0678889
0
0
0
0
0
0
0
0
0
0
0.06458818
0.06441855
0.06461377
0.06520898
0.06624822
0
0
0
0
0
0
0
0
0
0
0.0631612
0.06299883
0.06318599
0.06375607
0.06474863
0
0
0
0
0
0
0
0
0
0
0.1094922
0.1040659
0.1061192
0.0992508
0.1011156
0.1041423
0.09535447
0.0966011
0.09928281
0.1034976
0.09203674
0.09284727
0.09483852
0.09845486
0.1041253
0.08899278
0.08951493
0.09100957
0.09380976
0.09847408
0
0.08606977
0.08637815
0.08752072
0.08971838
0.09335482
0
0
0.08332416
0.08347658
0.08435967
0.08613838
0.08906301
0
0
0
0.08080357
0.08084399
0.08153695
0.08301055
0.08545001
0
0
0
0
0.07851843
0.07847752
0.07903115
0.08027999
0.08236776
0
0
0
0
0
0.07645163
0.07635391
0.07680314
0.07788449
0.07971125
0
0
0
0
0
0
0.07457294
0.07443693
0.07480911
0.07576212
0.07739156
0
0
0
0
0
0
0
0.07284327
0.07268171
0.07299773
0.0738524
0.0753277
0
0
0
0
0
0
0
0
0.07120916
0.07103261
0.07130686
0.07208604
0.07343931
0
0
0
0
0
0
0
0
0
0.06960219
0.0694193
0.06966314
0.07038227
0.07163686
0
0
0
0
0
0
0
0
0
0
0.06796276
0.06777959
0.06800131
0.06867103
0.06984268
0
0
0
0
0
0
0
0
0
0
0.06631724
0.06613857
0.06634419
0.06697375
0.06807538
0
0
0
0
0
0
0
0
0
0
0.06472701
0.06455526
0.06475003
0.06534688
0.0663902
0
0
0
0
0
0
0
0
0
0
0.06323333
0.06307006
0.06325716
0.06382813
0.06482277
0
0
0
0
0
0
0
0
0
0
0.06185432
0.06169953
0.06188162
0.06243106
0.06338552
0
0
0
0
0
0
0
0
0
0
0.103763
0.1056985
0.09880475
0.1005753
0.1033616
0.09485211
0.09602277
0.09855726
0.1023888
0.0915857
0.09233591
0.09422246
0.09763755
0.1027593
0.08871473
0.08919329
0.09061772
0.09329841
0.09773081
0
0.08601908
0.08630629
0.08741616
0.08956279
0.0931138
0
0
0.08338767
0.083531
0.08440064
0.08615948
0.08905374
0
0
0
0.08088568
0.08092265
0.08161077
0.08307739
0.08550671
0
0
0
0
0.07856875
0.07852684
0.07907918
0.08032621
0.08241132
0
0
0
0
0
0.07645163
0.07635391
0.07680314
0.07788449
0.07971125
0
0
0
0
0
0
0.0745237
0.07438789
0.07476043
0.0757138
0.07734385
0
0
0
0
0
0
0
0.072762
0.07260023
0.07291625
0.07377133
0.07524729
0
0
0
0
0
0
0
0
0.07113148
0.07095383
0.07122747
0.07200699
0.07336152
0
0
0
0
0
0
0
0
0
0.06958289
0.06939769
0.06964042
0.07036004
0.07161783
0
0
0
0
0
0
0
0
0
0
0.0680525
0.06786606
0.06808688
0.06875855
0.06993598
0
0
0
0
0
0
0
0
0
0
0
0.06648331
0.06630098
0.06650579
0.06713775
0.06824571
0
0
0
0
0
0
0
0
0
0
0.06490152
0.06472675
0.06492066
0.06551948
0.06656799
0
0
0
0
0
0
0
0
0
0
0.0633679
0.06320249
0.06338897
0.06396112
0.06495917
0
0
0
0
0
0
0
0
0
0
0.06192416
0.06176844
0.06195039
0.06250058
0.06345682
0
0
0
0
0
0
0
0
0
0
0.06058935
0.06044259
0.06062141
0.06115389
0.06207447
0
0
0
0
0
0
0
0
0
0
0.09856701
0.1002902
0.1029591
0.09448183
0.095603
0.09804059
0.1016264
0.09115845
0.09186323
0.09366961
0.09693028
0.1016496
0.08833061
0.0887701
0.09012985
0.09269899
0.0969162
0
0.08578951
0.08604812
0.08711148
0.08918329
0.09260617
0
0
0.08335899
0.08348865
0.08433644
0.08606131
0.08890185
0
0
0
0.08095625
0.08098747
0.08166686
0.08312025
0.08552953
0
0
0
0
0.07865192
0.07860789
0.07915731
0.08040001
0.08247862
0
0
0
0
0
0.07650163
0.07640326
0.0768518
0.0779322
0.07975749
0
0
0
0
0
0
0.0745237
0.07438789
0.07476043
0.0757138
0.07734385
0
0
0
0
0
0
0
0.07271378
0.07255193
0.07286787
0.073723
0.075199
0
0
0
0
0
0
0
0
0.07105199
0.0708737
0.07114673
0.07192581
0.07328029
0
0
0
0
0
0
0
0
0
0.06950671
0.06931993
0.06956137
0.07028016
0.07153805
0
0
0
0
0
0
0
0
0
0
0.06803276
0.06784352
0.06806251
0.06873358
0.0699121
0
0
0
0
0
0
0
0
0
0
0
0.0665691
0.06638319
0.06658633
0.06721914
0.06833097
0
0
0
0
0
0
0
0
0
0
0
0
0.06506169
0.06488345
0.06507588
0.06567624
0.06672975
0
0
0
0
0
0
0
0
0
0
0.0635368
0.06336851
0.06355397
0.06412742
0.0651298
0
0
0
0
0
0
0
0
0
0
0.06205472
0.06189691
0.06207817
0.0626293
0.06358839
0
0
0
0
0
0
0
0
0
0
0.06065696
0.06050936
0.06068798
0.06122111
0.06214328
0
0
0
0
0
0
0
0
0
0
0.05936019
0.05922468
0.05940127
0.05991928
0.06081047
0
0
0
0
0
0
0
0
0
0
0.09428283
0.09537891
0.09776774
0.1012334
0.09083913
0.09151445
0.09326817
0.09642688
0.1008884
0.08795775
0.0883679
0.08967806
0.09216098
0.09621264
0
0.08545472
0.08568784
0.08670802
0.0887094
0.09201133
0
0
0.08316497
0.08327616
0.08409262
0.08576713
0.08852671
0
0
0
0.08094321
0.08096582
0.08163088
0.08306139
0.08543482
0
0
0
0
0.07872685
0.07867936
0.07922336
0.08045758
0.08252299
0
0
0
0
0
0.076585
0.0764853
0.07693222
0.0780102
0.07983166
0
0
0
0
0
0
0.07457294
0.07443693
0.07480911
0.07576212
0.07739156
0
0
0
0
0
0
0
0.07271378
0.07255193
0.07286787
0.073723
0.075199
0
0
0
0
0
0
0
0
0.07100496
0.07082639
0.07109907
0.07187778
0.073232
0
0
0
0
0
0
0
0
0
0.06942927
0.06924156
0.06948198
0.07019975
0.07145676
0
0
0
0
0
0
0
0
0
0
0.06795836
0.06776732
0.06798454
0.0686541
0.06983157
0
0
0
0
0
0
0
0
0
0
0
0.06654879
0.06636043
0.06656123
0.06719269
0.06830449
0
0
0
0
0
0
0
0
0
0
0
0
0.0651437
0.06496213
0.06515252
0.06575286
0.06680903
0
0
0
0
0
0
0
0
0
0
0
0
0
0.06369147
0.06351979
0.06370386
0.06427807
0.06528444
0
0
0
0
0
0
0
0
0
0
0.06221849
0.06205773
0.06223802
0.06279019
0.06375282
0
0
0
0
0
0
0
0
0
0
0.06078361
0.0606341
0.06081202
0.06134593
0.06227065
0
0
0
0
0
0
0
0
0
0
0.05942536
0.05928935
0.0594658
0.05998436
0.060877
0
0
0
0
0
0
0
0
0
0
0.05816375
0.05803997
0.05821808
0.05872327
0.05958827
0
0
0
0
0
0
0
0
0
0
0.09066647
0.09132666
0.09305363
0.09616098
0.1004965
0.0876757
0.08806686
0.08934444
0.09177034
0.09571246
0
0.08512263
0.08533667
0.08632359
0.08827014
0.09147785
0
0
0.08286738
0.08296223
0.08374934
0.08537569
0.08805759
0
0
0
0.08077598
0.08078677
0.08143081
0.08282666
0.08514493
0
0
0
0
0.078725
0.07867237
0.07920713
0.08042614
0.08246725
0
0
0
0
0
0.07666255
0.07656085
0.07700459
0.0780774
0.07989051
0
0
0
0
0
0
0.07465558
0.07451914
0.07489045
0.07584232
0.07746983
0
0
0
0
0
0
0
0.072762
0.07260023
0.07291625
0.07377133
0.07524729
0
0
0
0
0
0
0
0
0.07100496
0.07082639
0.07109907
0.07187778
0.073232
0
0
0
0
0
0
0
0
0
0.06938354
0.06919541
0.06943529
0.07015244
0.07140879
0
0
0
0
0
0
0
0
0
0
0.06788297
0.06769096
0.0679069
0.06857505
0.06975107
0
0
0
0
0
0
0
0
0
0
0
0.066476
0.06628605
0.06648487
0.06711436
0.06822444
0
0
0
0
0
0
0
0
0
0
0
0
0.06512378
0.064939
0.06512737
0.06572584
0.06678118
0
0
0
0
0
0
0
0
0
0
0
0
0
0.06377092
0.06359507
0.06377728
0.06435102
0.06535909
0
0
0
0
0
0
0
0
0
0
0
0
0
0
0.06236884
0.06220394
0.06238284
0.06293575
0.06390147
0
0
0
0
0
0
0
0
0
0
0.06094261
0.06079015
0.06096696
0.06150187
0.06242977
0
0
0
0
0
0
0
0
0
0
0.05954804
0.05941044
0.05958631
0.06010559
0.06100054
0
0
0
0
0
0
0
0
0
0
0.05822711
0.05810233
0.05828061
0.05878639
0.0596527
0
0
0
0
0
0
0
0
0
0
0.05699925
0.05688557
0.05706618
0.05756286
0.058404
0
0
0
0
0
0
0
0
0
0
0.08752253
0.08790379
0.08916459
0.09156146
0.0954484
0
0.08486881
0.08507057
0.08603555
0.0879457
0.09109073
0
0
0.08256659
0.0826493
0.08341365
0.08500211
0.08762279
0
0
0
0.08050739
0.08050773
0.08113182
0.08249388
0.08475803
0
0
0
0
0.07857823
0.07851844
0.079039
0.08023403
0.08223651
0
0
0
0
0
0.07666868
0.07656428
0.0770023
0.07806509
0.07986185
0
0
0
0
0
0
0.07473436
0.07459709
0.07496667
0.07591561
0.07753815
0
0
0
0
0
0
0
0.07284327
0.07268171
0.07299773
0.0738524
0.0753277
0
0
0
0
0
0
0
0
0.07105199
0.0708737
0.07114673
0.07192581
0.07328029
0
0
0
0
0
0
0
0
0
0.06938354
0.06919541
0.06943529
0.07015244
0.07140879
0
0
0
0
0
0
0
0
0
0
0.06783847
0.06764607
0.06786135
0.06852871
0.06970383
0
0
0
0
0
0
0
0
0
0
0
0.06640268
0.0662117
0.06640921
0.06703706
0.06814533
0
0
0
0
0
0
0
0
0
0
0
0
0.06505337
0.06486625
0.06505286
0.06564916
0.06670233
0
0
0
0
0
0
0
0
0
0
0
0
0
0.06375194
0.06357249
0.06375191
0.06432408
0.06533077
0
0
0
0
0
0
0
0
0
0
0
0
0
0
0.06244619
0.06227701
0.06245314
0.06300569
0.06397257
0
0
0
0
0
0
0
0
0
0
0
0
0
0
0
0.06108832
0.06093244
0.06110702
0.06164259
0.06257343
0
0
0
0
0
0
0
0
0
0
0.05970232
0.05956206
0.05973676
0.06025681
0.0611548
0
0
0
0
0
0
0
0
0
0
0.05834683
0.05821968
0.05839766
0.05890421
0.05977271
0
0
0
0
0
0
0
0
0
0
0.05706099
0.05694624
0.0571265
0.05762403
0.05846649
0
0
0
0
0
0
0
0
0
0
0.0558681
0.05576089
0.05594284
0.05643251
0.05725468
0
0
0
0
0
0
0
0
0
0
0.08473057
0.08492577
0.0858793
0.08777067
0.09088376
0
0
0.0823347
0.08240964
0.08315894
0.08472205
0.08730171
0
0
0
0.0802315
0.08022411
0.08083262
0.08216775
0.0843886
0
0
0
0
0.07833259
0.07826655
0.07877329
0.07994435
0.08190792
0
0
0
0
0
0.07653773
0.07642949
0.07685812
0.07790404
0.07967343
0
0
0
0
0
0
0.07474661
0.07460791
0.07497423
0.07591674
0.07752831
0
0
0
0
0
0
0
0.0729219
0.07276073
0.07307618
0.07392936
0.07540195
0
0
0
0
0
0
0
0
0.07113148
0.07095383
0.07122747
0.07200699
0.07336152
0
0
0
0
0
0
0
0
0
0.06942927
0.06924156
0.06948198
0.07019975
0.07145676
0
0
0
0
0
0
0
0
0
0
0.06783847
0.06764607
0.06786135
0.06852871
0.06970383
0
0
0
0
0
0
0
0
0
0
0
0.06635951
0.066168
0.0663649
0.06699184
0.06809905
0
0
0
0
0
0
0
0
0
0
0
0
0.0649825
0.06479394
0.0649792
0.06557384
0.06662499
0
0
0
0
0
0
0
0
0
0
0
0
0
0.063684
0.06350213
0.06367906
0.06424929
0.06525361
0
0
0
0
0
0
0
0
0
0
0
0
0
0
0.06242789
0.0622555
0.06242845
0.06297864
0.06394441
0
0
0
0
0
0
0
0
0
0
0
0
0
0
0
0.06116334
0.0610037
0.06117536
0.06170959
0.06264162
0
0
0
0
0
0
0
0
0
0
0
0
0
0
0
0
0.05984426
0.05970006
0.05987318
0.06039297
0.06129371
0
0
0
0
0
0
0
0
0
0
0.05849759
0.0583669
0.05854392
0.0590511
0.05992233
0
0
0
0
0
0
0
0
0
0
0.05717804
0.05706085
0.05723998
0.05773851
0.05858314
0
0
0
0
0
0
0
0
0
0
0.05592831
0.05582004
0.05600155
0.05649152
0.05731526
0
0
0
0
0
0
0
0
0
0
0.05476592
0.05466746
0.05484757
0.05532957
0.05613485
0
0
0
0
0
0
0
0
0
0
0.08220818
0.08227885
0.08302014
0.08457001
0.08712848
0
0
0
0.08001727
0.08000497
0.08060311
0.08192009
0.08411166
0
0
0
0
0.07807682
0.07800624
0.07850201
0.07965368
0.0815856
0
0
0
0
0
0.07631053
0.07619905
0.07661826
0.07764669
0.07938758
0
0
0
0
0
0
0.07462871
0.07448785
0.07484824
0.07577893
0.07737063
0
0
0
0
0
0
0
0.0729378
0.07277719
0.07309067
0.07393995
0.0754053
0
0
0
0
0
0
0
0
0.07120916
0.07103261
0.07130686
0.07208604
0.07343931
0
0
0
0
0
0
0
0
0
0.06950671
0.06931993
0.06956137
0.07028016
0.07153805
0
0
0
0
0
0
0
0
0
0
0.06788297
0.06769096
0.0679069
0.06857505
0.06975107
0
0
0
0
0
0
0
0
0
0
0
0.06635951
0.066168
0.0663649
0.06699184
0.06809905
0
0
0
0
0
0
0
0
0
0
0
0
0.06494077
0.06475154
0.06493605
0.06552985
0.06657984
0
0
0
0
0
0
0
0
0
0
0
0
0
0.06361552
0.06343222
0.06360741
0.06417596
0.06517826
0
0
0
0
0
0
0
0
0
0
0
0
0
0
0.06236217
0.06218762
0.062358
0.06290554
0.06386918
0
0
0
0
0
0
0
0
0
0
0
0
0
0
0
0.06114596
0.060983
0.06115185
0.06168332
0.06261343
0
0
0
0
0
0
0
0
0
0
0
0
0
0
0
0
0.05991797
0.05976928
0.05993993
0.06045817
0.06135906
0
0
0
0
0
0
0
0
0
0
0
0
0
0
0
0
0
0.05863667
0.05850146
0.05867631
0.0591838
0.06005677
0
0
0
0
0
0
0
0
0
0
0.05732565
0.05720482
0.05738206
0.05788137
0.0587285
0
0
0
0
0
0
0
0
0
0
0.05604284
0.05593217
0.05611243
0.05660254
0.05742862
0
0
0
0
0
0
0
0
0
0
0.05482466
0.05472517
0.05490484
0.05538703
0.0561933
0
0
0
0
0
0
0
0
0
0
0.05369026
0.05360107
0.05378203
0.05425366
0.0550419
0
0
0
0
0
0
0
0
0
0
0.0799003
0.07988516
0.08047767
0.08178502
0.08396128
0
0
0
0
0.07787702
0.0778036
0.07829203
0.0794305
0.08134081
0
0
0
0
0
0.07607128
0.07595752
0.07636916
0.07738312
0.0791004
0
0
0
0
0
0
0.07441675
0.0742746
0.07462877
0.07554665
0.07711679
0
0
0
0
0
0
0
0.07282976
0.07266926
0.07297863
0.07381974
0.07527056
0
0
0
0
0
0
0
0
0.07122727
0.07105232
0.07132662
0.07210325
0.0734519
0
0
0
0
0
0
0
0
0
0.06958289
0.06939769
0.06964042
0.07036004
0.07161783
0
0
0
0
0
0
0
0
0
0
0.06795836
0.06776732
0.06798454
0.0686541
0.06983157
0
0
0
0
0
0
0
0
0
0
0
0.06640268
0.0662117
0.06640921
0.06703706
0.06814533
0
0
0
0
0
0
0
0
0
0
0
0
0.06494077
0.06475154
0.06493605
0.06552985
0.06657984
0
0
0
0
0
0
0
0
0
0
0
0
0
0.06357518
0.06339123
0.06356554
0.06413312
0.06513434
0
0
0
0
0
0
0
0
0
0
0
0
0
0
0.06229595
0.06212005
0.06228873
0.06283421
0.06379582
0
0
0
0
0
0
0
0
0
0
0
0
0
0
0
0.06108254
0.06091733
0.06108389
0.06161264
0.06253992
0
0
0
0
0
0
0
0
0
0
0
0
0
0
0
0
0.0599021
0.0597496
0.05991733
0.06043316
0.06133171
0
0
0
0
0
0
0
0
0
0
0
0
0
0
0
0
0
0.05870972
0.0585696
0.05874122
0.05924756
0.0601204
0
0
0
0
0
0
0
0
0
0
0
0
0
0
0
0
0
0
0.05746228
0.05733682
0.05751125
0.0580102
0.05885956
0
0
0
0
0
0
0
0
0
0
0.05618748
0.05607325
0.05625147
0.05674137
0.05757002
0
0
0
0
0
0
0
0
0
0
0.05493678
0.05483496
0.05501339
0.05549556
0.05630325
0
0
0
0
0
0
0
0
0
0
0.05374766
0.05365741
0.05383793
0.05430972
0.05509882
0
0
0
0
0
0
0
0
0
0
0.05263908
0.05255941
0.05274212
0.05320647
0.05397547
0
0
0
0
0
0
0
0
0
0
0.07776793
0.07769274
0.07817707
0.07930841
0.08120725
0
0
0
0
0
0.07588348
0.07576836
0.07617488
0.07717888
0.07887985
0
0
0
0
0
0
0.07419129
0.07404848
0.07439752
0.07530457
0.07685643
0
0
0
0
0
0
0
0.07263089
0.0724702
0.07277546
0.07360719
0.07504152
0
0
0
0
0
0
0
0
0.07112679
0.07095351
0.07122606
0.07199649
0.07333451
0
0
0
0
0
0
0
0
0
0.06960219
0.0694193
0.06966314
0.07038227
0.07163686
0
0
0
0
0
0
0
0
0
0
0.06803276
0.06784352
0.06806251
0.06873358
0.0699121
0
0
0
0
0
0
0
0
0
0
0
0.066476
0.06628605
0.06648487
0.06711436
0.06822444
0
0
0
0
0
0
0
0
0
0
0
0
0.0649825
0.06479394
0.0649792
0.06557384
0.06662499
0
0
0
0
0
0
0
0
0
0
0
0
0
0.06357518
0.06339123
0.06356554
0.06413312
0.06513434
0
0
0
0
0
0
0
0
0
0
0
0
0
0
0.06225695
0.06208041
0.06224824
0.06279264
0.06375306
0
0
0
0
0
0
0
0
0
0
0
0
0
0
0
0.06101856
0.06085198
0.06101693
0.06154368
0.06246858
0
0
0
0
0
0
0
0
0
0
0
0
0
0
0
0
0.05984144
0.05968623
0.05985159
0.06036499
0.06126065
0
0
0
0
0
0
0
0
0
0
0
0
0
0
0
0
0
0.0586957
0.05855153
0.05871972
0.05922353
0.06009437
0
0
0
0
0
0
0
0
0
0
0
0
0
0
0
0
0
0
0.057535
0.05740451
0.05757525
0.05807226
0.05892183
0
0
0
0
0
0
0
0
0
0
0
0
0
0
0
0
0
0
0
0.05632184
0.05620307
0.05637831
0.05686714
0.05769728
0
0
0
0
0
0
0
0
0
0
0.05507861
0.05497332
0.05514973
0.05563147
0.05644067
0
0
0
0
0
0
0
0
0
0
0.05385758
0.05376496
0.05394427
0.054416
0.05520632
0
0
0
0
0
0
0
0
0
0
0.05269525
0.05261449
0.0527967
0.0532612
0.05403101
0
0
0
0
0
0
0
0
0
0
0.05161506
0.05154058
0.05172562
0.05218398
0.05293728
0
0
0
0
0
0
0
0
0
0
0.07578101
0.07566488
0.07606843
0.07706694
0.07875914
0
0
0
0
0
0
0.07401359
0.07387051
0.07421603
0.07511553
0.07665459
0
0
0
0
0
0
0
0.07241741
0.07225692
0.07255883
0.07338239
0.0748024
0
0
0
0
0
0
0
0
0.07093833
0.07076661
0.07103632
0.07179969
0.07312495
0
0
0
0
0
0
0
0
0
0.06950771
0.06932739
0.06957114
0.07028656
0.0715327
0
0
0
0
0
0
0
0
0
0
0.0680525
0.06786606
0.06808688
0.06875855
0.06993598
0
0
0
0
0
0
0
0
0
0
0
0.06654879
0.06636043
0.06656123
0.06719269
0.06830449
0
0
0
0
0
0
0
0
0
0
0
0
0.06505337
0.06486625
0.06505286
0.06564916
0.06670233
0
0
0
0
0
0
0
0
0
0
0
0
0
0.06361552
0.06343222
0.06360741
0.06417596
0.06517826
0
0
0
0
0
0
0
0
0
0
0
0
0
0
0.06225695
0.06208041
0.06224824
0.06279264
0.06375306
0
0
0
0
0
0
0
0
0
0
0
0
0
0
0
0.06098087
0.06081365
0.06097777
0.06150348
0.06242708
0
0
0
0
0
0
0
0
0
0
0
0
0
0
0
0
0.05977995
0.05962308
0.05978682
0.06029833
0.06119168
0
0
0
0
0
0
0
0
0
0
0
0
0
0
0
0
0
0.05863788
0.0584909
0.05865628
0.05915759
0.06002583
0
0
0
0
0
0
0
0
0
0
0
0
0
0
0
0
0
0
0.05752299
0.05738837
0.05755544
0.0580494
0.05889684
0
0
0
0
0
0
0
0
0
0
0
0
0
0
0
0
0
0
0
0.05639431
0.05627062
0.05644203
0.05692842
0.05775792
0
0
0
0
0
0
0
0
0
0
0
0
0
0
0
0
0
0
0
0
0.05521084
0.0551011
0.05527457
0.05575502
0.05656495
0
0
0
0
0
0
0
0
0
0
0.05399687
0.05390072
0.05407805
0.05454933
0.05534088
0
0
0
0
0
0
0
0
0
0
0.05280319
0.05272
0.05290092
0.05336536
0.0541363
0
0
0
0
0
0
0
0
0
0
0.05167006
0.0515945
0.051779
0.05223745
0.05299151
0
0
0
0
0
0
0
0
0
0
0.05061616
0.0505473
0.05073073
0.05118406
0.05192336
0
0
0
0
0
0
0
0
0
0
0.07391674
0.07377323
0.0741166
0.07501186
0.07654394
0
0
0
0
0
0
0
0.07224843
0.07208835
0.07238796
0.07320573
0.07461558
0
0
0
0
0
0
0
0
0.07073524
0.07056449
0.07083185
0.07158903
0.07290289
0
0
0
0
0
0
0
0
0
0.06932798
0.06915012
0.06939291
0.07010273
0.07133867
0
0
0
0
0
0
0
0
0
0
0.06796276
0.06777959
0.06800131
0.06867103
0.06984268
0
0
0
0
0
0
0
0
0
0
0.0665691
0.06638319
0.06658633
0.06721914
0.06833097
0
0
0
0
0
0
0
0
0
0
0
0
0.06512378
0.064939
0.06512737
0.06572584
0.06678118
0
0
0
0
0
0
0
0
0
0
0
0
0
0.063684
0.06350213
0.06367906
0.06424929
0.06525361
0
0
0
0
0
0
0
0
0
0
0
0
0
0
0.06229595
0.06212005
0.06228873
0.06283421
0.06379582
0
0
0
0
0
0
0
0
0
0
0
0
0
0
0
0.06098087
0.06081365
0.06097777
0.06150348
0.06242708
0
0
0
0
0
0
0
0
0
0
0
0
0
0
0
0
0.05974367
0.05958602
0.05974895
0.06025944
0.06115154
0
0
0
0
0
0
0
0
0
0
0
0
0
0
0
0
0
0.0585789
0.0584302
0.05859369
0.05909311
0.05995917
0
0
0
0
0
0
0
0
0
0
0
0
0
0
0
0
0
0
0.05746803
0.05733057
0.05749474
0.05798577
0.05883055
0
0
0
0
0
0
0
0
0
0
0
0
0
0
0
0
0
0
0
0.05638426
0.05625655
0.05642421
0.0569073
0.05773414
0
0
0
0
0
0
0
0
0
0
0
0
0
0
0
0
0
0
0
0
0.05528317
0.0551686
0.0553383
0.05581612
0.05662486
0
0
0
0
0
0
0
0
0
0
0
0
0
0
0
0
0
0
0
0
0.05412727
0.0540266
0.05420104
0.05467101
0.05546298
0
0
0
0
0
0
0
0
0
0
0.05294024
0.05285343
0.05303227
0.05349623
0.05426832
0
0
0
0
0
0
0
0
0
0
0.05177612
0.05169817
0.0518813
0.05233955
0.05309471
0
0
0
0
0
0
0
0
0
0
0.05067004
0.05060013
0.05078301
0.05123636
0.05197633
0
0
0
0
0
0
0
0
0
0
0.04964107
0.04957766
0.04976022
0.05020494
0.05093158
0
0
0
0
0
0
0
0
0
0
0.07215644
0.07199633
0.07229443
0.07310887
0.07451309
0
0
0
0
0
0
0
0
0.07057422
0.07040404
0.07066989
0.07142264
0.07272829
0
0
0
0
0
0
0
0
0
0.06913353
0.06895767
0.06919902
0.06990381
0.07113055
0
0
0
0
0
0
0
0
0
0
0.06779044
0.06761037
0.06783216
0.06849831
0.06966142
0
0
0
0
0
0
0
0
0
0
0.06648331
0.06630098
0.06650579
0.06713775
0.06824571
0
0
0
0
0
0
0
0
0
0
0.0651437
0.06496213
0.06515252
0.06575286
0.06680903
0
0
0
0
0
0
0
0
0
0
0
0
0
0.06375194
0.06357249
0.06375191
0.06432408
0.06533077
0
0
0
0
0
0
0
0
0
0
0
0
0
0
0.06236217
0.06218762
0.062358
0.06290554
0.06386918
0
0
0
0
0
0
0
0
0
0
0
0
0
0
0
0.06101856
0.06085198
0.06101693
0.06154368
0.06246858
0
0
0
0
0
0
0
0
0
0
0
0
0
0
0
0
0.05974367
0.05958602
0.05974895
0.06025944
0.06115154
0
0
0
0
0
0
0
0
0
0
0
0
0
0
0
0
0
0.05854403
0.05839453
0.05855707
0.05905549
0.05992034
0
0
0
0
0
0
0
0
0
0
0
0
0
0
0
0
0
0
0.05741154
0.05727233
0.05743456
0.05792344
0.05876606
0
0
0
0
0
0
0
0
0
0
0
0
0
0
0
0
0
0
0
0.05633209
0.05620161
0.05636633
0.05684641
0.05767018
0
0
0
0
0
0
0
0
0
0
0
0
0
0
0
0
0
0
0
0
0.05527506
0.05515655
0.05532261
0.05579704
0.05660286
0
0
0
0
0
0
0
0
0
0
0
0
0
0
0
0
0
0
0
0
0.05419964
0.05409411
0.05426485
0.05473221
0.05552278
0
0
0
0
0
0
0
0
0
0
0
0
0
0
0
0
0
0
0
0
0.05306911
0.05297768
0.05315353
0.05361617
0.05438862
0
0
0
0
0
0
0
0
0
0
0.05191104
0.05182953
0.05201045
0.0524681
0.05322433
0
0
0
0
0
0
0
0
0
0
0.05077428
0.05070205
0.05088357
0.05133661
0.05207752
0
0
0
0
0
0
0
0
0
0
0.04969395
0.04962943
0.04981145
0.05025618
0.05098341
0
0
0
0
0
0
0
0
0
0
0.04868927
0.04863043
0.04881226
0.04924943
0.04996023
0
0
0
0
0
0
0
0
0
0
0.07048667
0.07031656
0.07058136
0.07133148
0.07263252
0
0
0
0
0
0
0
0
0
0.06897918
0.06880464
0.06904474
0.06974602
0.07096608
0
0
0
0
0
0
0
0
0
0
0.06760351
0.06742593
0.06764741
0.0683096
0.06946487
0
0
0
0
0
0
0
0
0
0
0.06631724
0.06613857
0.06634419
0.06697375
0.06807538
0
0
0
0
0
0
0
0
0
0
0.0650617
0.06488345
0.06507588
0.06567624
0.06672975
0
0
0
0
0
0
0
0
0
0
0.06377092
0.06359507
0.06377728
0.06435102
0.06535909
0
0
0
0
0
0
0
0
0
0
0
0
0
0
0.0624279
0.0622555
0.06242845
0.06297864
0.06394441
0
0
0
0
0
0
0
0
0
0
0
0
0
0
0
0.06108254
0.06091733
0.06108389
0.06161264
0.06253992
0
0
0
0
0
0
0
0
0
0
0
0
0
0
0
0
0.05977995
0.05962308
0.05978682
0.06029832
0.06119168
0
0
0
0
0
0
0
0
0
0
0
0
0
0
0
0
0
0.05854403
0.05839453
0.05855707
0.0590555
0.05992034
0
0
0
0
0
0
0
0
0
0
0
0
0
0
0
0
0
0
0.05737807
0.05723804
0.0573993
0.05788707
0.05872851
0
0
0
0
0
0
0
0
0
0
0
0
0
0
0
0
0
0
0
0.056278
0.05614583
0.05630859
0.05678649
0.05760785
0
0
0
0
0
0
0
0
0
0
0
0
0
0
0
0
0
0
0
0
0.05522559
0.05510437
0.05526758
0.05573897
0.05654166
0
0
0
0
0
0
0
0
0