/*--------------------------------*- C++ -*----------------------------------*\
| =========                 |                                                 |
| \\      /  F ield         | OpenFOAM: The Open Source CFD Toolbox           |
|  \\    /   O peration     | Version:  2306                                  |
|   \\  /    A nd           | Website:  www.openfoam.com                      |
|    \\/     M anipulation  |                                                 |
\*---------------------------------------------------------------------------*/
FoamFile
{
    version     2.0;
    format      ascii;
    arch        "LSB;label=32;scalar=64";
    class       volScalarField;
    location    "0.3/fuel";
    object      H2;
}
// * * * * * * * * * * * * * * * * * * * * * * * * * * * * * * * * * * * * * //

dimensions      [0 0 0 0 0 0 0];

internalField   nonuniform List<scalar> 
16000
(
0.5657779
0.5708095
0.4990107
0.5660684
0.5810592
0.5021998
0.5711065
0.4387205
0.4992246
0.5666359
0.5966747
0.5086483
0.58137
0.4410222
0.5024171
0.5716867
0.3907902
0.4388785
0.4996431
0.5674718
0.6171516
0.5183592
0.5970083
0.4456628
0.5088726
0.5819771
0.3925591
0.4411821
0.5028421
0.5725411
0.3524346
0.3909112
0.4391877
0.5002599
0.5685718
0.639551
0.5309073
0.6175198
0.4526219
0.5185947
0.5976598
0.3961174
0.4458269
0.5093111
0.582871
0.3538428
0.3926813
0.4414952
0.5034684
0.5736655
0.3211255
0.3525303
0.3911483
0.4396439
0.5010719
0.5696625
0.6569072
0.544439
0.6399642
0.4615631
0.5311595
0.6182389
0.4014354
0.4527926
0.5190553
0.5986191
0.3566704
0.3962424
0.4461481
0.5099575
0.5840473
0.322275
0.3539394
0.392921
0.4419571
0.504293
0.5747804
0.2950843
0.3212031
0.352718
0.3914983
0.4402446
0.5018769
0.5705671
0.668228
0.5548882
0.6573486
0.471142
0.5447124
0.6407714
0.4082375
0.4617438
0.5316528
0.6192979
0.3608854
0.4015648
0.4531269
0.519734
0.5998815
0.3245801
0.3567689
0.3964873
0.4466219
0.5108083
0.5852137
0.2960414
0.3223534
0.3541289
0.3932747
0.4425653
0.5051105
0.5757052
0.2730754
0.2951486
0.3213556
0.3529953
0.3919593
0.4408403
0.5025443
0.5714671
0.6747859
0.5617391
0.6686847
0.4784966
0.5551735
0.6582106
0.4154875
0.4713354
0.5452475
0.6419606
0.3662577
0.4083734
0.4620976
0.5323799
0.6206918
0.328009
0.3609869
0.4018184
0.45362
0.5206275
0.6011333
0.2979584
0.3246598
0.3569621
0.3968489
0.4472458
0.5116519
0.5861817
0.2738852
0.2961062
0.3225071
0.3544088
0.3937407
0.4431684
0.5057882
0.5766253
0.2542214
0.2731296
0.295275
0.3215809
0.3533607
0.3924166
0.4413338
0.503208
0.5723625
0.6777679
0.5657449
0.6752507
0.4833037
0.5620302
0.6695765
0.4210299
0.4786965
0.5557317
0.6594804
0.3719614
0.4156319
0.4717143
0.5460364
0.643527
0.3323675
0.3663639
0.40864
0.4626196
0.5333373
0.6220745
0.3008053
0.3280909
0.3611861
0.4021926
0.4542693
0.5215134
0.6021741
0.2755056
0.2980243
0.3248162
0.3572474
0.3973251
0.4478644
0.5123515
0.5871453
0.2549157
0.2739398
0.2962336
0.3227343
0.3547776
0.3942028
0.4436681
0.5064622
0.5775407
0.2378827
0.2542677
0.2732361
0.2954618
0.3218779
0.3537231
0.3927953
0.4418244
0.5038679
0.5732531
0.6777679
0.5675813
0.6782364
0.4861113
0.5660389
0.6761582
0.424643
0.4835064
0.5625997
0.6708897
0.3763076
0.4211783
0.4790881
0.5565548
0.6611529
0.3369807
0.3720737
0.4159152
0.4722736
0.5470756
0.6450819
0.3044162
0.3324528
0.3665723
0.4090334
0.4633072
0.5342867
0.6232302
0.2779087
0.3008729
0.3282517
0.3614803
0.4026855
0.4549131
0.5222493
0.6032122
0.256304
0.2755609
0.2981536
0.3250474
0.3576234
0.3977974
0.4483772
0.5130475
0.5881044
0.2384849
0.2549623
0.2740471
0.2964219
0.3230338
0.3551434
0.3945856
0.4441649
0.5071324
0.5784513
0.2235833
0.2379227
0.2543587
0.2733937
0.2957082
0.3221725
0.3540231
0.3931716
0.442312
0.504524
0.5775622
0.6747859
0.5675813
0.6782364
0.4873984
0.5678766
0.6791507
0.4267508
0.4863152
0.5666138
0.6774943
0.3791354
0.4247929
0.4839033
0.5634392
0.6726192
0.3404869
0.3764224
0.4214693
0.4796659
0.5576389
0.6628132
0.3082288
0.3370706
0.372294
0.4163336
0.4730104
0.5481068
0.6463937
0.2809513
0.3044864
0.3326205
0.36688
0.4095517
0.463989
0.5350787
0.6243889
0.2583607
0.2779654
0.3010056
0.3284894
0.361868
0.4031744
0.4554475
0.5229825
0.6042474
0.239688
0.2563513
0.2756698
0.2983449
0.3253521
0.3579963
0.3981888
0.4488871
0.51374
0.5890591
0.2241106
0.2385251
0.255054
0.2742057
0.2966702
0.3233309
0.3554463
0.394966
0.4446587
0.5077988
0.5828576
0.2109612
0.2236183
0.2380015
0.2544935
0.2736015
0.2959527
0.3224165
0.3543213
0.3935456
0.4427966
0.5076972
0.5805287
0.668228
0.5657449
0.6752507
0.4873984
0.5678766
0.6791507
0.4277166
0.4876028
0.5684539
0.6804968
0.3807835
0.4269013
0.4867146
0.5674614
0.6792537
0.3427647
0.3792511
0.4250869
0.484489
0.5645448
0.674336
0.3111205
0.3405786
0.3766479
0.4218991
0.4804273
0.5587146
0.6642145
0.2841575
0.3083025
0.3372472
0.3726196
0.416885
0.4737415
0.5489739
0.6477212
0.2609608
0.2810101
0.3046243
0.3328682
0.3672857
0.4100658
0.4645575
0.5358714
0.6255507
0.2414687
0.258409
0.2780769
0.3012018
0.3288027
0.3622524
0.4035801
0.4559799
0.523713
0.6052798
0.2251636
0.2397288
0.2564442
0.2758308
0.2985971
0.3256544
0.3583052
0.3985779
0.4493943
0.5144288
0.5936808
0.2114268
0.2241458
0.2386043
0.2551896
0.274415
0.2969165
0.3235769
0.3557473
0.3953441
0.4451495
0.5110219
0.5859046
0.1997359
0.210992
0.2236871
0.238118
0.2546712
0.2738078
0.2961551
0.3226588
0.3546175
0.3939171
0.4451395
0.509874
0.5827776
0.6569072
0.5617391
0.6686847
0.4861113
0.5660389
0.6761582
0.4277166
0.4876028
0.5684539
0.6804968
0.3815384
0.4278673
0.4880031
0.5693049
0.6822693
0.3440911
0.3808995
0.4271963
0.4873038
0.5685775
0.681
0.3129968
0.3428569
0.3794782
0.4255208
0.4852606
0.5656417
0.6757822
0.2865853
0.3111955
0.3407587
0.376981
0.4224655
0.4811826
0.5596196
0.6656331
0.2636962
0.2842191
0.3084473
0.3375082
0.3730489
0.4174321
0.4743559
0.5498488
0.6490648
0.2437172
0.2610107
0.2811256
0.3048282
0.3331948
0.367688
0.4104944
0.4651262
0.5366647
0.6267154
0.2267208
0.2415104
0.2585039
0.2782417
0.3014605
0.3291134
0.3625715
0.4039841
0.45651
0.5244407
0.6102867
0.2123563
0.2251992
0.239809
0.2565816
0.2760431
0.2988473
0.3259048
0.3586123
0.3989647
0.4498985
0.5177614
0.5969299
0.2001502
0.2114578
0.224215
0.2387216
0.2553685
0.2746227
0.2971204
0.3238213
0.3560463
0.3957197
0.4475223
0.5132408
0.5882256
0.1896867
0.1997632
0.2110526
0.2237889
0.2382718
0.2548476
0.2739785
0.2963561
0.3228994
0.3549117
0.3957128
0.4467426
0.5115209
0.5842893
0.639551
0.5548882
0.6573486
0.4833037
0.5620302
0.6695765
0.4267508
0.4863152
0.5666138
0.6774943
0.3815384
0.4278673
0.4880031
0.5693049
0.6822693
0.3446985
0.3816545
0.4281627
0.4885937
0.5704256
0.6840286
0.3140887
0.3441834
0.3811271
0.4276319
0.4880799
0.5696848
0.682469
0.2881588
0.313072
0.3430379
0.3798136
0.4260927
0.4860261
0.5665629
0.6772435
0.2657644
0.2866478
0.3113429
0.341025
0.3774202
0.4230275
0.4818176
0.5605328
0.6670693
0.2460792
0.2637484
0.2843401
0.3086615
0.3378525
0.3734749
0.4178918
0.4749754
0.5507315
0.6504248
0.2286849
0.2437601
0.261109
0.2812965
0.3050971
0.3335188
0.3680233
0.4109229
0.465695
0.5374586
0.632395
0.2137298
0.2267571
0.2415923
0.2586444
0.2784591
0.3017171
0.3293713
0.3628891
0.4043863
0.4570379
0.5279675
0.6140008
0.2009766
0.2123875
0.2252692
0.2399278
0.2567629
0.2762538
0.2990546
0.3261536
0.3589175
0.3993492
0.4523373
0.5200864
0.5994509
0.1900576
0.2001776
0.2115187
0.2243174
0.2388763
0.255546
0.2747946
0.297323
0.3240641
0.3563434
0.3975352
0.4491514
0.5149259
0.5897926
0.1806375
0.1897111
0.199817
0.2111423
0.2239233
0.2384245
0.2549936
0.274148
0.2965557
0.3231385
0.3563334
0.3969392
0.4479539
0.5126261
0.585049
0.6171516
0.544439
0.6399642
0.4784966
0.5551735
0.6582106
0.424643
0.4835064
0.5625997
0.6708897
0.3807835
0.4269013
0.4867146
0.5674614
0.6792537
0.3446985
0.3816545
0.4281627
0.4885937
0.5704256
0.6840286
0.3145886
0.3447908
0.3818822
0.4285989
0.4893717
0.5715373
0.6855075
0.289074
0.314164
0.3443647
0.3814633
0.4282059
0.4888499
0.5706136
0.6839512
0.2671038
0.2882214
0.31322
0.3433055
0.3802559
0.42666
0.4866685
0.5674911
0.6787202
0.2478631
0.2658174
0.2867707
0.3115609
0.3413761
0.3778559
0.4234998
0.4824581
0.5614545
0.6685232
0.2307458
0.2461241
0.2638511
0.2845193
0.3089441
0.3381942
0.3738327
0.4183551
0.4756001
0.5516221
0.6571203
0.2154606
0.2287223
0.2438448
0.2612544
0.281522
0.3053639
0.3337887
0.3683586
0.4113514
0.4662639
0.5413232
0.6372438
0.2021972
0.2137616
0.2268285
0.2417135
0.2588298
0.2786748
0.30193
0.3296279
0.3632052
0.4047867
0.4595951
0.5305398
0.6170675
0.1907974
0.2010044
0.2124492
0.2253728
0.2400844
0.2569429
0.2764283
0.2992605
0.3264009
0.3592209
0.4012085
0.4540334
0.521879
0.6011841
0.1809715
0.1900822
0.2002317
0.2116089
0.2244526
0.2390299
0.255693
0.2749654
0.2975242
0.3243052
0.357779
0.3987793
0.4503868
0.5160609
0.5905828
0.1724459
0.1806594
0.1897592
0.1998968
0.2112608
0.2240568
0.2385509
0.2551386
0.2743164
0.2967539
0.3242933
0.3573031
0.3978651
0.448766
0.513181
0.5966747
0.5309073
0.6175198
0.471142
0.5447124
0.6407714
0.4210299
0.4786965
0.5557317
0.6594804
0.3791354
0.4247929
0.4839033
0.5634392
0.6726192
0.3440911
0.3808995
0.4271963
0.4873038
0.5685775
0.681
0.3145886
0.3447908
0.3818822
0.4285989
0.4893717
0.5715373
0.6855075
0.2894929
0.3146639
0.3449721
0.3822186
0.4291737
0.4901435
0.5724692
0.6869986
0.2678825
0.2891367
0.314312
0.3446326
0.3819064
0.4287753
0.4894952
0.5715481
0.6854467
0.2490174
0.2671568
0.2883447
0.3134387
0.3436584
0.3806946
0.4271361
0.4873155
0.5684263
0.6802122
0.2323007
0.2479086
0.2659216
0.2869527
0.3118485
0.3417246
0.3782221
0.4239761
0.4831041
0.5623846
0.6756823
0.2172748
0.2307848
0.2462124
0.2640032
0.2847556
0.3092247
0.3384812
0.3741933
0.4188222
0.47623
0.555994
0.6642704
0.2037342
0.2154934
0.228796
0.24397
0.2614462
0.2817457
0.3055862
0.3340586
0.3686938
0.4117799
0.4690322
0.5445061
0.6419531
0.1918894
0.2022255
0.2138244
0.2269342
0.2418735
0.2590138
0.2788537
0.3021419
0.3298833
0.3635199
0.4067257
0.4614528
0.5326304
0.6193206
0.1816375
0.1908222
0.201059
0.2125404
0.2255096
0.24024
0.2570919
0.2766017
0.2994652
0.3266466
0.3606873
0.4024991
0.4553388
0.5231045
0.6020703
0.1727483
0.1809936
0.1901305
0.2003118
0.2117281
0.2245868
0.2391571
0.255839
0.2751349
0.297724
0.3254702
0.3587614
0.3997219
0.4512181
0.5166322
0.1649957
0.1724657
0.1807027
0.1898305
0.200002
0.2113785
0.2241673
0.2386763
0.2552826
0.2744835
0.2977115
0.3250802
0.3580346
0.3984855
0.4491735
0.5810592
0.5183592
0.5970083
0.4615631
0.5311595
0.6182389
0.4154875
0.4713354
0.5452475
0.6419606
0.3763076
0.4211783
0.4790881
0.5565548
0.6611529
0.3427647
0.3792511
0.4250869
0.484489
0.5645448
0.674336
0.3140887
0.3441834
0.3811271
0.4276319
0.4880799
0.5696848
0.682469
0.2894929
0.3146639
0.3449721
0.3822186
0.4291737
0.4901435
0.5724692
0.6869986
0.2682388
0.2895555
0.3148118
0.3452401
0.3826621
0.4297439
0.49079
0.5734063
0.6885021
0.2496883
0.2679355
0.2892599
0.3145308
0.3449858
0.3823461
0.4292524
0.4901443
0.5724884
0.6869556
0.2333061
0.2490629
0.2672612
0.288527
0.3137273
0.3440086
0.3810627
0.4276153
0.4879669
0.5693684
0.6875452
0.2186424
0.2323401
0.247998
0.2660758
0.2871927
0.3121339
0.3420174
0.3785913
0.4244563
0.4837556
0.5669509
0.6832333
0.2053437
0.217309
0.2308616
0.2463432
0.2642039
0.2849903
0.3094602
0.3387704
0.3745568
0.4192931
0.4793202
0.5604096
0.6732675
0.1932633
0.2037632
0.2155581
0.228905
0.2441353
0.2616367
0.2819321
0.3058084
0.3343284
0.3690289
0.4138644
0.4712991
0.5474989
0.6461552
0.1826201
0.1919146
0.2022811
0.2139174
0.2270737
0.2420323
0.2591663
0.2790318
0.3023528
0.3301374
0.3650435
0.4081314
0.4629584
0.5341436
0.6205443
0.173351
0.1816598
0.190871
0.20114
0.2126609
0.2256454
0.2403688
0.2572399
0.2767739
0.2996685
0.3278344
0.3617038
0.4034914
0.45623
0.5237286
0.1652707
0.1727682
0.181037
0.1902021
0.2004176
0.2118464
0.2246979
0.2392833
0.2559839
0.2753033
0.2986893
0.3262666
0.3595052
0.4003557
0.4516363
0.1581911
0.1650137
0.1725048
0.1807668
0.1899246
0.2001066
0.2114759
0.2242769
0.2388009
0.2554255
0.275291
0.2983634
0.3256735
0.3585245
0.3987966
0.5708095
0.5086483
0.58137
0.4526219
0.5185947
0.5976598
0.4082375
0.4617438
0.5316528
0.6192979
0.3719614
0.4156319
0.4717143
0.5460364
0.643527
0.3404869
0.3764224
0.4214693
0.4796659
0.5576389
0.6628132
0.3129968
0.3428569
0.3794782
0.4255208
0.4852606
0.5656417
0.6757822
0.289074
0.314164
0.3443647
0.3814633
0.4282059
0.4888499
0.5706136
0.6839512
0.2682388
0.2895555
0.3148118
0.3452401
0.3826621
0.4297439
0.49079
0.5734063
0.6885021
0.2499952
0.2682917
0.2896787
0.3150306
0.3455934
0.3831021
0.4302214
0.4914397
0.5743486
0.690018
0.2338903
0.2497337
0.2680397
0.2894421
0.3148194
0.3453363
0.3827145
0.4297321
0.4907969
0.5734345
0.6943606
0.2195262
0.2333456
0.2491524
0.2674156
0.2887676
0.3140137
0.3443023
0.3814332
0.4280977
0.4886228
0.5739858
0.6949328
0.2065561
0.218677
0.2324178
0.2481305
0.2662794
0.2874311
0.3123737
0.3423125
0.3789635
0.4249405
0.4869523
0.5715174
0.6923892
0.194701
0.205374
0.2173764
0.2309753
0.2465159
0.2644033
0.2851873
0.3096976
0.3390618
0.3749232
0.4216027
0.4824205
0.5657327
0.6849352
0.1838557
0.1932892
0.2038205
0.2156539
0.229049
0.2442994
0.2617953
0.2821184
0.3060305
0.3345982
0.3706588
0.4155679
0.4734215
0.5500918
0.6490585
0.1742398
0.1826428
0.1919642
0.2023636
0.2140401
0.2272122
0.2421639
0.2593181
0.279209
0.3025626
0.331368
0.3661465
0.4092696
0.4640457
0.5349562
0.1658187
0.1733711
0.1817036
0.1909433
0.2012469
0.2127805
0.2257579
0.2404967
0.257387
0.2769451
0.3006511
0.3286569
0.3624849
0.4041683
0.4566835
0.1584422
0.1652888
0.1728074
0.1811014
0.1902967
0.2005227
0.2119443
0.2248082
0.2394087
0.2561278
0.2761168
0.2993486
0.3268694
0.3600051
0.4006744
0.1519521
0.1582075
0.1650492
0.1725627
0.1808515
0.1900181
0.2001931
0.2115726
0.2243858
0.2389246
0.2561159
0.2758403
0.2988548
0.3260707
0.3587702
0.5657779
0.5021998
0.5711065
0.4456628
0.5088726
0.5819771
0.4014354
0.4527926
0.5190553
0.5986191
0.3662577
0.4083734
0.4620976
0.5323799
0.6206918
0.3369807
0.3720737
0.4159152
0.4722736
0.5470756
0.6450819
0.3111205
0.3405786
0.3766479
0.4218991
0.4804273
0.5587146
0.6642145
0.2881588
0.313072
0.3430379
0.3798136
0.4260927
0.4860261
0.5665629
0.6772435
0.2678825
0.2891367
0.314312
0.3446326
0.3819064
0.4287753
0.4894952
0.5715481
0.6854467
0.2499952
0.2682917
0.2896787
0.3150306
0.3455934
0.3831021
0.4302214
0.4914397
0.5743486
0.690018
0.2341574
0.2500405
0.2683959
0.2898608
0.3153191
0.3459439
0.3834705
0.4307011
0.4920928
0.5752962
0.6974522
0.2200395
0.2339296
0.2498231
0.268194
0.2896826
0.3151058
0.3456299
0.3830847
0.4302144
0.4914533
0.5780654
0.701579
0.2073391
0.2195608
0.2334233
0.249285
0.2676194
0.2890065
0.3142539
0.3445979
0.381806
0.4285833
0.4918356
0.5784133
0.7035043
0.1957831
0.2065866
0.2187451
0.2325329
0.2483055
0.2664815
0.2876312
0.3126154
0.34261
0.3793387
0.4273156
0.4901318
0.5768351
0.7033439
0.1851477
0.1947279
0.2054336
0.2174762
0.2311255
0.2466874
0.2645706
0.2853859
0.3099369
0.3393556
0.3767199
0.4239163
0.486138
0.5723953
0.7008843
0.1753569
0.1838789
0.1933403
0.2039054
0.2157805
0.229192
0.2444361
0.2619538
0.2823046
0.3062525
0.3359098
0.3719894
0.4171611
0.4752532
0.5518393
0.1666265
0.1742602
0.1826873
0.1920378
0.2024724
0.214162
0.227327
0.242295
0.2594692
0.2793852
0.3035783
0.3322579
0.3670391
0.4100909
0.4646287
0.1589426
0.1658369
0.1734107
0.1817687
0.1910389
0.2013531
0.2128796
0.2258696
0.2406238
0.2575331
0.2777721
0.301331
0.3292886
0.3630175
0.4045127
0.1521824
0.1584587
0.1653244
0.1728656
0.1811865
0.1903907
0.2006097
0.2120415
0.2249177
0.2395331
0.2568229
0.276672
0.2998474
0.3272743
0.3602565
0.1462119
0.1519672
0.1582398
0.1651018
0.1726393
0.1809356
0.1900955
0.200279
0.2116686
0.2244938
0.2395218
0.2565853
0.2762542
0.2991836
0.3262699
0.4990107
0.5660684
0.4410222
0.5024171
0.5716867
0.3961174
0.4458269
0.5093111
0.582871
0.3608854
0.4015648
0.4531269
0.519734
0.5998815
0.3323675
0.3663639
0.40864
0.4626196
0.5333373
0.6220745
0.3082288
0.3370706
0.372294
0.4163336
0.4730104
0.5481068
0.6463937
0.2865853
0.3111955
0.3407587
0.376981
0.4224655
0.4811826
0.5596196
0.6656331
0.2671038
0.2882214
0.31322
0.3433055
0.3802559
0.42666
0.4866685
0.5674911
0.6787202
0.2496883
0.2679355
0.2892599
0.3145308
0.3449858
0.3823461
0.4292524
0.4901443
0.5724884
0.6869556
0.2341574
0.2500405
0.2683959
0.2898608
0.3153191
0.3459439
0.3834705
0.4307011
0.4920928
0.5752962
0.6974522
0.2202742
0.2341968
0.2501298
0.26855
0.2901011
0.3156054
0.3462374
0.3838405
0.4311831
0.4927491
0.5799313
0.7045885
0.2077938
0.220074
0.2340072
0.2499554
0.2683976
0.2899213
0.3153457
0.345925
0.3834569
0.4306992
0.4946641
0.5823733
0.709727
0.1964818
0.2073696
0.2196288
0.2335383
0.24946
0.2678218
0.2892068
0.3144956
0.3448953
0.3821813
0.4309611
0.4949026
0.5833517
0.7132779
0.1861196
0.1958103
0.2066468
0.218846
0.2326849
0.2484791
0.2666513
0.287833
0.312859
0.3429099
0.3811787
0.4296753
0.4938191
0.5829853
0.7162651
0.1765242
0.1851719
0.194781
0.2055219
0.2176081
0.2312747
0.2468314
0.2647393
0.285586
0.310178
0.3407959
0.3785188
0.4266873
0.4907655
0.5812387
0.7286942
0.1676413
0.1753778
0.1839248
0.193416
0.2040175
0.2159061
0.229311
0.2445728
0.2621123
0.2824907
0.3073321
0.3369796
0.3732332
0.4185347
0.476484
0.1596799
0.1666451
0.1743005
0.1827534
0.192135
0.2025806
0.2142631
0.2274413
0.2424253
0.2596195
0.2802385
0.3043124
0.3329778
0.3676829
0.4105312
0.152641
0.1589592
0.1658729
0.1734694
0.1818546
0.1911338
0.2014411
0.212978
0.2259805
0.2407501
0.2582392
0.2783439
0.3018529
0.3297191
0.3632883
0.1464237
0.1521975
0.1584912
0.1653773
0.1729426
0.181271
0.1904684
0.200696
0.212138
0.2250264
0.2401342
0.2572972
0.2770919
0.3001824
0.3274778
0.1409135
0.1462257
0.1519968
0.1582879
0.1651714
0.1727154
0.1810052
0.1901723
0.2003642
0.2117638
0.2250158
0.2399277
0.2569389
0.2765311
0.2993485
0.4387205
0.4992246
0.5666359
0.3925591
0.4411821
0.5028421
0.5725411
0.3566704
0.3962424
0.4461481
0.5099575
0.5840473
0.328009
0.3609869
0.4018184
0.45362
0.5206275
0.6011333
0.3044162
0.3324528
0.3665723
0.4090334
0.4633072
0.5342867
0.6232302
0.2841575
0.3083025
0.3372472
0.3726196
0.416885
0.4737415
0.5489739
0.6477212
0.2657644
0.2866478
0.3113429
0.341025
0.3774202
0.4230275
0.4818176
0.5605328
0.6670693
0.2490174
0.2671568
0.2883447
0.3134387
0.3436584
0.3806946
0.4271361
0.4873155
0.5684263
0.6802122
0.2338903
0.2497337
0.2680397
0.2894421
0.3148194
0.3453363
0.3827145
0.4297321
0.4907969
0.5734345
0.6943606
0.2202742
0.2341968
0.2501298
0.26855
0.2901011
0.3156054
0.3462374
0.3838405
0.4311831
0.4927491
0.5799313
0.7045885
0.2080016
0.2203087
0.2342742
0.2502621
0.2687535
0.2903397
0.3158451
0.3465321
0.3842122
0.4316674
0.4959576
0.5841828
0.7125441
0.1968873
0.2078242
0.2201419
0.234122
0.2501301
0.2685997
0.2901212
0.3155867
0.3462216
0.3838309
0.4330702
0.4976396
0.5870506
0.7188013
0.1867468
0.1965089
0.2074298
0.2197297
0.2336903
0.2496337
0.2679915
0.2894083
0.3147387
0.3451946
0.3840185
0.4332289
0.4983128
0.5887916
0.7242231
0.1774018
0.1861439
0.1958639
0.206736
0.2189793
0.2328358
0.248625
0.2668224
0.2880364
0.3131045
0.3443805
0.3830063
0.4324095
0.4980657
0.5900243
0.7338805
0.1687012
0.176546
0.1852195
0.1948598
0.2056386
0.2177391
0.2314
0.2469765
0.2649092
0.2857876
0.31136
0.3422376
0.3806723
0.4301296
0.4968705
0.5963058
0.7447483
0.1606058
0.1676603
0.1754192
0.1839927
0.193516
0.2041289
0.2160108
0.22943
0.2447093
0.2622706
0.2833956
0.3082122
0.3379795
0.3743052
0.4194573
0.1533167
0.1596968
0.1666816
0.1743602
0.1828408
0.1922316
0.2026702
0.2143637
0.227555
0.242555
0.2603468
0.2808549
0.3049059
0.333497
0.368028
0.1468455
0.1526562
0.158992
0.1659262
0.1735471
0.1819399
0.1912124
0.2015284
0.2130757
0.2260907
0.2413601
0.2587271
0.2787828
0.3022086
0.3299381
0.141109
0.1464376
0.1522273
0.1585394
0.1654472
0.173019
0.1813409
0.1905456
0.2007817
0.2122338
0.2255515
0.2405441
0.2576557
0.2773738
0.3003507
0.1360089
0.1409263
0.1462529
0.1520408
0.1583514
0.1652406
0.1727783
0.1810743
0.1902486
0.2004489
0.2122239
0.2253703
0.2402334
0.2571755
0.27667
0.3907902
0.4388785
0.4996431
0.5674718
0.3538428
0.3926813
0.4414952
0.5034684
0.5736655
0.3245801
0.3567689
0.3964873
0.4466219
0.5108083
0.5852137
0.3008053
0.3280909
0.3611861
0.4021926
0.4542693
0.5215134
0.6021741
0.2809513
0.3044864
0.3326205
0.36688
0.4095517
0.463989
0.5350787
0.6243889
0.2636962
0.2842191
0.3084473
0.3375082
0.3730489
0.4174321
0.4743559
0.5498488
0.6490648
0.2478631
0.2658174
0.2867707
0.3115609
0.3413761
0.3778559
0.4234998
0.4824581
0.5614545
0.6685232
0.2333061
0.2490629
0.2672612
0.288527
0.3137273
0.3440086
0.3810627
0.4276153
0.4879669
0.5693684
0.6875452
0.2200395
0.2339296
0.2498231
0.268194
0.2896826
0.3151058
0.3456299
0.3830847
0.4302144
0.4914533
0.5780654
0.701579
0.2080016
0.2203087
0.2342742
0.2502621
0.2687535
0.2903397
0.3158451
0.3465321
0.3842122
0.4316674
0.4959576
0.5841828
0.7125441
0.1970727
0.208032
0.2203765
0.2343889
0.2504366
0.2689554
0.2905393
0.3160858
0.3468282
0.3845856
0.4340343
0.4988903
0.5887432
0.7213185
0.1871107
0.1969144
0.2078842
0.2202425
0.2342736
0.2503036
0.2687689
0.290322
0.3158289
0.3465196
0.38566
0.4352655
0.5008622
0.5920802
0.7287741
0.177968
0.1867711
0.1965624
0.2075189
0.2198628
0.2338411
0.2497794
0.2681622
0.289611
0.3149834
0.3466599
0.38577
0.435749
0.5020574
0.5946928
0.7385095
0.1694976
0.1774238
0.1861919
0.1959434
0.2068539
0.2191117
0.2329626
0.248772
0.2669948
0.2882413
0.3143085
0.3458407
0.3851232
0.435554
0.5029051
0.5993588
0.7470198
0.1615723
0.1687209
0.1765889
0.18529
0.1949638
0.2057545
0.217849
0.2315262
0.2471227
0.2650804
0.286776
0.3125429
0.343963
0.3833447
0.4346585
0.5072068
0.6054215
0.7570424
0.1541647
0.1606231
0.1676978
0.1754805
0.1840825
0.1936154
0.2042216
0.2161154
0.2295489
0.2448457
0.2630405
0.284133
0.3090346
0.3388411
0.375025
0.1474668
0.1533321
0.1597301
0.1667358
0.1744391
0.1829275
0.1923116
0.2027594
0.2144637
0.2276681
0.2431827
0.2608719
0.2813531
0.3053339
0.3337752
0.1414983
0.1468595
0.1526862
0.1590406
0.1659967
0.1736242
0.1820105
0.1912904
0.2016151
0.2131728
0.2266232
0.2417814
0.2591014
0.2790818
0.3023895
0.1361899
0.1411218
0.1464649
0.1522714
0.1586032
0.1655166
0.1730822
0.1814103
0.1906222
0.2008668
0.2126966
0.2259094
0.240854
0.2578964
0.2775155
0.1314564
0.1360207
0.1409514
0.1462934
0.152099
0.1584145
0.1652978
0.1728408
0.1811428
0.1903242
0.2008575
0.2125364
0.2256373
0.2404379
0.257294
0.3524346
0.3909112
0.4391877
0.5002599
0.5685718
0.322275
0.3539394
0.392921
0.4419571
0.504293
0.5747804
0.2979584
0.3246598
0.3569621
0.3968489
0.4472458
0.5116519
0.5861817
0.2779087
0.3008729
0.3282517
0.3614803
0.4026855
0.4549131
0.5222493
0.6032122
0.2609608
0.2810101
0.3046243
0.3328682
0.3672857
0.4100658
0.4645575
0.5358714
0.6255507
0.2460792
0.2637484
0.2843401
0.3086615
0.3378525
0.3734749
0.4178918
0.4749754
0.5507315
0.6504248
0.2323007
0.2479086
0.2659216
0.2869527
0.3118485
0.3417246
0.3782221
0.4239761
0.4831041
0.5623846
0.6756823
0.2195262
0.2333456
0.2491524
0.2674156
0.2887676
0.3140137
0.3443023
0.3814332
0.4280977
0.4886228
0.5739858
0.6949328
0.2077938
0.220074
0.2340072
0.2499554
0.2683976
0.2899213
0.3153457
0.345925
0.3834569
0.4306992
0.4946641
0.5823733
0.709727
0.1970727
0.208032
0.2203765
0.2343889
0.2504366
0.2689554
0.2905393
0.3160858
0.3468282
0.3845856
0.4340343
0.4988903
0.5887432
0.7213185
0.1872771
0.1970997
0.2080919
0.220477
0.2345404
0.2506099
0.2691244
0.2907398
0.3163275
0.3471255
0.3864101
0.4361958
0.5020292
0.5935987
0.7308952
0.1782965
0.187135
0.1969678
0.2079731
0.2203754
0.2344242
0.2504489
0.268939
0.2905238
0.3160723
0.3479766
0.3873528
0.4376422
0.504319
0.5974292
0.7416585
0.1700112
0.1779899
0.186819
0.1966418
0.2076366
0.2199951
0.2339676
0.249926
0.2683339
0.289815
0.3161811
0.3480566
0.3877162
0.4385136
0.5061071
0.602165
0.7496844
0.1622982
0.1695174
0.1774671
0.1862632
0.1960484
0.206971
0.2192228
0.2330903
0.2489202
0.2671686
0.2892461
0.3155039
0.347532
0.3875558
0.4391302
0.5092974
0.6068855
0.7581901
0.1550495
0.1615902
0.1687598
0.1766526
0.1853834
0.1950671
0.2058519
0.2179598
0.2316533
0.24727
0.2659198
0.2877651
0.3139584
0.3461027
0.3868543
0.4422992
0.5134176
0.6128254
0.7667559
0.1482463
0.1541805
0.1606572
0.1677534
0.1755616
0.1841717
0.1936981
0.2043142
0.2162199
0.2296677
0.2455091
0.2636677
0.2848219
0.3097431
0.3394196
0.1420714
0.147481
0.1533626
0.1597795
0.1668074
0.1745174
0.1829995
0.1923913
0.2028481
0.2145632
0.2282154
0.2436357
0.2612964
0.2817123
0.3055633
0.1365501
0.1415112
0.1468871
0.1527308
0.1591049
0.1660668
0.173688
0.1820807
0.1913679
0.2017013
0.2136417
0.2269909
0.2421047
0.2593565
0.2792338
0.1316243
0.1362017
0.141147
0.1465055
0.1523298
0.1586665
0.165574
0.173145
0.1814792
0.1906983
0.2012777
0.2130119
0.2261799
0.2410619
0.2580173
0.1272199
0.1314673
0.1360439
0.1409887
0.1463468
0.1521568
0.1584667
0.1653545
0.1729028
0.1812109
0.1906896
0.2011349
0.2127716
0.2258159
0.2405404
0.3211255
0.3525303
0.3911483
0.4396439
0.5010719
0.5696625
0.2960414
0.3223534
0.3541289
0.3932747
0.4425653
0.5051105
0.5757052
0.2755056
0.2980243
0.3248162
0.3572474
0.3973251
0.4478644
0.5123515
0.5871453
0.2583607
0.2779654
0.3010056
0.3284894
0.361868
0.4031744
0.4554475
0.5229825
0.6042474
0.2437172
0.2610107
0.2811256
0.3048282
0.3331948
0.367688
0.4104944
0.4651262
0.5366647
0.6267154
0.2307458
0.2461241
0.2638511
0.2845193
0.3089441
0.3381942
0.3738327
0.4183551
0.4756001
0.5516221
0.6571203
0.2186424
0.2323401
0.247998
0.2660758
0.2871927
0.3121339
0.3420174
0.3785913
0.4244563
0.4837556
0.5669509
0.6832333
0.2073391
0.2195608
0.2334233
0.249285
0.2676194
0.2890065
0.3142539
0.3445979
0.381806
0.4285833
0.4918356
0.5784133
0.7035043
0.1968873
0.2078242
0.2201419
0.234122
0.2501301
0.2685997
0.2901212
0.3155867
0.3462216
0.3838309
0.4330702
0.4976396
0.5870506
0.7188013
0.1872771
0.1970997
0.2080919
0.220477
0.2345404
0.2506099
0.2691244
0.2907398
0.3163275
0.3471255
0.3864101
0.4361958
0.5020292
0.5935987
0.7308952
0.1784466
0.1873013
0.197153
0.2081807
0.2206097
0.2346907
0.2507549
0.2692941
0.2909411
0.3165702
0.3485781
0.3880757
0.4385088
0.5053641
0.5987247
0.7432277
0.1703091
0.1783183
0.1871827
0.1970469
0.2080905
0.2205073
0.2345503
0.2505948
0.2691098
0.2907266
0.3172622
0.3493248
0.3891855
0.4401901
0.5079868
0.6041243
0.7517607
0.1627661
0.170031
0.1780331
0.1868901
0.1967466
0.2077535
0.220106
0.2340949
0.2500734
0.2685067
0.2908133
0.3173226
0.3496084
0.3898501
0.4414996
0.5112216
0.6086306
0.7597413
0.1557138
0.1623162
0.1695566
0.1775313
0.1863573
0.1961527
0.2070693
0.2193349
0.233219
0.2490695
0.2680206
0.2902438
0.3168883
0.3494745
0.390319
0.4438437
0.5144326
0.6136947
0.7674291
0.1490593
0.1550659
0.1616256
0.1688175
0.1767368
0.1854761
0.1951539
0.2059499
0.2180714
0.2317814
0.247992
0.2667596
0.2889485
0.3157128
0.348909
0.3927608
0.446863
0.5184532
0.6189841
0.7744606
0.1427903
0.1482608
0.1542117
0.1607079
0.1678269
0.1756421
0.184246
0.1937808
0.2044068
0.2163243
0.2302454
0.2460493
0.2642536
0.2854153
0.3102188
0.1370804
0.1420845
0.147509
0.1534078
0.1598448
0.1668785
0.1745824
0.183071
0.1924705
0.2029363
0.2150448
0.2286102
0.2440017
0.2616023
0.2819048
0.1319586
0.136562
0.1415366
0.146928
0.1527897
0.1591688
0.1661248
0.1737514
0.1821503
0.1914449
0.2021175
0.2139654
0.2272729
0.2423249
0.2594861
0.1273762
0.1316353
0.136225
0.1411845
0.1465592
0.1523878
0.1587189
0.1656311
0.1732073
0.1815476
0.1910656
0.2015576
0.2132502
0.2263615
0.2411664
0.1232682
0.1272301
0.1314888
0.1360784
0.141038
0.1464
0.1522046
0.1585185
0.1654109
0.1729644
0.1815396
0.1909376
0.2013438
0.2129289
0.2259054
0.2950843
0.3212031
0.352718
0.3914983
0.4402446
0.5018769
0.5705671
0.2738852
0.2961062
0.3225071
0.3544088
0.3937407
0.4431684
0.5057882
0.5766253
0.256304
0.2755609
0.2981536
0.3250474
0.3576234
0.3977974
0.4483772
0.5130475
0.5881044
0.2414687
0.258409
0.2780769
0.3012018
0.3288027
0.3622524
0.4035801
0.4559799
0.523713
0.6052797
0.2286849
0.2437601
0.261109
0.2812965
0.3050971
0.3335188
0.3680233
0.4109229
0.465695
0.5374586
0.632395
0.2172748
0.2307848
0.2462124
0.2640032
0.2847556
0.3092247
0.3384812
0.3741933
0.4188222
0.47623
0.555994
0.6642704
0.2065561
0.218677
0.2324178
0.2481305
0.2662794
0.2874311
0.3123737
0.3423125
0.3789635
0.4249405
0.4869523
0.5715174
0.6923892
0.1964818
0.2073696
0.2196288
0.2335383
0.24946
0.2678218
0.2892068
0.3144956
0.3448953
0.3821813
0.4309611
0.4949026
0.5833517
0.7132779
0.1871107
0.1969144
0.2078842
0.2202425
0.2342736
0.2503036
0.2687689
0.290322
0.3158289
0.3465196
0.38566
0.4352655
0.5008622
0.5920802
0.7287741
0.1784466
0.1873013
0.197153
0.2081807
0.2206097
0.2346907
0.2507549
0.2692941
0.2909411
0.3165702
0.3485781
0.3880757
0.4385088
0.5053641
0.5987247
0.7432277
0.1704452
0.1784684
0.187349
0.197232
0.2082979
0.2207414
0.2348166
0.2509005
0.2694645
0.2911432
0.317756
0.3499039
0.389858
0.4409648
0.5088779
0.6051169
0.7528636
0.1630375
0.1703288
0.1783613
0.1872536
0.1971514
0.2082071
0.2206178
0.2346769
0.2507414
0.2692815
0.2917177
0.3183631
0.3507845
0.3911496
0.442891
0.5125688
0.6100155
0.7610652
0.1561419
0.1627842
0.1700701
0.1780971
0.186984
0.1968507
0.2078515
0.2202175
0.2342229
0.2502217
0.2693523
0.2917648
0.318591
0.3513094
0.3921531
0.4452654
0.5156425
0.6148551
0.7683893
0.1496694
0.1557303
0.1623519
0.1696148
0.1776161
0.1864508
0.1962403
0.2071684
0.2194478
0.2333487
0.2498014
0.2688664
0.2913991
0.3184776
0.3516789
0.3939552
0.447617
0.5190716
0.6196105
0.7749176
0.1435397
0.1490743
0.1550982
0.1616782
0.1688938
0.1768204
0.1855539
0.1952413
0.2060487
0.2181839
0.2324093
0.2487144
0.2677644
0.2904145
0.3180115
0.3536231
0.3962741
0.450552
0.5226355
0.6240645
0.7804792
0.1377453
0.1428036
0.1482895
0.1542581
0.1607749
0.1679
0.1757091
0.1843202
0.1938634
0.2044994
0.216832
0.2307157
0.2465539
0.2647583
0.2858138
0.1324505
0.1370925
0.1421103
0.1475505
0.1534675
0.1599096
0.1669375
0.174647
0.1831422
0.1925493
0.2033634