/*--------------------------------*- C++ -*----------------------------------*\
| =========                 |                                                 |
| \\      /  F ield         | OpenFOAM: The Open Source CFD Toolbox           |
|  \\    /   O peration     | Version:  2306                                  |
|   \\  /    A nd           | Website:  www.openfoam.com                      |
|    \\/     M anipulation  |                                                 |
\*---------------------------------------------------------------------------*/
FoamFile
{
    version     2.0;
    format      ascii;
    arch        "LSB;label=32;scalar=64";
    class       volScalarField;
    location    "0.3/fuel";
    object      H2O;
}
// * * * * * * * * * * * * * * * * * * * * * * * * * * * * * * * * * * * * * //

dimensions      [0 0 0 0 0 0 0];

internalField   nonuniform List<scalar> 
16000
(
0.4343438
0.4293117
0.5010989
0.4340533
0.4190608
0.4979094
0.4290147
0.5613758
0.5008849
0.4334857
0.4034434
0.4914603
0.41875
0.559074
0.4976921
0.4284344
0.6092944
0.5612178
0.5004664
0.4326497
0.3829635
0.4817484
0.4031097
0.5544331
0.491236
0.4181428
0.6075255
0.5589141
0.4972671
0.4275798
0.64764
0.6091735
0.5609086
0.4998495
0.4315495
0.3605602
0.4691988
0.3825952
0.5474736
0.4815128
0.4024581
0.6039671
0.554269
0.4907974
0.4172487
0.6462319
0.6074033
0.5586009
0.4966407
0.4264552
0.6789406
0.6475443
0.6089363
0.5604524
0.4990374
0.4304586
0.3432006
0.4556653
0.360147
0.5385318
0.4689465
0.3818759
0.598649
0.5473029
0.4810522
0.4014986
0.6434043
0.6038422
0.5539478
0.490151
0.4160722
0.677791
0.6461353
0.6071636
0.558139
0.495816
0.4253401
0.7049743
0.6788629
0.6473566
0.6085863
0.5598516
0.4982323
0.4295539
0.3318772
0.4452145
0.3427591
0.5289521
0.4553918
0.3593396
0.5918468
0.5383511
0.4684531
0.3808167
0.6391894
0.5985196
0.5469685
0.4803734
0.400236
0.6754861
0.6433058
0.6035972
0.553474
0.4893
0.4149056
0.7040172
0.6777127
0.6459457
0.6068098
0.5575308
0.4949984
0.4244152
0.7269767
0.70491
0.6787104
0.6470793
0.6081253
0.5592559
0.4975648
0.4286537
0.3253176
0.4383623
0.3314204
0.5215967
0.4449291
0.3418969
0.5845965
0.5287587
0.4548567
0.3581501
0.6338171
0.5917108
0.5379972
0.4677259
0.3794225
0.6720573
0.6390878
0.5982661
0.5464755
0.4794798
0.3989839
0.7021004
0.6754064
0.6431126
0.6032356
0.5528501
0.4884564
0.4139375
0.726167
0.7039524
0.6775589
0.6456659
0.6063438
0.5569276
0.4943206
0.423495
0.7458251
0.7269225
0.7047836
0.6784851
0.646714
0.607668
0.5587624
0.4969011
0.4277583
0.3223348
0.4343557
0.3248526
0.5167891
0.4380711
0.3305284
0.5790539
0.5213968
0.4443708
0.3406267
0.6281134
0.5844521
0.5283797
0.4540676
0.3565834
0.667699
0.6337109
0.5914443
0.5374751
0.4667685
0.3780396
0.6992536
0.6719754
0.6388886
0.5978918
0.5458261
0.4785937
0.3979429
0.7245467
0.7020345
0.6752499
0.6428273
0.6027594
0.5522314
0.4877567
0.4129737
0.7451308
0.7261124
0.7038251
0.6773318
0.6452971
0.6058817
0.5564279
0.4936466
0.4225794
0.7621587
0.7457788
0.726816
0.7045967
0.6781881
0.6463516
0.6072893
0.5582717
0.4962411
0.4268675
0.3223348
0.4325188
0.3218662
0.5139811
0.4340617
0.323945
0.5754404
0.5165864
0.4375016
0.3292148
0.6237672
0.5789054
0.5210052
0.4435476
0.3389539
0.6630859
0.6280011
0.5841688
0.5278204
0.4530282
0.3550282
0.695643
0.6676136
0.6335025
0.5910508
0.5367876
0.465819
0.3768836
0.7221438
0.6991861
0.6718146
0.6385945
0.5973989
0.5451823
0.4778578
0.3969046
0.7437426
0.7244914
0.7019051
0.6750188
0.6424513
0.6022871
0.5517186
0.4870605
0.4120144
0.7615566
0.7450842
0.7260051
0.7036368
0.6770323
0.6449313
0.6054989
0.5559311
0.4929763
0.4216686
0.7764537
0.7621187
0.7456877
0.7266584
0.7043504
0.6778935
0.6460515
0.606913
0.5577841
0.495585
0.4225577
0.3253176
0.4325188
0.3218662
0.5126938
0.4322236
0.3209516
0.5733325
0.5137771
0.4334866
0.3226085
0.6209393
0.5752905
0.5161894
0.4366619
0.3274849
0.6595798
0.6236523
0.5786144
0.5204273
0.4424633
0.3372932
0.6918306
0.662996
0.6277808
0.5837504
0.5270835
0.451997
0.3537161
0.7191014
0.6955728
0.667446
0.6331948
0.5905325
0.5361057
0.4650268
0.3757246
0.7416861
0.7220871
0.6990534
0.6715769
0.6382068
0.59691
0.5446478
0.4771245
0.3958692
0.7603536
0.7436954
0.7243825
0.7017139
0.6747141
0.6420784
0.6018957
0.5512086
0.486368
0.4110595
0.7759264
0.7615164
0.7449925
0.7258465
0.7033885
0.6767352
0.6446283
0.6051185
0.5554373
0.4923098
0.4172616
0.7890719
0.7764187
0.76204
0.745553
0.7264506
0.7041059
0.6776496
0.6457534
0.606539
0.5572995
0.4924114
0.4195907
0.3318772
0.4343557
0.3248526
0.5126938
0.4322236
0.3209516
0.5723667
0.5124894
0.4316461
0.3196051
0.6192911
0.573182
0.5133778
0.4326389
0.3208487
0.657302
0.6208236
0.5749966
0.5156037
0.4355561
0.3257677
0.688939
0.6594881
0.6234269
0.5781846
0.5196659
0.4413874
0.3358916
0.7158954
0.6917569
0.6628194
0.6274552
0.583199
0.5263524
0.4511297
0.3523882
0.7390863
0.7190426
0.6954349
0.6671983
0.6327891
0.5900184
0.5355372
0.464234
0.3745626
0.7585731
0.7416378
0.7219757
0.6988572
0.6712637
0.6378223
0.5965043
0.5441154
0.4763939
0.3948367
0.7748736
0.7603128
0.7436025
0.7242215
0.7014617
0.6744118
0.6417695
0.6015066
0.5507014
0.4856792
0.406437
0.7886063
0.7758913
0.7614372
0.744857
0.7256372
0.7031422
0.6764892
0.6443274
0.6047405
0.5549465
0.4890863
0.4142141
0.8002936
0.7890411
0.77635
0.7619234
0.7453753
0.7262444
0.7039036
0.6774073
0.6454572
0.6061675
0.5549565
0.4902344
0.4173414
0.3432006
0.4383623
0.3314204
0.5139811
0.4340617
0.323945
0.5723667
0.5124894
0.4316461
0.3196051
0.6185362
0.5722159
0.512089
0.430795
0.3178322
0.6559755
0.6191751
0.572887
0.5127885
0.4315226
0.3191019
0.6870628
0.6572098
0.6205965
0.5745627
0.514832
0.4344591
0.3243212
0.7134679
0.688864
0.659308
0.6230938
0.5776182
0.5189105
0.4404824
0.3344726
0.7363512
0.7158339
0.6916121
0.6625584
0.6270259
0.5826519
0.525738
0.4502547
0.3510443
0.7563249
0.7390363
0.7189271
0.695231
0.6668717
0.6323868
0.5895898
0.5349685
0.4634406
0.3733977
0.7733166
0.7585315
0.7415429
0.7218108
0.6985985
0.6709529
0.6375033
0.5961003
0.5435852
0.4756661
0.3898287
0.787677
0.774838
0.7602326
0.7434651
0.7240092
0.7012115
0.6741614
0.6414624
0.6011198
0.5501972
0.4823461
0.4031874
0.7998794
0.7885754
0.7758221
0.7613199
0.7446781
0.7254295
0.7029383
0.6762448
0.6440283
0.6043649
0.5525735
0.4868672
0.4118927
0.8103396
0.8002663
0.7889805
0.7762481
0.7617697
0.7451989
0.7260737
0.7037026
0.6771666
0.645163
0.6043718
0.5533533
0.4885873
0.4158295
0.3605602
0.4452145
0.3427591
0.5167891
0.4380711
0.3305284
0.5733325
0.5137771
0.4334866
0.3226085
0.6185362
0.5722159
0.512089
0.430795
0.3178322
0.6553682
0.6184201
0.5719205
0.5114984
0.4296742
0.3160725
0.6859709
0.6558832
0.6189475
0.5724514
0.5120123
0.4304151
0.3176326
0.7118945
0.6869875
0.6570288
0.6202611
0.5739908
0.5140665
0.4335377
0.3228595
0.7342831
0.7134054
0.6887166
0.6590417
0.6226546
0.5770562
0.5182755
0.439569
0.3330361
0.7539631
0.736299
0.7157129
0.6913979
0.6622142
0.6266
0.5821922
0.5251184
0.4493719
0.3496841
0.7713527
0.7562819
0.7389381
0.7187562
0.6949621
0.6665477
0.6320515
0.5891613
0.5343996
0.4626466
0.3677169
0.7863037
0.7732803
0.7584496
0.7414024
0.7215935
0.6983419
0.6706951
0.6371857
0.5956981
0.5430573
0.4721389
0.386114
0.7990531
0.7876457
0.774768
0.7601139
0.7432838
0.7237985
0.7010042
0.6739126
0.6411572
0.6007352
0.5477582
0.4800209
0.4006659
0.8099687
0.799852
0.7885144
0.7757197
0.7611652
0.7445005
0.7252576
0.7027357
0.6760021
0.6437313
0.6025494
0.5509443
0.4851819
0.4103254
0.819386
0.8103152
0.8002125
0.7888908
0.7761137
0.761617
0.7450529
0.7259042
0.703503
0.6769276
0.6437413
0.6031453
0.5521419
0.4874819
0.4150696
0.3829635
0.4556653
0.360147
0.5215967
0.4449291
0.3418969
0.5754404
0.5165864
0.4375016
0.3292148
0.6192911
0.573182
0.5133778
0.4326389
0.3208487
0.6553682
0.6184201
0.5719205
0.5114984
0.4296742
0.3160725
0.685471
0.6552758
0.6181924
0.5714843
0.5107203
0.4285623
0.3145933
0.7109792
0.6858956
0.655702
0.6186114
0.5718774
0.5112423
0.4294862
0.3161501
0.7329438
0.7118318
0.6868396
0.6567612
0.6198188
0.5734234
0.513424
0.4326094
0.3213825
0.7521794
0.7342301
0.7132824
0.6884986
0.6586906
0.6222188
0.5765839
0.517635
0.4386472
0.3315819
0.769292
0.7539182
0.7361962
0.7155338
0.6911153
0.6618725
0.6262421
0.5817288
0.5244937
0.4484811
0.3429871
0.7845731
0.7713153
0.7561973
0.7387927
0.7185308
0.6946953
0.6662778
0.6317162
0.5887328
0.5338306
0.4587815
0.3628671
0.7978326
0.7862718
0.7732089
0.7583284
0.7412171
0.7213778
0.698129
0.6704385
0.6368696
0.5952977
0.5404999
0.4695662
0.3830467
0.8092291
0.7990253
0.7875841
0.7746644
0.7599572
0.7431038
0.7236241
0.7007983
0.6736653
0.6408539
0.5988759
0.546062
0.4782281
0.3989324
0.819052
0.8099442
0.7997979
0.7884242
0.7755846
0.7610116
0.7443536
0.7250869
0.7025346
0.675761
0.6422957
0.6013053
0.5497088
0.4840468
0.4095351
0.827575
0.819364
0.8102671
0.8001328
0.7887723
0.7759803
0.7614906
0.7449079
0.7257358
0.7033048
0.6757728
0.6427716
0.6022194
0.5513297
0.4869269
0.4034434
0.4691988
0.3825952
0.5289521
0.4553918
0.3593396
0.5790539
0.5213968
0.4443708
0.3406267
0.6209393
0.5752905
0.5161894
0.4366619
0.3274849
0.6559755
0.6191751
0.572887
0.5127885
0.4315226
0.3191019
0.685471
0.6552758
0.6181924
0.5714843
0.5107203
0.4285623
0.3145933
0.7105604
0.6853957
0.6550946
0.6178559
0.5709095
0.5099485
0.4276302
0.3131018
0.7321652
0.7109166
0.6857476
0.6554341
0.6181682
0.571308
0.5105969
0.4285516
0.3146542
0.7510252
0.7328908
0.7117086
0.6866209
0.6564083
0.6193801
0.5729473
0.512777
0.4316741
0.3198901
0.7677373
0.7521339
0.7341259
0.7131005
0.6882111
0.6583421
0.6218527
0.5761076
0.5169889
0.4377169
0.3244211
0.782759
0.769253
0.7538299
0.7360442
0.7152974
0.6908348
0.6615855
0.6258815
0.5812617
0.5238637
0.4441086
0.3358355
0.7962959
0.7845402
0.7712417
0.7560721
0.7386009
0.7183071
0.694473
0.6660079
0.631381
0.5883042
0.5310622
0.4555981
0.358157
0.8081373
0.7978044
0.786209
0.7731032
0.7581684
0.7410331
0.7211989
0.6979171
0.6701831
0.6365549
0.5933586
0.5386421
0.4674754
0.3807932
0.8183861
0.8092043
0.7989707
0.7874929
0.7745276
0.7598017
0.7429548
0.7234507
0.7005937
0.6734196
0.6393874
0.5975854
0.5447566
0.4770024
0.398046
0.8272726
0.8190299
0.8098959
0.7997178
0.7883051
0.7754503
0.7608845
0.7442076
0.7249173
0.7023348
0.674596
0.6413133
0.6003626
0.5488775
0.4834754
0.8350228
0.8275552
0.8193208
0.8101959
0.8000275
0.7886546
0.7758698
0.7613652
0.744764
0.7255687
0.7023472
0.674986
0.6420401
0.601599
0.5509222
0.4190608
0.4817484
0.4031097
0.5385318
0.4689465
0.3818759
0.5845965
0.5287587
0.4548567
0.3581501
0.6237672
0.5789054
0.5210052
0.4435476
0.3389539
0.657302
0.6208236
0.5749966
0.5156037
0.4355561
0.3257677
0.6859709
0.6558832
0.6189475
0.5724514
0.5120123
0.4304151
0.3176326
0.7105604
0.6853957
0.6550946
0.6178559
0.5709095
0.5099485
0.4276302
0.3131018
0.7318089
0.7104978
0.6852478
0.6548266
0.6174125
0.5703393
0.5093019
0.426693
0.311598
0.7503544
0.7321122
0.7107934
0.6855288
0.6550809
0.6177285
0.5708308
0.5099478
0.4276111
0.3131449
0.766732
0.7509797
0.7327865
0.7115262
0.6863323
0.6560582
0.619012
0.5724681
0.5121255
0.4307318
0.3125553
0.7813916
0.7676979
0.7520445
0.7339717
0.7128605
0.6879257
0.6580494
0.6214835
0.5756274
0.5163373
0.4331499
0.3168684
0.7946865
0.7827248
0.7691763
0.7536991
0.7358435
0.7150628
0.6905992
0.6612963
0.625518
0.5807908
0.5207733
0.4396924
0.3268365
0.8067636
0.7962668
0.7844755
0.7711326
0.7559068
0.7384105
0.7181207
0.6942508
0.6657381
0.6310459
0.5862198
0.5287951
0.452605
0.353954
0.8174036
0.8081121
0.7977487
0.786116
0.7729638
0.7580096
0.7408806
0.7210208
0.6977063
0.669929
0.6350313
0.5919529
0.5371364
0.465962
0.3795692
0.82667
0.8183638
0.8091555
0.7988897
0.7873724
0.7743918
0.7596729
0.7428068
0.7232785
0.7003904
0.6722319
0.638371
0.596593
0.5438653
0.4763782
0.8347478
0.8272527
0.8189865
0.8098243
0.799612
0.7881868
0.7753393
0.7607583
0.7440627
0.724749
0.7013696
0.6737996
0.6405695
0.5997288
0.5484593
0.8418252
0.8350048
0.8275161
0.8192567
0.8101017
0.799923
0.7885572
0.7757602
0.7612407
0.744621
0.7247613
0.7016954
0.6743927
0.6415502
0.6012879
0.4293117
0.4914603
0.41875
0.5474736
0.4815128
0.4024581
0.5918468
0.5383511
0.4684531
0.3808167
0.6281134
0.5844521
0.5283797
0.4540676
0.3565834
0.6595798
0.6236523
0.5786144
0.5204273
0.4424633
0.3372932
0.6870628
0.6572098
0.6205965
0.5745627
0.514832
0.4344591
0.3243212
0.7109792
0.6858956
0.655702
0.6186114
0.5718774
0.5112423
0.4294862
0.3161501
0.7318089
0.7104978
0.6852478
0.6548266
0.6174125
0.5703393
0.5093019
0.426693
0.311598
0.7500475
0.7317559
0.7103746
0.6850291
0.6544733
0.6169725
0.5698618
0.5086521
0.4257505
0.3100817
0.7661479
0.7503089
0.732008
0.7106112
0.6852402
0.6547304
0.6173602
0.5703511
0.5092951
0.4266648
0.3057381
0.7805079
0.7666925
0.7508902
0.732632
0.7112856
0.6860459
0.6557644
0.6186415
0.5719857
0.5114696
0.4261136
0.3051659
0.7934744
0.7813571
0.7676202
0.751912
0.7337682
0.7126222
0.6876859
0.6577542
0.6211113
0.5751431
0.5131404
0.4285827
0.3077104
0.805326
0.7946563
0.7826575
0.7690626
0.7535264
0.7356441
0.7148657
0.6903618
0.6610049
0.6251516
0.5784812
0.5176728
0.4343686
0.3151665
0.8161682
0.8067377
0.7962096
0.7843797
0.7709887
0.7557427
0.7382519
0.7179344
0.6940287
0.6654684
0.629416
0.5845162
0.5266726
0.4500117
0.3510502
0.8257813
0.817381
0.8080624
0.7976663
0.7859933
0.7728253
0.757878
0.7407288
0.7208437
0.6974965
0.6686985
0.6339283
0.5908147
0.5360491
0.4651493
0.8341999
0.8266499
0.81832
0.8090832
0.7987828
0.7872528
0.7742794
0.759545
0.7426597
0.7231073
0.6994078
0.6714095
0.6375899
0.5959161
0.5434118
0.8415741
0.8347297
0.8272135
0.8189221
0.8097297
0.7995069
0.7880889
0.775229
0.760633
0.7439188
0.7239356
0.7007103
0.6731969
0.6400696
0.5994101
0.8480622
0.8418088
0.8349693
0.8274581
0.819172
0.8100082
0.7998365
0.7884606
0.7756513
0.761117
0.7439307
0.7242121
0.701204
0.6739955
0.6413045
0.4343438
0.4979094
0.4290147
0.5544331
0.491236
0.4181428
0.598649
0.5473029
0.4810522
0.4014986
0.6338171
0.5917108
0.5379972
0.4677259
0.3794225
0.6630859
0.6280011
0.5841688
0.5278204
0.4530282
0.3550282
0.688939
0.6594881
0.6234269
0.5781846
0.5196659
0.4413874
0.3358916
0.7118945
0.6869875
0.6570288
0.6202611
0.5739908
0.5140665
0.4335377
0.3228595
0.7321652
0.7109166
0.6857476
0.6554341
0.6181682
0.571308
0.5105969
0.4285516
0.3146542
0.7500475
0.7317559
0.7103746
0.6850291
0.6544733
0.6169725
0.5698618
0.5086521
0.4257505
0.3100817
0.7658808
0.7500021
0.7316518
0.7101925
0.6847405
0.6541228
0.6166041
0.569382
0.5079991
0.4248028
0.3026456
0.7799947
0.7661085
0.7502196
0.7318537
0.7103707
0.6849539
0.6544368
0.6169899
0.5698689
0.5086387
0.4220332
0.2985179
0.7926914
0.7804734
0.7666149
0.7507576
0.7324282
0.7110468
0.6858058
0.6554689
0.6182687
0.5715001
0.5082565
0.4216854
0.2965923
0.804244
0.7934438
0.781289
0.7675051
0.7517371
0.7335661
0.712422
0.6874442
0.6574567
0.6207362
0.572768
0.5099606
0.4232641
0.2967532
0.8148764
0.8052991
0.7945967
0.7825577
0.7689124
0.753355
0.7354768
0.7146672
0.6901226
0.6607112
0.6233549
0.5761675
0.5139549
0.427705
0.299214
0.8246644
0.816145
0.8066866
0.7961247
0.7842532
0.7708457
0.755606
0.7380933
0.7177482
0.6938067
0.6641569
0.6280855
0.582923
0.5248408
0.448264
0.8333922
0.8257609
0.8173364
0.8079889
0.7975575
0.7858714
0.7727104
0.757747
0.7405778
0.7206674
0.6964808
0.6678085
0.6330358
0.5899934
0.535466
0.8410738
0.8341817
0.8266103
0.818255
0.8089876
0.7986766
0.7871537
0.7741677
0.7594179
0.7425137
0.7222804
0.698728
0.6707778
0.6370573
0.5955717
0.8478319
0.8415576
0.8346941
0.8271553
0.8188371
0.8096358
0.79942
0.7879917
0.7751195
0.7605085
0.7432237
0.7233804
0.7002115
0.672792
0.6398183
0.8538006
0.8480471
0.8417765
0.8349166
0.8273816
0.8190879
0.8099309
0.7997506
0.7883646
0.7755433
0.7605198
0.7434614
0.7237982
0.7008752
0.6737964
0.5010989
0.4340533
0.559074
0.4976921
0.4284344
0.6039671
0.554269
0.4907974
0.4172487
0.6391894
0.5985196
0.5469685
0.4803734
0.400236
0.667699
0.6337109
0.5914443
0.5374751
0.4667685
0.3780396
0.6918306
0.662996
0.6277808
0.5837504
0.5270835
0.451997
0.3537161
0.7134679
0.688864
0.659308
0.6230938
0.5776182
0.5189105
0.4404824
0.3344726
0.7329438
0.7118318
0.6868396
0.6567612
0.6198188
0.5734234
0.513424
0.4326094
0.3213825
0.7503544
0.7321122
0.7107934
0.6855288
0.6550809
0.6177285
0.5708308
0.5099478
0.4276111
0.3131449
0.7658808
0.7500021
0.7316518
0.7101925
0.6847405
0.6541228
0.6166041
0.569382
0.5079991
0.4248028
0.3026456
0.7797599
0.7658414
0.7499128
0.7314977
0.7099522
0.6844542
0.6538294
0.6162341
0.5689
0.5073427
0.4201669
0.2955075
0.7922368
0.7799602
0.766031
0.7500872
0.7316501
0.7101321
0.684714
0.6541418
0.6166178
0.569384
0.5054276
0.4177246
0.2903679
0.8035455
0.7926609
0.7804053
0.7664998
0.7505826
0.7322259
0.7108466
0.6855641
0.6551715
0.6178935
0.5691222
0.5051892
0.4167462
0.2868163
0.8139047
0.8042169
0.7933837
0.7811881
0.7673532
0.7515634
0.7333963
0.7122203
0.6872006
0.6571569
0.6188961
0.5704082
0.5062731
0.417113
0.283829
0.8234972
0.8148523
0.805246
0.7945084
0.7824258
0.7687632
0.753211
0.7353082
0.7144672
0.6898816
0.6592709
0.6215561
0.5733965
0.5093272
0.4188603
0.2713962
0.8323776
0.8246435
0.8160992
0.8066109
0.7960126
0.7841276
0.7707267
0.7554694
0.7379349
0.7175622
0.6927273
0.6630871
0.6268417
0.5815494
0.5236098
0.8403366
0.8333737
0.8257206
0.8172703
0.8078917
0.7974494
0.7857704
0.7725962
0.7576166
0.7404275
0.7198142
0.6957468
0.6670887
0.6323919
0.5895531
0.8473734
0.8410572
0.8341457
0.8265516
0.8181691
0.8088928
0.7985887
0.7870554
0.7740568
0.7592917
0.7418077
0.7217086
0.6982061
0.6703472
0.6367865
0.8535888
0.8478169
0.8415251
0.8346412
0.8270784
0.8187526
0.8095581
0.7993337
0.7878952
0.7750108
0.7599075
0.7427496
0.7229606
0.6998766
0.6725885
0.8590972
0.8537868
0.8480175
0.8417284
0.8348471
0.8273055
0.8190183
0.8098541
0.7996654
0.7882693
0.7750214
0.760114
0.7431078
0.7235213
0.7007104
0.5613758
0.5008849
0.4334857
0.6075255
0.5589141
0.4972671
0.4275798
0.6434043
0.6038422
0.5539478
0.490151
0.4160722
0.6720573
0.6390878
0.5982661
0.5464755
0.4794798
0.3989839
0.695643
0.6676136
0.6335025
0.5910508
0.5367876
0.465819
0.3768836
0.7158954
0.6917569
0.6628194
0.6274552
0.583199
0.5263524
0.4511297
0.3523882
0.7342831
0.7134054
0.6887166
0.6590417
0.6226546
0.5770562
0.5182755
0.439569
0.3330361
0.7510252
0.7328908
0.7117086
0.6866209
0.6564083
0.6193801
0.5729473
0.512777
0.4316741
0.3198901
0.7661479
0.7503089
0.732008
0.7106112
0.6852402
0.6547304
0.6173602
0.5703511
0.5092951
0.4266648
0.3057381
0.7797599
0.7658414
0.7499128
0.7314977
0.7099522
0.6844542
0.6538294
0.6162341
0.5689
0.5073427
0.4201669
0.2955075
0.7920289
0.7797255
0.765764
0.7497806
0.7312942
0.7097137
0.6842146
0.6535346
0.6158624
0.5684157
0.5041338
0.4159147
0.2875498
0.80314
0.7922064
0.7798923
0.7659162
0.7499125
0.731448
0.7099322
0.684473
0.6538452
0.6162437
0.567013
0.5024519
0.4130465
0.2812912
0.8132776
0.8035183
0.7926008
0.7803045
0.7663479
0.7504089
0.7320562
0.7106451
0.685321
0.6548722
0.6160563
0.5668544
0.5017787
0.4113054
0.2758684
0.8226197
0.8138803
0.8041633
0.7932944
0.7810548
0.7672023
0.7514176
0.7332252
0.7120169
0.6869551
0.6556864
0.6170686
0.5676739
0.5020261
0.4100728
0.2662081
0.8313179
0.8234755
0.8148047
0.8051673
0.7943917
0.7822949
0.768638
0.7530659
0.7351383
0.7142656
0.6886996
0.6578293
0.6194027
0.5699541
0.5032217
0.4037899
0.2553359
0.8394109
0.8323586
0.8246021
0.8160312
0.8065109
0.7959013
0.7840229
0.7706077
0.7553329
0.7377766
0.7166574
0.6918472
0.6620872
0.6257698
0.5806268
0.8466978
0.8403197
0.8333371
0.8256609
0.817183
0.8077951
0.7973597
0.7856698
0.7724825
0.7574869
0.7397002
0.7191979
0.6951533
0.6665696
0.6320468
0.853167
0.8473582
0.8410244
0.8340924
0.8264739
0.8180838
0.8088142
0.7985014
0.7869576
0.7739466
0.7586817
0.7413198
0.7212698
0.6978504
0.6701283
0.8589018
0.8535749
0.8477871
0.8414769
0.8345714
0.827002
0.8186826
0.8094809
0.799248
0.7877994
0.7744857
0.7594976
0.7423911
0.7226786
0.6997082
0.8640003
0.8590845
0.8537595
0.8479735
0.8416649
0.8347779
0.8272426
0.8189493
0.8097779
0.7995808
0.7878093
0.7746669
0.7598083
0.7428713
0.7233825
0.6092944
0.5612178
0.5004664
0.4326497
0.6462319
0.6074033
0.5586009
0.4966407
0.4264552
0.6754861
0.6433058
0.6035972
0.553474
0.4893
0.4149056
0.6992536
0.6719754
0.6388886
0.5978918
0.5458261
0.4785937
0.3979429
0.7191014
0.6955728
0.667446
0.6331948
0.5905325
0.5361057
0.4650268
0.3757246
0.7363512
0.7158339
0.6916121
0.6625584
0.6270259
0.5826519
0.525738
0.4502547
0.3510443
0.7521794
0.7342301
0.7132824
0.6884986
0.6586906
0.6222188
0.5765839
0.517635
0.4386472
0.3315819
0.766732
0.7509797
0.7327865
0.7115262
0.6863323
0.6560582
0.619012
0.5724681
0.5121255
0.4307318
0.3125553
0.7799947
0.7661085
0.7502196
0.7318537
0.7103707
0.6849539
0.6544368
0.6169899
0.5698689
0.5086387
0.4220332
0.2985179
0.7920289
0.7797255
0.765764
0.7497806
0.7312942
0.7097137
0.6842146
0.6535346
0.6158624
0.5684157
0.5041338
0.4159147
0.2875498
0.8029546
0.7919985
0.7796577
0.7656493
0.7496061
0.7310923
0.709514
0.6839739
0.6532386
0.615489
0.5660487
0.5012009
0.4113534
0.2787733
0.8129137
0.8031129
0.7921464
0.7797917
0.7657646
0.7497391
0.7312788
0.7097314
0.6842308
0.6535472
0.6144147
0.5648176
0.4992289
0.408016
0.2713158
0.8220537
0.8132533
0.8034648
0.7925117
0.7801713
0.7661971
0.7502633
0.7318855
0.7104424
0.6850763
0.653407
0.6143048
0.5643341
0.4980338
0.4054032
0.2615774
0.8305216
0.8225978
0.8138323
0.8040838
0.7931766
0.7809224
0.7670756
0.7512706
0.7330528
0.711812
0.6857513
0.6542262
0.6149517
0.5645294
0.4971862
0.4007361
0.2530635
0.8384446
0.8312982
0.8234326
0.8147341
0.8050633
0.7942758
0.7821849
0.7685118
0.7529198
0.7349671
0.7132772
0.6875168
0.656104
0.6167303
0.5654251
0.4928839
0.3946714
0.2430365
0.84585
0.8393936
0.8323211
0.8245408
0.8159415
0.8064115
0.7958085
0.7839183
0.7704888
0.7551965
0.7370068
0.7159201
0.6910249
0.6612257
0.62505
0.8525458
0.8466824
0.8402864
0.833283
0.8255821
0.8170963
0.8077151
0.7972706
0.7855698
0.7723694
0.7568593
0.7391752
0.7186997
0.6947254
0.6662914
0.8585126
0.8531531
0.8473282
0.8409758
0.8340219
0.8263968
0.8180131
0.8087362
0.7984147
0.7868606
0.7734141
0.7582604
0.7409455
0.7209708
0.6976696
0.8638193
0.858889
0.8535476
0.8477429
0.8414132
0.834502
0.8269388
0.8186132
0.8094043
0.7991629
0.7873367
0.7741279
0.7591878
0.7421504
0.722537
0.8685514
0.8639885
0.8590594
0.8537191
0.8479154
0.8416019
0.8347208
0.8271801
0.8188807
0.8097022
0.7991722
0.7874969
0.7743999
0.7596038
0.7427527
0.64764
0.6091735
0.5609086
0.4998495
0.4315495
0.677791
0.6461353
0.6071636
0.558139
0.495816
0.4253401
0.7021004
0.6754064
0.6431126
0.6032356
0.5528501
0.4884564
0.4139375
0.7221438
0.6991861
0.6718146
0.6385945
0.5973989
0.5451823
0.4778578
0.3969046
0.7390863
0.7190426
0.6954349
0.6671983
0.6327891
0.5900184
0.5355372
0.464234
0.3745626
0.7539631
0.736299
0.7157129
0.6913979
0.6622142
0.6266
0.5821922
0.5251184
0.4493719
0.3496841
0.7677373
0.7521339
0.7341259
0.7131005
0.6882111
0.6583421
0.6218527
0.5761076
0.5169889
0.4377169
0.3244211
0.7805079
0.7666925
0.7508902
0.732632
0.7112856
0.6860459
0.6557644
0.6186415
0.5719857
0.5114696
0.4261136
0.3051659
0.7922368
0.7799602
0.766031
0.7500872
0.7316501
0.7101321
0.684714
0.6541418
0.6166178
0.569384
0.5054276
0.4177246
0.2903679
0.8029546
0.7919985
0.7796577
0.7656493
0.7496061
0.7310923
0.709514
0.6839739
0.6532386
0.615489
0.5660487
0.5012009
0.4113534
0.2787733
0.8127473
0.8029276
0.7919387
0.7795572
0.7654979
0.7494328
0.7309233
0.7093136
0.6837322
0.6529413
0.6136645
0.5638872
0.4980617
0.4064972
0.269194
0.8217252
0.8128894
0.8030596
0.7920575
0.7796588
0.765614
0.7495939
0.7311088
0.7095296
0.6839874
0.6520903
0.6127219
0.5624407
0.4957717
0.402666
0.2584271
0.8300081
0.8220318
0.8132053
0.8033855
0.792394
0.7800391
0.7660706
0.7501167
0.7317138
0.7102384
0.6838787
0.6520104
0.6123586
0.5615694
0.4939836
0.3979291
0.2503978
0.8377188
0.8305017
0.8225545
0.8137611
0.8039789
0.7930595
0.7808113
0.7669478
0.7511224
0.7328791
0.7108073
0.684556
0.652535
0.6125192
0.560953
0.4907929
0.3932069
0.2418884
0.8449653
0.8384266
0.8312593
0.8233689
0.8146408
0.80496
0.7941785
0.7820742
0.7683847
0.7527725
0.7341278
0.7122883
0.6861014
0.6539644
0.6132208
0.5577838
0.4866716
0.3872651
0.2333186
0.8517665
0.8458342
0.8393595
0.8322655
0.8244598
0.8158523
0.8063288
0.7957159
0.7838138
0.77037
0.7545332
0.7363797
0.7152312
0.6903165
0.6606472
0.8579395
0.8525317
0.846652
0.8402371
0.8332114
0.8255037
0.8170244
0.8076355
0.7971819
0.7854703
0.7718222
0.7564064
0.7387508
0.7183406
0.694496
0.8634592
0.8584997
0.8531255
0.8472836
0.8409115
0.8339518
0.826333
0.817943
0.8086587
0.7983285
0.7863917
0.7730465
0.7579372
0.7406905
0.7208188
0.8683835
0.8638075
0.8588638
0.853507
0.8476846
0.8413498
0.8344445
0.826876
0.8185443
0.8093282
0.7987521
0.7870214
0.7738574
0.7589799
0.7420295
0.8727865
0.8685405
0.8639653
0.8590221
0.8536657
0.8478576
0.8415497
0.834664
0.8271181
0.8188126
0.8093369
0.7988948
0.7872617
0.7742214
0.7595014
0.6789406
0.6475443
0.6089363
0.5604524
0.4990374
0.4304586
0.7040172
0.6777127
0.6459457
0.6068098
0.5575308
0.4949984
0.4244152
0.7245467
0.7020345
0.6752499
0.6428273
0.6027594
0.5522314
0.4877567
0.4129737
0.7416861
0.7220871
0.6990534
0.6715769
0.6382068
0.59691
0.5446478
0.4771245
0.3958692
0.7563249
0.7390363
0.7189271
0.695231
0.6668717
0.6323868
0.5895898
0.5349685
0.4634406
0.3733977
0.769292
0.7539182
0.7361962
0.7155338
0.6911153
0.6618725
0.6262421
0.5817288
0.5244937
0.4484811
0.3429871
0.7813916
0.7676979
0.7520445
0.7339717
0.7128605
0.6879257
0.6580494
0.6214835
0.5756274
0.5163373
0.4331499
0.3168684
0.7926914
0.7804734
0.7666149
0.7507576
0.7324282
0.7110468
0.6858058
0.6554689
0.6182687
0.5715001
0.5082565
0.4216854
0.2965923
0.80314
0.7922064
0.7798923
0.7659162
0.7499125
0.731448
0.7099322
0.684473
0.6538452
0.6162437
0.567013
0.5024519
0.4130465
0.2812912
0.8127473
0.8029276
0.7919387
0.7795572
0.7654979
0.7494328
0.7309233
0.7093136
0.6837322
0.6529413
0.6136645
0.5638872
0.4980617
0.4064972
0.269194
0.8215751
0.8127231
0.8028743
0.7918499
0.7794246
0.7653475
0.7492879
0.7307537
0.7091123
0.6834895
0.6514887
0.611999
0.5615741
0.4947265
0.4013702
0.2568573
0.8297102
0.8217034
0.8128416
0.8029805
0.7919401
0.7795269
0.765488
0.749448
0.7309379
0.7093269
0.6827976
0.6507422
0.6108892
0.5598928
0.4921036
0.3959692
0.2483207
0.8372509
0.8299883
0.8219886
0.8131343
0.8032807
0.7922771
0.7799282
0.7659433
0.7499693
0.731541
0.7092402
0.6827373
0.6504586
0.6102247
0.5585834
0.4888683
0.3914614
0.2403366
0.8443011
0.8377007
0.8304625
0.8224903
0.813667
0.8038746
0.7929612
0.7806992
0.7668192
0.7509732
0.7320272
0.7098097
0.6831717
0.6505927
0.609756
0.556239
0.4856565
0.3863956
0.2326452
0.8509536
0.8449489
0.8383912
0.8312016
0.8232847
0.8145481
0.8048732
0.7940805
0.7819626
0.7682566
0.7520506
0.7332881
0.711105
0.6843472
0.6511582
0.6073141
0.5532191
0.4816348
0.3811044
0.2256103
0.8572208
0.851752
0.8458029
0.8393088
0.832192
0.8243792
0.815778
0.8062462
0.7956233
0.7837094
0.7697924
0.7539931
0.7357938
0.7146378
0.6898408
0.862929
0.8579265
0.8525037
0.8466068
0.8401718
0.8331402
0.8254388
0.8169528
0.8075563
0.7970936
0.7849888
0.7714274
0.7560404
0.7384449
0.7181481
0.8680493
0.8634473
0.8584743
0.8530846
0.8472248
0.8408476
0.8338939
0.8262696
0.8178733
0.8085817
0.7979124
0.7860681
0.7727645
0.7577171
0.7405609
0.8726303
0.8683725
0.8637842
0.8588264
0.8534533
0.8476265
0.8412974
0.8343875
0.8268137
0.8184759
0.8089609
0.7984722
0.7867832
0.7736759
0.7588754
0.8767369
0.8727764
0.8685189
0.8639308
0.8589728
0.8536125
0.8478098
0.8414979
0.8346077
0.8270565
0.818484
0.8090889
0.798686
0.7871044
0.7741319
0.7049743
0.6788629
0.6473566
0.6085863
0.5598516
0.4982323
0.4295539
0.726167
0.7039524
0.6775589
0.6456659
0.6063438
0.5569276
0.4943206
0.423495
0.7437426
0.7244914
0.7019051
0.6750188
0.6424513
0.6022871
0.5517186
0.4870605
0.4120144
0.7585731
0.7416378
0.7219757
0.6988572
0.6712637
0.6378223
0.5965043
0.5441154
0.4763939
0.3948367
0.7713527
0.7562819
0.7389381
0.7187562
0.6949621
0.6665477
0.6320515
0.5891613
0.5343996
0.4626466
0.3677169
0.782759
0.769253
0.7538299
0.7360442
0.7152974
0.6908348
0.6615855
0.6258815
0.5812617
0.5238637
0.4441086
0.3358355
0.7934744
0.7813571
0.7676202
0.751912
0.7337682
0.7126222
0.6876859
0.6577542
0.6211113
0.5751431
0.5131404
0.4285827
0.3077104
0.8035455
0.7926609
0.7804053
0.7664998
0.7505826
0.7322259
0.7108466
0.6855641
0.6551715
0.6178935
0.5691222
0.5051892
0.4167462
0.2868163
0.8129137
0.8031129
0.7921464
0.7797917
0.7657646
0.7497391
0.7312788
0.7097314
0.6842308
0.6535472
0.6144147
0.5648176
0.4992289
0.408016
0.2713158
0.8215751
0.8127231
0.8028743
0.7918499
0.7794246
0.7653475
0.7492879
0.7307537
0.7091123
0.6834895
0.6514887
0.611999
0.5615741
0.4947265
0.4013702
0.2568573
0.8295741
0.8215533
0.8126754
0.8027953
0.7917327
0.7792928
0.7652217
0.7491423
0.7305833
0.7089102
0.6823038
0.650163
0.6102167
0.559118
0.4912123
0.3949763
0.2472174
0.8369795
0.8296904
0.8216604
0.8127708
0.802876
0.7918235
0.7794164
0.7653614
0.7493014
0.7307663
0.7083358
0.6816968
0.6492825
0.6089252
0.5571917
0.4875207
0.3900761
0.2390121
0.8438731
0.8372328
0.8299492
0.8219246
0.8130404
0.8031766
0.7921791
0.7798167
0.7658154
0.749821
0.7306955
0.7082888
0.681469
0.6487577
0.6079218
0.5548171
0.4844463
0.3852348
0.2316846
0.8503436
0.8442846
0.837665
0.8304044
0.8224055
0.8135735
0.803787
0.7928621
0.7805864
0.7666895
0.7502413
0.7311814
0.7086545
0.6815824
0.6483883
0.6061196
0.5524651
0.4810163
0.3804778
0.2251532
0.8564715
0.8509386
0.8449166
0.8383387
0.8311253
0.8232011
0.8144703
0.8047858
0.7939817
0.7818501
0.7676288
0.7513282
0.7322834
0.7096391
0.6820486
0.6464441
0.6038004
0.5495295
0.4774515
0.3760223
0.2195888
0.8622642
0.8572075
0.8517233
0.8457566
0.8392418
0.8321189
0.8243122
0.8157038
0.8061636
0.7955308
0.7832018
0.7693222
0.7534885
0.7352892
0.7142394
0.8675574
0.8629169
0.8579007
0.8524622
0.846547
0.8401069
0.8330813
0.8253741
0.8168817
0.8074775