/*--------------------------------*- C++ -*----------------------------------*\
| =========                 |                                                 |
| \\      /  F ield         | OpenFOAM: The Open Source CFD Toolbox           |
|  \\    /   O peration     | Version:  2306                                  |
|   \\  /    A nd           | Website:  www.openfoam.com                      |
|    \\/     M anipulation  |                                                 |
\*---------------------------------------------------------------------------*/
FoamFile
{
    version     2.0;
    format      ascii;
    arch        "LSB;label=32;scalar=64";
    class       volScalarField;
    location    "0.3/fuel";
    object      iDmdtfuel.H2O;
}
// * * * * * * * * * * * * * * * * * * * * * * * * * * * * * * * * * * * * * //

dimensions      [1 -3 -1 0 0 0 0];

internalField   nonuniform List<scalar> 
16000
(
102.3522
103.1288
92.35377
97.42779
104.6706
92.83801
98.14096
83.53397
88.17764
93.95361
106.9704
93.77513
99.55507
83.89224
88.62488
94.62464
76.42934
79.97194
85.20786
91.79866
109.9135
95.11903
101.6621
84.57782
89.48959
95.95446
76.71602
80.30449
85.63001
92.44609
70.56709
73.33252
77.42374
83.34405
90.83604
113.0031
96.73588
104.3549
85.54227
90.72895
97.93545
77.26082
80.94029
86.44576
93.72934
70.80625
73.59968
77.73858
83.75154
91.47582
65.59246
67.83427
71.10773
75.81152
82.48899
0
115.2197
98.28361
107.1772
86.6651
92.21904
100.4676
78.01701
81.83438
87.61482
95.64232
71.25874
74.10695
78.3402
84.5389
92.74492
65.7971
68.05787
71.36132
76.11575
82.89086
0
61.2845
63.1542
65.86473
69.69269
75.06038
0
0
116.5106
99.28329
109.192
87.68298
93.64412
103.1222
78.87684
82.87482
89.02051
98.09133
71.88053
74.8108
79.18614
85.6677
94.63977
66.18319
68.48059
71.84256
76.69698
83.66764
0
61.46291
63.34606
66.07746
69.93802
75.3602
0
0
57.49411
59.0904
61.39256
64.60745
69.02788
0
0
0
117.1754
99.7916
110.3589
88.28812
94.56127
105.0107
79.62516
83.81731
90.36486
100.665
72.57471
75.61073
80.17056
87.02613
97.07268
66.70955
69.06123
72.51019
77.51443
84.7822
0
61.79892
63.70776
66.47937
70.40347
75.93312
0
0
57.65192
59.25809
61.57545
64.81349
69.26965
0
0
0
54.11949
55.50625
57.50196
60.26499
64.01398
0
0
0
0
117.45
100.0152
110.9565
88.55366
95.02555
106.1006
80.0395
84.37591
91.22718
102.4924
73.15922
76.30628
81.06206
88.32659
99.64031
67.28858
69.7091
73.26887
78.46618
86.12552
0
62.25413
64.20065
67.03134
71.04929
76.73929
0
0
57.94888
59.57365
61.92002
65.20267
69.72839
0
0
0
54.26061
55.6549
57.66207
60.44233
64.21708
0
0
0
0
51.08721
52.30829
54.06469
56.4832
59.73131
0
0
0
0
0
117.45
100.0944
111.2022
88.64379
95.22864
106.6572
80.1944
84.61998
91.66227
103.5462
73.46243
76.6901
81.58861
89.15837
101.4631
67.7628
70.25391
73.92811
79.32834
87.41392
0
62.74885
64.74245
67.64703
71.78335
77.67876
0
0
58.34913
60.00093
62.38946
65.73716
70.36511
0
0
0
54.52606
55.9344
57.96322
60.77634
64.60071
0
0
0
0
51.21454
52.44148
54.20685
56.63861
59.90618
0
0
0
0
0
48.34128
49.42907
50.99297
53.13869
56.00031
0
0
0
0
0
0
117.1754
100.0944
111.2022
88.66472
95.30016
106.8855
80.22691
84.70218
91.85197
104.0843
73.55626
76.83274
81.81776
89.57727
102.5158
67.99425
70.53535
74.29043
79.8357
88.236
0
63.14461
65.18544
68.16423
72.42102
78.5304
0
0
58.7798
60.46489
62.90524
66.33338
71.08924
0
0
0
54.88237
56.31092
58.37086
61.23138
65.12772
0
0
0
0
51.45409
52.69182
54.47401
56.93082
60.23554
0
0
0
0
0
48.45702
49.54945
51.12053
53.27681
56.15362
0
0
0
0
0
0
45.83862
46.81696
48.22342
50.14704
52.69948
0
0
0
0
0
0
0
116.5106
100.0152
110.9565
88.66472
95.30016
106.8855
80.22369
84.72095
91.91855
104.3052
73.55879
76.86203
81.89445
89.75983
103.0551
68.05098
70.62153
74.42421
80.05571
88.64983
0
63.32708
65.40049
68.43007
72.76989
79.02963
0
0
59.11757
60.83526
63.32632
66.83384
71.71826
0
0
0
55.26261
56.71563
58.81322
61.73128
65.7158
0
0
0
0
51.77455
53.02766
54.83377
57.32634
60.68432
0
0
0
0
0
48.67489
49.77578
51.36017
53.53629
56.44188
0
0
0
0
0
0
45.94451
46.92657
48.33887
50.27107
52.83579
0
0
0
0
0
0
0
43.54465
44.43224
45.70745
47.44727
49.74576
0
0
0
0
0
0
0
0
115.2197
99.7916
110.3589
88.64379
95.22864
106.6572
80.22369
84.72095
91.91855
104.3052
73.54363
76.85859
81.91173
89.82394
103.2772
68.03663
70.62295
74.45108
80.12907
88.83061
0
63.3601
65.45216
68.51053
72.89784
79.24544
0
0
59.26535
61.00486
63.52948
67.08963
72.06064
0
0
0
55.55589
57.03224
59.16568
62.13891
66.20914
0
0
0
0
52.11419
53.38564
55.2202
57.75544
61.17745
0
0
0
0
0
48.96555
50.07837
51.68151
53.88568
56.83209
0
0
0
0
0
0
46.14398
47.13277
48.55581
50.50404
53.09186
0
0
0
0
0
0
0
43.64203
44.53267
45.8127
47.55963
49.86822
0
0
0
0
0
0
0
0
41.43261
42.24292
43.40764
44.99265
47.07921
0
0
0
0
0
0
0
0
0
113.0031
99.28329
109.192
88.55366
95.02555
106.1006
80.22691
84.70218
91.85197
104.0843
73.54363
76.85859
81.91173
89.82394
103.2772
68.01524
70.60836
74.4474
80.14549
88.89436
0
63.33598
65.43776
68.51097
72.92301
79.31727
0
0
59.28289
61.0344
63.57725
67.16612
72.18535
0
0
0
55.67828
57.16961
59.32586
62.33424
66.45973
0
0
0
0
52.37249
53.66096
55.52182
58.0968
61.57917
0
0
0
0
0
49.27184
50.39866
52.02376
54.26082
57.25546
0
0
0
0
0
0
46.40947
47.40767
48.84572
50.81638
53.43669
0
0
0
0
0
0
0
43.82563
44.72176
46.01059
47.77071
50.09821
0
0
0
0
0
0
0
0
41.52244
42.33542
43.50418
45.09515
47.19018
0
0
0
0
0
0
0
0
0
39.47989
40.22425
41.2938
42.74715
44.65388
0
0
0
0
0
0
0
0
0
0
109.9135
98.28361
107.1772
88.28812
94.56127
105.0107
80.1944
84.61998
91.66227
103.5462
73.55879
76.86203
81.89445
89.75983
103.0551
68.01524
70.60836
74.4474
80.14549
88.89436
0
63.3114
65.41727
68.49667
72.91911
79.33333
0
0
59.25326
61.01076
63.56261
67.1657
72.20939
0
0
0
55.68554
57.18465
59.35262
62.37917
66.53371
0
0
0
0
52.47576
53.77471
55.65151
58.2507
61.77027
0
0
0
0
0
49.50206
50.64148
52.28631
54.55309
57.59185
0
0
0
0
0
0
46.68777
47.69698
49.15232
51.1489
53.80693
0
0
0
0
0
0
0
44.06932
44.97325
46.2743
48.05273
50.4066
0
0
0
0
0
0
0
0
41.69194
42.5097
43.68586
45.28785
47.39865
0
0
0
0
0
0
0
0
0
39.5631
40.30969
41.3828
42.84124
44.75515
0
0
0
0
0
0
0
0
0
0
37.66868
38.35528
39.3426
40.68168
42.43437
0
0
0
0
0
0
0
0
0
0
106.9704
96.73588
104.3549
87.68298
93.64412
103.1222
80.0395
84.37591
91.22718
102.4924
73.55626
76.83274
81.81776
89.57727
102.5158
68.03663
70.62295
74.45108
80.12907
88.83061
0
63.3114
65.41727
68.49667
72.91911
79.33333
0
0
59.22726
60.98719
63.54266
67.15149
72.20526
0
0
0
55.65303
57.15577
59.32914
62.36414
66.5325
0
0
0
0
52.47609
53.78013
55.6645
58.27534
61.81324
0
0
0
0
0
49.59062
50.73746
52.39366
54.67761
57.74225
0
0
0
0
0
0
46.89449
47.91369
49.3841
51.40344
54.09496
0
0
0
0
0
0
0
44.32357
45.2365
46.55155
48.35083
50.73487
0
0
0
0
0
0
0
0
41.9167
42.74088
43.92738
45.54458
47.67719
0
0
0
0
0
0
0
0
0
39.72043
40.4708
41.55045
43.01828
44.94553
0
0
0
0
0
0
0
0
0
0
37.74611
38.43451
39.42488
40.76848
42.52736
0
0
0
0
0
0
0
0
0
0
35.98327
36.61949
37.53421
38.77378
40.39209
0
0
0
0
0
0
0
0
0
0
104.6706
95.11903
101.6621
86.6651
92.21904
100.4676
79.62516
83.81731
90.36485
100.665
73.46243
76.6901
81.58861
89.15837
101.4631
68.05098
70.62153
74.42421
80.05571
88.64983
0
63.33598
65.43776
68.51097
72.92301
79.31727
0
0
59.22726
60.98719
63.54266
67.15149
72.20526
0
0
0
55.62668
57.1308
59.30621
62.34442
66.51815
0
0
0
0
52.44229
53.74848
55.63599
58.25174
61.79764
0
0
0
0
0
49.58615
50.73638
52.39752
54.68898
57.76533
0
0
0
0
0
0
46.97114
47.99597
49.47463
51.50644
54.21654
0
0
0
0
0
0
0
44.51109
45.43132
46.7586
48.57566
50.98576
0
0
0
0
0
0
0
0
42.15071
42.9817
44.17994
45.81434
47.97159
0
0
0
0
0
0
0
0
0
39.92889
40.6843
41.77269
43.25358
45.19919
0
0
0
0
0
0
0
0
0
0
37.89274
38.58425
39.58
40.93196
42.70234
0
0
0
0
0
0
0
0
0
0
36.05557
36.6933
37.61059
38.85408
40.47791
0
0
0
0
0
0
0
0
0
0
34.41082
35.00227
35.85307
37.00434
38.50499
0
0
0
0
0
0
0
0
0
0
103.1288
93.77513
99.55507
85.54227
90.72895
97.93545
78.87684
82.87482
89.02051
98.09133
73.15922
76.30628
81.06206
88.32659
99.64031
67.99425
70.53535
74.29043
79.8357
88.236
0
63.3601
65.45216
68.51053
72.89784
79.24544
0
0
59.25326
61.01076
63.56261
67.1657
72.20939
0
0
0
55.62668
57.1308
59.30621
62.34442
66.51815
0
0
0
0
52.41621
53.72314
55.61169
58.22912
61.77786
0
0
0
0
0
49.55193
50.70348
52.36635
54.6605
57.74133
0
0
0
0
0
0
46.96345
47.99041
49.47234
51.50902
54.22664
0
0
0
0
0
0
0
44.57876
45.50252
46.8362
48.66248
51.08625
0
0
0
0
0
0
0
0
42.32227
43.15864
44.36623
46.0153
48.19324
0
0
0
0
0
0
0
0
0
40.14539
40.90624
42.00396
43.49948
45.46569
0
0
0
0
0
0
0
0
0
0
38.08685
38.78251
39.78546
41.14863
42.93491
0
0
0
0
0
0
0
0
0
0
36.19272
36.83302
37.7549
39.00544
40.63954
0
0
0
0
0
0
0
0
0
0
34.47852
35.07127
35.92428
37.07892
38.5844
0
0
0
0
0
0
0
0
0
0
32.93977
33.49171
34.28532
35.35837
36.75428
0
0
0
0
0
0
0
0
0
0
102.3522
92.83801
98.14096
84.57782
89.48959
95.95446
78.01701
81.83438
87.61482
95.64232
72.57471
75.61073
80.17056
87.02613
97.07268
67.7628
70.25391
73.92811
79.32834
87.41392
0
63.32708
65.40049
68.43007
72.76989
79.02963
0
0
59.28289
61.0344
63.57725
67.16612
72.18535
0
0
0
55.65303
57.15577
59.32914
62.36414
66.5325
0
0
0
0
52.41621
53.72314
55.61169
58.22912
61.77786
0
0
0
0
0
49.52642
50.67836
52.34166
54.63653
57.71869
0
0
0
0
0
0
46.92964
47.95709
49.43996
51.47797
54.19786
0
0
0
0
0
0
0
44.5692
45.49395
46.82966
48.65915
51.08778
0
0
0
0
0
0
0
0
42.38277
43.2215
44.43335
46.08968
48.27789
0
0
0
0
0
0
0
0
0
40.30334
41.06831
42.17331
43.68039
45.66385
0
0
0
0
0
0
0
0
0
0
38.28805
38.9881
39.9988
41.37394
43.17791
0
0
0
0
0
0
0
0
0
0
36.37417
37.01785
37.94587
39.20587
40.85375
0
0
0
0
0
0
0
0
0
0
34.60713
35.2021
36.05905
37.21982
38.7341
0
0
0
0
0
0
0
0
0
0
33.00328
33.55636
34.35194
35.42795
36.82805
0
0
0
0
0
0
0
0
0
0
31.56047
32.07698
32.81969
33.8225
35.12522
0
0
0
0
0
0
0
0
0
0
92.35377
97.42779
83.89224
88.62488
94.62464
77.26082
80.94029
86.44576
93.72934
71.88053
74.8108
79.18614
85.6677
94.63977
67.28858
69.7091
73.26887
78.46618
86.12552
0
63.14461
65.18544
68.16423
72.42102
78.5304
0
0
59.26535
61.00486
63.52948
67.08963
72.06064
0
0
0
55.68554
57.18465
59.35262
62.37917
66.53371
0
0
0
0
52.44229
53.74848
55.63599
58.25174
61.79764
0
0
0
0
0
49.52642
50.67836
52.34166
54.63653
57.71869
0
0
0
0
0
0
46.90501
47.93248
49.41546
51.45361
54.17391
0
0
0
0
0
0
0
44.53629
45.46101
46.79688
48.62694
51.05651
0
0
0
0
0
0
0
0
42.37215
43.21122
44.42399
46.08228
48.27368
0
0
0
0
0
0
0
0
0
40.35803
41.12453
42.23255
43.74469
45.73634
0
0
0
0
0
0
0
0
0
0
38.43428
39.13749
40.15406
41.53849
43.35634
0
0
0
0
0
0
0
0
0
0
0
36.56195
37.20914
38.14368
39.41384
41.07648
0
0
0
0
0
0
0
0
0
0
34.77716
35.37508
36.23725
37.40623
38.93231
0
0
0
0
0
0
0
0
0
0
33.12415
33.67919
34.47825
35.55961
36.96743
0
0
0
0
0
0
0
0
0
0
31.62019
32.1377
32.88217
33.88762
35.19406
0
0
0
0
0
0
0
0
0
0
30.26478
30.74911
31.44591
32.38586
33.60469
0
0
0
0
0
0
0
0
0
0
83.53397
88.17764
93.95361
76.71602
80.30449
85.63001
92.44609
71.25874
74.10695
78.3402
84.5389
92.74492
66.70955
69.06123
72.51019
77.51443
84.7822
0
62.74885
64.74245
67.64703
71.78335
77.67876
0
0
59.11757
60.83526
63.32632
66.83384
71.71826
0
0
0
55.67828
57.16961
59.32586
62.33424
66.45973
0
0
0
0
52.47609
53.78013
55.6645
58.27534
61.81324
0
0
0
0
0
49.55193
50.70348
52.36635
54.6605
57.74133
0
0
0
0
0
0
46.90501
47.93248
49.41546
51.45361
54.17391
0
0
0
0
0
0
0
44.51271
45.43721
46.77285
48.60277
51.03219
0
0
0
0
0
0
0
0
42.34045
43.17913
44.39156
46.04969
48.2413
0
0
0
0
0
0
0
0
0
40.34692
41.11331
42.2216
43.7346
45.72818
0
0
0
0
0
0
0
0
0
0
38.4842
39.18834
40.20705
41.59523
43.41898
0
0
0
0
0
0
0
0
0
0
0
36.69787
37.34761
38.28691
39.56479
41.23882
0
0
0
0
0
0
0
0
0
0
0
0
34.9527
35.55381
36.42146
37.59918
39.13796
0
0
0
0
0
0
0
0
0
0
33.28373
33.84145
34.64516
35.73365
37.15185
0
0
0
0
0
0
0
0
0
0
31.73396
32.25324
33.00084
34.01109
35.32435
0
0
0
0
0
0
0
0
0
0
30.32098
30.80625
31.50463
32.44696
33.66914
0
0
0
0
0
0
0
0
0
0
29.04392
29.50048
30.15546
31.03851
32.18199
0
0
0
0
0
0
0
0
0
0
76.42934
79.97194
85.20786
91.79866
70.80625
73.59968
77.73858
83.75154
91.47582
66.18319
68.48059
71.84256
76.69698
83.66764
0
62.25413
64.20065
67.03134
71.04929
76.73929
0
0
58.7798
60.46489
62.90524
66.33338
71.08924
0
0
0
55.55589
57.03224
59.16568
62.13891
66.20914
0
0
0
0
52.47576
53.77471
55.65151
58.2507
61.77027
0
0
0
0
0
49.58615
50.73638
52.39752
54.68898
57.76533
0
0
0
0
0
0
46.92964
47.95709
49.43996
51.47797
54.19786
0
0
0
0
0
0
0
44.51271
45.43721
46.77285
48.60277
51.03219
0
0
0
0
0
0
0
0
42.31798
43.15631
44.36831
46.02598
48.21718
0
0
0
0
0
0
0
0
0
40.31656
41.08236
42.19001
43.70238
45.69547
0
0
0
0
0
0
0
0
0
0
38.47288
39.17669
40.19525
41.58366
43.40823
0
0
0
0
0
0
0
0
0
0
0
36.74336
37.39404
38.33486
39.61555
41.29409
0
0
0
0
0
0
0
0
0
0
0
0
35.07921
35.68265
36.55433
37.73851
39.28693
0
0
0
0
0
0
0
0
0
0
0
0
0
33.44812
34.0087
34.81742
35.91344
37.3427
0
0
0
0
0
0
0
0
0
0
31.88405
32.40568
33.15754
34.1742
35.49658
0
0
0
0
0
0
0
0
0
0
30.42817
30.91511
31.61635
32.56302
33.79135
0
0
0
0
0
0
0
0
0
0
29.09669
29.5543
30.21075
31.09597
32.24249
0
0
0
0
0
0
0
0
0
0
27.89147
28.32284
28.94112
29.77223
30.84737
0
0
0
0
0
0
0
0
0
0
70.56709
73.33252
77.42374
83.34405
90.83604
65.7971
68.05787
71.36132
76.11575
82.89086
0
61.79892
63.70776
66.47937
70.40347
75.93312
0
0
58.34913
60.00093
62.38946
65.73716
70.36511
0
0
0
55.26261
56.71563
58.81322
61.73128
65.7158
0
0
0
0
52.37249
53.66096
55.52182
58.0968
61.57917
0
0
0
0
0
49.59062
50.73746
52.39366
54.67761
57.74225
0
0
0
0
0
0
46.96345
47.99041
49.47234
51.50902
54.22664
0
0
0
0
0
0
0
44.53629
45.46101
46.79688
48.62694
51.05651
0
0
0
0
0
0
0
0
42.31798
43.15631
44.36831
46.02598
48.21718
0
0
0
0
0
0
0
0
0
40.29523
41.0606
42.1677
43.67943
45.67181
0
0
0
0
0
0
0
0
0
0
38.44385
39.14704
40.16477
41.55227
43.37591
0
0
0
0
0
0
0
0
0
0
0
36.73184
37.38226
38.3227
39.6032
41.28193
0
0
0
0
0
0
0
0
0
0
0
0
35.12125
35.72498
36.59814
37.78445
39.33636
0
0
0
0
0
0
0
0
0
0
0
0
0
33.56663
34.12873
34.94116
36.04277
37.48024
0
0
0
0
0
0
0
0
0
0
0
0
0
0
32.03875
32.56245
33.31886
34.34242
35.67446
0
0
0
0
0
0
0
0
0
0
30.56958
31.0586
31.76365
32.71622
33.9528
0
0
0
0
0
0
0
0
0
0
29.19766
29.65694
30.31608
31.20527
32.35739
0
0
0
0
0
0
0
0
0
0
27.94136
28.3734
28.99322
29.82636
30.90426
0
0
0
0
0
0
0
0
0
0
26.80278
27.21014
27.79496
28.58005
29.59272
0
0
0
0
0
0
0
0
0
0
65.59246
67.83427
71.10773
75.81152
82.48899
0
61.46291
63.34606
66.07745
69.93802
75.3602
0
0
57.94888
59.57365
61.92002
65.20267
69.72839
0
0
0
54.88237
56.31092
58.37086
61.23138
65.12772
0
0
0
0
52.11419
53.38564
55.2202
57.75544
61.17745
0
0
0
0
0
49.50206
50.64148
52.28631
54.55309
57.59185
0
0
0
0
0
0
46.97114
47.99597
49.47463
51.50644
54.21654
0
0
0
0
0
0
0
44.5692
45.49395
46.82966
48.65915
51.08778
0
0
0
0
0
0
0
0
42.34045
43.17913
44.39156
46.04969
48.2413
0
0
0
0
0
0
0
0
0
40.29523
41.0606
42.1677
43.67943
45.67181
0
0
0
0
0
0
0
0
0
0
38.42355
39.12635
40.14347
41.53023
43.35302
0
0
0
0
0
0
0
0
0
0
0
36.70411
37.35388
38.29349
39.57292
41.25047
0
0
0
0
0
0
0
0
0
0
0
0
35.11007
35.71304
36.5859
37.77181
39.3235
0
0
0
0
0
0
0
0
0
0
0
0
0
33.60586
34.16788
34.9811
36.08475
37.52498
0
0
0
0
0
0
0
0
0
0
0
0
0
0
32.1501
32.67501
33.43421
34.46292
35.80217
0
0
0
0
0
0
0
0
0
0
0
0
0
0
0
30.71505
31.20628
31.91498
32.87384
34.11928
0
0
0
0
0
0
0
0
0
0
29.33098
29.79226
30.45484
31.34937
32.50907
0
0
0
0
0
0
0
0
0
0
28.03703
28.47016
29.09259
29.92946
31.01251
0
0
0
0
0
0
0
0
0
0
26.85005
27.25798
27.84394
28.63107
29.64633
0
0
0
0
0
0
0
0
0
0
25.77466
26.15808
26.71126
27.45426
28.4112
0
0
0
0
0
0
0
0
0
0
61.2845
63.1542
65.86473
69.69269
75.06038
0
0
57.65192
59.25809
61.57545
64.81349
69.26965
0
0
0
54.52606
55.9344
57.96322
60.77634
64.60071
0
0
0
0
51.77455
53.02766
54.83377
57.32634
60.68432
0
0
0
0
0
49.27184
50.39866
52.02376
54.26082
57.25546
0
0
0
0
0
0
46.89449
47.91369
49.3841
51.40344
54.09496
0
0
0
0
0
0
0
44.57876
45.50252
46.8362
48.66248
51.08625
0
0
0
0
0
0
0
0
42.37215
43.21122
44.42399
46.08228
48.27368
0
0
0
0
0
0
0
0
0
40.31656
41.08236
42.19001
43.70238
45.69547
0
0
0
0
0
0
0
0
0
0
38.42355
39.12635
40.14347
41.53023
43.35302
0
0
0
0
0
0
0
0
0
0
0
36.68487
37.33417
38.27323
39.55187
41.22848
0
0
0
0
0
0
0
0
0
0
0
0
35.08383
35.68591
36.55793
37.74278
39.29315
0
0
0
0
0
0
0
0
0
0
0
0
0
33.59514
34.15632
34.96875
36.07208
37.51188
0
0
0
0
0
0
0
0
0
0
0
0
0
0
32.18664
32.71158
33.47117
34.5012
35.84306
0
0
0
0
0
0
0
0
0
0
0
0
0
0
0
30.81962
31.31213
32.02323
32.98623
34.23831
0
0
0
0
0
0
0
0
0
0
0
0
0
0
0
0
29.46829
29.93123
30.59748
31.49729
32.6651
0
0
0
0
0
0
0
0
0
0
28.16338
28.59782
29.22353
30.06526
31.15521
0
0
0
0
0
0
0
0
0
0
26.94088
27.34972
27.93766
28.72838
29.74845
0
0
0
0
0
0
0
0
0
0
25.81951
26.20344
26.75762
27.50224
28.46174
0
0
0
0
0
0
0
0
0
0
24.80132
25.16377
25.68594
26.38932
27.29521
0
0
0
0
0
0
0
0
0
0
57.49411
59.0904
61.39256
64.60745
69.02788
0
0
0
54.26061
55.6549
57.66207
60.44233
64.21708
0
0
0
0
51.45409
52.69182
54.47401
56.93082
60.23554
0
0
0
0
0
48.96555
50.07837
51.68151
53.88568
56.83209
0
0
0
0
0
0
46.68777
47.69698
49.15232
51.1489
53.80693
0
0
0
0
0
0
0
44.51109
45.43132
46.7586
48.57566
50.98576
0
0
0
0
0
0
0
0
42.38277
43.2215
44.43335
46.08968
48.27789
0
0
0
0
0
0
0
0
0
40.34692
41.11331
42.2216
43.7346
45.72818
0
0
0
0
0
0
0
0
0
0
38.44385
39.14704
40.16477
41.55227
43.37591
0
0
0
0
0
0
0
0
0
0
0
36.68487
37.33417
38.27323
39.55187
41.22848
0
0
0
0
0
0
0
0
0
0
0
0
35.06568
35.66721
36.53861
37.72275
39.27215
0
0
0
0
0
0
0
0
0
0
0
0
0
33.57031
34.13063
34.94199
36.04427
37.48279
0
0
0
0
0
0
0
0
0
0
0
0
0
0
32.17624
32.7005
33.45924
34.48846
35.82997
0
0
0
0
0
0
0
0
0
0
0
0
0
0
0
30.85382
31.34621
32.05779
33.02167
34.27559
0
0
0
0
0
0
0
0
0
0
0
0
0
0
0
0
29.56709
30.03072
30.69936
31.60281
32.77614
0
0
0
0
0
0
0
0
0
0
0
0
0
0
0
0
0
28.29354
28.7291
29.35784
30.20475
31.30166
0
0
0
0
0
0
0
0
0
0
27.06087
27.4708
28.06126
28.85657
29.88296
0
0
0
0
0
0
0
0
0
0
25.90586
26.29061
26.84654
27.59405
28.55815
0
0
0
0
0
0
0
0
0
0
24.84392
25.20683
25.72992
26.43475
27.34275
0
0
0
0
0
0
0
0
0
0
23.8784
24.22169
24.71631
25.38132
26.2393
0
0
0
0
0
0
0
0
0
0
54.11949
55.50625
57.50196
60.26499
64.01398
0
0
0
0
51.21454
52.44148
54.20685
56.63861
59.90618
0
0
0
0
0
48.67489
49.77578
51.36017
53.53629
56.44188
0
0
0
0
0
0
46.40947
47.40767
48.84572
50.81638
53.43669
0
0
0
0
0
0
0
44.32357
45.2365
46.55155
48.35083
50.73487
0
0
0
0
0
0
0
0
42.32227
43.15864
44.36623
46.0153
48.19324
0
0
0
0
0
0
0
0
0
40.35803
41.12453
42.23255
43.74469
45.73634
0
0
0
0
0
0
0
0
0
0
38.47288
39.17669
40.19525
41.58366
43.40823
0
0
0
0
0
0
0
0
0
0
0
36.70411
37.35388
38.29349
39.57292
41.25047
0
0
0
0
0
0
0
0
0
0
0
0
35.06568
35.66721
36.53861
37.72275
39.27215
0
0
0
0
0
0
0
0
0
0
0
0
0
33.55315
34.11297
34.92366
36.02517
37.4628
0
0
0
0
0
0
0
0
0
0
0
0
0
0
32.1527
32.67617
33.43389
34.46186
35.80211
0
0
0
0
0
0
0
0
0
0
0
0
0
0
0
30.84385
31.33548
32.04636
33.00937
34.26247
0
0
0
0
0
0
0
0
0
0
0
0
0
0
0
0
29.59949
30.06264
30.73158
31.63596
32.81067
0
0
0
0
0
0
0
0
0
0
0
0
0
0
0
0
0
28.38732
28.82318
29.45365
30.30411
31.40595
0
0
0
0
0
0
0
0
0
0
0
0
0
0
0
0
0
0
27.18455
27.59535
28.18821
28.98798
30.02111
0
0
0
0
0
0
0
0
0
0
26.01998
26.40569
26.96383
27.7151
28.68516
0
0
0
0
0
0
0
0
0
0
24.92611
25.28976
25.81445
26.52189
27.43372
0
0
0
0
0
0
0
0
0
0
23.91893
24.26261
24.75808
25.42443
26.28432
0
0
0
0
0
0
0
0
0
0
23.00207
23.32773
23.79708
24.42768
25.23962
0
0
0
0
0
0
0
0
0
0
51.08721
52.30829
54.06469
56.4832
59.73131
0
0
0
0
0
48.45702
49.54945
51.12053
53.27681
56.15362
0
0
0
0
0
0
46.14398
47.13277
48.55581
50.50404
53.09186
0
0
0
0
0
0
0
44.06932
44.97325
46.2743
48.05273
50.4066
0
0
0
0
0
0
0
0
42.15071
42.9817
44.17994
45.81434
47.97159
0
0
0
0
0
0
0
0
0
40.30334
41.06831
42.17331
43.68039
45.66385
0
0
0
0
0
0
0
0
0
0
38.4842
39.18834
40.20705
41.59523
43.41898
0
0
0
0
0
0
0
0
0
0
0
36.73184
37.38226
38.3227
39.6032
41.28193
0
0
0
0
0
0
0
0
0
0
0
0
35.08383
35.68591
36.55793
37.74278
39.29315
0
0
0
0
0
0
0
0
0
0
0
0
0
33.55315
34.11297
34.92366
36.02517
37.4628
0
0
0
0
0
0
0
0
0
0
0
0
0
0
32.13648
32.65946
33.41656
34.44372
35.78305
0
0
0
0
0
0
0
0
0
0
0
0
0
0
0
30.82154
31.3124
32.02234
32.98417
34.23582
0
0
0
0
0
0
0
0
0
0
0
0
0
0
0
0
29.59021
30.05236
30.72053
31.62419
32.79802
0
0
0
0
0
0
0
0
0
0
0
0
0
0
0
0
0
28.41827
28.85346
29.48385
30.33503
31.43826
0
0
0
0
0
0
0
0
0
0
0
0
0
0
0
0
0
0
27.27383
27.68473
28.27888
29.08146
30.11933
0
0
0
0
0
0
0
0
0
0
0
0
0
0
0
0
0
0
0
26.13767
26.52412
27.08435
27.83935
28.81531
0
0
0
0
0
0
0
0
0
0
25.03478
25.39928
25.926
26.63682
27.55367
0
0
0
0
0
0
0
0
0
0
23.9973
24.3416
24.83855
25.5073
26.37068
0
0
0
0
0
0
0
0
0
0
23.04069
23.36669
23.83679
24.46864
25.28234
0
0
0
0
0
0
0
0
0
0
22.17099
22.47828
22.9243
23.52326
24.29367
0
0
0
0
0
0
0
0
0
0
48.34128
49.42907
50.99297
53.13869
56.00031
0
0
0
0
0
0
45.94451
46.92657
48.33887
50.27107
52.83579
0
0
0
0
0
0
0
43.82563
44.72176
46.01059
47.77071
50.09821
0
0
0
0
0
0
0
0
41.9167
42.74088
43.92738
45.54458
47.67719
0
0
0
0
0
0
0
0
0
40.14539
40.90624
42.00396
43.49948
45.46569
0
0
0
0
0
0
0
0
0
0
38.43428
39.13749
40.15406
41.53849
43.35634
0
0
0
0
0
0
0
0
0
0
0
36.74336
37.39404
38.33486
39.61555
41.29409
0
0
0
0
0
0
0
0
0
0
0
0
35.11007
35.71304
36.5859
37.77181
39.3235
0
0
0
0
0
0
0
0
0
0
0
0
0
33.57031
34.13063
34.94199
36.04427
37.48279
0
0
0
0
0
0
0
0
0
0
0
0
0
0
32.13648
32.65946
33.41656
34.44372
35.78305
0
0
0
0
0
0
0
0
0
0
0
0
0
0
0
30.80619
31.29659
32.00594
32.96701
34.21772
0
0
0
0
0
0
0
0
0
0
0
0
0
0
0
0
29.56924
30.03046
30.69773
31.60031
32.77277
0
0
0
0
0
0
0
0
0
0
0
0
0
0
0
0
0
28.40974
28.84388
29.47326
30.32367
31.42617
0
0
0
0
0
0
0
0
0
0
0
0
0
0
0
0
0
0
27.30355
27.7137
28.30755
29.11045
30.14948
0
0
0
0
0
0
0
0
0
0
0
0
0
0
0
0
0
0
0
26.2228
26.60929
27.17055
27.92785
28.90774
0
0
0
0
0
0
0
0
0
0
0
0
0
0
0
0
0
0
0
0
25.14691
25.51206
26.04067
26.75481
27.67677
0
0
0
0
0
0
0
0
0
0
24.10095
24.44596
24.94476
25.61663
26.48458
0
0
0
0
0
0
0
0
0
0
23.11555
23.44205
23.91347
24.54755
25.36449
0
0
0
0
0
0
0
0
0
0
22.20785
22.51542
22.96212
23.5622
24.33426
0
0
0
0
0
0
0
0
0
0
21.38186
21.67216
22.0945
22.6642
23.39635
0
0
0
0
0
0
0
0
0
0
45.83862
46.81696
48.22342
50.14704
52.69948
0
0
0
0
0
0
0
43.64203
44.53267
45.8127
47.55963
49.86822
0
0
0
0
0
0
0
0
41.69194
42.5097
43.68586
45.28785
47.39865
0
0
0
0
0
0
0
0
0
39.92889
40.6843
41.77269
43.25358
45.19919
0
0
0
0
0
0
0
0
0
0
38.28805
38.9881
39.9988
41.37394
43.17791
0
0
0
0
0
0
0
0
0
0
36.69787
37.34761
38.28691
39.56479
41.23882
0
0
0
0
0
0
0
0
0
0
0
0
35.12125
35.72498
36.59814
37.78445
39.33636
0
0
0
0
0
0
0
0
0
0
0
0
0
33.59514
34.15632
34.96875
36.07208
37.51188
0
0
0
0
0
0
0
0
0
0
0
0
0
0
32.1527
32.67616
33.43389
34.46186
35.80211
0
0
0
0
0
0
0
0
0
0
0
0
0
0
0
30.80619
31.29659
32.00594
32.96701
34.21772
0
0
0
0
0
0
0
0
0
0
0
0
0
0
0
0
29.55479
30.0155
30.6822
31.58407
32.75566
0
0
0
0
0
0
0
0
0
0
0
0
0
0
0
0
0
28.39006
28.82328
29.45163
30.30099
31.40224
0
0
0
0
0
0
0
0
0
0
0
0
0
0
0
0
0
0
27.29578
27.70487
28.29768
29.09957
30.13782
0
0
0
0
0
0
0
0
0
0
0
0
0
0
0
0
0
0
0
26.25139
26.63715
27.19801
27.9554
28.93602
0
0
0
0
0
0
0
0
0
0
0
0
0
0
0
0
0
0
0
0
25.22821
25.59334
26.12285
26.83899
27.7643
0
0
0
0
0
0
0
0
0
0
0
0
0
0
0
0
0
0
0
0
24.208
24.55349
25.05402
25.72894
26.60151
0
0
0
0
0
0
0
0
0
0
23.21461
23.54165
24.01472
24.65169
25.47287
0
0
0
0
0
0
0
0
0
0
22.27943
22.58744
23.0353
23.63742
24.4125
0
0
0
0
0
0
0
0
0
0
21.41706
21.70762
22.13058
22.7013
23.43496
0
0
0
0
0
0
0
0
0
0
20.63199
20.90622
21.30664
21.84715
22.54388
0
0
0
0
0
0
0
0
0
0
43.54465
44.43224
45.70745
47.44727
49.74576
0
0
0
0
0
0
0
0
41.52244
42.33542
43.50418
45.09515
47.19018
0
0
0
0
0
0
0
0
0
39.72043
40.4708
41.55045
43.01828
44.94553
0
0
0
0
0
0
0
0
0
0
38.08685
38.78251
39.78546
41.14863
42.93491
0
0
0
0
0
0
0
0
0
0
36.56195
37.20914
38.14368
39.41384
41.07648
0
0
0
0
0
0
0
0
0
0
35.07921
35.68265
36.55433
37.73851
39.28693
0
0
0
0
0
0
0
0
0
0
0
0
0
33.60586
34.16788
34.9811
36.08475
37.52498
0
0
0
0
0
0
0
0
0
0
0
0
0
0
32.17625
32.70049
33.45924
34.48846
35.82997
0
0
0
0
0
0
0
0
0
0
0
0
0
0
0
30.82154
31.3124
32.02234
32.98417
34.23582
0
0
0
0
0
0
0
0
0
0
0
0
0
0
0
0
29.55479
30.0155
30.6822
31.58407
32.75566
0
0
0
0
0
0
0
0
0
0
0
0
0
0
0
0
0
28.37648
28.80918
29.43692
30.28561
31.38604
0
0
0
0
0
0
0
0
0
0
0
0
0
0
0
0
0
0
27.27735
27.68554
28.27732
29.07804
30.11509
0
0
0
0
0
0
0
0
0
0
0
0
0
0
0
0
0
0
0
26.24436
26.6291
27.18891
27.94525
28.92486
0
0
0
0
0
0
0
0
0
0
0
0
0
0
0
0
0
0
0
0
25.25579
25.62018
26.1493
26.8654
27.79118
0
0
0
0
0
0
0
0
0
0
0
0
0
0
0
0
0
0
0
0
24.28582
24.63117
25.1325
25.80925
26.68478
0
0
0
0
0
0
0
0
0
0
0
0
0
0
0
0
0
0
0
0
23.31702
23.64438
24.11895
24.75874
25.58419
0
0
0
0
0
0
0
0
0
0
22.37421
22.68269
23.13199
23.73673
24.51575
0
0
0
0
0
0
0
0
0
0
21.48557
21.77652
22.20055
22.77311
23.50955
0
0
0
0
0
0
0
0
0
0
20.66567
20.9401
21.34109
21.88255
22.58067
0
0
0
0
0
0
0
0
0
0
19.91938
20.17793
20.55769
21.07112
21.73294
0
0
0
0
0
0
0
0
0
0
41.43261
42.24292
43.40764
44.99265
47.07921
0
0
0
0
0
0
0
0
0
39.5631
40.30969
41.3828
42.84124
44.75515
0
0
0
0
0
0
0
0
0
0
37.89274
38.58425
39.58
40.93196
42.70234
0
0
0
0
0
0
0
0
0
0
36.37417
37.01785
37.94587
39.20587
40.85375
0
0
0
0
0
0
0
0
0
0
34.9527
35.55381
36.42146
37.59918
39.13796
0
0
0
0
0
0
0
0
0
0
33.56663
34.12873
34.94116
36.04277
37.48024
0
0
0
0
0
0
0
0
0
0
0
0
0
0
32.18664
32.71158
33.47117
34.5012
35.84306
0
0
0
0
0
0
0
0
0
0
0
0
0
0
0
30.84385
31.33549
32.04636
33.00937
34.26247
0
0
0
0
0
0
0
0
0
0
0
0
0
0
0
0
29.56924
30.03046
30.69773
31.6003
32.77277
0
0
0
0
0
0
0
0
0
0
0
0
0
0
0
0
0
28.37648
28.80918
29.43692
30.28561
31.38604
0
0
0
0
0
0
0
0
0
0
0
0
0
0
0
0
0
0
27.26459
27.67228
28.26345
29.06347
30.09974
0
0
0
0
0
0
0
0
0
0
0
0
0
0
0
0
0
0
0
26.22709
26.61098
27.16979
27.92499
28.9033
0
0
0
0
0
0
0
0
0
0
0
0
0
0
0
0
0
0
0
0
25.24944
25.61287
26.14098
26.85604
27.78077
0
0
0
0
0
0
0
0
0
0
0
0
0
0
0
0
0
0
0
0
24.31252
24.6571
25.15802
25.8347
26.71057
0
0
0
0
0
0
0
0
0
0
0
0
0
0
0
0
0
0
0
0
23.39172
23.71879
24.19401
24.83546
25.66364
0
0
0
0
0
0
0
0
0
0
0
0
0
0
0
0
0
0
0
0
22.47232
22.78104
23.23161
23.83889
24.62187
0
0
0
0
0
0
0
0
0
0
21.57635
21.86771
22.29306
22.86798
23.60802
0
0
0
0
0
0
0
0
0
0
20.73138
21.00609
21.40807
21.95123
22.65189
0
0
0
0
0
0
0
0
0
0
19.95164
20.21037
20.59062
21.10494
21.76805
0
0
0
0
0
0
0
0
0
0
19.24332
19.48542
19.84521
20.33319
20.9626
0
0
0
0
0
0
0
0
0
0
39.47989
40.22425
41.2938
42.74715
44.65388
0
0
0
0
0
0
0
0
0
0
37.74611
38.43451
39.42488
40.76848
42.52736
0
0
0
0
0
0
0
0
0
0
36.19272
36.83302
37.7549
39.00544
40.63954
0
0
0
0
0
0
0
0
0
0
34.77716
35.37508
36.23725
37.40623
38.93231
0
0
0
0
0
0
0
0
0
0
33.44812
34.00871
34.81742
35.91344
37.3427
0
0
0
0
0
0
0
0
0
0
32.1501
32.675
33.43421
34.46292
35.80217
0
0
0
0
0
0
0
0
0
0
0
0
0
0
0
30.85382
31.34621
32.05779
33.02167
34.27559
0
0
0
0
0
0
0
0
0
0
0
0
0
0
0
0
29.59021
30.05235
30.72053
31.62419
32.79802
0
0
0
0
0
0
0
0
0
0
0
0
0
0
0
0
0
28.39006
28.82328
29.45163
30.30099
31.40224
0
0
0
0
0
0
0
0
0
0
0
0
0
0
0
0
0
0
27.26459
27.67228
28.26345
29.06347
30.09974
0
0
0
0
0
0
0
0
0
0
0
0
0
0
0
0
0
0
0
26.2151
26.59851
27.15674
27.91125
28.88875
0
0
0
0
0
0
0
0
0
0
0
0
0
0
0
0
0
0
0
0
25.23326
25.59589
26.12306
26.837
27.76047
0
0
0
0
0
0
0
0
0
0
0
0
0
0
0
0
0
0
0
0
24.30687
24.65047
25.15044
25.82614
26.70096
0
0
0
0
0
0
0
0
0
0
0
0
0
0
0
0
0
0
0
0
23.41771
23.74393
24.21868
24.86005
25.68852
0
0
0
0
0
0
0
0
0
0
0
0
0
0
0
0
0
0
0
0
22.54411
22.85252
23.30356
23.91229
24.6978
0
0
0
0
0
0
0
0
0
0
0
0
0
0
0
0
0
0
0
0
21.67041
21.96198
22.38847
22.96565
23.70931
0
0
0
0
0
0
0
0
0
0
20.81851
21.09348
21.49667
22.04201
22.74597
0
0
0
0
0
0
0
0
0
0
20.01472
20.27369
20.65478
21.1707
21.83618
0
0
0
0
0
0
0
0
0
0
19.27426
19.5165
19.87674
20.36552
20.99613
0
0
0
0
0
0
0
0
0
0
18.6023
18.82805
19.16742
19.63096
20.22994
0
0
0
0
0
0
0
0
0
0
37.66868
38.35528
39.3426
40.68168
42.43437
0
0
0
0
0
0
0
0
0
0
36.05557
36.6933
37.61059
38.85408
40.47791
0
0
0
0
0
0
0
0
0
0
34.60713
35.2021
36.05905
37.21982
38.7341
0
0
0
0
0
0
0
0
0
0
33.28373
33.84145
34.64516
35.73365
37.15185
0
0
0
0
0
0
0
0
0
0
32.03875
32.56245
33.31886
34.34242
35.67446
0
0
0
0
0
0
0
0
0
0
30.81962
31.31213
32.02323
32.98623
34.23831
0
0
0
0
0
0
0
0
0
0
0
0
0
0
0
0
29.59949
30.06264
30.73158
31.63596
32.81067
0
0
0
0
0
0
0
0
0
0
0
0
0
0
0
0
0
28.40974
28.84388
29.47326
30.32367
31.42617
0
0
0
0
0
0
0
0
0
0
0
0
0
0
0
0
0
0
27.27735
27.68554
28.27732
29.07804
30.1151
0
0
0
0
0
0
0
0
0
0
0
0
0
0
0
0
0
0
0
26.2151
26.59851
27.15674
27.91125
28.88875
0
0
0
0
0
0
0
0
0
0
0
0
0
0
0
0
0
0
0
0
25.22198
25.58416
26.11079
26.82407
27.74675
0
0
0
0
0
0
0
0
0
0
0
0
0
0
0
0
0
0
0
0
24.29175
24.63456
25.13364
25.80829
26.68189
0
0
0
0
0
0
0
0
0
0
0
0
0
0
0
0
0
0
0
0
23.41277
23.73801
24.21181
24.85223
25.67972
0
0
0
0
0
0
0
0
0
0
0
0
0
0
0
0
0
0
0
0
22.56943
22.87703
23.32751
23.93609
24.72184
0
0
0
0
0
0
0
0
0
0
0
0
0
0
0
0
0
0
0
0
21.73947
22.03073
22.45763
23.03603
23.78197
0
0
0
0
0
0
0
0
0
0
0
0
0
0
0
0
0
0
0
0
20.9089
21.1839
21.58816
22.1356
22.84282
0
0
0
0
0
0
0
0
0
0
20.09843
20.3576
20.73972
21.25767
21.92622
0
0
0
0
0
0
0
0
0
0
19.3349
19.57732
19.93834
20.42854
21.06137
0
0
0
0
0
0
0
0
0
0
18.63199
18.85787
19.19765
19.66193
20.26201
0
0
0
0
0
0
0
0
0
0
18.00066
18.2044
18.52374
18.96273
19.53262
0
0
0
0
0
0
0
0
0
0
35.98327
36.61949
37.53421
38.77378
40.39209
0
0
0
0
0
0
0
0
0
0
34.47852
35.07127
35.92428
37.07892
38.5844
0
0
0
0
0
0
0
0
0
0
33.12415
33.67919
34.47825
35.55961
36.96743
0
0
0
0
0
0
0
0
0
0
31.88405
32.40568
33.15754
34.1742
35.49658
0
0
0
0
0
0
0
0
0
0
30.71505
31.20628
31.91498
32.87384
34.11928
0
0
0
0
0
0
0
0
0
0
29.56709
30.03072
30.69937
31.60281
32.77614
0
0
0
0
0
0
0
0
0
0
0
0
0
0
0
0
0
28.41827
28.85346
29.48385
30.33503
31.43826
0
0
0
0
0
0
0
0
0
0
0
0
0
0
0
0
0
0
27.29578
27.70487
28.29768
29.09957
30.13782
0
0
0
0
0
0
0
0
0
0
0
0
0
0
0