/*--------------------------------*- C++ -*----------------------------------*\
| =========                 |                                                 |
| \\      /  F ield         | OpenFOAM: The Open Source CFD Toolbox           |
|  \\    /   O peration     | Version:  2306                                  |
|   \\  /    A nd           | Website:  www.openfoam.com                      |
|    \\/     M anipulation  |                                                 |
\*---------------------------------------------------------------------------*/
FoamFile
{
    version     2.0;
    format      ascii;
    arch        "LSB;label=32;scalar=64";
    class       volScalarField;
    location    "0.3/fuel";
    object      iDmdtfuel.H2;
}
// * * * * * * * * * * * * * * * * * * * * * * * * * * * * * * * * * * * * * //

dimensions      [1 -3 -1 0 0 0 0];

internalField   nonuniform List<scalar> 
16000
(
-11.45337
-11.54028
-10.33453
-10.90232
-11.7128
-10.38872
-10.98213
-9.347581
-9.867214
-10.51355
-11.97015
-10.49358
-11.14037
-9.387672
-9.917262
-10.58864
-8.552561
-8.948984
-9.534892
-10.27241
-12.2995
-10.64397
-11.37614
-9.464389
-10.01402
-10.73745
-8.584641
-8.986197
-9.582131
-10.34486
-7.896567
-8.206023
-8.663836
-9.326329
-10.16469
-12.64523
-10.82489
-11.67748
-9.572313
-10.15271
-10.95913
-8.645605
-9.057344
-9.673415
-10.48846
-7.923329
-8.235918
-8.699068
-9.371927
-10.23629
-7.339898
-7.59076
-7.957065
-8.483427
-9.230646
-0
-12.89326
-10.99809
-11.9933
-9.697959
-10.31945
-11.24248
-8.730225
-9.157394
-9.804235
-10.70252
-7.973964
-8.292683
-8.76639
-9.460034
-10.3783
-7.362798
-7.615781
-7.985442
-8.51747
-9.275616
-0
-6.85783
-7.067053
-7.370366
-7.79872
-8.399373
-0
-0
-13.03772
-11.10995
-12.21875
-9.811861
-10.47892
-11.53954
-8.826441
-9.273821
-9.961533
-10.97657
-8.043542
-8.371444
-8.861052
-9.586349
-10.59034
-7.406002
-7.663084
-8.039293
-8.58251
-9.362539
-0
-6.877795
-7.088523
-7.39417
-7.826173
-8.432924
-0
-0
-6.43368
-6.612308
-6.869923
-7.229674
-7.724327
-0
-0
-0
-13.11211
-11.16683
-12.34933
-9.879578
-10.58155
-11.75086
-8.910178
-9.379287
-10.11197
-11.26457
-8.121223
-8.460958
-8.97121
-9.738359
-10.86258
-7.464902
-7.728059
-8.114003
-8.673985
-9.487259
-0
-6.915395
-7.128997
-7.439145
-7.878258
-8.497033
-0
-0
-6.45134
-6.631072
-6.890388
-7.25273
-7.751382
-0
-0
-0
-6.056055
-6.211235
-6.434558
-6.743746
-7.163263
-0
-0
-0
-0
-13.14284
-11.19186
-12.4162
-9.909292
-10.63351
-11.87283
-8.956544
-9.441795
-10.20846
-11.46906
-8.186631
-8.538791
-9.07097
-9.883883
-11.14991
-7.529696
-7.800556
-8.1989
-8.780487
-9.637579
-0
-6.966334
-7.184152
-7.500911
-7.950526
-8.587245
-0
-0
-6.484569
-6.666383
-6.928946
-7.29628
-7.802715
-0
-0
-0
-6.071846
-6.227869
-6.452475
-6.76359
-7.18599
-0
-0
-0
-0
-5.716738
-5.853379
-6.049922
-6.320557
-6.684026
-0
-0
-0
-0
-0
-13.14284
-11.20072
-12.44369
-9.919377
-10.65623
-11.93511
-8.973877
-9.469107
-10.25715
-11.58698
-8.22056
-8.581741
-9.129892
-9.97696
-11.35387
-7.582762
-7.861522
-8.27267
-8.876965
-9.781753
-0
-7.021693
-7.244781
-7.569807
-8.032669
-8.692374
-0
-0
-6.529358
-6.714197
-6.981477
-7.35609
-7.873965
-0
-0
-0
-6.10155
-6.259146
-6.486174
-6.800967
-7.22892
-0
-0
-0
-0
-5.730987
-5.868283
-6.065831
-6.337948
-6.703594
-0
-0
-0
-0
-0
-5.409464
-5.531189
-5.706193
-5.946302
-6.266522
-0
-0
-0
-0
-0
-0
-13.11211
-11.20072
-12.44369
-9.92172
-10.66424
-11.96066
-8.977515
-9.478305
-10.27838
-11.64719
-8.23106
-8.597703
-9.155534
-10.02383
-11.47167
-7.608662
-7.893015
-8.313215
-8.933739
-9.873745
-0
-7.06598
-7.294352
-7.627683
-8.104025
-8.787674
-0
-0
-6.577551
-6.766115
-7.039194
-7.422808
-7.954997
-0
-0
-0
-6.141422
-6.301279
-6.53179
-6.851886
-7.287893
-0
-0
-0
-0
-5.757792
-5.896297
-6.095726
-6.370647
-6.740451
-0
-0
-0
-0
-0
-5.422416
-5.54466
-5.720466
-5.961758
-6.283677
-0
-0
-0
-0
-0
-0
-5.129413
-5.23889
-5.396276
-5.611531
-5.897154
-0
-0
-0
-0
-0
-0
-0
-13.03772
-11.19186
-12.4162
-9.92172
-10.66424
-11.96066
-8.977156
-9.480405
-10.28583
-11.67191
-8.231342
-8.600981
-9.164116
-10.04426
-11.53203
-7.61501
-7.902659
-8.328184
-8.958359
-9.920053
-0
-7.086398
-7.318416
-7.65743
-8.143063
-8.843538
-0
-0
-6.615348
-6.80756
-7.086314
-7.478811
-8.025385
-0
-0
-0
-6.183972
-6.346567
-6.581291
-6.907826
-7.3537
-0
-0
-0
-0
-5.793652
-5.933877
-6.135984
-6.414907
-6.79067
-0
-0
-0
-0
-0
-5.446796
-5.569987
-5.747282
-5.990794
-6.315934
-0
-0
-0
-0
-0
-0
-5.141262
-5.251156
-5.409194
-5.625411
-5.912407
-0
-0
-0
-0
-0
-0
-0
-4.872714
-4.972037
-5.114735
-5.309423
-5.566628
-0
-0
-0
-0
-0
-0
-0
-0
-12.89326
-11.16683
-12.34933
-9.919377
-10.65623
-11.93511
-8.977156
-9.480405
-10.28583
-11.67191
-8.229646
-8.600595
-9.16605
-10.05144
-11.55688
-7.613404
-7.902818
-8.331191
-8.966567
-9.940283
-0
-7.090094
-7.324198
-7.666434
-8.157382
-8.867688
-0
-0
-6.631885
-6.826538
-7.109047
-7.507434
-8.063698
-0
-0
-0
-6.216791
-6.381996
-6.620732
-6.95344
-7.408906
-0
-0
-0
-0
-5.831658
-5.973936
-6.179225
-6.462923
-6.845851
-0
-0
-0
-0
-0
-5.479321
-5.603847
-5.783242
-6.029891
-6.359599
-0
-0
-0
-0
-0
-0
-5.163583
-5.27423
-5.433471
-5.65148
-5.941062
-0
-0
-0
-0
-0
-0
-0
-4.883611
-4.983275
-5.126512
-5.321996
-5.580331
-0
-0
-0
-0
-0
-0
-0
-0
-4.636373
-4.727049
-4.857383
-5.034747
-5.268237
-0
-0
-0
-0
-0
-0
-0
-0
-0
-12.64523
-11.10995
-12.21875
-9.909292
-10.63351
-11.87283
-8.977515
-9.478305
-10.27838
-11.64719
-8.229646
-8.600595
-9.16605
-10.05144
-11.55688
-7.611011
-7.901184
-8.330779
-8.968404
-9.947417
-0
-7.087395
-7.322587
-7.666484
-8.160198
-8.875725
-0
-0
-6.633847
-6.829843
-7.114392
-7.515993
-8.077653
-0
-0
-0
-6.230485
-6.397368
-6.638656
-6.975298
-7.436947
-0
-0
-0
-0
-5.860562
-6.004745
-6.212977
-6.501122
-6.890804
-0
-0
-0
-0
-0
-5.513596
-5.639689
-5.82154
-6.07187
-6.406975
-0
-0
-0
-0
-0
-0
-5.193291
-5.304992
-5.465912
-5.686432
-5.979648
-0
-0
-0
-0
-0
-0
-0
-4.904155
-5.004435
-5.148656
-5.345616
-5.606068
-0
-0
-0
-0
-0
-0
-0
-0
-4.646426
-4.737399
-4.868185
-5.046218
-5.280654
-0
-0
-0
-0
-0
-0
-0
-0
-0
-4.417861
-4.501156
-4.620841
-4.783472
-4.996839
-0
-0
-0
-0
-0
-0
-0
-0
-0
-0
-12.2995
-10.99809
-11.9933
-9.879578
-10.58155
-11.75086
-8.973877
-9.469107
-10.25715
-11.58698
-8.231342
-8.600981
-9.164116
-10.04426
-11.53203
-7.611011
-7.901184
-8.330779
-8.968404
-9.947417
-0
-7.084644
-7.320293
-7.664884
-8.159762
-8.877523
-0
-0
-6.630532
-6.827199
-7.112754
-7.515946
-8.080343
-0
-0
-0
-6.231298
-6.399051
-6.64165
-6.980325
-7.445226
-0
-0
-0
-0
-5.872118
-6.017474
-6.22749
-6.518343
-6.912189
-0
-0
-0
-0
-0
-5.539357
-5.666861
-5.850919
-6.104575
-6.444617
-0
-0
-0
-0
-0
-0
-5.224434
-5.337366
-5.500221
-5.723641
-6.021079
-0
-0
-0
-0
-0
-0
-0
-4.931425
-5.032576
-5.178166
-5.377175
-5.640576
-0
-0
-0
-0
-0
-0
-0
-0
-4.665392
-4.756902
-4.888516
-5.06778
-5.303982
-0
-0
-0
-0
-0
-0
-0
-0
-0
-4.427172
-4.510717
-4.6308
-4.794001
-5.008171
-0
-0
-0
-0
-0
-0
-0
-0
-0
-0
-4.215184
-4.292015
-4.402498
-4.552343
-4.748472
-0
-0
-0
-0
-0
-0
-0
-0
-0
-0
-11.97015
-10.82489
-11.67748
-9.811861
-10.47892
-11.53954
-8.956544
-9.441795
-10.20846
-11.46906
-8.23106
-8.597703
-9.155534
-10.02383
-11.47167
-7.613404
-7.902818
-8.331191
-8.966567
-9.940283
-0
-7.084644
-7.320293
-7.664884
-8.159762
-8.877523
-0
-0
-6.627622
-6.824561
-7.110522
-7.514356
-8.07988
-0
-0
-0
-6.22766
-6.395819
-6.639023
-6.978644
-7.44509
-0
-0
-0
-0
-5.872156
-6.01808
-6.228944
-6.521101
-6.916997
-0
-0
-0
-0
-0
-5.549267
-5.6776
-5.862932
-6.118509
-6.461447
-0
-0
-0
-0
-0
-0
-5.247566
-5.361616
-5.526157
-5.752125
-6.05331
-0
-0
-0
-0
-0
-0
-0
-4.959876
-5.062035
-5.209191
-5.410533
-5.677311
-0
-0
-0
-0
-0
-0
-0
-0
-4.690544
-4.78277
-4.915542
-5.096509
-5.335152
-0
-0
-0
-0
-0
-0
-0
-0
-0
-4.444778
-4.528746
-4.649559
-4.813812
-5.029475
-0
-0
-0
-0
-0
-0
-0
-0
-0
-0
-4.223849
-4.300881
-4.411706
-4.562056
-4.758878
-0
-0
-0
-0
-0
-0
-0
-0
-0
-0
-4.026583
-4.097778
-4.200137
-4.338846
-4.519938
-0
-0
-0
-0
-0
-0
-0
-0
-0
-0
-11.7128
-10.64397
-11.37614
-9.697959
-10.31945
-11.24248
-8.910178
-9.379287
-10.11197
-11.26457
-8.22056
-8.581741
-9.129892
-9.976959
-11.35387
-7.61501
-7.902659
-8.328184
-8.958359
-9.920053
-0
-7.087395
-7.322587
-7.666484
-8.160198
-8.875725
-0
-0
-6.627622
-6.824561
-7.110522
-7.514356
-8.07988
-0
-0
-0
-6.224712
-6.393025
-6.636457
-6.976437
-7.443484
-0
-0
-0
-0
-5.868373
-6.014538
-6.225754
-6.51846
-6.915252
-0
-0
-0
-0
-0
-5.548767
-5.67748
-5.863364
-6.119782
-6.46403
-0
-0
-0
-0
-0
-0
-5.256143
-5.370824
-5.536288
-5.763651
-6.066915
-0
-0
-0
-0
-0
-0
-0
-4.98086
-5.083835
-5.23236
-5.435692
-5.705386
-0
-0
-0
-0
-0
-0
-0
-0
-4.716729
-4.809718
-4.943804
-5.126696
-5.368095
-0
-0
-0
-0
-0
-0
-0
-0
-0
-4.468105
-4.552636
-4.674429
-4.840143
-5.05786
-0
-0
-0
-0
-0
-0
-0
-0
-0
-0
-4.240256
-4.317637
-4.429064
-4.580349
-4.778458
-0
-0
-0
-0
-0
-0
-0
-0
-0
-0
-4.034674
-4.106037
-4.208683
-4.347832
-4.529541
-0
-0
-0
-0
-0
-0
-0
-0
-0
-0
-3.850625
-3.916808
-4.012014
-4.140843
-4.308768
-0
-0
-0
-0
-0
-0
-0
-0
-0
-0
-11.54028
-10.49358
-11.14037
-9.572313
-10.15271
-10.95913
-8.826441
-9.273821
-9.961533
-10.97657
-8.186631
-8.538791
-9.07097
-9.883883
-11.14991
-7.608662
-7.893015
-8.313215
-8.933739
-9.873745
-0
-7.090094
-7.324198
-7.666434
-8.157382
-8.867688
-0
-0
-6.630532
-6.827199
-7.112754
-7.515946
-8.080343
-0
-0
-0
-6.224712
-6.393025
-6.636457
-6.976437
-7.443484
-0
-0
-0
-0
-5.865455
-6.011703
-6.223034
-6.515928
-6.913038
-0
-0
-0
-0
-0
-5.544938
-5.673798
-5.859875
-6.116595
-6.461344
-0
-0
-0
-0
-0
-0
-5.255283
-5.370201
-5.536032
-5.763939
-6.068045
-0
-0
-0
-0
-0
-0
-0
-4.988432
-5.091803
-5.241043
-5.445407
-5.716631
-0
-0
-0
-0
-0
-0
-0
-0
-4.735927
-4.829519
-4.96465
-5.149184
-5.392898
-0
-0
-0
-0
-0
-0
-0
-0
-0
-4.492332
-4.577471
-4.700308
-4.867659
-5.087681
-0
-0
-0
-0
-0
-0
-0
-0
-0
-0
-4.261978
-4.339823
-4.452055
-4.604595
-4.804482
-0
-0
-0
-0
-0
-0
-0
-0
-0
-0
-4.050021
-4.121672
-4.224831
-4.364769
-4.547627
-0
-0
-0
-0
-0
-0
-0
-0
-0
-0
-3.858199
-3.924529
-4.019983
-4.149189
-4.317655
-0
-0
-0
-0
-0
-0
-0
-0
-0
-0
-3.686011
-3.747774
-3.836581
-3.956657
-4.112861
-0
-0
-0
-0
-0
-0
-0
-0
-0
-0
-11.45337
-10.38872
-10.98213
-9.464389
-10.01402
-10.73745
-8.730225
-9.157394
-9.804235
-10.70252
-8.121223
-8.460958
-8.97121
-9.738359
-10.86258
-7.582762
-7.861522
-8.27267
-8.876965
-9.781753
-0
-7.086398
-7.318416
-7.65743
-8.143063
-8.843538
-0
-0
-6.633847
-6.829843
-7.114392
-7.515993
-8.077653
-0
-0
-0
-6.22766
-6.395819
-6.639023
-6.978644
-7.44509
-0
-0
-0
-0
-5.865455
-6.011703
-6.223034
-6.515928
-6.913038
-0
-0
-0
-0
-0
-5.542083
-5.670987
-5.857113
-6.113912
-6.458811
-0
-0
-0
-0
-0
-0
-5.251499
-5.366473
-5.532408
-5.760464
-6.064825
-0
-0
-0
-0
-0
-0
-0
-4.987362
-5.090844
-5.240312
-5.445035
-5.716801
-0
-0
-0
-0
-0
-0
-0
-0
-4.742697
-4.836552
-4.972161
-5.157506
-5.402371
-0
-0
-0
-0
-0
-0
-0
-0
-0
-4.510006
-4.595608
-4.719258
-4.887904
-5.109856
-0
-0
-0
-0
-0
-0
-0
-0
-0
-0
-4.284492
-4.362829
-4.475927
-4.629808
-4.831675
-0
-0
-0
-0
-0
-0
-0
-0
-0
-0
-4.070326
-4.142355
-4.246202
-4.387197
-4.571598
-0
-0
-0
-0
-0
-0
-0
-0
-0
-0
-3.872591
-3.93917
-4.035064
-4.164955
-4.334405
-0
-0
-0
-0
-0
-0
-0
-0
-0
-0
-3.693119
-3.755009
-3.844035
-3.964442
-4.121116
-0
-0
-0
-0
-0
-0
-0
-0
-0
-0
-3.531665
-3.589464
-3.672575
-3.78479
-3.930567
-0
-0
-0
-0
-0
-0
-0
-0
-0
-0
-10.33453
-10.90232
-9.387672
-9.917262
-10.58864
-8.645605
-9.057344
-9.673415
-10.48846
-8.043542
-8.371444
-8.861052
-9.586349
-10.59034
-7.529696
-7.800556
-8.1989
-8.780487
-9.637579
-0
-7.06598
-7.294352
-7.627683
-8.104025
-8.787674
-0
-0
-6.631885
-6.826538
-7.109047
-7.507434
-8.063698
-0
-0
-0
-6.231298
-6.399051
-6.64165
-6.980325
-7.445226
-0
-0
-0
-0
-5.868373
-6.014538
-6.225754
-6.51846
-6.915252
-0
-0
-0
-0
-0
-5.542083
-5.670987
-5.857113
-6.113912
-6.458811
-0
-0
-0
-0
-0
-0
-5.248744
-5.363719
-5.529667
-5.757739
-6.062145
-0
-0
-0
-0
-0
-0
-0
-4.98368
-5.087157
-5.236643
-5.44143
-5.713302
-0
-0
-0
-0
-0
-0
-0
-0
-4.74151
-4.835402
-4.971113
-5.156679
-5.401899
-0
-0
-0
-0
-0
-0
-0
-0
-0
-4.516126
-4.601899
-4.725888
-4.895098
-5.117967
-0
-0
-0
-0
-0
-0
-0
-0
-0
-0
-4.300856
-4.379545
-4.493301
-4.648221
-4.851642
-0
-0
-0
-0
-0
-0
-0
-0
-0
-0
-0
-4.091338
-4.16376
-4.268337
-4.41047
-4.596521
-0
-0
-0
-0
-0
-0
-0
-0
-0
-0
-3.891618
-3.958527
-4.055004
-4.185815
-4.356586
-0
-0
-0
-0
-0
-0
-0
-0
-0
-0
-3.706644
-3.768753
-3.85817
-3.979175
-4.136713
-0
-0
-0
-0
-0
-0
-0
-0
-0
-0
-3.538348
-3.596259
-3.679566
-3.792078
-3.93827
-0
-0
-0
-0
-0
-0
-0
-0
-0
-0
-3.386676
-3.440873
-3.518846
-3.624028
-3.760417
-0
-0
-0
-0
-0
-0
-0
-0
-0
-0
-9.347581
-9.867214
-10.51355
-8.584641
-8.986197
-9.582131
-10.34486
-7.973964
-8.292683
-8.76639
-9.460034
-10.3783
-7.464902
-7.728059
-8.114003
-8.673985
-9.487259
-0
-7.021693
-7.244781
-7.569807
-8.032669
-8.692374
-0
-0
-6.615348
-6.80756
-7.086314
-7.478811
-8.025385
-0
-0
-0
-6.230485
-6.397368
-6.638656
-6.975298
-7.436947
-0
-0
-0
-0
-5.872156
-6.01808
-6.228944
-6.521101
-6.916997
-0
-0
-0
-0
-0
-5.544938
-5.673798
-5.859875
-6.116595
-6.461344
-0
-0
-0
-0
-0
-0
-5.248744
-5.363719
-5.529667
-5.757739
-6.062145
-0
-0
-0
-0
-0
-0
-0
-4.981041
-5.084494
-5.233954
-5.438725
-5.710581
-0
-0
-0
-0
-0
-0
-0
-0
-4.737962
-4.831811
-4.967484
-5.153032
-5.398276
-0
-0
-0
-0
-0
-0
-0
-0
-0
-4.514883
-4.600643
-4.724662
-4.89397
-5.117055
-0
-0
-0
-0
-0
-0
-0
-0
-0
-0
-4.306441
-4.385236
-4.499232
-4.654571
-4.858651
-0
-0
-0
-0
-0
-0
-0
-0
-0
-0
-0
-4.106549
-4.179255
-4.284364
-4.427361
-4.614688
-0
-0
-0
-0
-0
-0
-0
-0
-0
-0
-0
-0
-3.911262
-3.978526
-4.075618
-4.207407
-4.379599
-0
-0
-0
-0
-0
-0
-0
-0
-0
-0
-3.724501
-3.786911
-3.876847
-3.998651
-4.15735
-0
-0
-0
-0
-0
-0
-0
-0
-0
-0
-3.551079
-3.609188
-3.692845
-3.805894
-3.95285
-0
-0
-0
-0
-0
-0
-0
-0
-0
-0
-3.392964
-3.447267
-3.525417
-3.630865
-3.767629
-0
-0
-0
-0
-0
-0
-0
-0
-0
-0
-3.25006
-3.30115
-3.374443
-3.473258
-3.601215
-0
-0
-0
-0
-0
-0
-0
-0
-0
-0
-8.552561
-8.948984
-9.534892
-10.27241
-7.923329
-8.235918
-8.699068
-9.371927
-10.23629
-7.406002
-7.663084
-8.039293
-8.58251
-9.362539
-0
-6.966334
-7.184152
-7.500911
-7.950526
-8.587245
-0
-0
-6.577551
-6.766115
-7.039194
-7.422808
-7.954997
-0
-0
-0
-6.216791
-6.381996
-6.620732
-6.95344
-7.408906
-0
-0
-0
-0
-5.872118
-6.017474
-6.22749
-6.518343
-6.912189
-0
-0
-0
-0
-0
-5.548767
-5.67748
-5.863364
-6.119782
-6.46403
-0
-0
-0
-0
-0
-0
-5.251499
-5.366473
-5.532408
-5.760464
-6.064825
-0
-0
-0
-0
-0
-0
-0
-4.981041
-5.084494
-5.233954
-5.438725
-5.710581
-0
-0
-0
-0
-0
-0
-0
-0
-4.735447
-4.829258
-4.964883
-5.150379
-5.395577
-0
-0
-0
-0
-0
-0
-0
-0
-0
-4.511486
-4.59718
-4.721128
-4.890364
-5.113394
-0
-0
-0
-0
-0
-0
-0
-0
-0
-0
-4.305175
-4.383932
-4.497911
-4.653276
-4.857449
-0
-0
-0
-0
-0
-0
-0
-0
-0
-0
-0
-4.111639
-4.184451
-4.28973
-4.433041
-4.620872
-0
-0
-0
-0
-0
-0
-0
-0
-0
-0
-0
-0
-3.925417
-3.992944
-4.090487
-4.222998
-4.396268
-0
-0
-0
-0
-0
-0
-0
-0
-0
-0
-0
-0
-0
-3.742897
-3.805627
-3.896123
-4.01877
-4.178706
-0
-0
-0
-0
-0
-0
-0
-0
-0
-0
-3.567874
-3.626245
-3.71038
-3.824146
-3.972122
-0
-0
-0
-0
-0
-0
-0
-0
-0
-0
-3.404959
-3.459449
-3.537918
-3.643852
-3.781305
-0
-0
-0
-0
-0
-0
-0
-0
-0
-0
-3.255965
-3.307172
-3.38063
-3.479687
-3.607984
-0
-0
-0
-0
-0
-0
-0
-0
-0
-0
-3.121099
-3.169369
-3.238556
-3.331559
-3.451869
-0
-0
-0
-0
-0
-0
-0
-0
-0
-0
-7.896567
-8.206023
-8.663836
-9.326329
-10.16469
-7.362798
-7.615781
-7.985442
-8.51747
-9.275616
-0
-6.915395
-7.128997
-7.439145
-7.878258
-8.497033
-0
-0
-6.529358
-6.714197
-6.981477
-7.35609
-7.873965
-0
-0
-0
-6.183972
-6.346567
-6.581291
-6.907826
-7.3537
-0
-0
-0
-0
-5.860562
-6.004745
-6.212977
-6.501122
-6.890804
-0
-0
-0
-0
-0
-5.549267
-5.6776
-5.862932
-6.118509
-6.461447
-0
-0
-0
-0
-0
-0
-5.255283
-5.370201
-5.536032
-5.763939
-6.068045
-0
-0
-0
-0
-0
-0
-0
-4.98368
-5.087157
-5.236643
-5.44143
-5.713302
-0
-0
-0
-0
-0
-0
-0
-0
-4.735447
-4.829258
-4.964883
-5.150379
-5.395577
-0
-0
-0
-0
-0
-0
-0
-0
-0
-4.509098
-4.594744
-4.718631
-4.887796
-5.110746
-0
-0
-0
-0
-0
-0
-0
-0
-0
-0
-4.301927
-4.380615
-4.4945
-4.649763
-4.853832
-0
-0
-0
-0
-0
-0
-0
-0
-0
-0
-0
-4.11035
-4.183133
-4.28837
-4.431659
-4.619512
-0
-0
-0
-0
-0
-0
-0
-0
-0
-0
-0
-0
-3.930122
-3.997681
-4.095388
-4.228138
-4.4018
-0
-0
-0
-0
-0
-0
-0
-0
-0
-0
-0
-0
-0
-3.756158
-3.819058
-3.90997
-4.033242
-4.194097
-0
-0
-0
-0
-0
-0
-0
-0
-0
-0
-0
-0
-0
-0
-3.585186
-3.643789
-3.728432
-3.84297
-3.992027
-0
-0
-0
-0
-0
-0
-0
-0
-0
-0
-3.420784
-3.475506
-3.554402
-3.660996
-3.799371
-0
-0
-0
-0
-0
-0
-0
-0
-0
-0
-3.267264
-3.318658
-3.392416
-3.491919
-3.620842
-0
-0
-0
-0
-0
-0
-0
-0
-0
-0
-3.126682
-3.175028
-3.244386
-3.337616
-3.458235
-0
-0
-0
-0
-0
-0
-0
-0
-0
-0
-2.999272
-3.044857
-3.110299
-3.198152
-3.311472
-0
-0
-0
-0
-0
-0
-0
-0
-0
-0
-7.339898
-7.59076
-7.957065
-8.483427
-9.230646
-0
-6.877795
-7.088523
-7.39417
-7.826173
-8.432924
-0
-0
-6.484569
-6.666383
-6.928946
-7.29628
-7.802715
-0
-0
-0
-6.141422
-6.301279
-6.53179
-6.851886
-7.287893
-0
-0
-0
-0
-5.831658
-5.973936
-6.179225
-6.462923
-6.845851
-0
-0
-0
-0
-0
-5.539357
-5.666861
-5.850919
-6.104575
-6.444617
-0
-0
-0
-0
-0
-0
-5.256143
-5.370824
-5.536288
-5.763651
-6.066915
-0
-0
-0
-0
-0
-0
-0
-4.987362
-5.090844
-5.240312
-5.445035
-5.716801
-0
-0
-0
-0
-0
-0
-0
-0
-4.737962
-4.831811
-4.967484
-5.153032
-5.398276
-0
-0
-0
-0
-0
-0
-0
-0
-0
-4.509098
-4.594744
-4.718631
-4.887796
-5.110746
-0
-0
-0
-0
-0
-0
-0
-0
-0
-0
-4.299655
-4.378299
-4.492117
-4.647297
-4.85127
-0
-0
-0
-0
-0
-0
-0
-0
-0
-0
-0
-4.107246
-4.179957
-4.285101
-4.428271
-4.615991
-0
-0
-0
-0
-0
-0
-0
-0
-0
-0
-0
-0
-3.928872
-3.996345
-4.094019
-4.226724
-4.400361
-0
-0
-0
-0
-0
-0
-0
-0
-0
-0
-0
-0
-0
-3.760548
-3.823439
-3.914439
-4.037939
-4.199103
-0
-0
-0
-0
-0
-0
-0
-0
-0
-0
-0
-0
-0
-0
-3.597646
-3.656384
-3.74134
-3.856455
-4.006318
-0
-0
-0
-0
-0
-0
-0
-0
-0
-0
-0
-0
-0
-0
-0
-3.437062
-3.492031
-3.571336
-3.678634
-3.818
-0
-0
-0
-0
-0
-0
-0
-0
-0
-0
-3.282182
-3.3338
-3.407944
-3.508043
-3.637816
-0
-0
-0
-0
-0
-0
-0
-0
-0
-0
-3.137387
-3.185855
-3.255506
-3.349153
-3.470348
-0
-0
-0
-0
-0
-0
-0
-0
-0
-0
-3.004562
-3.05021
-3.11578
-3.203861
-3.31747
-0
-0
-0
-0
-0
-0
-0
-0
-0
-0
-2.884224
-2.92713
-2.989031
-3.072174
-3.179258
-0
-0
-0
-0
-0
-0
-0
-0
-0
-0
-6.85783
-7.067053
-7.370366
-7.79872
-8.399373
-0
-0
-6.45134
-6.631072
-6.890388
-7.25273
-7.751382
-0
-0
-0
-6.10155
-6.259146
-6.486174
-6.800967
-7.22892
-0
-0
-0
-0
-5.793652
-5.933877
-6.135984
-6.414907
-6.79067
-0
-0
-0
-0
-0
-5.513596
-5.639689
-5.82154
-6.07187
-6.406975
-0
-0
-0
-0
-0
-0
-5.247566
-5.361616
-5.526157
-5.752125
-6.05331
-0
-0
-0
-0
-0
-0
-0
-4.988432
-5.091803
-5.241043
-5.445407
-5.716631
-0
-0
-0
-0
-0
-0
-0
-0
-4.74151
-4.835402
-4.971113
-5.156679
-5.401899
-0
-0
-0
-0
-0
-0
-0
-0
-0
-4.511486
-4.59718
-4.721128
-4.890364
-5.113394
-0
-0
-0
-0
-0
-0
-0
-0
-0
-0
-4.299655
-4.378299
-4.492117
-4.647297
-4.85127
-0
-0
-0
-0
-0
-0
-0
-0
-0
-0
-0
-4.105094
-4.177752
-4.282833
-4.425916
-4.613531
-0
-0
-0
-0
-0
-0
-0
-0
-0
-0
-0
-0
-3.925935
-3.993309
-4.090889
-4.223475
-4.396965
-0
-0
-0
-0
-0
-0
-0
-0
-0
-0
-0
-0
-0
-3.759348
-3.822145
-3.913058
-4.036521
-4.197637
-0
-0
-0
-0
-0
-0
-0
-0
-0
-0
-0
-0
-0
-0
-3.601735
-3.660476
-3.745476
-3.860737
-4.010893
-0
-0
-0
-0
-0
-0
-0
-0
-0
-0
-0
-0
-0
-0
-0
-3.448763
-3.503876
-3.583449
-3.691211
-3.83132
-0
-0
-0
-0
-0
-0
-0
-0
-0
-0
-0
-0
-0
-0
-0
-0
-3.297547
-3.349351
-3.423906
-3.524595
-3.655275
-0
-0
-0
-0
-0
-0
-0
-0
-0
-0
-3.151525
-3.20014
-3.270158
-3.364349
-3.486316
-0
-0
-0
-0
-0
-0
-0
-0
-0
-0
-3.014726
-3.060477
-3.126268
-3.214751
-3.328898
-0
-0
-0
-0
-0
-0
-0
-0
-0
-0
-2.889243
-2.932205
-2.994219
-3.077543
-3.184913
-0
-0
-0
-0
-0
-0
-0
-0
-0
-0
-2.775307
-2.815864
-2.874296
-2.953006
-3.054377
-0
-0
-0
-0
-0
-0
-0
-0
-0
-0
-6.43368
-6.612308
-6.869923
-7.229674
-7.724327
-0
-0
-0
-6.071846
-6.227869
-6.452475
-6.76359
-7.18599
-0
-0
-0
-0
-5.757792
-5.896297
-6.095726
-6.370647
-6.740451
-0
-0
-0
-0
-0
-5.479321
-5.603847
-5.783242
-6.029891
-6.359599
-0
-0
-0
-0
-0
-0
-5.224434
-5.337366
-5.500221
-5.723641
-6.021079
-0
-0
-0
-0
-0
-0
-0
-4.98086
-5.083835
-5.23236
-5.435692
-5.705386
-0
-0
-0
-0
-0
-0
-0
-0
-4.742697
-4.836552
-4.972161
-5.157506
-5.402371
-0
-0
-0
-0
-0
-0
-0
-0
-0
-4.514883
-4.600643
-4.724662
-4.89397
-5.117055
-0
-0
-0
-0
-0
-0
-0
-0
-0
-0
-4.301927
-4.380615
-4.4945
-4.649763
-4.853832
-0
-0
-0
-0
-0
-0
-0
-0
-0
-0
-0
-4.105094
-4.177752
-4.282833
-4.425916
-4.613531
-0
-0
-0
-0
-0
-0
-0
-0
-0
-0
-0
-0
-3.923903
-3.991216
-4.088727
-4.221234
-4.394615
-0
-0
-0
-0
-0
-0
-0
-0
-0
-0
-0
-0
-0
-3.756569
-3.819271
-3.910063
-4.03341
-4.194382
-0
-0
-0
-0
-0
-0
-0
-0
-0
-0
-0
-0
-0
-0
-3.600572
-3.659236
-3.744141
-3.859312
-4.009429
-0
-0
-0
-0
-0
-0
-0
-0
-0
-0
-0
-0
-0
-0
-0
-3.452591
-3.50769
-3.587316
-3.695176
-3.835492
-0
-0
-0
-0
-0
-0
-0
-0
-0
-0
-0
-0
-0
-0
-0
-0
-3.308603
-3.360484
-3.435306
-3.536404
-3.667701
-0
-0
-0
-0
-0
-0
-0
-0
-0
-0
-0
-0
-0
-0
-0
-0
-0
-3.16609
-3.214831
-3.285188
-3.379958
-3.502705
-0
-0
-0
-0
-0
-0
-0
-0
-0
-0
-3.028153
-3.074026
-3.140098
-3.229095
-3.34395
-0
-0
-0
-0
-0
-0
-0
-0
-0
-0
-2.898906
-2.94196
-3.004169
-3.087817
-3.195702
-0
-0
-0
-0
-0
-0
-0
-0
-0
-0
-2.780073
-2.820683
-2.879217
-2.95809
-3.059696
-0
-0
-0
-0
-0
-0
-0
-0
-0
-0
-2.67203
-2.710445
-2.765793
-2.840209
-2.936219
-0
-0
-0
-0
-0
-0
-0
-0
-0
-0
-6.056055
-6.211235
-6.434558
-6.743746
-7.163263
-0
-0
-0
-0
-5.730987
-5.868283
-6.065831
-6.337948
-6.703594
-0
-0
-0
-0
-0
-5.446796
-5.569987
-5.747282
-5.990794
-6.315934
-0
-0
-0
-0
-0
-0
-5.193291
-5.304992
-5.465912
-5.686432
-5.979648
-0
-0
-0
-0
-0
-0
-0
-4.959876
-5.062035
-5.209191
-5.410533
-5.677311
-0
-0
-0
-0
-0
-0
-0
-0
-4.735927
-4.829519
-4.96465
-5.149184
-5.392898
-0
-0
-0
-0
-0
-0
-0
-0
-0
-4.516126
-4.601899
-4.725888
-4.895098
-5.117967
-0
-0
-0
-0
-0
-0
-0
-0
-0
-0
-4.305175
-4.383932
-4.497911
-4.653276
-4.857449
-0
-0
-0
-0
-0
-0
-0
-0
-0
-0
-0
-4.107246
-4.179957
-4.285101
-4.428271
-4.615991
-0
-0
-0
-0
-0
-0
-0
-0
-0
-0
-0
-0
-3.923903
-3.991216
-4.088727
-4.221234
-4.394615
-0
-0
-0
-0
-0
-0
-0
-0
-0
-0
-0
-0
-0
-3.754649
-3.817294
-3.908012
-4.031272
-4.192146
-0
-0
-0
-0
-0
-0
-0
-0
-0
-0
-0
-0
-0
-0
-3.597937
-3.656514
-3.741304
-3.856335
-4.006311
-0
-0
-0
-0
-0
-0
-0
-0
-0
-0
-0
-0
-0
-0
-0
-3.451475
-3.506489
-3.586037
-3.6938
-3.834023
-0
-0
-0
-0
-0
-0
-0
-0
-0
-0
-0
-0
-0
-0
-0
-0
-3.312229
-3.364056
-3.438911
-3.540113
-3.671565
-0
-0
-0
-0
-0
-0
-0
-0
-0
-0
-0
-0
-0
-0
-0
-0
-0
-3.176585
-3.225358
-3.295909
-3.391077
-3.514374
-0
-0
-0
-0
-0
-0
-0
-0
-0
-0
-0
-0
-0
-0
-0
-0
-0
-0
-3.041993
-3.087962
-3.154305
-3.243799
-3.359409
-0
-0
-0
-0
-0
-0
-0
-0
-0
-0
-2.911676
-2.954838
-3.017295
-3.101362
-3.209913
-0
-0
-0
-0
-0
-0
-0
-0
-0
-0
-2.789271
-2.829963
-2.888677
-2.967841
-3.069876
-0
-0
-0
-0
-0
-0
-0
-0
-0
-0
-2.676565
-2.715024
-2.770468
-2.845033
-2.941256
-0
-0
-0
-0
-0
-0
-0
-0
-0
-0
-2.573967
-2.61041
-2.662931
-2.733495
-2.824353
-0
-0
-0
-0
-0
-0
-0
-0
-0
-0
-5.716738
-5.853379
-6.049922
-6.320557
-6.684026
-0
-0
-0
-0
-0
-5.422416
-5.54466
-5.720466
-5.961758
-6.283677
-0
-0
-0
-0
-0
-0
-5.163583
-5.27423
-5.433471
-5.65148
-5.941062
-0
-0
-0
-0
-0
-0
-0
-4.931425
-5.032576
-5.178166
-5.377175
-5.640576
-0
-0
-0
-0
-0
-0
-0
-0
-4.716729
-4.809718
-4.943804
-5.126696
-5.368095
-0
-0
-0
-0
-0
-0
-0
-0
-0
-4.510006
-4.595608
-4.719258
-4.887904
-5.109856
-0
-0
-0
-0
-0
-0
-0
-0
-0
-0
-4.306441
-4.385236
-4.499232
-4.654571
-4.858651
-0
-0
-0
-0
-0
-0
-0
-0
-0
-0
-0
-4.11035
-4.183133
-4.28837
-4.431659
-4.619512
-0
-0
-0
-0
-0
-0
-0
-0
-0
-0
-0
-0
-3.925935
-3.993309
-4.090889
-4.223475
-4.396965
-0
-0
-0
-0
-0
-0
-0
-0
-0
-0
-0
-0
-0
-3.754649
-3.817294
-3.908012
-4.031272
-4.192146
-0
-0
-0
-0
-0
-0
-0
-0
-0
-0
-0
-0
-0
-0
-3.596122
-3.654644
-3.739365
-3.854305
-4.004179
-0
-0
-0
-0
-0
-0
-0
-0
-0
-0
-0
-0
-0
-0
-0
-3.448978
-3.503906
-3.583349
-3.690979
-3.831042
-0
-0
-0
-0
-0
-0
-0
-0
-0
-0
-0
-0
-0
-0
-0
-0
-3.311191
-3.362905
-3.437675
-3.538796
-3.67015
-0
-0
-0
-0
-0
-0
-0
-0
-0
-0
-0
-0
-0
-0
-0
-0
-0
-3.180049
-3.228747
-3.299289
-3.394537
-3.51799
-0
-0
-0
-0
-0
-0
-0
-0
-0
-0
-0
-0
-0
-0
-0
-0
-0
-0
-3.051983
-3.097964
-3.16445
-3.25426
-3.3704
-0
-0
-0
-0
-0
-0
-0
-0
-0
-0
-0
-0
-0
-0
-0
-0
-0
-0
-0
-2.924845
-2.96809
-3.030781
-3.115267
-3.224478
-0
-0
-0
-0
-0
-0
-0
-0
-0
-0
-2.80143
-2.842219
-2.901159
-2.980701
-3.083299
-0
-0
-0
-0
-0
-0
-0
-0
-0
-0
-2.685335
-2.723863
-2.779472
-2.854307
-2.95092
-0
-0
-0
-0
-0
-0
-0
-0
-0
-0
-2.578289
-2.614769
-2.667374
-2.738078
-2.829133
-0
-0
-0
-0
-0
-0
-0
-0
-0
-0
-2.480969
-2.515354
-2.565264
-2.632289
-2.718499
-0
-0
-0
-0
-0
-0
-0
-0
-0
-0
-5.409464
-5.531189
-5.706193
-5.946302
-6.266522
-0
-0
-0
-0
-0
-0
-5.141262
-5.251156
-5.409194
-5.625411
-5.912407
-0
-0
-0
-0
-0
-0
-0
-4.904155
-5.004435
-5.148656
-5.345616
-5.606068
-0
-0
-0
-0
-0
-0
-0
-0
-4.690544
-4.78277
-4.915542
-5.096509
-5.335152
-0
-0
-0
-0
-0
-0
-0
-0
-0
-4.492332
-4.577471
-4.700308
-4.867659
-5.087681
-0
-0
-0
-0
-0
-0
-0
-0
-0
-0
-4.300856
-4.379545
-4.493301
-4.648221
-4.851642
-0
-0
-0
-0
-0
-0
-0
-0
-0
-0
-0
-4.111639
-4.184451
-4.28973
-4.433041
-4.620872
-0
-0
-0
-0
-0
-0
-0
-0
-0
-0
-0
-0
-3.928872
-3.996345
-4.094019
-4.226724
-4.400361
-0
-0
-0
-0
-0
-0
-0
-0
-0
-0
-0
-0
-0
-3.756569
-3.819271
-3.910063
-4.03341
-4.194382
-0
-0
-0
-0
-0
-0
-0
-0
-0
-0
-0
-0
-0
-0
-3.596122
-3.654644
-3.739365
-3.854305
-4.004179
-0
-0
-0
-0
-0
-0
-0
-0
-0
-0
-0
-0
-0
-0
-0
-3.44726
-3.502137
-3.581514
-3.68906
-3.829016
-0
-0
-0
-0
-0
-0
-0
-0
-0
-0
-0
-0
-0
-0
-0
-0
-3.308843
-3.360455
-3.435124
-3.536123
-3.667324
-0
-0
-0
-0
-0
-0
-0
-0
-0
-0
-0
-0
-0
-0
-0
-0
-0
-3.179094
-3.227675
-3.298104
-3.393266
-3.516637
-0
-0
-0
-0
-0
-0
-0
-0
-0
-0
-0
-0
-0
-0
-0
-0
-0
-0
-3.055309
-3.101206
-3.167659
-3.257504
-3.373773
-0
-0
-0
-0
-0
-0
-0
-0
-0
-0
-0
-0
-0
-0
-0
-0
-0
-0
-0
-2.934372
-2.97762
-3.040427
-3.12517
-3.234821
-0
-0
-0
-0
-0
-0
-0
-0
-0
-0
-0
-0
-0
-0
-0
-0
-0
-0
-0
-0
-2.813978
-2.854839
-2.913991
-2.993905
-3.097074
-0
-0
-0
-0
-0
-0
-0
-0
-0
-0
-2.696934
-2.735541
-2.791358
-2.866541
-2.963666
-0
-0
-0
-0
-0
-0
-0
-0
-0
-0
-2.586665
-2.623201
-2.675954
-2.746909
-2.838326
-0
-0
-0
-0
-0
-0
-0
-0
-0
-0
-2.485093
-2.519511
-2.569496
-2.636647
-2.723042
-0
-0
-0
-0
-0
-0
-0
-0
-0
-0
-2.392663
-2.425148
-2.472409
-2.536159
-2.618088
-0
-0
-0
-0
-0
-0
-0
-0
-0
-0
-5.129413
-5.23889
-5.396275
-5.611531
-5.897154
-0
-0
-0
-0
-0
-0
-0
-4.883611
-4.983275
-5.126512
-5.321996
-5.580331
-0
-0
-0
-0
-0
-0
-0
-0
-4.665392
-4.756902
-4.888516
-5.06778
-5.303982
-0
-0
-0
-0
-0
-0
-0
-0
-0
-4.468105
-4.552636
-4.674429
-4.840143
-5.05786
-0
-0
-0
-0
-0
-0
-0
-0
-0
-0
-4.284492
-4.362829
-4.475927
-4.629808
-4.831675
-0
-0
-0
-0
-0
-0
-0
-0
-0
-0
-4.106549
-4.179255
-4.284364
-4.427361
-4.614688
-0
-0
-0
-0
-0
-0
-0
-0
-0
-0
-0
-0
-3.930122
-3.997681
-4.095388
-4.228138
-4.4018
-0
-0
-0
-0
-0
-0
-0
-0
-0
-0
-0
-0
-0
-3.759348
-3.822145
-3.913058
-4.036521
-4.197637
-0
-0
-0
-0
-0
-0
-0
-0
-0
-0
-0
-0
-0
-0
-3.597937
-3.656513
-3.741304
-3.856335
-4.006311
-0
-0
-0
-0
-0
-0
-0
-0
-0
-0
-0
-0
-0
-0
-0
-3.44726
-3.502137
-3.581514
-3.68906
-3.829016
-0
-0
-0
-0
-0
-0
-0
-0
-0
-0
-0
-0
-0
-0
-0
-0
-3.307227
-3.358781
-3.433386
-3.534306
-3.665409
-0
-0
-0
-0
-0
-0
-0
-0
-0
-0
-0
-0
-0
-0
-0
-0
-0
-3.176892
-3.22537
-3.295683
-3.390727
-3.51396
-0
-0
-0
-0
-0
-0
-0
-0
-0
-0
-0
-0
-0
-0
-0
-0
-0
-0
-3.05444
-3.100218
-3.166554
-3.256287
-3.372468
-0
-0
-0
-0
-0
-0
-0
-0
-0
-0
-0
-0
-0
-0
-0
-0
-0
-0
-0
-2.937572
-2.980738
-3.0435
-3.128253
-3.237986
-0
-0
-0
-0
-0
-0
-0
-0
-0
-0
-0
-0
-0
-0
-0
-0
-0
-0
-0
-0
-2.823076
-2.863934
-2.923188
-3.003325
-3.106868
-0
-0
-0
-0
-0
-0
-0
-0
-0
-0
-0
-0
-0
-0
-0
-0
-0
-0
-0
-0
-2.708913
-2.747574
-2.803584
-2.879109
-2.97675
-0
-0
-0
-0
-0
-0
-0
-0
-0
-0
-2.59775
-2.634348
-2.687285
-2.758563
-2.850454
-0
-0
-0
-0
-0
-0
-0
-0
-0
-0
-2.493103
-2.52757
-2.577686
-2.645064
-2.731797
-0
-0
-0
-0
-0
-0
-0
-0
-0
-0
-2.396602
-2.429116
-2.476446
-2.54031
-2.622409
-0
-0
-0
-0
-0
-0
-0
-0
-0
-0
-2.308752
-2.339439
-2.384246
-2.44473
-2.522695
-0
-0
-0
-0
-0
-0
-0
-0
-0
-0
-4.872714
-4.972037
-5.114735
-5.309423
-5.566628
-0
-0
-0
-0
-0
-0
-0
-0
-4.646426
-4.737399
-4.868185
-5.046218
-5.280654
-0
-0
-0
-0
-0
-0
-0
-0
-0
-4.444778
-4.528746
-4.649559
-4.813812
-5.029475
-0
-0
-0
-0
-0
-0
-0
-0
-0
-0
-4.261978
-4.339823
-4.452055
-4.604595
-4.804482
-0
-0
-0
-0
-0
-0
-0
-0
-0
-0
-4.091338
-4.16376
-4.268337
-4.41047
-4.596521
-0
-0
-0
-0
-0
-0
-0
-0
-0
-0
-3.925417
-3.992944
-4.090487
-4.222998
-4.396268
-0
-0
-0
-0
-0
-0
-0
-0
-0
-0
-0
-0
-0
-3.760548
-3.823439
-3.914439
-4.037939
-4.199103
-0
-0
-0
-0
-0
-0
-0
-0
-0
-0
-0
-0
-0
-0
-3.600572
-3.659236
-3.744141
-3.859312
-4.009429
-0
-0
-0
-0
-0
-0
-0
-0
-0
-0
-0
-0
-0
-0
-0
-3.448978
-3.503906
-3.583349
-3.690979
-3.831042
-0
-0
-0
-0
-0
-0
-0
-0
-0
-0
-0
-0
-0
-0
-0
-0
-3.307227
-3.358781
-3.433386
-3.534306
-3.665409
-0
-0
-0
-0
-0
-0
-0
-0
-0
-0
-0
-0
-0
-0
-0
-0
-0
-3.175372
-3.223792
-3.294037
-3.389006
-3.512146
-0
-0
-0
-0
-0
-0
-0
-0
-0
-0
-0
-0
-0
-0
-0
-0
-0
-0
-3.052378
-3.098055
-3.164276
-3.253878
-3.369926
-0
-0
-0
-0
-0
-0
-0
-0
-0
-0
-0
-0
-0
-0
-0
-0
-0
-0
-0
-2.936784
-2.979837
-3.042481
-3.127117
-3.236737
-0
-0
-0
-0
-0
-0
-0
-0
-0
-0
-0
-0
-0
-0
-0
-0
-0
-0
-0
-0
-2.826162
-2.866938
-2.926147
-3.00628
-3.109877
-0
-0
-0
-0
-0
-0
-0
-0
-0
-0
-0
-0
-0
-0
-0
-0
-0
-0
-0
-0
-2.717621
-2.756267
-2.812366
-2.888095
-2.986068
-0
-0
-0
-0
-0
-0
-0
-0
-0
-0
-0
-0
-0
-0
-0
-0
-0
-0
-0
-0
-2.609211
-2.645843
-2.698948
-2.770542
-2.86291
-0
-0
-0
-0
-0
-0
-0
-0
-0
-0
-2.503709
-2.538229
-2.588506
-2.656177
-2.743351
-0
-0
-0
-0
-0
-0
-0
-0
-0
-0
-2.404269
-2.436827
-2.484276
-2.548347
-2.630755
-0
-0
-0
-0
-0
-0
-0
-0
-0
-0
-2.312521
-2.34323
-2.388101
-2.448691
-2.526811
-0
-0
-0
-0
-0
-0
-0
-0
-0
-0
-2.229009