/*--------------------------------*- C++ -*----------------------------------*\
| =========                 |                                                 |
| \\      /  F ield         | OpenFOAM: The Open Source CFD Toolbox           |
|  \\    /   O peration     | Version:  2306                                  |
|   \\  /    A nd           | Website:  www.openfoam.com                      |
|    \\/     M anipulation  |                                                 |
\*---------------------------------------------------------------------------*/
FoamFile
{
    version     2.0;
    format      ascii;
    arch        "LSB;label=32;scalar=64";
    class       volScalarField;
    location    "0.3/fuel";
    object      nernst;
}
// * * * * * * * * * * * * * * * * * * * * * * * * * * * * * * * * * * * * * //

dimensions      [1 2 -3 0 0 -1 0];

internalField   nonuniform List<scalar> 
16000
(
-1.722142
-1.72306
-1.71003
-1.722201
-1.724924
-1.710631
-1.72312
-1.699087
-1.710072
-1.722316
-1.727747
-1.711844
-1.724988
-1.69954
-1.710673
-1.723238
-1.690214
-1.699117
-1.710154
-1.722485
-1.731417
-1.713665
-1.727817
-1.700452
-1.711887
-1.725112
-1.69058
-1.69957
-1.710757
-1.723412
-1.682889
-1.690237
-1.699178
-1.710277
-1.722708
-1.735375
-1.716007
-1.731498
-1.701821
-1.71371
-1.727953
-1.691316
-1.700483
-1.711974
-1.725295
-1.683196
-1.690603
-1.699632
-1.710881
-1.72364
-1.676686
-1.682907
-1.690284
-1.69927
-1.710439
-1.722931
-1.738312
-1.718511
-1.735471
-1.703579
-1.716055
-1.731652
-1.692419
-1.701852
-1.7138
-1.728152
-1.683813
-1.691339
-1.700546
-1.712102
-1.725536
-1.67695
-1.683214
-1.69065
-1.699724
-1.711046
-1.72387
-1.671319
-1.6767
-1.682945
-1.690356
-1.699391
-1.710602
-1.72312
-1.740095
-1.7204
-1.738421
-1.705462
-1.718561
-1.735651
-1.693835
-1.70361
-1.71615
-1.731877
-1.684737
-1.692442
-1.701916
-1.713934
-1.728414
-1.677481
-1.683831
-1.691387
-1.70064
-1.712271
-1.725778
-1.671551
-1.676964
-1.683252
-1.690723
-1.699847
-1.711211
-1.724063
-1.666597
-1.67133
-1.676731
-1.683004
-1.690452
-1.699514
-1.710739
-1.723307
-1.741045
-1.721592
-1.740215
-1.706903
-1.720452
-1.738622
-1.695353
-1.705494
-1.718664
-1.735912
-1.685922
-1.693857
-1.703677
-1.716293
-1.732173
-1.678276
-1.684754
-1.692491
-1.702013
-1.714111
-1.728677
-1.672017
-1.677495
-1.683869
-1.691461
-1.700765
-1.712441
-1.725981
-1.666803
-1.671562
-1.676995
-1.683311
-1.690819
-1.69997
-1.71135
-1.724255
-1.662383
-1.666605
-1.671357
-1.67678
-1.683082
-1.690549
-1.699617
-1.710875
-1.723494
-1.741448
-1.722259
-1.741172
-1.707837
-1.721646
-1.740431
-1.696523
-1.706935
-1.720559
-1.738911
-1.687193
-1.695375
-1.705563
-1.718818
-1.736254
-1.679294
-1.685939
-1.693907
-1.703778
-1.716482
-1.73247
-1.672714
-1.678289
-1.684793
-1.692566
-1.702142
-1.71429
-1.728898
-1.667219
-1.672028
-1.677527
-1.683929
-1.691559
-1.700891
-1.712584
-1.726184
-1.66257
-1.666812
-1.671589
-1.677045
-1.68339
-1.690917
-1.700074
-1.711488
-1.724447
-1.658582
-1.66239
-1.666628
-1.671398
-1.676847
-1.683162
-1.690631
-1.699719
-1.71101
-1.72368
-1.741448
-1.722554
-1.741578
-1.708376
-1.722315
-1.741397
-1.697293
-1.707868
-1.721757
-1.740739
-1.688178
-1.696544
-1.707005
-1.72072
-1.739288
-1.680387
-1.687209
-1.695426
-1.705669
-1.719022
-1.736597
-1.673607
-1.679307
-1.685978
-1.693984
-1.703913
-1.716672
-1.732721
-1.667839
-1.672724
-1.678321
-1.684854
-1.692666
-1.702272
-1.714439
-1.72912
-1.662944
-1.667227
-1.672055
-1.677576
-1.684009
-1.691658
-1.700997
-1.712726
-1.726387
-1.658752
-1.662577
-1.666834
-1.671631
-1.677111
-1.68347
-1.690999
-1.700178
-1.711625
-1.724638
-1.65512
-1.658587
-1.66241
-1.666664
-1.671455
-1.676914
-1.683229
-1.690712
-1.699821
-1.711145
-1.724584
-1.741045
-1.722554
-1.741578
-1.708621
-1.722611
-1.741808
-1.697744
-1.708407
-1.722428
-1.741717
-1.688829
-1.697313
-1.707939
-1.721922
-1.741139
-1.681236
-1.688192
-1.696595
-1.707112
-1.720933
-1.739665
-1.674566
-1.680399
-1.687249
-1.695505
-1.705811
-1.719227
-1.736891
-1.668635
-1.673617
-1.679339
-1.68604
-1.694088
-1.704049
-1.716832
-1.732974
-1.663504
-1.667847
-1.672751
-1.678371
-1.684935
-1.692767
-1.702381
-1.714589
-1.729342
-1.659093
-1.662951
-1.66725
-1.672097
-1.677643
-1.68409
-1.691741
-1.701103
-1.712868
-1.726588
-1.655276
-1.658757
-1.662596
-1.666871
-1.671688
-1.677179
-1.683537
-1.691081
-1.700281
-1.711762
-1.725565
-1.651942
-1.655124
-1.658604
-1.662441
-1.666714
-1.671514
-1.67697
-1.683295
-1.690792
-1.699922
-1.7118
-1.725287
-1.740095
-1.722259
-1.741172
-1.708621
-1.722611
-1.741808
-1.697951
-1.708652
-1.722725
-1.742133
-1.689215
-1.697763
-1.708478
-1.722595
-1.742131
-1.6818
-1.688843
-1.697363
-1.708047
-1.72214
-1.74154
-1.675311
-1.681246
-1.688231
-1.696675
-1.707257
-1.721147
-1.73999
-1.669489
-1.674575
-1.680431
-1.687312
-1.695612
-1.705954
-1.719401
-1.737188
-1.664222
-1.668642
-1.673644
-1.67939
-1.686123
-1.694192
-1.704163
-1.716993
-1.733228
-1.659603
-1.663511
-1.66787
-1.672794
-1.678439
-1.685017
-1.692852
-1.70249
-1.714738
-1.729563
-1.65559
-1.659098
-1.662971
-1.667286
-1.672154
-1.677712
-1.684158
-1.691824
-1.701207
-1.713009
-1.727569
-1.652087
-1.65528
-1.658774
-1.662628
-1.666921
-1.671746
-1.677236
-1.683604
-1.691162
-1.700383
-1.712426
-1.726292
-1.649006
-1.651946
-1.655139
-1.658633
-1.662486
-1.666765
-1.671562
-1.677026
-1.683361
-1.690872
-1.700413
-1.712306
-1.725857
-1.738312
-1.721592
-1.740215
-1.708376
-1.722315
-1.741397
-1.697951
-1.708652
-1.722725
-1.742133
-1.689393
-1.69797
-1.708723
-1.722894
-1.742554
-1.682136
-1.689228
-1.697813
-1.708587
-1.722817
-1.742546
-1.675809
-1.68181
-1.688881
-1.697442
-1.708193
-1.72236
-1.741884
-1.670155
-1.675319
-1.681278
-1.688294
-1.696783
-1.707403
-1.721329
-1.740318
-1.664993
-1.669496
-1.674601
-1.680483
-1.687397
-1.695721
-1.706074
-1.719577
-1.73749
-1.660257
-1.664228
-1.668665
-1.673687
-1.679459
-1.686208
-1.69428
-1.704277
-1.717153
-1.733484
-1.656058
-1.659608
-1.66353
-1.667907
-1.672852
-1.678508
-1.685086
-1.692937
-1.702599
-1.714886
-1.730642
-1.652377
-1.655594
-1.659115
-1.663003
-1.667336
-1.672213
-1.677769
-1.684225
-1.691906
-1.701312
-1.713694
-1.728355
-1.64914
-1.65209
-1.655295
-1.658803
-1.662672
-1.666972
-1.671795
-1.677292
-1.683671
-1.691242
-1.700878
-1.712941
-1.726886
-1.646277
-1.649009
-1.651959
-1.655165
-1.658672
-1.662531
-1.666807
-1.67161
-1.677082
-1.683427
-1.69126
-1.700792
-1.712713
-1.726289
-1.735375
-1.7204
-1.738421
-1.707837
-1.721646
-1.740431
-1.697744
-1.708407
-1.722428
-1.741717
-1.689393
-1.69797
-1.708723
-1.722894
-1.742554
-1.682292
-1.689406
-1.69802
-1.708832
-1.723118
-1.742976
-1.676106
-1.682145
-1.689266
-1.697892
-1.708734
-1.72304
-1.742902
-1.6706
-1.675817
-1.681841
-1.688943
-1.69755
-1.70834
-1.722546
-1.742231
-1.665594
-1.670161
-1.675345
-1.681329
-1.68838
-1.696892
-1.707526
-1.721512
-1.74065
-1.66096
-1.664998
-1.669518
-1.674645
-1.680554
-1.687484
-1.695812
-1.706196
-1.719754
-1.737795
-1.656659
-1.660262
-1.664247
-1.668702
-1.673746
-1.67953
-1.686278
-1.694368
-1.704391
-1.717314
-1.734735
-1.65281
-1.656062
-1.659625
-1.663562
-1.667958
-1.672911
-1.678566
-1.685155
-1.693021
-1.702706
-1.715608
-1.731555
-1.64941
-1.65238
-1.655609
-1.659144
-1.663047
-1.667388
-1.672262
-1.677825
-1.684293
-1.691988
-1.701818
-1.71423
-1.729012
-1.646402
-1.649143
-1.652104
-1.655321
-1.658842
-1.662717
-1.667014
-1.671843
-1.677348
-1.683737
-1.691633
-1.70126
-1.713356
-1.72734
-1.643727
-1.646279
-1.649021
-1.651982
-1.6552
-1.658712
-1.662568
-1.666849
-1.671658
-1.677137
-1.683745
-1.691557
-1.701094
-1.713018
-1.726577
-1.731417
-1.718511
-1.735471
-1.706903
-1.720452
-1.738622
-1.697293
-1.707868
-1.721757
-1.740739
-1.689215
-1.697763
-1.708478
-1.722595
-1.742131
-1.682292
-1.689406
-1.69802
-1.708832
-1.723118
-1.742976
-1.676244
-1.682301
-1.689444
-1.698099
-1.708979
-1.723342
-1.743338
-1.670867
-1.676113
-1.682175
-1.689328
-1.698
-1.708881
-1.723229
-1.743262
-1.665998
-1.670605
-1.675842
-1.681891
-1.689029
-1.697659
-1.708463
-1.722733
-1.742583
-1.66151
-1.665599
-1.670182
-1.675388
-1.6814
-1.688467
-1.696984
-1.70765
-1.721697
-1.740987
-1.657306
-1.660964
-1.665017
-1.669556
-1.674706
-1.680626
-1.687557
-1.695904
-1.706318
-1.719933
-1.739306
-1.653367
-1.656663
-1.660279
-1.66428
-1.668754
-1.673806
-1.679589
-1.686349
-1.694455
-1.704505
-1.7181
-1.735926
-1.649814
-1.652814
-1.656077
-1.659654
-1.663607
-1.668009
-1.672961
-1.678623
-1.685223
-1.693105
-1.70323
-1.716192
-1.732362
-1.646655
-1.649413
-1.652394
-1.655634
-1.659183
-1.663092
-1.66743
-1.672311
-1.677882
-1.684359
-1.692384
-1.702209
-1.714667
-1.729524
-1.643845
-1.646405
-1.649155
-1.652127
-1.655356
-1.658882
-1.662755
-1.667056
-1.671891
-1.677403
-1.684056
-1.691931
-1.701566
-1.713667
-1.727646
-1.641334
-1.643729
-1.64629
-1.649042
-1.652014
-1.655237
-1.658746
-1.662605
-1.666891
-1.671705
-1.677405
-1.683985
-1.691793
-1.701319
-1.713218
-1.727747
-1.716007
-1.731498
-1.705462
-1.718561
-1.735651
-1.696523
-1.706935
-1.720559
-1.738911
-1.688829
-1.697313
-1.707939
-1.721922
-1.741139
-1.682136
-1.689228
-1.697813
-1.708587
-1.722817
-1.742546
-1.676244
-1.682301
-1.689444
-1.698099
-1.708979
-1.723342
-1.743338
-1.670991
-1.676251
-1.68233
-1.689505
-1.698207
-1.709127
-1.723532
-1.743703
-1.66624
-1.670871
-1.676138
-1.682225
-1.689412
-1.698109
-1.709005
-1.723418
-1.743625
-1.66188
-1.666002
-1.670626
-1.675884
-1.681961
-1.689115
-1.697751
-1.708588
-1.722922
-1.742938
-1.657813
-1.661514
-1.665618
-1.670219
-1.675449
-1.681472
-1.68854
-1.697076
-1.707774
-1.721884
-1.742654
-1.653967
-1.65731
-1.660981
-1.66505
-1.669608
-1.674767
-1.680687
-1.687631
-1.695997
-1.706442
-1.720812
-1.74102
-1.650333
-1.65337
-1.656678
-1.660308
-1.664325
-1.668806
-1.673856
-1.679648
-1.686419
-1.694543
-1.705062
-1.718799
-1.737126
-1.647033
-1.649817
-1.652827
-1.656103
-1.659694
-1.663653
-1.668052
-1.67301
-1.678681
-1.685291
-1.693511
-1.703646
-1.71669
-1.733028
-1.644082
-1.646657
-1.649425
-1.652416
-1.65567
-1.659224
-1.66313
-1.667473
-1.672359
-1.677938
-1.684682
-1.692687
-1.702524
-1.714999
-1.729877
-1.641445
-1.643847
-1.646415
-1.649176
-1.652159
-1.655393
-1.658916
-1.662792
-1.667098
-1.671938
-1.677672
-1.684297
-1.692168
-1.701793
-1.713873
-1.63908
-1.641336
-1.643739
-1.646309
-1.649071
-1.652048
-1.655267
-1.658779
-1.662642
-1.666932
-1.671935
-1.677604
-1.684175
-1.691966
-1.701465
-1.724924
-1.713665
-1.727817
-1.703579
-1.716055
-1.731652
-1.695353
-1.705494
-1.718664
-1.735912
-1.688178
-1.696544
-1.707005
-1.72072
-1.739288
-1.6818
-1.688843
-1.697363
-1.708047
-1.72214
-1.74154
-1.676106
-1.682145
-1.689266
-1.697892
-1.708734
-1.72304
-1.742902
-1.670991
-1.676251
-1.68233
-1.689505
-1.698207
-1.709127
-1.723532
-1.743703
-1.666353
-1.670995
-1.676275
-1.68238
-1.68959
-1.698316
-1.709251
-1.723722
-1.744071
-1.662102
-1.666244
-1.670892
-1.676179
-1.682295
-1.689498
-1.6982
-1.709129
-1.723609
-1.743991
-1.658154
-1.661883
-1.66602
-1.670663
-1.675943
-1.682032
-1.689187
-1.697843
-1.708713
-1.723112
-1.744693
-1.654437
-1.657816
-1.66153
-1.66565
-1.670271
-1.67551
-1.681532
-1.688613
-1.69717
-1.707901
-1.722803
-1.744514
-1.650892
-1.653969
-1.657324
-1.66101
-1.665096
-1.669662
-1.674818
-1.680747
-1.687705
-1.69609
-1.707048
-1.721737
-1.743153
-1.647518
-1.650335
-1.653383
-1.656704
-1.660348
-1.664371
-1.66885
-1.673907
-1.679706
-1.68649
-1.694969
-1.705544
-1.719473
-1.738267
-1.644437
-1.647035
-1.649828
-1.65285
-1.656139
-1.659734
-1.663691
-1.668095
-1.673059
-1.678737
-1.685621
-1.693828
-1.703994
-1.717084
-1.733506
-1.641669
-1.644084
-1.646668
-1.649446
-1.652449
-1.655707
-1.659258
-1.663167
-1.667515
-1.672407
-1.678209
-1.684925
-1.692928
-1.702759
-1.715218
-1.639185
-1.641447
-1.643857
-1.646434
-1.649206
-1.652192
-1.655423
-1.658949
-1.662829
-1.66714
-1.672169
-1.677871
-1.684486
-1.692342
-1.70194
-1.636948
-1.639081
-1.641344
-1.643756
-1.646336
-1.649102
-1.652075
-1.655297
-1.658812
-1.662679
-1.667133
-1.672102
-1.677759
-1.684312
-1.692077
-1.72306
-1.711844
-1.724988
-1.701821
-1.71371
-1.727953
-1.693835
-1.70361
-1.71615
-1.731877
-1.687193
-1.695375
-1.705563
-1.718818
-1.736254
-1.681236
-1.688192
-1.696595
-1.707112
-1.720933
-1.739665
-1.675809
-1.68181
-1.688881
-1.697442
-1.708193
-1.72236
-1.741884
-1.670867
-1.676113
-1.682175
-1.689328
-1.698
-1.708881
-1.723229
-1.743262
-1.666353
-1.670995
-1.676275
-1.68238
-1.68959
-1.698316
-1.709251
-1.723722
-1.744071
-1.662205
-1.666356
-1.671016
-1.676317
-1.68245
-1.689675
-1.698406
-1.709375
-1.723914
-1.744443
-1.65836
-1.662104
-1.666261
-1.670928
-1.676238
-1.682365
-1.68957
-1.698291
-1.709254
-1.723801
-1.745797
-1.654755
-1.658156
-1.661898
-1.666052
-1.670714
-1.676004
-1.682092
-1.68926
-1.697935
-1.708839
-1.724045
-1.746574
-1.651331
-1.654439
-1.65783
-1.661558
-1.665696
-1.670324
-1.675561
-1.681592
-1.688687
-1.697264
-1.708519
-1.723753
-1.746737
-1.648042
-1.650893
-1.653982
-1.65735
-1.661051
-1.665143
-1.669706
-1.67487
-1.680809
-1.68778
-1.696549
-1.707671
-1.722842
-1.7459
-1.644894
-1.64752
-1.650347
-1.653406
-1.65674
-1.660389
-1.66441
-1.668893
-1.673957
-1.679765
-1.686833
-1.695331
-1.706
-1.720083
-1.739203
-1.642004
-1.644439
-1.647045
-1.649849
-1.652883
-1.656175
-1.659768
-1.663728
-1.668137
-1.673107
-1.679013
-1.685873
-1.69409
-1.704262
-1.717349
-1.639396
-1.64167
-1.644094
-1.646687
-1.649475
-1.652482
-1.655737
-1.659291
-1.663204
-1.667556
-1.672639
-1.678409
-1.685117
-1.693106
-1.702911
-1.637047
-1.639186
-1.641456
-1.643874
-1.646462
-1.649236
-1.652219
-1.655453
-1.658982
-1.662866
-1.66734
-1.672336
-1.678025
-1.684624
-1.692452
-1.634925
-1.636948
-1.639089
-1.641361
-1.643781
-1.646364
-1.649127
-1.652102
-1.655326
-1.658844
-1.662855
-1.667275
-1.672231
-1.67787
-1.684399
-1.722142
-1.710631
-1.72312
-1.700452
-1.711887
-1.725112
-1.692419
-1.701852
-1.7138
-1.728152
-1.685922
-1.693857
-1.703677
-1.716293
-1.732173
-1.680387
-1.687209
-1.695426
-1.705669
-1.719022
-1.736597
-1.675311
-1.681246
-1.688231
-1.696675
-1.707257
-1.721147
-1.73999
-1.6706
-1.675817
-1.681841
-1.688943
-1.69755
-1.70834
-1.722546
-1.742231
-1.66624
-1.670871
-1.676138
-1.682225
-1.689412
-1.698109
-1.709005
-1.723418
-1.743625
-1.662205
-1.666356
-1.671016
-1.676317
-1.68245
-1.689675
-1.698406
-1.709375
-1.723914
-1.744443
-1.658456
-1.662208
-1.666374
-1.671051
-1.676375
-1.68252
-1.689746
-1.698498
-1.7095
-1.724107
-1.746273
-1.654946
-1.658361
-1.662119
-1.666292
-1.670979
-1.676298
-1.682424
-1.689641
-1.698383
-1.70938
-1.724743
-1.747682
-1.651628
-1.654756
-1.65817
-1.661926
-1.666097
-1.670766
-1.676054
-1.682151
-1.689333
-1.698028
-1.709457
-1.724972
-1.74872
-1.648455
-1.651332
-1.654451
-1.657855
-1.661599
-1.665742
-1.670368
-1.675612
-1.681653
-1.688762
-1.697725
-1.709144
-1.724852
-1.749385
-1.645387
-1.648043
-1.650905
-1.654006
-1.657387
-1.661093
-1.665183
-1.669751
-1.674922
-1.680871
-1.688146
-1.697013
-1.708412
-1.724212
-1.74966
-1.642435
-1.644895
-1.64753
-1.650367
-1.653439
-1.656777
-1.660423
-1.664448
-1.668936
-1.674007
-1.68005
-1.687119
-1.69567
-1.706403
-1.72055
-1.639713
-1.642005
-1.644448
-1.647064
-1.649879
-1.652916
-1.656206
-1.659802
-1.663765
-1.668179
-1.673342
-1.679219
-1.686079
-1.694288
-1.704434
-1.637248
-1.639397
-1.641679
-1.644111
-1.646714
-1.649506
-1.65251
-1.655767
-1.659324
-1.663241
-1.667758
-1.672806
-1.678564
-1.685256
-1.693217
-1.63502
-1.637048
-1.639194
-1.641472
-1.643899
-1.64649
-1.649261
-1.652247
-1.655483
-1.659015
-1.663043
-1.667482
-1.672464
-1.678136
-1.684709
-1.633001
-1.634926
-1.636956
-1.639104
-1.641384
-1.643807
-1.646387
-1.649151
-1.652129
-1.655356
-1.659002
-1.662978
-1.667383
-1.672322
-1.677937
-1.71003
-1.722201
-1.69954
-1.710673
-1.723238
-1.691316
-1.700483
-1.711974
-1.725295
-1.684737
-1.692442
-1.701916
-1.713934
-1.728414
-1.679294
-1.685939
-1.693907
-1.703778
-1.716482
-1.73247
-1.674566
-1.680399
-1.687249
-1.695505
-1.705811
-1.719227
-1.736891
-1.670155
-1.675319
-1.681278
-1.688294
-1.696783
-1.707403
-1.721329
-1.740318
-1.665998
-1.670605
-1.675842
-1.681891
-1.689029
-1.697659
-1.708463
-1.722733
-1.742583
-1.662102
-1.666244
-1.670892
-1.676179
-1.682295
-1.689498
-1.6982
-1.709129
-1.723609
-1.743991
-1.658456
-1.662208
-1.666374
-1.671051
-1.676375
-1.68252
-1.689746
-1.698498
-1.7095
-1.724107
-1.746273
-1.655035
-1.658457
-1.662223
-1.666405
-1.671102
-1.676435
-1.682578
-1.689818
-1.698589
-1.709626
-1.725053
-1.748162
-1.651807
-1.654947
-1.658375
-1.662147
-1.666337
-1.67103
-1.676348
-1.682483
-1.689714
-1.698476
-1.709997
-1.725652
-1.749771
-1.648734
-1.651629
-1.654768
-1.658195
-1.661966
-1.666143
-1.67081
-1.676104
-1.682211
-1.689406
-1.698485
-1.710053
-1.725999
-1.75115
-1.645776
-1.648455
-1.651343
-1.654474
-1.657892
-1.661641
-1.665781
-1.670413
-1.675664
-1.681715
-1.689127
-1.698184
-1.709866
-1.726115
-1.752523
-1.642901
-1.645388
-1.648054
-1.650926
-1.654039
-1.657425
-1.661128
-1.665222
-1.669796
-1.674975
-1.681174
-1.688512
-1.697565
-1.709325
-1.72601
-1.756534
-1.640122
-1.642436
-1.644904
-1.647549
-1.650398
-1.653473
-1.656808
-1.660457
-1.664486
-1.66898
-1.674249
-1.680283
-1.687384
-1.695965
-1.706696
-1.637549
-1.639714
-1.642014
-1.644466
-1.647092
-1.64991
-1.652943
-1.656236
-1.659835
-1.663803
-1.668384
-1.673514
-1.679386
-1.686232
-1.69441
-1.635211
-1.637249
-1.639405
-1.641695
-1.644136
-1.646742
-1.649531
-1.652537
-1.655796
-1.659357
-1.663419
-1.6679
-1.672935
-1.678675
-1.68534
-1.633091
-1.635021
-1.637055
-1.639209
-1.641495
-1.643925
-1.646513
-1.649286
-1.652273
-1.655512
-1.659172
-1.663164
-1.66759
-1.672554
-1.678201
-1.631166
-1.633001
-1.634932
-1.63697
-1.639125
-1.641408
-1.643828
-1.64641
-1.649176
-1.652156
-1.655497
-1.659108
-1.663069
-1.667457
-1.672374
-1.699087
-1.710072
-1.722316
-1.69058
-1.69957
-1.710757
-1.723412
-1.683813
-1.691339
-1.700546
-1.712102
-1.725536
-1.678276
-1.684754
-1.692491
-1.702013
-1.714111
-1.728677
-1.673607
-1.679307
-1.685978
-1.693984
-1.703913
-1.716672
-1.732721
-1.669489
-1.674575
-1.680431
-1.687312
-1.695612
-1.705954
-1.719401
-1.737188
-1.665594
-1.670161
-1.675345
-1.681329
-1.68838
-1.696892
-1.707526
-1.721512
-1.74065
-1.66188
-1.666002
-1.670626
-1.675884
-1.681961
-1.689115
-1.697751
-1.708588
-1.722922
-1.742938
-1.65836
-1.662104
-1.666261
-1.670928
-1.676238
-1.682365
-1.68957
-1.698291
-1.709254
-1.723801
-1.745797
-1.655035
-1.658457
-1.662223
-1.666405
-1.671102
-1.676435
-1.682578
-1.689818
-1.698589
-1.709626
-1.725053
-1.748162
-1.651891
-1.655036
-1.65847
-1.66225
-1.666449
-1.671153
-1.676484
-1.682637
-1.68989
-1.698681
-1.710242
-1.725956
-1.750227
-1.648903
-1.651808
-1.654959
-1.658399
-1.662187
-1.666383
-1.671073
-1.676397
-1.682542
-1.689786
-1.698928
-1.710573
-1.726633
-1.752075
-1.64604
-1.648734
-1.65164
-1.65479
-1.658231
-1.662007
-1.666181
-1.670853
-1.676155
-1.682272
-1.689765
-1.698916
-1.710716
-1.727125
-1.753876
-1.64327
-1.645777
-1.648465
-1.651364
-1.654508
-1.657929
-1.661675
-1.66582
-1.670458
-1.675716
-1.682016
-1.689486
-1.698716
-1.710694
-1.727554
-1.757011
-1.640564
-1.642902
-1.645397
-1.648073
-1.650957
-1.654073
-1.657456
-1.661163
-1.665262
-1.669842
-1.675233
-1.681473
-1.688948
-1.698245
-1.710516
-1.729121
-1.760706
-1.637937
-1.640122
-1.642444
-1.644922
-1.647577
-1.650428
-1.653501
-1.656838
-1.660491
-1.664524
-1.66919
-1.674443
-1.680498
-1.687611
-1.69617
-1.635498
-1.63755
-1.639722
-1.64203
-1.644491
-1.64712
-1.649935
-1.652971
-1.656266
-1.659868
-1.663982
-1.668529
-1.673651
-1.679506
-1.686322
-1.633274
-1.635211
-1.637256
-1.63942
-1.641719
-1.644162
-1.646765
-1.649556
-1.652564
-1.655826
-1.659515
-1.66354
-1.668007
-1.673024
-1.678739
-1.631252
-1.633092
-1.635027
-1.637069
-1.639231
-1.641519
-1.643946
-1.646535
-1.64931
-1.6523
-1.655654
-1.659278
-1.663255
-1.667663
-1.672604
-1.629411
-1.631166
-1.633008
-1.634945
-1.63699
-1.639148
-1.641428
-1.643849
-1.646432
-1.6492
-1.652284
-1.65559
-1.659186
-1.66313
-1.667498
-1.690214
-1.699117
-1.710154
-1.722485
-1.683196
-1.690603
-1.699632
-1.710881
-1.72364
-1.677481
-1.683831
-1.691387
-1.70064
-1.712271
-1.725778
-1.672714
-1.678289
-1.684793
-1.692566
-1.702142
-1.71429
-1.728898
-1.668635
-1.673617
-1.679339
-1.68604
-1.694088
-1.704049
-1.716832
-1.732974
-1.664993
-1.669496
-1.674601
-1.680483
-1.687397
-1.695721
-1.706074
-1.719577
-1.73749
-1.66151
-1.665599
-1.670182
-1.675388
-1.6814
-1.688467
-1.696984
-1.70765
-1.721697
-1.740987
-1.658154
-1.661883
-1.66602
-1.670663
-1.675943
-1.682032
-1.689187
-1.697843
-1.708713
-1.723112
-1.744693
-1.654946
-1.658361
-1.662119
-1.666292
-1.670979
-1.676298
-1.682424
-1.689641
-1.698383
-1.70938
-1.724743
-1.747682
-1.651891
-1.655036
-1.65847
-1.66225
-1.666449
-1.671153
-1.676484
-1.682637
-1.68989
-1.698681
-1.710242
-1.725956
-1.750227
-1.648982
-1.651892
-1.655048
-1.658495
-1.66229
-1.666494
-1.671196
-1.676534
-1.682696
-1.689962
-1.699131
-1.710809
-1.726916
-1.75248
-1.6462
-1.648903
-1.651818
-1.654981
-1.658435
-1.662227
-1.66642
-1.671116
-1.676447
-1.682602
-1.690141
-1.699341
-1.711197
-1.727681
-1.754605
-1.64352
-1.64604
-1.648744
-1.65166
-1.654823
-1.658268
-1.662041
-1.666219
-1.670897
-1.676206
-1.682567
-1.6901
-1.699399
-1.711442
-1.728342
-1.757607
-1.640914
-1.64327
-1.645786
-1.648484
-1.651395
-1.654542
-1.65796
-1.66171
-1.66586
-1.670503
-1.675971
-1.682309
-1.689905
-1.699328
-1.711634
-1.729518
-1.760577
-1.638358
-1.640564
-1.64291
-1.645415
-1.648101
-1.650988
-1.654102
-1.657488
-1.661199
-1.665302
-1.670065
-1.675484
-1.681832
-1.689488
-1.699133
-1.71254
-1.731024
-1.763967
-1.635867
-1.637937
-1.64013
-1.642461
-1.644948
-1.647605
-1.650454
-1.653528
-1.656869
-1.660525
-1.664709
-1.669354
-1.674621
-1.680679
-1.687763
-1.633547
-1.635498
-1.637557
-1.639737
-1.642053
-1.644517
-1.647143
-1.649959
-1.652998
-1.656295
-1.660027
-1.664106
-1.668643
-1.673748
-1.679573
-1.631426
-1.633274
-1.635218
-1.63727
-1.639442
-1.641743
-1.644183
-1.646788
-1.64958
-1.65259
-1.655968
-1.659619
-1.663631
-1.66808
-1.673072
-1.629493
-1.631252
-1.633098
-1.63504
-1.63709
-1.639253
-1.641539
-1.643967
-1.646558
-1.649335
-1.652428
-1.655745
-1.659355
-1.663315
-1.667702
-1.627729
-1.629411
-1.631171
-1.63302
-1.634965
-1.637011
-1.639166
-1.641447
-1.64387
-1.646455
-1.649317
-1.652365
-1.655657
-1.659237
-1.663161
-1.682889
-1.690237
-1.699178
-1.710277
-1.722708
-1.67695
-1.683214
-1.69065
-1.699724
-1.711046
-1.72387
-1.672017
-1.677495
-1.683869
-1.691461
-1.700765
-1.712441
-1.725981
-1.667839
-1.672724
-1.678321
-1.684854
-1.692666
-1.702272
-1.714439
-1.72912
-1.664222
-1.668642
-1.673644
-1.67939
-1.686123
-1.694192
-1.704163
-1.716993
-1.733228
-1.66096
-1.664998
-1.669518
-1.674645
-1.680554
-1.687484
-1.695812
-1.706196
-1.719754
-1.737795
-1.657813
-1.661514
-1.665618
-1.670219
-1.675449
-1.681472
-1.68854
-1.697076
-1.707774
-1.721884
-1.742654
-1.654755
-1.658156
-1.661898
-1.666052
-1.670714
-1.676004
-1.682092
-1.68926
-1.697935
-1.708839
-1.724045
-1.746574
-1.651807
-1.654947
-1.658375
-1.662147
-1.666337
-1.67103
-1.676348
-1.682483
-1.689714
-1.698476
-1.709997
-1.725652
-1.749771
-1.648982
-1.651892
-1.655048
-1.658495
-1.66229
-1.666494
-1.671196
-1.676534
-1.682696
-1.689962
-1.699131
-1.710809
-1.726916
-1.75248
-1.646275
-1.648982
-1.651902
-1.65507
-1.65853
-1.66233
-1.666532
-1.671239
-1.676583
-1.682755
-1.690314
-1.699536
-1.711416
-1.727933
-1.754933
-1.643672
-1.6462
-1.648913
-1.651838
-1.655013
-1.658472
-1.66226
-1.666458
-1.671159
-1.676498
-1.682892
-1.690459
-1.699791
-1.711866
-1.728792
-1.758035
-1.641152
-1.64352
-1.646049
-1.648763
-1.65169
-1.654857
-1.658298
-1.662075
-1.666258
-1.670941
-1.676455
-1.682838
-1.690477
-1.69993
-1.712226
-1.729935
-1.760747
-1.638691
-1.640914
-1.643278
-1.645803
-1.648512
-1.651426
-1.65457
-1.657992
-1.661745
-1.665899
-1.670724
-1.676216
-1.682651
-1.690386
-1.700022
-1.712889
-1.731144
-1.763656
-1.636269
-1.638358
-1.640572
-1.642927
-1.645441
-1.64813
-1.651014
-1.65413
-1.65752
-1.661235
-1.665498
-1.67028
-1.675786
-1.682276
-1.690193
-1.700625
-1.713757
-1.73256
-1.766614
-1.6339
-1.635867
-1.637945
-1.640145
-1.642484
-1.644974
-1.647629
-1.650479
-1.653556
-1.656899
-1.660689
-1.664849
-1.669503
-1.674768
-1.680794
-1.631688
-1.633547
-1.635504
-1.637571
-1.639759
-1.642077
-1.644538
-1.647165
-1.649984
-1.653025
-1.656438
-1.660134
-1.664202
-1.668721
-1.673797
-1.62966
-1.631426
-1.63328
-1.635231
-1.63729
-1.639465
-1.641762
-1.644204
-1.64681
-1.649605
-1.652719
-1.656059
-1.659696
-1.663689
-1.668116
-1.627808
-1.629493
-1.631258
-1.63311
-1.63506
-1.637111
-1.639271
-1.641558
-1.643988
-1.64658
-1.649452
-1.652509
-1.655812
-1.659404
-1.663344
-1.626114
-1.627729
-1.629416
-1.631183
-1.633038
-1.634984
-1.637028
-1.639184
-1.641466
-1.643891
-1.646562
-1.649389
-1.652423
-1.655699
-1.65926
-1.676686
-1.682907
-1.690284
-1.69927
-1.710439
-1.722931
-1.671551
-1.676964
-1.683252
-1.690723
-1.699847
-1.711211
-1.724063
-1.667219
-1.672028
-1.677527
-1.683929
-1.691559
-1.700891
-1.712584
-1.726184
-1.663504
-1.667847
-1.672751
-1.678371
-1.684935
-1.692767
-1.702381
-1.714589
-1.729342
-1.660257
-1.664228
-1.668665
-1.673687
-1.679459
-1.686208
-1.69428
-1.704277
-1.717153
-1.733484
-1.657306
-1.660964
-1.665017
-1.669556
-1.674706
-1.680626
-1.687557
-1.695904
-1.706318
-1.719933
-1.739306
-1.654437
-1.657816
-1.66153
-1.66565
-1.670271
-1.67551
-1.681532
-1.688613
-1.69717
-1.707901
-1.722803
-1.744514
-1.651628
-1.654756
-1.65817
-1.661926
-1.666097
-1.670766
-1.676054
-1.682151
-1.689333
-1.698028
-1.709457
-1.724972
-1.74872
-1.648903
-1.651808
-1.654959
-1.658399
-1.662187
-1.666383
-1.671073
-1.676397
-1.682542
-1.689786
-1.698928
-1.710573
-1.726633
-1.752075
-1.646275
-1.648982
-1.651902
-1.65507
-1.65853
-1.66233
-1.666532
-1.671239
-1.676583
-1.682755
-1.690314
-1.699536
-1.711416
-1.727933
-1.754933
-1.643744
-1.646275
-1.648992
-1.651922
-1.655102
-1.658567
-1.662363
-1.666569
-1.671281
-1.676633
-1.683043
-1.690624
-1.699971
-1.712061
-1.729002
-1.75825
-1.641297
-1.643672
-1.646208
-1.648931
-1.651868
-1.655046
-1.658501
-1.662294
-1.666496
-1.671203
-1.676742
-1.683148
-1.690808
-1.700275
-1.712575
-1.730235
-1.760946
-1.638919
-1.641152
-1.643528
-1.646066
-1.64879
-1.651721
-1.654884
-1.658329
-1.662109
-1.666296
-1.671156
-1.676682
-1.683144
-1.690892
-1.700504
-1.71323
-1.731367
-1.763608
-1.636587
-1.638691
-1.640921
-1.643294
-1.645829
-1.648541
-1.651451
-1.654598
-1.658023
-1.66178
-1.666093
-1.670933
-1.676505
-1.683047
-1.690934
-1.700935
-1.713908
-1.732599
-1.766262
-1.634284
-1.636268
-1.638365
-1.640587
-1.642951
-1.645468
-1.648154
-1.65104
-1.654159
-1.657552
-1.661408
-1.665684
-1.67054
-1.676162
-1.682859
-1.691368
-1.701513
-1.714737
-1.733841
-1.768774
-1.632026
-1.6339
-1.635874
-1.637958
-1.640167
-1.642509
-1.644995
-1.647652
-1.650504
-1.653583
-1.657046
-1.660811
-1.664976
-1.669625
-1.674857
-1.629911
-1.631687
-1.633553
-1.635517
-1.637591
-1.639781
-1.642097
-1.644559
-1.647188
-1.650009
-1.653154
-1.656531
-1.660215
-1.664265
-1.668757
-1.627968
-1.62966
-1.631432
-1.633292
-1.63525
-1.637312
-1.639483
-1.641782
-1.644225
-1.646833
-1.649722
-1.652798
-1.656124
-1.659744
-1.663716
-1.62619
-1.627808
-1.629499
-1.631269
-1.633128
-1.635079
-1.637128
-1.63929
-1.641578
-1.644009
-1.646687
-1.649523
-1.652566
-1.655852
-1.659426
-1.62456
-1.626113
-1.627734
-1.629427
-1.6312
-1.633057
-1.635
-1.637045
-1.639202
-1.641486
-1.64399
-1.646626
-1.649439
-1.652457
-1.655715
-1.671319
-1.6767
-1.682945
-1.690356
-1.699391
-1.710602
-1.72312
-1.666803
-1.671562
-1.676995
-1.683311
-1.690819
-1.69997
-1.71135
-1.724255
-1.662944
-1.667227
-1.672055
-1.677576
-1.684009
-1.691658
-1.700997
-1.712726
-1.726387
-1.659603
-1.663511
-1.66787
-1.672794
-1.678439
-1.685017
-1.692852
-1.70249
-1.714738
-1.729563
-1.656659
-1.660262
-1.664247
-1.668702
-1.673746
-1.67953
-1.686278
-1.694368
-1.704391
-1.717314
-1.734735
-1.653967
-1.65731
-1.660981
-1.66505
-1.669608
-1.674767
-1.680687
-1.687631
-1.695997
-1.706442
-1.720812
-1.74102
-1.651331
-1.654439
-1.65783
-1.661558
-1.665696
-1.670324
-1.675561
-1.681592
-1.688687
-1.697264
-1.708519
-1.723753
-1.746737
-1.648734
-1.651629
-1.654768
-1.658195
-1.661966
-1.666143
-1.67081
-1.676104
-1.682211
-1.689406
-1.698485
-1.710053
-1.725999
-1.75115
-1.6462
-1.648903
-1.651818
-1.654981
-1.658435
-1.662227
-1.66642
-1.671116
-1.676447
-1.682602
-1.690141
-1.699341
-1.711197
-1.727681
-1.754605
-1.643744
-1.646275
-1.648992
-1.651922
-1.655102
-1.658567
-1.662363
-1.666569
-1.671281
-1.676633
-1.683043
-1.690624
-1.699971
-1.712061
-1.729002
-1.75825
-1.641366
-1.643743
-1.646283
-1.64901
-1.651952
-1.655135
-1.658596
-1.662396
-1.666607
-1.671324
-1.676876
-1.683292
-1.690961
-1.700437
-1.71274
-1.730387
-1.761065
-1.639058
-1.641297
-1.643679
-1.646225
-1.648958
-1.651898
-1.655073
-1.658531
-1.662328
-1.666534
-1.671414
-1.676956
-1.683431
-1.691185
-1.700791
-1.713473
-1.731561
-1.763657
-1.636805
-1.638919
-1.641159
-1.643544
-1.646091
-1.648818
-1.651746
-1.654912
-1.65836
-1.662144
-1.666485
-1.67135
-1.676939
-1.683484
-1.691342
-1.701224
-1.714112
-1.732727
-1.766121
-1.634589
-1.636587
-1.638698
-1.640936
-1.643318
-1.645855
-1.648564
-1.651477
-1.654626
-1.658055
-1.661952
-1.666275
-1.671181
-1.676839
-1.683498
-1.691646
-1.701664
-1.714822
-1.733862
-1.768434
-1.632393
-1.634284
-1.636275
-1.638379
-1.64061
-1.642976
-1.64549
-1.648178
-1.651067
-1.654188
-1.657708
-1.661572
-1.665911
-1.670864
-1.676657
-1.683823
-1.692062
-1.702228
-1.715551
-1.734905
-1.770512
-1.630235
-1.632025
-1.633906
-1.635887
-1.637979
-1.64019
-1.642528
-1.645016
-1.647675
-1.650529
-1.653716
-1.657152
-1.660919
-1.665077
-1.669693
-1.628209
-1.62991
-1.631693
-1.633565
-1.635537
-1.637612
-1.6398
-1.642116
-1.64458
-1.647211
-1.650126
-1.653235
-1.6566
-1.660266
-1.66429
-1.626344