/*--------------------------------*- C++ -*----------------------------------*\
| =========                 |                                                 |
| \\      /  F ield         | OpenFOAM: The Open Source CFD Toolbox           |
|  \\    /   O peration     | Version:  2306                                  |
|   \\  /    A nd           | Website:  www.openfoam.com                      |
|    \\/     M anipulation  |                                                 |
\*---------------------------------------------------------------------------*/
FoamFile
{
    version     2.0;
    format      ascii;
    arch        "LSB;label=32;scalar=64";
    class       volScalarField;
    location    "0.3/fuel";
    object      p;
}
// * * * * * * * * * * * * * * * * * * * * * * * * * * * * * * * * * * * * * //

dimensions      [1 -1 -2 0 0 0 0];

internalField   nonuniform List<scalar> 
16000
(
100570.2
100563.1
100468.3
100551.4
100550.3
100461.2
100544.1
100387.4
100453
100510.6
100527.7
100448.1
100530.7
100381.1
100445.7
100502.6
100327.4
100374.9
100419.5
100463.2
100506.3
100425.7
100507.2
100369.4
100432.2
100488
100322
100368.5
100411.9
100454.5
100282.7
100316.9
100347.4
100380.6
100364.8
100463.4
100402.8
100484.6
100349.8
100409.4
100462.6
100311.7
100356.5
100397.7
100438.5
100277.9
100311.3
100340.8
100372.6
100354.7
100248.1
100273.7
100293.8
100315.5
100300
100346
100455.1
100362.5
100440.5
100329.3
100385.9
100437.6
100294.7
100336.6
100373.8
100411
100268.9
100301
100328.4
100357.7
100335.7
100243.8
100268.8
100288.1
100308.6
100291.1
100335.6
100220.6
100240.2
100253.9
100267
100249.2
100284.5
100340
100448.2
100351.2
100431.2
100294.6
100344.9
100390.6
100276.8
100315.7
100349
100383.2
100254.1
100283.7
100307.7
100332.6
100303.8
100235.9
100259.7
100277.4
100295.7
100274.5
100316.1
100216.8
100235.9
100248.9
100261.1
100241.8
100275.5
100329.5
100198.1
100213.6
100223
100230.9
100211.2
100236.5
100279.6
100329.9
100447
100342.8
100423.8
100284
100333.2
100379.4
100247.2
100280.6
100306.6
100333
100238.3
100265.5
100286
100306.3
100270.1
100222.7
100244.7
100259.6
100274.3
100247
100283.3
100209.7
100227.9
100239.6
100250
100227.8
100258.6
100309.9
100194.7
100209.8
100218.6
100225.8
100204.9
100229
100270.6
100319.3
100179.5
100192
100198.4
100202.9
100183
100200.5
100232.5
100271.4
100321.5
100446.3
100340.1
100422.2
100276.3
100324.5
100370.8
100237.7
100269.8
100293.9
100319.5
100212.7
100235.6
100250
100262.3
100213.3
100208.7
100228.7
100240.9
100251.6
100217.6
100248.5
100197.9
100214.6
100224.1
100231.7
100204.7
100230.6
100276.8
100188.3
100202.6
100210.3
100216.1
100193
100214.8
100253.6
100299.3
100176.4
100188.5
100194.5
100198.4
100177.6
100194.2
100224.9
100262.2
100310.7
100163.8
100174
100178.4
100180.7
100161.2
100173.9
100197.2
100225.7
100264.4
100311
100446.3
100338.8
100421.4
100273.5
100321.7
100368.6
100230.8
100261.8
100284.7
100309.5
100204.2
100226
100238.6
100248.5
100195.1
100186.2
100202.9
100210.3
100214.6
100170.1
100190.4
100185.4
100200.5
100207.8
100212.3
100180
100200.6
100241.6
100177.7
100190.8
100196.8
100200.3
100173.6
100191.4
100225.4
100265.8
100170.6
100182
100187.2
100190
100167.4
100182.2
100210.6
100245
100290.5
100160.9
100170.8
100174.9
100176.7
100156.4
100168.4
100190.7
100218.1
100255.2
100300.1
100150.3
100158.8
100161.8
100162.6
100143.9
100153.2
100170.9
100191.4
100220
100255.8
100284.3
100447
100338.8
100421.4
100272.3
100320.4
100367.5
100228.3
100259
100281.6
100306.5
100198.2
100219
100230.3
100238.6
100182.2
100178.7
100194.3
100200.3
100202.4
100154
100171.3
100165.5
100177.8
100181.4
100181
100140.8
100152.5
100183.1
100166.5
100178.2
100182.3
100183.4
100152.7
100166.3
100195.2
100230
100161
100171.4
100175.1
100176.1
100150.7
100162.5
100187.2
100216.6
100256.6
100155.6
100165
100168.3
100169.2
100147.5
100158
100178.7
100203.7
100237.9
100279.5
100147.7
100155.9
100158.6
100159
100139.7
100148.4
100165.4
100185
100212.3
100246.6
100273.1
100138.6
100145.7
100147.7
100147.6
100129.7
100136.8
100150.7
100166
100186.7
100213
100234
100290.6
100448.2
100340.1
100422.2
100272.3
100320.4
100367.5
100227.2
100257.8
100280.1
100305.1
100195.9
100216.5
100227.4
100235.1
100177.6
100173.3
100188.2
100193.1
100193.8
100142.8
100157.9
100158.7
100170.2
100172.6
100170.5
100127.3
100136
100163.7
100148.6
100158.1
100159.3
100156.5
100119.9
100126.7
100146.8
100170.7
100150.8
100160
100162.2
100161.2
100132.7
100141.3
100162
100186.1
100220.3
100146.9
100155.3
100157.5
100156.9
100132.9
100141.2
100158.9
100180
100209.3
100245.1
100142.8
100150.5
100152.6
100152.3
100131.8
100139.4
100155.1
100172.9
100197.9
100229.1
100251.8
100136.2
100143.1
100144.8
100144.3
100126
100132.6
100145.8
100160.5
100180.2
100205.2
100224.6
100279.4
100128.4
100134.4
100135.7
100134.9
100118
100123.4
100134.6
100146.4
100161.9
100180.7
100195.1
100239.1
100280.4
100455.1
100342.8
100423.8
100273.5
100321.7
100368.6
100227.2
100257.8
100280.1
100305.1
100194.9
100215.3
100226
100233.5
100175.6
100171.2
100185.9
100190.5
100190.6
100138.6
100153
100153.8
100164.7
100166.3
100163.1
100117.9
100124.5
100150.1
100142.5
100151.2
100151.5
100147.4
100108.5
100113
100130.2
100150.8
100134.7
100142.1
100141.8
100137.8
100104.7
100108.3
100122.2
100137.3
100160.3
100137.6
100145
100145.9
100143.7
100117.3
100123
100137.7
100154.6
100178.5
100208.1
100134.8
100141.8
100142.8
100141.3
100118.9
100124.7
100138.1
100153
100174.1
100200.1
100216.1
100131.7
100138.2
100139.4
100138.2
100118.9
100124.6
100136.8
100150.1
100168
100190.6
100206.6
100258.1
100126.1
100132
100133
100131.9
100114.6
100119.7
100130.3
100141.5
100156.4
100174.2
100187.2
100229.7
100268.9
100119.3
100124.5
100125.2
100124
100108.1
100112.3
100121.4
100130.8
100142.8
100156.8
100165.7
100199.3
100230.8
100278.2
100463.4
100351.2
100431.2
100276.3
100324.5
100370.8
100228.3
100259
100281.6
100306.5
100194.9
100215.3
100226
100233.5
100175.6
100170.3
100184.8
100189.2
100189.2
100136.7
100150.9
100152
100162.6
100164
100160.3
100114.3
100120.1
100145.2
100138.1
100146.3
100145.9
100140.9
100100.6
100103.4
100118.6
100137
100129.1
100135.9
100134.9
100129.7
100094.9
100096.7
100108.4
100120.4
100140
100122.9
100128.8
100127.7
100123
100093
100094.8
100104.5
100114.6
100129.3
100147.1
100126.3
100132.4
100132.4
100129.4
100105.1
100108.9
100119.9
100131.6
100148.5
100168.9
100177.6
100124.4
100130.2
100130.5
100128.3
100107.5
100111.6
100122.1
100133
100148
100166.6
100177
100222.2
100122
100127.5
100128
100126.4
100108.3
100112.6
100122.3
100132.5
100145.9
100161.9
100172.3
100211.8
100247.3
100117.3
100122.3
100122.8
100121.3
100105
100108.9
100117.7
100126.5
100138
100151.2
100159.1
100191.4
100221.2
100266.7
100111.2
100115.8
100116
100114.5
100099.5
100102.9
100110.5
100118.1
100127.6
100138.4
100143.9
100169.2
100192.4
100229
100275.9
100506.3
100362.5
100440.5
100284
100333.2
100379.4
100230.8
100261.8
100284.7
100309.5
100195.9
100216.5
100227.4
100235.1
100177.6
100170.3
100184.8
100189.2
100189.2
100136.7
100150.9
100151.1
100161.7
100162.9
100159
100112.7
100118.2
100142.9
100136.4
100144.5
100143.8
100138.5
100097.5
100099.7
100114.2
100131.9
100125.1
100131.5
100129.9
100124
100088.1
100088.6
100098.7
100108.7
100125.9
100117.8
100123.2
100121.4
100115.8
100084.4
100084.9
100092.9
100100.6
100112.3
100126.5
100112.9
100117.7
100116
100111
100083.7
100084.4
100091.7
100098.2
100108.2
100119.2
100115
100116.5
100121.6
100120.9
100117.6
100095.1
100097.7
100106.2
100114.7
100126.5
100140.8
100145
100183.6
100115.2
100120.1
100119.9
100117.3
100097.9
100101
100109.3
100117.6
100128.8
100141.8
100147.9
100181.9
100209.8
100113.4
100118.1
100118.2
100116.2
100099.2
100102.5
100110.5
100118.5
100128.8
100140.7
100146.6
100176.5
100203
100244.8
100109.3
100113.7
100113.8
100112
100096.7
100099.8
100107.1
100114.3
100123.4
100133.5
100138.3
100162.6
100184.4
100219.4
100264.2
100104
100108
100107.9
100106.2
100092.1
100094.8
100101.3
100107.5
100115.3
100123.7
100127.1
100147
100163.5
100191
100227.1
100527.7
100402.8
100484.6
100294.6
100344.9
100390.6
100237.7
100269.8
100293.9
100319.5
100198.2
100219
100230.3
100238.6
100182.2
100171.2
100185.9
100190.5
100190.6
100138.6
100153
100151.1
100161.7
100162.9
100159
100112.7
100118.2
100142.9
100135.6
100143.6
100142.8
100137.4
100096.2
100098.1
100112.3
100129.6
100123.6
100129.8
100128
100121.9
100085.5
100085.6
100095.1
100104.3
100120.7
100114.2
100119.2
100116.9
100110.8
100078.5
100078
100084.8
100090.9
100100.4
100112.1
100108.2
100112.5
100110.2
100104.5
100076.2
100075.8
100081.7
100086.5
100094.1
100102
100093
100104.2
100108.1
100106.1
100101
100076.1
100076.2
100081.7
100086.3
100092.9
100100.1
100094.5
100116.7
100107.9
100112.2
100111.2
100107.6
100086.8
100088.5
100095.3
100101.7
100110.4
100120.1
100121.5
100149.7
100169.6
100107.1
100111.3
100110.7
100107.9
100089.9
100092.1
100098.9
100105.4
100113.9
100123.5
100126.2
100151.8
100172
100206.1
100105.7
100109.8
100109.6
100107.3
100091.5
100094
100100.7
100107.1
100115.3
100124.3
100127.6
100150.1
100169.3
100201
100242.1
100102.2
100106
100105.8
100103.9
100089.5
100092
100098.2
100104.1
100111.4
100119.4
100122.2
100141.3
100156.8
100182.9
100217.4
100097.5
100101
100100.7
100098.8
100085.6
100087.8
100093.3
100098.5
100105
100111.8
100113.8
100129.7
100142
100162.3
100189.4
100550.3
100425.7
100507.2
100329.3
100385.9
100437.6
100247.2
100280.6
100306.6
100333
100204.2
100226
100238.6
100248.5
100195.1
100173.3
100188.2
100193.1
100193.8
100142.8
100157.9
100152
100162.6
100164
100160.3
100114.3
100120.1
100145.2
100135.6
100143.6
100142.8
100137.4
100096.2
100098.1
100112.3
100129.6
100122.9
100129
100127.1
100120.9
100084.3
100084.2
100093.4
100102.3
100118.4
100112.8
100117.7
100115.2
100108.8
100076.2
100075.4
100081.7
100087.2
100096
100106.8
100104.9
100108.9
100106.2
100100
100070.9
100069.8
100074.8
100078.4
100084.3
100090.1
100077.8
100099.9
100103.4
100100.9
100095.2
100069.4
100068.6
100073
100076.3
100081.1
100085.9
100076.6
100096.2
100096.6
100099.9
100097.6
100092.5
100069.8
100069.4
100073.8
100077
100081.8
100086.2
100080.4
100095.7
100090.5
100100.4
100104
100102.7
100099
100079.8
100080.9
100086.5
100091.4
100097.9
100105
100104.1
100125.3
100138.8
100164.9
100099.9
100103.5
100102.6
100099.7
100082.9
100084.6
100090.3
100095.5
100102.2
100109.3
100110.2
100129.5
100143.8
100169.1
100201.9
100098.9
100102.4
100101.9
100099.6
100084.7
100086.7
100092.4
100097.6
100104.3
100111.3
100112.9
100130.6
100144.1
100167.7
100198.8
100095.8
100099.2
100098.8
100096.7
100083.2
100085.2
100090.5
100095.4
100101.5
100107.9
100109.4
100124.8
100136.3
100155.5
100181.3
100091.5
100094.6
100094.2
100092.2
100079.8
100081.6
100086.4
100090.8
100096.2
100101.8
100102.9
100116.1
100125.5
100141
100160.9
100563.1
100448.1
100530.7
100349.8
100409.4
100462.6
100276.8
100315.7
100349
100383.2
100212.7
100235.6
100250
100262.3
100213.3
100178.7
100194.3
100200.3
100202.4
100154
100171.3
100153.8
100164.7
100166.3
100163.1
100117.9
100124.5
100150.1
100136.4
100144.5
100143.8
100138.5
100097.5
100099.7
100114.2
100131.9
100122.9
100129
100127.1
100120.9
100084.3
100084.2
100093.4
100102.3
100118.4
100112.2
100117
100114.4
100107.9
100075.2
100074.2
100080.3
100085.5
100093.9
100104.4
100103.6
100107.5
100104.6
100098.2
100068.9
100067.5
100072.1
100075.3
100080.6
100085.5
100072
100096.9
100100.1
100097.2
100091.1
100064.7
100063.3
100067
100069.4
100073
100076.1
100064.3
100082.1
100092.6
100095.5
100092.8
100087.3
100063.7
100062.7
100066.2
100068.3
100071.7
100074.4
100065.8
100079
100072.8
100089.9
100092.6
100090.2
100085.3
100064.3
100063.8
100067.3
100069.7
100073.1
100076.1
100069.9
100081.3
100075.3
100072.4
100093.6
100096.7
100095.2
100091.6
100073.7
100074.5
100079.1
100082.9
100088.1
100093.2
100091.3
100107.2
100116.5
100135
100159.3
100093.4
100096.6
100095.5
100092.6
100076.9
100078.1
100082.9
100087.2
100092.6
100098.1
100097.7
100113
100122.8
100141.5
100165.7
100092.7
100095.8
100095.1
100092.7
100078.7
100080.4
100085.2
100089.6
100095.1
100100.7
100101.2
100115.5
100125.5
100142.8
100166
100090
100092.9
100092.4
100090.3
100077.6
100079.2
100083.8
100088
100093.1
100098.4
100099
100111.8
100120.5
100135.2
100154.2
100086.1
100088.9
100088.3
100086.3
100074.6
100076.1
100080.4
100084.1
100088.8
100093.4
100093.9
100105
100112.3
100124.6
100139.9
100570.2
100461.2
100544.1
100369.4
100432.2
100488
100294.7
100336.6
100373.8
100411
100238.3
100265.5
100286
100306.3
100270.1
100186.2
100202.9
100210.3
100214.6
100170.1
100190.4
100158.7
100170.2
100172.6
100170.5
100127.3
100136
100163.7
100138.1
100146.3
100145.9
100140.9
100100.6
100103.4
100118.6
100137
100123.6
100129.8
100128
100121.9
100085.5
100085.6
100095.1
100104.3
100120.7
100112.2
100117
100114.4
100107.9
100075.2
100074.2
100080.3
100085.5
100093.9
100104.4
100103
100106.8
100103.9
100097.4
100068
100066.4
100070.9
100073.9
100078.9
100083.5
100069.4
100095.7
100098.8
100095.7
100089.5
100062.9
100061.3
100064.7
100066.7
100069.9
100072.4
100059.6
100076.9
100089.8
100092.5
100089.5
100083.5
100059.5
100058
100060.9
100062.3
100064.8
100066.2
100055.8
100067.5
100060.7
100086.2
100088.6
100085.8
100080.5
100058.9
100057.7
100060.5
100062.1
100064.4
100066.1
100057.8
100067.6
100061.1
100058.3
100083.9
100086.2
100083.8
100079
100059.7
100059
100061.9
100063.7
100066.3
100068.3
100062.3
100070.7
100065
100061.2
100026.3
100087.6
100090.2
100088.6
100085.1
100068.5
100068.9
100072.8
100075.9
100080
100083.9
100081.4
100094
100099.9
100113.4
100130.6
100087.6
100090.3
100089.2
100086.2
100071.5
100072.5
100076.6
100080.1
100084.6
100089
100087.9
100100.2
100107.3
100120.8
100138.8
100087
100089.8
100089
100086.6
100073.5
100074.8
100079
100082.7
100087.3
100091.9
100091.7
100103.6
100111.1
100124.3
100141.3
100084.6
100087.3
100086.6
100084.5
100072.5
100073.9
100078
100081.5
100085.9
100090.3
100090.4
100101.1
100107.9
100119.5
100134.1
100081.1
100083.6
100083
100081
100069.9
100071.2
100074.9
100078.2
100082.2
100086.2
100086.2
100095.7
100101.6
100111.5
100123.6
100468.3
100551.4
100381.1
100445.7
100502.6
100311.7
100356.5
100397.7
100438.5
100254.1
100283.7
100307.7
100332.6
100303.8
100208.7
100228.7
100240.9
100251.6
100217.6
100248.5
100165.5
100177.8
100181.4
100181
100140.8
100152.5
100183.1
100142.5
100151.2
100151.5
100147.4
100108.5
100113
100130.2
100150.8
100125.1
100131.5
100129.9
100124
100088.1
100088.6
100098.7
100108.7
100125.9
100112.8
100117.7
100115.2
100108.8
100076.2
100075.4
100081.7
100087.2
100096
100106.8
100103
100106.8
100103.9
100097.4
100068
100066.4
100070.9
100073.9
100078.9
100083.5
100069.4
100095.1
100098.2
100095.1
100088.8
100062.1
100060.3
100063.7
100065.5
100068.4
100070.7
100057.4
100074.6
100088.7
100091.3
100088.1
100082.1
100057.9
100056.1
100058.8
100060
100062.1
100063.1
100051.9
100063.2
100056.6
100083.6
100085.8
100082.8
100077.1
100055.1
100053.5
100055.8
100056.8
100058.4
100059.1
100049.5
100058.3
100051.4
100049
100080.4
100082.5
100079.7
100074.6
100054.7
100053.5
100055.8
100056.9
100058.6
100059.5
100052
100059.3
100053.4
100049.9
100025.5
100078.5
100080.5
100078
100073.5
100055.6
100054.8
100057.2
100058.6
100060.7
100062
100056.3
100063
100057.2
100053.6
100025.3
100025.3
100082.1
100084.4
100082.8
100079.3
100063.8
100064
100067.4
100069.9
100073.3
100076.3
100073.6
100083.7
100087.8
100097.4
100109.9
100082.2
100084.7
100083.4
100080.5
100066.8
100067.5
100071.1
100074.1
100077.8
100081.3
100079.9
100090.1
100095.3
100105.6
100118.6
100081.9
100084.3
100083.4
100081
100068.7
100069.8
100073.5
100076.7
100080.6
100084.4
100083.8
100093.8
100099.6
100110
100123.1
100079.7
100082.1
100081.4
100079.3
100068
100069.1
100072.7
100075.8
100079.6
100083.3
100083
100092.2
100097.7
100107.1
100118.5
100076.5
100078.8
100078.1
100076.1
100065.6
100066.7
100070.1
100073
100076.5
100079.8
100079.6
100087.9
100092.7
100100.9
100110.7
100387.4
100453
100510.6
100322
100368.5
100411.9
100454.5
100268.9
100301
100328.4
100357.7
100335.7
100222.7
100244.7
100259.6
100274.3
100247
100283.3
100185.4
100200.5
100207.8
100212.3
100180
100200.6
100241.6
100148.6
100158.1
100159.3
100156.5
100119.9
100126.7
100146.8
100170.7
100129.1
100135.9
100134.9
100129.7
100094.9
100096.7
100108.4
100120.4
100140
100114.2
100119.2
100116.9
100110.8
100078.5
100078
100084.8
100090.9
100100.4
100112.1
100103.6
100107.5
100104.6
100098.2
100068.9
100067.5
100072.1
100075.3
100080.6
100085.5
100072
100095.1
100098.2
100095.1
100088.8
100062.1
100060.3
100063.7
100065.5
100068.4
100070.7
100057.4
100074.6
100088.2
100090.7
100087.5
100081.4
100057.2
100055.3
100057.9
100058.9
100060.9
100061.7
100050.1
100061.3
100054.8
100082.5
100084.7
100081.5
100075.8
100053.6
100051.8
100054
100054.7
100056.1
100056.4
100046.3
100054.8
100048
100046.1
100078
100079.9
100076.9
100071.5
100051.2
100049.6
100051.6
100052.2
100053.3
100053.5
100044.9
100051.6
100045.5
100042.4
100025.3
100075.3
100077
100074.3
100069.4
100051
100049.8
100051.7
100052.5
100053.8
100054.3
100047.4
100053.3
100047.6
100044.5
100024.7
100025.2
100073.6
100075.3
100072.9
100068.6
100052
100051.1
100053.2
100054.3
100055.9
100056.8
100051.5
100056.9
100051.5
100047.8
100024.8
100024.6
100025.3
100077.1
100079.2
100077.5
100074.1
100059.6
100059.7
100062.6
100064.8
100067.5
100070
100067.1
100075.6
100078.3
100085.6
100094.4
100077.4
100079.5
100078.3
100075.4
100062.5
100063.1
100066.2
100068.8
100071.9
100074.8
100073.2
100081.8
100085.8
100093.8
100103.7
100077.1
100079.3
100078.4
100076
100064.4
100065.3
100068.6
100071.4
100074.7
100077.9
100077.1
100085.7
100090.3
100098.8
100109
100075.2
100077.4
100076.6
100074.5
100063.9
100064.8
100068.1
100070.8
100074.1
100077.2
100076.7
100084.7
100089.2
100097
100106.2
100072.2
100074.3
100073.6
100071.6
100061.7
100062.7
100065.7
100068.3
100071.4
100074.3
100073.8
100081.1
100085.1
100092.1
100100.1
100327.4
100374.9
100419.5
100463.2
100277.9
100311.3
100340.8
100372.6
100354.7
100235.9
100259.7
100277.4
100295.7
100274.5
100316.1
100197.9
100214.6
100224.1
100231.7
100204.7
100230.6
100276.8
100166.5
100178.2
100182.3
100183.4
100152.7
100166.3
100195.2
100230
100134.7
100142.1
100141.8
100137.8
100104.7
100108.3
100122.2
100137.3
100160.3
100117.8
100123.2
100121.4
100115.8
100084.4
100084.9
100092.9
100100.6
100112.3
100126.5
100104.9
100108.9
100106.2
100100
100070.9
100069.8
100074.8
100078.4
100084.3
100090.1
100077.8
100095.7
100098.8
100095.7
100089.5
100062.9
100061.3
100064.7
100066.7
100069.9
100072.4
100059.6
100076.9
100088.2
100090.7
100087.5
100081.4
100057.2
100055.3
100057.9
100058.9
100060.9
100061.7
100050.1
100061.3
100054.8
100082.1
100084.2
100081
100075.2
100052.9
100051.1
100053.2
100053.8
100055
100055.2
100044.8
100053.2
100046.5
100044.9
100077.1
100078.8
100075.7
100070.2
100049.9
100048.2
100049.9
100050.3
100051.3
100051.1
100042.2
100048.6
100042.7
100040.1
100025.3
100073
100074.6
100071.7
100066.5
100047.9
100046.3
100047.9
100048.3
100049.1
100049
100041.3
100046.7
100041.1
100038.4
100024.6
100025.2
100070.6
100072.1
100069.4
100064.8
100047.8
100046.5
100048.2
100048.8
100049.8
100050
100043.7
100048.5
100043.4
100040.3
100024.4
100024.5
100025.3
100069.2
100070.7
100068.3
100064.1
100048.7
100047.9
100049.7
100050.6
100051.9
100052.5
100047.6
100052
100047
100043.6
100024.1
100024.2
100024.6
100025.3
100072.5
100074.4
100072.7
100069.4
100055.9
100055.9
100058.4
100060.2
100062.6
100064.6
100061.7
100068.9
100070.9
100076.5
100083.1
100072.9
100074.8
100073.5
100070.8
100058.7
100059.1
100061.9
100064.1
100066.8
100069.3
100067.5
100074.9
100077.9
100084.5
100092.2
100072.7
100074.8
100073.8
100071.5
100060.5
100061.3
100064.2
100066.6
100069.6
100072.3
100071.3
100078.8
100082.5
100089.5
100097.8
100071
100073
100072.2
100070.1
100060.1
100060.9
100063.8
100066.2
100069.1
100071.9
100071.2
100078.2
100081.9
100088.5
100096.2
100068.3
100070.2
100069.4
100067.5
100058.2
100059
100061.8
100064
100066.8
100069.3
100068.7
100075.2
100078.6
100084.5
100091.4
100282.7
100316.9
100347.4
100380.6
100364.8
100243.8
100268.8
100288.1
100308.6
100291.1
100335.6
100209.7
100227.9
100239.6
100250
100227.8
100258.6
100309.9
100177.7
100190.8
100196.8
100200.3
100173.6
100191.4
100225.4
100265.8
100150.8
100160
100162.2
100161.2
100132.7
100141.3
100162
100186.1
100220.3
100122.9
100128.8
100127.7
100123
100093
100094.8
100104.5
100114.6
100129.3
100147.1
100108.2
100112.5
100110.2
100104.5
100076.2
100075.8
100081.7
100086.5
100094.1
100102
100093
100096.9
100100.1
100097.2
100091.1
100064.7
100063.3
100067
100069.4
100073
100076.1
100064.3
100082.1
100088.7
100091.3
100088.1
100082.1
100057.9
100056.1
100058.8
100060
100062.1
100063.1
100051.9
100063.2
100056.6
100082.1
100084.2
100081
100075.2
100052.9
100051.1
100053.2
100053.8
100055
100055.2
100044.8
100053.2
100046.5
100044.9
100076.6
100078.4
100075.2
100069.7
100049.3
100047.5
100049.2
100049.5
100050.4
100050.1
100041
100047.3
100041.5
100039.1
100025.3
100072.1
100073.6
100070.6
100065.4
100046.6
100044.9
100046.4
100046.7
100047.3
100047
100038.9
100044.2
100038.8
100036.5
100024.6
100025.2
100068.5
100069.8
100067
100062.1
100044.9
100043.3
100044.7
100045
100045.6
100045.3
100038.4
100042.8
100037.8
100035.2
100024.2
100024.5
100025.2
100066.3
100067.6
100065.1
100060.6
100044.8
100043.6
100045.1
100045.5
100046.3
100046.4
100040.6
100044.7
100039.9
100037.2
100023.7
100024.2
100024.5
100025.2
100065.1
100066.4
100064.1
100060.2
100045.8
100044.9
100046.5
100047.3
100048.3
100048.8
100044.2
100048
100043.4
100040.1
100023.5
100023.6
100024.2
100024.5
100025.2
100068.3
100070
100068.3
100065.2
100052.5
100052.4
100054.7
100056.2
100058.3
100059.9
100057.1
100063.3
100064.7
100069.2
100074.3
100068.8
100070.5
100069.2
100066.6
100055.2
100055.5
100058
100059.9
100062.3
100064.4
100062.5
100069
100071.4
100076.8
100083
100068.7
100070.5
100069.5
100067.3
100057
100057.6
100060.2
100062.4
100065
100067.4
100066.2
100072.8
100075.9
100081.8
100088.7
100067.1
100068.9
100068.1
100066.1
100056.6
100057.3
100060
100062.1
100064.7
100067.1
100066.3
100072.6
100075.7
100081.3
100087.8
100064.6
100066.3
100065.6
100063.7
100054.9
100055.6
100058.1
100060.2
100062.6
100064.9
100064.2
100070
100072.9
100078.1
100083.9
100248.1
100273.7
100293.8
100315.5
100300
100346
100216.8
100235.9
100248.9
100261.1
100241.8
100275.5
100329.5
100188.3
100202.6
100210.3
100216.1
100193
100214.8
100253.6
100299.3
100161
100171.4
100175.1
100176.1
100150.7
100162.5
100187.2
100216.6
100256.6
100137.6
100145
100145.9
100143.7
100117.3
100123
100137.7
100154.6
100178.5
100208.1
100112.9
100117.7
100116
100111
100083.7
100084.4
100091.7
100098.2
100108.2
100119.2
100115
100099.9
100103.4
100100.9
100095.2
100069.4
100068.6
100073
100076.3
100081.1
100085.9
100076.6
100096.2
100089.8
100092.5
100089.5
100083.5
100059.5
100058
100060.9
100062.3
100064.8
100066.2
100055.8
100067.5
100060.7
100082.5
100084.7
100081.5
100075.8
100053.6
100051.8
100054
100054.7
100056.1
100056.4
100046.3
100054.8
100048
100046.1
100076.6
100078.4
100075.2
100069.7
100049.3
100047.5
100049.2
100049.5
100050.4
100050.1
100041
100047.3
100041.5
100039.1
100025.3
100071.7
100073.2
100070.1
100064.9
100046.1
100044.3
100045.7
100045.9
100046.5
100046.1
100037.9
100043.1
100037.8
100035.7
100024.6
100025.2
100067.6
100068.9
100066
100061.1
100043.7
100042.1
100043.4
100043.5
100043.9
100043.5
100036.3
100040.7
100035.9
100033.7
100024.2
100024.5
100025.2
100064.4
100065.5
100062.8
100058.2
100042.1
100040.7
100041.9
100042.1
100042.5
100042.2
100035.9
100039.7
100035.2
100032.9
100023.6
100024.2
100024.5
100025.2
100062.4
100063.6
100061.1
100056.9
100042.2
100041
100042.3
100042.7
100043.3
100043.3
100038
100041.5
100037.2
100034.6
100023.2
100023.6
100024.2
100024.5
100025.2
100061.3
100062.5
100060.3
100056.5
100043.1
100042.3
100043.7
100044.3
100045.2
100045.5
100041.3
100044.6
100040.3
100037.4
100022.9
100023.1
100023.6
100024.2
100024.5
100025.2
100064.5
100065.9
100064.3
100061.3
100049.4
100049.3
100051.3
100052.7
100054.4
100055.8
100053.1
100058.6
100059.6
100063.3
100067.3
100064.9
100066.5
100065.2
100062.7
100052
100052.2
100054.5
100056.2
100058.2
100060
100058.2
100064
100065.9
100070.4
100075.5
100064.9
100066.6
100065.6
100063.4
100053.7
100054.2
100056.6
100058.5
100060.9
100062.9
100061.8
100067.6
100070.2
100075.3
100081.1
100063.5
100065.1
100064.3
100062.4
100053.4
100054
100056.4
100058.4
100060.7
100062.8
100062
100067.6
100070.3
100075.2
100080.7
100061.1
100062.7
100062
100060.2
100051.8
100052.4
100054.8
100056.6
100058.9
100060.9
100060.1
100065.4
100067.9
100072.5
100077.5
100220.6
100240.2
100253.9
100267
100249.2
100284.5
100340
100194.7
100209.8
100218.6
100225.8
100204.9
100229
100270.6
100319.3
100170.6
100182
100187.2
100190
100167.4
100182.2
100210.6
100245
100290.5
100146.9
100155.3
100157.5
100156.9
100132.9
100141.2
100158.9
100180
100209.3
100245.1
100126.3
100132.4
100132.4
100129.4
100105.1
100108.9
100119.9
100131.6
100148.5
100168.9
100177.6
100104.2
100108.1
100106.1
100101
100076.1
100076.2
100081.7
100086.3
100092.9
100100.1
100094.5
100116.7
100092.6
100095.5
100092.8
100087.3
100063.7
100062.7
100066.2
100068.3
100071.7
100074.4
100065.8
100079
100072.8
100083.6
100085.8
100082.8
100077.1
100055.1
100053.5
100055.8
100056.8
100058.4
100059.1
100049.5
100058.3
100051.4
100049
100077.1
100078.8
100075.7
100070.2
100049.9
100048.2
100049.9
100050.3
100051.3
100051.1
100042.2
100048.6
100042.7
100040.1
100025.3
100071.7
100073.2
100070.1
100064.9
100046.1
100044.3
100045.7
100045.9
100046.5
100046.1
100037.9
100043.1
100037.8
100035.7
100024.6
100025.2
100067.3
100068.5
100065.6
100060.6
100043.2
100041.6
100042.8
100042.8
100043.2
100042.7
100035.4
100039.7
100035
100033
100024.2
100024.5
100025.2
100063.6
100064.7
100061.9
100057.2
100041.1
100039.6
100040.7
100040.7
100041
100040.5
100034
100037.8
100033.5
100031.6
100023.6
100024.1
100024.5
100025.2
100060.6
100061.6
100059
100054.6
100039.7
100038.3
100039.4
100039.5
100039.8
100039.4
100033.7
100037
100033
100030.9
100023.1
100023.5
100024.2
100024.5
100025.2
100058.8
100059.9
100057.5
100053.5
100039.7
100038.6
100039.8
100040.1
100040.6
100040.5
100035.7
100038.8
100034.8
100032.5
100022.6
100023.1
100023.6
100024.2
100024.5
100025.2
100057.9
100058.9
100056.8
100053.2
100040.6
100039.8
100041.1
100041.6
100042.4
100042.7
100038.7
100041.6
100037.7
100035
100022.3
100022.5
100023.1
100023.6
100024.2
100024.5
100025.2
100060.9
100062.2
100060.6
100057.7
100046.6
100046.4
100048.2
100049.4
100051
100052.2
100049.6
100054.4
100055.2
100058.3
100061.6
100061.3
100062.8
100061.6
100059.1
100049
100049.2
100051.2
100052.7
100054.6
100056.2
100054.4
100059.5
100061.1
100065
100069.3
100061.4
100062.9
100061.9
100059.9
100050.7
100051.1
100053.3
100055
100057.1
100059
100057.8
100063
100065.3
100069.7
100074.6
100060.1
100061.6
100060.8
100058.9
100050.4
100051
100053.2
100055
100057.1
100059
100058.1
100063.2
100065.5
100069.8
100074.6
100057.9
100059.4
100058.6
100056.9
100048.9
100049.5
100051.7
100053.4
100055.4
100057.2
100056.5
100061.3
100063.5
100067.5
100071.9
100198.1
100213.6
100223
100230.9
100211.2
100236.5
100279.6
100329.9
100176.4
100188.5
100194.5
100198.4
100177.6
100194.2
100224.9
100262.2
100310.7
100155.6
100165
100168.3
100169.2
100147.5
100158
100178.7
100203.7
100237.9
100279.5
100134.8
100141.8
100142.8
100141.3
100118.9
100124.7
100138.1
100153
100174.1
100200.1
100216.1
100116.5
100121.6
100120.9
100117.6
100095.1
100097.7
100106.2
100114.7
100126.5
100140.8
100145
100183.6
100096.6
100099.9
100097.6
100092.5
100069.8
100069.4
100073.8
100077
100081.8
100086.2
100080.4
100095.7
100090.5
100086.2
100088.6
100085.8
100080.5
100058.9
100057.7
100060.5
100062.1
100064.4
100066.1
100057.8
100067.6
100061.1
100058.3
100078
100079.9
100076.9
100071.5
100051.2
100049.6
100051.6
100052.2
100053.3
100053.5
100044.9
100051.6
100045.5
100042.4
100025.3
100072.1
100073.6
100070.6
100065.4
100046.6
100044.9
100046.4
100046.7
100047.3
100047
100038.9
100044.2
100038.8
100036.5
100024.6
100025.2
100067.3
100068.5
100065.6
100060.6
100043.2
100041.6
100042.8
100042.8
100043.2
100042.7
100035.4
100039.7
100035
100033
100024.2
100024.5
100025.2
100063.2
100064.3
100061.5
100056.7
100040.6
100039.1
100040.1
100040.1
100040.4
100039.8
100033.2
100037
100032.7
100031
100023.6
100024.1
100024.5
100025.2
100059.8
100060.8
100058.1
100053.7
100038.7
100037.3
100038.2
100038.2
100038.5
100038
100032.1
100035.4
100031.5
100029.8
100023.1
100023.5
100024.2
100024.5
100025.2
100057.1
100058
100055.5
100051.3
100037.4
100036.1
100037.1
100037.2
100037.4
100037
100031.8
100034.8
100031.1
100029.3
100022.5
100023.1
100023.6
100024.2
100024.5
100025.2
100055.5
100056.4
100054.1
100050.3
100037.5
100036.5
100037.5
100037.7
100038.2
100038.1
100033.6
100036.4
100032.8
100030.7
100022
100022.5
100023.1
100023.6
100024.2
100024.5
100025.2
100054.6
100055.6
100053.6
100050.1
100038.3
100037.6
100038.8
100039.2
100039.9
100040.1
100036.4
100039.1
100035.4
100033
100021.6
100021.9
100022.5
100023.1
100023.6
100024.2
100024.5
100025.2
100057.5
100058.7
100057.2
100054.4
100043.9
100043.7
100045.4
100046.5
100047.9
100048.9
100046.4
100050.8
100051.3
100054
100056.8
100058
100059.4
100058.1
100055.8
100046.2
100046.4
100048.3
100049.6
100051.3
100052.7
100051
100055.6
100056.9
100060.3
100063.9
100058.1
100059.5
100058.5
100056.5
100047.8
100048.2
100050.3
100051.8
100053.7
100055.4
100054.2
100059
100060.9
100064.7
100069
100056.9
100058.3
100057.5
100055.7
100047.6
100048.1
100050.2
100051.8
100053.7
100055.4
100054.5
100059.2
100061.2
100065
100069.2
100054.8
100056.2
100055.4
100053.8
100046.3
100046.8
100048.8
100050.4
100052.2
100053.9
100053.1
100057.5
100059.4
100063
100067
100179.5
100192
100198.4
100202.9
100183
100200.5
100232.5
100271.4
100321.5
100160.9
100170.8