/*--------------------------------*- C++ -*----------------------------------*\
| =========                 |                                                 |
| \\      /  F ield         | OpenFOAM: The Open Source CFD Toolbox           |
|  \\    /   O peration     | Version:  2306                                  |
|   \\  /    A nd           | Website:  www.openfoam.com                      |
|    \\/     M anipulation  |                                                 |
\*---------------------------------------------------------------------------*/
FoamFile
{
    version     2.0;
    format      ascii;
    arch        "LSB;label=32;scalar=64";
    class       volScalarField;
    location    "0.3/fuel";
    object      T;
}
// * * * * * * * * * * * * * * * * * * * * * * * * * * * * * * * * * * * * * //

dimensions      [0 0 0 1 0 0 0];

internalField   nonuniform List<scalar> 
16000
(
1102.218
1102.096
1103.649
1102.224
1101.816
1103.636
1102.103
1104.976
1103.651
1102.236
1101.298
1103.606
1101.824
1104.995
1103.638
1102.115
1106.224
1104.975
1103.658
1102.252
1100.433
1103.545
1101.308
1105.035
1103.607
1101.837
1106.252
1104.993
1103.645
1102.132
1107.429
1106.22
1104.979
1103.67
1102.274
1099.175
1103.434
1100.448
1105.102
1103.546
1101.323
1106.313
1105.032
1103.614
1101.855
1107.459
1106.247
1104.996
1103.657
1102.155
1108.604
1107.422
1106.22
1104.987
1103.687
1102.302
1097.759
1103.248
1099.198
1105.2
1103.432
1100.469
1106.419
1105.098
1103.551
1101.345
1107.526
1106.308
1105.035
1103.625
1101.879
1108.634
1107.452
1106.247
1105.004
1103.673
1102.183
1109.75
1108.595
1107.42
1106.224
1104.999
1103.709
1102.33
1096.469
1102.988
1097.794
1105.315
1103.243
1099.228
1106.583
1105.193
1103.436
1100.495
1107.644
1106.412
1105.099
1103.562
1101.372
1108.702
1107.519
1106.307
1105.042
1103.641
1101.909
1109.78
1108.625
1107.45
1106.251
1105.016
1103.695
1102.212
1110.868
1109.741
1108.591
1107.422
1106.233
1105.016
1103.731
1102.359
1095.512
1102.707
1096.517
1105.398
1102.983
1097.835
1106.795
1105.303
1103.244
1099.262
1107.827
1106.573
1105.19
1103.445
1100.527
1108.821
1107.635
1106.41
1105.104
1103.577
1101.405
1109.847
1108.692
1107.515
1106.31
1105.053
1103.663
1101.94
1110.897
1109.77
1108.62
1107.451
1106.259
1105.033
1103.718
1102.241
1111.956
1110.857
1109.734
1108.59
1107.427
1106.246
1105.034
1103.754
1102.388
1095.008
1102.473
1095.57
1105.436
1102.703
1096.57
1106.991
1105.383
1102.982
1097.882
1108.069
1106.78
1105.296
1103.249
1099.302
1109.007
1107.815
1106.567
1105.193
1103.458
1100.566
1109.963
1108.81
1107.63
1106.412
1105.114
1103.598
1101.439
1110.962
1109.836
1108.687
1107.516
1106.318
1105.069
1103.685
1101.971
1111.984
1110.886
1109.764
1108.619
1107.456
1106.272
1105.05
1103.74
1102.271
1113.011
1111.944
1110.85
1109.732
1108.593
1107.437
1106.26
1105.051
1103.776
1102.416
1095.008
1102.34
1095.07
1105.444
1102.471
1095.631
1107.138
1105.419
1102.704
1096.627
1108.302
1106.972
1105.372
1102.987
1097.933
1109.254
1108.052
1106.769
1105.294
1103.26
1099.349
1110.147
1108.993
1107.807
1106.566
1105.2
1103.477
1100.606
1111.076
1109.951
1108.803
1107.629
1106.417
1105.128
1103.619
1101.473
1112.047
1110.95
1109.829
1108.685
1107.52
1106.33
1105.086
1103.707
1102.002
1113.038
1111.972
1110.878
1109.761
1108.622
1107.466
1106.286
1105.068
1103.763
1102.3
1114.033
1112.998
1111.935
1110.846
1109.733
1108.6
1107.447
1106.274
1105.069
1103.799
1102.56
1095.512
1102.34
1095.07
1105.442
1102.34
1095.136
1107.23
1105.427
1102.474
1095.697
1108.485
1107.116
1105.407
1102.71
1096.69
1109.496
1108.281
1106.958
1105.366
1102.997
1097.99
1110.392
1109.237
1108.04
1106.763
1105.296
1103.276
1099.396
1111.255
1110.132
1108.984
1107.803
1106.569
1105.211
1103.497
1100.646
1112.158
1111.063
1109.943
1108.8
1107.632
1106.428
1105.143
1103.641
1101.509
1113.1
1112.034
1110.942
1109.825
1108.687
1107.529
1106.342
1105.102
1103.729
1102.034
1114.059
1113.025
1111.963
1110.874
1109.761
1108.629
1107.476
1106.299
1105.085
1103.785
1102.448
1115.02
1114.019
1112.989
1111.93
1110.845
1109.738
1108.608
1107.457
1106.287
1105.087
1103.913
1102.833
1096.469
1102.473
1095.57
1105.442
1102.34
1095.136
1107.273
1105.425
1102.345
1095.207
1108.606
1107.207
1105.415
1102.482
1095.768
1109.69
1108.462
1107.1
1105.4
1102.722
1096.757
1110.632
1109.475
1108.265
1106.947
1105.365
1103.012
1098.047
1111.494
1110.374
1109.223
1108.031
1106.761
1105.303
1103.293
1099.443
1112.332
1111.239
1110.122
1108.978
1107.803
1106.576
1105.223
1103.517
1100.687
1113.208
1112.144
1111.053
1109.938
1108.801
1107.639
1106.439
1105.158
1103.663
1101.545
1114.119
1113.086
1112.025
1110.937
1109.825
1108.693
1107.538
1106.355
1105.119
1103.752
1102.192
1115.046
1114.046
1113.016
1111.957
1110.873
1109.766
1108.636
1107.485
1106.312
1105.103
1103.899
1102.734
1115.972
1115.006
1114.009
1112.982
1111.928
1110.848
1109.743
1108.615
1107.468
1106.301
1105.177
1104.12
1103.119
1097.759
1102.707
1096.517
1105.444
1102.471
1095.631
1107.273
1105.425
1102.345
1095.207
1108.666
1107.251
1105.412
1102.354
1095.282
1109.82
1108.582
1107.19
1105.407
1102.495
1095.844
1110.826
1109.667
1108.443
1107.087
1105.397
1102.738
1096.825
1111.73
1110.611
1109.458
1108.253
1106.942
1105.369
1103.028
1098.104
1112.565
1111.476
1110.359
1109.214
1108.027
1106.764
1105.31
1103.309
1099.49
1113.378
1112.316
1111.228
1110.114
1108.976
1107.807
1106.583
1105.235
1103.537
1100.729
1114.225
1113.193
1112.133
1111.047
1109.937
1108.805
1107.646
1106.449
1105.174
1103.684
1101.722
1115.104
1114.105
1113.076
1112.018
1110.935
1109.829
1108.7
1107.547
1106.367
1105.136
1103.864
1102.508
1115.998
1115.032
1114.036
1113.009
1111.955
1110.876
1109.771
1108.643
1107.495
1106.326
1105.191
1104.106
1103.037
1116.889
1115.958
1114.996
1114.002
1112.979
1111.929
1110.851
1109.748
1108.622
1107.478
1106.371
1105.337
1104.329
1103.416
1099.175
1102.988
1097.794
1105.436
1102.703
1096.57
1107.23
1105.427
1102.474
1095.697
1108.666
1107.251
1105.412
1102.354
1095.282
1109.885
1108.642
1107.232
1105.405
1102.368
1095.363
1110.958
1109.796
1108.562
1107.176
1105.404
1102.513
1095.921
1111.921
1110.803
1109.647
1108.429
1107.079
1105.399
1102.754
1096.893
1112.796
1111.709
1110.594
1109.445
1108.245
1106.941
1105.372
1103.043
1098.161
1113.606
1112.547
1111.461
1110.349
1109.208
1108.027
1106.766
1105.317
1103.326
1099.538
1114.391
1113.361
1112.304
1111.22
1110.111
1108.978
1107.812
1106.591
1105.247
1103.557
1100.935
1115.208
1114.21
1113.182
1112.126
1111.044
1109.94
1108.81
1107.654
1106.46
1105.189
1103.794
1102.088
1116.055
1115.09
1114.094
1113.069
1112.016
1110.937
1109.833
1108.706
1107.556
1106.379
1105.22
1104.072
1102.851
1116.914
1115.983
1115.021
1114.028
1113.006
1111.956
1110.878
1109.775
1108.65
1107.505
1106.394
1105.348
1104.316
1103.355
1117.769
1116.874
1115.947
1114.988
1113.998
1112.979
1111.931
1110.854
1109.753
1108.63
1107.531
1106.494
1105.495
1104.539
1103.72
1100.433
1103.248
1099.198
1105.398
1102.983
1097.835
1107.138
1105.419
1102.704
1096.627
1108.606
1107.207
1105.415
1102.482
1095.768
1109.885
1108.642
1107.232
1105.405
1102.368
1095.363
1111.024
1109.86
1108.621
1107.219
1105.402
1102.388
1095.444
1112.051
1110.934
1109.776
1108.547
1107.167
1105.405
1102.532
1095.996
1112.984
1111.898
1110.784
1109.632
1108.419
1107.076
1105.401
1102.771
1096.96
1113.832
1112.775
1111.692
1110.58
1109.436
1108.241
1106.939
1105.376
1103.059
1098.218
1114.614
1113.587
1112.532
1111.45
1110.342
1109.206
1108.027
1106.769
1105.325
1103.343
1099.77
1115.371
1114.374
1113.348
1112.295
1111.215
1110.111
1108.98
1107.816
1106.598
1105.259
1103.658
1101.36
1116.156
1115.193
1114.198
1113.174
1112.122
1111.045
1109.942
1108.815
1107.661
1106.471
1105.265
1104.001
1102.5
1116.97
1116.04
1115.079
1114.087
1113.065
1112.016
1110.939
1109.837
1108.712
1107.565
1106.443
1105.37
1104.285
1103.217
1117.794
1116.899
1115.972
1115.013
1114.024
1113.006
1111.957
1110.881
1109.78
1108.657
1107.556
1106.512
1105.503
1104.529
1103.682
1118.614
1117.755
1116.863
1115.939
1114.983
1113.997
1112.979
1111.932
1110.857
1109.758
1108.669
1107.623
1106.614
1105.652
1104.751
1101.298
1103.434
1100.448
1105.315
1103.243
1099.228
1106.991
1105.383
1102.982
1097.882
1108.485
1107.116
1105.407
1102.71
1096.69
1109.82
1108.582
1107.19
1105.407
1102.495
1095.844
1111.024
1109.86
1108.621
1107.219
1105.402
1102.388
1095.444
1112.117
1110.999
1109.84
1108.605
1107.209
1105.403
1102.407
1095.523
1113.111
1112.028
1110.913
1109.759
1108.536
1107.163
1105.407
1102.55
1096.071
1114.015
1112.961
1111.879
1110.769
1109.621
1108.413
1107.072
1105.404
1102.788
1097.026
1114.835
1113.811
1112.758
1111.678
1110.571
1109.431
1108.238
1106.938
1105.38
1103.075
1098.49
1115.59
1114.595
1113.572
1112.52
1111.442
1110.339
1109.204
1108.027
1106.772
1105.332
1103.428
1100.198
1116.316
1115.354
1114.361
1113.339
1112.289
1111.213
1110.111
1108.982
1107.821
1106.606
1105.321
1103.857
1101.85
1117.07
1116.141
1115.181
1114.189
1113.169
1112.122
1111.046
1109.945
1108.819
1107.668
1106.525
1105.401
1104.22
1102.957
1117.85
1116.955
1116.029
1115.071
1114.082
1113.064
1112.017
1110.941
1109.841
1108.718
1107.612
1106.552
1105.518
1104.504
1103.601
1118.639
1117.78
1116.888
1115.964
1115.008
1114.023
1113.005
1111.958
1110.884
1109.785
1108.694
1107.644
1106.628
1105.656
1104.744
1119.424
1118.6
1117.744
1116.855
1115.934
1114.981
1113.996
1112.98
1111.933
1110.86
1109.784
1108.735
1107.712
1106.731
1105.808
1101.816
1103.545
1101.308
1105.2
1103.432
1100.469
1106.795
1105.303
1103.244
1099.262
1108.302
1106.972
1105.372
1102.987
1097.933
1109.69
1108.462
1107.1
1105.4
1102.722
1096.757
1110.958
1109.796
1108.562
1107.176
1105.404
1102.513
1095.921
1112.117
1110.999
1109.84
1108.605
1107.209
1105.403
1102.407
1095.523
1113.175
1112.092
1110.978
1109.823
1108.593
1107.204
1105.405
1102.427
1095.603
1114.14
1113.088
1112.008
1110.897
1109.747
1108.528
1107.158
1105.409
1102.568
1096.145
1115.015
1113.993
1112.942
1111.864
1110.757
1109.614
1108.407
1107.069
1105.406
1102.804
1097.343
1115.807
1114.815
1113.793
1112.744
1111.668
1110.565
1109.426
1108.234
1106.937
1105.384
1103.153
1098.949
1116.531
1115.571
1114.58
1113.56
1112.512
1111.438
1110.335
1109.202
1108.027
1106.775
1105.37
1103.59
1100.634
1117.227
1116.3
1115.34
1114.351
1113.332
1112.286
1111.212
1110.111
1108.984
1107.825
1106.644
1105.432
1104.076
1102.427
1117.948
1117.054
1116.129
1115.171
1114.184
1113.167
1112.121
1111.047
1109.947
1108.824
1107.706
1106.617
1105.537
1104.452
1103.453
1118.694
1117.835
1116.944
1116.02
1115.065
1114.08
1113.064
1112.017
1110.943
1109.845
1108.751
1107.689
1106.657
1105.665
1104.727
1119.448
1118.625
1117.768
1116.879
1115.958
1115.006
1114.022
1113.005
1111.96
1110.887
1109.81
1108.756
1107.728
1106.74
1105.809
1120.198
1119.41
1118.589
1117.735
1116.849
1115.931
1114.979
1113.995
1112.98
1111.935
1110.877
1109.829
1108.797
1107.798
1106.847
1102.096
1103.606
1101.824
1105.102
1103.546
1101.323
1106.583
1105.193
1103.436
1100.495
1108.069
1106.78
1105.296
1103.249
1099.302
1109.496
1108.281
1106.958
1105.366
1102.997
1097.99
1110.826
1109.667
1108.443
1107.087
1105.397
1102.738
1096.825
1112.051
1110.934
1109.776
1108.547
1107.167
1105.405
1102.532
1095.996
1113.175
1112.092
1110.978
1109.823
1108.593
1107.204
1105.405
1102.427
1095.603
1114.203
1113.152
1112.072
1110.962
1109.81
1108.586
1107.199
1105.407
1102.446
1095.681
1115.139
1114.118
1113.068
1111.991
1110.885
1109.739
1108.521
1107.153
1105.411
1102.587
1096.498
1115.984
1114.994
1113.974
1112.927
1111.852
1110.749
1109.607
1108.401
1107.066
1105.408
1102.887
1097.854
1116.745
1115.787
1114.798
1113.779
1112.734
1111.661
1110.558
1109.421
1108.231
1106.936
1105.405
1103.297
1099.376
1117.439
1116.513
1115.556
1114.568
1113.551
1112.507
1111.433
1110.332
1109.201
1108.027
1106.79
1105.441
1103.758
1101.072
1118.103
1117.21
1116.286
1115.33
1114.344
1113.329
1112.284
1111.211
1110.111
1108.986
1107.847
1106.708
1105.547
1104.323
1103.132
1118.79
1117.932
1117.042
1116.119
1115.165
1114.181
1113.165
1112.12
1111.047
1109.95
1108.848
1107.766
1106.704
1105.673
1104.695
1119.502
1118.679
1117.823
1116.935
1116.014
1115.063
1114.078
1113.063
1112.018
1110.945
1109.866
1108.803
1107.762
1106.759
1105.811
1120.221
1119.434
1118.613
1117.759
1116.873
1115.956
1115.004
1114.02
1113.005
1111.961
1110.901
1109.85
1108.813
1107.808
1106.851
1120.936
1120.184
1119.398
1118.58
1117.729
1116.846
1115.928
1114.977
1113.994
1112.98
1111.943
1110.902
1109.869
1108.857
1107.882
1102.218
1103.636
1102.103
1105.035
1103.607
1101.837
1106.419
1105.098
1103.551
1101.345
1107.827
1106.573
1105.19
1103.445
1100.527
1109.254
1108.052
1106.769
1105.294
1103.26
1099.349
1110.632
1109.475
1108.265
1106.947
1105.365
1103.012
1098.047
1111.921
1110.803
1109.647
1108.429
1107.079
1105.399
1102.754
1096.893
1113.111
1112.028
1110.913
1109.759
1108.536
1107.163
1105.407
1102.55
1096.071
1114.203
1113.152
1112.072
1110.962
1109.81
1108.586
1107.199
1105.407
1102.446
1095.681
1115.2
1114.18
1113.132
1112.055
1110.949
1109.801
1108.578
1107.194
1105.408
1102.466
1096.053
1116.105
1115.116
1114.098
1113.052
1111.979
1110.876
1109.73
1108.514
1107.149
1105.413
1102.676
1097.056
1116.919
1115.963
1114.975
1113.959
1112.915
1111.844
1110.741
1109.6
1108.395
1107.062
1105.421
1103.03
1098.307
1117.649
1116.725
1115.77
1114.784
1113.769
1112.726
1111.654
1110.552
1109.416
1108.227
1106.933
1105.447
1103.439
1099.765
1118.312
1117.421
1116.498
1115.543
1114.559
1113.545
1112.502
1111.429
1110.329
1109.199
1108.028
1106.817
1105.513
1103.928
1101.497
1118.943
1118.086
1117.197
1116.275
1115.322
1114.339
1113.325
1112.281
1111.209
1110.111
1108.996
1107.88
1106.769
1105.667
1104.611
1119.597
1118.775
1117.92
1117.032
1116.112
1115.162
1114.178
1113.164
1112.119
1111.048
1109.962
1108.883
1107.82
1106.789
1105.812
1120.275
1119.487
1118.667
1117.814
1116.928
1116.011
1115.06
1114.076
1113.062
1112.018
1110.956
1109.896
1108.849
1107.83
1106.859
1120.959
1120.207
1119.422
1118.604
1117.753
1116.87
1115.953
1115.002
1114.019
1113.005
1111.967
1110.923
1109.886
1108.868
1107.886
1121.639
1120.922
1120.172
1119.389
1118.574
1117.725
1116.842
1115.926
1114.975
1113.993
1112.981
1111.953
1110.925
1109.907
1108.915
1103.649
1102.224
1104.995
1103.638
1102.115
1106.313
1105.032
1103.614
1101.855
1107.644
1106.412
1105.099
1103.562
1101.372
1109.007
1107.815
1106.567
1105.193
1103.458
1100.566
1110.392
1109.237
1108.04
1106.763
1105.296
1103.276
1099.396
1111.73
1110.611
1109.458
1108.253
1106.942
1105.369
1103.028
1098.104
1112.984
1111.898
1110.784
1109.632
1108.419
1107.076
1105.401
1102.771
1096.96
1114.14
1113.088
1112.008
1110.897
1109.747
1108.528
1107.158
1105.409
1102.568
1096.145
1115.2
1114.18
1113.132
1112.055
1110.949
1109.801
1108.578
1107.194
1105.408
1102.466
1096.053
1116.166
1115.178
1114.161
1113.115
1112.042
1110.939
1109.792
1108.57
1107.189
1105.41
1102.56
1096.638
1117.039
1116.083
1115.097
1114.082
1113.04
1111.969
1110.866
1109.722
1108.507
1107.145
1105.423
1102.828
1097.541
1117.821
1116.899
1115.945
1114.96
1113.947
1112.906
1111.835
1110.733
1109.593
1108.39
1107.047
1105.448
1103.167
1098.703
1118.519
1117.63
1116.708
1115.756
1114.773
1113.761
1112.719
1111.648
1110.547
1109.411
1108.211
1106.931
1105.49
1103.576
1100.108
1119.15
1118.294
1117.405
1116.485
1115.534
1114.553
1113.539
1112.496
1111.425
1110.326
1109.19
1108.03
1106.844
1105.582
1104.091
1102.311
1119.748
1118.927
1118.073
1117.186
1116.267
1115.317
1114.335
1113.321
1112.278
1111.208
1110.111
1109.006
1107.907
1106.828
1105.8
1120.369
1119.582
1118.762
1117.91
1117.025
1116.108
1115.158
1114.175
1113.162
1112.119
1111.052
1109.977
1108.91
1107.868
1106.871
1121.012
1120.26
1119.475
1118.657
1117.807
1116.924
1116.007
1115.057
1114.075
1113.061
1112.021
1110.969
1109.921
1108.891
1107.896
1121.662
1120.945
1120.196
1119.413
1118.597
1117.749
1116.866
1115.95
1115
1114.018
1113.004
1111.974
1110.941
1109.918
1108.92
1122.307
1121.625
1120.911
1120.163
1119.383
1118.569
1117.721
1116.839
1115.923
1114.974
1113.988
1112.978
1111.961
1110.945
1109.944
1104.976
1103.651
1102.236
1106.252
1104.993
1103.645
1102.132
1107.526
1106.308
1105.035
1103.625
1101.879
1108.821
1107.635
1106.41
1105.104
1103.577
1101.405
1110.147
1108.993
1107.807
1106.566
1105.2
1103.477
1100.606
1111.494
1110.374
1109.223
1108.031
1106.761
1105.303
1103.293
1099.443
1112.796
1111.709
1110.594
1109.445
1108.245
1106.941
1105.372
1103.043
1098.161
1114.015
1112.961
1111.879
1110.769
1109.621
1108.413
1107.072
1105.404
1102.788
1097.026
1115.139
1114.118
1113.068
1111.991
1110.885
1109.739
1108.521
1107.153
1105.411
1102.587
1096.498
1116.166
1115.178
1114.161
1113.115
1112.042
1110.939
1109.792
1108.57
1107.189
1105.41
1102.56
1096.638
1117.099
1116.144
1115.159
1114.144
1113.102
1112.033
1110.929
1109.783
1108.563
1107.185
1105.42
1102.718
1097.144
1117.939
1117.017
1116.065
1115.082
1114.07
1113.03
1111.96
1110.857
1109.714
1108.5
1107.124
1105.443
1102.969
1097.958
1118.689
1117.801
1116.881
1115.93
1114.948
1113.938
1112.898
1111.827
1110.725
1109.586
1108.362
1107.026
1105.476
1103.297
1099.039
1119.355
1118.5
1117.613
1116.695
1115.745
1114.765
1113.754
1112.712
1111.641
1110.541
1109.387
1108.186
1106.931
1105.533
1103.705
1100.72
1119.952
1119.132
1118.279
1117.393
1116.476
1115.527
1114.546
1113.534
1112.491
1111.421
1110.31
1109.174
1108.03
1106.868
1105.646
1104.417
1102.8
1120.518
1119.732
1118.913
1118.061
1117.177
1116.262
1115.312
1114.33
1113.318
1112.276
1111.2
1110.103
1109.008
1107.927
1106.885
1121.106
1120.354
1119.57
1118.752
1117.902
1117.02
1116.104
1115.154
1114.172
1113.16
1112.114
1111.049
1109.984
1108.932
1107.913
1121.714
1120.998
1120.248
1119.466
1118.65
1117.803
1116.92
1116.004
1115.054
1114.073
1113.057
1112.019
1110.977
1109.942
1108.931
1122.33
1121.648
1120.934
1120.186
1119.406
1118.593
1117.745
1116.863
1115.947
1114.998
1114.011
1112.998
1111.976
1110.956
1109.949
1122.94
1122.293
1121.614
1120.901
1120.156
1119.378
1118.565
1117.718
1116.836
1115.92
1114.963
1113.975
1112.973
1111.965
1110.963
1106.224
1104.975
1103.658
1102.252
1107.459
1106.247
1104.996
1103.657
1102.155
1108.702
1107.519
1106.307
1105.042
1103.641
1101.909
1109.963
1108.81
1107.63
1106.412
1105.114
1103.598
1101.439
1111.255
1110.132
1108.984
1107.803
1106.569
1105.211
1103.497
1100.646
1112.565
1111.476
1110.359
1109.214
1108.027
1106.764
1105.31
1103.309
1099.49
1113.832
1112.775
1111.692
1110.58
1109.436
1108.241
1106.939
1105.376
1103.059
1098.218
1115.015
1113.993
1112.942
1111.864
1110.757
1109.614
1108.407
1107.069
1105.406
1102.804
1097.343
1116.105
1115.116
1114.098
1113.052
1111.979
1110.876
1109.73
1108.514
1107.149
1105.413
1102.676
1097.056
1117.099
1116.144
1115.159
1114.144
1113.102
1112.033
1110.929
1109.783
1108.563
1107.185
1105.42
1102.718
1097.144
1117.998
1117.077
1116.125
1115.143
1114.132
1113.092
1112.023
1110.92
1109.775
1108.555
1107.161
1105.439
1102.864
1097.575
1118.806
1117.918
1116.999
1116.049
1115.069
1114.06
1113.02
1111.951
1110.849
1109.706
1108.466
1107.093
1105.466
1103.101
1098.308
1119.523
1118.669
1117.784
1116.866
1115.918
1114.94
1113.929
1112.889
1111.819
1110.718
1109.551
1108.319
1107.011
1105.506
1103.417
1099.627
1120.155
1119.336
1118.484
1117.6
1116.684
1115.737
1114.757
1113.746
1112.705
1111.635
1110.511
1109.348
1108.164
1106.934
1105.573
1103.967
1101.377
1120.72
1119.935
1119.117
1118.266
1117.383
1116.469
1115.52
1114.54
1113.528
1112.486
1111.399
1110.281
1109.157
1108.028
1106.887
1105.767
1104.62
1103.076
1121.253
1120.503
1119.719
1118.902
1118.053
1117.171
1116.256
1115.307
1114.326
1113.314
1112.261
1111.177
1110.086
1109.001
1107.94
1121.807
1121.091
1120.342
1119.559
1118.745
1117.897
1117.015
1116.099
1115.15
1114.169
1113.149
1112.098
1111.039
1109.984
1108.949
1122.382
1121.7
1120.986
1120.239
1119.459
1118.646
1117.798
1116.916
1116.001
1115.052
1114.063
1113.043
1112.011
1110.979
1109.96
1122.963
1122.316
1121.637
1120.924
1120.179
1119.401
1118.589
1117.741
1116.859
1115.944
1114.986
1113.994
1112.988
1111.976
1110.968
1123.539
1122.927
1122.282
1121.605
1120.894
1120.151
1119.374
1118.561
1117.714
1116.833
1115.906
1114.942
1113.959
1112.965
1111.968
1107.429
1106.22
1104.979
1103.67
1102.274
1108.634
1107.452
1106.247
1105.004
1103.673
1102.183
1109.847
1108.692
1107.515
1106.31
1105.053
1103.663
1101.94
1111.076
1109.951
1108.803
1107.629
1106.417
1105.128
1103.619
1101.473
1112.332
1111.239
1110.122
1108.978
1107.803
1106.576
1105.223
1103.517
1100.687
1113.606
1112.547
1111.461
1110.349
1109.208
1108.027
1106.766
1105.317
1103.326
1099.538
1114.835
1113.811
1112.758
1111.678
1110.571
1109.431
1108.238
1106.938
1105.38
1103.075
1098.49
1115.984
1114.994
1113.974
1112.927
1111.852
1110.749
1109.607
1108.401
1107.066
1105.408
1102.887
1097.854
1117.039
1116.083
1115.097
1114.082
1113.04
1111.969
1110.866
1109.722
1108.507
1107.145
1105.423
1102.828
1097.541
1117.998
1117.077
1116.125
1115.143
1114.132
1113.092
1112.023
1110.92
1109.775
1108.555
1107.161
1105.439
1102.864
1097.575
1118.864
1117.977
1117.059
1116.109
1115.13
1114.122
1113.082
1112.013
1110.911
1109.766
1108.518
1107.126
1105.46
1102.999
1097.936
1119.638
1118.785
1117.9
1116.984
1116.037
1115.06
1114.05
1113.011
1111.941
1110.84
1109.665
1108.412
1107.068
1105.489
1103.222
1098.916
1120.321
1119.503
1118.652
1117.769
1116.854
1115.909
1114.93
1113.921
1112.88
1111.811
1110.679
1109.496
1108.282
1106.999
1105.534
1103.667
1100.356
1120.921
1120.137
1119.32
1118.47
1117.589
1116.676
1115.729
1114.749
1113.738
1112.698
1111.601
1110.463
1109.313
1108.146
1106.936
1105.657
1104.249
1101.846
1121.453
1120.703
1119.92
1119.104
1118.256
1117.376
1116.462
1115.514
1114.534
1113.522
1112.46
1111.36
1110.25
1109.138
1108.023
1106.914
1105.84
1104.739
1103.281
1121.953
1121.238
1120.489
1119.707
1118.893
1118.047
1117.165
1116.25
1115.302
1114.321
1113.294
1112.226
1111.144
1110.059
1108.982
1122.473
1121.792
1121.078
1120.331
1119.552
1118.739
1117.892
1117.01
1116.095
1115.147
1114.153
1113.121
1112.074
1111.022
1109.979
1123.014
1122.368
1121.688
1120.976
1120.231
1119.454
1118.641
1117.794
1116.912
1115.997
1115.037
1114.038
1113.023
1111.999
1110.979
1123.562
1122.95
1122.305
1121.627
1120.917
1120.174
1119.397
1118.584
1117.737
1116.856
1115.928
1114.961
1113.974
1112.975
1111.973
1124.103
1123.526
1122.916
1122.273
1121.598
1120.89
1120.147
1119.369
1118.557
1117.71
1116.815
1115.877
1114.917
1113.94
1112.955
1108.604
1107.422
1106.22
1104.987
1103.687
1102.302
1109.78
1108.625
1107.45
1106.251
1105.016
1103.695
1102.212
1110.962
1109.836
1108.687
1107.516
1106.318
1105.069
1103.685
1101.971
1112.158
1111.063
1109.943
1108.8
1107.632
1106.428
1105.143
1103.641
1101.509
1113.378
1112.316
1111.228
1110.114
1108.976
1107.807
1106.583
1105.235
1103.537
1100.729
1114.614
1113.587
1112.532
1111.45
1110.342
1109.206
1108.027
1106.769
1105.325
1103.343
1099.77
1115.807
1114.815
1113.793
1112.744
1111.668
1110.565
1109.426
1108.234
1106.937
1105.384
1103.153
1098.949
1116.919
1115.963
1114.975
1113.959
1112.915
1111.844
1110.741
1109.6
1108.395
1107.062
1105.421
1103.03
1098.307
1117.939
1117.017
1116.065
1115.082
1114.07
1113.03
1111.96
1110.857
1109.714
1108.5
1107.124
1105.443
1102.969
1097.958
1118.864
1117.977
1117.059
1116.109
1115.13
1114.122
1113.082
1112.013
1110.911
1109.766
1108.518
1107.126
1105.46
1102.999
1097.936
1119.696
1118.844
1117.959
1117.044
1116.097
1115.12
1114.112
1113.073
1112.003
1110.902
1109.722
1108.46
1107.097
1105.481
1103.122
1098.561
1120.435
1119.618
1118.768
1117.886
1116.972
1116.027
1115.05
1114.041
1113.002
1111.932
1110.796
1109.6
1108.366
1107.048
1105.512
1103.473
1099.691
1121.086
1120.302
1119.486
1118.638
1117.757
1116.845
1115.9
1114.921
1113.912
1112.872
1111.769
1110.616
1109.448
1108.251
1106.99
1105.599
1103.978
1100.934
1121.652
1120.903
1120.121
1119.307
1118.46
1117.581
1116.667
1115.72
1114.741
1113.731
1112.661
1111.546
1110.419
1109.282
1108.129
1106.939
1105.746
1104.449
1102.211
1122.151
1121.436
1120.688
1119.908
1119.095
1118.249
1117.369
1116.454
1115.507
1114.527
1113.492
1112.412
1111.319
1110.219
1109.117
1107.998
1106.928
1105.883
1104.828
1103.458
1122.619
1121.938
1121.224
1120.478
1119.699
1118.887
1118.04
1117.159
1116.244
1115.297
1114.297
1113.248
1112.181
1111.1
1110.016
1123.105
1122.459
1121.78
1121.068
1120.323
1119.546
1118.733
1117.887
1117.005
1116.091
1115.126
1114.116
1113.085
1112.042
1110.999
1123.612
1123.001
1122.356
1121.679
1120.969
1120.226
1119.448
1118.636
1117.789
1116.908
1115.978
1115.004
1114.008
1112.999
1111.984
1124.126
1123.548
1122.938
1122.296
1121.62
1120.912
1120.169
1119.392
1118.58
1117.733
1116.837
1115.896
1114.932
1113.951
1112.96
1124.633
1124.09
1123.515
1122.906
1122.266
1121.593
1120.884
1120.142
1119.364
1118.553
1117.69
1116.78
1115.844
1114.889
1113.92
1109.75
1108.595
1107.42
1106.224
1104.999
1103.709
1102.33
1110.897
1109.77
1108.62
1107.451
1106.259
1105.033
1103.718
1102.241
1112.047
1110.95
1109.829
1108.685
1107.52
1106.33
1105.086
1103.707
1102.002
1113.208
1112.144
1111.053
1109.938
1108.801
1107.639
1106.439
1105.158
1103.663
1101.545
1114.391
1113.361
1112.304
1111.22
1110.111
1108.978
1107.812
1106.591
1105.247
1103.557
1100.935
1115.59
1114.595
1113.572
1112.52
1111.442
1110.339
1109.204
1108.027
1106.772
1105.332
1103.428
1100.198
1116.745
1115.787
1114.798
1113.779
1112.734
1111.661
1110.558
1109.421
1108.231
1106.936
1105.405
1103.297
1099.376
1117.821
1116.899
1115.945
1114.96
1113.947
1112.906
1111.835
1110.733
1109.593
1108.39
1107.047
1105.448
1103.167
1098.703
1118.806
1117.918
1116.999
1116.049
1115.069
1114.06
1113.02
1111.951
1110.849
1109.706
1108.466
1107.093
1105.466
1103.101
1098.308
1119.696
1118.844
1117.959
1117.044
1116.097
1115.12
1114.112
1113.073
1112.003
1110.902
1109.722
1108.46
1107.097
1105.481
1103.122
1098.561
1120.493
1119.676
1118.826
1117.944
1117.031
1116.087
1115.11
1114.102
1113.063
1111.994
1110.855
1109.653
1108.409
1107.074
1105.502
1103.376
1099.363
1121.199
1120.416
1119.601
1118.753
1117.874
1116.962
1116.017
1115.04
1114.031
1112.992
1111.886
1110.724
1109.543
1108.327
1107.032
1105.567
1103.8
1100.333
1121.815
1121.067
1120.286
1119.472
1118.626
1117.748
1116.836
1115.891
1114.913
1113.903
1112.828
1111.702
1110.561
1109.406
1108.224
1106.974
1105.684
1104.222
1101.41
1122.349
1121.635
1120.888
1120.108
1119.296
1118.451
1117.572
1116.659
1115.712
1114.734
1113.692
1112.601
1111.495
1110.379
1109.254
1108.089
1106.941
1105.809
1104.602
1102.524
1122.815
1122.135
1121.422
1120.676
1119.898
1119.087
1118.241
1117.361
1116.447
1115.5
1114.494
1113.438
1112.364
1111.278
1110.187
1109.057
1107.979
1106.936
1105.916
1104.904
1103.625
1123.249
1122.603
1121.925
1121.213
1120.469
1119.692
1118.88
1118.034
1117.153
1116.239
1115.268
1114.243
1113.193
1112.123
1111.039
1123.703
1123.091
1122.447
1121.77
1121.06
1120.317
1119.54
1118.728
1117.881
1117
1116.066
1115.081
1114.07
1113.041
1112.004
1124.176
1123.599
1122.989
1122.346
1121.671
1120.963
1120.221
1119.443
1118.631
1117.785
1116.886
1115.938
1114.965
1113.974
1112.971
1124.655
1124.113
1123.537
1122.929
1122.288
1121.615
1120.907
1120.164
1119.387
1118.575
1117.711
1116.798
1115.859
1114.899
1113.925
1125.129
1124.62
1124.079
1123.505
1122.899
1122.261
1121.587
1120.879
1120.137
1119.36
1118.53
1117.649
1116.741
1115.81
1114.86
1110.868
1109.741
1108.591
1107.422
1106.233
1105.016
1103.731
1102.359
1111.984
1110.886
1109.764
1108.619
1107.456
1106.272
1105.05
1103.74
1102.271
1113.1
1112.034
1110.942
1109.825
1108.687
1107.529
1106.342
1105.102
1103.729
1102.034
1114.225
1113.193
1112.133
1111.047
1109.937
1108.805
1107.646
1106.449
1105.174
1103.684
1101.722
1115.371
1114.374
1113.348
1112.295
1111.215
1110.111
1108.98
1107.816
1106.598
1105.259
1103.658
1101.36
1116.531
1115.571
1114.58
1113.56
1112.512
1111.438
1110.335
1109.202
1108.027
1106.775
1105.37
1103.59
1100.634
1117.649
1116.725
1115.77
1114.784
1113.769
1112.726
1111.654
1110.552
1109.416
1108.227
1106.933
1105.447
1103.439
1099.765
1118.689
1117.801
1116.881
1115.93
1114.948
1113.938
1112.898
1111.827
1110.725
1109.586
1108.362
1107.026
1105.476
1103.297
1099.039
1119.638
1118.785
1117.9
1116.984
1116.037
1115.06
1114.05
1113.011
1111.941
1110.84
1109.665
1108.412
1107.068
1105.489
1103.222
1098.916
1120.493
1119.676
1118.826
1117.944
1117.031
1116.087
1115.11
1114.102
1113.063
1111.994
1110.855
1109.653
1108.409
1107.074
1105.502
1103.376
1099.363
1121.256
1120.473
1119.658
1118.811
1117.932
1117.021
1116.077
1115.1
1114.092
1113.053
1111.945
1110.78
1109.592
1108.366
1107.055
1105.553
1103.711
1100.035
1121.928
1121.18
1120.399
1119.586
1118.741
1117.864
1116.952
1116.008
1115.031
1114.022
1112.945
1111.811
1110.662
1109.494
1108.293
1107.002
1105.648
1104.069
1100.878
1122.511
1121.797
1121.051
1120.272
1119.461
1118.617
1117.739
1116.827
1115.882
1114.904
1113.858
1112.758
1111.642
1110.513
1109.37
1108.166
1106.957
1105.754
1104.42
1101.826
1123.011
1122.332
1121.619
1120.875
1120.097
1119.287
1118.443
1117.564
1116.651
1115.705
1114.693
1113.628
1112.545
1111.449
1110.344
1109.187
1108.043
1106.941
1105.859
1104.73
1102.817
1123.444
1122.799
1122.121
1121.41
1120.666
1119.89
1119.079
1118.234
1117.354
1116.44
1115.465
1114.434
1113.382
1112.315
1111.238
1110.102
1109.017
1107.969
1106.944
1105.946
1104.974
1103.794
1123.846
1123.234
1122.59
1121.913
1121.204
1120.462
1119.685
1118.873
1118.027
1117.147
1116.207
1115.208
1114.179
1113.124
1112.047
1124.266
1123.689
1123.079
1122.436
1121.761
1121.054
1120.311
1119.534
1118.722
1117.876
1116.973
1116.014
1115.027
1114.017
1112.991
1124.706
1124.163
1123.587
1122.979
1122.339
1121.666
1120.958
1120.215
1119.438
1118.626
1117.76
1116.84
1115.893
1114.922
1113.936
1125.151
1124.643
1124.101
1123.528
1122.922
1122.283
1121.61
1120.902
1120.159
1119.382
1118.551
1117.668
1116.756
1115.82
1114.865
1125.591