/*--------------------------------*- C++ -*----------------------------------*\
| =========                 |                                                 |
| \\      /  F ield         | OpenFOAM: The Open Source CFD Toolbox           |
|  \\    /   O peration     | Version:  2306                                  |
|   \\  /    A nd           | Website:  www.openfoam.com                      |
|    \\/     M anipulation  |                                                 |
\*---------------------------------------------------------------------------*/
FoamFile
{
    version     2.0;
    format      ascii;
    arch        "LSB;label=32;scalar=64";
    class       volVectorField;
    location    "0.3/fuel";
    object      U;
}
// * * * * * * * * * * * * * * * * * * * * * * * * * * * * * * * * * * * * * //

dimensions      [0 1 -1 0 0 0 0];

internalField   nonuniform List<vector> 
16000
(
(0.0001049134 7.437358e-05 -0.004889036)
(0.000104915 0.0002047513 -0.004962324)
(0.0001877487 7.397644e-05 -0.003990859)
(0.0001027119 7.914037e-05 -0.01549888)
(0.0001052561 0.0003638113 -0.005110902)
(0.0001869092 0.0002076718 -0.004032808)
(0.0001025903 0.0002161267 -0.01572918)
(0.0001445547 6.538588e-05 -0.003265252)
(0.0001835797 7.732797e-05 -0.0126706)
(9.507759e-05 8.589799e-05 -0.02298915)
(0.0001050648 0.0004522294 -0.005339431)
(0.0001857661 0.0003643532 -0.004116258)
(0.0001026796 0.0003833322 -0.01619586)
(0.0001428806 0.0001845186 -0.003293097)
(0.0001825495 0.0002152572 -0.01280271)
(9.469181e-05 0.0002350388 -0.0233284)
(0.0001073568 5.679042e-05 -0.002736731)
(0.0001413291 6.793316e-05 -0.01038092)
(0.000169672 8.135136e-05 -0.01881532)
(8.597815e-05 9.139558e-05 -0.03776412)
(0.000106621 0.0006613537 -0.005640018)
(0.0001827709 0.0004642982 -0.004241241)
(0.0001020797 0.0004788618 -0.01691364)
(0.0001398789 0.0003216956 -0.003348018)
(0.0001810208 0.0003772025 -0.01306543)
(9.423289e-05 0.0004154486 -0.02401577)
(0.0001058248 0.000160655 -0.002756777)
(0.0001395471 0.0001901174 -0.01046877)
(0.0001682575 0.0002260355 -0.01901026)
(8.528231e-05 0.000257068 -0.03831913)
(8.127838e-05 4.973339e-05 -0.002341455)
(0.0001049927 5.882028e-05 -0.008710497)
(0.0001305586 7.06832e-05 -0.01543095)
(0.0001535181 8.410161e-05 -0.03093123)
(7.122355e-05 0.0001138456 -0.03070982)
(0.000104038 0.0005271448 -0.005980208)
(0.0001818363 0.0006485277 -0.004398815)
(0.0001030951 0.000694941 -0.01785756)
(0.0001344009 0.0004118002 -0.003429326)
(0.000177406 0.0004813476 -0.01345904)
(9.276311e-05 0.0005238274 -0.02507288)
(0.0001030147 0.0002791378 -0.002796079)
(0.0001363324 0.0003311393 -0.01064198)
(0.0001659384 0.0003951274 -0.01939791)
(8.418031e-05 0.000452863 -0.03944325)
(8.002594e-05 0.0001408994 -0.002356606)
(0.0001033911 0.0001650215 -0.008773824)
(0.00012859 0.0001972679 -0.01556075)
(0.0001516575 0.0002386267 -0.03125041)
(6.982825e-05 0.0003181132 -0.03116004)
(6.359331e-05 4.40077e-05 -0.002035761)
(7.948323e-05 5.140549e-05 -0.007459618)
(9.704459e-05 6.084886e-05 -0.01295887)
(0.0001180356 7.229902e-05 -0.02538643)
(0.0001263324 9.916072e-05 -0.02515882)
(0.0006084903 0.001040495 -0.06121228)
(0.0001072031 0.0001559265 -0.006225893)
(0.0001733479 0.000529927 -0.004570944)
(9.982419e-05 0.0005567832 -0.0189278)
(0.0001293097 0.0005651104 -0.003529757)
(0.0001756704 0.0006697324 -0.01395543)
(9.258127e-05 0.0007493212 -0.02646281)
(9.81091e-05 0.0003580488 -0.00285377)
(0.000130519 0.0004241877 -0.01089853)
(0.0001610841 0.0005056433 -0.01997877)
(8.169065e-05 0.0005761913 -0.04117319)
(7.770976e-05 0.0002442307 -0.002386179)
(0.0001004451 0.0002864849 -0.008897936)
(0.0001249998 0.0003429236 -0.01581667)
(0.0001484206 0.0004160755 -0.03188478)
(6.729119e-05 0.0005574141 -0.03207302)
(6.257095e-05 0.0001248019 -0.002047607)
(7.818257e-05 0.0001444355 -0.007507538)
(9.533434e-05 0.000170166 -0.01305253)
(0.00011585 0.00020564 -0.0255991)
(0.0001234086 0.0002782371 -0.02541761)
(0.0005948537 0.002952334 -0.06211208)
(5.106775e-05 3.93022e-05 -0.001792793)
(6.218866e-05 4.541873e-05 -0.006491212)
(7.344416e-05 5.297295e-05 -0.01110589)
(8.779585e-05 6.187777e-05 -0.02133371)
(9.689973e-05 8.343451e-05 -0.02065379)
(0.001080501 0.0008991373 -0.0501489)
(0.0006247774 0.001073314 -0.04319022)
(0.0001089417 8.361167e-05 -0.006378721)
(0.0001757343 0.0002025888 -0.00468654)
(0.0001025239 0.0001734475 -0.01969732)
(0.0001183119 0.0004638856 -0.003637992)
(0.0001661668 0.0005479673 -0.01449942)
(8.790704e-05 0.0006061878 -0.02803911)
(9.323454e-05 0.0004867504 -0.002923947)
(0.0001250179 0.000580478 -0.01121559)
(0.0001576702 0.0006981401 -0.02071142)
(8.010626e-05 0.0008126396 -0.0434493)
(7.373079e-05 0.0003136184 -0.002429301)
(9.532652e-05 0.0003676164 -0.009080235)
(0.0001186144 0.0004399223 -0.01619584)
(0.0001421269 0.0005340316 -0.0328361)
(6.248461e-05 0.0007196764 -0.03347791)
(6.067147e-05 0.000215928 -0.002070645)
(7.577278e-05 0.0002501715 -0.007601026)
(9.217161e-05 0.0002949073 -0.01323611)
(0.0001118228 0.0003567292 -0.02601816)
(0.0001180133 0.0004829717 -0.02593277)
(0.0005695604 0.0051691 -0.06393326)
(5.022217e-05 0.0001115354 -0.0018023)
(6.113113e-05 0.0001277442 -0.006528711)
(7.20731e-05 0.0001483221 -0.01117683)
(8.595896e-05 0.0001762003 -0.02148728)
(9.413126e-05 0.0002343962 -0.02082616)
(0.001052647 0.002557675 -0.05066641)
(0.0006100475 0.003125869 -0.04382908)
(4.19612e-05 3.538108e-05 -0.001595304)
(4.994086e-05 4.051525e-05 -0.005720804)
(5.745664e-05 4.666973e-05 -0.009670198)
(6.64121e-05 5.365439e-05 -0.01829421)
(7.22102e-05 7.057919e-05 -0.01736071)
(0.0008282826 0.0007540821 -0.04117326)
(0.001113949 0.0009261388 -0.03536817)
(0.0006100407 0.001109996 -0.04794257)
(0.0001104502 2.007369e-05 -0.006462252)
(0.0001767322 0.0001142018 -0.004755819)
(0.0001039627 9.379318e-05 -0.0201753)
(0.0001164284 0.0001884975 -0.003706938)
(0.0001678959 0.0002124473 -0.01486292)
(8.953389e-05 0.0002065975 -0.0291707)
(8.401755e-05 0.000400287 -0.002998921)
(0.0001134995 0.00047674 -0.01155867)
(0.000146228 0.0005726962 -0.02151489)
(7.378854e-05 0.0006636849 -0.04603882)
(6.968079e-05 0.0004236401 -0.002481097)
(9.019787e-05 0.0004986102 -0.009302116)
(0.0001123718 0.0005986158 -0.01666455)
(0.0001367652 0.0007313367 -0.03403674)
(5.780266e-05 0.0009925592 -0.03532815)
(5.743898e-05 0.0002774471 -0.002104057)
(7.164765e-05 0.0003213147 -0.00773744)
(8.672646e-05 0.0003787353 -0.01350582)
(0.0001047714 0.0004583537 -0.02663958)
(0.0001082688 0.000623211 -0.02670507)
(0.0005223886 0.006689306 -0.06674381)
(4.864629e-05 0.0001926844 -0.001820739)
(5.916366e-05 0.0002208666 -0.00660161)
(6.95238e-05 0.0002565017 -0.01131522)
(8.254345e-05 0.0003047934 -0.02178804)
(8.894842e-05 0.000405063 -0.02116648)
(0.001000565 0.004436491 -0.05169364)
(0.0005826227 0.00547225 -0.04512207)
(4.125207e-05 0.0001004588 -0.001603098)
(4.906865e-05 0.0001140353 -0.005750926)
(5.635054e-05 0.0001307819 -0.009725745)
(6.495886e-05 0.0001528881 -0.01841058)
(7.000453e-05 0.0001983685 -0.01748515)
(0.0008026329 0.002146472 -0.04151818)
(0.00108417 0.002699911 -0.03573579)
(0.0005946611 0.003180193 -0.04865399)
(3.509686e-05 3.206779e-05 -0.001431854)
(4.103953e-05 3.643941e-05 -0.005094083)
(4.613847e-05 4.153908e-05 -0.008527239)
(5.194344e-05 4.712944e-05 -0.01593797)
(5.453819e-05 6.071056e-05 -0.0148906)
(0.0006175476 0.0006366742 -0.03461336)
(0.0008537523 0.0007762278 -0.02902737)
(0.001083843 0.0009526972 -0.0392523)
(0.0005954136 0.001117047 -0.04868397)
(0.0001110997 6.726097e-06 -0.006498484)
(0.0001782175 4.053481e-05 -0.004792676)
(0.0001053122 2.490789e-05 -0.0204364)
(0.000114827 0.0001074525 -0.003746878)
(0.0001684728 0.000119812 -0.01508063)
(9.029221e-05 0.0001132089 -0.02987298)
(8.176013e-05 0.000167388 -0.003044567)
(0.0001113174 0.0001952028 -0.01177596)
(0.0001465023 0.0002281937 -0.02205123)
(7.416174e-05 0.00024514 -0.04788917)
(6.239765e-05 0.0003486994 -0.002536109)
(8.065513e-05 0.0004100983 -0.009540274)
(0.0001000283 0.0004921387 -0.01717217)
(0.0001230726 0.0006015916 -0.03535881)
(4.761184e-05 0.0008231934 -0.03742929)
(5.410354e-05 0.000372985 -0.002143761)
(6.742591e-05 0.0004331811 -0.007901405)
(8.118209e-05 0.0005112972 -0.01383421)
(9.766578e-05 0.0006198672 -0.02740821)
(9.839343e-05 0.00084139 -0.02768068)
(0.0004748746 0.009190952 -0.07044493)
(4.598262e-05 0.0002476656 -0.00184736)
(5.582528e-05 0.0002838201 -0.006707409)
(6.519022e-05 0.0003295945 -0.01151722)
(7.671723e-05 0.0003917861 -0.02223035)
(8.008766e-05 0.0005219983 -0.02167086)
(0.0009073096 0.005729944 -0.05323949)
(0.0005317138 0.007086778 -0.04714473)
(3.992763e-05 0.0001733311 -0.00161818)
(4.744149e-05 0.0001968779 -0.005809317)
(5.428736e-05 0.0002257935 -0.009833737)
(6.224659e-05 0.0002639445 -0.01863744)
(6.586484e-05 0.0003419457 -0.01772941)
(0.0007542426 0.003707019 -0.04219671)
(0.001028362 0.0046827 -0.03646572)
(0.0005658938 0.005566073 -0.05009362)
(3.449458e-05 9.108583e-05 -0.001438352)
(4.030963e-05 0.0001026182 -0.005118794)
(4.523134e-05 0.0001164731 -0.008571885)
(5.078058e-05 0.0001343557 -0.01602915)
(5.283223e-05 0.0001706705 -0.01498489)
(0.0005972755 0.001812712 -0.03486254)
(0.0008265702 0.002263099 -0.02927251)
(0.001053057 0.002733526 -0.03966184)
(0.0005793717 0.00323713 -0.04941254)
(2.981848e-05 2.923684e-05 -0.001294536)
(3.433072e-05 3.300211e-05 -0.004574988)
(3.79209e-05 3.729438e-05 -0.007596867)
(4.170617e-05 4.185112e-05 -0.01406124)
(4.262284e-05 5.300589e-05 -0.01297549)
(0.0004662385 0.00054691 -0.0296931)
(0.0006366443 0.0006550097 -0.02439555)
(0.0008304045 0.0007967522 -0.03221059)
(0.001059438 0.0009554346 -0.03984692)
(0.0006242852 0.001249317 -0.04116243)
(0.0001110997 -6.726041e-06 -0.006498484)
(0.0001788456 1.283554e-05 -0.004808397)
(0.0001058922 8.186753e-06 -0.02054958)
(0.0001146244 4.068422e-05 -0.003767448)
(0.0001697378 4.310386e-05 -0.01519652)
(9.126623e-05 3.462805e-05 -0.03025638)
(8.002176e-05 9.592082e-05 -0.003070184)
(0.0001095259 0.0001112099 -0.01190179)
(0.0001461637 0.0001288015 -0.02237244)
(7.412575e-05 0.0001357719 -0.04903602)
(6.039844e-05 0.0001484174 -0.002568202)
(7.822364e-05 0.0001723372 -0.009684323)
(9.725931e-05 0.0002046106 -0.01749344)
(0.0001216603 0.0002465862 -0.03623593)
(4.530644e-05 0.0003413965 -0.03893548)
(4.828119e-05 0.0003071406 -0.002185764)
(5.992118e-05 0.0003565283 -0.008076448)
(7.118277e-05 0.0004206534 -0.01418701)
(8.436144e-05 0.0005101838 -0.02824466)
(7.908039e-05 0.0006955331 -0.02875117)
(0.0003767955 0.007641647 -0.07472177)
(4.320889e-05 0.0003316904 -0.001878697)
(5.236685e-05 0.0003808903 -0.006833217)
(6.070683e-05 0.0004425541 -0.01176011)
(7.068796e-05 0.000526193 -0.02276918)
(7.073972e-05 0.0006981472 -0.02229534)
(0.0008109543 0.007715241 -0.05519095)
(0.000479932 0.009731039 -0.04978844)
(3.77007e-05 0.0002228287 -0.001639872)
(4.469806e-05 0.0002530608 -0.005893682)
(5.080695e-05 0.0002902141 -0.009990514)
(5.76694e-05 0.0003393299 -0.01896889)
(5.891111e-05 0.0004403128 -0.01808838)
(0.0006718191 0.004779684 -0.04320699)
(0.0009286717 0.006049794 -0.0375861)
(0.0005128127 0.007216897 -0.05235546)
(3.336797e-05 0.0001569911 -0.001450906)
(3.89453e-05 0.0001769522 -0.00516659)
(4.353565e-05 0.0002008184 -0.008658438)
(4.860543e-05 0.0002315954 -0.01620626)
(4.962685e-05 0.0002936908 -0.01516914)
(0.0005589796 0.003122926 -0.03534957)
(0.0007752376 0.00390811 -0.02975502)
(0.000995191 0.004740024 -0.0404748)
(0.0005492335 0.005664961 -0.05088342)
(2.93013e-05 8.306875e-05 -0.001300034)
(3.371184e-05 9.297585e-05 -0.004595608)
(3.716503e-05 0.0001046168 -0.007633513)
(4.075818e-05 0.0001193449 -0.01413457)
(4.127727e-05 0.0001490313 -0.01304935)
(0.0004506152 0.001557325 -0.02988203)
(0.0006152168 0.001909907 -0.02457273)
(0.0008026967 0.002286775 -0.03248378)
(0.001027676 0.00277066 -0.04026715)
(0.0006060811 0.003586529 -0.04177322)
(2.56611e-05 2.67917e-05 -0.001177689)
(2.917322e-05 3.006982e-05 -0.004138584)
(3.172989e-05 3.372774e-05 -0.006825827)
(3.428407e-05 3.750499e-05 -0.01253286)
(3.420622e-05 4.684654e-05 -0.01144987)
(0.0003643066 0.0004770082 -0.02587827)
(0.0004805916 0.00056242 -0.02092293)
(0.0006194248 0.000671592 -0.02706813)
(0.0008114654 0.0007978847 -0.03269065)
(0.001107757 0.001062364 -0.0336802)
(0.005178107 0.0116252 -0.1080304)
(0.0001104502 -2.007373e-05 -0.006462252)
(0.0001788456 -1.283554e-05 -0.004808397)
(0.0001058922 -8.1867e-06 -0.02054958)
(0.0001145204 1.2821e-05 -0.003776007)
(0.0001702699 1.360993e-05 -0.01524597)
(9.16829e-05 1.110477e-05 -0.03042253)
(7.955337e-05 3.736465e-05 -0.003082937)
(0.0001092277 4.235546e-05 -0.01196667)
(0.0001469258 4.753224e-05 -0.02254349)
(7.466216e-05 4.591596e-05 -0.04966185)
(5.889865e-05 8.532463e-05 -0.002585638)
(7.637496e-05 9.86607e-05 -0.009765124)
(9.510484e-05 0.0001164368 -0.01767954)
(0.0001202611 0.0001393037 -0.03676071)
(4.356218e-05 0.0001916699 -0.03986841)
(4.657929e-05 0.0001323268 -0.002209275)
(5.780909e-05 0.000152261 -0.008177808)
(6.843814e-05 0.0001785468 -0.01440028)
(8.090959e-05 0.0002156361 -0.02877017)
(7.392852e-05 0.0002991091 -0.02946542)
(0.0003512696 0.003225598 -0.07771114)
(3.846813e-05 0.0002731845 -0.001911767)
(4.638487e-05 0.0003135867 -0.006967061)
(5.291752e-05 0.0003641874 -0.01201964)
(6.015561e-05 0.000433051 -0.0233512)
(5.465111e-05 0.0005757809 -0.02297166)
(0.0006283723 0.006383545 -0.05738744)
(0.0003746495 0.008095854 -0.05314269)
(3.536662e-05 0.0002975117 -0.001665194)
(4.183255e-05 0.0003383887 -0.005993064)
(4.717231e-05 0.0003880836 -0.01017701)
(5.288029e-05 0.0004535788 -0.01936763)
(5.151726e-05 0.0005857962 -0.01852612)
(0.0005842533 0.006378573 -0.04445655)
(0.0008250973 0.008143326 -0.03898791)
(0.0004580959 0.00990051 -0.05530862)
(3.148167e-05 0.0002018362 -0.001468905)
(3.665639e-05 0.0002274765 -0.005235386)
(4.069115e-05 0.0002581402 -0.008783531)
(4.495879e-05 0.0002977442 -0.01646363)
(4.428495e-05 0.0003779531 -0.01543813)
(0.0004948172 0.004022577 -0.03606913)
(0.0006878871 0.005039911 -0.03049129)
(0.0008922061 0.006126983 -0.04173039)
(0.0004939162 0.007352928 -0.05322542)
(2.833274e-05 0.0001430416 -0.00131064)
(3.255342e-05 0.0001601601 -0.004635419)
(3.574997e-05 0.0001801738 -0.0077044)
(3.898226e-05 0.0002054654 -0.01427658)
(3.874729e-05 0.0002561149 -0.01319321)
(0.0004210828 0.002678403 -0.03024947)
(0.0005747088 0.003290141 -0.0249193)
(0.0007503146 0.003948341 -0.03302134)
(0.0009678077 0.004803843 -0.04109878)
(0.0005714926 0.006275716 -0.04301775)
(2.52126e-05 7.613838e-05 -0.001182397)
(2.864251e-05 8.474126e-05 -0.004156039)
(3.109117e-05 9.464293e-05 -0.00685642)
(3.349779e-05 0.0001069743 -0.01259308)
(3.312101e-05 0.0001317247 -0.01150927)
(0.0003520125 0.00135837 -0.02602639)
(0.0004640969 0.001640052 -0.02105734)
(0.000597675 0.001927765 -0.02726565)
(0.0007832221 0.002313828 -0.03297143)
(0.001072087 0.003051886 -0.03403077)
(0.005007164 0.03353846 -0.1098223)
(2.233978e-05 2.466151e-05 -0.001077169)
(2.511134e-05 2.754045e-05 -0.003766995)
(2.697368e-05 3.069414e-05 -0.006177272)
(2.869571e-05 3.386669e-05 -0.01126565)
(2.813009e-05 4.182131e-05 -0.01020724)
(0.0002923341 0.0004212343 -0.02283914)
(0.0003754953 0.0004903725 -0.01823142)
(0.0004674907 0.0005762325 -0.02321343)
(0.0006054808 0.0006719448 -0.02746661)
(0.0008481108 0.0008850291 -0.0276247)
(0.009174836 0.009784826 -0.08834698)
(0.005330463 0.01156141 -0.01107315)
(0.0001089417 -8.361174e-05 -0.006378721)
(0.0001782175 -4.053481e-05 -0.004792676)
(0.0001053122 -2.490793e-05 -0.0204364)
(0.0001145204 -1.2821e-05 -0.003776007)
(0.0001702699 -1.360993e-05 -0.01524597)
(9.16829e-05 -1.110473e-05 -0.03042253)
(7.933469e-05 1.175824e-05 -0.003088094)
(0.0001090819 1.332237e-05 -0.01199369)
(0.0001472395 1.492907e-05 -0.02261649)
(7.488853e-05 1.449317e-05 -0.04993303)
(5.843204e-05 3.380715e-05 -0.002593996)
(7.585284e-05 3.855397e-05 -0.009805419)
(9.460817e-05 4.487154e-05 -0.01777559)
(0.0001204413 5.270406e-05 -0.0370402)
(4.318695e-05 7.274223e-05 -0.0403774)
(4.531902e-05 7.623405e-05 -0.00222163)
(5.623807e-05 8.743045e-05 -0.008232837)
(6.639909e-05 0.0001020151 -0.01451996)
(7.83327e-05 0.0001225666 -0.02907426)
(7.015508e-05 0.0001691959 -0.02989258)
(0.0003325625 0.001814174 -0.07955978)
(3.702302e-05 0.0001187341 -0.001929546)
(4.460478e-05 0.0001354211 -0.007041356)
(5.061595e-05 0.0001566014 -0.01216985)
(5.704569e-05 0.0001858443 -0.02370005)
(4.953941e-05 0.000250581 -0.02339987)
(0.0005755822 0.002768957 -0.05879522)
(0.000346185 0.003430826 -0.05516758)
(3.144039e-05 0.00024504 -0.001691881)
(3.697197e-05 0.0002786194 -0.006098577)
(4.100018e-05 0.0003193693 -0.01037559)
(4.475814e-05 0.0003732015 -0.01979623)
(3.927738e-05 0.0004823736 -0.01899618)
(0.0004355547 0.005262814 -0.04585376)
(0.000630447 0.006738746 -0.04080026)
(0.0003490403 0.008245214 -0.05917892)
(2.949505e-05 0.0002687946 -0.001489759)
(3.425155e-05 0.0003032879 -0.005315754)
(3.770154e-05 0.0003440744 -0.008930944)
(4.1118e-05 0.0003965581 -0.01676995)
(3.858471e-05 0.0005010039 -0.01576205)
(0.0004262883 0.00534132 -0.03694552)
(0.0005948973 0.006724632 -0.03139292)
(0.0007842743 0.008243476 -0.04329969)
(0.0004362302 0.01008223 -0.05626662)
(2.671677e-05 0.0001839029 -0.001325803)
(3.061772e-05 0.0002058959 -0.004692539)
(3.338659e-05 0.0002316047 -0.007806462)
(3.601933e-05 0.0002641309 -0.01448203)
(3.455194e-05 0.0003294356 -0.01340208)
(0.0003719731 0.00344751 -0.03078907)
(0.0005068833 0.004238496 -0.02544618)
(0.0006613166 0.005093409 -0.03384792)
(0.0008615815 0.006212423 -0.04240784)
(0.0005084303 0.008157949 -0.04498727)
(2.437193e-05 0.0001310027 -0.001191471)
(2.764807e-05 0.0001458458 -0.004189692)
(2.989411e-05 0.000162841 -0.006915494)
(3.202324e-05 0.0001839781 -0.01270943)
(3.107962e-05 0.0002261329 -0.01162463)
(0.0003287639 0.002333213 -0.02631333)
(0.0004328986 0.002820516 -0.02131899)
(0.0005565294 0.003320428 -0.02765188)
(0.0007297616 0.003994712 -0.03352191)
(0.001004294 0.005290935 -0.03473351)
(0.00466117 0.05863723 -0.1132701)
(2.194756e-05 7.009685e-05 -0.001081244)
(2.465163e-05 7.7632e-05 -0.003781952)
(2.642748e-05 8.61522e-05 -0.006203181)
(2.803373e-05 9.661157e-05 -0.01131595)
(2.723754e-05 0.0001176009 -0.01025601)
(0.0002824366 0.001199584 -0.02295833)
(0.0003625255 0.001430016 -0.01833685)
(0.0004507796 0.001654123 -0.02336332)
(0.0005833917 0.001948676 -0.0276699)
(0.0008168821 0.002542588 -0.02785806)
(0.008844457 0.02822137 -0.08941834)
(0.00516114 0.03371268 -0.01154177)
(1.963899e-05 2.279055e-05 -0.0009898569)
(2.186685e-05 2.533931e-05 -0.003447129)
(2.322883e-05 2.808382e-05 -0.005624771)
(2.440675e-05 3.078155e-05 -0.01019929)
(2.356355e-05 3.764514e-05 -0.009176792)
(0.0002404314 0.0003757995 -0.02036354)
(0.0003012991 0.0004329214 -0.0160878)
(0.0003652196 0.0005021352 -0.02022621)
(0.0004568761 0.0005761652 -0.02355196)
(0.0006331147 0.0007443665 -0.023206)
(0.007018358 0.008116254 -0.07243244)
(0.009471288 0.009757845 -0.009009018)
(0.005148125 0.01188222 -0.03184241)
(0.0001072031 -0.0001559266 -0.006225893)
(0.0001767322 -0.0001142018 -0.004755819)
(0.0001039627 -9.379325e-05 -0.0201753)
(0.0001146244 -4.068422e-05 -0.003767448)
(0.0001697378 -4.310386e-05 -0.01519652)
(9.126623e-05 -3.462808e-05 -0.03025638)
(7.933469e-05 -1.175824e-05 -0.003088094)
(0.0001090819 -1.332236e-05 -0.01199369)
(0.0001472395 -1.492907e-05 -0.02261649)
(7.488853e-05 -1.449314e-05 -0.04993303)
(5.821625e-05 1.063213e-05 -0.00259726)
(7.561077e-05 1.211331e-05 -0.009821726)
(9.437603e-05 1.406157e-05 -0.01781561)
(0.0001205023 1.647023e-05 -0.03715952)
(4.301674e-05 2.258248e-05 -0.04059796)
(4.489845e-05 3.05506e-05 -0.002227303)
(5.573763e-05 3.470144e-05 -0.008259262)
(6.57741e-05 4.012592e-05 -0.01457972)
(7.760523e-05 4.782193e-05 -0.02923128)
(6.908216e-05 6.660883e-05 -0.03012012)
(0.0003275404 0.0006987147 -0.08056835)
(3.596176e-05 6.849787e-05 -0.001938569)
(4.329538e-05 7.791451e-05 -0.007080348)
(4.893156e-05 8.970393e-05 -0.01225144)
(5.478437e-05 0.0001059616 -0.02389561)
(4.591419e-05 0.0001421179 -0.02364762)
(0.0005375852 0.001566586 -0.05963449)
(0.0003254939 0.001930485 -0.0564116)
(3.020687e-05 0.0001072027 -0.001705674)
(3.547015e-05 0.0001212941 -0.006154773)
(3.909701e-05 0.0001385773 -0.01048577)
(4.223509e-05 0.000161715 -0.02004192)
(3.521505e-05 0.0002111739 -0.01928063)
(0.0003868673 0.002303531 -0.04669344)
(0.0005729791 0.002926833 -0.04172132)
(0.0003180406 0.003515689 -0.06139434)
(2.619497e-05 0.0002213694 -0.00151173)
(3.023242e-05 0.0002497083 -0.005401001)
(3.270784e-05 0.0002831219 -0.00908758)
(3.472313e-05 0.0003261874 -0.01709822)
(2.931639e-05 0.0004120714 -0.01610783)
(0.0003138937 0.004399058 -0.03792258)
(0.0004374865 0.005548333 -0.03258955)
(0.0005840258 0.006823133 -0.045424)
(0.0003231749 0.008403307 -0.06058482)
(2.500861e-05 0.0002443833 -0.001343255)
(2.857509e-05 0.0002738455 -0.004758773)
(3.089114e-05 0.0003078905 -0.007925737)
(3.288432e-05 0.0003507831 -0.01472426)
(3.006527e-05 0.0004354869 -0.01365091)
(0.0003193927 0.004561909 -0.03143798)
(0.0004343482 0.005627421 -0.02608105)
(0.0005662587 0.006794408 -0.03485909)
(0.0007494392 0.008357647 -0.04403341)
(0.0004417008 0.01118355 -0.04755744)
(2.297357e-05 0.0001684188 -0.001204412)
(2.599193e-05 0.0001874898 -0.004237845)
(2.790196e-05 0.0002093135 -0.007000276)
(2.95725e-05 0.0002364804 -0.01287714)
(2.770695e-05 0.0002907476 -0.01179136)
(0.0002902867 0.003001469 -0.02673267)
(0.0003810457 0.003630741 -0.02171587)
(0.0004877076 0.004278428 -0.02824427)
(0.0006390467 0.005154804 -0.03438825)
(0.0008844755 0.006847196 -0.03583002)
(0.004039662 0.07643474 -0.1195677)
(2.121193e-05 0.0001205235 -0.001089091)
(2.378956e-05 0.0001335071 -0.003810759)
(2.540297e-05 0.0001481104 -0.006253141)
(2.679133e-05 0.0001660108 -0.01141295)
(2.555806e-05 0.0002017104 -0.01035054)
(0.0002637147 0.002058348 -0.02318849)
(0.000337986 0.002456153 -0.01854134)
(0.0004191558 0.002844354 -0.02365502)
(0.0005415677 0.003356222 -0.02806577)
(0.0007574358 0.004389433 -0.02832278)
(0.008183969 0.04888927 -0.09140658)
(0.004817941 0.05941344 -0.012487)
(1.929357e-05 6.478832e-05 -0.0009934161)
(2.14652e-05 7.144116e-05 -0.003460083)
(2.27568e-05 7.884104e-05 -0.005646981)
(2.384238e-05 8.782021e-05 -0.01024191)
(2.28172e-05 0.0001058611 -0.009217521)
(0.0002323027 0.001070214 -0.02046148)
(0.0002908637 0.001262499 -0.01617269)
(0.0003520958 0.00144145 -0.02034384)
(0.0004399324 0.001670936 -0.02370644)
(0.0006088089 0.002138443 -0.02337442)
(0.006736445 0.02340314 -0.07316773)
(0.009142652 0.0284431 -0.009345898)
(0.004970495 0.03440712 -0.03275307)
(1.741675e-05 2.113798e-05 -0.0009133962)
(1.922866e-05 2.340779e-05 -0.003169135)
(2.023893e-05 2.581693e-05 -0.00514896)
(2.103117e-05 2.813363e-05 -0.009290491)
(2.006937e-05 3.412524e-05 -0.008309526)
(0.0002014416 0.0003380874 -0.01831044)
(0.0002478128 0.0003861441 -0.01434205)
(0.0002930347 0.0004431106 -0.01784735)
(0.0003568926 0.0005018295 -0.020519)
(0.0004775875 0.0006376933 -0.01989585)
(0.005245253 0.006809545 -0.06082825)
(0.007247242 0.008103285 -0.007360336)
(0.009125728 0.009981317 -0.02598667)
(0.005101362 0.01195717 -0.01175334)
(0.000104038 -0.0005271448 -0.005980208)
(0.0001757343 -0.0002025888 -0.00468654)
(0.0001025239 -0.0001734475 -0.01969732)
(0.000114827 -0.0001074525 -0.003746878)
(0.0001684728 -0.000119812 -0.01508063)
(9.029221e-05 -0.0001132089 -0.02987298)
(7.955337e-05 -3.736465e-05 -0.003082937)
(0.0001092277 -4.235546e-05 -0.01196667)
(0.0001469258 -4.753224e-05 -0.02254349)
(7.466216e-05 -4.591598e-05 -0.04966185)
(5.821625e-05 -1.063213e-05 -0.00259726)
(7.561077e-05 -1.211331e-05 -0.009821726)
(9.437603e-05 -1.406157e-05 -0.01781561)
(0.0001205023 -1.647023e-05 -0.03715952)
(4.301673e-05 -2.258246e-05 -0.04059796)
(4.470449e-05 9.604189e-06 -0.002229427)
(5.550719e-05 1.089783e-05 -0.008269591)
(6.548761e-05 1.256716e-05 -0.01460394)
(7.727272e-05 1.492899e-05 -0.02929674)
(6.859844e-05 2.065398e-05 -0.03021729)
(0.0003252945 0.0002164731 -0.08100538)
(3.559183e-05 2.767065e-05 -0.001942518)
(4.285205e-05 3.125046e-05 -0.007098289)
(4.837067e-05 3.573325e-05 -0.01229068)
(5.403935e-05 4.197554e-05 -0.02399329)
(4.464902e-05 5.665915e-05 -0.0237756)
(0.00052574 0.0006206764 -0.06008125)
(0.0003196402 0.0007465388 -0.05709025)
(2.930623e-05 6.190176e-05 -0.001712429)
(3.43734e-05 6.987792e-05 -0.006183245)
(3.771524e-05 7.951367e-05 -0.01054363)
(4.041804e-05 9.238697e-05 -0.02017518)
(3.235587e-05 0.000119928 -0.0194401)
(0.0003525768 0.001305952 -0.04717686)
(0.0005318056 0.00165585 -0.04226107)
(0.0002957392 0.001979584 -0.06274837)
(2.513444e-05 9.733343e-05 -0.001522658)
(2.895625e-05 0.0001093668 -0.005444606)
(3.112221e-05 0.0001236609 -0.009170968)
(3.267585e-05 0.0001423051 -0.0172784)
(2.618337e-05 0.000181071 -0.0163083)
(0.0002758592 0.001933931 -0.03847785)
(0.000385575 0.002429552 -0.03312203)
(0.000522975 0.002969212 -0.04641734)
(0.0002896959 0.003599164 -0.0627413)
(2.220002e-05 0.0002012378 -0.001361648)
(2.520107e-05 0.0002254388 -0.004829028)
(2.677532e-05 0.000253303 -0.008052347)
(2.773448e-05 0.00028844 -0.01498344)
(2.285376e-05 0.0003578521 -0.01391548)
(0.0002345456 0.003752157 -0.03216099)
(0.000315616 0.004634309 -0.02694426)
(0.0004061502 0.005605766 -0.0362772)
(0.0005434988 0.006918412 -0.04649106)
(0.0003136785 0.009330411 -0.05113465)
(2.149138e-05 0.0002233935 -0.001219217)
(2.423848e-05 0.000248851 -0.004293308)
(2.579121e-05 0.0002776439 -0.007098621)
(2.697079e-05 0.0003133288 -0.01307321)
(2.40945e-05 0.0003835036 -0.01198813)
(0.0002490274 0.003961296 -0.02723149)
(0.0003254746 0.004804103 -0.02218777)
(0.0004139502 0.005679775 -0.02895743)
(0.0005418779 0.006876933 -0.03544051)
(0.0007567625 0.00921419 -0.03720053)
(0.003362532 0.1042111 -0.1273179)
(1.999168e-05 0.0001549398 -0.00110026)
(2.235797e-05 0.0001716182 -0.00385188)
(2.370306e-05 0.0001903634 -0.006324644)
(2.473288e-05 0.0002133553 -0.01155233)
(2.279141e-05 0.0002592512 -0.01048664)
(0.0002328381 0.002646597 -0.02352351)
(0.0002973904 0.003159806 -0.01885111)
(0.0003666402 0.003661973 -0.02410189)
(0.0004716692 0.004325482 -0.02868943)
(0.00065673 0.005666865 -0.02904638)
(0.007027453 0.06334768 -0.09517354)
(0.004190726 0.07760407 -0.01720401)
(1.864548e-05 0.0001113298 -0.001000266)
(2.07116e-05 0.0001227778 -0.003485011)
(2.187087e-05 0.0001354446 -0.005689765)
(2.278254e-05 0.0001507913 -0.01032398)
(2.141248e-05 0.000181441 -0.00929634)
(0.0002169236 0.001834809 -0.02065012)
(0.0002711146 0.002166213 -0.01633683)
(0.000327255 0.002475516 -0.02057189)
(0.0004078456 0.002873116 -0.0240057)
(0.0005625563 0.003682962 -0.02370839)
(0.006176413 0.04037605 -0.07450365)
(0.008484595 0.04964867 -0.01003176)
(0.004610879 0.06144591 -0.03450384)
(1.711052e-05 6.009792e-05 -0.0009165273)
(1.887522e-05 6.600627e-05 -0.003180455)
(1.982732e-05 7.248836e-05 -0.005168202)
(2.054468e-05 8.027186e-05 -0.009327042)
(1.943664e-05 9.596467e-05 -0.008344031)
(0.0001946522 0.0009628203 -0.01839229)
(0.0002392463 0.001126087 -0.01441185)
(0.0002824852 0.001272013 -0.0179421)
(0.0003436006 0.001455354 -0.0206404)
(0.0004589848 0.001831928 -0.02002348)
(0.005027659 0.01963181 -0.06137257)
(0.00696478 0.02361315 -0.00761973)
(0.008784257 0.0288926 -0.02660725)
(0.00492061 0.03473696 -0.01232074)
(1.556422e-05 1.966693e-05 -0.0008459401)
(1.705816e-05 2.170293e-05 -0.002925556)
(1.780823e-05 2.38312e-05 -0.004735255)
(1.833791e-05 2.583902e-05 -0.008507524)
(1.732282e-05 3.111951e-05 -0.007570284)
(0.0001716305 0.000306334 -0.01658229)
(0.0002076399 0.0003473328 -0.01289455)
(0.0002410313 0.0003950904 -0.01591021)
(0.0002863373 0.0004426684 -0.01810417)
(0.0003730181 0.0005550416 -0.01733187)
(0.003954438 0.005823656 -0.05214012)
(0.005414961 0.00680268 -0.006164154)
(0.006981068 0.008272497 -0.02127823)
(0.009047862 0.01003328 -0.009573915)
(0.004996575 0.01194015 -0.006016334)
(0.000106621 -0.0006613536 -0.005640018)
(0.0001733479 -0.000529927 -0.004570944)
(9.98242e-05 -0.0005567832 -0.0189278)
(0.0001164284 -0.0001884975 -0.003706938)
(0.0001678959 -0.0002124473 -0.01486292)
(8.95339e-05 -0.0002065975 -0.0291707)
(8.002176e-05 -9.592082e-05 -0.003070184)
(0.0001095259 -0.0001112099 -0.01190179)
(0.0001461637 -0.0001288015 -0.02237244)
(7.412575e-05 -0.0001357719 -0.04903602)
(5.843204e-05 -3.380715e-05 -0.002593996)
(7.585284e-05 -3.855397e-05 -0.009805419)
(9.460817e-05 -4.487154e-05 -0.01777559)
(0.0001204413 -5.270406e-05 -0.0370402)
(4.318695e-05 -7.274225e-05 -0.0403774)
(4.470449e-05 -9.604189e-06 -0.002229427)
(5.550719e-05 -1.089783e-05 -0.008269591)
(6.548761e-05 -1.256716e-05 -0.01460394)
(7.727272e-05 -1.492899e-05 -0.02929674)
(6.859844e-05 -2.065397e-05 -0.03021729)
(0.0003252945 -0.000216473 -0.08100538)
(3.542143e-05 8.696077e-06 -0.001943919)
(4.264828e-05 9.811214e-06 -0.00710501)
(4.811435e-05 1.11892e-05 -0.01230604)
(5.370099e-05 1.310176e-05 -0.02403288)
(4.408176e-05 1.757239e-05 -0.02382898)
(0.0005204364 0.0001922214 -0.06027194)
(0.0003170296 0.0002311567 -0.05738375)
(2.898273e-05 2.515201e-05 -0.001715227)
(3.398741e-05 2.823555e-05 -0.006195725)
(3.723394e-05 3.19495e-05 -0.0105703)
(3.978642e-05 3.695147e-05 -0.02023929)
(3.131237e-05 4.812621e-05 -0.01951981)
(0.0003402982 0.0005226166 -0.04742616)
(0.000518663 0.0006571325 -0.04254714)
(0.0002890123 0.0007704584 -0.06348808)
(2.436347e-05 5.62341e-05 -0.001527817)
(2.802903e-05 6.306131e-05 -0.005465905)
(2.99771e-05 7.103495e-05 -0.009213239)
(3.120923e-05 8.140688e-05 -0.01737285)
(2.398554e-05 0.000102919 -0.01641708)
(0.0002492242 0.001097536 -0.038787)
(0.0003490868 0.001377103 -0.03341947)
(0.0004795442 0.001679644 -0.04699266)
(0.0002658194 0.002027609 -0.06404454)
(2.128161e-05 8.883073e-05 -0.001370461)
(2.41075e-05 9.919458e-05 -0.004863579)
(2.543998e-05 0.0001111869 -0.008117082)
(2.605059e-05 0.0001264632 -0.01511977)
(2.038885e-05 0.0001576613 -0.01406261)
(0.0002054347 0.001654047 -0.03255059)