/*--------------------------------*- C++ -*----------------------------------*\
| =========                 |                                                 |
| \\      /  F ield         | OpenFOAM: The Open Source CFD Toolbox           |
|  \\    /   O peration     | Version:  2306                                  |
|   \\  /    A nd           | Website:  www.openfoam.com                      |
|    \\/     M anipulation  |                                                 |
\*---------------------------------------------------------------------------*/
FoamFile
{
    version     2.0;
    format      ascii;
    arch        "LSB;label=32;scalar=64";
    class       volScalarField;
    location    "0.3/fuel";
    object      X.H2;
}
// * * * * * * * * * * * * * * * * * * * * * * * * * * * * * * * * * * * * * //

dimensions      [0 0 0 0 0 0 0];

internalField   nonuniform List<scalar> 
16000
(
0.9208743
0.9223559
0.8989617
0.9209604
0.9253088
0.9001146
0.9224427
0.8747239
0.8990394
0.9211285
0.9296466
0.9024104
0.925397
0.8757441
0.9001927
0.922612
0.8514208
0.8747942
0.8991912
0.9213755
0.9350586
0.9057809
0.9297373
0.8777761
0.9024894
0.9255691
0.8523576
0.8758147
0.9003453
0.9228609
0.8294104
0.8514851
0.8749317
0.8994147
0.9216997
0.9406472
0.9099887
0.9351532
0.8807622
0.9058614
0.929914
0.8542229
0.8778473
0.9026437
0.925822
0.8302809
0.8524221
0.8759528
0.9005699
0.9231875
0.8086448
0.8294697
0.851611
0.8751342
0.8997082
0.9220201
0.9447577
0.9143498
0.9407472
0.8844949
0.9100716
0.9353377
0.8569637
0.8808345
0.9060186
0.9301737
0.8320135
0.8542879
0.8779867
0.9028708
0.9261537
0.8094588
0.8303404
0.8525485
0.8761562
0.9008649
0.9235102
0.7890214
0.8086999
0.829586
0.8517966
0.8754004
0.8999984
0.9222851
0.947342
0.9175989
0.9448599
0.8883699
0.9144361
0.9409423
0.8603897
0.8845692
0.9102336
0.9356087
0.8345589
0.8570296
0.8809761
0.9062499
0.9305144
0.8110783
0.8320735
0.8544153
0.8781919
0.903169
0.9264816
0.7897857
0.8095141
0.8304571
0.8527348
0.8764235
0.9011566
0.9237772
0.7704402
0.7890729
0.8088081
0.8297576
0.8520407
0.8756638
0.9002384
0.9225481
0.9488057
0.9196756
0.9474448
0.8912618
0.9176862
0.945059
0.8639467
0.8884469
0.9146048
0.941229
0.8377401
0.8604573
0.8847145
0.910472
0.9359643
0.813457
0.8346197
0.8571589
0.8811846
0.9065537
0.9308511
0.7913061
0.811134
0.8321911
0.8546032
0.8784617
0.9034639
0.9267528
0.7711603
0.7898373
0.8096226
0.8306293
0.8529799
0.876688
0.9013979
0.9240421
0.7528122
0.7704885
0.789174
0.8089678
0.8299834
0.8522824
0.8758816
0.9004766
0.922809
0.9494634
0.9208708
0.9489085
0.8931143
0.9197629
0.947645
0.8666023
0.8913394
0.9178568
0.9453517
0.8410423
0.8640166
0.8885975
0.914853
0.9416053
0.8164292
0.8378023
0.8605897
0.8849285
0.910785
0.9363156
0.7935387
0.8135134
0.8347389
0.8573494
0.8814586
0.906854
0.9311301
0.7725924
0.7913581
0.8112433
0.8323646
0.8548502
0.8787286
0.9037078
0.9270221
0.7534925
0.7712087
0.7899388
0.8097828
0.8308559
0.8532224
0.8769068
0.9016373
0.9243049
0.736059
0.7528577
0.7705834
0.7893233
0.809178
0.8302071
0.8524822
0.8760978
0.900713
0.9230679
0.9494634
0.9214141
0.9495662
0.8941828
0.9209579
0.949109
0.8683048
0.8931917
0.9199335
0.947939
0.8435083
0.8666727
0.8914913
0.9181079
0.9457356
0.8195142
0.8411066
0.8641536
0.8888195
0.9151792
0.9419772
0.7963281
0.8164868
0.8379242
0.8607849
0.8852099
0.9110946
0.9366083
0.7746952
0.7935914
0.813624
0.8349147
0.8575999
0.8817296
0.9071028
0.9314076
0.7548453
0.7726411
0.7914601
0.8114046
0.8325929
0.8550947
0.8789494
0.90395
0.9272895
0.7367032
0.7535381
0.7713039
0.7900886
0.8099937
0.8310804
0.8534231
0.8771238
0.9018749
0.9245658
0.7201121
0.7361018
0.752947
0.7707236
0.7895201
0.8093863
0.830392
0.8526805
0.8763122
0.9009475
0.9243112
0.9488057
0.9214141
0.9495662
0.8946693
0.9215012
0.9497667
0.8692876
0.89426
0.9211282
0.9494032
0.84509
0.8683749
0.8933433
0.9201845
0.9483248
0.821818
0.8435729
0.8668105
0.8917151
0.9184377
0.9461152
0.7992229
0.8195737
0.8412326
0.8643556
0.8891113
0.9155017
0.9422899
0.7773219
0.7963818
0.8166
0.8381041
0.8610417
0.8854882
0.9113521
0.9369009
0.7568313
0.7747445
0.7936947
0.8137874
0.835146
0.8578479
0.8819542
0.9073502
0.9316836
0.737984
0.7548911
0.7727369
0.791611
0.811617
0.832819
0.855297
0.8791686
0.9041904
0.9275549
0.7207234
0.7367462
0.7536277
0.7714445
0.7902859
0.8102027
0.831266
0.8536221
0.8773392
0.9021106
0.9258183
0.7049113
0.7201526
0.7361862
0.7530791
0.7709084
0.789715
0.8095586
0.8305755
0.8528773
0.876525
0.9020747
0.9251583
0.947342
0.9208708
0.9489085
0.8946693
0.9215012
0.9497667
0.8697355
0.8947464
0.9216713
0.9500609
0.8460037
0.8693575
0.8944111
0.9213787
0.9497892
0.8232963
0.8451544
0.8685123
0.8935665
0.9205141
0.948706
0.8013849
0.8218778
0.8436996
0.8670139
0.8920093
0.9187639
0.9464343
0.7800476
0.7992783
0.8196905
0.8414186
0.8646214
0.8894001
0.9157722
0.9426052
0.7593119
0.7773722
0.7964874
0.816767
0.8383409
0.8612958
0.8857198
0.9116093
0.9371933
0.7398643
0.7568777
0.7748414
0.7938473
0.8140024
0.8353751
0.8580534
0.8821775
0.9075961
0.931958
0.7219386
0.7380273
0.7549813
0.7728784
0.7918096
0.8118274
0.8330061
0.8554979
0.8793862
0.904429
0.9288297
0.7054923
0.720764
0.7368307
0.7537601
0.7716298
0.7904814
0.8103755
0.8314501
0.8538197
0.877553
0.9032437
0.9266754
0.6904033
0.7049497
0.7202325
0.736311
0.7532532
0.7710916
0.7898762
0.8097295
0.8307576
0.8530725
0.8775486
0.9028415
0.9257958
0.9447577
0.9196756
0.9474448
0.8941828
0.9209579
0.949109
0.8697355
0.8947464
0.9216713
0.9500609
0.8464203
0.8698052
0.8948972
0.9219214
0.9504469
0.8241506
0.8460678
0.8694944
0.8946336
0.9217076
0.9501707
0.8027724
0.8233558
0.8452805
0.868715
0.89386
0.9208401
0.9490259
0.7820834
0.8014405
0.8219952
0.8438866
0.8672814
0.8923005
0.9190375
0.9467562
0.7618859
0.7800995
0.7993872
0.819863
0.8416634
0.8648846
0.8896423
0.9160444
0.9429232
0.7422126
0.7593593
0.7774712
0.7966433
0.816987
0.8385754
0.8615073
0.885951
0.911866
0.9374856
0.7237224
0.7399081
0.7569689
0.7749845
0.7940483
0.8142155
0.8355649
0.8582577
0.8823995
0.9078405
0.933278
0.7066474
0.7219795
0.7381124
0.7551145
0.7730649
0.7920064
0.8120015
0.8331917
0.8556972
0.8796022
0.9055764
0.9297162
0.6909565
0.7055309
0.7208441
0.7369559
0.7539347
0.7718135
0.7906432
0.810547
0.8316329
0.8540156
0.8785811
0.9040172
0.9273234
0.6765403
0.6904398
0.7050254
0.7203506
0.7364755
0.7534259
0.771243
0.7900362
0.8098991
0.8309383
0.8540121
0.8782442
0.9034181
0.926222
0.9406472
0.9175989
0.9448599
0.8931143
0.9197629
0.947645
0.8692876
0.89426
0.9211282
0.9494032
0.8464203
0.8698052
0.8948972
0.9219214
0.9504469
0.8245401
0.8464842
0.8699419
0.8951194
0.9222499
0.9508283
0.8035745
0.8242098
0.8461934
0.8696963
0.8949261
0.9220329
0.9504903
0.7833901
0.8028278
0.8234726
0.8454667
0.8689815
0.8941504
0.9211131
0.949348
0.7638082
0.7821355
0.8015499
0.8221685
0.8441327
0.8675463
0.8925447
0.9193129
0.9470809
0.744649
0.7619346
0.7802016
0.7995482
0.8200902
0.8419059
0.8651053
0.889886
0.9163184
0.943244
0.72595
0.7422572
0.7594523
0.7776174
0.7968488
0.8172049
0.8387705
0.8617184
0.8861818
0.9121223
0.9388978
0.7083428
0.7237638
0.7399941
0.7571036
0.7751732
0.7942475
0.8143921
0.8357536
0.8584607
0.8826201
0.9090174
0.9342456
0.6920561
0.7066862
0.72206
0.7382382
0.7552902
0.7732498
0.7921693
0.8121743
0.8333761
0.8558951
0.8806415
0.9063698
0.9303985
0.6770677
0.6909931
0.7056068
0.7209625
0.7371208
0.7541079
0.7719655
0.7908036
0.8107172
0.8318142
0.854959
0.879282
0.904601
0.9277585
0.6632794
0.676575
0.6905117
0.7051375
0.7205064
0.7366387
0.7535687
0.7713934
0.7901949
0.8100673
0.8318081
0.8546501
0.8787672
0.9038035
0.9264355
0.9350586
0.9143498
0.9407472
0.8912618
0.9176862
0.945059
0.8683048
0.8931917
0.9199335
0.947939
0.8460037
0.8693575
0.8944111
0.9213787
0.9497892
0.8245401
0.8464842
0.8699419
0.8951194
0.9222499
0.9508283
0.8039403
0.8245992
0.8466096
0.8701433
0.8954113
0.9225747
0.9511477
0.7841457
0.8036296
0.8243261
0.8463788
0.8699618
0.8952155
0.9223049
0.9508116
0.7650423
0.783442
0.8029366
0.8236452
0.8457118
0.8692454
0.8943936
0.9213874
0.9496723
0.7464687
0.7638572
0.7822379
0.8017116
0.8223968
0.8443765
0.8677685
0.8927905
0.9195901
0.9474085
0.7282611
0.744695
0.7620306
0.7803525
0.7997604
0.8203154
0.8421093
0.8653274
0.8901313
0.9165941
0.9448071
0.7104597
0.7259922
0.742345
0.7595899
0.7778101
0.7970524
0.8173862
0.8389653
0.8619292
0.8864122
0.9133613
0.9400869
0.6936699
0.7083819
0.7238452
0.7401213
0.7572813
0.7753602
0.7944126
0.8145676
0.8359412
0.8586626
0.8836831
0.9098678
0.9350372
0.678116
0.6920929
0.7067625
0.7221791
0.7384042
0.7554644
0.7734028
0.792331
0.8123459
0.833559
0.8568478
0.8813591
0.9069777
0.9308649
0.6637829
0.6771026
0.6910652
0.7057192
0.7211188
0.7372845
0.7542511
0.7721162
0.7909629
0.810886
0.8326873
0.8556017
0.879811
0.9049925
0.9279771
0.650582
0.6633125
0.6766435
0.6906183
0.7052854
0.720661
0.7367737
0.7537104
0.7715425
0.7903524
0.8108777
0.8323984
0.8551297
0.8791166
0.9039964
0.9296466
0.9099887
0.9351532
0.8883699
0.9144361
0.9409423
0.8666023
0.8913394
0.9178568
0.9453517
0.84509
0.8683749
0.8933433
0.9201845
0.9483248
0.8241506
0.8460678
0.8694944
0.8946336
0.9217076
0.9501707
0.8039403
0.8245992
0.8466096
0.8701433
0.8954113
0.9225747
0.9511477
0.7844904
0.8039953
0.8247153
0.8467945
0.8704082
0.8957002
0.9228462
0.9514685
0.765756
0.7841973
0.803738
0.8244979
0.8466229
0.8702246
0.8954576
0.9225779
0.9511346
0.7476369
0.765091
0.7835439
0.8030975
0.8238724
0.8459546
0.8694664
0.894638
0.921663
0.9499988
0.7299871
0.7465148
0.7639535
0.7823894
0.8019246
0.8226231
0.8445811
0.8679921
0.8930379
0.919869
0.9490039
0.7126559
0.7283046
0.7447855
0.7621725
0.7805514
0.7999706
0.8205043
0.842314
0.8655509
0.890378
0.9179368
0.9464471
0.695685
0.7104997
0.7260752
0.7424749
0.7597714
0.7780012
0.7972219
0.8175673
0.8391598
0.8621397
0.8875271
0.914371
0.9412274
0.6796544
0.6937071
0.7084591
0.7239656
0.7402891
0.7574575
0.7755152
0.7945767
0.8147421
0.8361276
0.8596358
0.8844496
0.910554
0.9356147
0.6647835
0.678151
0.6921654
0.7068755
0.7223363
0.7385688
0.7556086
0.7735546
0.7924915
0.8125162
0.8344403
0.8575052
0.8819086
0.9073913
0.9311025
0.6510632
0.6638161
0.6771712
0.691172
0.7058674
0.7212738
0.7374198
0.7543932
0.7722658
0.7911209
0.8116992
0.8332818
0.8560866
0.8801656
0.905189
0.6384134
0.6506136
0.6633778
0.6767449
0.6907589
0.7054321
0.7207889
0.7369076
0.7538509
0.7716904
0.791111
0.8114274
0.8328422
0.8554502
0.8792915
0.9253088
0.9057809
0.9297373
0.8844949
0.9100716
0.9353377
0.8639467
0.8884469
0.9146048
0.941229
0.8435083
0.8666727
0.8914913
0.9181079
0.9457356
0.8232963
0.8451544
0.8685123
0.8935665
0.9205141
0.948706
0.8035745
0.8242098
0.8461934
0.8696963
0.8949261
0.9220329
0.9504903
0.7844904
0.8039953
0.8247153
0.8467945
0.8704082
0.8957002
0.9228462
0.9514685
0.7660816
0.7845418
0.8041034
0.8248866
0.847038
0.8706705
0.8959417
0.9231185
0.9517908
0.7483125
0.7658044
0.7842987
0.803898
0.824724
0.8468645
0.8704444
0.8957005
0.9228518
0.9514592
0.7310953
0.7476828
0.7651868
0.7836945
0.8033094
0.8240975
0.8461579
0.8696885
0.8948835
0.92194
0.9515858
0.714296
0.7300307
0.7466056
0.7640959
0.7825891
0.8021357
0.8228129
0.844787
0.8682172
0.8932868
0.9212278
0.950656
0.6977752
0.712697
0.7283901
0.7449194
0.7623597
0.7807486
0.800147
0.8206944
0.8425201
0.8657759
0.8915812
0.9192757
0.9484689
0.6815751
0.6957229
0.7105784
0.7261981
0.7426462
0.7599513
0.7781602
0.7973911
0.8177481
0.839354
0.8631586
0.8884324
0.9153117
0.9422332
0.6662518
0.6796897
0.6937804
0.7085733
0.7241244
0.7404556
0.7576035
0.7756693
0.7947399
0.8149155
0.8370272
0.860337
0.8850672
0.911048
0.9359269
0.6520194
0.6648168
0.67822
0.6922728
0.7070246
0.7224922
0.738705
0.7557517
0.7737054
0.7926508
0.8133367
0.8350481
0.8580085
0.8822823
0.9076014
0.6388737
0.6510949
0.6638815
0.6772728
0.691313
0.7060146
0.721402
0.7375541
0.7545342
0.7724143
0.7918821
0.8122527
0.8337303
0.8564116
0.8803436
0.6267417
0.6384435
0.6506759
0.6634744
0.6768787
0.6908984
0.7055535
0.7209157
0.7370404
0.7539904
0.7724034
0.7916255
0.8118407
0.8331387
0.8556106
0.9223559
0.9024104
0.925397
0.8807622
0.9058614
0.929914
0.8603897
0.8845692
0.9102336
0.9356087
0.8410423
0.8640166
0.8885975
0.914853
0.9416053
0.821818
0.8435729
0.8668105
0.8917151
0.9184377
0.9461152
0.8027724
0.8233558
0.8452805
0.868715
0.89386
0.9208401
0.9490259
0.7841457
0.8036296
0.8243261
0.8463788
0.8699618
0.8952155
0.9223049
0.9508116
0.7660816
0.7845418
0.8041034
0.8248866
0.847038
0.8706705
0.8959417
0.9231185
0.9517908
0.7486208
0.7661299
0.784643
0.8042631
0.8251122
0.8472791
0.8708897
0.8961838
0.9233916
0.9521145
0.7317362
0.7483582
0.7658997
0.7844486
0.8041089
0.8249481
0.8470667
0.8706651
0.8959442
0.9231267
0.9530353
0.7153491
0.7311386
0.7477731
0.7653284
0.7838931
0.8035194
0.8242861
0.8463622
0.8699117
0.8951302
0.9232865
0.9531559
0.6993362
0.7143373
0.7301165
0.7467399
0.7642837
0.782787
0.8023129
0.8230039
0.8449943
0.8684438
0.8945008
0.9225688
0.9526184
0.6835674
0.6978143
0.7127781
0.7285168
0.7450961
0.7625454
0.7809141
0.8003246
0.8208858
0.8427274
0.8668736
0.892776
0.920867
0.9510241
0.6680849
0.6816111
0.6957976
0.7106949
0.7263603
0.7428161
0.760101
0.778319
0.79756
0.8179286
0.8402948
0.8639855
0.8892738
0.9161199
0.9429219
0.6534225
0.6662855
0.6797594
0.6938889
0.708724
0.724282
0.7405935
0.7577486
0.7758225
0.7949021
0.8157526
0.8376749
0.8609019
0.8855113
0.9113123
0.6397883
0.6520512
0.6648826
0.6783222
0.6924145
0.7071726
0.7226212
0.7388402
0.7558937
0.773855
0.7934186
0.8139024
0.8355134
0.8583507
0.882472
0.6271825
0.6389039
0.6511573
0.6639784
0.677407
0.6914528
0.7061362
0.7215292
0.7376874
0.7546741
0.7731296
0.7924
0.8126704
0.834031
0.8565748
0.6155384
0.6267705
0.638503
0.6507681
0.6636021
0.6770116
0.6910138
0.7056739
0.7210416
0.7371722
0.7546625
0.7728868
0.7920123
0.8121168
0.8332871
0.9208743
0.9001146
0.9224427
0.8777761
0.9024894
0.9255691
0.8569637
0.8808345
0.9060186
0.9301737
0.8377401
0.8604573
0.8847145
0.910472
0.9359643
0.8195142
0.8411066
0.8641536
0.8888195
0.9151792
0.9419772
0.8013849
0.8218778
0.8436996
0.8670139
0.8920093
0.9187639
0.9464343
0.7833901
0.8028278
0.8234726
0.8454667
0.8689815
0.8941504
0.9211131
0.949348
0.765756
0.7841973
0.803738
0.8244979
0.8466229
0.8702246
0.8954576
0.9225779
0.9511346
0.7486208
0.7661299
0.784643
0.8042631
0.8251122
0.8472791
0.8708897
0.8961838
0.9233916
0.9521145
0.7320287
0.7486664
0.766225
0.7847925
0.8044734
0.8253357
0.8474807
0.8711096
0.8964267
0.9236654
0.953685
0.7159582
0.7317794
0.748448
0.7660407
0.7846462
0.8043179
0.8251355
0.8472696
0.8708865
0.8961888
0.9244614
0.9545445
0.7003385
0.7153902
0.731224
0.7479067
0.7655152
0.78409
0.8036954
0.8244756
0.8465676
0.870136
0.896331
0.924561
0.9549426
0.6850552
0.6993754
0.7144186
0.7302436
0.7469172
0.76447
0.7829531
0.8024913
0.8231963
0.8452029
0.8695496
0.8956957
0.9241084
0.9549094
0.6699863
0.6836045
0.6978913
0.7128982
0.728684
0.7452713
0.7627011
0.7810806
0.8005033
0.8210784
0.84374
0.867964
0.8941927
0.9228245
0.9544002
0.655174
0.6681193
0.6816822
0.6959083
0.7108487
0.7265211
0.7429575
0.7602506
0.7784776
0.7977287
0.8188034
0.8410583
0.8647542
0.8899951
0.9166612
0.6411305
0.6534546
0.6663519
0.6798627
0.6940321
0.7088735
0.7244126
0.7407306
0.7578929
0.7759748
0.795685
0.8163551
0.838197
0.8613082
0.8857487
0.6280583
0.6398187
0.6521139
0.66498
0.6784571
0.6925552
0.707295
0.7227492
0.7389744
0.7560347
0.7745763
0.7939477
0.8143354
0.8358298
0.8585245
0.6159609
0.6272114
0.6389635
0.6512497
0.6641063
0.6775402
0.6915685
0.706257
0.7216554
0.7378196
0.7553484
0.7736161
0.7927908
0.8129503
0.8341819
0.604777
0.615566
0.6268274
0.6385911
0.65089
0.6637288
0.6771215
0.6911283
0.7057934
0.7211665
0.7378076
0.7551181
0.7732501
0.7922706
0.812255
0.8989617
0.9209604
0.8757441
0.9001927
0.922612
0.8542229
0.8778473
0.9026437
0.925822
0.8345589
0.8570296
0.8809761
0.9062499
0.9305144
0.8164292
0.8378023
0.8605897
0.8849285
0.910785
0.9363156
0.7992229
0.8195737
0.8412326
0.8643556
0.8891113
0.9155017
0.9422899
0.7820834
0.8014405
0.8219952
0.8438866
0.8672814
0.8923005
0.9190375
0.9467562
0.7650423
0.783442
0.8029366
0.8236452
0.8457118
0.8692454
0.8943936
0.9213874
0.9496723
0.7483125
0.7658044
0.7842987
0.803898
0.824724
0.8468645
0.8704444
0.8957005
0.9228518
0.9514592
0.7320287
0.7486664
0.766225
0.7847925
0.8044734
0.8253357
0.8474807
0.8711096
0.8964267
0.9236654
0.953685
0.7162362
0.7320717
0.748756
0.7663655
0.7849896
0.8046819
0.8255226
0.8476828
0.8713302
0.8966703
0.9249944
0.955166
0.7009183
0.7159991
0.7318643
0.7485809
0.7662265
0.7848421
0.8044928
0.8253236
0.8474732
0.8711087
0.897378
0.9256875
0.9562168
0.6860104
0.7003775
0.715471
0.7313503
0.7480829
0.7657004
0.7842549
0.8038722
0.8246661
0.8467739
0.8712285
0.8974658
0.9259638
0.9569353
0.6714061
0.6850924
0.6994526
0.7145391
0.7304112
0.747093
0.7646263
0.7831204
0.8026708
0.82339
0.8462218
0.8706388
0.8970661
0.9258603
0.957535
0.6569907
0.6700217
0.6836777
0.6980053
0.7130567
0.7288498
0.7454184
0.7628579
0.7812483
0.8006832
0.8220193
0.8447465
0.8692579
0.8959323
0.9253658
0.9599859
0.6428059
0.6552068
0.668187
0.6817875
0.6960544
0.7110012
0.726655
0.7430987
0.7603999
0.7786359
0.7985466
0.8195134
0.8417683
0.8654133
0.8904774
0.6293435
0.6411612
0.6535179
0.6664503
0.679999
0.6941742
0.7089974
0.7245424
0.7408669
0.7580364
0.77671
0.7962485
0.8168409
0.8385723
0.8615254
0.6168002
0.6280874
0.6398786
0.6522069
0.6651086
0.678591
0.6926715
0.7074165
0.7228763
0.7391076
0.7567145
0.7750733
0.7943528
0.8146299
0.8359904
0.6051823
0.6159885
0.6272684
0.6390519
0.6513719
0.6642333
0.6776504
0.6916833
0.7063768
0.7217806
0.7384569
0.7558069
0.7739832
0.7930527
0.8130908
0.5944334
0.6048034
0.6156204
0.6269117
0.6387076
0.651011
0.6638336
0.6772305
0.6912419
0.7059119
0.7217684
0.7382382
0.7554606
0.7734928
0.7924
0.8747239
0.8990394
0.9211285
0.8523576
0.8758147
0.9003453
0.9228609
0.8320135
0.8542879
0.8779867
0.9028708
0.9261537
0.813457
0.8346197
0.8571589
0.8811846
0.9065537
0.9308511
0.7963281
0.8164868
0.8379242
0.8607849
0.8852099
0.9110946
0.9366083
0.7800476
0.7992783
0.8196905
0.8414186
0.8646214
0.8894001
0.9157722
0.9426052
0.7638082
0.7821355
0.8015499
0.8221685
0.8441327
0.8675463
0.8925447
0.9193129
0.9470809
0.7476369
0.765091
0.7835439
0.8030975
0.8238724
0.8459546
0.8694664
0.894638
0.921663
0.9499988
0.7317362
0.7483582
0.7658997
0.7844486
0.8041089
0.8249481
0.8470667
0.8706651
0.8959442
0.9231267
0.9530353
0.7162362
0.7320717
0.748756
0.7663655
0.7849896
0.8046819
0.8255226
0.8476828
0.8713302
0.8966703
0.9249944
0.955166
0.7011829
0.7162769
0.7321564
0.7488885
0.7665509
0.785185
0.8048562
0.82571
0.8478856
0.8715513
0.8978536
0.926198
0.9567874
0.686563
0.700957
0.7160795
0.7319899
0.7487562
0.7664108
0.785006
0.8046683
0.8255125
0.8476776
0.8721899
0.898469
0.9270018
0.9580412
0.6723177
0.6860474
0.7004542
0.7155907
0.731517
0.7482577
0.7658556
0.7844207
0.80405
0.8248575
0.8477799
0.8722619
0.8987144
0.9274866
0.9591125
0.6583472
0.6714416
0.6851658
0.699567
0.714698
0.7305776
0.7472405
0.7647837
0.7832888
0.8028516
0.8243361
0.8472265
0.8718894
0.8986243
0.9278284
0.9609876
0.6445435
0.6570244
0.6700914
0.6837862
0.6981559
0.7132141
0.728989
0.7455664
0.7630158
0.7814171
0.8015625
0.8229554
0.8459421
0.8708474
0.8981878
0.9295524
0.9630482
0.6309476
0.6428372
0.6552714
0.6682874
0.6819266
0.6961994
0.7111282
0.7267886
0.7432397
0.760549
0.7794037
0.7992103
0.8201739
0.8423774
0.8658542
0.6180318
0.6293728
0.6412217
0.6536118
0.6665803
0.6801343
0.694292
0.7091206
0.7246715
0.7410024
0.7587292
0.7772392
0.7967028
0.8171902
0.8387732
0.6059874
0.616828
0.6281447
0.6399675
0.6523296
0.6652363
0.6787018
0.6927871
0.7075371
0.7230025
0.7397501
0.7571829
0.7754538
0.7946284
0.8147795
0.5948225
0.6052087
0.6160431
0.6273529
0.6391686
0.6514931
0.6643384
0.6777597
0.6917972
0.7064956
0.7223844
0.7388903
0.7561529
0.7742293
0.7931842
0.5844858
0.5944588
0.6048556
0.6157012
0.6270232
0.6388233
0.651111
0.6639375
0.6773387
0.6913546
0.7064833
0.7221763
0.7385618
0.7556894
0.7736144
0.8514208
0.8747942
0.8991912
0.9213755
0.8302809
0.8524221
0.8759528
0.9005699
0.9231875
0.8110783
0.8320735
0.8544153
0.8781919
0.903169
0.9264816
0.7935387
0.8135134
0.8347389
0.8573494
0.8814586
0.906854
0.9311301
0.7773219
0.7963818
0.8166
0.8381041
0.8610417
0.8854882
0.9113521
0.9369009
0.7618859
0.7800995
0.7993872
0.819863
0.8416634
0.8648846
0.8896423
0.9160444
0.9429232
0.7464687
0.7638572
0.7822379
0.8017116
0.8223968
0.8443765
0.8677685
0.8927905
0.9195901
0.9474085
0.7310953
0.7476828
0.7651868
0.7836945
0.8033094
0.8240975
0.8461579
0.8696885
0.8948835
0.92194
0.9515858
0.7159582
0.7317794
0.748448
0.7660407
0.7846462
0.8043179
0.8251355
0.8472696
0.8708865
0.8961888
0.9244614
0.9545445
0.7011829
0.7162769
0.7321564
0.7488885
0.7665509
0.785185
0.8048562
0.82571
0.8478856
0.8715513
0.8978536
0.926198
0.9567874
0.6868152
0.7012215
0.7163572
0.7322818
0.7490634
0.7667347
0.7853483
0.8050311
0.825898
0.848089
0.872627
0.8989246
0.9274733
0.9585403
0.6728451
0.6865998
0.7010334
0.7161986
0.7321558
0.7489301
0.7665649
0.7851705
0.8048445
0.825702
0.8486726
0.8731828
0.899639
0.9283961
0.9600015
0.6592182
0.672353
0.6861204
0.7005679
0.7157488
0.7316824
0.7484041
0.7660116
0.7845873
0.8042286
0.8257911
0.8487322
0.8734004
0.9000698
0.9291126
0.9618716
0.645841
0.658381
0.6715115
0.6852746
0.699718
0.7148558
0.7307172
0.7473891
0.7649422
0.7834583
0.8037353
0.8252698
0.8483812
0.8733126
0.9003744
0.9303796
0.9634724
0.6326113
0.6445757
0.6570909
0.6701948
0.6839295
0.6983054
0.7133461
0.7291291
0.7457155
0.7631747
0.7822423
0.8024377
0.8240681
0.8474117
0.8729088
0.9019076
0.9320018
0.9653181
0.6195692
0.6309775
0.6428989
0.6553671
0.6684199
0.6820646
0.6963201
0.7112551
0.7269221
0.7433806
0.7612722
0.7800269
0.7998281
0.8207408
0.8427849
0.6071687
0.6180599
0.6294306
0.6413114
0.6537358
0.6667093
0.6802464
0.6944091
0.7092431
0.7247998
0.741657
0.7592277
0.7776658
0.7970295
0.8173771
0.5955953
0.606014
0.6168829
0.6282296
0.6400848
0.6524515
0.665342
0.6788118
0.6929018
0.7076569
0.7236111
0.7401926
0.7575414
0.7757126
0.7947682
0.5848595
0.5948479
0.605261
0.616124
0.6274646
0.6392845
0.6515934
0.6644426
0.6778682
0.6919103
0.7070688
0.7227949
0.7392172
0.7563848
0.7743528
0.5749131
0.5845101
0.5945088
0.604933
0.6158079
0.6271338
0.6389189
0.6512103
0.6640407
0.677446
0.6918979
0.7068705
0.7224829
0.738778
0.7558039
0.8294104
0.8514851
0.8749317
0.8994147
0.9216997
0.8094588
0.8303404
0.8525485
0.8761562
0.9008649
0.9235102
0.7913061
0.811134
0.8321911
0.8546032
0.8784617
0.9034639
0.9267528
0.7746952
0.7935914
0.813624
0.8349147
0.8575999
0.8817296
0.9071028
0.9314076
0.7593119
0.7773722
0.7964874
0.816767
0.8383409
0.8612958
0.8857198
0.9116093
0.9371933
0.744649
0.7619346
0.7802016
0.7995482
0.8200902
0.8419059
0.8651053
0.889886
0.9163184
0.943244
0.7299871
0.7465148
0.7639535
0.7823894
0.8019246
0.8226231
0.8445811
0.8679921
0.8930379
0.919869
0.9490039
0.7153491
0.7311386
0.7477731
0.7653284
0.7838931
0.8035194
0.8242861
0.8463622
0.8699117
0.8951302
0.9232865
0.9531559
0.7009183
0.7159991
0.7318643
0.7485809
0.7662265
0.7848421
0.8044928
0.8253236
0.8474732
0.8711087
0.897378
0.9256875
0.9562168
0.6868152
0.7012215
0.7163572
0.7322818
0.7490634
0.7667347
0.7853483
0.8050311
0.825898
0.848089
0.872627
0.8989246
0.9274733
0.9585403
0.6730857
0.6868519
0.7012977
0.716476
0.7324471
0.7492368
0.7668883
0.7855122
0.8052065
0.8260866
0.8490787
0.8736013
0.9000598
0.9288132
0.9604126
0.659722
0.6728801
0.6866724
0.7011465
0.7163558
0.7323203
0.7490756
0.7667197
0.7853356
0.8050213
0.8266252
0.8495873
0.8742491
0.9008808
0.9298576
0.9624676
0.6466741
0.6592518
0.6724225
0.6862286
0.700718
0.7159056
0.7318209
0.7485513
0.7661684
0.7847548
0.8051002
0.8266757
0.8497828
0.8746377
0.9015177
0.9311338
0.9639672
0.6338534
0.6458733
0.6584477
0.6716151
0.6854183
0.6998679
0.7149882
0.7308578
0.7475387
0.7651018
0.7842873
0.8046079
0.826344
0.8496964
0.8749119
0.9026453
0.9323895
0.9655267
0.6211634
0.632642
0.6446393
0.6571896
0.6703313
0.6840718
0.6984309
0.713479
0.7292702
0.7458655
0.7639517
0.783064
0.8034788
0.8254366
0.8493184
0.8763124
0.9040851
0.9339468
0.9670673
0.6086431
0.6195978
0.6310365
0.6429903
0.6554936
0.6685514
0.6821795
0.6964406
0.7113817
0.7270555
0.7440637
0.7618592
0.7806071
0.8003585
0.8211203
0.5967292
0.6071955
0.6181153
0.6295164
0.6414299
0.653859
0.6668162
0.6803579
0.6945255
0.7093649
0.7254198
0.7421279
0.7596296
0.7779726
0.7972044
0.5856018
0.5956208
0.6060665
0.6169642
0.6283419
0.6402013
0.6525524
0.6654468
0.678921
0.6930156
0.7082345
0.7240302
0.7405314
0.7577852
0.775844
0.5752723
0.5848838
0.594898
0.6053386
0.616231
0.6275755
0.6393804
0.651693
0.6645461
0.6779758
0.6924552
0.7074584
0.7231046
0.7394364
0.7565012
0.5656959
0.5749364
0.5845581
0.594583
0.6050353
0.6159139
0.6272254
0.6390138
0.6513088
0.664143
0.6779635
0.6922661
0.7071615
0.7226877
0.7388863
0.8086448
0.8294697
0.851611
0.8751342
0.8997082
0.9220201
0.7897857
0.8095141
0.8304571
0.8527348
0.8764235
0.9011566
0.9237772
0.7725924
0.7913581
0.8112433
0.8323646
0.8548502
0.8787286
0.9037078
0.9270221
0.7568313
0.7747445
0.7936947
0.8137874
0.835146
0.8578479
0.8819542
0.9073502
0.9316836
0.7422126
0.7593593
0.7774712
0.7966433
0.816987
0.8385754
0.8615073
0.885951
0.911866
0.9374856
0.7282611
0.744695
0.7620306
0.7803525
0.7997604
0.8203154
0.8421093
0.8653274
0.8901313
0.9165941
0.9448071
0.714296
0.7300307
0.7466056
0.7640959
0.7825891
0.8021357
0.8228129
0.844787
0.8682172
0.8932868
0.9212278
0.950656
0.7003385
0.7153902
0.731224
0.7479067
0.7655152
0.78409
0.8036954
0.8244756
0.8465676
0.870136
0.896331
0.924561
0.9549426
0.686563
0.700957
0.7160795
0.7319899
0.7487562
0.7664108
0.785006
0.8046683
0.8255125
0.8476776
0.8721899
0.898469
0.9270018
0.9580412
0.6730857
0.6868519
0.7012977
0.716476
0.7324471
0.7492368
0.7668883
0.7855122
0.8052065
0.8260866
0.8490787
0.8736013
0.9000598
0.9288132
0.9604126
0.659952
0.6731207
0.6869243
0.7014104
0.7166327
0.7326112
0.7493818
0.7670425
0.7856766
0.8053824
0.8270048
0.849976
0.8746356
0.9012535
0.9302084
0.962763
0.6471559
0.6597555
0.6729493
0.68678
0.7012958
0.7165118
0.7324579
0.7492217
0.7668751
0.7855014
0.805883
0.8274744
0.8505707
0.8753822
0.9021835
0.9316569
0.9643507
0.634651
0.6467061
0.6593181
0.6725255
0.6863714
0.700867
0.716037
0.7319602
0.7486993
0.766326
0.7855722
0.8059265
0.8276524
0.8509256
0.8759605
0.90332
0.9328496
0.9658079
0.6223537
0.6338843
0.645937
0.6585466
0.671752
0.6855609
0.6999937
0.7151216
0.7309994
0.7476894
0.7658821
0.7851063
0.8056126
0.8275683
0.8511753
0.8769893
0.9044369
0.9341726
0.9671871
0.6101721
0.6211928
0.6327028
0.6447335
0.6573199
0.670467
0.6841912
0.6985572
0.7136128
0.7294123
0.7465994
0.7647259
0.7840421
0.8047598
0.8272129
0.8524692
0.8783022
0.9058197
0.9355352
0.9684279
0.5981444
0.6086705
0.6196542
0.631124
0.6431112
0.6556192
0.668661
0.6822942
0.696561
0.7115082
0.7277023
0.7446183
0.7624059
0.7811053
0.8007137
0.586691
0.596755
0.6072486
0.6181974
0.6296298
0.6415476
0.653961
0.6669224
0.6804688
0.6946413
0.7099531
0.7258658
0.7425077
0.7599188
0.7781369
0.5759858
0.5856263
0.5956712
0.6061445
0.6170717
0.6284534
0.6402977
0.6526526
0.665551
0.6790294
0.6935648
0.7086322
0.7243511
0.7407618
0.7579091
0.5660414
0.5752957
0.5849319
0.5949724
0.6054411
0.6163372
0.6276673
0.6394755
0.6517917
0.6646487
0.6784948
0.6928257
0.7077523
0.7233122
0.7395464
0.556816
0.5657183
0.5749825
0.5846293
0.5946811
0.6051369
0.6160015
0.6273162
0.639108
0.6514065
0.6646366
0.6783141
0.6925428
0.7073559
0.7227902
0.7890214
0.8086999
0.829586
0.8517966
0.8754004
0.8999984
0.9222851
0.7711603
0.7898373
0.8096226
0.8306293
0.8529799
0.876688
0.9013979
0.9240421
0.7548453
0.7726411
0.7914601
0.8114046
0.8325929
0.8550947
0.8789494
0.90395
0.9272895
0.7398643
0.7568777
0.7748414
0.7938473
0.8140024
0.8353751
0.8580534
0.8821775
0.9075961
0.931958
0.72595
0.7422572
0.7594523
0.7776174
0.7968488
0.8172049
0.8387705
0.8617184
0.8861818
0.9121223
0.9388978
0.7126559
0.7283046
0.7447855
0.7621725
0.7805514
0.7999706
0.8205043
0.842314
0.8655509
0.890378
0.9179368
0.9464471
0.6993362
0.7143373
0.7301165
0.7467399
0.7642837
0.782787
0.8023129
0.8230039
0.8449943
0.8684438
0.8945008
0.9225688
0.9526184
0.6860104
0.7003775
0.715471
0.7313503
0.7480829
0.7657004
0.7842549
0.8038722
0.8246661
0.8467739
0.8712285
0.8974658
0.9259638
0.9569353
0.6728451
0.6865998
0.7010334
0.7161986
0.7321558
0.7489301
0.7665649
0.7851705
0.8048445
0.825702
0.8486726
0.8731828
0.899639
0.9283961
0.9600015
0.659952
0.6731207
0.6869243
0.7014104
0.7166327
0.7326112
0.7493818
0.7670425
0.7856766
0.8053824
0.8270048
0.849976
0.8746356
0.9012535
0.9302084
0.962763
0.6473759
0.6599853
0.6731897
0.6870316
0.7015593
0.7167883
0.7327484
0.7495273
0.7671972
0.7858415
0.8062393
0.8278378
0.8509298
0.8757247
0.9024977
0.9319209
0.9645536
0.6351123
0.6471879
0.6598214
0.6730518
0.6869221
0.701444
0.7166423
0.7325961
0.7493683
0.767031
0.7863093
0.8066761
0.8283885
0.8516169
0.8765723
0.90379
0.9332132
0.9660471
0.6231179
0.6346816
0.6467694
0.6594164
0.6726616
0.6865132
0.7009918
0.7161691
0.7321002
0.7488481
0.7670953
0.7863476
0.8068397
0.8287157
0.8521483
0.8776092
0.9048548
0.9344732
0.9673577
0.6113136
0.6223832
0.6339452
0.6460314
0.6586772
0.671888
0.6856807
0.7001204
0.7152558
0.731142
0.7484262
0.7666536
0.7860499
0.8067583
0.8289457
0.8530976
0.8786279
0.9060309
0.9356953
0.9685079
0.5996119
0.6102002
0.6212509
0.6327929
0.644858
0.6574493
0.6705808
0.6843114
0.6986843
0.7137475
0.730107
0.7473308
0.7656478
0.785246
0.8064231
0.83015
0.8543097
0.8798876
0.9072399
0.9368258
0.9694747
0.5880503
0.5981707
0.6087246
0.6197379
0.6312395
0.6432312
0.6557237
0.6687703
0.6824088
0.6966812
0.712122
0.7282275
0.7451348
0.7628755
0.781439
0.5770326
0.5867157
0.5968058
0.6073273
0.618306
0.6297424
0.6416451
0.6540625
0.6670281
0.680579
0.6952005
0.7103764
0.7262254
0.7427809
0.7600736
0.5667276