/*--------------------------------*- C++ -*----------------------------------*\
| =========                 |                                                 |
| \\      /  F ield         | OpenFOAM: The Open Source CFD Toolbox           |
|  \\    /   O peration     | Version:  2306                                  |
|   \\  /    A nd           | Website:  www.openfoam.com                      |
|    \\/     M anipulation  |                                                 |
\*---------------------------------------------------------------------------*/
FoamFile
{
    version     2.0;
    format      ascii;
    arch        "LSB;label=32;scalar=64";
    class       volScalarField;
    location    "0.3/fuel";
    object      X.H2O;
}
// * * * * * * * * * * * * * * * * * * * * * * * * * * * * * * * * * * * * * //

dimensions      [0 0 0 0 0 0 0];

internalField   nonuniform List<scalar> 
16000
(
0.07912571
0.0776441
0.1010383
0.07903958
0.07469116
0.09988543
0.07755731
0.1252761
0.1009606
0.07887152
0.07035337
0.09758964
0.07460295
0.1242559
0.09980731
0.07738798
0.1485792
0.1252058
0.1008088
0.0786245
0.06494137
0.09421907
0.07026273
0.1222239
0.09751065
0.07443088
0.1476424
0.1241853
0.09965467
0.07713911
0.1705896
0.1485149
0.1250683
0.1005853
0.07830031
0.05935278
0.09001131
0.06484677
0.1192378
0.09413859
0.07008598
0.1457771
0.1221527
0.09735631
0.07417805
0.1697191
0.1475779
0.1240472
0.09943006
0.07681254
0.1913552
0.1705303
0.148389
0.1248658
0.1002918
0.07797989
0.0552423
0.0856502
0.05925276
0.1155051
0.08992838
0.0646623
0.1430363
0.1191655
0.09398136
0.0698263
0.1679865
0.1457121
0.1220133
0.09712923
0.0738463
0.1905412
0.1696596
0.1474515
0.1238438
0.09913507
0.07648976
0.2109786
0.1913001
0.170414
0.1482034
0.1245996
0.1000016
0.0777149
0.05265797
0.08240112
0.05514015
0.1116301
0.08556389
0.05905767
0.1396103
0.1154308
0.08976636
0.0643913
0.1654411
0.1429704
0.1190239
0.09375007
0.06948561
0.1889217
0.1679265
0.1455847
0.1218081
0.09683103
0.07351844
0.2102143
0.1904859
0.1695429
0.1472652
0.1235765
0.09884335
0.07622282
0.2295598
0.2109271
0.1911919
0.1702424
0.1479593
0.1243362
0.09976157
0.07745194
0.0511943
0.08032443
0.05255524
0.1087382
0.0823138
0.05494096
0.1360533
0.1115531
0.0853952
0.05877099
0.1622599
0.1395427
0.1152855
0.08952799
0.06403575
0.186543
0.1653803
0.1428411
0.1188154
0.09344633
0.06914894
0.2086939
0.188866
0.1678089
0.1453968
0.1215383
0.09653615
0.07324717
0.2288397
0.2101627
0.1903774
0.1693707
0.1470201
0.123312
0.09860209
0.07595791
0.2471878
0.2295115
0.210826
0.1910322
0.1700166
0.1477176
0.1241184
0.09952339
0.07719102
0.05053663
0.07912923
0.05109146
0.1068857
0.0802371
0.05235503
0.1333977
0.1086606
0.08214317
0.05464833
0.1589577
0.1359834
0.1114025
0.08514696
0.05839474
0.1835708
0.1621977
0.1394103
0.1150715
0.08921496
0.06368437
0.2064613
0.1864866
0.1652611
0.1426506
0.1185414
0.093146
0.0688699
0.2274076
0.2086419
0.1887567
0.1676354
0.1451498
0.1212714
0.09629218
0.07297785
0.2465075
0.2287913
0.2100612
0.1902172
0.1691441
0.1467776
0.1230932
0.09836268
0.07569505
0.263941
0.2471423
0.2294166
0.2106767
0.190822
0.1697929
0.1475178
0.1239022
0.09928705
0.07693213
0.05053663
0.07858588
0.05043376
0.1058172
0.07904206
0.05089105
0.1316952
0.1068083
0.08006649
0.05206098
0.1564917
0.1333273
0.1085087
0.0818921
0.05426436
0.1804858
0.1588934
0.1358464
0.1111805
0.08482084
0.05802278
0.2036719
0.1835132
0.1620758
0.1392151
0.1147901
0.08890542
0.06339167
0.2253048
0.2064086
0.186376
0.1650853
0.1424001
0.1182704
0.09289717
0.0685924
0.2451547
0.2273589
0.2085399
0.1885954
0.1674071
0.1449053
0.1210506
0.09605
0.0727105
0.2632968
0.2464619
0.2286961
0.2099114
0.1900063
0.1689196
0.1465769
0.1228762
0.09812511
0.07543423
0.2798879
0.2638982
0.247053
0.2292764
0.2104799
0.1906137
0.169608
0.1473195
0.1236878
0.09905255
0.07568881
0.0511943
0.07858588
0.05043376
0.1053307
0.07849881
0.05023333
0.1307124
0.10574
0.07887178
0.05059678
0.15491
0.1316251
0.1066567
0.0798155
0.05167523
0.178182
0.1564271
0.1331895
0.1082849
0.08156231
0.05388479
0.2007771
0.1804263
0.1587674
0.1356444
0.1108887
0.08449827
0.05771014
0.2226781
0.2036182
0.1834
0.1618959
0.1389583
0.1145118
0.08864787
0.06309911
0.2431687
0.2252555
0.2063053
0.1862126
0.164854
0.1421521
0.1180458
0.0926498
0.06831644
0.262016
0.2451089
0.2272631
0.208389
0.188383
0.167181
0.144703
0.1208314
0.09580959
0.07244511
0.2792766
0.2632538
0.2463723
0.2285555
0.2097141
0.1897973
0.168734
0.1463779
0.1226608
0.09788938
0.07418168
0.2950887
0.2798474
0.2638138
0.2469209
0.2290916
0.210285
0.1904414
0.1694245
0.1471227
0.123475
0.0979253
0.0748417
0.05265797
0.07912923
0.05109146
0.1053307
0.07849881
0.05023333
0.1302645
0.1052536
0.07832874
0.04993905
0.1539963
0.1306425
0.1055889
0.07862131
0.05021079
0.1767037
0.1548456
0.1314877
0.1064335
0.07948587
0.05129397
0.1986151
0.1781222
0.1563004
0.1329861
0.1079907
0.08123613
0.05356569
0.2199524
0.2007217
0.1803095
0.1585814
0.1353786
0.1105999
0.08422777
0.05739481
0.2406881
0.2226278
0.2035126
0.183233
0.1616591
0.1387042
0.1142802
0.08839072
0.06280669
0.2601357
0.2431223
0.2251586
0.2061527
0.1859976
0.1646249
0.1419466
0.1178225
0.09240389
0.06804204
0.2780614
0.2619727
0.2450187
0.2271216
0.2081904
0.1881726
0.1669939
0.1445021
0.1206138
0.09557097
0.07117027
0.2945077
0.279236
0.2631693
0.2462399
0.2283702
0.2095186
0.1896245
0.1685499
0.1461803
0.122447
0.09675626
0.07332461
0.3095967
0.2950503
0.2797675
0.263689
0.2467468
0.2289084
0.2101238
0.1902705
0.1692424
0.1469275
0.1224514
0.0971585
0.07420421
0.0552423
0.08032443
0.05255524
0.1058172
0.07904206
0.05089105
0.1302645
0.1052536
0.07832874
0.04993905
0.1535797
0.1301948
0.1051028
0.07807858
0.04955309
0.1758494
0.1539322
0.1305056
0.1053664
0.0782924
0.04982933
0.1972276
0.1766442
0.1547195
0.131285
0.10614
0.07915989
0.05097406
0.2179166
0.1985595
0.1780048
0.1561134
0.1327186
0.1076995
0.08096253
0.05324379
0.2381141
0.2199005
0.2006128
0.180137
0.1583366
0.1351154
0.1103577
0.08395555
0.05707677
0.2577874
0.2406407
0.2225288
0.2033567
0.183013
0.1614246
0.1384927
0.114049
0.08813398
0.06251444
0.2762776
0.2600919
0.2430311
0.2250155
0.2059517
0.1857845
0.1644351
0.1417423
0.1176005
0.09215945
0.06672202
0.2933526
0.2780205
0.2618876
0.2448855
0.2269351
0.2079936
0.1879985
0.1668083
0.1443028
0.1203978
0.09442359
0.07028383
0.3090435
0.2944691
0.2791559
0.2630441
0.2460653
0.2281865
0.2093568
0.189453
0.1683671
0.1459844
0.1214189
0.09598284
0.07267665
0.3234597
0.3095602
0.2949746
0.2796494
0.2635245
0.2465741
0.228757
0.2099638
0.1901009
0.1690617
0.1459879
0.1217558
0.09658185
0.07377799
0.05935278
0.08240112
0.05514015
0.1068857
0.0802371
0.05235503
0.1307124
0.10574
0.07887178
0.05059678
0.1535797
0.1301948
0.1051028
0.07807858
0.04955309
0.1754599
0.1535158
0.1300581
0.1048806
0.07775009
0.04917166
0.1964255
0.1757902
0.1538066
0.1303037
0.1050739
0.07796714
0.04950973
0.2166099
0.1971722
0.1765274
0.1545333
0.1310185
0.1058496
0.0788869
0.05065196
0.2361918
0.2178645
0.1984501
0.1778315
0.1558673
0.1324537
0.1074553
0.08068713
0.05291907
0.255351
0.2380654
0.2197984
0.2004518
0.1799098
0.1580941
0.1348947
0.110114
0.08368162
0.05675599
0.27405
0.2577428
0.2405477
0.2223826
0.2031512
0.1827951
0.1612295
0.1382816
0.1138182
0.08787767
0.06110215
0.2916572
0.2762362
0.2600059
0.2428964
0.2248268
0.2057525
0.1856079
0.1642464
0.1415393
0.1173799
0.09098262
0.06575441
0.3079439
0.2933138
0.27794
0.2617618
0.2447098
0.2267502
0.2078307
0.1878257
0.1666239
0.1441049
0.1193585
0.09363016
0.06960149
0.3229323
0.3090069
0.2943932
0.2790375
0.2628792
0.2458921
0.2280345
0.2091964
0.1892828
0.1681858
0.145041
0.120718
0.09539903
0.07224154
0.3367206
0.323425
0.3094883
0.2948625
0.2794936
0.2633613
0.2464313
0.2286066
0.2098051
0.1899327
0.1681919
0.1453499
0.1212328
0.09619653
0.07356447
0.06494137
0.0856502
0.05925276
0.1087382
0.0823138
0.05494096
0.1316952
0.1068083
0.08006649
0.05206098
0.1539963
0.1306425
0.1055889
0.07862131
0.05021079
0.1754599
0.1535158
0.1300581
0.1048806
0.07775009
0.04917166
0.1960597
0.1754008
0.1533904
0.1298567
0.1045887
0.07742526
0.04885231
0.2158543
0.1963704
0.1756739
0.1536212
0.1300382
0.1047845
0.07769512
0.04918844
0.2349577
0.216558
0.1970634
0.1763548
0.1542882
0.1307546
0.1056064
0.0786126
0.05032769
0.2535313
0.2361428
0.2177621
0.1982884
0.1776032
0.1556235
0.1322315
0.1072095
0.08040995
0.05259155
0.2717389
0.255305
0.2379694
0.2196475
0.2002396
0.1796846
0.1578907
0.1346726
0.1098687
0.08340593
0.0551929
0.2895403
0.2740078
0.257655
0.2404101
0.2221899
0.2029476
0.1826138
0.1610347
0.1380708
0.1135878
0.0866387
0.05991309
0.3063301
0.2916181
0.2761548
0.2598787
0.2427187
0.2246398
0.2055874
0.1854324
0.1640588
0.1413374
0.1163169
0.09013222
0.06496276
0.321884
0.3079071
0.2932375
0.2778209
0.2615958
0.2445356
0.2265972
0.207669
0.1876541
0.166441
0.1431522
0.1186409
0.0930223
0.06913513
0.3362171
0.3228974
0.3089348
0.2942808
0.2788812
0.2627155
0.2457489
0.2278838
0.2090371
0.189114
0.1673127
0.1443983
0.120189
0.09500755
0.07202288
0.349418
0.3366875
0.3233565
0.3093817
0.2947146
0.279339
0.2632263
0.2462896
0.2284575
0.2096476
0.1891223
0.1676016
0.1448703
0.1208834
0.09600357
0.07035337
0.09001131
0.06484677
0.1116301
0.08556389
0.05905767
0.1333977
0.1086606
0.08214317
0.05464833
0.15491
0.1316251
0.1066567
0.0798155
0.05167523
0.1758494
0.1539322
0.1305056
0.1053664
0.0782924
0.04982933
0.1960597
0.1754008
0.1533904
0.1298567
0.1045887
0.07742526
0.04885231
0.2155096
0.1960047
0.1752847
0.1532055
0.1295918
0.1042998
0.07715377
0.0485315
0.234244
0.2158027
0.196262
0.1755021
0.1533771
0.1297754
0.1045424
0.07742215
0.04886544
0.2523631
0.234909
0.2164561
0.1969025
0.1761276
0.1540454
0.1305336
0.105362
0.07833697
0.05000124
0.2700129
0.2534852
0.2360465
0.2176106
0.1980754
0.1773769
0.1554189
0.1320079
0.1069621
0.08013097
0.05099613
0.2873441
0.2716954
0.2552145
0.2378275
0.2194486
0.2000294
0.1794957
0.157686
0.1344491
0.109622
0.08206315
0.05355294
0.304315
0.2895003
0.2739248
0.2575251
0.2402286
0.2219988
0.2027781
0.1824327
0.1608402
0.1378603
0.1124729
0.085629
0.05877264
0.3203456
0.3062929
0.2915409
0.2760344
0.2597109
0.2425425
0.2244848
0.2054233
0.1852579
0.1638724
0.1403642
0.1155504
0.08944599
0.06438528
0.3352165
0.321849
0.3078346
0.2931245
0.2776637
0.2614312
0.2443914
0.2264454
0.2075085
0.1874838
0.1655597
0.1424948
0.1180914
0.09260867
0.0688975
0.3489368
0.3361839
0.3228288
0.308828
0.2941326
0.2787262
0.2625802
0.2456068
0.2277342
0.2088791
0.1883008
0.1667182
0.1439134
0.1198344
0.094811
0.3615866
0.3493864
0.3366222
0.3232551
0.3092411
0.2945679
0.2792111
0.2630924
0.2461491
0.2283096
0.208889
0.1885726
0.1671578
0.1445498
0.1207085
0.07469116
0.09421907
0.07026273
0.1155051
0.08992838
0.0646623
0.1360533
0.1115531
0.0853952
0.05877099
0.1564917
0.1333273
0.1085087
0.0818921
0.05426436
0.1767037
0.1548456
0.1314877
0.1064335
0.07948587
0.05129397
0.1964255
0.1757902
0.1538066
0.1303037
0.1050739
0.07796714
0.04950973
0.2155096
0.1960047
0.1752847
0.1532055
0.1295918
0.1042998
0.07715377
0.0485315
0.2339184
0.2154582
0.1958966
0.1751134
0.152962
0.1293295
0.1040583
0.07688149
0.04820922
0.2516875
0.2341956
0.2157013
0.196102
0.175276
0.1531355
0.1295556
0.1042995
0.07714821
0.04854076
0.2689047
0.2523172
0.2348132
0.2163055
0.1966906
0.1759025
0.1538421
0.1303115
0.1051165
0.07806003
0.04841424
0.285704
0.2699693
0.2533944
0.2359041
0.2174109
0.1978643
0.1771871
0.155213
0.1317828
0.1067132
0.07877224
0.04934396
0.3022248
0.287303
0.2716099
0.2550806
0.2376403
0.2192514
0.199853
0.1793056
0.1574799
0.1342241
0.1084188
0.08072431
0.05153108
0.3184249
0.3042771
0.2894216
0.2738019
0.2573538
0.2400487
0.2218398
0.2026089
0.1822519
0.160646
0.1368414
0.1115676
0.08468833
0.05776676
0.3337482
0.3203103
0.3062196
0.2914267
0.2758756
0.2595444
0.2423965
0.2243307
0.2052601
0.1850845
0.1629728
0.139663
0.1149328
0.08895199
0.06407309
0.3479806
0.3351832
0.32178
0.3077272
0.2929754
0.2775078
0.261295
0.2442483
0.2262946
0.2073492
0.1866633
0.1649519
0.1419915
0.1177177
0.0923986
0.3611263
0.3489051
0.3361185
0.3227272
0.308687
0.2939854
0.278598
0.2624459
0.2454658
0.2275857
0.2081179
0.1877473
0.1662697
0.1435884
0.1196564
0.3732583
0.3615565
0.3493241
0.3365256
0.3231213
0.3091016
0.2944465
0.2790843
0.2629596
0.2460096
0.2275966
0.2083745
0.1881593
0.1668613
0.1443894
0.0776441
0.09758964
0.07460295
0.1192378
0.09413859
0.07008598
0.1396103
0.1154308
0.08976636
0.0643913
0.1589577
0.1359834
0.1114025
0.08514696
0.05839474
0.178182
0.1564271
0.1331895
0.1082849
0.08156231
0.05388479
0.1972276
0.1766442
0.1547195
0.131285
0.10614
0.07915989
0.05097406
0.2158543
0.1963704
0.1756739
0.1536212
0.1300382
0.1047845
0.07769512
0.04918844
0.2339184
0.2154582
0.1958966
0.1751134
0.152962
0.1293295
0.1040583
0.07688149
0.04820922
0.2513792
0.2338701
0.215357
0.1957369
0.1748878
0.1527209
0.1291103
0.1038162
0.07660843
0.04788547
0.2682638
0.2516418
0.2341003
0.2155514
0.1958911
0.1750519
0.1529333
0.1293349
0.1040558
0.07687333
0.04696467
0.2846509
0.2688614
0.2522269
0.2346716
0.2161069
0.1964806
0.1757139
0.1536378
0.1300883
0.1048698
0.07671355
0.0468441
0.3006638
0.2856627
0.2698835
0.2532601
0.2357163
0.217213
0.1976871
0.1769961
0.1550057
0.1315562
0.1054992
0.07743122
0.04738157
0.3164326
0.3021857
0.2872219
0.2714832
0.2549039
0.2374546
0.2190859
0.1996754
0.1791142
0.1572726
0.1331264
0.107224
0.07913304
0.04897592
0.3319151
0.3183889
0.3042024
0.2893051
0.2736397
0.2571839
0.239899
0.221681
0.20244
0.1820714
0.1597052
0.1360145
0.1107262
0.08388008
0.05707814
0.3465775
0.3337145
0.3202406
0.3061111
0.291276
0.275718
0.2594065
0.2422514
0.2241775
0.2050979
0.1842474
0.1623251
0.1390981
0.1144887
0.08868766
0.3602117
0.3479488
0.3351174
0.3216778
0.3075855
0.2928274
0.2773788
0.2611598
0.2441063
0.226145
0.2065814
0.1860976
0.1644866
0.1416493
0.117528
0.3728175
0.3610961
0.3488427
0.3360216
0.322593
0.3085472
0.2938638
0.2784708
0.2623126
0.2453259
0.2268704
0.2076
0.1873296
0.165969
0.1434252
0.3844616
0.3732295
0.361497
0.3492319
0.3363979
0.3229884
0.3089862
0.2943261
0.2789584
0.2628278
0.2453375
0.2271132
0.2079877
0.1878832
0.1667129
0.07912571
0.09988543
0.07755731
0.1222239
0.09751065
0.07443088
0.1430363
0.1191655
0.09398136
0.0698263
0.1622599
0.1395427
0.1152855
0.08952799
0.06403575
0.1804858
0.1588934
0.1358464
0.1111805
0.08482084
0.05802278
0.1986151
0.1781222
0.1563004
0.1329861
0.1079907
0.08123613
0.05356569
0.2166099
0.1971722
0.1765274
0.1545333
0.1310185
0.1058496
0.0788869
0.05065196
0.234244
0.2158027
0.196262
0.1755021
0.1533771
0.1297754
0.1045424
0.07742215
0.04886544
0.2513792
0.2338701
0.215357
0.1957369
0.1748878
0.1527209
0.1291103
0.1038162
0.07660843
0.04788547
0.2679713
0.2513336
0.233775
0.2152075
0.1955266
0.1746643
0.1525193
0.1288904
0.1035733
0.07633458
0.04631502
0.2840418
0.2682206
0.251552
0.2339593
0.2153538
0.1956821
0.1748645
0.1527304
0.1291135
0.1038112
0.07553856
0.04545545
0.2996615
0.2846098
0.268776
0.2520933
0.2344848
0.21591
0.1963046
0.1755244
0.1534324
0.129864
0.103669
0.07543903
0.0450574
0.3149448
0.3006246
0.2855814
0.2697564
0.2530828
0.23553
0.2170469
0.1975087
0.1768037
0.1547971
0.1304504
0.1043043
0.07589157
0.04509058
0.3300137
0.3163955
0.3021087
0.2871018
0.271316
0.2547287
0.2372989
0.2189194
0.1994967
0.1789216
0.15626
0.132036
0.1058073
0.07717551
0.04559982
0.344826
0.3318807
0.3183178
0.3040917
0.2891513
0.2734789
0.2570425
0.2397494
0.2215224
0.2022713
0.1811966
0.1589417
0.1352458
0.1100049
0.08333883
0.3588695
0.3465454
0.3336481
0.3201373
0.3059679
0.2911265
0.2755874
0.2592694
0.2421071
0.2240252
0.204315
0.1836449
0.161803
0.1386918
0.1142513
0.3719417
0.3601813
0.3478861
0.33502
0.3215429
0.3074448
0.292705
0.2772508
0.2610256
0.2439653
0.2254237
0.2060523
0.1856646
0.1641702
0.1414755
0.3840391
0.3727886
0.3610365
0.3487503
0.3358937
0.3224598
0.3084315
0.293743
0.2783446
0.2621804
0.2446516
0.2263839
0.2072092
0.1870497
0.1658181
0.395223
0.384434
0.3731726
0.3614089
0.34911
0.3362712
0.3228785
0.3088717
0.2942066
0.2788335
0.2621924
0.2448819
0.2267499
0.2077294
0.187745
0.1010383
0.07903958
0.1242559
0.09980731
0.07738798
0.1457771
0.1221527
0.09735631
0.07417805
0.1654411
0.1429704
0.1190239
0.09375007
0.06948561
0.1835708
0.1621977
0.1394103
0.1150715
0.08921496
0.06368437
0.2007771
0.1804263
0.1587674
0.1356444
0.1108887
0.08449827
0.05771014
0.2179166
0.1985595
0.1780048
0.1561134
0.1327186
0.1076995
0.08096253
0.05324379
0.2349577
0.216558
0.1970634
0.1763548
0.1542882
0.1307546
0.1056064
0.0786126
0.05032769
0.2516875
0.2341956
0.2157013
0.196102
0.175276
0.1531355
0.1295556
0.1042995
0.07714821
0.04854076
0.2679713
0.2513336
0.233775
0.2152075
0.1955266
0.1746643
0.1525193
0.1288904
0.1035733
0.07633458
0.04631502
0.2837638
0.2679283
0.251244
0.2336345
0.2150104
0.1953181
0.1744774
0.1523172
0.1286698
0.1033297
0.07500565
0.04483397
0.2990817
0.2840009
0.2681357
0.2514191
0.2337735
0.2151579
0.1955072
0.1746764
0.1525268
0.1288913
0.102622
0.07431255
0.04378323
0.3139896
0.2996225
0.284529
0.2686497
0.2519171
0.2342996
0.2157451
0.1961278
0.1753339
0.1532261
0.1287715
0.1025342
0.07403621
0.04306467
0.3285939
0.3149076
0.3005474
0.2854609
0.2695888
0.252907
0.2353737
0.2168796
0.1973292
0.17661
0.1537782
0.1293612
0.1029339
0.0741397
0.04246496
0.3430093
0.3299783
0.3163223
0.3019947
0.2869433
0.2711502
0.2545816
0.2371421
0.2187517
0.1993168
0.1779807
0.1552535
0.1307421
0.1040677
0.07463425
0.04001412
0.3571941
0.3447932
0.331813
0.3182125
0.3039456
0.2889988
0.273345
0.2569013
0.2396001
0.2213641
0.2014534
0.1804866
0.1582317
0.1345867
0.1095226
0.3706565
0.3588388
0.3464821
0.3335497
0.320001
0.3058258
0.2910026
0.2754576
0.2591331
0.2419636
0.22329
0.2037515
0.1831591
0.1614277
0.1384746
0.3831998
0.3719126
0.3601214
0.3477931
0.3348914
0.321409
0.3073285
0.2925835
0.2771237
0.2608924
0.2432855
0.2249267
0.2056472
0.1853701
0.1640096
0.3948177
0.3840115
0.3727316
0.3609481
0.3486281
0.3357667
0.3223496
0.3083167
0.2936232
0.2782194
0.2615431
0.2441931
0.2260168
0.2069473
0.1869092
0.4055666
0.3951966
0.3843796
0.3730883
0.3612924
0.348989
0.3361664
0.3227695
0.3087581
0.2940881
0.2782316
0.2617618
0.2445394
0.2265072
0.2076
0.1252761
0.1009606
0.07887152
0.1476424
0.1241853
0.09965467
0.07713911
0.1679865
0.1457121
0.1220133
0.09712923
0.0738463
0.186543
0.1653803
0.1428411
0.1188154
0.09344633
0.06914894
0.2036719
0.1835132
0.1620758
0.1392151
0.1147901
0.08890542
0.06339167
0.2199524
0.2007217
0.1803095
0.1585814
0.1353786
0.1105999
0.08422777
0.05739481
0.2361918
0.2178645
0.1984501
0.1778315
0.1558673
0.1324537
0.1074553
0.08068713
0.05291907
0.2523631
0.234909
0.2164561
0.1969025
0.1761276
0.1540454
0.1305336
0.105362
0.07833697
0.05000124
0.2682638
0.2516418
0.2341003
0.2155514
0.1958911
0.1750519
0.1529333
0.1293349
0.1040558
0.07687333
0.04696467
0.2837638
0.2679283
0.251244
0.2336345
0.2150104
0.1953181
0.1744774
0.1523172
0.1286698
0.1033297
0.07500565
0.04483397
0.2988171
0.2837231
0.2678436
0.2511115
0.2334491
0.214815
0.1951438
0.17429
0.1521144
0.1284487
0.1021464
0.07380196
0.04321258
0.313437
0.299043
0.2839205
0.2680101
0.2512438
0.2335892
0.214994
0.1953317
0.1744875
0.1523224
0.1278101
0.101531
0.07299817
0.04195883
0.3276823
0.3139526
0.2995458
0.2844093
0.268483
0.2517423
0.2341444
0.2155793
0.19595
0.1751425
0.1522201
0.1277381
0.1012856
0.07251338
0.04088746
0.3416528
0.3285584
0.3148342
0.300433
0.285302
0.2694224
0.2527595
0.2352163
0.2167112
0.1971484
0.1756639
0.1527735
0.1281106
0.1013757
0.07217159
0.03901236
0.3554565
0.3429756
0.3299086
0.3162138
0.3018441
0.2867859
0.271011
0.2544336
0.2369842
0.2185829
0.1984375
0.1770446
0.1540579
0.1291526
0.1018122
0.07044758
0.03695179
0.3690524
0.3571628
0.3447286
0.3317126
0.3180734
0.3038006
0.2888718
0.2732114
0.2567603
0.239451
0.2205963
0.2007897
0.1798261
0.1576226
0.1341458
0.3819682
0.3706272
0.3587783
0.3463882
0.3334197
0.3198657
0.305708
0.2908794
0.2753285
0.2589976
0.2412708
0.2227608
0.2032972
0.1828098
0.1612268
0.3940126
0.383172
0.3718553
0.3600325
0.3476704
0.3347637
0.3212982
0.3072129
0.2924629
0.2769975
0.2602499
0.2428171
0.2245462
0.2053716
0.1852205
0.4051775
0.3947913
0.3839569
0.3726471
0.3608314
0.3485069
0.3356616
0.3222403
0.3082028
0.2935044
0.2776156
0.2611097
0.2438471
0.2257707
0.2068158
0.4155142
0.4055412
0.3951444
0.3842988
0.3729768
0.3611767
0.348889
0.3360625
0.3226613
0.3086454
0.2935167
0.2778237
0.2614382
0.2443106
0.2263856
0.1485792
0.1252058
0.1008088
0.0786245
0.1697191
0.1475779
0.1240472
0.09943006
0.07681254
0.1889217
0.1679265
0.1455847
0.1218081
0.09683103
0.07351844
0.2064613
0.1864866
0.1652611
0.1426506
0.1185414
0.093146
0.06886991
0.2226781
0.2036182
0.1834
0.1618959
0.1389583
0.1145118
0.08864787
0.06309911
0.2381141
0.2199005
0.2006128
0.180137
0.1583366
0.1351154
0.1103577
0.08395555
0.05707677
0.2535313
0.2361428
0.2177621
0.1982884
0.1776032
0.1556235
0.1322315
0.1072095
0.08040995
0.05259155
0.2689047
0.2523172
0.2348132
0.2163055
0.1966906
0.1759025
0.1538421
0.1303115
0.1051165
0.07806003
0.04841424
0.2840418
0.2682206
0.251552
0.2339593
0.2153538
0.1956821
0.1748645
0.1527304
0.1291135
0.1038112
0.07553856
0.04545545
0.2988171
0.2837231
0.2678436
0.2511115
0.2334491
0.214815
0.1951438
0.17429
0.1521144
0.1284487
0.1021464
0.07380196
0.04321258
0.3131848
0.2987785
0.2836428
0.2677182
0.2509366
0.2332653
0.2146517
0.1949689
0.174102
0.151911
0.127373
0.1010754
0.07252672
0.04145966
0.3271549
0.3134002
0.2989666
0.2838014
0.2678442
0.2510699
0.2334351
0.2148295
0.1951555
0.174298
0.1513274
0.1268172
0.100361
0.07160389
0.0399985
0.3407818
0.327647
0.3138796
0.2994321
0.2842512
0.2683176
0.2515959
0.2339884
0.2154127
0.1957714
0.1742089
0.1512678
0.1265996
0.09993016
0.0708874
0.03812838
0.354159
0.341619
0.3284885
0.3147254
0.300282
0.2851442
0.2692828
0.2526109
0.2350578
0.2165417
0.1962647
0.1747302
0.1516188
0.1266874
0.09962564
0.06962041
0.03652761
0.3673887
0.3554243
0.3429091
0.3298052
0.3160705
0.3016946
0.2866539
0.2708709
0.2542845
0.2368253
0.2177577
0.1975623
0.1759319
0.1525883
0.1270912
0.09809239
0.06799818
0.03468192
0.3804308
0.3690225
0.3571011
0.3446329
0.3315801
0.3179354
0.3036799
0.2887449
0.2730779
0.2566194
0.2387278
0.2199731
0.2001719
0.1792592
0.1572151
0.3928313
0.3819401
0.3705694
0.3586886
0.3462642
0.3332907
0.3197536
0.3055909
0.2907569
0.2752002
0.258343
0.2407723
0.2223342
0.2029705
0.1826229
0.4044047
0.393986
0.3831171
0.3717704
0.3599152
0.3475485
0.334658
0.3211882
0.3070982
0.2923431
0.2763889
0.2598074
0.2424586
0.2242874
0.2052318
0.4151405
0.4051521
0.394739
0.383876
0.3725354
0.3607155
0.3484066
0.3355574
0.3221318
0.3080897
0.2929312
0.2772051
0.2607828
0.2436152
0.2256472
0.4250869
0.4154899
0.4054912
0.395067
0.3841921
0.3728662
0.3610811
0.3487897
0.3359593
0.322554
0.3081021
0.2931295
0.2775171
0.261222
0.2441961
0.1705896
0.1485149
0.1250683
0.1005853
0.07830031
0.1905412
0.1696596
0.1474515
0.1238438
0.09913507
0.07648976
0.2086939
0.188866
0.1678089
0.1453968
0.1215383
0.09653615
0.07324717
0.2253048
0.2064086
0.186376
0.1650853
0.1424001
0.1182704
0.09289717
0.0685924
0.2406881
0.2226278
0.2035126
0.183233
0.1616591
0.1387042
0.1142802
0.08839072
0.06280669
0.255351
0.2380654
0.2197984
0.2004518
0.1799098
0.1580941
0.1348947
0.110114
0.08368162
0.05675599
0.2700129
0.2534852
0.2360465
0.2176106
0.1980754
0.1773769
0.1554189
0.1320079
0.1069621
0.08013097
0.05099613
0.2846509
0.2688614
0.2522269
0.2346716
0.2161069
0.1964806
0.1757139
0.1536378
0.1300883
0.1048698
0.07671355
0.0468441
0.2990817
0.2840009
0.2681357
0.2514191
0.2337735
0.2151579
0.1955072
0.1746764
0.1525268
0.1288913
0.102622
0.07431255
0.04378323
0.3131848
0.2987785
0.2836428
0.2677182
0.2509366
0.2332653
0.2146517
0.1949689
0.174102
0.151911
0.127373
0.1010754
0.07252672
0.04145966
0.3269143
0.3131481
0.2987023
0.283524
0.2675529
0.2507632
0.2331117
0.2144878
0.1947935
0.1739134
0.1509213
0.1263987
0.09994021
0.07118676
0.03958741
0.340278
0.3271199
0.3133276
0.2988535
0.2836442
0.2676797
0.2509244
0.2332803
0.2146644
0.1949787
0.1733748
0.1504127
0.1257509
0.09911924
0.07014236
0.03753241
0.3533259
0.3407482
0.3275775
0.3137714
0.299282
0.2840944
0.2681791
0.2514487
0.2338316
0.2152452
0.1948998
0.1733243
0.1502172
0.1253623
0.09848234
0.06886622
0.0360328
0.3661466
0.3541267
0.3415523
0.3283849
0.3145817
0.3001321
0.2850118
0.2691422
0.2524613
0.2348982
0.2157127
0.1953921
0.173656
0.1503036
0.1250881
0.09735472
0.06761049
0.03447326
0.3788366
0.367358
0.3553607
0.3428104
0.3296687
0.3159282
0.3015691
0.286521
0.2707298
0.2541345
0.2360483
0.216936
0.1965212
0.1745634
0.1506816
0.1236876
0.09591493
0.06605322
0.0329327
0.3913569
0.3804022
0.3689635
0.3570097
0.3445064
0.3314486
0.3178205
0.3035594
0.2886183
0.2729445
0.2559363
0.2381408
0.2193929
0.1996415
0.1788797
0.4032708
0.3928045
0.3818847
0.3704836
0.3585701
0.346141
0.3331838
0.3196421
0.3054745
0.2906351
0.2745802
0.2578721
0.2403704
0.2220274
0.2027956
0.4143982
0.4043792
0.3939335
0.3830358
0.3716581
0.3597987
0.3474476
0.3345532
0.321079
0.3069844
0.2917655
0.2759698
0.2594686
0.2422148
0.224156
0.4247277
0.4151162
0.405102
0.3946614
0.383769
0.3724245
0.3606196
0.348307
0.3354539
0.3220242
0.3075448
0.2925416
0.2768954
0.2605636
0.2434988
0.4343041
0.4250636
0.4154419
0.405417
0.3949647
0.3840861
0.3727746
0.3609862
0.3486912
0.335857
0.3220365
0.3077339
0.2928385
0.2773123
0.2611137
0.1913552
0.1705303
0.148389
0.1248658
0.1002918
0.07797989
0.2102143
0.1904859
0.1695429
0.1472652
0.1235765
0.09884335
0.07622282
0.2274076
0.2086419
0.1887567
0.1676354
0.1451498
0.1212714
0.09629218
0.07297785
0.2431687
0.2252555
0.2063053
0.1862126
0.164854
0.1421521
0.1180458
0.0926498
0.06831644
0.2577874
0.2406407
0.2225288
0.2033567
0.183013
0.1614246
0.1384927
0.114049
0.08813398
0.06251444
0.2717389
0.255305
0.2379694
0.2196475
0.2002396
0.1796846
0.1578907
0.1346726
0.1098687
0.08340593
0.0551929
0.285704
0.2699693
0.2533944
0.2359041
0.2174109
0.1978643
0.1771871
0.155213
0.1317828
0.1067132
0.07877224
0.04934396
0.2996615
0.2846098
0.268776
0.2520933
0.2344848
0.21591
0.1963046
0.1755244
0.1534324
0.129864
0.103669
0.07543903
0.0450574
0.313437
0.299043
0.2839205
0.2680101
0.2512438
0.2335892
0.214994
0.1953317
0.1744875
0.1523224
0.1278101
0.101531
0.07299817
0.04195883
0.3269143
0.3131481
0.2987023
0.283524
0.2675529
0.2507632
0.2331117
0.2144878
0.1947935
0.1739134
0.1509213
0.1263987
0.09994021
0.07118676
0.03958741
0.340048
0.3268793
0.3130757
0.2985896
0.2833673
0.2673888
0.2506182
0.2329575
0.2143234
0.1946176
0.1729952
0.150024
0.1253644
0.09874651
0.06979159
0.03723705
0.3528441
0.3402445
0.3270507
0.31322
0.2987042
0.2834882
0.2675421
0.2507783
0.2331249
0.2144986
0.194117
0.1725256
0.1494293
0.1246178
0.09781654
0.06834305
0.03564933
0.365349
0.3532939
0.3406819
0.3274745
0.3136286
0.299133
0.283963
0.2680398
0.2513007
0.233674
0.2144278
0.1940735
0.1723476
0.1490744
0.1240395
0.09668002
0.06715039
0.03419208
0.3776463
0.3661157
0.354063
0.3414534
0.328248
0.3144391
0.3000063
0.2848784
0.2690006
0.2523106
0.2341179
0.2148937
0.1943874
0.1724317
0.1488247
0.1230107
0.09556311
0.06582742
0.0328129
0.3898279
0.3788072
0.3672972
0.3552665
0.3426801
0.329533
0.3158088
0.3014428
0.2863872
0.2705877
0.2534006
0.2352741
0.2159579
0.1952402
0.1727871
0.1475308
0.1216978
0.09418028
0.06446482
0.03157206
0.4018556
0.3913295
0.3803458
0.368876
0.3568888
0.3443808
0.331339
0.3177058
0.303439
0.2884918
0.2722977
0.2553817
0.2375941
0.2188947
0.1992863
0.413309
0.403245
0.3927514
0.3818026
0.3703702
0.3584524
0.346039
0.3330776
0.3195312
0.3053587
0.2900469
0.2741342
0.2574923
0.2400812
0.2218631
0.4240142
0.4143737
0.4043288
0.3938555
0.3829283
0.3715466
0.3597023
0.3473474
0.334449
0.3209706
0.3064352
0.2913678
0.2756489
0.2592382
0.2420909
0.4339586
0.4247043
0.4150681
0.4050276
0.3945589
0.3836628
0.3723327
0.3605245
0.3482083
0.3353513
0.3215052
0.3071743
0.2922477
0.2766878
0.2604536
0.443184
0.4342817
0.4250175
0.4153707
0.4053189
0.3948631
0.3839985
0.3726838
0.360892
0.3485935
0.3353634
0.3216859
0.3074572
0.2926441
0.2772098
0.2109786
0.1913001
0.170414
0.1482034
0.1245996
0.1000016
0.0777149
0.2288397
0.2101627
0.1903774
0.1693707
0.1470201
0.123312
0.09860209
0.07595791
0.2451547
0.2273589
0.2085399
0.1885954
0.1674071
0.1449053
0.1210506
0.09605
0.0727105
0.2601357
0.2431223
0.2251586
0.2061527
0.1859976
0.1646249
0.1419466
0.1178225
0.09240389
0.06804204
0.27405
0.2577428
0.2405477
0.2223826
0.2031512
0.1827951
0.1612295
0.1382816
0.1138182
0.08787767
0.06110215
0.2873441
0.2716954
0.2552145
0.2378275
0.2194486
0.2000294
0.1794957
0.157686
0.1344491
0.109622
0.08206315
0.05355294
0.3006638
0.2856627
0.2698835
0.2532601
0.2357163
0.217213
0.1976871
0.1769961
0.1550057
0.1315562
0.1054992
0.07743122
0.04738157
0.3139896
0.2996225
0.284529
0.2686497
0.2519171
0.2342996
0.2157451
0.1961278
0.1753339
0.1532261
0.1287715
0.1025342
0.07403621
0.04306467
0.3271549
0.3134002
0.2989666
0.2838014
0.2678442
0.2510699
0.2334351
0.2148295
0.1951555
0.174298
0.1513274
0.1268172
0.100361
0.07160389
0.0399985
0.340048
0.3268793
0.3130757
0.2985896
0.2833673
0.2673888
0.2506182
0.2329575
0.2143234
0.1946176
0.1729952
0.150024
0.1253644
0.09874651
0.06979159
0.03723705
0.3526241
0.3400147
0.3268103
0.3129684
0.2984407
0.2832117
0.2672516
0.2504727
0.2328028
0.2141585
0.1937607
0.1721622
0.1490702
0.1242753
0.09750231
0.06807911
0.03544639
0.3648877
0.3528121
0.3401786
0.3269482
0.3130779
0.298556
0.2833577
0.2674039
0.2506317
0.232969
0.2136907
0.1933239
0.1716115
0.1483831
0.1234277
0.09621004
0.0667868
0.03395288
0.3768821
0.3653184
0.3532306
0.3405836
0.3273384
0.3134868
0.2990082
0.2838309
0.2678998
0.2511519
0.2329047
0.2136524
0.1931603
0.1712843
0.1478517
0.1223908
0.09514517
0.06552683
0.0326423
0.3886864
0.3776168
0.3660548
0.3539686
0.3413228
0.328112
0.3143193
0.2998796
0.2847442
0.268858
0.2515738
0.2333464
0.2139501
0.1932417
0.1710543