/*--------------------------------*- C++ -*----------------------------------*\
| =========                 |                                                 |
| \\      /  F ield         | OpenFOAM: The Open Source CFD Toolbox           |
|  \\    /   O peration     | Version:  2306                                  |
|   \\  /    A nd           | Website:  www.openfoam.com                      |
|    \\/     M anipulation  |                                                 |
\*---------------------------------------------------------------------------*/
FoamFile
{
    version     2.0;
    format      ascii;
    arch        "LSB;label=32;scalar=64";
    class       volScalarField;
    location    "1.2/air";
    object      diffSp.O2;
}
// * * * * * * * * * * * * * * * * * * * * * * * * * * * * * * * * * * * * * //

dimensions      [0 2 -1 0 0 0 0];

internalField   nonuniform List<scalar> 
16000
(
0.0002042897
0.0002006988
0.0002085281
0.0002006402
0.0001987648
0.0002075243
0.0001921038
0.0002095855
0.0002075103
0.0001986549
0.0001976875
0.0002066621
0.0001869503
0.0002091315
0.0002045625
0.00018687
0.0002104624
0.0002091446
0.0002066304
0.0001975152
0.0001971912
0.0002060312
0.0001839262
0.0002087248
0.0002020046
0.0001792637
0.0002102294
0.000207809
0.0002019632
0.0001837128
0.0002112385
0.000210254
0.0002087457
0.0002059722
0.0001969363
0.0001971912
0.0002056984
0.0001825109
0.0002084143
0.0002001229
0.0001746139
0.0002100243
0.0002065943
0.0001978558
0.0001744346
0.0002111041
0.0002095852
0.0002065965
0.0002000041
0.0001820844
0.000211947
0.0002111317
0.0002100679
0.0002084393
0.0002056019
0.000196823
0.0001216043
0.0001976875
0.0002056984
0.0001825109
0.0002082457
0.0001991283
0.0001723891
0.0002098685
0.0002056586
0.0001948082
0.0001686047
0.0002109898
0.0002089815
0.0002046132
0.0001946988
0.0001718895
0.00021186
0.0002107592
0.0002090028
0.0002056506
0.0001988924
0.0001817768
0.0002125971
0.0002118872
0.0002110398
0.0002099305
0.000208274
0.0002055594
0.0001971684
0.0001215916
0.0001220543
0.0001219063
0.0001987648
0.0002060312
0.0001839262
0.0002082457
0.0001991283
0.0001723891
0.0002097839
0.0002051484
0.0001931886
0.0001657718
0.000210905
0.0002085165
0.0002030702
0.0001907317
0.0001653865
0.0002117889
0.0002104312
0.000208024
0.0002030493
0.0001928924
0.0001714025
0.0002125333
0.0002116554
0.0002104592
0.0002085604
0.0002051235
0.0001987505
0.0001827771
0.0002131996
0.0002125587
0.0002118384
0.0002109781
0.0002098675
0.0002082829
0.0002058584
0.0001980472
0.0001215638
0.0001220515
0.0001218881
0.0001225027
0.0001223337
0.0001222103
0.0002006988
0.0002066621
0.0001869503
0.0002084143
0.0002001229
0.0001746139
0.0002097839
0.0002051484
0.0001931886
0.0001657718
0.0002108595
0.0002082621
0.0002022241
0.0001886137
0.0001621989
0.0002117375
0.0002101832
0.0002072602
0.0002010086
0.0001883844
0.0001647618
0.0002124829
0.0002114573
0.0002099373
0.000207284
0.0002021644
0.0001926492
0.0001729654
0.000213148
0.0002123943
0.0002114862
0.0002102461
0.0002083372
0.0002051172
0.0001996159
0.0001852551
0.0002137598
0.0002131713
0.0002125293
0.0002118106
0.0002109602
0.0002098973
0.0002084773
0.000206489
0.0001996926
0.0001215102
0.0001220466
0.0001218454
0.0001225024
0.000122331
0.0001221877
0.0001229277
0.0001227511
0.0001226135
0.0001225181
0.0002042897
0.0002075243
0.0001921038
0.0002087248
0.0002020046
0.0001792637
0.0002098685
0.0002056586
0.0001948082
0.0001686047
0.0002108595
0.0002082621
0.0002022241
0.0001886137
0.0001621989
0.0002117104
0.000210049
0.0002068392
0.0001998842
0.0001859708
0.0001614996
0.0002124475
0.0002113111
0.0002095368
0.0002062771
0.0001998302
0.0001880575
0.0001667314
0.0002131083
0.0002122579
0.0002111784
0.0002095778
0.0002068978
0.0002021326
0.0001940275
0.0001767722
0.0002137152
0.0002130415
0.0002122855
0.0002113776
0.0002101606
0.0002083897
0.0002056615
0.0002014424
0.0001896761
0.0002142828
0.0002137364
0.000213151
0.0002125164
0.0002118119
0.0002109963
0.000210028
0.0002088502
0.000207431
0.0002027677
0.0001213676
0.0001220412
0.0001217545
0.0001225027
0.0001223265
0.0001221337
0.0001229282
0.0001227523
0.0001226108
0.0001224924
0.0001233221
0.0001231464
0.0001229991
0.0001228944
0.0001228276
0.0002085281
0.0002006402
0.0002091315
0.0002045625
0.00018687
0.0002100243
0.0002065943
0.0001978558
0.0001744346
0.000210905
0.0002085165
0.0002030702
0.0001907317
0.0001653865
0.0002117104
0.000210049
0.0002068392
0.0001998842
0.0001859708
0.0001614996
0.0002124292
0.0002112332
0.0002093183
0.0002057185
0.00019854
0.0001855968
0.0001636811
0.000213081
0.0002121598
0.0002109477
0.0002090586
0.0002057537
0.0001997716
0.0001898262
0.0001714761
0.0002136814
0.000212936
0.0002120786
0.000210993
0.000209422
0.0002069616
0.0002029982
0.0001969282
0.0001833118
0.0002142428
0.0002136256
0.0002129616
0.0002122239
0.0002113524
0.0002102329
0.0002087378
0.0002067156
0.0002041065
0.0001971287
0.0002147724
0.0002142622
0.0002137203
0.0002131444
0.0002125251
0.0002118483
0.0002110925
0.0002102609
0.0002093969
0.0002087186
0.0001203772
0.0001220528
0.0001215245
0.0001225075
0.000122323
0.0001220199
0.0001229302
0.0001227569
0.000122606
0.0001224314
0.0001233229
0.0001231488
0.0001230016
0.0001228916
0.0001228003
0.0001236909
0.0001235147
0.0001233646
0.0001232475
0.0001231741
5.193894e-05
0.0002095855
0.0002075103
0.0001986549
0.0002102294
0.000207809
0.0002019632
0.0001837128
0.0002109898
0.0002089815
0.0002046132
0.0001946988
0.0001718895
0.0002117375
0.0002101832
0.0002072602
0.0002010086
0.0001883844
0.0001647618
0.0002124292
0.0002112332
0.0002093183
0.0002057185
0.00019854
0.0001855968
0.0001636811
0.000213067
0.0002121084
0.0002108236
0.0002087732
0.000205116
0.0001984645
0.0001875762
0.0001689085
0.0002136584
0.0002128618
0.0002119276
0.0002107009
0.0002088426
0.0002058203
0.0002008877
0.0001935405
0.0001794289
0.0002142127
0.0002135368
0.0002128047
0.000211972
0.000210939
0.0002095197
0.000207503
0.0002046719
0.0002010936
0.000193642
0.0002147357
0.0002141632
0.0002135603
0.0002129214
0.0002122239
0.0002114283
0.0002104772
0.0002093672
0.0002081912
0.0002074376
0.0001191927
0.0002152316
0.0002147534
0.0002142482
0.0002137163
0.0002131554
0.0002125596
0.000211925
0.0002112548
0.0002106103
0.0002101947
0.0001222737
0.0001207564
0.0001225474
0.000122339
0.0001217647
0.0001229381
0.0001227728
0.0001226017
0.0001223079
0.0001233255
0.0001231563
0.000123009
0.0001228862
0.0001227364
0.0001236917
0.0001235175
0.0001233686
0.0001232507
0.0001231711
5.192715e-05
0.0001240344
0.0001238612
0.0001237068
0.0001235827
0.0001234938
5.208057e-05
5.194709e-05
0.0002104624
0.0002091446
0.0002066304
0.0001975152
0.0002111041
0.0002095852
0.0002065965
0.0002000041
0.0001820844
0.0002117889
0.0002104312
0.000208024
0.0002030493
0.0001928924
0.0001714025
0.0002124475
0.0002113111
0.0002095368
0.0002062771
0.0001998302
0.0001880575
0.0001667314
0.000213067
0.0002121084
0.0002108236
0.0002087732
0.000205116
0.0001984645
0.0001875762
0.0001689085
0.0002136467
0.0002128234
0.0002118478
0.0002105424
0.000208522
0.0002051822
0.0001997186
0.0001917286
0.0001775675
0.0002141923
0.0002134751
0.0002126926
0.0002117859
0.0002106214
0.0002089551
0.0002065093
0.0002030428
0.0001988214
0.0001915169
0.0002147081
0.0002140845
0.0002134296
0.0002127342
0.0002119612
0.0002110444
0.000209889
0.0002084784
0.0002069543
0.0002061184
0.0001182591
0.0002151976
0.0002146627
0.0002141059
0.0002135299
0.000212931
0.0002122968
0.0002116164
0.0002108951
0.0002102501
0.0002100129
0.0001221124
0.0001198232
0.0002156632
0.0002152139
0.0002147406
0.0002142452
0.0002137275
0.0002131873
0.0002126242
0.0002120494
0.0002115052
0.000211175
0.0001229661
0.0001224439
0.0001211584
0.0001229846
0.0001228375
0.0001226102
0.0001220599
0.000123334
0.0001231777
0.0001230301
0.0001228793
0.0001226128
0.0001236943
0.0001235257
0.0001233798
0.0001232597
0.0001231648
5.189981e-05
0.0001240352
0.000123864
0.0001237113
0.0001235879
0.0001234974
5.207925e-05
5.193531e-05
0.0001243558
0.0001241858
0.0001240309
0.0001238987
0.0001237985
5.221029e-05
5.208786e-05
5.195517e-05
0.0002112385
0.000210254
0.0002087457
0.0002059722
0.0001969363
0.00021186
0.0002107592
0.0002090028
0.0002056506
0.0001988924
0.0001817768
0.0002124829
0.0002114573
0.0002099373
0.000207284
0.0002021644
0.0001926492
0.0001729654
0.000213081
0.0002121598
0.0002109477
0.0002090586
0.0002057537
0.0001997716
0.0001898262
0.0001714761
0.0002136467
0.0002128234
0.0002118478
0.0002105424
0.000208522
0.0002051822
0.0001997186
0.0001917286
0.0001775675
0.0002141821
0.0002134436
0.0002126342
0.0002116867
0.0002104479
0.000208641
0.0002059517
0.0002021384
0.0001976039
0.0001904958
0.0002146896
0.0002140302
0.0002133377
0.0002125991
0.0002117648
0.0002107455
0.0002094157
0.000207748
0.0002059397
0.0002050771
0.0001176346
0.0002151721
0.0002145909
0.0002139908
0.000213376
0.0002127406
0.0002120635
0.0002113224
0.0002105161
0.000209795
0.0002096064
0.0001218546
0.0001190453
0.0002156314
0.0002151298
0.0002146105
0.0002140803
0.0002135425
0.000212999
0.0002124522
0.0002119249
0.0002114901
0.0002113876
0.0001230603
0.0001223292
0.0001204244
0.0002160692
0.0002156464
0.0002152019
0.000214738
0.0002142559
0.0002137567
0.0002132438
0.0002127268
0.0002122457
0.0002119457
0.0001234395
0.000123102
0.0001226496
0.0001215807
0.00012338
0.0001232544
0.0001230947
0.0001228771
0.0001223882
0.0001237026
0.0001235479
0.0001234083
0.0001232813
0.0001231546
5.184805e-05
0.0001240377
0.000123872
0.0001237234
0.0001236012
0.0001235065
5.207637e-05
5.190801e-05
0.0001243565
0.0001241884
0.0001240354
0.0001239043
0.0001238043
5.221188e-05
5.208655e-05
5.194339e-05
0.0001246566
0.0001244911
0.0001243365
0.0001242004
0.0001240882
5.233449e-05
5.22167e-05
5.209507e-05
5.196334e-05
0.000211947
0.0002111317
0.0002100679
0.0002084393
0.0002056019
0.000196823
0.0002125333
0.0002116554
0.0002104592
0.0002085604
0.0002051235
0.0001987505
0.0001827771
0.0002131083
0.0002122579
0.0002111784
0.0002095778
0.0002068978
0.0002021326
0.0001940275
0.0001767722
0.0002136584
0.0002128618
0.0002119276
0.0002107009
0.0002088426
0.0002058203
0.0002008877
0.0001935405
0.0001794289
0.0002141821
0.0002134436
0.0002126342
0.0002116867
0.0002104479
0.000208641
0.0002059517
0.0002021384
0.0001976039
0.0001904958
0.0002146802
0.0002140026
0.0002132903
0.0002125282
0.0002116594
0.0002105808
0.0002091501
0.0002073344
0.0002053699
0.0002045088
0.0001173233
0.0002151549
0.0002145415
0.0002139104
0.0002132668
0.0002126019
0.0002118863
0.0002110865
0.0002101943
0.0002093857
0.0002092149
0.0001216263
0.0001185114
0.0002156076
0.0002150632
0.0002145056
0.0002139456
0.0002133884
0.0002128364
0.0002122899
0.0002117727
0.0002113668
0.0002113523
0.0001230365
0.000122132
0.0001197885
0.0002160394
0.0002155678
0.0002150813
0.0002145875
0.0002140932
0.000213605
0.0002131334
0.0002127006
0.0002123701
0.0002122952
0.0001236165
0.0001231937
0.0001225603
0.0001210087
0.0002164516
0.0002160534
0.0002156352
0.0002151994
0.0002147479
0.0002142826
0.0002138073
0.0002133326
0.0002128912
0.0002126109
0.0001238195
0.000123554
0.0001232644
0.0001228786
0.0001220143
0.0001237458
0.0001236246
0.0001234876
0.0001233353
0.0001231416
5.175825e-05
0.0001240454
0.0001238935
0.0001237531
0.0001236314
0.0001235257
5.207122e-05
5.185645e-05
0.0001243588
0.000124196
0.0001240473
0.0001239188
0.0001238183
5.22157e-05
5.208366e-05
5.191614e-05
0.0001246573
0.0001244936
0.0001243408
0.0001242061
0.0001240946
5.233702e-05
5.22183e-05
5.209375e-05
5.195158e-05
0.000124939
0.0001247783
0.0001246259
0.0001244871
0.0001243676
5.245324e-05
5.234013e-05
5.222304e-05
5.210235e-05
5.197132e-05
0.0002125971
0.0002118872
0.0002110398
0.0002099305
0.000208274
0.0002055594
0.0001971684
0.000213148
0.0002123943
0.0002114862
0.0002102461
0.0002083372
0.0002051172
0.0001996159
0.0001852551
0.0002136814
0.000212936
0.0002120786
0.000210993
0.000209422
0.0002069616
0.0002029982
0.0001969282
0.0001833118
0.0002141923
0.0002134751
0.0002126926
0.0002117859
0.0002106214
0.0002089551
0.0002065093
0.0002030428
0.0001988214
0.0001915169
0.0002146802
0.0002140026
0.0002132903
0.0002125282
0.0002116594
0.0002105808
0.0002091501
0.0002073344
0.0002053699
0.0002045088
0.0001173233
0.0002151463
0.0002145165
0.0002138693
0.0002132102
0.0002125286
0.0002117901
0.0002109544
0.0002100093
0.0002091458
0.0002089832
0.0001214963
0.0001182421
0.0002155916
0.0002150176
0.0002144328
0.0002138509
0.0002132782
0.0002127158
0.0002121607
0.0002116343
0.0002112237
0.0002112502
0.0001229817
0.0001219524
0.0001193416
0.0002160171
0.0002155057
0.0002149842
0.0002144651
0.0002139593
0.0002134767
0.0002130307
0.0002126456
0.0002123876
0.0002124057
0.0001236809
0.0001231897
0.0001224092
0.0001204998
0.0002164236
0.0002159797
0.0002155224
0.0002150598
0.0002145996
0.0002141506
0.0002137247
0.0002133455
0.0002130628
0.0002129959
0.0001240177
0.0001237118
0.0001233414
0.0001228045
0.0001215784
0.0002168119
0.0002164367
0.0002160427
0.0002156327
0.0002152085
0.0002147724
0.0002143286
0.0002138864
0.0002134759
0.000213207
0.0001241538
0.0001239187
0.00012369
0.0001234433
0.0001231191
5.161809e-05
0.0001240851
0.0001239659
0.0001238335
0.0001237013
0.0001235652
5.206338e-05
5.176741e-05
0.0001243659
0.0001242161
0.0001240761
0.0001239508
0.0001238466
5.222302e-05
5.207843e-05
5.186479e-05
0.0001246594
0.0001245007
0.0001243522
0.0001242204
0.0001241099
5.2343e-05
5.222211e-05
5.209085e-05
5.192439e-05
0.0001249395
0.0001247807
0.0001246299
0.0001244925
0.000124374
5.245603e-05
5.234267e-05
5.222463e-05
5.210104e-05
5.195959e-05
0.0001252043
0.0001250491
0.0001248995
0.0001247605
0.0001246355
5.25685e-05
5.245821e-05
5.234569e-05
5.222943e-05
5.210945e-05
3.393633e-05
0.0002131996
0.0002125587
0.0002118384
0.0002109781
0.0002098675
0.0002082829
0.0002058584
0.0001980472
0.0002137152
0.0002130415
0.0002122855
0.0002113776
0.0002101606
0.0002083897
0.0002056615
0.0002014424
0.0001896761
0.0002142127
0.0002135368
0.0002128047
0.000211972
0.000210939
0.0002095197
0.000207503
0.0002046719
0.0002010936
0.000193642
0.0002146896
0.0002140302
0.0002133377
0.0002125991
0.0002117648
0.0002107455
0.0002094157
0.000207748
0.0002059397
0.0002050771
0.0001176346
0.0002151463
0.0002145165
0.0002138693
0.0002132102
0.0002125286
0.0002117901
0.0002109544
0.0002100093
0.0002091458
0.0002089832
0.0001214963
0.0001182421
0.0002155835
0.0002149944
0.0002143957
0.0002138021
0.0002132208
0.0002126514
0.0002120888
0.0002115522
0.0002111326
0.0002111767
0.0001229432
0.0001218487
0.0001191137
0.0002160021
0.0002154631
0.0002149169
0.0002143795
0.0002138646
0.0002133834
0.0002129499
0.0002125869
0.0002123601
0.0002124241
0.0001236972
0.0001231551
0.0001222694
0.0001201351
0.0002164027
0.0002159214
0.0002154317
0.0002149466
0.0002144783
0.0002140404
0.0002136489
0.000213331
0.0002131343
0.0002131594
0.0001241126
0.0001237793
0.0001233479
0.0001226883
0.0001211838
0.0002167857
0.0002163674
0.0002159369
0.0002155022
0.000215071
0.0002146523
0.000214259
0.0002139124
0.0002136566
0.0002135847
0.0001243497
0.0001240926
0.0001238204
0.0001235017
0.0001230548
5.145752e-05
0.0002171516
0.0002167979
0.0002164266
0.0002160403
0.000215641
0.0002152311
0.0002148145
0.0002144003
0.0002140147
0.000213756
0.0001244579
0.0001242412
0.000124036
0.0001238388
0.0001236287
5.204959e-05
5.162946e-05
0.0001244021
0.000124283
0.0001241527
0.000124023
0.0001239022
5.223656e-05
5.207037e-05
5.177654e-05
0.0001246658
0.0001245193
0.0001243792
0.0001242516
0.0001241405
5.235432e-05
5.222933e-05
5.208556e-05
5.187327e-05
0.0001249415
0.0001247873
0.0001246405
0.0001245062
0.0001243893
5.24626e-05
5.234863e-05
5.222843e-05
5.209813e-05
5.193247e-05
0.0001252048
0.0001250513
0.0001249033
0.0001247656
0.0001246416
5.25713e-05
5.246101e-05
5.234823e-05
5.223103e-05
5.210814e-05
3.392871e-05
0.000125454
0.0001253046
0.0001251588
0.0001250206
0.0001248929
5.26796e-05
5.257292e-05
5.246311e-05
5.235131e-05
5.223566e-05
3.402565e-05
3.394308e-05
0.0002137598
0.0002131713
0.0002125293
0.0002118106
0.0002109602
0.0002098973
0.0002084773
0.000206489
0.0001996926
0.0002142428
0.0002136256
0.0002129616
0.0002122239
0.0002113524
0.0002102329
0.0002087378
0.0002067156
0.0002041065
0.0001971287
0.0002147081
0.0002140845
0.0002134296
0.0002127342
0.0002119612
0.0002110444
0.000209889
0.0002084784
0.0002069543
0.0002061184
0.0001182591
0.0002151549
0.0002145415
0.0002139104
0.0002132668
0.0002126019
0.0002118863
0.0002110865
0.0002101943
0.0002093857
0.0002092149
0.0001216263
0.0001185114
0.0002155835
0.0002149944
0.0002143957
0.0002138021
0.0002132208
0.0002126514
0.0002120888
0.0002115522
0.0002111326
0.0002111767
0.0001229432
0.0001218487
0.0001191137
0.0002159946
0.0002154415
0.0002148826
0.0002143356
0.0002138156
0.0002133343
0.0002129052
0.0002125501
0.0002123343
0.0002124185
0.000123698
0.0001231284
0.000122188
0.000119947
0.0002163886
0.0002158815
0.0002153689
0.0002148676
0.000214393
0.0002139613
0.0002135902
0.0002133064
0.0002131538
0.0002132258
0.0001241563
0.0001238027
0.0001233274
0.0001225812
0.0001208958
0.000216766
0.0002163127
0.0002158519
0.0002153964
0.0002149588
0.0002145529
0.0002141962
0.0002139133
0.0002137453
0.0002137603
0.0001244522
0.0001241842
0.0001238844
0.0001235119
0.0001229663
5.131121e-05
0.0002171269
0.0002167328
0.0002163272
0.0002159179
0.0002155124
0.0002151197
0.0002147518
0.0002144289
0.0002141889
0.0002141112
0.0001246424
0.0001244123
0.0001241795
0.0001239405
0.000123668
5.20236e-05
5.147172e-05
0.0002174718
0.0002171384
0.0002167884
0.0002164242
0.000216048
0.000215662
0.00021527
0.0002148803
0.0002145168
0.0002142671
0.0001247413
0.0001245358
0.0001243441
0.0001241639
0.0001239919
5.225567e-05
5.205618e-05
5.164074e-05
0.0001246989
0.0001245807
0.0001244505
0.0001243213
0.0001241996
5.237467e-05
5.224251e-05
5.207727e-05
5.178582e-05
0.0001249473
0.0001248044
0.0001246657
0.0001245358
0.0001244196
5.247501e-05
5.235987e-05
5.223555e-05
5.209277e-05
5.18816e-05
0.0001252066
0.0001250574
0.0001249132
0.0001247785
0.0001246563
5.257788e-05
5.246758e-05
5.235418e-05
5.223481e-05
5.210522e-05
3.391112e-05
0.0001254545
0.0001253067
0.0001251624
0.0001250254
0.0001248987
5.26823e-05
5.257572e-05
5.246591e-05
5.235385e-05
5.223726e-05
3.40248e-05
3.39355e-05
0.0001256894
0.0001255459
0.0001254045
0.0001252684
0.0001251396
5.278688e-05
5.268354e-05
5.257726e-05
5.246806e-05
5.235676e-05
3.410722e-05
3.403171e-05
3.394748e-05
0.0002142828
0.0002137364
0.000213151
0.0002125164
0.0002118119
0.0002109963
0.000210028
0.0002088502
0.000207431
0.0002027677
0.0002147357
0.0002141632
0.0002135603
0.0002129214
0.0002122239
0.0002114283
0.0002104772
0.0002093672
0.0002081912
0.0002074376
0.0001191927
0.0002151721
0.0002145909
0.0002139908
0.000213376
0.0002127406
0.0002120635
0.0002113224
0.0002105161
0.000209795
0.0002096064
0.0001218546
0.0001190453
0.0002155916
0.0002150176
0.0002144328
0.0002138509
0.0002132782
0.0002127158
0.0002121607
0.0002116343
0.0002112237
0.0002112502
0.0001229817
0.0001219524
0.0001193416
0.0002159946
0.0002154415
0.0002148826
0.0002143356
0.0002138156
0.0002133343
0.0002129052
0.0002125501
0.0002123343
0.0002124185
0.000123698
0.0001231284
0.000122188
0.000119947
0.0002163815
0.0002158613
0.000215337
0.0002148272
0.0002143491
0.00021392
0.0002135581
0.0002132893
0.0002131552
0.0002132483
0.0001241728
0.0001238083
0.0001233097
0.0001225186
0.0001207456
0.0002167527
0.0002162752
0.0002157931
0.0002153227
0.0002148801
0.000214482
0.000214148
0.0002139026
0.0002137823
0.0002138423
0.0001245048
0.0001242293
0.0001239108
0.000123501
0.0001228865
5.120357e-05
0.0002171084
0.0002166814
0.0002162473
0.0002158186
0.0002154075
0.0002150276
0.0002146956
0.0002144347
0.0002142793
0.0002142827
0.0001247428
0.000124509
0.0001242625
0.0001239965
0.000123678
5.199069e-05
5.13279e-05
0.0002174486
0.0002170772
0.000216695
0.0002163092
0.0002159272
0.0002155575
0.0002152115
0.0002149075
0.0002146796
0.0002145957
0.0001249122
0.0001246968
0.0001244856
0.0001242768
0.000124066
5.226841e-05
5.203036e-05
5.148578e-05
0.0002177736
0.0002174595
0.0002171295
0.0002167862
0.0002164314
0.0002160676
0.0002156982
0.0002153309
0.0002149874
0.000214747
0.0001250078
0.0001248115
0.0001246273
0.0001244563
0.0001242948
5.240435e-05
5.226077e-05
5.206268e-05
5.165214e-05
0.0001249776
0.0001248607
0.0001247314
0.0001246011
0.0001244775
5.249713e-05
5.237984e-05
5.224836e-05
5.208426e-05
5.179496e-05
0.0001252119
0.0001250733
0.0001249366
0.0001248061
0.0001246853
5.259027e-05
5.247991e-05
5.236532e-05
5.224183e-05
5.209979e-05
3.387818e-05
0.0001254561
0.0001253124
0.0001251716
0.0001250375
0.0001249127
5.268864e-05
5.25823e-05
5.247247e-05
5.235979e-05
5.224102e-05
3.40229e-05
3.391801e-05
0.0001256898
0.0001255479
0.0001254078
0.0001252729
0.0001251451
5.278945e-05
5.268624e-05
5.258007e-05
5.247087e-05
5.23593e-05
3.410827e-05
3.403088e-05
3.393992e-05
0.0001259114
0.000125774
0.0001256374
0.0001255042
0.0001253759
5.289009e-05
5.279042e-05
5.26874e-05
5.258165e-05
5.247286e-05
3.418554e-05
3.411264e-05
3.40356e-05
3.39509e-05
0.0002147724
0.0002142622
0.0002137203
0.0002131444
0.0002125251
0.0002118483
0.0002110925
0.0002102609
0.0002093969
0.0002087186
0.0001203772
0.0002151976
0.0002146627
0.0002141059
0.0002135299
0.000212931
0.0002122968
0.0002116164
0.0002108951
0.0002102501
0.0002100129
0.0001221124
0.0001198232
0.0002156076
0.0002150632
0.0002145056
0.0002139456
0.0002133884
0.0002128364
0.0002122899
0.0002117727
0.0002113668
0.0002113523
0.0001230365
0.000122132
0.0001197885
0.0002160021
0.0002154631
0.0002149169
0.0002143795
0.0002138646
0.0002133834
0.0002129499
0.0002125869
0.0002123601
0.0002124241
0.0001236972
0.0001231551
0.0001222694
0.0001201351
0.0002163815
0.0002158613
0.000215337
0.0002148272
0.0002143491
0.00021392
0.0002135581
0.0002132893
0.0002131552
0.0002132483
0.0001241728
0.0001238083
0.0001233097
0.0001225186
0.0001207456
0.0002167461
0.0002162562
0.0002157631
0.000215285
0.0002148397
0.0002144451
0.0002141218
0.0002138936
0.0002137943
0.0002138748
0.0001245271
0.0001242475
0.0001239191
0.00012349
0.00012284
5.114711e-05
0.000217096
0.0002166461
0.0002161921
0.0002157495
0.0002153341
0.0002149622
0.0002146529
0.0002144293
0.0002143208
0.0002143669
0.0001247965
0.0001245609
0.0001243062
0.0001240228
0.0001236733
5.196167e-05
5.122198e-05
0.0002174312
0.0002170289
0.0002166199
0.0002162159
0.0002158288
0.0002154713
0.0002151594
0.0002149141
0.0002147658
0.0002147572
0.0001250069
0.0001247908
0.0001245723
0.000124348
0.0001241118
5.227215e-05
5.199799e-05
5.13444e-05
0.0002177518
0.000217402
0.0002170417
0.000216678
0.0002163179
0.0002159693
0.0002156429
0.0002153556
0.0002151377
0.0002150497
0.0001251652
0.0001249606
0.0001247608
0.0001245683
0.000124379
5.243042e-05
5.227307e-05
5.203703e-05
5.14999e-05
0.0002180578
0.0002177621
0.0002174511
0.0002171275
0.0002167929
0.0002164497
0.0002161013
0.0002157547
0.0002154299
0.0002151988
0.0001252601
0.0001250715
0.0001248937
0.000124727
0.0001245706
5.252957e-05
5.24086e-05
5.22658e-05
5.206929e-05
5.166333e-05
0.0001252398
0.0001251251
0.0001249972
0.0001248668
0.0001247403
5.261224e-05
5.250167e-05
5.238491e-05
5.225428e-05
5.209107e-05
3.38223e-05
0.0001254611
0.000125327
0.0001251933
0.0001250633
0.00012494
5.270056e-05
5.259462e-05
5.248471e-05
5.237082e-05
5.224793e-05
3.401933e-05
3.388529e-05
0.0001256913
0.0001255532
0.0001254165
0.0001252843
0.0001251582
5.279548e-05
5.269259e-05
5.258664e-05
5.247741e-05
5.236523e-05
3.41107e-05
3.4029e-05
3.392249e-05
0.0001259118
0.0001257758
0.0001256405
0.0001255085
0.0001253811
5.289253e-05
5.2793e-05
5.269012e-05
5.258446e-05
5.247567e-05
3.41872e-05
3.411369e-05
3.403477e-05
3.394336e-05
0.0001261208
0.0001259897
0.0001258582
0.0001257287
0.0001256021
5.298934e-05
5.289329e-05
5.279389e-05
5.269132e-05
5.258589e-05
3.426069e-05
3.419041e-05
3.411604e-05
3.403859e-05
3.395283e-05
0.0001213676
0.0002152316
0.0002147534
0.0002142482
0.0002137163
0.0002131554
0.0002125596
0.000211925
0.0002112548
0.0002106103
0.0002101947
0.0001222737
0.0001207564
0.0002156314
0.0002151298
0.0002146105
0.0002140803
0.0002135425
0.000212999
0.0002124522
0.0002119249
0.0002114901
0.0002113876
0.0001230603
0.0001223292
0.0001204244
0.0002160171
0.0002155057
0.0002149842
0.0002144651
0.0002139593
0.0002134767
0.0002130307
0.0002126456
0.0002123876
0.0002124057
0.0001236809
0.0001231897
0.0001224092
0.0001204998
0.0002163886
0.0002158815
0.0002153689
0.0002148676
0.000214393
0.0002139613
0.0002135902
0.0002133064
0.0002131538
0.0002132258
0.0001241563
0.0001238027
0.0001233274
0.0001225812
0.0001208958
0.0002167461
0.0002162562
0.0002157631
0.000215285
0.0002148397
0.0002144451
0.0002141218
0.0002138936
0.0002137943
0.0002138748
0.0001245271
0.0001242475
0.0001239191
0.00012349
0.00012284
5.114711e-05
0.0002170897
0.0002166283
0.0002161639
0.0002157142
0.0002152964
0.0002149283
0.0002146298
0.0002144236
0.0002143362
0.0002144019
0.00012482
0.0001245834
0.0001243246
0.0001240325
0.0001236673
5.19449e-05
5.116638e-05
0.0002174195
0.0002169958
0.0002165679
0.000216151
0.0002157599
0.0002154103
0.0002151201
0.0002149104
0.0002148068
0.0002148382
0.0001250587
0.000124843
0.0001246211
0.000124388
0.000124136
5.227114e-05
5.196953e-05
5.124017e-05
0.0002177354
0.0002173566
0.0002169711
0.0002165903
0.0002162253
0.0002158883
0.0002155939
0.0002153616
0.000215218
0.0002151998
0.0001252534
0.0001250492
0.0001248449
0.0001246425
0.0001244369
5.244759e-05
5.227676e-05
5.200519e-05
5.136092e-05
0.0002180374
0.0002177081
0.0002173687
0.0002170258
0.0002166862
0.0002163572
0.000216049
0.000215777
0.0002155687
0.000215478
0.0001254051
0.000125209
0.0001250177
0.0001248333
0.0001246553
5.255979e-05
5.243405e-05
5.227765e-05
5.204379e-05
5.151377e-05
0.0002183254
0.0002180472
0.0002177544
0.0002174493
0.0002171338
0.0002168101
0.0002164814
0.0002161542
0.0002158469
0.0002156254
0.0001254993
0.0001253183
0.000125146
0.0001249831
0.0001248283
5.264447e-05
5.253323e-05
5.241277e-05
5.227091e-05
5.207573e-05
3.373788e-05
0.0001254868
0.000125375
0.0001252494
0.0001251196
0.0001249917
5.272162e-05
5.261627e-05
5.250612e-05
5.239003e-05
5.226001e-05
3.401353e-05
3.382995e-05
0.0001256959
0.0001255669
0.0001254368
0.0001253084
0.0001251839
5.28068e-05
5.270445e-05
5.259888e-05
5.248956e-05
5.237615e-05
3.411514e-05
3.402543e-05
3.388994e-05
0.0001259131
0.0001257809
0.0001256487
0.0001255192
0.0001253935
5.289823e-05
5.279903e-05
5.269646e-05
5.259103e-05
5.24822e-05
3.419105e-05
3.411614e-05
3.403288e-05
3.392598e-05
0.0001261212
0.0001259914
0.0001258612
0.0001257328
0.000125607
5.299165e-05
5.289573e-05
5.279647e-05
5.269404e-05
5.258871e-05
3.426252e-05
3.419207e-05
3.411709e-05
3.403776e-05
3.394529e-05
0.0001263186
0.0001261938
0.0001260677
0.0001259424
0.0001258183
5.308457e-05
5.299225e-05
5.289643e-05
5.279741e-05
5.26951e-05
3.43339e-05
3.426508e-05
3.419338e-05
3.411861e-05
3.40402e-05
0.0001215102
0.0001220528
0.0001215245
0.0002156632
0.0002152139
0.0002147406
0.0002142452
0.0002137275
0.0002131873
0.0002126242
0.0002120494
0.0002115052
0.000211175
0.0001229661
0.0001224439
0.0001211584
0.0002160394
0.0002155678
0.0002150813
0.0002145875
0.0002140932
0.000213605
0.0002131334
0.0002127006
0.0002123701
0.0002122952
0.0001236165
0.0001231937
0.0001225603
0.0001210087
0.0002164027
0.0002159214
0.0002154317
0.0002149466
0.0002144783
0.0002140404
0.0002136489
0.000213331
0.0002131343
0.0002131594
0.0001241126
0.0001237793
0.0001233479
0.0001226883
0.0001211838
0.0002167527
0.0002162752
0.0002157931
0.0002153227
0.0002148801
0.000214482
0.000214148
0.0002139026
0.0002137823
0.0002138423
0.0001245048
0.0001242293
0.0001239108
0.000123501
0.0001228865
5.120357e-05
0.0002170897
0.0002166283
0.0002161639
0.0002157142
0.0002152964
0.0002149283
0.0002146298
0.0002144236
0.0002143362
0.0002144019
0.00012482
0.0001245834
0.0001243246
0.0001240325
0.0001236673
5.19449e-05
5.116638e-05
0.0002174136
0.000216979
0.0002165415
0.0002161179
0.0002157245
0.0002153786
0.0002150989
0.0002149059
0.0002148227
0.0002148725
0.0001250817
0.0001248662
0.0001246428
0.0001244055
0.0001241459
5.226941e-05
5.19531e-05
5.118543e-05
0.0002177244
0.0002173254
0.0002169223
0.0002165293
0.0002161606
0.0002158309
0.000215557
0.0002153582
0.0002152567
0.0002152759
0.0001253021
0.0001250992
0.0001248935
0.0001246863
0.0001244717
5.245727e-05
5.227584e-05
5.197728e-05
5.125838e-05
0.000218022
0.0002176655
0.0002173024
0.0002169434
0.0002165992
0.0002162811
0.0002160028
0.0002157821
0.000215643
0.0002156171
0.0001254869
0.0001252915
0.000125097
0.0001249054
0.0001247159
5.258165e-05
5.245094e-05
5.228127e-05
5.201247e-05
5.137715e-05
0.0002183061
0.0002179965
0.000217677
0.0002173539
0.0002170336
0.0002167232
0.0002164321
0.0002161744
0.0002159755
0.0002158839
0.0001256333
0.0001254452
0.0001252606
0.0001250825
0.0001249096
5.267524e-05
5.256281e-05
5.24376e-05
5.228233e-05
5.205037e-05
3.364213e-05
0.0002185769
0.0002183155
0.0002180401
0.0002177527
0.0002174554
0.0002171501
0.0002168399
0.000216531
0.0002162403
0.0002160287
0.0001257264
0.0001255528
0.0001253862
0.0001252269
0.0001250739
5.275245e-05
5.26477e-05
5.253682e-05
5.241701e-05
5.227585e-05
3.400334e-05
3.374673e-05
0.0001257198
0.0001256114
0.0001254887
0.0001253607
0.0001252323
5.282672e-05
5.272522e-05
5.262021e-05
5.251061e-05
5.239497e-05
3.412278e-05
3.401956e-05
3.383507e-05
0.0001259174
0.0001257937
0.0001256677
0.0001255418
0.0001254177
5.290893e-05
5.28103e-05
5.270825e-05
5.260319e-05
5.249425e-05
3.419809e-05
3.412054e-05
3.402928e-05
3.389359e-05
0.0001261225
0.0001259962
0.000125869
0.0001257429
0.0001256187
5.299705e-05
5.290145e-05
5.280251e-05
5.270037e-05
5.259526e-05
3.426676e-05
3.419592e-05
3.411952e-05
3.403586e-05
3.392795e-05
0.0001263189
0.0001261954
0.0001260705
0.0001259462
0.0001258229
5.308676e-05
5.299456e-05
5.289887e-05
5.28e-05
5.269782e-05
3.433573e-05
3.426692e-05
3.419505e-05
3.411965e-05
3.403935e-05
0.0001265053
0.0001263868
0.0001262663
0.0001261456
0.0001260248