/*--------------------------------*- C++ -*----------------------------------*\
| =========                 |                                                 |
| \\      /  F ield         | OpenFOAM: The Open Source CFD Toolbox           |
|  \\    /   O peration     | Version:  2306                                  |
|   \\  /    A nd           | Website:  www.openfoam.com                      |
|    \\/     M anipulation  |                                                 |
\*---------------------------------------------------------------------------*/
FoamFile
{
    version     2.0;
    format      ascii;
    arch        "LSB;label=32;scalar=64";
    class       volScalarField;
    location    "1.2/air";
    object      N2;
}
// * * * * * * * * * * * * * * * * * * * * * * * * * * * * * * * * * * * * * //

dimensions      [0 0 0 0 0 0 0];

internalField   nonuniform List<scalar> 
16000
(
0.7699425
0.7699218
0.7711047
0.7699582
0.769896
0.7710335
0.7699278
0.7726759
0.7712007
0.7700176
0.7698753
0.7709423
0.7698926
0.7725608
0.7711019
0.7699725
0.774634
0.772822
0.7714554
0.770159
0.7698642
0.7708658
0.7698659
0.7724021
0.7709838
0.7699213
0.7745172
0.7726727
0.7713135
0.7700943
0.7766228
0.7747883
0.7731848
0.7719416
0.7704391
0.7698642
0.7708235
0.7698521
0.7722607
0.7708891
0.7698846
0.7743565
0.7724748
0.7711481
0.7700212
0.7765077
0.7746371
0.772996
0.7717499
0.7703495
0.7785611
0.776775
0.7751707
0.773827
0.7727363
0.7709431
0.8100454
0.7698753
0.7708235
0.7698521
0.7721792
0.7708381
0.7698666
0.7742133
0.7723025
0.7710187
0.7699692
0.7763498
0.7744381
0.7727468
0.7715174
0.7702446
0.7784507
0.7766266
0.7749797
0.7735996
0.7724937
0.7708229
0.7804222
0.7787079
0.7771513
0.7758449
0.7748065
0.7739183
0.7717941
0.8086404
0.811558
0.8102679
0.769896
0.7708658
0.7698659
0.7721792
0.7708381
0.7698666
0.7741306
0.7722046
0.7709503
0.7699429
0.7762092
0.7742649
0.7725315
0.7713338
0.7701656
0.7782994
0.7764317
0.7747316
0.7733034
0.772192
0.7706725
0.7803171
0.7785658
0.7769655
0.775619
0.7745428
0.7736244
0.7716321
0.7821995
0.7805621
0.7790707
0.7778117
0.7768606
0.7761743
0.7755672
0.7731693
0.8058026
0.8102984
0.808868
0.8118066
0.8117616
0.8107121
0.7699218
0.7709423
0.7698926
0.7722607
0.7708891
0.7698846
0.7741306
0.7722046
0.7709503
0.7699429
0.7761282
0.7741662
0.7724095
0.7712377
0.7701243
0.7781646
0.7762624
0.7745179
0.7730466
0.7719443
0.7705516
0.7801729
0.7783793
0.7767247
0.7753249
0.7741988
0.7732518
0.7714163
0.7820995
0.7804268
0.7788934
0.7775947
0.7766074
0.7758771
0.7752148
0.7729285
0.7838962
0.7823327
0.7809077
0.7797061
0.7787999
0.7782526
0.7779737
0.7777656
0.7753446
0.8014288
0.80776
0.8060482
0.8106358
0.8105059
0.8093212
0.8117906
0.8119945
0.8121683
0.8113766
0.7699425
0.7710335
0.7699278
0.7724021
0.7709838
0.7699213
0.7742133
0.7723025
0.7710187
0.7699692
0.7761282
0.7741662
0.7724095
0.7712377
0.7701243
0.7780869
0.7761659
0.7743968
0.7728996
0.7718089
0.7704858
0.7800446
0.7782173
0.7765177
0.7750714
0.7739026
0.7729398
0.7712345
0.7819625
0.7802492
0.7786638
0.777313
0.7762748
0.7754858
0.7747618
0.7726023
0.7838011
0.782204
0.780739
0.7795001
0.7785603
0.7779775
0.7776384
0.7773239
0.7748954
0.7855182
0.784023
0.7826616
0.7815124
0.7806541
0.7801433
0.7800435
0.7802449
0.7806147
0.778827
0.7951112
0.803865
0.8017428
0.8082771
0.8079818
0.8065313
0.8106962
0.810827
0.8109193
0.8099966
0.811763
0.8119658
0.8123696
0.8127769
0.8122599
0.7711047
0.7699582
0.7725608
0.7711019
0.7699725
0.7743565
0.7724748
0.7711481
0.7700212
0.7762092
0.7742649
0.7725315
0.7713338
0.7701656
0.7780869
0.7761659
0.7743968
0.7728996
0.7718089
0.7704858
0.7799706
0.778125
0.7764006
0.7749276
0.773735
0.7727663
0.7711329
0.7818406
0.7800951
0.7784665
0.7770706
0.7759866
0.7751478
0.774379
0.7723275
0.7836706
0.7820353
0.7805209
0.7792329
0.7782465
0.7776118
0.7771939
0.7767591
0.7743536
0.7854274
0.7839005
0.7825013
0.7813169
0.7804281
0.7798866
0.7797421
0.7798416
0.7799746
0.7777429
0.7870719
0.7856392
0.7843361
0.7832371
0.7824137
0.7819387
0.7818574
0.782253
0.7830479
0.7843028
0.7848286
0.7982838
0.7957586
0.80466
0.8041429
0.8023275
0.808492
0.8084811
0.8084186
0.8072404
0.8107326
0.8108744
0.8112079
0.8115359
0.8108909
0.811852
0.8119277
0.8123157
0.8129311
0.8135863
0.8135359
0.7726759
0.7712007
0.7700176
0.7745172
0.7726727
0.7713135
0.7700943
0.7763498
0.7744381
0.7727468
0.7715174
0.7702446
0.7781646
0.7762624
0.7745179
0.7730466
0.7719443
0.7705516
0.7799706
0.778125
0.7764006
0.7749276
0.773735
0.7727663
0.7711329
0.7817703
0.7800074
0.7783548
0.7769334
0.7758228
0.7749564
0.7741651
0.7721748
0.7835545
0.7818889
0.7803336
0.7790032
0.7779752
0.7772929
0.7768092
0.7762868
0.7739295
0.785303
0.7837399
0.7822941
0.7810636
0.7801324
0.7795466
0.7793378
0.779314
0.7792177
0.7767751
0.786985
0.7855223
0.7841834
0.7830513
0.7821996
0.7816979
0.7815786
0.7818934
0.7824688
0.7831065
0.7816594
0.7885631
0.7871875
0.7859379
0.784884
0.7840948
0.7836338
0.7835719
0.7839567
0.784925
0.7865381
0.7893403
0.787823
0.799482
0.7988408
0.7967234
0.8051129
0.8049151
0.8046624
0.8031377
0.8086577
0.8086819
0.8088828
0.8090609
0.8081647
0.8108778
0.8109001
0.8112295
0.8117762
0.812353
0.8121783
0.8120343
0.8120078
0.8122567
0.8128395
0.813678
0.8147561
0.813799
0.774634
0.772822
0.7714554
0.770159
0.7765077
0.7746371
0.772996
0.7717499
0.7703495
0.7782994
0.7764317
0.7747316
0.7733034
0.772192
0.7706725
0.7800446
0.7782173
0.7765177
0.7750714
0.7739026
0.7729398
0.7712345
0.7817703
0.7800074
0.7783548
0.7769334
0.7758228
0.7749564
0.7741651
0.7721748
0.7834876
0.7818055
0.7802276
0.7788732
0.7778212
0.7771111
0.7765917
0.7760248
0.7737035
0.7851922
0.7836005
0.7821162
0.780846
0.7798769
0.7792506
0.7789845
0.7788646
0.7786159
0.77612
0.786866
0.785369
0.7839861
0.7828107
0.7819198
0.7813792
0.7812059
0.7814185
0.781776
0.7819888
0.779989
0.7884799
0.7870757
0.7857922
0.784707
0.7838913
0.7834059
0.7833111
0.783624
0.7844007
0.7854402
0.7863824
0.7840898
0.7899973
0.7886739
0.7874731
0.7864608
0.7857007
0.7852558
0.7851838
0.7855655
0.7864817
0.7882025
0.7911964
0.7918702
0.7901527
0.8002784
0.7999942
0.7996769
0.7978458
0.8054773
0.8053501
0.8053919
0.8053856
0.8041396
0.8089161
0.808836
0.8090559
0.8094735
0.8098998
0.8094775
0.811109
0.8110362
0.8112339
0.8117593
0.8125294
0.81353
0.8124437
0.8123067
0.8121822
0.812319
0.8127494
0.8135364
0.8147577
0.8149974
0.8140643
0.7766228
0.7747883
0.7731848
0.7719416
0.7704391
0.7784507
0.7766266
0.7749797
0.7735996
0.7724937
0.7708229
0.7801729
0.7783793
0.7767247
0.7753249
0.7741988
0.7732518
0.7714163
0.7818406
0.7800951
0.7784665
0.7770706
0.7759866
0.7751478
0.774379
0.7723275
0.7834876
0.7818055
0.7802276
0.7788732
0.7778212
0.7771111
0.7765917
0.7760248
0.7737035
0.7851284
0.7835211
0.7820155
0.780723
0.7797319
0.7790822
0.7787832
0.7786131
0.7782913
0.7757947
0.7867601
0.785236
0.7838168
0.7826042
0.7816784
0.7811019
0.780881
0.7810106
0.7812188
0.781195
0.7790278
0.7883658
0.7869291
0.7856039
0.7844778
0.7836257
0.7831046
0.7829626
0.7831861
0.7837711
0.7844128
0.7847007
0.7820572
0.7899173
0.7885667
0.7873337
0.7862918
0.7855067
0.7850391
0.7849368
0.7852538
0.785993
0.787188
0.7884566
0.7884385
0.7862443
0.791379
0.7901037
0.7889476
0.7879732
0.7872407
0.7868066
0.7867308
0.7870751
0.7879568
0.7895691
0.7925467
0.7935317
0.7938515
0.79206
0.8009283
0.8007547
0.8007619
0.8006575
0.7990495
0.8059097
0.8057
0.8057935
0.8060555
0.8062841
0.8055004
0.8092458
0.8090846
0.8091873
0.809606
0.8102452
0.8110932
0.809748
0.8114251
0.8112594
0.8113518
0.811732
0.8124616
0.8136146
0.8137727
0.8127113
0.8126448
0.8124478
0.8124778
0.8127849
0.8134048
0.8145438
0.8149803
0.8152406
0.8143319
0.7785611
0.776775
0.7751707
0.773827
0.7727363
0.7709431
0.7803171
0.7785658
0.7769655
0.775619
0.7745428
0.7736244
0.7716321
0.7819625
0.7802492
0.7786638
0.777313
0.7762748
0.7754858
0.7747618
0.7726023
0.7835545
0.7818889
0.7803336
0.7790032
0.7779752
0.7772929
0.7768092
0.7762868
0.7739295
0.7851284
0.7835211
0.7820155
0.780723
0.7797319
0.7790822
0.7787832
0.7786131
0.7782913
0.7757947
0.7866991
0.7851604
0.783721
0.7824874
0.7815415
0.7809441
0.7806963
0.780781
0.7809166
0.780789
0.7785796
0.7882644
0.786802
0.7854423
0.7842812
0.7833964
0.782843
0.7826589
0.7828111
0.7832631
0.7836803
0.7836767
0.7809157
0.7898078
0.7884262
0.7871536
0.786073
0.7852535
0.7847528
0.7846072
0.7848435
0.7854083
0.7862405
0.7868989
0.7864628
0.7839752
0.7913021
0.7900007
0.7888139
0.7878114
0.7870551
0.7865997
0.7864957
0.7867793
0.7874968
0.7886171
0.7899936
0.7903479
0.7902708
0.7881323
0.7927122
0.7914813
0.7903665
0.789427
0.7887193
0.788297
0.7882123
0.7885307
0.7893439
0.7908756
0.7936545
0.7947226
0.7953557
0.7954866
0.7936709
0.80161
0.8013753
0.8014682
0.8016607
0.801718
0.8005011
0.8063905
0.8061198
0.806116
0.8064105
0.8068798
0.8075096
0.8057803
0.8096498
0.8094057
0.8094165
0.809704
0.8103247
0.8113432
0.8113391
0.8100206
0.8118023
0.8115684
0.8115591
0.8118227
0.8123922
0.8134736
0.8138383
0.8140174
0.8129812
0.8130368
0.8127796
0.8127294
0.8129203
0.8134048
0.8143523
0.8147515
0.8152048
0.815486
0.8146017
0.7804222
0.7787079
0.7771513
0.7758449
0.7748065
0.7739183
0.7717941
0.7820995
0.7804268
0.7788934
0.7775947
0.7766074
0.7758771
0.7752148
0.7729285
0.7836706
0.7820353
0.7805209
0.7792329
0.7782465
0.7776118
0.7771939
0.7767591
0.7743536
0.7851922
0.7836005
0.7821162
0.780846
0.7798769
0.7792506
0.7789845
0.7788646
0.7786159
0.77612
0.7866991
0.7851604
0.783721
0.7824874
0.7815415
0.7809441
0.7806963
0.780781
0.7809166
0.780789
0.7785796
0.7882059
0.7867296
0.785351
0.7841701
0.7832665
0.7826943
0.7824861
0.7826006
0.7829866
0.7833046
0.7831827
0.780393
0.7897104
0.7883044
0.786999
0.7858852
0.7850351
0.7845043
0.7843205
0.7844922
0.7849381
0.7855652
0.7859489
0.7852991
0.7826961
0.7911968
0.7898658
0.7886413
0.7876019
0.7868131
0.7863266
0.7861821
0.7863906
0.7869466
0.7877306
0.7885456
0.7885136
0.788101
0.7857278
0.7926381
0.7913823
0.790238
0.7892717
0.7885415
0.7880989
0.7879874
0.7882488
0.7889068
0.7899763
0.7912531
0.7917522
0.7920293
0.7918851
0.7897725
0.7940006
0.7928108
0.7917342
0.7908269
0.7901424
0.7897303
0.7896403
0.7899288
0.7906905
0.7921142
0.7947353
0.7956997
0.7964199
0.7968562
0.7968805
0.7952647
0.8023074
0.8020319
0.8020448
0.8023032
0.8026313
0.8030076
0.8007983
0.8069295
0.8065899
0.8065126
0.8066951
0.8071769
0.8080038
0.8077618
0.8060619
0.8101058
0.8098022
0.8097208
0.8099048
0.8103792
0.8113474
0.8115695
0.811587
0.8102953
0.8122298
0.8119392
0.811854
0.8120062
0.812447
0.8133437
0.8136823
0.814064
0.8142642
0.8132532
0.8134687
0.8131659
0.8130488
0.8131512
0.8135092
0.814301
0.8145476
0.814961
0.8154313
0.8157333
0.8149309
0.7821995
0.7805621
0.7790707
0.7778117
0.7768606
0.7761743
0.7755672
0.7731693
0.7838011
0.782204
0.780739
0.7795001
0.7785603
0.7779775
0.7776384
0.7773239
0.7748954
0.785303
0.7837399
0.7822941
0.7810636
0.7801324
0.7795466
0.7793378
0.779314
0.7792177
0.7767751
0.7867601
0.785236
0.7838168
0.7826042
0.7816784
0.7811019
0.780881
0.7810106
0.7812188
0.781195
0.7790278
0.7882059
0.7867296
0.785351
0.7841701
0.7832665
0.7826943
0.7824861
0.7826006
0.7829866
0.7833046
0.7831827
0.780393
0.7896543
0.7882351
0.7869117
0.7857791
0.7849114
0.7843631
0.7841577
0.7842949
0.7846829
0.7852186
0.7854899
0.7847494
0.782114
0.7911031
0.7897488
0.7884931
0.7874223
0.7866044
0.7860896
0.7859094
0.7860584
0.7865043
0.7871006
0.7876639
0.7874318
0.7868282
0.7843572
0.7925366
0.7912525
0.7900722
0.7890708
0.7883096
0.7878375
0.7876878
0.7878785
0.7883845
0.7891393
0.7898932
0.7900432
0.7900114
0.7896013
0.7873085
0.7939291
0.7927153
0.7916106
0.7906776
0.7899716
0.7895402
0.7894248
0.7896589
0.7902735
0.7912595
0.7924649
0.7929047
0.7933141
0.7935062
0.7932954
0.791404
0.795247
0.7940957
0.7930544
0.7921771
0.7915141
0.7911122
0.7910167
0.7912818
0.7919899
0.7933285
0.7957787
0.796667
0.7972939
0.7978144
0.7981309
0.7982741
0.7955882
0.8030394
0.8027075
0.8026637
0.8028281
0.8032043
0.8038096
0.8032717
0.8010959
0.8075062
0.8071193
0.8069625
0.8070594
0.8074143
0.8082221
0.8082351
0.8080155
0.8063452
0.8106049
0.8102513
0.8101023
0.8101843
0.8105428
0.81134
0.8115581
0.8117975
0.8118368
0.810572
0.8126941
0.812361
0.8122121
0.8122801
0.8125992
0.8133466
0.8135398
0.8138926
0.8142914
0.8145129
0.813585
0.8139321
0.8135926
0.8134238
0.8134519
0.8137125
0.8143605
0.8144858
0.8147447
0.8151723
0.8156596
0.8160352
0.8152678
0.7838962
0.7823327
0.7809077
0.7797061
0.7787999
0.7782526
0.7779737
0.7777656
0.7753446
0.7854274
0.7839005
0.7825013
0.7813169
0.7804281
0.7798866
0.7797421
0.7798416
0.7799746
0.7777429
0.786866
0.785369
0.7839861
0.7828107
0.7819198
0.7813792
0.7812059
0.7814185
0.781776
0.7819888
0.779989
0.7882644
0.786802
0.7854423
0.7842812
0.7833964
0.782843
0.7826589
0.7828111
0.7832631
0.7836803
0.7836767
0.7809157
0.7896543
0.7882351
0.7869117
0.7857791
0.7849114
0.7843631
0.7841577
0.7842949
0.7846829
0.7852186
0.7854899
0.7847494
0.782114
0.7910491
0.7896822
0.7884094
0.7873207
0.7864862
0.785955
0.7857546
0.7858721
0.7862642
0.786778
0.7872381
0.7869202
0.7862327
0.7837338
0.7924464
0.79114
0.7899299
0.7888985
0.7881097
0.7876107
0.7874274
0.787562
0.7879653
0.7885447
0.7890667
0.7890365
0.788826
0.7882535
0.7858914
0.7938312
0.7925903
0.7914509
0.7904845
0.789749
0.7892894
0.7891377
0.7893045
0.7897755
0.7904644
0.7911794
0.791298
0.7914314
0.791379
0.7909569
0.7889411
0.7951779
0.7940036
0.7929352
0.7920334
0.7913499
0.7909294
0.7908096
0.7910228
0.7915908
0.7925135
0.7936214
0.7940241
0.7943705
0.7946844
0.7947916
0.7947063
0.7917352
0.7964546
0.7953389
0.7943308
0.7934813
0.7928385
0.7924461
0.7923469
0.7925896
0.7932541
0.7945095
0.7968192
0.7976123
0.7981721
0.7986024
0.7989972
0.7993997
0.7985573
0.7959097
0.803789
0.8034203
0.8033068
0.8034028
0.8036731
0.8042978
0.8040509
0.8035363
0.8013938
0.808115
0.8076875
0.8074741
0.8074813
0.8077386
0.8083952
0.8084371
0.8084678
0.8082708
0.8066301
0.8111344
0.8107442
0.810538
0.8105438
0.81079
0.8114508
0.8115379
0.8117705
0.8120273
0.8120885
0.8109095
0.8131873
0.81282
0.8126224
0.8126193
0.8128451
0.8134535
0.8135321
0.8137376
0.8141048
0.8145208
0.8148164
0.8139247
0.8144192
0.8140513
0.8138402
0.81381
0.8139884
0.8145239
0.814536
0.8146721
0.8149434
0.8153853
0.8159381
0.8163439
0.8155242
0.7855182
0.784023
0.7826616
0.7815124
0.7806541
0.7801433
0.7800435
0.7802449
0.7806147
0.778827
0.786985
0.7855223
0.7841834
0.7830513
0.7821996
0.7816979
0.7815786
0.7818934
0.7824688
0.7831065
0.7816594
0.7883658
0.7869291
0.7856039
0.7844778
0.7836257
0.7831046
0.7829626
0.7831861
0.7837711
0.7844128
0.7847007
0.7820572
0.7897104
0.7883044
0.786999
0.7858852
0.7850351
0.7845043
0.7843205
0.7844922
0.7849381
0.7855652
0.7859489
0.7852991
0.7826961
0.7910491
0.7896822
0.7884094
0.7873207
0.7864862
0.785955
0.7857546
0.7858721
0.7862642
0.786778
0.7872381
0.7869202
0.7862327
0.7837338
0.7923943
0.7910759
0.7898494
0.7888011
0.7879965
0.787482
0.7872796
0.7873845
0.7877379
0.7882403
0.7886682
0.7885607
0.7882709
0.787625
0.7852463
0.7937441
0.7924818
0.791314
0.7903189
0.7895571
0.789072
0.7888882
0.789002
0.7893756
0.7898999
0.7903984
0.7903527
0.7903263
0.7901218
0.7895681
0.7875205
0.7950833
0.7938829
0.7927814
0.7918475
0.7911357
0.7906884
0.7905338
0.7906829
0.791114
0.7917549
0.7923998
0.7925046
0.7925992
0.7926976
0.79261
0.792358
0.7892731
0.7963878
0.7952499
0.7942158
0.7933426
0.7926802
0.7922702
0.7921475
0.7923406
0.7928711
0.7937297
0.7947626
0.795101
0.7954073
0.7956554
0.7958751
0.7960708
0.7949928
0.7920642
0.7976253
0.7965435
0.795566
0.7947427
0.7941187
0.7937357
0.7936333
0.7938573
0.7944809
0.7956663
0.7978447
0.7985654
0.7990404
0.799407
0.7997113
0.8001724
0.7996574
0.7988387
0.796229
0.8045546
0.8041526
0.8039907
0.8040078
0.8042002
0.804698
0.8045217
0.8042927
0.8038014
0.8016922
0.8087445
0.8082885
0.8080263
0.807968
0.8081256
0.8086647
0.8085969
0.8086535
0.8087019
0.8085276
0.8069769
0.8116876
0.8112681
0.8110188
0.8109598
0.8111208
0.8116519
0.8116379
0.8117375
0.8119846
0.8122589
0.8123954
0.8112549
0.8137019
0.8133083
0.8130709
0.8130124
0.8131593
0.8136593
0.8136297
0.8137191
0.8139371
0.8143187
0.8148006
0.8151269
0.8141832
0.8149246
0.814534
0.8142894
0.814211
0.814324
0.8147639
0.8146912
0.8147131
0.81486
0.8151437
0.8156452
0.816223
0.8165787
0.8156984
0.7870719
0.7856392
0.7843361
0.7832371
0.7824137
0.7819387
0.7818574
0.782253
0.7830479
0.7843028
0.7848286
0.7884799
0.7870757
0.7857922
0.784707
0.7838913
0.7834059
0.7833111
0.783624
0.7844007
0.7854402
0.7863824
0.7840898
0.7898078
0.7884262
0.7871536
0.786073
0.7852535
0.7847528
0.7846072
0.7848435
0.7854083
0.7862405
0.7868989
0.7864628
0.7839752
0.7911031
0.7897488
0.7884931
0.7874223
0.7866044
0.7860896
0.7859094
0.7860584
0.7865043
0.7871006
0.7876639
0.7874318
0.7868282
0.7843572
0.7923943
0.7910759
0.7898494
0.7888011
0.7879965
0.787482
0.7872796
0.7873845
0.7877379
0.7882403
0.7886682
0.7885607
0.7882709
0.787625
0.7852463
0.7936939
0.7924201
0.7912366
0.7902253
0.7894485
0.7889485
0.7887466
0.7888323
0.7891588
0.789611
0.7900218
0.7899064
0.7898091
0.7895349
0.7889208
0.7868734
0.7949992
0.7937783
0.7926494
0.791688
0.7909511
0.7904795
0.7902943
0.7903927
0.7907315
0.7912165
0.7916578
0.7916108
0.7915605
0.7915241
0.7913124
0.7909596
0.7878522
0.7962963
0.7951333
0.7940673
0.7931633
0.7924738
0.7920381
0.7918822
0.7920139
0.7924137
0.7930039
0.7935976
0.793657
0.7937319
0.7937853
0.7938359
0.7938759
0.7926429
0.7896034
0.7975606
0.7964574
0.7954548
0.7946088
0.7939659
0.793566
0.7934411
0.7936175
0.7941126
0.7949186
0.7958782
0.7961714
0.7964132
0.7966194
0.7967708
0.7970578
0.7963306
0.7952776
0.7923911
0.7987621
0.7977114
0.7967632
0.795964
0.795358
0.7949837
0.794879
0.7950863
0.7956745
0.7967954
0.7988606
0.7995129
0.7999252
0.8002117
0.800453
0.8008116
0.8004111
0.7999135
0.7991184
0.7965463
0.8053271
0.8049026
0.8046973
0.8046579
0.8047639
0.8051671
0.8049078
0.804746
0.8045348
0.804067
0.8020538
0.8093895
0.8089109
0.8086128
0.808498
0.8085815
0.8090043
0.8088553
0.8088
0.8088712
0.8089375
0.8088403
0.807332
0.8122575
0.8118161
0.8115316
0.8114227
0.8115111
0.8119419
0.8118295
0.8118265
0.8119386
0.8122003
0.8125413
0.8127095
0.8115179
0.8142327
0.8138185
0.8135496
0.8134453
0.8135297
0.8139374
0.8138272
0.8138073
0.8139077
0.8141381
0.8145796
0.8150868
0.815363
0.8143589
0.8154437
0.8150353
0.8147633
0.8146459
0.8147044
0.815067
0.8149238
0.8148599
0.8148916
0.8150495
0.8153882
0.8159109
0.8164395
0.8167381
0.8157875
0.7951112
0.7885631
0.7871875
0.7859379
0.784884
0.7840948
0.7836338
0.7835719
0.7839567
0.784925
0.7865381
0.7893403
0.787823
0.7899173
0.7885667
0.7873337
0.7862918
0.7855067
0.7850391
0.7849368
0.7852538
0.785993
0.787188
0.7884566
0.7884385
0.7862443
0.7911968
0.7898658
0.7886413
0.7876019
0.7868131
0.7863266
0.7861821
0.7863906
0.7869466
0.7877306
0.7885456
0.7885136
0.788101
0.7857278
0.7924464
0.79114
0.7899299
0.7888985
0.7881097
0.7876107
0.7874274
0.787562
0.7879653
0.7885447
0.7890667
0.7890365
0.788826
0.7882535
0.7858914
0.7936939
0.7924201
0.7912366
0.7902253
0.7894485
0.7889485
0.7887466
0.7888323
0.7891588
0.789611
0.7900218
0.7899064
0.7898091
0.7895349
0.7889208
0.7868734
0.7949507
0.7937188
0.7925748
0.791598
0.7908466
0.7903608
0.7901584
0.7902301
0.7905241
0.7909409
0.7913002
0.7911889
0.7910747
0.7909765
0.7907069
0.7903077
0.7872049
0.7962149
0.7950322
0.7939399
0.7930096
0.7922961
0.7918369
0.7916517
0.791735
0.7920467
0.7924887
0.7928898
0.7928076
0.7927494
0.7926814
0.7926235
0.7925666
0.791243
0.7881826
0.797472
0.7963446
0.7953113
0.7944357
0.7937669
0.7933422
0.7931853
0.7933028
0.7936729
0.7942225
0.7947639
0.7947943
0.7948208
0.7948501
0.7948506
0.7950043
0.7941333
0.7929265
0.7899321
0.7986994
0.797628
0.7966556
0.7958346
0.7952104
0.7948198
0.7946935
0.7948549
0.7953198
0.796077
0.796976
0.7972239
0.7974206
0.7975626
0.797671
0.7978771
0.7972979
0.7965887
0.7955605
0.7927157
0.799866
0.7988455
0.7979241
0.7971482
0.7965587
0.7961931
0.7960864
0.7962789
0.7968352
0.7978994
0.7998613
0.8004581
0.8008116
0.8010402
0.8012035
0.8014904
0.8010351
0.8006482
0.800168
0.7993965
0.7969277
0.8061035
0.805661
0.8054239
0.8053344
0.8053776
0.8056806
0.8053651
0.8051181
0.8049707
0.8047774
0.8043888
0.802424
0.8100442
0.8095495
0.8092222
0.8090644
0.809084
0.8094182
0.8091851
0.809047
0.8090043
0.8090902
0.8092242
0.8091603
0.8076025
0.8128396
0.8123813
0.8120694
0.8119193
0.8119507
0.8122956
0.8121111
0.8120085
0.8120165
0.8121412
0.8124633
0.8128302
0.8129484
0.8116967
0.8147755
0.8143451
0.8140508
0.8139096
0.8139418
0.814275
0.8140978
0.8139964
0.8139864
0.8140978
0.8143835
0.8148463
0.8153043
0.8155233
0.8144488
0.8159734
0.8155506
0.8152565
0.8151068
0.8151204
0.8154176
0.8152201
0.8150851
0.8150301
0.8150716
0.8152807
0.815638
0.8161128
0.8165864
0.8168195
0.8014288
0.7982838
0.7957586
0.7899973
0.7886739
0.7874731
0.7864608
0.7857007
0.7852558
0.7851838
0.7855655
0.7864817
0.7882025
0.7911964
0.7918702
0.7901527
0.7913021
0.7900007
0.7888139
0.7878114
0.7870551
0.7865997
0.7864957
0.7867793
0.7874968
0.7886171
0.7899936
0.7903479
0.7902708
0.7881323
0.7925366
0.7912525
0.7900722
0.7890708
0.7883096
0.7878375
0.7876878
0.7878785
0.7883845
0.7891393
0.7898932
0.7900432
0.7900114
0.7896013
0.7873085
0.7937441
0.7924818
0.791314
0.7903189
0.7895571
0.789072
0.7888882
0.789002
0.7893756
0.7898999
0.7903984
0.7903527
0.7903263
0.7901218
0.7895681
0.7875205
0.7949507
0.7937188
0.7925748
0.791598
0.7908466
0.7903608
0.7901584
0.7902301
0.7905241
0.7909409
0.7913002
0.7911889
0.7910747
0.7909765
0.7907069
0.7903077
0.7872049
0.796168
0.7949747
0.7938679
0.7929228
0.7921954
0.7917227
0.791521
0.7915787
0.7918477
0.7922251
0.7925486
0.7924067
0.7922899
0.7921666
0.7920579
0.7919554
0.7905902
0.7875354
0.7973931
0.7962468
0.7951883
0.7942873
0.7935953
0.7931482
0.7929633
0.7930344
0.7933201
0.7937283
0.7940869
0.7939842
0.7938871
0.7938057
0.7937095
0.7937797
0.7928219
0.7915253
0.7885118
0.7986135
0.7975187
0.7965167
0.7956673
0.795018
0.7946037
0.7944466
0.7945515
0.7948964
0.795408
0.7959077
0.7959069
0.7959021
0.795881
0.795854
0.7959425
0.7952419
0.7943894
0.7932087
0.7902592
0.7998051
0.7987647
0.7978199
0.7970229
0.7964159
0.7960347
0.7959071
0.7960555
0.7964931
0.7972079
0.7980515
0.7982646
0.798417
0.7985146
0.7985596
0.7987134
0.7981016
0.7975364
0.796845
0.7958416
0.7931059
0.8009403
0.7999469
0.7990518
0.798297
0.7977236
0.797366
0.7972581
0.7974372
0.7979648
0.7989775
0.8008474
0.8013945
0.8017016
0.8018764
0.8019841
0.8021867
0.801701
0.8012571
0.8008839
0.8004209
0.799731
0.7973183
0.8068794
0.8064244
0.8061611
0.8060337
0.8060215
0.8062501
0.8058684
0.8055634
0.8053287
0.8051958
0.8050714
0.8047183
0.8027061
0.8107049
0.8101983
0.8098486
0.8096554
0.8096255
0.809883
0.8095904
0.809367
0.8092399
0.8092098
0.8093569
0.8095176
0.8094037
0.8077863
0.8134301
0.812959
0.8126252
0.8124421
0.812426
0.812702
0.8124572
0.8122816
0.8121889
0.812208
0.8123883
0.8127323
0.8130498
0.8131106
0.8117882
0.8153273
0.8148841
0.8145692
0.8143976
0.8143871
0.8146572
0.8144287
0.8142595
0.8141671
0.814167
0.8143298
0.8146342
0.815049
0.8154518
0.8156052
0.8165108
0.8160768
0.8157643
0.8155877
0.8155638
0.8158063
0.8155646
0.8153746
0.8152477
0.8152016
0.8152912
0.815517
0.8158278
0.8162497
0.8166613
0.8058026
0.803865
0.8017428
0.799482
0.7988408
0.7967234
0.791379
0.7901037
0.7889476
0.7879732
0.7872407
0.7868066
0.7867308
0.7870751
0.7879568
0.7895691
0.7925467
0.7935317
0.7938515
0.79206
0.7926381
0.7913823
0.790238
0.7892717
0.7885415
0.7880989
0.7879874
0.7882488
0.7889068
0.7899763
0.7912531
0.7917522
0.7920293
0.7918851
0.7897725
0.7938312
0.7925903
0.7914509
0.7904845
0.789749
0.7892894
0.7891377
0.7893045
0.7897755
0.7904644
0.7911794
0.791298
0.7914314
0.791379
0.7909569
0.7889411
0.7949992
0.7937783
0.7926494
0.791688
0.7909511
0.7904795
0.7902943
0.7903927
0.7907315
0.7912165
0.7916578
0.7916108
0.7915605
0.7915241
0.7913124
0.7909596
0.7878522
0.796168
0.7949747
0.7938679
0.7929228
0.7921954
0.7917227
0.791521
0.7915787
0.7918477
0.7922251
0.7925486
0.7924067
0.7922899
0.7921666
0.7920579
0.7919554
0.7905902
0.7875354
0.7973477
0.7961911
0.7951187
0.7942035
0.7934983
0.7930381
0.7928373
0.7928839
0.7931289
0.7934754
0.7937605
0.7936019
0.7934504
0.7933187
0.7931774
0.7932082
0.7922097
0.7908719
0.7878648
0.7985371
0.797424
0.7963977
0.7955238
0.7948524
0.7944165
0.7942324
0.7942926
0.7945567
0.7949331
0.7952585
0.795132
0.7950115
0.7948883
0.7947742
0.7947894
0.7940151
0.7930762
0.7918064
0.7888398
0.7997217
0.7986588
0.7976854
0.796861
0.7962298
0.7958258
0.7956686
0.7957625
0.7960847
0.7965639
0.7970251
0.797002
0.7969648
0.796911
0.7968323
0.7968824
0.7961645
0.7954782
0.7946442
0.7934895
0.7906529
0.8008812
0.7998685
0.7989507
0.7981756
0.7975853
0.7972126
0.7970846
0.7972211
0.7976345
0.7983109
0.7991063
0.799288
0.7994068
0.7994616
0.7994633
0.799547
0.798925
0.7983247
0.7977733
0.7970996
0.7961796
0.7935056
0.8019846
0.8010189
0.800147
0.7994133
0.7988543
0.7985049
0.7983958
0.7985631
0.7990645
0.8000307
0.8018168
0.8023214
0.8025876
0.8027208
0.8027775
0.8029194
0.8023863
0.8019103
0.8014777
0.8011181
0.8007251
0.8000732
0.7976158
0.8076525
0.8071883
0.806905
0.806746
0.8066914
0.8068544
0.8064288
0.8060564
0.8057621
0.8055396
0.8054686
0.8053722
0.804969
0.8028979
0.8113686
0.8108534
0.8104863
0.8102651
0.8101937
0.8103905
0.8100474
0.8097636
0.80955
0.809434
0.80946
0.8096295
0.8097406
0.8095691
0.8078805
0.8140265
0.8135454
0.8131942
0.8129841
0.8129293
0.8131469
0.8128568
0.8126201
0.8124535
0.8123707
0.8124415
0.8126409
0.8129367
0.8131987
0.8131935
0.8158855
0.8154323
0.8151005
0.8149037
0.8148574
0.815075
0.8148047
0.8145836
0.8144226
0.8143392
0.8143872
0.8145668
0.8148246
0.8151864
0.8155271
0.8170541
0.8166109
0.8162833
0.8160842
0.8160285
0.8162244
0.8159477
0.8157129
0.8155304
0.8154116
0.8154109
0.8155156
0.8156964
0.8159563
0.8163195
0.8086404
0.80776
0.8060482
0.80466
0.8041429
0.8023275
0.8002784
0.7999942
0.7996769
0.7978458
0.7927122
0.7914813
0.7903665
0.789427
0.7887193
0.788297
0.7882123
0.7885307
0.7893439
0.7908756
0.7936545
0.7947226
0.7953557
0.7954866
0.7936709
0.7939291
0.7927153
0.7916106
0.7906776
0.7899716
0.7895402
0.7894248
0.7896589
0.7902735
0.7912595
0.7924649
0.7929047
0.7933141
0.7935062
0.7932954
0.791404
0.7950833
0.7938829
0.7927814
0.7918475
0.7911357
0.7906884
0.7905338
0.7906829
0.791114
0.7917549
0.7923998
0.7925046
0.7925992
0.7926976
0.79261
0.792358
0.7892731
0.7962149
0.7950322
0.7939399
0.7930096
0.7922961
0.7918369
0.7916517
0.791735
0.7920467
0.7924887
0.7928898
0.7928076
0.7927494
0.7926814
0.7926235
0.7925666
0.791243
0.7881826
0.7973477
0.7961911
0.7951187
0.7942035
0.7934983
0.7930381
0.7928373
0.7928839
0.7931289
0.7934754
0.7937605
0.7936019
0.7934504
0.7933187
0.7931774
0.7932082
0.7922097
0.7908719
0.7878648
0.798493
0.7973701
0.7963304
0.7954428
0.7947586
0.7943102
0.7941108
0.7941475
0.7943726
0.7946901
0.7949455
0.7947662
0.794595
0.7944253
0.7942707
0.7942514
0.7934425
0.7924631
0.7911525
0.7881932
0.7996476
0.798567
0.7975701
0.7967222
0.7960696
0.7956448
0.7954616
0.7955125
0.7957571
0.7961068
0.7964014
0.7962591
0.7961129
0.7959642
0.7958058
0.7957909
0.7950092
0.7942495
0.7933295
0.7920865
0.7892352
0.8008002
0.7997657
0.7988203
0.7980187
0.7974052
0.7970104
0.7968539
0.7969378
0.7972401
0.7976901
0.7981186
0.7980752
0.7980147
0.797928
0.7978161
0.7978063
0.7970915
0.7963854
0.7957133
0.7948976
0.7938275
0.7910562
0.8019271
0.8009427
0.800049
0.7992956
0.7987203
0.7983563
0.7982278
0.798354
0.7987451
0.7993872
0.8001391
0.800295
0.8003839
0.8004067
0.8003672
0.8004025
0.7997475
0.7991351
0.7985463
0.7980087
0.7974057
0.7965256
0.7938101
0.8030035
0.802061
0.8012132
0.8004979
0.7999537
0.7996114
0.7995018
0.7996582
0.8001359
0.8010593
0.8027691
0.8032363
0.8034684
0.8035655
0.8035834
0.8036703
0.8031094
0.8025847
0.8021183
0.8016969
0.8013997
0.8010362
0.8003337
0.7978181
0.8084206
0.8079503
0.807651
0.8074672
0.8073769
0.8074887
0.807025
0.8066077
0.8062448
0.8059611
0.8057953
0.8057476
0.8056009
0.8051393
0.8029961
0.8120331
0.811512
0.8111311
0.8108872
0.8107825
0.8109276
0.8105478
0.8102128
0.8099378
0.8097341
0.8096703
0.8097158
0.8098368
0.809892
0.8096536
0.8146262
0.8141379
0.8137726
0.8135403
0.8134532
0.8136224
0.8132955
0.8130128
0.8127843
0.8126267
0.8125924
0.8126802
0.8128328
0.8130752
0.8132748
0.8164481
0.8159871
0.8156416
0.8154235
0.8153472
0.8155199
0.8152168
0.8149534
0.8147398
0.814587
0.8145491
0.8146123
0.8147468
0.8149537
0.8152565
0.8176012
0.8171511
0.8168109
0.8165927
0.8165099
0.8166657
0.8163606
0.8160903
0.8158625
0.8156875
0.8156117
0.8156248
0.8156859
0.8158179
0.8160219
0.8100454
0.8102984
0.808868
0.8082771
0.8079818
0.8065313
0.8051129
0.8049151
0.8046624
0.8031377
0.8009283
0.8007547
0.8007619
0.8006575
0.7990495
0.7940006
0.7928108
0.7917342
0.7908269
0.7901424
0.7897303
0.7896403
0.7899288
0.7906905
0.7921142
0.7947353
0.7956997
0.7964199
0.7968562
0.7968805
0.7952647
0.7951779
0.7940036
0.7929352
0.7920334
0.7913499
0.7909294
0.7908096
0.7910228
0.7915908
0.7925135
0.7936214
0.7940241
0.7943705
0.7946844
0.7947916
0.7947063
0.7917352
0.7962963
0.7951333
0.7940673
0.7931633
0.7924738
0.7920381
0.7918822
0.7920139
0.7924137
0.7930039
0.7935976
0.793657
0.7937319
0.7937853
0.7938359
0.7938759
0.7926429
0.7896034
0.7973931
0.7962468
0.7951883
0.7942873
0.7935953
0.7931482
0.7929633
0.7930344
0.7933201
0.7937283
0.7940869
0.7939842
0.7938871
0.7938057
0.7937095
0.7937797
0.7928219
0.7915253
0.7885118
0.798493
0.7973701
0.7963304
0.7954428
0.7947586
0.7943102
0.7941108
0.7941475
0.7943726
0.7946901
0.7949455
0.7947662
0.794595
0.7944253
0.7942707
0.7942514
0.7934425
0.7924631
0.7911525
0.7881932
0.7996049
0.7985148
0.7975049
0.7966438
0.7959789
0.795542
0.7953442
0.7953725
0.7955796
0.7958728
0.7961007
0.7959083
0.7957145
0.7955226
0.7953272
0.7952817
0.7944701
0.7936759
0.7927156
0.7914323
0.7885893
0.8007282
0.7996766
0.7987085
0.7978842
0.7972501