/*--------------------------------*- C++ -*----------------------------------*\
| =========                 |                                                 |
| \\      /  F ield         | OpenFOAM: The Open Source CFD Toolbox           |
|  \\    /   O peration     | Version:  2306                                  |
|   \\  /    A nd           | Website:  www.openfoam.com                      |
|    \\/     M anipulation  |                                                 |
\*---------------------------------------------------------------------------*/
FoamFile
{
    version     2.0;
    format      ascii;
    arch        "LSB;label=32;scalar=64";
    class       volScalarField;
    location    "1.2/air";
    object      nernst;
}
// * * * * * * * * * * * * * * * * * * * * * * * * * * * * * * * * * * * * * //

dimensions      [1 2 -3 0 0 -1 0];

internalField   nonuniform List<scalar> 
16000
(
-0.6717769
-0.6643245
-0.6805609
-0.664206
-0.6602907
-0.6784894
-0.6462986
-0.6829127
-0.6784795
-0.660073
-0.6580375
-0.676704
-0.6353518
-0.6819693
-0.6723884
-0.635188
-0.6849043
-0.6820237
-0.6766966
-0.657703
-0.6569979
-0.6753947
-0.6288788
-0.6811183
-0.6670743
-0.618833
-0.6844141
-0.679264
-0.6670254
-0.6284409
-0.686701
-0.6844942
-0.6812435
-0.6753941
-0.6565155
-0.6569979
-0.6747033
-0.6258364
-0.6804661
-0.6631495
-0.6087148
-0.6839763
-0.6767428
-0.658445
-0.6083346
-0.6864132
-0.6831065
-0.6768013
-0.6629973
-0.6249595
-0.6883508
-0.6864994
-0.6841547
-0.6806834
-0.6747189
-0.6563244
-0.6852894
-0.6580375
-0.6747033
-0.6258364
-0.6801114
-0.6610694
-0.6038402
-0.6836414
-0.6747953
-0.6520375
-0.5955086
-0.6861619
-0.6818458
-0.6726808
-0.6518621
-0.602772
-0.6881605
-0.6857204
-0.6819487
-0.6749144
-0.66076
-0.6243363
-0.6898757
-0.6882449
-0.686353
-0.6839473
-0.6804502
-0.6747625
-0.657132
-0.6850665
-0.6871074
-0.6864205
-0.6602907
-0.6753947
-0.6288788
-0.6801114
-0.6610694
-0.6038402
-0.6834589
-0.6737317
-0.6486181
-0.5892198
-0.6859726
-0.680872
-0.6694637
-0.6434654
-0.5883776
-0.6879982
-0.6850269
-0.6799102
-0.6695002
-0.6481286
-0.6017331
-0.6897333
-0.6877551
-0.6851434
-0.6811099
-0.6739273
-0.6605876
-0.6265657
-0.6912936
-0.689813
-0.6881859
-0.6863003
-0.6839302
-0.6806185
-0.6755612
-0.6591128
-0.6846125
-0.6869375
-0.6861781
-0.6887751
-0.6881533
-0.6875874
-0.6643245
-0.676704
-0.6353518
-0.6804661
-0.6631495
-0.6087148
-0.6834589
-0.6737317
-0.6486181
-0.5892198
-0.6858705
-0.6803384
-0.6676958
-0.6389579
-0.5812494
-0.6878781
-0.6844999
-0.6783152
-0.665234
-0.6385458
-0.5870113
-0.6896142
-0.6873289
-0.6840469
-0.6784518
-0.6677589
-0.6477302
-0.605232
-0.6911768
-0.6894619
-0.6874457
-0.6847764
-0.6807596
-0.6740592
-0.6625662
-0.6320118
-0.6926174
-0.6912511
-0.6897922
-0.6882007
-0.6863741
-0.6841458
-0.6812171
-0.6771046
-0.6627797
-0.6838853
-0.6866002
-0.6856711
-0.6886248
-0.6879837
-0.6873292
-0.6903087
-0.6897047
-0.6892264
-0.6887934
-0.6717769
-0.6784894
-0.6462986
-0.6811183
-0.6670743
-0.618833
-0.6836414
-0.6747953
-0.6520375
-0.5955086
-0.6858705
-0.6803384
-0.6676958
-0.6389579
-0.5812494
-0.6878139
-0.6842142
-0.6774347
-0.6628767
-0.6333822
-0.5797031
-0.6895274
-0.6870116
-0.6832026
-0.6763489
-0.6628687
-0.6379568
-0.5914532
-0.6910802
-0.689163
-0.68679
-0.6833745
-0.6777599
-0.6678312
-0.6507984
-0.6136624
-0.6925155
-0.6909713
-0.6892749
-0.6872916
-0.6847088
-0.6810188
-0.6753766
-0.6666004
-0.6416418
-0.6938576
-0.6925844
-0.6912471
-0.6898346
-0.6883103
-0.6865989
-0.6846142
-0.682237
-0.6793635
-0.6695567
-0.6826125
-0.6861
-0.6848145
-0.6883281
-0.6876488
-0.6867834
-0.6901707
-0.6895601
-0.689057
-0.6885244
-0.6917337
-0.6911276
-0.6906574
-0.6903273
-0.6900395
-0.6805609
-0.664206
-0.6819693
-0.6723884
-0.635188
-0.6839763
-0.6767428
-0.658445
-0.6083346
-0.6859726
-0.680872
-0.6694637
-0.6434654
-0.5883776
-0.6878139
-0.6842142
-0.6774347
-0.6628767
-0.6333822
-0.5797031
-0.6894815
-0.6868418
-0.6827411
-0.6751805
-0.6601571
-0.6326843
-0.5846446
-0.6910104
-0.6889451
-0.6862956
-0.682282
-0.675368
-0.6628791
-0.6418697
-0.6020441
-0.6924315
-0.6907367
-0.6888273
-0.6864741
-0.6831584
-0.6780383
-0.6698137
-0.6571093
-0.6279835
-0.6937655
-0.6923442
-0.6908423
-0.6892146
-0.6873446
-0.6850056
-0.6819309
-0.6777964
-0.6724228
-0.6576715
-0.6950226
-0.6938296
-0.6925877
-0.6912997
-0.689955
-0.6885306
-0.6869898
-0.6853415
-0.6836768
-0.6824313
-0.6778431
-0.6854654
-0.6832604
-0.6878972
-0.6871611
-0.6858538
-0.6898991
-0.6892798
-0.6887231
-0.6879557
-0.6916046
-0.690997
-0.6905174
-0.6901577
-0.6897652
-0.6930751
-0.6924557
-0.6919674
-0.6916329
-0.6914553
-0.6908132
-0.6829127
-0.6784795
-0.660073
-0.6844141
-0.679264
-0.6670254
-0.6284409
-0.6861619
-0.6818458
-0.6726808
-0.6518621
-0.602772
-0.6878781
-0.6844999
-0.6783152
-0.665234
-0.6385458
-0.5870113
-0.6894815
-0.6868418
-0.6827411
-0.6751805
-0.6601571
-0.6326843
-0.5846446
-0.6909738
-0.6888301
-0.6860289
-0.6816804
-0.6740326
-0.6601287
-0.6370592
-0.5963647
-0.6923712
-0.6905684
-0.6884974
-0.6858501
-0.6819383
-0.6756484
-0.6653844
-0.6499328
-0.619561
-0.6936896
-0.6921446
-0.690498
-0.6886707
-0.6864647
-0.6835042
-0.6793448
-0.6735149
-0.6660808
-0.6502342
-0.6949376
-0.6936142
-0.6922436
-0.6908231
-0.689315
-0.6876438
-0.6856973
-0.6834661
-0.6811318
-0.6796575
-0.6731549
-0.6961194
-0.6949975
-0.6938359
-0.6926429
-0.691421
-0.6901653
-0.688874
-0.6875617
-0.6863632
-0.6857154
-0.6852384
-0.6795552
-0.6874099
-0.6865745
-0.6842509
-0.6895072
-0.6888943
-0.6882408
-0.6870002
-0.6913506
-0.6907457
-0.6902493
-0.6898232
-0.6891878
-0.6929532
-0.6923343
-0.6918428
-0.6914961
-0.6912852
-0.6905387
-0.6943373
-0.6937142
-0.693197
-0.6928275
-0.6926302
-0.6921521
-0.6909132
-0.6849043
-0.6820237
-0.6766966
-0.657703
-0.6864132
-0.6831065
-0.6768013
-0.6629973
-0.6249595
-0.6879982
-0.6850269
-0.6799102
-0.6695002
-0.6481286
-0.6017331
-0.6895274
-0.6870116
-0.6832026
-0.6763489
-0.6628687
-0.6379568
-0.5914532
-0.6909738
-0.6888301
-0.6860289
-0.6816804
-0.6740326
-0.6601287
-0.6370592
-0.5963647
-0.6923397
-0.6904805
-0.6883222
-0.6855109
-0.6812624
-0.67431
-0.6629235
-0.646076
-0.6154991
-0.6936352
-0.6920027
-0.6902488
-0.6882654
-0.6857854
-0.6823114
-0.677257
-0.670089
-0.6612739
-0.6456729
-0.6948676
-0.6934359
-0.6919542
-0.6904131
-0.6887459
-0.6868214
-0.6844486
-0.6815855
-0.6785051
-0.6768096
-0.669548
-0.6960402
-0.6947996
-0.6935289
-0.6922421
-0.6909393
-0.6896021
-0.6882127
-0.6867866
-0.6855642
-0.6852156
-0.6843086
-0.6757239
-0.6971538
-0.6960963
-0.695005
-0.6938908
-0.6927608
-0.6916203
-0.6904762
-0.6893582
-0.688366
-0.6879011
-0.6879678
-0.6861431
-0.6812862
-0.6890827
-0.6885272
-0.687663
-0.685458
-0.6909844
-0.6904078
-0.6898904
-0.6893393
-0.6882388
-0.692713
-0.6921012
-0.691607
-0.6912349
-0.6909486
-0.6899633
-0.6942212
-0.6935997
-0.693082
-0.6927072
-0.692495
-0.6919817
-0.6906388
-0.6955288
-0.6949061
-0.6943715
-0.6939571
-0.6937066
-0.6932482
-0.6922424
-0.6910136
-0.686701
-0.6844942
-0.6812435
-0.6753941
-0.6565155
-0.6881605
-0.6857204
-0.6819487
-0.6749144
-0.66076
-0.6243363
-0.6896142
-0.6873289
-0.6840469
-0.6784518
-0.6677589
-0.6477302
-0.605232
-0.6910104
-0.6889451
-0.6862956
-0.682282
-0.675368
-0.6628791
-0.6418697
-0.6020441
-0.6923397
-0.6904805
-0.6883222
-0.6855109
-0.6812624
-0.67431
-0.6629235
-0.646076
-0.6154991
-0.6936068
-0.6919291
-0.6901181
-0.6880486
-0.6854135
-0.6816471
-0.6760838
-0.6681828
-0.6586906
-0.6434745
-0.6948174
-0.6933098
-0.6917471
-0.6901135
-0.6883169
-0.6861776
-0.6834403
-0.6800364
-0.6763482
-0.6745682
-0.6671493
-0.6959748
-0.6946361
-0.6932721
-0.6919016
-0.6905198
-0.6890906
-0.687571
-0.6859595
-0.684558
-0.684263
-0.6831779
-0.6726519
-0.6970796
-0.6959123
-0.6947236
-0.6935349
-0.6923606
-0.6912106
-0.6900961
-0.6890675
-0.6882784
-0.6882185
-0.6879872
-0.6853265
-0.6781612
-0.6981309
-0.6971325
-0.6961044
-0.6950585
-0.694004
-0.6929493
-0.6919074
-0.6909058
-0.6900382
-0.6896291
-0.6898278
-0.6887275
-0.6871218
-0.6830413
-0.6905909
-0.6901211
-0.6895562
-0.688751
-0.6868026
-0.6923663
-0.6917896
-0.6913018
-0.690885
-0.6904574
-0.6890291
-0.6939923
-0.6933798
-0.692865
-0.6924805
-0.6922353
-0.6916435
-0.6900638
-0.6954177
-0.6947971
-0.6942633
-0.6938466
-0.6935885
-0.693113
-0.692072
-0.6907393
-0.6966537
-0.6960381
-0.6954923
-0.6950465
-0.6947346
-0.6942554
-0.693329
-0.692333
-0.6911145
-0.6883508
-0.6864994
-0.6841547
-0.6806834
-0.6747189
-0.6563244
-0.6897333
-0.6877551
-0.6851434
-0.6811099
-0.6739273
-0.6605876
-0.6265657
-0.6910802
-0.689163
-0.68679
-0.6833745
-0.6777599
-0.6678312
-0.6507984
-0.6136624
-0.6923712
-0.6905684
-0.6884974
-0.6858501
-0.6819383
-0.6756484
-0.6653844
-0.6499328
-0.619561
-0.6936068
-0.6919291
-0.6901181
-0.6880486
-0.6854135
-0.6816471
-0.6760838
-0.6681828
-0.6586906
-0.6434745
-0.6947912
-0.6932447
-0.6916394
-0.6899553
-0.6880856
-0.6858223
-0.682874
-0.6791585
-0.6751369
-0.6733468
-0.6659558
-0.6959278
-0.6945206
-0.6930895
-0.691656
-0.6902099
-0.6886981
-0.6870531
-0.6852569
-0.6836595
-0.683375
-0.6822304
-0.670569
-0.6970181
-0.6957602
-0.6944887
-0.6932345
-0.6920168
-0.6908453
-0.6897262
-0.6887087
-0.6879582
-0.6880363
-0.6877191
-0.684383
-0.675583
-0.6980612
-0.6969602
-0.6958428
-0.6947328
-0.6936505
-0.6926154
-0.6916544
-0.6908178
-0.690239
-0.6902327
-0.6901665
-0.6886853
-0.6863774
-0.6805032
-0.6990549
-0.6981111
-0.6971409
-0.6961562
-0.6951668
-0.6941828
-0.6932175
-0.6922997
-0.6915082
-0.6911298
-0.6913275
-0.6904934
-0.6895322
-0.6881437
-0.6848123
-0.6919907
-0.6915336
-0.691056
-0.6905387
-0.6898464
-0.6876579
-0.6936611
-0.6930855
-0.6925872
-0.6921883
-0.6918807
-0.6911468
-0.6891315
-0.6951986
-0.6945875
-0.6940592
-0.6936395
-0.6933651
-0.6928522
-0.6917337
-0.6901648
-0.6965471
-0.6959337
-0.6953893
-0.6949428
-0.6946265
-0.6941375
-0.6931937
-0.6921626
-0.6908404
-0.6977178
-0.6971127
-0.696564
-0.6960952
-0.6957377
-0.6952244
-0.6943277
-0.6934099
-0.6924241
-0.6912158
-0.6898757
-0.6882449
-0.686353
-0.6839473
-0.6804502
-0.6747625
-0.657132
-0.6911768
-0.6894619
-0.6874457
-0.6847764
-0.6807596
-0.6740592
-0.6625662
-0.6320118
-0.6924315
-0.6907367
-0.6888273
-0.6864741
-0.6831584
-0.6780383
-0.6698137
-0.6571093
-0.6279835
-0.6936352
-0.6920027
-0.6902488
-0.6882654
-0.6857854
-0.6823114
-0.677257
-0.670089
-0.6612739
-0.6456729
-0.6947912
-0.6932447
-0.6916394
-0.6899553
-0.6880856
-0.6858223
-0.682874
-0.6791585
-0.6751369
-0.6733468
-0.6659558
-0.6959033
-0.6944611
-0.6929949
-0.6915277
-0.6900452
-0.6884843
-0.6867627
-0.6848534
-0.6831352
-0.682856
-0.6817008
-0.6695238
-0.6969739
-0.6956528
-0.6943222
-0.6930195
-0.6917665
-0.6905703
-0.689429
-0.6883848
-0.6876108
-0.6877489
-0.6874103
-0.6835966
-0.6738056
-0.6980031
-0.6968176
-0.6956246
-0.6944586
-0.6933491
-0.6923217
-0.691408
-0.69066
-0.6902105
-0.6903548
-0.6902292
-0.6884578
-0.6855774
-0.6783744
-0.6989892
-0.6979493
-0.696896
-0.6958535
-0.6948437
-0.69389
-0.6930223
-0.6922928
-0.6918074
-0.6918105
-0.6917581
-0.6907129
-0.6894173
-0.6874488
-0.6827716
-0.6999295
-0.6990366
-0.6981198
-0.6971909
-0.6962598
-0.6953367
-0.6944353
-0.6935818
-0.6928481
-0.6924831
-0.692654
-0.6919239
-0.6911883
-0.6903572
-0.689187
-0.685856
-0.6932973
-0.692841
-0.6923745
-0.6919329
-0.6914971
-0.690521
-0.687768
-0.6948806
-0.6943054
-0.6937979
-0.6933762
-0.6930702
-0.6924903
-0.6912365
-0.6892346
-0.6963366
-0.6957327
-0.6951947
-0.6947487
-0.6944235
-0.6939132
-0.6929327
-0.6918241
-0.6902665
-0.6976152
-0.6970124
-0.6964654
-0.6959966
-0.6956366
-0.6951167
-0.6942098
-0.6932746
-0.6922536
-0.6909419
-0.6987249
-0.6981339
-0.6975876
-0.697106
-0.6967136
-0.6961777
-0.6952896
-0.6944002
-0.6934911
-0.6925153
-0.6913216
-0.6912936
-0.689813
-0.6881859
-0.6863003
-0.6839302
-0.6806185
-0.6755612
-0.6591128
-0.6925155
-0.6909713
-0.6892749
-0.6872916
-0.6847088
-0.6810188
-0.6753766
-0.6666004
-0.6416418
-0.6936896
-0.6921446
-0.690498
-0.6886707
-0.6864647
-0.6835042
-0.6793448
-0.6735149
-0.6660808
-0.6502342
-0.6948174
-0.6933098
-0.6917471
-0.6901135
-0.6883169
-0.6861776
-0.6834403
-0.6800364
-0.6763482
-0.6745682
-0.6671493
-0.6959033
-0.6944611
-0.6929949
-0.6915277
-0.6900452
-0.6884843
-0.6867627
-0.6848534
-0.6831352
-0.682856
-0.6817008
-0.6695238
-0.6969508
-0.6955975
-0.6942361
-0.6929077
-0.6916349
-0.6904225
-0.6892631
-0.6881941
-0.6873947
-0.6875583
-0.6872175
-0.683157
-0.6729064
-0.6979614
-0.696717
-0.6954701
-0.6942631
-0.6931314
-0.6921037
-0.6912112
-0.6905014
-0.6901028
-0.6903187
-0.6901851
-0.6882065
-0.6849227
-0.6768879
-0.6989343
-0.6978152
-0.6966916
-0.6955989
-0.6945691
-0.6936345
-0.6928326
-0.6922197
-0.691892
-0.6920458
-0.6919406
-0.6907571
-0.6892047
-0.6867614
-0.681052
-0.6998674
-0.6988842
-0.6978897
-0.6969074
-0.6959594
-0.6950694
-0.6942679
-0.6936028
-0.6931675
-0.6931528
-0.6930896
-0.6922197
-0.69129
-0.6901694
-0.6885274
-0.6840452
-0.7007577
-0.6999126
-0.6990456
-0.6981682
-0.6972903
-0.6964218
-0.6955759
-0.6947771
-0.6940894
-0.6937361
-0.6938685
-0.6931957
-0.6925394
-0.6918925
-0.6911865
-0.6898358
-0.6859867
-0.6945259
-0.6940643
-0.6935969
-0.6931572
-0.692777
-0.6920807
-0.6906095
-0.6878786
-0.6960303
-0.6954606
-0.6949443
-0.6945022
-0.6941591
-0.6936114
-0.6925701
-0.6913264
-0.6893385
-0.6974124
-0.6968188
-0.6962787
-0.6958118
-0.6954468
-0.694913
-0.6939854
-0.6930134
-0.6919149
-0.6903686
-0.6986259
-0.6980372
-0.6974927
-0.6970116
-0.6966176
-0.6960769
-0.6951819
-0.6942823
-0.6933558
-0.6923447
-0.6910479
-0.6996792
-0.6991045
-0.6985654
-0.6980779
-0.6976628
-0.6971114
-0.6962369
-0.695355
-0.694473
-0.6935725
-0.6926107
-0.6914185
-0.6926174
-0.6912511
-0.6897922
-0.6882007
-0.6863741
-0.6841458
-0.6812171
-0.6771046
-0.6627797
-0.6937655
-0.6923442
-0.6908423
-0.6892146
-0.6873446
-0.6850056
-0.6819309
-0.6777964
-0.6724228
-0.6576715
-0.6948676
-0.6934359
-0.6919542
-0.6904131
-0.6887459
-0.6868214
-0.6844486
-0.6815855
-0.6785051
-0.6768096
-0.669548
-0.6959278
-0.6945206
-0.6930895
-0.691656
-0.6902099
-0.6886981
-0.6870531
-0.6852569
-0.6836595
-0.683375
-0.6822304
-0.670569
-0.6969508
-0.6955975
-0.6942361
-0.6929077
-0.6916349
-0.6904225
-0.6892631
-0.6881941
-0.6873947
-0.6875583
-0.6872175
-0.683157
-0.6729064
-0.6979395
-0.6966651
-0.6953903
-0.6941617
-0.6930176
-0.6919878
-0.691102
-0.6904045
-0.690022
-0.6902697
-0.6901383
-0.6880505
-0.6845587
-0.6761306
-0.6988948
-0.6977204
-0.6965469
-0.6954176
-0.6943716
-0.6934465
-0.6926822
-0.6921325
-0.6918826
-0.6921114
-0.6920008
-0.6907237
-0.6889921
-0.686216
-0.6798409
-0.6998155
-0.6987579
-0.6976975
-0.6966689
-0.6957043
-0.6948369
-0.6941057
-0.6935626
-0.6932897
-0.6934167
-0.6933069
-0.6923614
-0.6912998
-0.6899562
-0.6879321
-0.6825235
-0.7006991
-0.6997691
-0.698829
-0.6979018
-0.6970087
-0.6961728
-0.6954232
-0.6948045
-0.6943972
-0.6943633
-0.6942748
-0.6934969
-0.6927079
-0.6918848
-0.6909284
-0.6891891
-0.6842
-0.7015424
-0.7007422
-0.6999219
-0.6990926
-0.6982638
-0.6974452
-0.6966493
-0.6958987
-0.6952519
-0.6949087
-0.6950072
-0.6943658
-0.6937495
-0.693158
-0.6925937
-0.6917083
-0.6899223
-0.6861173
-0.6956834
-0.6952201
-0.6947458
-0.6942981
-0.6939059
-0.6932912
-0.692158
-0.690698
-0.68799
-0.6971166
-0.6965552
-0.6960365
-0.6955762
-0.6952007
-0.6946427
-0.6936829
-0.6926499
-0.6914167
-0.6894429
-0.6984302
-0.6978504
-0.6973127
-0.6968343
-0.6964373
-0.6958869
-0.6949781
-0.6940577
-0.6930943
-0.6920059
-0.6904754
-0.6995836
-0.6990112
-0.6984739
-0.6979871
-0.6975709
-0.6970158
-0.6961362
-0.6952472
-0.694355
-0.6934371
-0.6924401
-0.691145
-0.7005842
-0.7000275
-0.6994989
-0.6990118
-0.6985825
-0.6980249
-0.6971655
-0.6962962
-0.6954206
-0.6945459
-0.6936579
-0.692698
-0.6914926
-0.6938576
-0.6925844
-0.6912471
-0.6898346
-0.6883103
-0.6865989
-0.6846142
-0.682237
-0.6793635
-0.6695567
-0.6949376
-0.6936142
-0.6922436
-0.6908231
-0.689315
-0.6876438
-0.6856973
-0.6834661
-0.6811318
-0.6796575
-0.6731549
-0.6959748
-0.6946361
-0.6932721
-0.6919016
-0.6905198
-0.6890906
-0.687571
-0.6859595
-0.684558
-0.684263
-0.6831779
-0.6726519
-0.6969739
-0.6956528
-0.6943222
-0.6930195
-0.6917665
-0.6905703
-0.689429
-0.6883848
-0.6876108
-0.6877489
-0.6874103
-0.6835966
-0.6738056
-0.6979395
-0.6966651
-0.6953903
-0.6941617
-0.6930176
-0.6919878
-0.691102
-0.6904045
-0.690022
-0.6902697
-0.6901383
-0.6880505
-0.6845587
-0.6761306
-0.6988741
-0.6976716
-0.6964722
-0.6953237
-0.6942687
-0.6933471
-0.6925992
-0.6920766
-0.6918588
-0.6921214
-0.6920138
-0.6906881
-0.6888633
-0.6859162
-0.6792202
-0.699778
-0.6986685
-0.6975614
-0.6964991
-0.6955212
-0.6946666
-0.693978
-0.6935051
-0.6933177
-0.693517
-0.6934042
-0.692413
-0.6912652
-0.689769
-0.6874801
-0.6814493
-0.7006499
-0.6996498
-0.698648
-0.6976775
-0.6967695
-0.6959565
-0.6952757
-0.6947759
-0.6945246
-0.6946223
-0.6944907
-0.6936661
-0.6927981
-0.6918522
-0.6907063
-0.6886346
-0.6826989
-0.701487
-0.700607
-0.699718
-0.6988418
-0.6979989
-0.6972112
-0.6965061
-0.6959241
-0.6955376
-0.6954847
-0.6953742
-0.6946444
-0.693927
-0.693211
-0.6924852
-0.6914135
-0.6892768
-0.6843542
-0.7022858
-0.7015283
-0.700752
-0.6999678
-0.6991848
-0.6984124
-0.6976624
-0.6969558
-0.6963458
-0.6960143
-0.6960836
-0.6954672
-0.6948698
-0.6943026
-0.6937701
-0.6930396
-0.6917797
-0.6900087
-0.686248
-0.696777
-0.6963148
-0.6958375
-0.6953775
-0.6949671
-0.6943644
-0.6933599
-0.6922352
-0.6907869
-0.688102
-0.6981441
-0.6975946
-0.6970775
-0.6966068
-0.696203
-0.6956357
-0.6947071
-0.6937543
-0.69273
-0.6915071
-0.6895521
-0.6993944
-0.6988305
-0.6982999
-0.6978161
-0.6973982
-0.6968355
-0.695946
-0.6950433
-0.6941302
-0.6931754
-0.6921012
-0.6905732
-0.7004917
-0.6999373
-0.6994105
-0.6989241
-0.6984941
-0.6979335
-0.6970699
-0.6961955
-0.6953128
-0.6944279
-0.6935224
-0.6925273
-0.6912193
-0.701443
-0.7009056
-0.7003902
-0.6999078
-0.6994719
-0.6989141
-0.6980747
-0.6972198
-0.6963558
-0.6954863
-0.6946227
-0.6937359
-0.6927642
-0.6915455
-0.6950226
-0.6938296
-0.6925877
-0.6912997
-0.689955
-0.6885306
-0.6869898
-0.6853415
-0.6836768
-0.6824313
-0.6778431
-0.6960402
-0.6947996
-0.6935289
-0.6922421
-0.6909393
-0.6896021
-0.6882127
-0.6867866
-0.6855642
-0.6852156
-0.6843086
-0.6757239
-0.6970181
-0.6957602
-0.6944887
-0.6932345
-0.6920168
-0.6908453
-0.6897262
-0.6887087
-0.6879582
-0.6880363
-0.6877191
-0.684383
-0.675583
-0.6979614
-0.696717
-0.6954701
-0.6942631
-0.6931314
-0.6921037
-0.6912112
-0.6905014
-0.6901028
-0.6903187
-0.6901851
-0.6882065
-0.6849227
-0.6768879
-0.6988741
-0.6976716
-0.6964722
-0.6953237
-0.6942687
-0.6933471
-0.6925992
-0.6920766
-0.6918588
-0.6921214
-0.6920138
-0.6906881
-0.6888633
-0.6859162
-0.6792202
-0.6997583
-0.6986224
-0.6974911
-0.6964112
-0.6954259
-0.6945768
-0.6939078
-0.6934667
-0.6933167
-0.6935491
-0.69344
-0.6924261
-0.6912347
-0.6896604
-0.6872363
-0.6808973
-0.7006143
-0.6995655
-0.6985196
-0.6975177
-0.6965979
-0.6957983
-0.6951601
-0.6947303
-0.6945636
-0.6947297
-0.6945958
-0.6937473
-0.6928328
-0.6918086
-0.6905363
-0.6882256
-0.681639
-0.7014403
-0.7004945
-0.6995473
-0.6986304
-0.6977737
-0.6970078
-0.6963681
-0.6958984
-0.6956584
-0.6957264
-0.6955754
-0.6948113
-0.6940405
-0.6932457
-0.6924078
-0.6911835
-0.6887262
-0.6828735
-0.7022334
-0.7014009
-0.7005599
-0.6997315
-0.6989352
-0.6981917
-0.6975266
-0.696977
-0.6966076
-0.6965404
-0.6964109
-0.695715
-0.6950331
-0.6943693
-0.693718
-0.6928803
-0.6914808
-0.6893643
-0.6845081
-0.7029901
-0.7022731
-0.7015386
-0.7007968
-0.7000569
-0.6993276
-0.6986203
-0.6979545
-0.6973791
-0.69706
-0.6971072
-0.6965121
-0.6959301
-0.6953706
-0.6948472
-0.6941632
-0.6931017
-0.691851
-0.6900952
-0.6863786
-0.6978116
-0.6973544
-0.6968773
-0.6964099
-0.6959794
-0.6953798
-0.6944264
-0.6934286
-0.6923125
-0.6908757
-0.6882182
-0.6991172
-0.6985818
-0.6980709
-0.6975953
-0.6971728
-0.6965971
-0.6956943
-0.6947716
-0.6938259
-0.6928101
-0.6916017
-0.6896521
-0.7003085
-0.6997623
-0.699242
-0.6987589
-0.6983277
-0.6977609
-0.6968895
-0.6960052
-0.6951087
-0.6942028
-0.6932604
-0.6921881
-0.6906481
-0.7013533
-0.7008182
-0.7003046
-0.699823
-0.6993866
-0.6988263
-0.6979833
-0.6971242
-0.696255
-0.6953785
-0.6945046
-0.6936004
-0.6925934
-0.6912723
-0.7022581
-0.701741
-0.7012409
-0.7007668
-0.7003298
-0.6997775
-0.6989602
-0.6981245
-0.6972742
-0.6964154
-0.6955559
-0.6946928
-0.6937945
-0.6928108
-0.6915757
-0.6826125
-0.6961194
-0.6949975
-0.6938359
-0.6926429
-0.691421
-0.6901653
-0.688874
-0.6875617
-0.6863632
-0.6857154
-0.6852384
-0.6795552
-0.6970796
-0.6959123
-0.6947236
-0.6935349
-0.6923606
-0.6912106
-0.6900961
-0.6890675
-0.6882784
-0.6882185
-0.6879872
-0.6853265
-0.6781612
-0.6980031
-0.6968176
-0.6956246
-0.6944586
-0.6933491
-0.6923217
-0.691408
-0.69066
-0.6902105
-0.6903548
-0.6902292
-0.6884578
-0.6855774
-0.6783744
-0.6988948
-0.6977204
-0.6965469
-0.6954176
-0.6943716
-0.6934465
-0.6926822
-0.6921325
-0.6918826
-0.6921114
-0.6920008
-0.6907237
-0.6889921
-0.686216
-0.6798409
-0.6997583
-0.6986224
-0.6974911
-0.6964112
-0.6954259
-0.6945768
-0.6939078
-0.6934667
-0.6933167
-0.6935491
-0.69344
-0.6924261
-0.6912347
-0.6896604
-0.6872363
-0.6808973
-0.7005956
-0.6995219
-0.6984534
-0.697435
-0.6965086
-0.6957151
-0.6950969
-0.6946993
-0.6945704
-0.6947681
-0.694638
-0.6937786
-0.6928419
-0.691779
-0.6904432
-0.6880079
-0.6810942
-0.7014065
-0.7004148
-0.6994261
-0.6984797
-0.697612
-0.6968592
-0.6962602
-0.6958573
-0.6956978
-0.6958295
-0.6956768
-0.694898
-0.6940994
-0.6932585
-0.6923511
-0.6910194
-0.6883215
-0.6818277
-0.7021892
-0.7012947
-0.7003989
-0.6995322
-0.6987228
-0.6979997
-0.6973958
-0.6969512
-0.6967179
-0.6967617
-0.6965936
-0.695869
-0.6951457
-0.6944254
-0.6936974
-0.6927784
-0.6912497
-0.6888176
-0.6830475
-0.7029406
-0.7021532
-0.7013577
-0.7005743
-0.6998217
-0.6991194
-0.6984913
-0.6979715
-0.6976185
-0.6975409
-0.6973981
-0.6967285
-0.6960719
-0.6954317
-0.6948141
-0.6940588
-0.692937
-0.6915481
-0.6894519
-0.6846613
-0.703657
-0.7029789
-0.7022839
-0.7015825
-0.7008831
-0.7001945
-0.6995272
-0.6988995
-0.6983567
-0.6980514
-0.6980821
-0.6975084
-0.6969401
-0.6963877
-0.6958619
-0.6952002
-0.6942188
-0.6931637
-0.6919222
-0.6901815
-0.6865121
-0.6987917
-0.6983426
-0.6978698
-0.6973991
-0.6969552
-0.6963539
-0.6954361
-0.6944882
-0.6934972
-0.6923896
-0.6909689
-0.6883249
-0.7000396
-0.6995204
-0.6990189
-0.6985439
-0.6981097
-0.6975322
-0.6966507
-0.6957528
-0.6948361
-0.6938975
-0.6928941
-0.6916881
-0.689729
-0.7011757
-0.7006485
-0.7001413
-0.699663
-0.6992259
-0.6986602
-0.6978106
-0.6969437
-0.6960646
-0.6951741
-0.6942792
-0.693338
-0.6922539
-0.6907016
-0.7021712
-0.7016563
-0.701158
-0.7006848
-0.7002475
-0.6996928
-0.6988723
-0.6980331
-0.6971786
-0.6963146
-0.695448
-0.6945746
-0.6936588
-0.6926399
-0.6913025
-0.7030322
-0.702536
-0.7020526
-0.7015897
-0.7011562
-0.7006131
-0.6998203
-0.6990063
-0.6981746
-0.6973287
-0.6964789
-0.6956193
-0.6947448
-0.6938349
-0.6928364
-0.6838853
-0.6854654
-0.6832604
-0.6971538
-0.6960963
-0.695005
-0.6938908
-0.6927608
-0.6916203
-0.6904762
-0.6893582
-0.688366
-0.6879011
-0.6879678
-0.6861431
-0.6812862
-0.6980612
-0.6969602
-0.6958428
-0.6947328
-0.6936505
-0.6926154
-0.6916544
-0.6908178
-0.690239
-0.6902327
-0.6901665
-0.6886853
-0.6863774
-0.6805032
-0.6989343
-0.6978152
-0.6966916
-0.6955989
-0.6945691
-0.6936345
-0.6928326
-0.6922197
-0.691892
-0.6920458
-0.6919406
-0.6907571
-0.6892047
-0.6867614
-0.681052
-0.699778
-0.6986685
-0.6975614
-0.6964991
-0.6955212
-0.6946666
-0.693978
-0.6935051
-0.6933177
-0.693517
-0.6934042
-0.692413
-0.6912652
-0.689769
-0.6874801
-0.6814493
-0.7005956
-0.6995219
-0.6984534
-0.697435
-0.6965086
-0.6957151
-0.6950969
-0.6946993
-0.6945704
-0.6947681
-0.694638
-0.6937786
-0.6928419
-0.691779
-0.6904432
-0.6880079
-0.6810942
-0.7013888
-0.7003736
-0.6993636
-0.6984017
-0.6975279
-0.696781
-0.6962013
-0.6958294
-0.6957063
-0.6958676
-0.6957188
-0.6949341
-0.6941232
-0.6932609
-0.6923199
-0.6909326
-0.6881065
-0.68129
-0.7021571
-0.7012194
-0.7002846
-0.69939
-0.6985702
-0.6978594
-0.6972938
-0.6969119
-0.696754
-0.6968569
-0.6966871
-0.6959518
-0.6952091
-0.6944586
-0.6936866
-0.6927132
-0.691086
-0.6884172
-0.6820157
-0.7028987
-0.702053
-0.7012059
-0.7003864
-0.6996213
-0.6989381
-0.698367
-0.6979449
-0.6977182
-0.6977424
-0.6975626
-0.6968666
-0.6961748
-0.6954894
-0.6948143
-0.6940092
-0.6928321
-0.6913158
-0.688909
-0.6832205
-0.7036103
-0.702866
-0.7021138
-0.7013731
-0.7006617
-0.6999983
-0.6994049
-0.6989133
-0.6985766
-0.6984926
-0.6983412
-0.6976964
-0.6970598
-0.6964367
-0.6958315
-0.6951179
-0.6941088
-0.6929935
-0.6916153
-0.6895392
-0.6848156
-0.7042883
-0.7036472
-0.7029902
-0.702327
-0.7016663
-0.701016
-0.7003865
-0.6997948
-0.6992831
-0.6989925
-0.699012
-0.6984598
-0.6979067
-0.6973616
-0.6968352
-0.6961831
-0.6952509
-0.6942742
-0.6932257
-0.6919932
-0.6902724
-0.6866343
-0.699721
-0.6992826
-0.6988175
-0.6983484
-0.6978963
-0.6972976
-0.6964056
-0.6954923
-0.69455
-0.6935657
-0.6924709
-0.6910539
-0.6884079
-0.7009146
-0.700413
-0.6999237
-0.6994535
-0.6990144
-0.6984395
-0.6975816
-0.6967043
-0.6958115
-0.6949006
-0.6939729
-0.6929707
-0.6917531
-0.6897843
-0.7019988
-0.7014915
-0.7009994
-0.7005295
-0.7000919
-0.6995325
-0.6987062
-0.6978604
-0.696998
-0.696124
-0.6952434
-0.6943489
-0.693396
-0.6923
-0.690732
-0.7029477
-0.7024537
-0.7019722
-0.7015102
-0.7010765
-0.7005312
-0.6997357
-0.6989185
-0.6980832
-0.6972331
-0.6963781
-0.6955114
-0.6946265
-0.6936991
-0.6926653
-0.7037673
-0.7032924
-0.702827
-0.7023773
-0.7019509
-0.7014201
-0.7006532
-0.6998633
-0.6990527
-0.6982248
-0.6973871
-0.6965368
-0.6956657
-0.6947799
-0.693856
-0.6846125
-0.6861
-0.6848145
-0.6874099
-0.6865745
-0.6842509
-0.6981309
-0.6971325
-0.6961044
-0.6950585
-0.694004
-0.6929493
-0.6919074
-0.6909058
-0.6900382
-0.6896291
-0.6898278
-0.6887275
-0.6871218
-0.6830413
-0.6989892
-0.6979493
-0.696896
-0.6958535
-0.6948437
-0.69389
-0.6930223
-0.6922928
-0.6918074
-0.6918105
-0.6917581
-0.6907129
-0.6894173
-0.6874488
-0.6827716
-0.6998155
-0.6987579
-0.6976975
-0.6966689
-0.6957043
-0.6948369
-0.6941057
-0.6935626
-0.6932897
-0.6934167
-0.6933069
-0.6923614
-0.6912998
-0.6899562
-0.6879321
-0.6825235
-0.7006143
-0.6995655
-0.6985196
-0.6975177
-0.6965979
-0.6957983
-0.6951601
-0.6947303
-0.6945636
-0.6947297
-0.6945958
-0.6937473
-0.6928328
-0.6918086
-0.6905363
-0.6882256
-0.681639
-0.7013888
-0.7003736
-0.6993636
-0.6984017
-0.6975279
-0.696781
-0.6962013
-0.6958294
-0.6957063
-0.6958676
-0.6957188
-0.6949341
-0.6941232
-0.6932609
-0.6923199
-0.6909326
-0.6881065
-0.68129
-0.7021402
-0.7011805
-0.7002255
-0.6993164
-0.6984908
-0.6977856
-0.6972381
-0.6968855
-0.6967618
-0.6968925
-0.6967264
-0.6959872
-0.6952367
-0.6944731
-0.6936809
-0.6926801
-0.6909997
-0.6882048
-0.6814851
-0.7028682
-0.7019819
-0.701098
-0.7002522
-0.6994773
-0.6988054
-0.6982701
-0.6979065
-0.6977499
-0.697829
-0.6976474
-0.6969422
-0.696235
-0.6955271
-0.6948212
-0.693985
-0.6927658
-0.6911524
-0.6885127
-0.6822026
-0.7035706
-0.7027715
-0.7019707
-0.701196
-0.7004728
-0.699827
-0.6992869
-0.6988862
-0.6986666
-0.6986763
-0.698489
-0.6978188
-0.6971503
-0.6964886
-0.6958366
-0.6950892
-0.6940558
-0.6928858
-0.6913819
-0.6890001
-0.6833931
-0.7042442
-0.7035411
-0.7028303
-0.7021302
-0.7014581
-0.7008314
-0.7002711
-0.6998064
-0.6994862
-0.6993992
-0.6992435
-0.6986227
-0.698006
-0.6973971
-0.6968016
-0.6961079
-0.6951632
-0.6941587
-0.6930501
-0.6916823
-0.6896309
-0.6849567
-0.7048852
-0.7042799
-0.7036591
-0.7030327
-0.7024086
-0.7017949
-0.7012011
-0.7006436
-0.7001616
-0.6998865
-0.6998992
-0.699369
-0.6988323
-0.6982973
-0.6977725
-0.6971303
-0.6962297
-0.6953013
-0.6943296
-0.6932874
-0.6920688
-0.6903552
-0.6867318
-0.7006027
-0.7001773
-0.6997226
-0.699259
-0.6988046
-0.6982114
-0.6973453
-0.6964572
-0.6955486
-0.6946116
-0.6936382
-0.6925448
-0.6911172
-0.6884689
-0.701745
-0.7012621
-0.7007871
-0.7003253
-0.6998863
-0.6993188
-0.6984853
-0.697631
-0.696758
-0.6958701
-0.694969
-0.6940416
-0.6930276
-0.6917983
-0.6898163
-0.7027802
-0.7022936
-0.701818
-0.7013594
-0.7009257
-0.7003762
-0.6995754
-0.6987524
-0.6979104
-0.6970523
-0.6961872
-0.6953064
-0.6944003
-0.6934358
-0.6923249
-0.7036852
-0.7032124
-0.7027488
-0.7023001
-0.7018736
-0.7013409
-0.7005714
-0.6997786
-0.6989649
-0.6981334
-0.6972914
-0.6964359
-0.6955576
-0.6946613
-0.6937199
-0.7044653
-0.704012
-0.7035653
-0.7031306
-0.7027141
-0.702198
-0.7014578
-0.7006933
-0.6999064
-0.6990991
-0.6982787
-0.6974402
-0.6965785
-0.6956962
-0.6947969
-0.6850665
-0.6866002
-0.6856711
-0.6878972
-0.6871611
-0.6858538
-0.6890827
-0.6885272
-0.687663
-0.685458
-0.6990549
-0.6981111
-0.6971409
-0.6961562
-0.6951668
-0.6941828
-0.6932175
-0.6922997
-0.6915082
-0.6911298
-0.6913275
-0.6904934
-0.6895322
-0.6881437
-0.6848123
-0.6998674
-0.6988842
-0.6978897
-0.6969074
-0.6959594
-0.6950694
-0.6942679
-0.6936028
-0.6931675
-0.6931528
-0.6930896
-0.6922197
-0.69129
-0.6901694
-0.6885274
-0.6840452
-0.7006499
-0.6996498
-0.698648
-0.6976775
-0.6967695
-0.6959565
-0.6952757
-0.6947759
-0.6945246
-0.6946223
-0.6944907
-0.6936661
-0.6927981
-0.6918522
-0.6907063
-0.6886346
-0.6826989
-0.7014065
-0.7004148
-0.6994261
-0.6984797
-0.697612
-0.6968592
-0.6962602
-0.6958573
-0.6956978
-0.6958295
-0.6956768
-0.694898
-0.6940994
-0.6932585
-0.6923511
-0.6910194
-0.6883215
-0.6818277
-0.7021402
-0.7011805
-0.7002255
-0.6993164
-0.6984908
-0.6977856
-0.6972381
-0.6968855
-0.6967618
-0.6968925
-0.6967264
-0.6959872
-0.6952367
-0.6944731
-0.6936809
-0.6926801
-0.6909997
-0.6882048
-0.6814851
-0.7028522
-0.7019451
-0.7010423
-0.7001827
-0.6994023
-0.6987356
-0.6982173
-0.697881
-0.6977564
-0.6978613
-0.6976832
-0.696975
-0.696262
-0.695545
-0.6948256
-0.6939745
-0.6927324
-0.6910667
-0.6883029
-0.6816791
-0.7035416
-0.7027044
-0.7018689
-0.7010694
-0.7003368
-0.6997016
-0.6991948
-0.6988487
-0.6986943
-0.6987549
-0.6985655
-0.6978866
-0.6972047
-0.6965246
-0.6958486
-0.6950817
-0.69403
-0.6928183
-0.6912189
-0.6886079
-0.6823881
-0.7042066
-0.7034521
-0.7026956
-0.7019634
-0.7012801