/*--------------------------------*- C++ -*----------------------------------*\
| =========                 |                                                 |
| \\      /  F ield         | OpenFOAM: The Open Source CFD Toolbox           |
|  \\    /   O peration     | Version:  2306                                  |
|   \\  /    A nd           | Website:  www.openfoam.com                      |
|    \\/     M anipulation  |                                                 |
\*---------------------------------------------------------------------------*/
FoamFile
{
    version     2.0;
    format      ascii;
    arch        "LSB;label=32;scalar=64";
    class       volScalarField;
    location    "1.2/air";
    object      O2;
}
// * * * * * * * * * * * * * * * * * * * * * * * * * * * * * * * * * * * * * //

dimensions      [0 0 0 0 0 0 0];

internalField   nonuniform List<scalar> 
16000
(
0.2298044
0.229809
0.2290428
0.2297739
0.2298161
0.2291175
0.2297809
0.2273137
0.2289412
0.2297031
0.2298227
0.2292133
0.2297906
0.2274238
0.2290439
0.2297159
0.2253622
0.2271714
0.2286729
0.2295715
0.2298267
0.2292938
0.2297997
0.2275738
0.2291677
0.2297327
0.2254786
0.2273154
0.2288182
0.2295975
0.223376
0.2252084
0.2268147
0.2281627
0.2293314
0.2298267
0.2293386
0.229805
0.2277066
0.2292676
0.2297472
0.2256385
0.2275031
0.22899
0.2296267
0.2234911
0.2253592
0.2270007
0.228359
0.2293875
0.2214384
0.2232239
0.224827
0.2261771
0.2273322
0.2288846
0.1899465
0.2298227
0.2293386
0.229805
0.2277828
0.2293218
0.2297556
0.2257809
0.2276649
0.2291257
0.2296515
0.2236489
0.2255574
0.22724
0.2285965
0.2294507
0.2215487
0.2233723
0.2250177
0.2264041
0.2275776
0.2289885
0.2195773
0.2212915
0.2228477
0.2241537
0.2251989
0.2261129
0.2280816
0.1913504
0.1884394
0.1897241
0.2298161
0.2292938
0.2297997
0.2277828
0.2293218
0.2297556
0.225863
0.2277564
0.2291982
0.2296659
0.2237894
0.2257296
0.2274438
0.228785
0.2294978
0.2217
0.2235671
0.2252651
0.2266969
0.2278845
0.2291179
0.2196825
0.2214336
0.2230335
0.2243796
0.2254629
0.2264026
0.2282357
0.2178
0.2194374
0.2209288
0.2221875
0.2231387
0.2238301
0.2244423
0.2267424
0.1941858
0.1896988
0.191123
0.1881922
0.1882358
0.1892802
0.229809
0.2292133
0.2297906
0.2277066
0.2292676
0.2297472
0.225863
0.2277564
0.2291982
0.2296659
0.2238704
0.2258276
0.2275583
0.2288857
0.2295221
0.2218348
0.2237363
0.2254778
0.2269464
0.2281377
0.2292167
0.2198266
0.2216201
0.2232742
0.2246733
0.2258062
0.2267728
0.2284418
0.2179
0.2195728
0.2211061
0.2224045
0.223392
0.2241273
0.2247904
0.2269794
0.2161032
0.2176669
0.2190919
0.2202934
0.2211995
0.2217471
0.2220289
0.222233
0.2245922
0.1985554
0.1922368
0.1939405
0.1893631
0.1894913
0.1906701
0.1882084
0.1880043
0.1878291
0.1886162
0.2298044
0.2291175
0.2297809
0.2275738
0.2291677
0.2297327
0.2257809
0.2276649
0.2291257
0.2296515
0.2238704
0.2258276
0.2275583
0.2288857
0.2295221
0.2219126
0.2238327
0.2255982
0.2270865
0.2282768
0.2292668
0.2199549
0.2217822
0.2234811
0.2249262
0.2261006
0.2270889
0.2286157
0.218037
0.2197503
0.2213356
0.2226862
0.2237245
0.2245181
0.22524
0.2273005
0.2161984
0.2177955
0.2192605
0.2204994
0.2214391
0.2220223
0.2223639
0.2226719
0.2250392
0.2144812
0.2159765
0.217338
0.2184872
0.2193454
0.2198562
0.2199563
0.2197562
0.2193792
0.2211259
0.2048659
0.1961313
0.1982418
0.1917217
0.1920151
0.1934578
0.1893028
0.1891718
0.189078
0.1899952
0.188236
0.1880332
0.1876292
0.1872206
0.1877334
0.2290428
0.2297739
0.2274238
0.2290439
0.2297159
0.2256385
0.2275031
0.22899
0.2296267
0.2237894
0.2257296
0.2274438
0.228785
0.2294978
0.2219126
0.2238327
0.2255982
0.2270865
0.2282768
0.2292668
0.2200289
0.2218745
0.2235982
0.2250694
0.2262665
0.2272671
0.228712
0.2181589
0.2199044
0.2215329
0.2229285
0.2240125
0.2248557
0.2256218
0.2275719
0.2163289
0.2179642
0.2194786
0.2207666
0.2217528
0.2223879
0.2228079
0.2232339
0.225578
0.214572
0.216099
0.2174982
0.2186827
0.2195714
0.2201129
0.2202577
0.2201591
0.2200177
0.2222079
0.2129275
0.2143603
0.2156634
0.2167625
0.2175858
0.2180608
0.2181421
0.2177467
0.2169521
0.2156899
0.2151342
0.2017115
0.2042196
0.1953389
0.1958534
0.1976579
0.1915071
0.1915178
0.1915783
0.1927494
0.1892664
0.1891246
0.1887909
0.1884615
0.1891014
0.188147
0.1880713
0.1876832
0.1870677
0.1864113
0.1864581
0.2273137
0.2289412
0.2297031
0.2254786
0.2273154
0.2288182
0.2295975
0.2236489
0.2255574
0.22724
0.2285965
0.2294507
0.2218348
0.2237363
0.2254778
0.2269464
0.2281377
0.2292167
0.2200289
0.2218745
0.2235982
0.2250694
0.2262665
0.2272671
0.228712
0.2182293
0.2199922
0.2216446
0.2230657
0.224176
0.2250467
0.225836
0.2277227
0.216445
0.2181107
0.2196659
0.2209963
0.2220242
0.2227068
0.2231922
0.2237047
0.2259998
0.2146965
0.2162596
0.2177054
0.218936
0.2198671
0.2204529
0.220662
0.2206862
0.2207728
0.2231734
0.2130144
0.2144772
0.2158161
0.2169482
0.2177999
0.2183016
0.2184209
0.2181063
0.2175309
0.2168852
0.2182992
0.2114363
0.2128119
0.2140615
0.2151155
0.2159047
0.2163657
0.2164276
0.2160428
0.2150746
0.2134614
0.2106533
0.2121449
0.200517
0.2011546
0.2032563
0.1948862
0.1950838
0.195334
0.1968487
0.1913414
0.1913172
0.1911161
0.1909362
0.1918258
0.1891212
0.1890989
0.1887694
0.1882226
0.1876445
0.1878149
0.1879648
0.1879912
0.1877422
0.1871594
0.1863207
0.1852416
0.1861951
0.2253622
0.2271714
0.2286729
0.2295715
0.2234911
0.2253592
0.2270007
0.228359
0.2293875
0.2217
0.2235671
0.2252651
0.2266969
0.2278845
0.2291179
0.2199549
0.2217822
0.2234811
0.2249262
0.2261006
0.2270889
0.2286157
0.2182293
0.2199922
0.2216446
0.2230657
0.224176
0.2250467
0.225836
0.2277227
0.2165119
0.218194
0.2197719
0.2211263
0.2221782
0.2228885
0.2234096
0.2239662
0.2262244
0.2148072
0.216399
0.2178834
0.2191535
0.2201226
0.2207489
0.2210153
0.2211352
0.2213735
0.2238266
0.2131334
0.2146304
0.2160134
0.2171888
0.2180797
0.2186204
0.2187936
0.2185813
0.2182234
0.2180018
0.2199669
0.2115195
0.2129237
0.2142073
0.2152925
0.2161082
0.2165937
0.2166884
0.2163755
0.2155989
0.2145592
0.2136101
0.2158735
0.210002
0.2113255
0.2125263
0.2135386
0.2142987
0.2147437
0.2148157
0.2144339
0.2135177
0.211797
0.2088029
0.2081239
0.2098192
0.1997209
0.2000048
0.2003187
0.2021356
0.1945218
0.194649
0.194607
0.194611
0.195848
0.191083
0.1911631
0.1909432
0.1905254
0.1900975
0.1905142
0.1888901
0.1889628
0.1887651
0.1882396
0.1874694
0.1864677
0.1875497
0.1876923
0.1878168
0.18768
0.1872496
0.1864625
0.1852411
0.1850004
0.1859299
0.223376
0.2252084
0.2268147
0.2281627
0.2293314
0.2215487
0.2233723
0.2250177
0.2264041
0.2275776
0.2289885
0.2198266
0.2216201
0.2232742
0.2246733
0.2258062
0.2267728
0.2284418
0.2181589
0.2199044
0.2215329
0.2229285
0.2240125
0.2248557
0.2256218
0.2275719
0.2165119
0.218194
0.2197719
0.2211263
0.2221782
0.2228885
0.2234096
0.2239662
0.2262244
0.214871
0.2164784
0.217984
0.2192766
0.2202677
0.2209173
0.2212165
0.2213865
0.2216975
0.224151
0.2132393
0.2147634
0.2161827
0.2173953
0.2183212
0.2188976
0.2191185
0.2189891
0.2187802
0.2187946
0.2209264
0.2116335
0.2130703
0.2143955
0.2155216
0.2163739
0.2168949
0.217037
0.2168135
0.2162285
0.2155862
0.2152909
0.2179034
0.210082
0.2114327
0.2126657
0.2137077
0.2144928
0.2149604
0.2150627
0.2147457
0.2140065
0.2128116
0.2115426
0.2115546
0.2137232
0.2086203
0.2098957
0.2110517
0.2120262
0.2127588
0.2131928
0.2132687
0.2129243
0.2120426
0.2104303
0.2074527
0.2064675
0.2061431
0.2079154
0.1990709
0.1992446
0.1992372
0.1993384
0.2009338
0.1940895
0.1942992
0.1942056
0.1939434
0.1937127
0.1944887
0.1907533
0.1909145
0.1908117
0.1903931
0.1897537
0.1889043
0.1902439
0.188574
0.1887397
0.1886472
0.188267
0.1875373
0.1863842
0.186225
0.1872822
0.1873543
0.1875513
0.1875212
0.1872141
0.1865942
0.1854551
0.1850185
0.1847572
0.1856624
0.2214384
0.2232239
0.224827
0.2261771
0.2273322
0.2288846
0.2196825
0.2214336
0.2230335
0.2243796
0.2254629
0.2264026
0.2282357
0.218037
0.2197503
0.2213356
0.2226862
0.2237245
0.2245181
0.22524
0.2273005
0.216445
0.2181107
0.2196659
0.2209963
0.2220242
0.2227068
0.2231922
0.2237047
0.2259998
0.214871
0.2164784
0.217984
0.2192766
0.2202677
0.2209173
0.2212165
0.2213865
0.2216975
0.224151
0.2133003
0.2148391
0.2162785
0.2175121
0.218458
0.2190554
0.2193032
0.2192187
0.2190823
0.2192002
0.2213738
0.211735
0.2131974
0.2145571
0.2157183
0.2166031
0.2171566
0.2173407
0.2171884
0.2167365
0.2163185
0.2163142
0.2190433
0.2101915
0.2115731
0.2128458
0.2139265
0.214746
0.2152466
0.2153923
0.2151561
0.2145912
0.2137591
0.2131001
0.2135295
0.2159898
0.2086972
0.2099986
0.2111854
0.212188
0.2129443
0.2133997
0.2135038
0.2132201
0.2125026
0.2113823
0.2100059
0.2096512
0.2097229
0.211839
0.207287
0.208518
0.2096328
0.2105723
0.2112801
0.2117024
0.2117871
0.2114687
0.2106556
0.2091239
0.2063449
0.2052768
0.2046434
0.2045085
0.2063073
0.1983892
0.1986239
0.1985311
0.1983383
0.1982782
0.1994844
0.1936086
0.1938793
0.1938831
0.1935886
0.1931192
0.1924874
0.1942091
0.1903493
0.1905934
0.1905825
0.190295
0.1896743
0.1886557
0.1886584
0.1899715
0.1881968
0.1884307
0.18844
0.1881763
0.1876067
0.1865253
0.1861605
0.1859803
0.1870125
0.1869623
0.1872195
0.1872696
0.1870787
0.1865942
0.1856467
0.1852474
0.1847939
0.1845119
0.1853927
0.2195773
0.2212915
0.2228477
0.2241537
0.2251989
0.2261129
0.2280816
0.2179
0.2195728
0.2211061
0.2224045
0.223392
0.2241273
0.2247904
0.2269794
0.2163289
0.2179642
0.2194786
0.2207666
0.2217528
0.2223879
0.2228079
0.2232339
0.225578
0.2148072
0.216399
0.2178834
0.2191535
0.2201226
0.2207489
0.2210153
0.2211352
0.2213735
0.2238266
0.2133003
0.2148391
0.2162785
0.2175121
0.218458
0.2190554
0.2193032
0.2192187
0.2190823
0.2192002
0.2213738
0.2117935
0.2132698
0.2146485
0.2158294
0.216733
0.2173053
0.2175134
0.217399
0.2170129
0.2166941
0.2168078
0.2195652
0.2102889
0.211695
0.2130004
0.2141142
0.2149644
0.2154952
0.215679
0.2155073
0.2150614
0.2144343
0.2140499
0.2146926
0.2172673
0.2088025
0.2101335
0.2113581
0.2123975
0.2131863
0.2136729
0.2138174
0.2136088
0.2130529
0.2122688
0.2114539
0.2114854
0.2118919
0.2142411
0.2073611
0.208617
0.2097613
0.2107276
0.2114579
0.2119005
0.212012
0.2117506
0.2110927
0.2100231
0.2087464
0.2082472
0.2079698
0.2081092
0.2102022
0.2059986
0.2071885
0.2082651
0.2091724
0.209857
0.2102691
0.210359
0.2100706
0.2093089
0.2078852
0.205264
0.2042996
0.2035794
0.2031429
0.203115
0.2047166
0.1976918
0.1979673
0.1979544
0.197696
0.1973677
0.196989
0.1991876
0.1930697
0.1934093
0.1934865
0.193304
0.1928222
0.1919951
0.1922353
0.1939277
0.1898933
0.1901969
0.1902783
0.1900943
0.1896198
0.1886516
0.1884294
0.1884105
0.1896969
0.1877693
0.1880599
0.1881451
0.1879928
0.187552
0.1866553
0.1863167
0.1859348
0.1857336
0.1867406
0.1865304
0.1868332
0.1869503
0.1868478
0.1864898
0.185698
0.1854513
0.1850379
0.1845675
0.1842645
0.1850636
0.2178
0.2194374
0.2209288
0.2221875
0.2231387
0.2238301
0.2244423
0.2267424
0.2161984
0.2177955
0.2192605
0.2204994
0.2214391
0.2220223
0.2223639
0.2226719
0.2250392
0.2146965
0.2162596
0.2177054
0.218936
0.2198671
0.2204529
0.220662
0.2206862
0.2207728
0.2231734
0.2132393
0.2147634
0.2161827
0.2173953
0.2183212
0.2188976
0.2191185
0.2189891
0.2187802
0.2187946
0.2209264
0.2117935
0.2132698
0.2146485
0.2158294
0.216733
0.2173053
0.2175134
0.217399
0.2170129
0.2166941
0.2168078
0.2195652
0.2103451
0.2117643
0.2130877
0.2142203
0.2150881
0.2156364
0.2158419
0.2157046
0.2153166
0.2147809
0.2145088
0.2152419
0.2178486
0.2088962
0.2102505
0.2115062
0.2125771
0.213395
0.2139099
0.21409
0.213941
0.2134952
0.2128988
0.2123356
0.2125671
0.2131643
0.2156102
0.2074626
0.2087468
0.2099272
0.2109286
0.2116898
0.2121619
0.2123116
0.212121
0.2116149
0.2108601
0.2101062
0.2099562
0.2099876
0.2103923
0.2126639
0.2060701
0.2072839
0.2083887
0.2093217
0.2100277
0.2104592
0.2105746
0.2103405
0.2097259
0.2087399
0.2075345
0.2070947
0.2066853
0.2064929
0.2066994
0.2085742
0.2047522
0.2059035
0.2069449
0.2078221
0.2084852
0.2088872
0.2089826
0.2087176
0.2080094
0.2066708
0.2042206
0.2033323
0.2027054
0.2021849
0.2018682
0.2017218
0.2043935
0.1969598
0.1972917
0.1973355
0.1971711
0.1967948
0.1961894
0.1967249
0.1988904
0.1924929
0.1928799
0.1930366
0.1929397
0.1925847
0.191777
0.1917639
0.1919817
0.1936447
0.1893943
0.1897478
0.1898968
0.1898148
0.1894562
0.188659
0.1884409
0.1882013
0.1881607
0.1894203
0.187305
0.1876381
0.187787
0.187719
0.1873999
0.1866524
0.1864591
0.1861063
0.1857073
0.1854848
0.1864088
0.186067
0.1864065
0.1865753
0.1865471
0.1862865
0.1856385
0.1855132
0.1852542
0.1848266
0.1843392
0.1839627
0.1847268
0.2161032
0.2176669
0.2190919
0.2202934
0.2211995
0.2217471
0.2220289
0.222233
0.2245922
0.214572
0.216099
0.2174982
0.2186827
0.2195714
0.2201129
0.2202577
0.2201591
0.2200177
0.2222079
0.2131334
0.2146304
0.2160134
0.2171888
0.2180797
0.2186204
0.2187936
0.2185813
0.2182234
0.2180018
0.2199669
0.211735
0.2131974
0.2145571
0.2157183
0.2166031
0.2171566
0.2173407
0.2171884
0.2167365
0.2163185
0.2163142
0.2190433
0.2103451
0.2117643
0.2130877
0.2142203
0.2150881
0.2156364
0.2158419
0.2157046
0.2153166
0.2147809
0.2145088
0.2152419
0.2178486
0.2089502
0.2103171
0.21159
0.2126787
0.2135132
0.2140445
0.2142449
0.2141274
0.2137353
0.2132215
0.2127614
0.2130787
0.2137594
0.2162329
0.2075529
0.2088593
0.2100695
0.2111009
0.2118897
0.2123887
0.212572
0.2124374
0.2120342
0.2114547
0.2109327
0.210963
0.2111729
0.2117396
0.2140797
0.2061681
0.207409
0.2085484
0.2095148
0.2102504
0.21071
0.2108617
0.2106949
0.2102239
0.2095351
0.20882
0.2087014
0.2085681
0.2086201
0.2090374
0.2110351
0.2048213
0.2059956
0.207064
0.2079659
0.2086495
0.2090699
0.2091897
0.2089766
0.2084086
0.2074859
0.2063779
0.2059753
0.2056288
0.205315
0.2052075
0.2052891
0.2082436
0.2035446
0.2046603
0.2056685
0.206518
0.2071608
0.2075532
0.2076525
0.2074097
0.2067453
0.2054898
0.2031801
0.202387
0.2018272
0.2013969
0.2010021
0.2005994
0.2014388
0.2040726
0.1962102
0.1965789
0.1966924
0.1965964
0.196326
0.1957014
0.1959481
0.1964604
0.1985927
0.1918842
0.1923117
0.1925251
0.1925179
0.1922605
0.1916039
0.1915619
0.1915312
0.1917264
0.1933599
0.1888647
0.1892549
0.1894611
0.1894553
0.1892091
0.1885482
0.188461
0.1882284
0.1879715
0.187909
0.189083
0.1868119
0.1871791
0.1873767
0.1873798
0.1871539
0.1865455
0.1864669
0.1862613
0.1858941
0.185478
0.1851814
0.1860693
0.1855799
0.1859479
0.1861589
0.186189
0.1860107
0.1854751
0.1854629
0.1853268
0.1850555
0.1846136
0.1840606
0.183654
0.1844704
0.2144812
0.2159765
0.217338
0.2184872
0.2193454
0.2198562
0.2199563
0.2197562
0.2193792
0.2211259
0.2130144
0.2144772
0.2158161
0.2169482
0.2177999
0.2183016
0.2184209
0.2181063
0.2175309
0.2168852
0.2182992
0.2116335
0.2130703
0.2143955
0.2155216
0.2163739
0.2168949
0.217037
0.2168135
0.2162285
0.2155862
0.2152909
0.2179034
0.2102889
0.211695
0.2130004
0.2141142
0.2149644
0.2154952
0.215679
0.2155073
0.2150614
0.2144343
0.2140499
0.2146926
0.2172673
0.2089502
0.2103171
0.21159
0.2126787
0.2135132
0.2140445
0.2142449
0.2141274
0.2137353
0.2132215
0.2127614
0.2130787
0.2137594
0.2162329
0.2076049
0.2089234
0.2101499
0.2111982
0.2120029
0.2125175
0.2127198
0.2126149
0.2122616
0.2117592
0.2113313
0.2114388
0.211728
0.2123678
0.2147241
0.2062552
0.2075174
0.2086853
0.2096805
0.2104422
0.2109274
0.2111112
0.2109974
0.2106238
0.2100995
0.209601
0.2096468
0.2096731
0.2098772
0.2104257
0.2124546
0.2049159
0.2061163
0.2072179
0.2081518
0.2088637
0.2093109
0.2094655
0.2093165
0.2088853
0.2082445
0.2075996
0.2074948
0.2074002
0.2073018
0.207389
0.2076369
0.2107038
0.2036114
0.2047493
0.2057835
0.2066567
0.2073191
0.2077292
0.2078518
0.2076587
0.2071283
0.2062697
0.2052368
0.2048984
0.204592
0.2043439
0.2041242
0.2039283
0.2050027
0.2079151
0.2023739
0.2034557
0.2044332
0.2052565
0.2058806
0.2062636
0.206366
0.206142
0.2055184
0.204333
0.2021546
0.2014339
0.2009589
0.2005923
0.200288
0.1998269
0.2003417
0.2011574
0.2037536
0.1954446
0.1958466
0.1960085
0.1959914
0.195799
0.1953012
0.1954774
0.1957063
0.1961953
0.1982945
0.1912547
0.1917107
0.1919728
0.1920312
0.1918735
0.1913344
0.1914021
0.1913456
0.191297
0.1914696
0.1930133
0.1883116
0.188731
0.1889803
0.1890393
0.1888783
0.1883472
0.1883611
0.1882615
0.1880144
0.1877399
0.1876021
0.1887377
0.1862973
0.1866908
0.1869282
0.1869867
0.1868398
0.1863397
0.1863693
0.1862798
0.1860619
0.1856802
0.1851982
0.1848709
0.1858108
0.1850747
0.1854652
0.1857098
0.1857881
0.1856751
0.1852352
0.1853078
0.1852859
0.1851389
0.1848552
0.1843536
0.1837758
0.1834191
0.1842962
0.2129275
0.2143603
0.2156634
0.2167625
0.2175858
0.2180608
0.2181421
0.2177467
0.2169521
0.2156899
0.2151342
0.2115195
0.2129237
0.2142073
0.2152925
0.2161082
0.2165937
0.2166884
0.2163755
0.2155989
0.2145592
0.2136101
0.2158735
0.2101915
0.2115731
0.2128458
0.2139265
0.214746
0.2152466
0.2153923
0.2151561
0.2145912
0.2137591
0.2131001
0.2135295
0.2159898
0.2088962
0.2102505
0.2115062
0.2125771
0.213395
0.2139099
0.21409
0.213941
0.2134952
0.2128988
0.2123356
0.2125671
0.2131643
0.2156102
0.2076049
0.2089234
0.2101499
0.2111982
0.2120029
0.2125175
0.2127198
0.2126149
0.2122616
0.2117592
0.2113313
0.2114388
0.211728
0.2123678
0.2147241
0.2063054
0.2075791
0.2087627
0.209774
0.2105509
0.2110509
0.2112528
0.2111671
0.2108406
0.2103884
0.2099776
0.2100931
0.2101904
0.210464
0.2110728
0.2131011
0.2050001
0.206221
0.2073498
0.2083113
0.2090482
0.2095199
0.2097051
0.2096066
0.2092679
0.2087829
0.2083416
0.2083886
0.2084389
0.2084753
0.2086865
0.2090349
0.2121236
0.2037029
0.2048659
0.205932
0.2068359
0.2075254
0.2079612
0.2081172
0.2079855
0.2075857
0.2069955
0.2064018
0.2063424
0.2062675
0.206214
0.2061634
0.2061232
0.2073521
0.2103741
0.2024386
0.2035418
0.2045444
0.2053904
0.2060333
0.2064333
0.2065582
0.2063818
0.2058867
0.2050808
0.2041211
0.2038279
0.2035861
0.2033799
0.2032285
0.2029415
0.2036685
0.204718
0.2075888
0.2012371
0.2022878
0.203236
0.2040352
0.2046413
0.2050155
0.2051203
0.204913
0.2043248
0.2032038
0.2011387
0.2004864
0.2000741
0.1997875
0.1995462
0.1991876
0.1995882
0.2000856
0.2008778
0.2034367
0.1946721
0.1950966
0.1953019
0.1953413
0.1952353
0.1948321
0.1950913
0.1952531
0.1954642
0.1959298
0.1979333
0.1906097
0.1910882
0.1913863
0.1915011
0.1914176
0.1909948
0.1911438
0.1911991
0.1911279
0.1910614
0.191157
0.1926584
0.1877417
0.188183
0.1884675
0.1885764
0.188488
0.1880572
0.1881695
0.1881726
0.1880604
0.1877986
0.1874575
0.1872881
0.1884747
0.1857665
0.1861807
0.1864496
0.1865538
0.1864694
0.1860617
0.1861719
0.1861917
0.1860913
0.1858608
0.1854193
0.184912
0.1846348
0.1856351
0.1845555
0.1849639
0.1852358
0.1853532
0.1852947
0.1849321
0.1850752
0.1851391
0.1851074
0.1849494
0.1846107
0.1840879
0.1835592
0.1832598
0.1842072
0.2048659
0.2114363
0.2128119
0.2140615
0.2151155
0.2159047
0.2163657
0.2164276
0.2160428
0.2150746
0.2134614
0.2106533
0.2121449
0.210082
0.2114327
0.2126657
0.2137077
0.2144928
0.2149604
0.2150627
0.2147457
0.2140065
0.2128116
0.2115426
0.2115546
0.2137232
0.2088025
0.2101335
0.2113581
0.2123975
0.2131863
0.2136729
0.2138174
0.2136088
0.2130529
0.2122688
0.2114539
0.2114854
0.2118919
0.2142411
0.2075529
0.2088593
0.2100695
0.2111009
0.2118897
0.2123887
0.212572
0.2124374
0.2120342
0.2114547
0.2109327
0.210963
0.2111729
0.2117396
0.2140797
0.2063054
0.2075791
0.2087627
0.209774
0.2105509
0.2110509
0.2112528
0.2111671
0.2108406
0.2103884
0.2099776
0.2100931
0.2101904
0.210464
0.2110728
0.2131011
0.2050486
0.2062805
0.2074244
0.2084013
0.2091527
0.2096385
0.209841
0.2097693
0.2094753
0.2090585
0.2086992
0.2088105
0.2089247
0.2090229
0.209292
0.2096867
0.2127703
0.2037843
0.204967
0.2060593
0.2069896
0.2077032
0.2081624
0.2083476
0.2082643
0.2079527
0.2075107
0.2071095
0.2071918
0.20725
0.207318
0.2073759
0.2074324
0.2087517
0.2117938
0.2025272
0.2036546
0.2046879
0.2055635
0.2062324
0.2066571
0.206814
0.2066965
0.2063264
0.2057769
0.2052354
0.205205
0.2051785
0.2051492
0.2051487
0.204995
0.2058657
0.2070686
0.2100459
0.2012998
0.2023712
0.2033436
0.2041646
0.2047889
0.2051794
0.2053058
0.2051444
0.2046795
0.2039223
0.2030233
0.2027754
0.2025787
0.2024367
0.2023282
0.2021222
0.2027014
0.2034104
0.2044352
0.2072646
0.2001332
0.2011537
0.2020751
0.202851
0.2034406
0.2038061
0.2039128
0.2037203
0.2031641
0.2020999
0.200138
0.1995411
0.1991876
0.1989591
0.1987957
0.1985089
0.1989641
0.199351
0.1998311
0.2005998
0.2030557
0.1938957
0.1943382
0.1945752
0.1946648
0.1946216
0.1943185
0.1946341
0.194881
0.1950284
0.1952216
0.195608
0.1975632
0.189955
0.1904497
0.190777
0.1909347
0.1909151
0.1905809
0.190814
0.1909521
0.1909948
0.1909088
0.1907747
0.190837
0.192388
0.1871596
0.1876179
0.1879297
0.1880799
0.1880484
0.1877035
0.187888
0.1879905
0.1879825
0.1878577
0.1875356
0.1871687
0.1870492
0.188296
0.1852237
0.1856541
0.1859484
0.1860895
0.1860573
0.1857241
0.1859013
0.1860026
0.1860126
0.1859011
0.1856155
0.1851526
0.1846945
0.1844745
0.1855453
0.1840259
0.1844486
0.1847427
0.1848924
0.1848787
0.1845815
0.1847789
0.184914
0.1849689
0.1849274
0.1847182
0.1843609
0.183886
0.1834124
0.1831783
0.1985554
0.2017115
0.2042196
0.210002
0.2113255
0.2125263
0.2135386
0.2142987
0.2147437
0.2148157
0.2144339
0.2135177
0.211797
0.2088029
0.2081239
0.2098192
0.2086972
0.2099986
0.2111854
0.212188
0.2129443
0.2133997
0.2135038
0.2132201
0.2125026
0.2113823
0.2100059
0.2096512
0.2097229
0.211839
0.2074626
0.2087468
0.2099272
0.2109286
0.2116898
0.2121619
0.2123116
0.212121
0.2116149
0.2108601
0.2101062
0.2099562
0.2099876
0.2103923
0.2126639
0.2062552
0.2075174
0.2086853
0.2096805
0.2104422
0.2109274
0.2111112
0.2109974
0.2106238
0.2100995
0.209601
0.2096468
0.2096731
0.2098772
0.2104257
0.2124546
0.2050486
0.2062805
0.2074244
0.2084013
0.2091527
0.2096385
0.209841
0.2097693
0.2094753
0.2090585
0.2086992
0.2088105
0.2089247
0.2090229
0.209292
0.2096867
0.2127703
0.2038313
0.2050246
0.2061313
0.2070764
0.2078039
0.2082766
0.2084783
0.2084207
0.2081517
0.2077743
0.2074507
0.2075927
0.2077095
0.2078328
0.2079415
0.2080436
0.2094043
0.2124405
0.2026061
0.2037524
0.204811
0.2057119
0.2064039
0.2068511
0.207036
0.2069649
0.2066792
0.206271
0.2059125
0.2060151
0.2061123
0.2061936
0.2062899
0.2062196
0.2071771
0.2084696
0.2114652
0.2013857
0.2024805
0.2034825
0.204332
0.2049812
0.2053955
0.2055526
0.2054478
0.2051029
0.2045913
0.2040917
0.2040924
0.2040972
0.2041183
0.2041453
0.2040568
0.2047575
0.2056096
0.2067865
0.2097194
0.2001941
0.2012345
0.2021793
0.2029763
0.2035833
0.2039646
0.2040921
0.2039438
0.2035061
0.2027914
0.2019478
0.2017347
0.2015823
0.2014847
0.2014397
0.2012859
0.2018976
0.2024629
0.2031541
0.2041541
0.2068748
0.1990589
0.2000523
0.2009474
0.2017022
0.2022756
0.2026332
0.2027412
0.202562
0.2020345
0.2010217
0.1991519
0.1986048
0.1982977
0.1981229
0.1980152
0.1978125
0.1982982
0.1987421
0.1991153
0.1995782
0.2002654
0.2026654
0.1931198
0.1935748
0.1938381
0.1939654
0.1939777
0.1937491
0.1941308
0.1944357
0.1946705
0.1948033
0.1949276
0.1952786
0.1972813
0.1892943
0.1898009
0.1901505
0.1903438
0.1903737
0.1901161
0.1904087
0.1906321
0.1907592
0.1907892
0.1906422
0.1904813
0.1905936
0.1922043
0.1865691
0.1870402
0.187374
0.187557
0.1875732
0.1872971
0.1875419
0.1877174
0.1878101
0.187791
0.1876106
0.1872667
0.1869491
0.186887
0.1882046
0.184672
0.1851151
0.18543
0.1856016
0.1856121
0.1853419
0.1855704
0.1857395
0.1858319
0.185832
0.1856692
0.1853647
0.1849499
0.184547
0.1843926
0.1834885
0.1839225
0.184235
0.1844115
0.1844354
0.1841929
0.1844345
0.1846244
0.1847514
0.1847974
0.1847078
0.1844819
0.1841711
0.1837492
0.1833374
0.1941858
0.1961313
0.1982418
0.200517
0.2011546
0.2032563
0.2086203
0.2098957
0.2110517
0.2120262
0.2127588
0.2131928
0.2132687
0.2129243
0.2120426
0.2104303
0.2074527
0.2064675
0.2061431
0.2079154
0.2073611
0.208617
0.2097613
0.2107276
0.2114579
0.2119005
0.212012
0.2117506
0.2110927
0.2100231
0.2087464
0.2082472
0.2079698
0.2081092
0.2102022
0.2061681
0.207409
0.2085484
0.2095148
0.2102504
0.21071
0.2108617
0.2106949
0.2102239
0.2095351
0.20882
0.2087014
0.2085681
0.2086201
0.2090374
0.2110351
0.2050001
0.206221
0.2073498
0.2083113
0.2090482
0.2095199
0.2097051
0.2096066
0.2092679
0.2087829
0.2083416
0.2083886
0.2084389
0.2084753
0.2086865
0.2090349
0.2121236
0.2038313
0.2050246
0.2061313
0.2070764
0.2078039
0.2082766
0.2084783
0.2084207
0.2081517
0.2077743
0.2074507
0.2075927
0.2077095
0.2078328
0.2079415
0.2080436
0.2094043
0.2124405
0.2026515
0.2038081
0.2048805
0.2057957
0.206501
0.2069612
0.207162
0.2071154
0.2068704
0.2065239
0.2062388
0.2063975
0.206549
0.2066807
0.206822
0.2067912
0.2077893
0.2091228
0.2121117
0.2014621
0.2025752
0.2036015
0.2044754
0.2051469
0.2055828
0.2057669
0.2057067
0.2054426
0.2050662
0.2047409
0.2048673
0.2049878
0.2051111
0.2052252
0.20521
0.2059843
0.2069228
0.2081885
0.2111377
0.2002775
0.2013404
0.2023138
0.2031382
0.2037694
0.2041735
0.2043307
0.2042368
0.2039145
0.2034354
0.2029742
0.2029973
0.2030345
0.2030883
0.203167
0.2031169
0.2038348
0.2045211
0.2053549
0.2065059
0.2093261
0.199118
0.2001307
0.2010485
0.2018236
0.2024139
0.2027866
0.2029146
0.2027781
0.2023648
0.2016883
0.200893
0.2007113
0.2005925
0.2005376
0.200536
0.2004522
0.2010743
0.2016746
0.202226
0.2028995
0.2038162
0.2064755
0.1980146
0.1989803
0.1998522
0.2005859
0.2011449
0.2014943
0.2016034
0.2014361
0.2009347
0.1999686
0.1981825
0.1976778
0.1974116
0.1972784
0.1972217
0.1970798
0.1976129
0.1980889
0.1985215
0.1988811
0.199274
0.1999231
0.2023682
0.1923468
0.1928109
0.1930942
0.1932532
0.1933077
0.1931447
0.1935704
0.1939427
0.194237
0.1944595
0.1945305
0.1946268
0.1950279
0.1970897
0.1886307
0.1891458
0.189513
0.1897341
0.1898055
0.1896087
0.1899517
0.1902355
0.1904491
0.1905651
0.190539
0.1903695
0.1902583
0.1904283
0.1921102
0.1859728
0.1864538
0.186805
0.1870151
0.1870699
0.1868522
0.1871423
0.1873789
0.1875456
0.1876283
0.1875575
0.187358
0.1870623
0.1868001
0.1868041
0.1841139
0.184567
0.1848987
0.1850956
0.1851418
0.1849242
0.1851944
0.1854155
0.1855764
0.1856599
0.1856118
0.1854321
0.1851743
0.1848125
0.1844717
0.1829453
0.1833884
0.1837159
0.1839151
0.1839707
0.1837748
0.1840515
0.1842862
0.1844686
0.1845874
0.1845881
0.1844834
0.1843025
0.1840425
0.1836794
0.1913504
0.1922368
0.1939405
0.1953389
0.1958534
0.1976579
0.1997209
0.2000048
0.2003187
0.2021356
0.207287
0.208518
0.2096328
0.2105723
0.2112801
0.2117024
0.2117871
0.2114687
0.2106556
0.2091238
0.2063449
0.2052768
0.2046434
0.2045085
0.2063073
0.2060701
0.2072839
0.2083887
0.2093217
0.2100277
0.2104592
0.2105746
0.2103405
0.2097259
0.2087399
0.2075345
0.2070947
0.2066853
0.2064929
0.2066994
0.2085742
0.2049159
0.2061163
0.2072179
0.2081518
0.2088637
0.2093109
0.2094655
0.2093165
0.2088853
0.2082445
0.2075996
0.2074948
0.2074002
0.2073018
0.207389
0.2076369
0.2107038
0.2037843
0.204967
0.2060593
0.2069896
0.2077032
0.2081624
0.2083476
0.2082643
0.2079527
0.2075107
0.2071095
0.2071918
0.20725
0.207318
0.2073759
0.2074324
0.2087517
0.2117938
0.2026515
0.2038081
0.2048805
0.2057957
0.206501
0.2069612
0.207162
0.2071154
0.2068704
0.2065239
0.2062388
0.2063975
0.206549
0.2066807
0.206822
0.2067912
0.2077893
0.2091228
0.2121117
0.2015062
0.2026291
0.2036688
0.2045564
0.2052406
0.2056891
0.2058885
0.2058518
0.2056268
0.2053092
0.2050538
0.2052331
0.2054043
0.205574
0.2057287
0.205748
0.2065569
0.2075359
0.2088422
0.2117838
0.2003516
0.2014322
0.2024291
0.203277
0.2039296
0.2043545
0.2045377
0.2044867
0.2042421
0.2038925
0.2035979
0.2037402
0.2038864
0.2040351
0.2041935
0.2042084
0.2049902
0.2057499
0.2066695
0.2079085
0.2107427
0.199199
0.2002335
0.2011789
0.2019805
0.202594
0.2029888
0.2031454
0.2030614
0.2027592
0.2023092
0.2018807
0.201924
0.2019846
0.2020713
0.2021832
0.202193
0.2029078
0.2036139
0.2042861
0.2051014
0.2061679
0.2089232
0.1980721
0.1990565
0.1999502
0.2007036
0.2012789
0.2016429
0.2017715
0.2016453
0.2012541
0.200612
0.1998601
0.1997042
0.1996153
0.1995925
0.199632
0.1995967
0.2002518
0.2008641
0.201453
0.2019906
0.2025934
0.2034703
0.2061713
0.1969957
0.1979382
0.1987859
0.1995013
0.2000455
0.2003879
0.2004974
0.2003411
0.1998633
0.1989399
0.1972301
0.1967629
0.1965308
0.1964338
0.1964159
0.1963289
0.1968898
0.1974145
0.1978809
0.1983023
0.1985995
0.1989629
0.1996627
0.202166
0.1915786
0.192049
0.1923482
0.192532
0.1926223
0.1925105
0.1929742
0.1933914
0.1937543
0.194038
0.1942039
0.1942515
0.194398
0.1948577
0.1969915
0.1879662
0.1884873
0.1888681
0.189112
0.1892167
0.1890715
0.1894513
0.1897863
0.1900613
0.1902649
0.1903288
0.1902832
0.1901622
0.1901069
0.1903437
0.1853731
0.1858614
0.1862267
0.1864589
0.186546
0.1863768
0.1867037
0.1869863
0.1872148
0.1873724
0.1874067
0.1873188
0.1871662
0.1869237
0.186724
0.1835513
0.1840122
0.1843577
0.1845757
0.1846521
0.1844793
0.1847824
0.1850457
0.1852592
0.185412
0.1854499
0.1853867
0.1852522
0.1850453
0.1847424
0.1823982
0.1828483
0.1831884
0.1834066
0.1834893
0.1833335
0.1836386
0.1839088
0.1841366
0.1843116
0.1843873
0.1843742
0.1843131
0.184181
0.183977
0.1899465
0.1896988
0.191123
0.1917217
0.1920151
0.1934578
0.1948862
0.1950838
0.195334
0.1968487
0.1990709
0.1992446
0.1992372
0.1993384
0.2009338
0.2059986
0.2071885
0.2082651
0.2091724
0.209857
0.2102691
0.210359
0.2100706
0.2093089
0.2078852
0.205264
0.2042996
0.2035794
0.2031428
0.203115
0.2047166
0.2048213
0.2059956
0.207064
0.2079659
0.2086495
0.2090699
0.2091897
0.2089766
0.2084086
0.2074859
0.2063779
0.2059753
0.2056288
0.205315
0.2052075
0.2052891
0.2082436
0.2037029
0.2048659
0.205932
0.2068359
0.2075254
0.2079612
0.2081172
0.2079855
0.2075857
0.2069955
0.2064018
0.2063424
0.2062675
0.206214
0.2061634
0.2061232
0.2073521
0.2103741
0.2026061
0.2037524
0.204811
0.2057119
0.2064039
0.2068511
0.207036
0.2069649
0.2066792
0.206271
0.2059125
0.2060151
0.2061123
0.2061936
0.2062899
0.2062196
0.2071771
0.2084696
0.2114652
0.2015062
0.2026291
0.2036688
0.2045564
0.2052406
0.2056891
0.2058885
0.2058518
0.2056268
0.2053092
0.2050538
0.2052331
0.2054043
0.205574
0.2057287
0.205748
0.2065569
0.2075359
0.2088422
0.2117838
0.2003943
0.2014844
0.2024943
0.2033554
0.2040203
0.2044572
0.2046551
0.2046268
0.2044197
0.2041265
0.2038986
0.204091
0.2042848
0.2044767
0.2046722
0.2047177
0.2055292
0.2063235
0.2072834
0.2085626
0.2113881
0.199271
0.2003226
0.2012907
0.202115
0.2027492
0.203164