/*--------------------------------*- C++ -*----------------------------------*\
| =========                 |                                                 |
| \\      /  F ield         | OpenFOAM: The Open Source CFD Toolbox           |
|  \\    /   O peration     | Version:  2306                                  |
|   \\  /    A nd           | Website:  www.openfoam.com                      |
|    \\/     M anipulation  |                                                 |
\*---------------------------------------------------------------------------*/
FoamFile
{
    version     2.0;
    format      ascii;
    arch        "LSB;label=32;scalar=64";
    class       volScalarField;
    location    "1.2/air";
    object      T;
}
// * * * * * * * * * * * * * * * * * * * * * * * * * * * * * * * * * * * * * //

dimensions      [0 0 0 1 0 0 0];

internalField   nonuniform List<scalar> 
16000
(
1097.963
1086.892
1110.862
1086.71
1080.893
1107.803
1060.042
1114.071
1107.76
1080.552
1077.541
1105.171
1043.696
1112.691
1098.74
1043.44
1116.701
1112.731
1105.074
1077.004
1075.994
1103.241
1034.014
1111.454
1090.868
1018.952
1115.994
1108.665
1090.74
1033.328
1119.033
1116.069
1111.518
1103.061
1075.199
1075.994
1102.222
1029.459
1110.51
1085.049
1003.763
1115.372
1104.957
1078.008
1003.174
1118.626
1114.039
1104.964
1084.682
1028.083
1121.151
1118.71
1115.504
1110.585
1101.928
1074.844
1111.046
1077.541
1102.222
1029.459
1109.996
1081.964
996.4343
1114.899
1102.095
1068.487
983.8743
1118.28
1112.204
1098.89
1068.145
994.7824
1120.888
1117.582
1112.269
1102.07
1081.233
1027.089
1123.092
1120.97
1118.431
1115.087
1110.082
1101.798
1075.921
1110.984
1113.431
1112.669
1080.893
1103.241
1034.014
1109.996
1081.964
996.4343
1114.642
1100.531
1063.402
974.3931
1118.023
1110.789
1094.146
1055.653
973.0978
1120.673
1116.587
1109.289
1094.082
1062.471
993.17
1122.9
1120.269
1116.672
1110.923
1100.455
1080.792
1030.315
1124.886
1122.976
1120.822
1118.245
1114.896
1110.109
1102.714
1078.659
1110.848
1113.423
1112.579
1115.838
1114.932
1114.303
1086.892
1105.171
1043.696
1110.51
1085.049
1003.763
1114.642
1100.531
1063.402
974.3931
1117.885
1110.014
1091.539
1048.938
962.3352
1120.517
1115.835
1106.96
1087.785
1048.209
970.9947
1122.748
1119.67
1115.089
1107.032
1091.355
1061.706
998.3347
1124.73
1122.48
1119.757
1116.026
1110.243
1100.435
1083.479
1038.275
1126.55
1124.8
1122.888
1120.738
1118.191
1114.986
1110.701
1104.644
1083.772
1110.583
1113.408
1112.363
1115.842
1114.923
1114.188
1118.096
1117.17
1116.433
1115.95
1097.963
1107.803
1060.042
1111.454
1090.868
1018.952
1114.899
1102.095
1068.487
983.8743
1117.885
1110.014
1091.539
1048.938
962.3352
1120.435
1115.428
1105.674
1084.303
1040.513
959.9608
1122.641
1119.227
1113.873
1103.956
1084.136
1047.17
977.6105
1124.61
1122.068
1118.825
1113.997
1105.853
1091.256
1066.04
1010.832
1126.416
1124.409
1122.151
1119.428
1115.767
1110.403
1102.103
1089.134
1052.363
1128.101
1126.48
1124.739
1122.849
1120.742
1118.3
1115.383
1111.836
1107.521
1093.278
1109.84
1113.4
1111.896
1115.856
1114.911
1113.911
1118.104
1117.182
1116.424
1115.819
1120.196
1119.267
1118.499
1117.934
1117.614
1110.862
1086.71
1112.691
1098.74
1043.44
1115.372
1104.957
1078.008
1003.174
1118.023
1110.789
1094.146
1055.653
973.0978
1120.435
1115.428
1105.674
1084.303
1040.513
959.9608
1122.585
1118.991
1113.209
1102.247
1080.13
1039.318
967.3489
1124.528
1121.772
1118.127
1112.42
1102.354
1083.954
1052.787
993.4126
1126.314
1124.091
1121.526
1118.264
1113.524
1106.048
1093.925
1075.119
1032.036
1127.981
1126.146
1124.168
1121.965
1119.352
1115.986
1111.462
1105.328
1097.342
1075.798
1129.549
1128.039
1126.431
1124.719
1122.875
1120.852
1118.591
1116.09
1113.498
1111.444
1104.568
1113.484
1110.682
1115.901
1114.912
1113.322
1118.126
1117.218
1116.41
1115.505
1120.205
1119.285
1118.518
1117.925
1117.475
1122.15
1121.226
1120.434
1119.825
1119.437
1118.503
1114.071
1107.76
1080.552
1115.994
1108.665
1090.74
1033.328
1118.28
1112.204
1098.89
1068.145
994.7824
1120.517
1115.835
1106.96
1087.785
1048.209
970.9947
1122.585
1118.991
1113.209
1102.247
1080.13
1039.318
967.3489
1124.486
1121.616
1117.751
1111.551
1100.401
1079.896
1045.638
984.8845
1126.245
1123.867
1121.07
1117.379
1111.763
1102.558
1087.411
1064.51
1019.486
1127.89
1125.879
1123.694
1121.204
1118.1
1113.821
1107.7
1099.069
1088.056
1064.882
1129.439
1127.741
1125.949
1124.047
1121.965
1119.582
1116.727
1113.376
1109.83
1107.541
1098.151
1130.905
1129.492
1127.997
1126.419
1124.752
1122.979
1121.084
1119.082
1117.149
1115.92
1114.733
1106.592
1116.136
1115.02
1111.973
1118.186
1117.323
1116.407
1114.863
1120.229
1119.336
1118.569
1117.908
1117.146
1122.159
1121.246
1120.461
1119.848
1119.427
1118.364
1123.968
1123.059
1122.253
1121.597
1121.146
1120.231
1118.599
1116.701
1112.731
1105.074
1077.004
1118.626
1114.039
1104.964
1084.682
1028.083
1120.673
1116.587
1109.289
1094.082
1062.471
993.17
1122.641
1119.227
1113.873
1103.956
1084.136
1047.17
977.6105
1124.486
1121.616
1117.751
1111.551
1100.401
1079.896
1045.638
984.8845
1126.21
1123.751
1120.829
1116.899
1110.787
1100.604
1083.79
1058.804
1013.429
1127.829
1125.693
1123.356
1120.641
1117.138
1112.105
1104.666
1094.062
1081.013
1058.187
1129.356
1127.504
1125.556
1123.482
1121.171
1118.42
1114.942
1110.673
1106.057
1103.51
1093.076
1130.803
1129.22
1127.569
1125.858
1124.076
1122.186
1120.151
1117.993
1116.057
1115.369
1113.867
1101.552
1132.176
1130.852
1129.454
1127.988
1126.453
1124.848
1123.174
1121.46
1119.84
1118.86
1118.442
1115.627
1108.751
1118.455
1117.69
1116.473
1113.553
1120.292
1119.468
1118.701
1117.89
1116.504
1122.183
1121.3
1120.532
1119.907
1119.405
1118.036
1123.977
1123.079
1122.282
1121.63
1121.172
1120.221
1118.459
1125.665
1124.776
1123.965
1123.274
1122.754
1121.842
1120.316
1118.694
1119.033
1116.069
1111.518
1103.061
1075.199
1120.888
1117.582
1112.269
1102.07
1081.233
1027.089
1122.748
1119.67
1115.089
1107.032
1091.355
1061.706
998.3347
1124.528
1121.772
1118.127
1112.42
1102.354
1083.954
1052.787
993.4126
1126.21
1123.751
1120.829
1116.899
1110.787
1100.604
1083.79
1058.804
1013.429
1127.798
1125.598
1123.18
1120.341
1116.612
1111.149
1102.961
1091.274
1077.225
1054.959
1129.3
1127.341
1125.279
1123.074
1120.578
1117.514
1113.505
1108.448
1102.955
1100.321
1089.673
1130.726
1129.004
1127.222
1125.394
1123.501
1121.481
1119.262
1116.845
1114.676
1114.135
1112.481
1097.339
1132.081
1130.599
1129.063
1127.492
1125.896
1124.281
1122.655
1121.084
1119.795
1119.504
1118.947
1115.018
1104.798
1133.37
1132.126
1130.816
1129.446
1128.02
1126.541
1125.019
1123.484
1122.053
1121.172
1120.946
1119.15
1116.723
1111.013
1120.557
1119.898
1119.067
1117.898
1115.321
1122.243
1121.436
1120.702
1120.041
1119.369
1117.413
1124
1123.131
1122.357
1121.712
1121.232
1120.196
1118.132
1125.673
1124.795
1123.994
1123.31
1122.79
1121.868
1120.306
1118.554
1127.25
1126.386
1125.58
1124.866
1124.29
1123.362
1121.917
1120.401
1118.79
1121.151
1118.71
1115.504
1110.585
1101.928
1074.844
1122.9
1120.269
1116.672
1110.923
1100.455
1080.792
1030.315
1124.61
1122.068
1118.825
1113.997
1105.853
1091.256
1066.04
1010.832
1126.245
1123.867
1121.07
1117.379
1111.763
1102.558
1087.411
1064.51
1019.486
1127.798
1125.598
1123.18
1120.341
1116.612
1111.149
1102.961
1091.274
1077.225
1054.959
1129.272
1127.258
1125.136
1122.86
1120.259
1117.015
1112.698
1107.186
1101.21
1098.578
1087.974
1130.675
1128.856
1126.98
1125.065
1123.082
1120.945
1118.547
1115.869
1113.433
1112.945
1111.252
1094.438
1132.01
1130.399
1128.748
1127.086
1125.432
1123.79
1122.165
1120.624
1119.422
1119.397
1118.819
1113.962
1101.363
1133.281
1131.89
1130.454
1128.994
1127.53
1126.084
1124.686
1123.405
1122.429
1122.229
1121.894
1119.647
1116.252
1107.94
1134.492
1133.323
1132.092
1130.808
1129.476
1128.1
1126.694
1125.287
1123.98
1123.156
1122.961
1121.541
1120.012
1117.939
1113.347
1122.492
1121.864
1121.145
1120.349
1119.319
1116.317
1124.056
1123.262
1122.532
1121.89
1121.352
1120.151
1117.511
1125.694
1124.844
1124.067
1123.397
1122.876
1121.926
1120.281
1118.228
1127.258
1126.404
1125.608
1124.901
1124.329
1123.399
1121.942
1120.39
1118.65
1128.735
1127.898
1127.104
1126.379
1125.762
1124.823
1123.427
1121.991
1120.486
1118.885
1123.092
1120.97
1118.431
1115.087
1110.082
1101.798
1075.921
1124.73
1122.48
1119.757
1116.026
1110.243
1100.435
1083.479
1038.275
1126.314
1124.091
1121.526
1118.264
1113.524
1106.048
1093.925
1075.119
1032.036
1127.829
1125.693
1123.356
1120.641
1117.138
1112.105
1104.666
1094.062
1081.013
1058.187
1129.272
1127.258
1125.136
1122.86
1120.259
1117.015
1112.698
1107.186
1101.21
1098.578
1087.974
1130.649
1128.78
1126.856
1124.895
1122.861
1120.654
1118.147
1115.308
1112.704
1112.241
1110.552
1092.974
1131.962
1130.262
1128.529
1126.801
1125.1
1123.426
1121.775
1120.205
1118.989
1119.088
1118.525
1112.998
1098.942
1133.214
1131.704
1130.162
1128.626
1127.127
1125.698
1124.376
1123.239
1122.482
1122.563
1122.238
1119.631
1115.446
1105.2
1134.408
1133.102
1131.754
1130.389
1129.03
1127.703
1126.445
1125.325
1124.497
1124.318
1124.02
1122.391
1120.433
1117.551
1111.013
1135.547
1134.447
1133.291
1132.085
1130.836
1129.549
1128.239
1126.932
1125.719
1124.932
1124.721
1123.473
1122.261
1120.959
1119.229
1114.604
1124.285
1123.666
1122.979
1122.282
1121.583
1120.074
1116.424
1125.747
1124.967
1124.237
1123.583
1123.044
1122.035
1120.235
1117.61
1127.278
1126.45
1125.677
1124.987
1124.42
1123.484
1122
1120.366
1118.324
1128.742
1127.915
1127.13
1126.413
1125.801
1124.862
1123.464
1122.017
1120.475
1118.746
1130.127
1129.321
1128.543
1127.818
1127.173
1126.231
1124.88
1123.492
1122.065
1120.571
1118.975
1124.886
1122.976
1120.822
1118.245
1114.896
1110.109
1102.714
1078.659
1126.416
1124.409
1122.151
1119.428
1115.767
1110.403
1102.103
1089.134
1052.363
1127.89
1125.879
1123.694
1121.204
1118.1
1113.821
1107.7
1099.069
1088.056
1064.882
1129.3
1127.341
1125.279
1123.074
1120.578
1117.514
1113.505
1108.448
1102.955
1100.321
1089.673
1130.649
1128.78
1126.856
1124.895
1122.861
1120.654
1118.147
1115.308
1112.704
1112.241
1110.552
1092.974
1131.937
1130.193
1128.417
1126.654
1124.926
1123.232
1121.557
1119.957
1118.713
1118.865
1118.319
1112.441
1097.706
1133.169
1131.576
1129.96
1128.368
1126.842
1125.417
1124.133
1123.062
1122.399
1122.618
1122.326
1119.446
1114.697
1103.231
1134.346
1132.927
1131.482
1130.049
1128.666
1127.371
1126.217
1125.282
1124.713
1124.811
1124.527
1122.756
1120.473
1116.935
1108.894
1135.468
1134.24
1132.974
1131.694
1130.423
1129.189
1128.029
1127.01
1126.263
1126.071
1125.767
1124.408
1122.966
1121.281
1118.895
1112.61
1136.539
1135.505
1134.417
1133.284
1132.11
1130.904
1129.676
1128.454
1127.318
1126.562
1126.322
1125.172
1124.093
1123.046
1121.952
1119.933
1114.739
1125.956
1125.34
1124.662
1123.986
1123.359
1122.222
1120.154
1116.532
1127.326
1126.564
1125.836
1125.169
1124.6
1123.641
1122.108
1120.318
1117.709
1128.76
1127.958
1127.195
1126.495
1125.891
1124.954
1123.548
1122.075
1120.451
1118.421
1130.134
1129.337
1128.568
1127.849
1127.211
1126.271
1124.919
1123.529
1122.091
1120.56
1118.836
1131.436
1130.66
1129.904
1129.184
1128.526
1127.59
1126.281
1124.936
1123.557
1122.139
1120.65
1119.045
1126.55
1124.8
1122.888
1120.738
1118.191
1114.986
1110.701
1104.644
1083.772
1127.981
1126.146
1124.168
1121.965
1119.352
1115.986
1111.462
1105.328
1097.342
1075.798
1129.356
1127.504
1125.556
1123.482
1121.171
1118.42
1114.942
1110.673
1106.057
1103.51
1093.076
1130.675
1128.856
1126.98
1125.065
1123.082
1120.945
1118.547
1115.869
1113.433
1112.945
1111.252
1094.438
1131.937
1130.193
1128.417
1126.654
1124.926
1123.232
1121.557
1119.957
1118.713
1118.865
1118.319
1112.441
1097.706
1133.146
1131.511
1129.857
1128.236
1126.695
1125.269
1123.998
1122.951
1122.321
1122.601
1122.33
1119.304
1114.261
1102.213
1134.303
1132.808
1131.294
1129.812
1128.409
1127.133
1126.04
1125.208
1124.772
1125.012
1124.76
1122.882
1120.365
1116.363
1107.344
1135.409
1134.076
1132.719
1131.376
1130.086
1128.89
1127.84
1127.013
1126.53
1126.6
1126.315
1124.901
1123.313
1121.342
1118.428
1110.789
1136.465
1135.31
1134.119
1132.917
1131.724
1130.569
1129.487
1128.54
1127.842
1127.632
1127.307
1126.09
1124.867
1123.598
1122.172
1119.62
1112.78
1137.473
1136.5
1135.477
1134.41
1133.307
1132.173
1131.02
1129.874
1128.805
1128.078
1127.81
1126.722
1125.715
1124.766
1123.865
1122.489
1120.008
1114.874
1127.518
1126.907
1126.232
1125.557
1124.932
1123.911
1122.29
1120.235
1116.642
1128.805
1128.064
1127.343
1126.667
1126.068
1125.123
1123.704
1122.181
1120.402
1117.809
1130.151
1129.377
1128.629
1127.926
1127.298
1126.362
1125.01
1123.613
1122.149
1120.535
1118.513
1131.442
1130.675
1129.927
1129.214
1128.561
1127.628
1126.321
1124.976
1123.594
1122.165
1120.64
1118.906
1132.666
1131.923
1131.191
1130.483
1129.82
1128.897
1127.634
1126.332
1124.993
1123.622
1122.209
1120.711
1119.1
1128.101
1126.48
1124.739
1122.849
1120.742
1118.3
1115.383
1111.836
1107.521
1093.278
1129.439
1127.741
1125.949
1124.047
1121.965
1119.582
1116.727
1113.376
1109.83
1107.541
1098.151
1130.726
1129.004
1127.222
1125.394
1123.501
1121.481
1119.262
1116.845
1114.676
1114.135
1112.481
1097.339
1131.962
1130.262
1128.529
1126.801
1125.1
1123.426
1121.775
1120.205
1118.989
1119.088
1118.525
1112.998
1098.942
1133.146
1131.511
1129.857
1128.236
1126.695
1125.269
1123.998
1122.951
1122.321
1122.601
1122.33
1119.304
1114.261
1102.213
1134.282
1132.747
1131.198
1129.69
1128.277
1127.009
1125.943
1125.156
1124.776
1125.079
1124.849
1122.912
1120.271
1116.028
1106.534
1135.37
1133.964
1132.542
1131.155
1129.849
1128.676
1127.695
1126.981
1126.642
1126.847
1126.595
1125.143
1123.456
1121.286
1118.003
1109.444
1136.41
1135.156
1133.88
1132.619
1131.409
1130.292
1129.319
1128.558
1128.114
1128.148
1127.842
1126.61
1125.315
1123.904
1122.232
1119.218
1110.99
1137.403
1136.317
1135.197
1134.065
1132.945
1131.86
1130.845
1129.955
1129.294
1129.066
1128.721
1127.586
1126.476
1125.378
1124.271
1122.657
1119.698
1112.95
1138.35
1137.436
1136.473
1135.47
1134.432
1133.365
1132.281
1131.203
1130.195
1129.497
1129.207
1128.169
1127.205
1126.303
1125.466
1124.306
1122.546
1120.084
1115.009
1128.981
1128.379
1127.709
1127.031
1126.393
1125.414
1123.97
1122.359
1120.316
1116.751
1130.193
1129.475
1128.767
1128.088
1127.466
1126.53
1125.179
1123.768
1122.253
1120.486
1117.903
1131.458
1130.713
1129.984
1129.287
1128.644
1127.715
1126.412
1125.067
1123.678
1122.222
1120.615
1118.583
1132.672
1131.938
1131.213
1130.512
1129.854
1128.933
1127.672
1126.371
1125.033
1123.659
1122.234
1120.701
1118.962
1133.824
1133.115
1132.409
1131.718
1131.058
1130.153
1128.937
1127.678
1126.382
1125.05
1123.682
1122.262
1120.759
1119.141
1129.549
1128.039
1126.431
1124.719
1122.875
1120.852
1118.591
1116.09
1113.498
1111.444
1104.568
1130.803
1129.22
1127.569
1125.858
1124.076
1122.186
1120.151
1117.993
1116.057
1115.369
1113.867
1101.552
1132.01
1130.399
1128.748
1127.086
1125.432
1123.79
1122.165
1120.624
1119.422
1119.397
1118.819
1113.962
1101.363
1133.169
1131.576
1129.96
1128.368
1126.842
1125.417
1124.133
1123.062
1122.399
1122.618
1122.326
1119.446
1114.697
1103.231
1134.282
1132.747
1131.198
1129.69
1128.277
1127.009
1125.943
1125.156
1124.776
1125.079
1124.849
1122.912
1120.271
1116.028
1106.534
1135.35
1133.907
1132.453
1131.042
1129.728
1128.566
1127.617
1126.954
1126.678
1126.945
1126.714
1125.241
1123.501
1121.228
1117.755
1108.738
1136.373
1135.051
1133.715
1132.412
1131.189
1130.096
1129.19
1128.542
1128.239
1128.401
1128.129
1126.887
1125.55
1124.047
1122.21
1118.86
1109.667
1137.351
1136.172
1134.972
1133.786
1132.65
1131.601
1130.688
1129.975
1129.553
1129.551
1129.226
1128.091
1126.943
1125.764
1124.521
1122.711
1119.302
1111.19
1138.285
1137.264
1136.211
1135.146
1134.092
1133.071
1132.116
1131.277
1130.647
1130.406
1130.045
1128.969
1127.923
1126.909
1125.925
1124.639
1122.709
1119.776
1113.119
1139.175
1138.316
1137.411
1136.467
1135.49
1134.487
1133.466
1132.451
1131.5
1130.83
1130.527
1129.532
1128.601
1127.727
1126.914
1125.842
1124.353
1122.604
1120.16
1115.145
1130.356
1129.765
1129.104
1128.426
1127.775
1126.818
1125.465
1124.028
1122.427
1120.397
1116.855
1131.497
1130.804
1130.113
1129.438
1128.803
1127.877
1126.579
1125.235
1123.831
1122.326
1120.565
1117.976
1132.687
1131.973
1131.267
1130.58
1129.932
1129.016
1127.759
1126.462
1125.124
1123.742
1122.292
1120.676
1118.64
1133.83
1133.128
1132.429
1131.745
1131.09
1130.188
1128.973
1127.717
1126.421
1125.09
1123.719
1122.287
1120.749
1119.003
1134.915
1134.24
1133.562
1132.891
1132.24
1131.359
1130.189
1128.976
1127.723
1126.432
1125.103
1123.728
1122.302
1120.794
1119.167
1109.84
1130.905
1129.492
1127.997
1126.419
1124.752
1122.979
1121.084
1119.082
1117.149
1115.92
1114.733
1106.592
1132.081
1130.599
1129.063
1127.492
1125.896
1124.281
1122.655
1121.084
1119.795
1119.504
1118.947
1115.018
1104.798
1133.214
1131.704
1130.162
1128.626
1127.127
1125.698
1124.376
1123.239
1122.482
1122.563
1122.238
1119.631
1115.446
1105.2
1134.303
1132.808
1131.294
1129.812
1128.409
1127.133
1126.04
1125.208
1124.772
1125.012
1124.76
1122.882
1120.365
1116.363
1107.344
1135.35
1133.907
1132.453
1131.042
1129.728
1128.566
1127.617
1126.954
1126.678
1126.945
1126.714
1125.241
1123.501
1121.228
1117.755
1108.738
1136.354
1134.997
1133.63
1132.306
1131.076
1129.994
1129.121
1128.525
1128.286
1128.506
1128.254
1127.008
1125.649
1124.099
1122.179
1118.652
1108.972
1137.316
1136.073
1134.817
1133.592
1132.443
1131.418
1130.57
1129.964
1129.677
1129.795
1129.501
1128.37
1127.205
1125.979
1124.653
1122.701
1118.951
1109.889
1138.236
1137.128
1135.999
1134.884
1133.814
1132.828
1131.969
1131.295
1130.888
1130.857
1130.515
1129.444
1128.375
1127.31
1126.24
1124.858
1122.762
1119.387
1111.39
1139.114
1138.155
1137.164
1136.163
1135.171
1134.21
1133.31
1132.518
1131.917
1131.669
1131.298
1130.269
1129.268
1128.301
1127.374
1126.225
1124.678
1122.761
1119.854
1113.288
1139.95
1139.143
1138.293
1137.405
1136.486
1135.542
1134.581
1133.625
1132.727
1132.087
1131.776
1130.823
1129.923
1129.069
1128.267
1127.241
1125.882
1124.401
1122.662
1120.237
1115.272
1131.648
1131.073
1130.425
1129.751
1129.093
1128.152
1126.863
1125.517
1124.087
1122.495
1120.473
1116.937
1132.724
1132.059
1131.387
1130.721
1130.082
1129.17
1127.92
1126.628
1125.29
1123.894
1122.394
1120.625
1118.035
1133.844
1133.162
1132.48
1131.809
1131.164
1130.266
1129.056
1127.804
1126.512
1125.18
1123.802
1122.344
1120.723
1118.681
1134.92
1134.252
1133.581
1132.916
1132.271
1131.392
1130.223
1129.013
1127.761
1126.471
1125.143
1123.764
1122.327
1120.783
1119.028
1135.943
1135.301
1134.653
1134.005
1133.369
1132.514
1131.391
1130.225
1129.016
1127.767
1126.478
1125.142
1123.761
1122.33
1120.814
1110.583
1113.484
1110.682
1132.176
1130.852
1129.454
1127.988
1126.453
1124.848
1123.174
1121.46
1119.84
1118.86
1118.442
1115.627
1108.751
1133.281
1131.89
1130.454
1128.994
1127.53
1126.084
1124.686
1123.405
1122.429
1122.229
1121.894
1119.647
1116.252
1107.94
1134.346
1132.927
1131.482
1130.049
1128.666
1127.371
1126.217
1125.282
1124.713
1124.811
1124.527
1122.756
1120.473
1116.935
1108.894
1135.37
1133.964
1132.542
1131.155
1129.849
1128.676
1127.695
1126.981
1126.642
1126.847
1126.595
1125.143
1123.456
1121.286
1118.003
1109.444
1136.354
1134.997
1133.63
1132.306
1131.076
1129.994
1129.121
1128.525
1128.286
1128.506
1128.254
1127.008
1125.649
1124.099
1122.179
1118.652
1108.972
1137.299
1136.023
1134.737
1133.492
1132.337
1131.323
1130.507
1129.951
1129.724
1129.898
1129.624
1128.494
1127.321
1126.074
1124.707
1122.681
1118.748
1109.205
1138.204
1137.035
1135.853
1134.701
1133.62
1132.656
1131.858
1131.285
1131.004
1131.086
1130.774
1129.711
1128.636
1127.546
1126.428
1124.981
1122.753
1119.042
1110.11
1139.068
1138.027
1136.966
1135.917
1134.91
1133.981
1133.171
1132.533
1132.14
1132.086
1131.734
1130.711
1129.695
1128.691
1127.703
1126.502
1124.894
1122.813
1119.471
1111.589
1139.892
1138.992
1138.062
1137.12
1136.186
1135.282
1134.434
1133.686
1133.113
1132.863
1132.489
1131.502
1130.539
1129.605
1128.709
1127.631
1126.258
1124.718
1122.814
1119.932
1113.446
1140.676
1139.92
1139.122
1138.288
1137.424
1136.535
1135.631
1134.73
1133.883
1133.273
1132.96
1132.047
1131.178
1130.345
1129.553
1128.557
1127.276
1125.922
1124.448
1122.72
1120.309
1115.375
1132.864
1132.308
1131.677
1131.013
1130.353
1129.431
1128.193
1126.908
1125.567
1124.145
1122.558
1120.531
1117.004
1133.879
1133.242
1132.593
1131.942
1131.305
1130.412
1129.209
1127.964
1126.677
1125.345
1123.953
1122.444
1120.671
1118.079
1134.934
1134.284
1133.63
1132.977
1132.34
1131.466
1130.302
1129.096
1127.848
1126.561
1125.233
1123.847
1122.384
1120.757
1118.707
1135.948
1135.313
1134.671
1134.029
1133.397
1132.545
1131.424
1130.259
1129.052
1127.805
1126.518
1125.182
1123.798
1122.355
1120.803
1136.911
1136.304
1135.686
1135.063
1134.445
1133.619
1132.543
1131.423
1130.26
1129.055
1127.808
1126.512
1125.17
1123.784
1122.345
1110.848
1113.4
1111.896
1116.136
1115.02
1111.973
1133.37
1132.126
1130.816
1129.446
1128.02
1126.541
1125.019
1123.484
1122.053
1121.172
1120.946
1119.15
1116.723
1111.013
1134.408
1133.102
1131.754
1130.389
1129.03
1127.703
1126.445
1125.325
1124.497
1124.318
1124.02
1122.391
1120.433
1117.551
1111.013
1135.409
1134.076
1132.719
1131.376
1130.086
1128.89
1127.84
1127.013
1126.53
1126.6
1126.315
1124.901
1123.313
1121.342
1118.428
1110.789
1136.373
1135.051
1133.715
1132.412
1131.189
1130.096
1129.19
1128.542
1128.239
1128.401
1128.129
1126.887
1125.55
1124.047
1122.21
1118.86
1109.667
1137.299
1136.023
1134.737
1133.492
1132.337
1131.323
1130.507
1129.951
1129.724
1129.898
1129.624
1128.494
1127.321
1126.074
1124.707
1122.681
1118.748
1109.205
1138.187
1136.988
1135.779
1134.608
1133.521
1132.567
1131.798
1131.273
1131.05
1131.183
1130.89
1129.831
1128.755
1127.654
1126.514
1125.034
1122.734
1118.843
1109.436
1139.037
1137.94
1136.829
1135.745
1134.728
1133.82
1133.067
1132.523
1132.248
1132.299
1131.976
1130.962
1129.944
1128.925
1127.907
1126.674
1125.016
1122.806
1119.133
1110.329
1139.849
1138.873
1137.876
1136.889
1135.942
1135.067
1134.303
1133.699
1133.32
1133.25
1132.893
1131.912
1130.937
1129.974
1129.031
1127.921
1126.53
1124.931
1122.865
1119.556
1111.774
1140.622
1139.779
1138.906
1138.021
1137.143
1136.291
1135.492
1134.786
1134.242
1133.993
1133.621
1132.676
1131.748
1130.844
1129.969
1128.934
1127.658
1126.29
1124.758
1122.866
1120.005
1113.577
1141.356
1140.649
1139.901
1139.118
1138.306
1137.47
1136.619
1135.77
1134.972
1134.392
1134.083
1133.21
1132.373
1131.563
1130.782
1129.812
1128.588
1127.312
1125.963
1124.495
1122.774
1120.362
1115.462
1134.01
1133.476
1132.864
1132.214
1131.559
1130.658
1129.467
1128.233
1126.953
1125.618
1124.199
1122.605
1120.574
1117.056
1134.967
1134.36
1133.736
1133.103
1132.474
1131.603
1130.447
1129.248
1128.007
1126.726
1125.397
1123.996
1122.483
1120.703
1118.107
1135.961
1135.344
1134.717
1134.087
1133.464
1132.616
1131.498
1130.338
1129.135
1127.892
1126.608
1125.272
1123.88
1122.411
1120.776
1136.916
1136.315
1135.703
1135.086
1134.472
1133.648
1132.574
1131.456
1130.295
1129.092
1127.847
1126.552
1125.21
1123.82
1122.37
1137.823
1137.25
1136.663
1136.067
1135.469
1134.675
1133.646
1132.572
1131.455
1130.295
1129.092
1127.837
1126.535
1125.187
1123.794
1110.984
1113.408
1112.363
1115.901
1114.912
1113.322
1118.455
1117.69
1116.473
1113.553
1134.492
1133.323
1132.092
1130.808
1129.476
1128.1
1126.694
1125.287
1123.98
1123.156
1122.961
1121.541
1120.012
1117.939
1113.347
1135.468
1134.24
1132.974
1131.694
1130.423
1129.189
1128.029
1127.01
1126.263
1126.071
1125.767
1124.408
1122.966
1121.281
1118.895
1112.61
1136.41
1135.156
1133.88
1132.619
1131.409
1130.292
1129.319
1128.558
1128.114
1128.148
1127.842
1126.61
1125.315
1123.904
1122.232
1119.218
1110.99
1137.316
1136.073
1134.817
1133.592
1132.443
1131.418
1130.57
1129.964
1129.677
1129.795
1129.501
1128.37
1127.205
1125.979
1124.653
1122.701
1118.951
1109.889
1138.187
1136.988
1135.779
1134.608
1133.521
1132.567
1131.798
1131.273
1131.05
1131.183
1130.89
1129.831
1128.755
1127.654
1126.514
1125.034
1122.734
1118.843
1109.436
1139.022
1137.896
1136.759
1135.657
1134.634
1133.736
1133.011
1132.512
1132.29
1132.391
1132.085
1131.076
1130.058
1129.034
1128.004
1126.754
1125.068
1122.788
1118.938
1109.667
1139.82
1138.791
1137.747
1136.728
1135.771
1134.915
1134.205
1133.689
1133.42
1133.448
1133.119
1132.147
1131.171
1130.198
1129.234
1128.108
1126.7
1125.051
1122.858
1119.224
1110.534
1140.582
1139.667
1138.731
1137.804
1136.914
1136.09
1135.37
1134.798
1134.435
1134.355
1133.998
1133.058
1132.119
1131.189
1130.276
1129.22
1127.945
1126.559
1124.967
1122.916
1119.635
1111.929
1141.305
1140.517
1139.698
1138.868
1138.043
1137.242
1136.49
1135.824
1135.309
1135.065
1134.699
1133.794
1132.902
1132.026
1131.173
1130.171
1128.958
1127.686
1126.323
1124.798
1122.916
1120.06
1113.69
1141.991
1141.331
1140.631
1139.897
1139.135
1138.35
1137.549
1136.751
1135.998
1135.449
1135.147
1134.315
1133.51
1132.725
1131.96
1131.016
1129.84
1128.619
1127.347
1126.003
1124.54
1122.812
1120.401
1115.532
1135.09
1134.579
1133.989
1133.358
1132.713
1131.835
1130.69
1129.502
1128.272
1126.998
1125.666
1124.238
1122.638
1120.603
1117.091
1135.992
1135.416
1134.818
1134.206
1133.59
1132.746
1131.635
1130.482
1129.286
1128.05
1126.771
1125.434
1124.028
1122.508
1120.721
1136.928
1136.345
1135.747
1135.141
1134.535
1133.716
1132.645
1131.531
1130.373
1129.174
1127.933
1126.641
1125.299
1123.902
1122.425
1137.828
1137.261
1136.68
1136.089
1135.496
1134.703
1133.675
1132.603
1131.488
1130.33
1129.129
1127.876
1126.575
1125.227
1123.83
1138.682
1138.142
1137.587
1137.019
1136.445
1135.682
1134.699
1133.672
1132.601
1131.487
1130.329
1129.117
1127.857
1126.548
1125.193
1111.046
1113.423
1112.579
1115.856
1114.911
1113.911
1118.186
1117.323
1116.407
1114.863
1120.557
1119.898
1119.067
1117.898
1115.321
1135.547
1134.447
1133.291
1132.085
1130.836
1129.549
1128.239
1126.932
1125.719
1124.932
1124.721
1123.473
1122.261
1120.959
1119.229
1114.604
1136.465
1135.31
1134.119
1132.917
1131.724
1130.569
1129.487
1128.54
1127.842
1127.632
1127.307
1126.09
1124.867
1123.598
1122.172
1119.62
1112.78
1137.351
1136.172
1134.972
1133.786
1132.65
1131.601
1130.688
1129.975
1129.553
1129.551
1129.226
1128.091
1126.943
1125.764
1124.521
1122.711
1119.302
1111.19
1138.204
1137.035
1135.853
1134.701
1133.62
1132.656
1131.858
1131.285
1131.004
1131.086
1130.774
1129.711
1128.636
1127.546
1126.428
1124.981
1122.753
1119.042
1110.11
1139.022
1137.896
1136.759
1135.657
1134.634
1133.736
1133.011
1132.512
1132.29
1132.391
1132.085
1131.076
1130.058
1129.034
1128.004
1126.754
1125.068
1122.788
1118.938
1109.667
1139.806
1138.75
1137.682
1136.646
1135.683
1134.837
1134.152
1133.678
1133.46
1133.534
1133.221
1132.254
1131.28
1130.304
1129.331
1128.197
1126.78
1125.104
1122.841
1119.033
1109.881
1140.555
1139.59
1138.611
1137.653
1136.753
1135.948
1135.278
1134.789
1134.528
1134.54
1134.21
1133.277
1132.339
1131.401
1130.472
1129.406
1128.129
1126.727
1125.086
1122.911
1119.309
1110.707
1141.268
1140.412
1139.536
1138.665
1137.829
1137.054
1136.376
1135.836
1135.49
1135.404
1135.052
1134.151
1133.248
1132.35
1131.463
1130.445
1129.24
1127.969
1126.587
1125.004
1122.965
1119.694
1112.067
1141.944
1141.208
1140.442
1139.664
1138.89
1138.138
1137.431
1136.804
1136.316
1136.081
1135.725
1134.86
1134.004
1133.158
1132.327
1131.355
1130.192
1128.983
1127.714
1126.355
1124.836
1122.949
1120.1
1113.786
1142.582
1141.968
1141.315
1140.629
1139.914
1139.177
1138.425
1137.674
1136.966
1136.447
1136.157
1135.363
1134.593
1133.835
1133.089
1132.173
1131.042
1129.868
1128.65
1127.382
1126.041
1124.57
1122.838
1120.425
1115.585
1136.109
1135.622
1135.057
1134.446
1133.817
1132.965
1131.865
1130.722
1129.538
1128.312
1127.039
1125.699
1124.265
1122.659
1120.618
1136.958
1136.413
1135.843
1135.254
1134.656
1133.84
1132.775
1131.667
1130.516
1129.325
1128.091
1126.803
1125.46
1124.047
1122.52
1137.84
1137.289
1136.722
1136.142
1135.556
1134.767
1133.743
1132.674
1131.563
1130.409
1129.211
1127.962
1126.664
1125.316
1123.911
1138.687
1138.153
1137.603
1137.04
1136.47
1135.709
1134.727
1133.702
1132.633
1131.52
1130.363
1129.154
1127.895
1126.588
1125.233
1139.49
1138.984
1138.46
1137.921
1137.372
1136.642
1135.705
1134.724
1133.699
1132.63
1131.517
1130.351
1129.134
1127.867
1126.551
1113.431
1112.669
1115.842
1114.923
1114.188
1118.126
1117.218
1116.41
1115.505
1120.292
1119.468
1118.701
1117.89
1116.504
1122.492
1121.864
1121.145
1120.349
1119.319
1116.317
1136.539
1135.505
1134.417
1133.284
1132.11
1130.904
1129.676
1128.454
1127.318
1126.562
1126.322
1125.172
1124.093
1123.046
1121.952
1119.933
1114.739
1137.403
1136.317
1135.197
1134.065
1132.945
1131.86
1130.845
1129.955
1129.294
1129.066
1128.721
1127.586
1126.476
1125.378
1124.271
1122.657
1119.698
1112.95
1138.236
1137.128
1135.999
1134.884
1133.814
1132.828
1131.969
1131.295
1130.888
1130.857
1130.515
1129.444
1128.375
1127.31
1126.24
1124.858
1122.762
1119.387
1111.39
1139.037
1137.94
1136.829
1135.745
1134.728
1133.82
1133.067
1132.523
1132.248
1132.299
1131.976
1130.962
1129.944
1128.925
1127.907
1126.674
1125.016
1122.806
1119.133
1110.329
1139.806
1138.75
1137.682
1136.646
1135.683
1134.837
1134.152
1133.678
1133.46
1133.534
1133.221
1132.254
1131.28
1130.304
1129.331
1128.197
1126.78
1125.104
1122.841
1119.033
1109.881
1140.541
1139.552
1138.55
1137.576
1136.671
1135.874
1135.229
1134.778
1134.565
1134.62
1134.306
1133.377
1132.441
1131.501
1130.566
1129.497
1128.218
1126.806
1125.139
1122.895
1119.122
1110.063
1141.242
1140.341
1139.423
1138.524
1137.679
1136.921
1136.29
1135.828
1135.577
1135.578
1135.251
1134.356
1133.454
1132.549
1131.649
1130.625
1129.424
1128.151
1126.753
1125.122
1122.96
1119.374
1110.862
1141.908
1141.11
1140.29
1139.475
1138.69
1137.963
1137.325
1136.816
1136.487
1136.4
1136.057
1135.195
1134.328