/*--------------------------------*- C++ -*----------------------------------*\
| =========                 |                                                 |
| \\      /  F ield         | OpenFOAM: The Open Source CFD Toolbox           |
|  \\    /   O peration     | Version:  2306                                  |
|   \\  /    A nd           | Website:  www.openfoam.com                      |
|    \\/     M anipulation  |                                                 |
\*---------------------------------------------------------------------------*/
FoamFile
{
    version     2.0;
    format      ascii;
    arch        "LSB;label=32;scalar=64";
    class       volVectorField;
    location    "1.2/air";
    object      U;
}
// * * * * * * * * * * * * * * * * * * * * * * * * * * * * * * * * * * * * * //

dimensions      [0 1 -1 0 0 0 0];

internalField   nonuniform List<vector> 
16000
(
(0.4825209 0.06675102 -0.06689363)
(0.8358827 0.1248537 -0.1031261)
(0.5075767 0.006251645 -0.006055892)
(0.8361131 0.1026728 -0.1264446)
(0.9828027 0.1071354 -0.1035072)
(0.9899987 0.01556761 -0.01145834)
(1.620986 0.208262 -0.2124424)
(0.353671 -0.002189252 0.002213096)
(0.9902355 0.01167534 -0.01489602)
(0.9835398 0.1028311 -0.1113369)
(1.03989 0.06726171 -0.1011982)
(1.248182 0.01572666 -0.0121065)
(2.000607 0.1938079 -0.2321282)
(0.7326747 -0.003061083 0.003736865)
(2.166076 0.03149079 -0.03088206)
(2.001875 0.2260118 -0.204104)
(0.4211892 0.001308318 -0.001304905)
(0.7329546 -0.003709355 0.003144805)
(1.249321 0.01224362 -0.01485205)
(1.041417 0.1003042 -0.07498987)
(1.060139 0.02257761 -0.09957818)
(1.393994 0.01046188 -0.01175894)
(2.143667 0.129611 -0.2365592)
(0.9583722 -0.002948813 0.004015124)
(2.852932 0.03790932 -0.03918125)
(2.48744 0.2236536 -0.238716)
(0.8565632 0.002162501 -0.002329278)
(1.686769 -0.005332006 0.005402276)
(2.855165 0.03910224 -0.03765984)
(2.147223 0.228666 -0.1480955)
(0.3842326 -0.0006600247 0.0006689606)
(0.8568277 0.002300703 -0.002262023)
(0.9597406 -0.00400574 0.003043359)
(1.397173 0.01178061 -0.009715277)
(1.062982 0.09833635 -0.03457481)
(1.060139 -0.02257761 -0.09957818)
(1.457935 0.003757233 -0.01168742)
(2.197618 0.04468411 -0.2347703)
(1.087785 -0.002020867 0.004251755)
(3.263091 0.02697736 -0.03767806)
(2.705592 0.1525924 -0.2458051)
(1.108913 0.002103583 -0.002532598)
(2.302864 -0.005209474 0.006169588)
(3.875322 0.04543243 -0.04645561)
(2.708749 0.227252 -0.1785371)
(0.7902937 -0.001141903 0.001149102)
(1.942029 0.003697976 -0.004046447)
(2.305519 -0.006253157 0.005218342)
(3.271031 0.0368367 -0.02749362)
(2.205061 0.2250206 -0.07217457)
(0.4047678 0.0004082436 -0.0003995447)
(0.7905483 -0.001167851 0.00107662)
(1.110248 0.002473213 -0.002443285)
(1.091538 -0.00428317 0.002003007)
(1.464883 0.01155069 -0.003581975)
(1.065473 0.09776063 0.005381383)
(0.0005753219 -0.001166301 -0.0005538789)
(1.03989 -0.06726171 -0.1011982)
(1.457935 -0.003757233 -0.01168742)
(2.197618 -0.04468411 -0.2347703)
(1.148337 -0.000683951 0.004338522)
(3.443495 0.009946327 -0.036959)
(2.786043 0.05355686 -0.2452598)
(1.253332 0.001362865 -0.002524713)
(2.672823 -0.003476947 0.006629116)
(4.459645 0.03563414 -0.04927815)
(2.966017 0.1571177 -0.1879642)
(1.030368 -0.001125206 0.001234367)
(2.625902 0.003684159 -0.004491331)
(3.213107 -0.006050963 0.00576344)
(4.467504 0.04660607 -0.03844624)
(2.794842 0.2237073 -0.09080184)
(0.8278403 0.0006498578 -0.0007332892)
(1.811162 -0.0021406 0.00185765)
(2.628567 0.003918983 -0.004595568)
(2.681939 -0.007001569 0.003225506)
(3.462267 0.03510058 -0.01203327)
(2.212342 0.2227404 0.007696596)
(0.393739 -0.0001753914 0.0001858149)
(0.8280997 0.0007096438 -0.0007303058)
(1.031656 -0.00128196 0.0008622669)
(1.25706 0.002432303 -0.002069761)
(1.156278 -0.004444389 0.0003482652)
(1.471228 0.01131214 0.002861829)
(1.050208 0.09853269 0.04391912)
(0.0005909763 -0.003374848 -0.0005728087)
(0.0006052047 -0.001018781 -0.0005079626)
(0.0005802754 -0.001168857 -0.001076315)
(0.9828027 -0.1071354 -0.1035072)
(1.393994 -0.01046188 -0.01175894)
(2.143667 -0.129611 -0.2365592)
(1.148337 0.000683951 0.004338522)
(3.443495 -0.009946327 -0.036959)
(2.786043 -0.05355686 -0.2452598)
(1.319804 0.0004601597 -0.002503167)
(2.846342 -0.001156331 0.006920006)
(4.722754 0.01329784 -0.04931951)
(3.060577 0.05560519 -0.1893356)
(1.169829 -0.0007448757 0.001243679)
(3.03046 0.002444096 -0.004423152)
(3.769657 -0.003747317 0.005879858)
(5.160806 0.03730709 -0.04243145)
(3.067013 0.1551409 -0.09838626)
(1.075633 0.0006226343 -0.0008191306)
(2.465593 -0.002245513 0.002112738)
(3.628934 0.003899162 -0.005240217)
(3.778524 -0.006657147 0.003095985)
(4.746628 0.04489912 -0.01836656)
(2.805405 0.2208843 0.005822661)
(0.8079579 -0.0003106633 0.0002953195)
(1.887054 0.001054723 -0.00138675)
(2.468175 -0.00260272 0.001473318)
(3.03971 0.003624811 -0.004121865)
(2.867202 -0.007749055 0.0003342125)
(3.480661 0.03394369 0.005798622)
(2.172659 0.2221207 0.0838022)
(0.3997363 0.0001423003 -0.0001328443)
(0.8082151 -0.0003129686 0.0002504837)
(1.076941 0.0007631581 -0.0009314311)
(1.173432 -0.001321817 0.0001721225)
(1.327776 0.002355659 -0.001689197)
(1.162729 -0.004585059 -0.001681409)
(1.41747 0.01105393 0.008013922)
(1.003212 0.1003091 0.07765255)
(0.0006185384 -0.0060906 -0.0006155736)
(0.0006262258 -0.002949669 -0.0005231235)
(0.0005959726 -0.003387967 -0.001121565)
(0.0003950417 -0.0009653783 -0.0004699061)
(0.0006088104 -0.001021561 -0.0009866936)
(0.0005777746 -0.001162058 -0.002941366)
(0.8358827 -0.1248537 -0.1031261)
(1.248182 -0.01572666 -0.0121065)
(2.000607 -0.1938079 -0.2321282)
(1.087785 0.002020867 0.004251755)
(3.263091 -0.02697736 -0.03767806)
(2.705592 -0.1525924 -0.2458052)
(1.319804 -0.0004601597 -0.002503167)
(2.846342 0.001156331 0.006920007)
(4.722754 -0.01329784 -0.04931951)
(3.060577 -0.05560519 -0.1893356)
(1.234597 -0.0002572344 0.001248243)
(3.219029 0.0008392332 -0.00429874)
(4.033052 -0.001209625 0.006040155)
(5.475104 0.0140801 -0.0432595)
(3.166806 0.05503431 -0.1006043)
(1.218656 0.0003951541 -0.0008340038)
(2.857994 -0.001565556 0.002227605)
(4.234753 0.00259253 -0.005223435)
(4.459526 -0.004065416 0.002875347)
(5.493659 0.03617811 -0.02156231)
(3.079662 0.1529595 0.002846536)
(1.051953 -0.0003011955 0.0002969682)
(2.560516 0.001026842 -0.001626213)
(3.430187 -0.002848779 0.001672893)
(4.243842 0.003514038 -0.004859321)
(4.059252 -0.00749414 -5.272019e-06)
(4.774407 0.04328229 0.005961282)
(2.744996 0.2196424 0.09733037)
(0.8188767 0.0002239317 -0.0002643713)
(1.847531 -0.0006219884 0.0003415606)
(2.563129 0.001061977 -0.001922787)
(2.866959 -0.00292032 0.0001245114)
(3.240271 0.003186406 -0.003494837)
(2.885421 -0.008426613 -0.002972073)
(3.329632 0.03351168 0.02070849)
(2.057394 0.2164861 0.143219)
(0.3963697 -3.4248e-05 4.368851e-05)
(0.8191351 0.0002455103 -0.0002878995)
(1.053248 -0.0003443357 4.505142e-05)
(1.222306 0.0007463735 -0.001051834)
(1.242306 -0.001376327 -0.0007578176)
(1.334473 0.002243782 -0.001550401)
(1.111604 -0.004760797 -0.004170412)
(1.287784 0.01107205 0.01149282)
(0.8769967 0.1016057 0.08765854)
(0.0006692769 -0.007981218 -0.0009501487)
(0.0006635386 -0.005299493 -0.0005578624)
(0.0006235709 -0.006006716 -0.001211488)
(0.0004079461 -0.002795181 -0.0004836213)
(0.000629857 -0.002962923 -0.001023398)
(0.0005932932 -0.003357413 -0.00300782)
(0.000573617 -0.0008951085 -0.0004395495)
(0.0003969013 -0.0009684074 -0.0009129915)
(0.0006052312 -0.001016404 -0.002698564)
(0.0005702137 -0.001136764 -0.001005641)
(0.4825209 -0.06675102 -0.06689363)
(0.9899987 -0.01556761 -0.01145834)
(1.620986 -0.208262 -0.2124424)
(0.9583722 0.002948813 0.004015124)
(2.852932 -0.03790932 -0.03918125)
(2.48744 -0.2236536 -0.238716)
(1.253332 -0.001362865 -0.002524713)
(2.672823 0.003476947 0.006629116)
(4.459645 -0.03563414 -0.04927815)
(2.966017 -0.1571177 -0.1879642)
(1.234597 0.0002572345 0.001248242)
(3.219029 -0.0008392333 -0.00429874)
(4.033052 0.001209625 0.006040155)
(5.475104 -0.0140801 -0.0432595)
(3.166806 -0.05503431 -0.1006043)
(1.284853 0.0001325089 -0.0008370757)
(3.042422 -0.0005533832 0.002284616)
(4.52026 0.0008928147 -0.005085434)
(4.783721 -0.001303898 0.002849445)
(5.832834 0.01373038 -0.02271834)
(3.18043 0.05423352 0.0007760848)
(1.193372 -0.0001985554 0.0002870692)
(2.962023 0.0006602246 -0.001681464)
(4.020328 -0.002052572 0.001788347)
(4.984013 0.002284894 -0.004938046)
(4.803992 -0.00467212 -0.0002841986)
(5.526947 0.03479944 0.004891837)
(3.009942 0.1514578 0.09861026)
(1.065071 0.0002203891 -0.0003117735)
(2.511794 -0.0006524379 0.0003098841)
(3.550781 0.001001375 -0.002357911)
(4.029153 -0.003297719 5.106643e-05)
(4.547094 0.00293832 -0.004202893)
(4.08667 -0.008336655 -0.003217322)
(4.55611 0.04205693 0.02658372)
(2.561644 0.2141894 0.1674025)
(0.8127794 -6.756242e-05 4.73267e-05)
(1.869489 0.0003332573 -0.0006184484)
(2.514383 -0.0008035336 -0.0001234052)
(2.971095 0.000904039 -0.002312671)
(3.063046 -0.003252308 -0.001727957)
(3.25928 0.002682358 -0.003076176)
(2.738413 -0.009119743 -0.006771585)
(2.964306 0.03408574 0.02993602)
(1.724255 0.2006126 0.1548292)
(0.3980387 6.114462e-05 -5.233587e-05)
(0.8130367 -6.407388e-05 1.063198e-05)
(1.066369 0.0002635326 -0.0004823984)
(1.196986 -0.0003645658 -0.0003652648)
(1.292652 0.0007009488 -0.001265624)
(1.248723 -0.001480218 -0.001942505)
(1.278019 0.002035391 -0.001821401)
(0.9956395 -0.004852778 -0.006794785)
(1.056914 0.01058819 0.007915779)
(0.5737057 0.07136734 0.006298545)
(0.0007233156 -0.01592865 -0.001257581)
(0.0007321405 -0.006947695 -0.0008371687)
(0.0006728788 -0.007811049 -0.001828617)
(0.0004309176 -0.005015855 -0.0005152811)
(0.0006671608 -0.005232315 -0.001096723)
(0.0006205418 -0.005872725 -0.003136277)
(0.0005862639 -0.00259136 -0.0004519876)
(0.0004098412 -0.002808758 -0.0009465014)
(0.0006260286 -0.002938 -0.002750315)
(0.0005853276 -0.003306518 -0.00104248)
(0.0005290152 -0.0008480752 -0.000414358)
(0.0005781064 -0.0008981 -0.0008539448)
(0.0003941155 -0.0009637889 -0.002496919)
(0.0005902806 -0.0009959805 -0.0009219045)
(0.0005676348 -0.001137546 -0.0100494)
(0.5075767 -0.006251645 -0.006055892)
(0.8361131 -0.1026728 -0.1264446)
(0.7326747 0.003061083 0.003736865)
(2.166076 -0.03149079 -0.03088206)
(2.001875 -0.2260118 -0.204104)
(1.108913 -0.002103583 -0.002532597)
(2.302864 0.005209474 0.006169588)
(3.875322 -0.04543243 -0.04645561)
(2.708749 -0.227252 -0.1785371)
(1.169829 0.0007448757 0.001243679)
(3.03046 -0.002444096 -0.004423152)
(3.769657 0.003747317 0.005879858)
(5.160806 -0.03730709 -0.04243145)
(3.067013 -0.1551409 -0.09838626)
(1.284853 -0.0001325089 -0.0008370758)
(3.042422 0.0005533832 0.002284616)
(4.52026 -0.0008928146 -0.005085434)
(4.783721 0.001303898 0.002849445)
(5.832834 -0.01373038 -0.02271834)
(3.18043 -0.05423352 0.0007760848)
(1.258988 -6.86625e-05 0.0002829327)
(3.150183 0.0002219763 -0.001681683)
(4.300663 -0.0007374803 0.001860283)
(5.335504 0.000778465 -0.004850161)
(5.159487 -0.001520609 -0.0004002199)
(5.868513 0.0131979 0.00401371)
(3.108235 0.05356908 0.09675142)
(1.207482 0.0001419178 -0.0003272999)
(2.909299 -0.0004585933 0.0002802205)
(4.153464 0.0006197633 -0.002491157)
(4.752644 -0.002434067 7.390859e-05)
(5.356269 0.001823233 -0.004338551)
(4.837421 -0.005319942 -0.00330203)
(5.26626 0.03349357 0.02753954)
(2.797414 0.1460687 0.1703542)
(1.057783 -6.13787e-05 2.792225e-05)
(2.53914 0.0003273129 -0.0007886193)
(3.489882 -0.0008925457 -0.0003080465)
(4.162388 0.0007716941 -0.002925573)
(4.326812 -0.003748345 -0.002170665)
(4.575732 0.002331467 -0.003583838)
(3.863143 -0.009147736 -0.006742751)
(4.041581 0.03887692 0.03651222)
(2.126961 0.1902071 0.1755187)
(0.8157851 9.37681e-05 -0.000120325)
(1.857299 -0.0001756733 -8.639694e-05)
(2.541731 0.0002925624 -0.001109696)
(2.918281 -0.0009751017 -0.0009935723)
(3.171002 0.000636088 -0.002792305)
(3.081321 -0.003706737 -0.003907212)
(3.098919 0.002004845 -0.003032926)
(2.405096 -0.009977836 -0.01040497)
(2.349555 0.02518672 0.02221089)
(1.035685 0.1335244 0.03328648)
(0.3969669 5.087891e-06 3.445309e-06)
(0.8160424 0.0001035963 -0.0001506218)
(1.059074 -7.225407e-05 -0.0001784018)
(1.211102 0.0002498395 -0.0007113755)
(1.266708 -0.0004065525 -0.0009252955)
(1.299185 0.0006033019 -0.001686221)
(1.193472 -0.001691658 -0.003460715)
(1.148306 0.001763392 -0.00258344)
(0.7897095 -0.004839969 -0.01073548)
(0.6244501 0.001883681 -0.02133787)
(0.002934924 -0.01158884 -0.01034078)
(0.0008041791 -0.01367028 -0.00112052)
(0.0007238667 -0.01248165 -0.002397744)
(0.0004717421 -0.00657431 -0.0007762661)
(0.0007335756 -0.006805422 -0.001612222)
(0.0006680643 -0.00759371 -0.003720665)
(0.0006080916 -0.004648075 -0.0004807282)
(0.0004328377 -0.004954525 -0.001013531)
(0.0006628392 -0.005120472 -0.00284956)
(0.000611769 -0.005711934 -0.001119283)
(0.0005392561 -0.002455222 -0.0004259162)
(0.0005908129 -0.002604545 -0.000884458)
(0.0004069229 -0.002786109 -0.002542681)
(0.0006104793 -0.002899751 -0.0009514051)
(0.0005826891 -0.003274503 -0.01015766)
(0.0005977211 -0.0008012636 -0.0003927593)
(0.0005333763 -0.0008510769 -0.000805111)
(0.0005757241 -0.0008940334 -0.002335589)
(0.0003820339 -0.0009457228 -0.0008533006)
(0.0005926351 -0.0009962963 -0.009228225)
(6.071623e-05 -0.000123862 -0.00384152)
(0.353671 0.002189252 0.002213096)
(0.9902355 -0.01167534 -0.01489602)
(0.9835398 -0.1028311 -0.1113369)
(0.8565632 -0.002162501 -0.002329278)
(1.686769 0.005332006 0.005402276)
(2.855165 -0.03910224 -0.03765984)
(2.147223 -0.228666 -0.1480955)
(1.030368 0.001125206 0.001234367)
(2.625902 -0.003684159 -0.004491331)
(3.213107 0.006050963 0.00576344)
(4.467504 -0.04660607 -0.03844624)
(2.794842 -0.2237073 -0.09080184)
(1.218656 -0.0003951541 -0.0008340038)
(2.857994 0.001565556 0.002227605)
(4.234753 -0.00259253 -0.005223435)
(4.459526 0.004065416 0.002875347)
(5.493659 -0.03617811 -0.02156231)
(3.079662 -0.1529595 0.002846536)
(1.258988 6.866243e-05 0.0002829326)
(3.150183 -0.0002219764 -0.001681683)
(4.300663 0.0007374804 0.001860283)
(5.335504 -0.0007784651 -0.004850161)
(5.159487 0.001520609 -0.0004002198)
(5.868513 -0.0131979 0.00401371)
(3.108235 -0.05356908 0.09675142)
(1.273488 4.778796e-05 -0.0003328187)
(3.095994 -0.0001632133 0.000268949)
(4.439034 0.0002031877 -0.002511485)
(5.098908 -0.0008851055 0.0001231395)
(5.742011 0.0006056053 -0.004306288)
(5.195769 -0.001760926 -0.003380191)
(5.587797 0.01261895 0.02706228)
(2.886288 0.05133109 0.1682207)
(1.199679 -3.998804e-05 1.50549e-05)
(2.939161 0.0002093542 -0.0008610983)
(4.087224 -0.0006556931 -0.0004116946)
(4.900327 0.0004220282 -0.00314194)
(5.119258 -0.002806692 -0.002271669)
(5.391268 0.001363216 -0.003655124)
(4.562388 -0.005897287 -0.006520928)
(4.653401 0.03046374 0.038329)
(2.309007 0.1264649 0.1769628)
(1.061364 9.573141e-05 -0.0001534597)
(2.524043 -0.0001852244 -0.0001856159)
(3.524436 0.0002621944 -0.001465443)
(4.096062 -0.001132979 -0.001400526)
(4.465379 0.0004148826 -0.003526811)
(4.354439 -0.004285784 -0.004627203)
(4.332562 0.001666081 -0.003083611)
(3.360581 -0.01000174 -0.01009951)
(3.131081 0.02957546 0.02941925)
(1.235521 0.1177785 0.04276157)
(0.8138341 -1.035727e-06 -2.053244e-05)
(1.863261 0.0001138405 -0.0003704973)
(2.52662 -0.0002743597 -0.0005383498)
(2.948153 0.0001689773 -0.001666138)
(3.116615 -0.001218037 -0.002118952)
(3.189586 0.0002109596 -0.003460176)
(2.923807 -0.004404436 -0.006267043)
(2.734474 0.0009947771 -0.003354735)
(1.83915 -0.01042534 -0.01360579)
(1.272126 0.0118881 -0.01152746)
(0.004546387 0.000674554 -0.007154513)
(0.3974013 3.409221e-05 -2.657071e-05)
(0.8140908 4.95206e-06 -5.2009e-05)
(1.062653 0.0001100563 -0.0003312343)
(1.203279 -8.715768e-05 -0.0004860772)
(1.281217 0.0002111662 -0.001042329)
(1.273155 -0.0004997214 -0.001692627)
(1.242744 0.0003967364 -0.002434647)
(1.067778 -0.001960491 -0.00524795)
(0.9187799 0.001630871 -0.005373651)
(0.4442847 -0.0079502 -0.0248967)
(0.003249415 -0.0102331 -0.008778152)
(0.0008567106 -0.009582551 -0.01415837)
(0.0005165457 -0.01289439 -0.00104525)
(0.0008018071 -0.01077187 -0.002098346)
(0.0007175232 -0.01118834 -0.004279649)
(0.0006464823 -0.006088416 -0.000721501)
(0.0004725716 -0.006442324 -0.001495107)
(0.000726827 -0.006621062 -0.003326802)
(0.0006568799 -0.007342832 -0.001523226)
(0.0005566685 -0.004401736 -0.0004527131)
(0.0006126947 -0.004592319 -0.0009453811)
(0.0004296471 -0.004850683 -0.002630277)
(0.0006461223 -0.004993157 -0.001013411)
(0.0006090657 -0.005614862 -0.01035822)
(0.0006071663 -0.002319582 -0.0004035367)
(0.000543671 -0.002468177 -0.0008335771)
(0.00058832 -0.002584135 -0.002376581)
(0.0003945285 -0.002753216 -0.0008801207)
(0.0006128003 -0.002868864 -0.009304138)
(6.221612e-05 -0.0003551981 -0.003876373)
(0.0005934477 -0.0007637517 -0.0003738031)
(0.0006031761 -0.0008042087 -0.0007631463)
(0.000531389 -0.0008473658 -0.002202035)
(0.0005657684 -0.0008777767 -0.0007981108)
(0.0003851005 -0.0009452671 -0.008539803)
(6.173428e-05 -0.0001089753 -0.003527656)
(5.491535e-05 -0.0001115938 -0.004551493)
(0.4211892 -0.001308318 -0.001304905)
(0.7329546 0.003709355 0.003144805)
(1.249321 -0.01224362 -0.01485205)
(1.041417 -0.1003042 -0.07498987)
(0.7902937 0.001141903 0.001149101)
(1.942029 -0.003697976 -0.004046447)
(2.305519 0.006253157 0.005218342)
(3.271031 -0.0368367 -0.02749362)
(2.205061 -0.2250206 -0.07217457)
(1.075633 -0.0006226343 -0.0008191306)
(2.465593 0.002245513 0.002112738)
(3.628934 -0.003899162 -0.005240217)
(3.778524 0.006657147 0.003095985)
(4.746628 -0.04489912 -0.01836656)
(2.805405 -0.2208843 0.005822661)
(1.193372 0.0001985553 0.0002870692)
(2.962023 -0.0006602247 -0.001681464)
(4.020328 0.002052572 0.001788347)
(4.984013 -0.002284894 -0.004938046)
(4.803992 0.00467212 -0.0002841986)
(5.526947 -0.03479944 0.004891838)
(3.009942 -0.1514578 0.09861026)
(1.273488 -4.778797e-05 -0.0003328187)
(3.095994 0.0001632135 0.0002689489)
(4.439034 -0.0002031876 -0.002511485)
(5.098908 0.0008851055 0.0001231395)
(5.742011 -0.0006056052 -0.004306288)
(5.195769 0.001760926 -0.003380191)
(5.587797 -0.01261895 0.02706228)
(2.886288 -0.05133109 0.1682207)
(1.265493 -1.400449e-05 9.813732e-06)
(3.126863 6.982385e-05 -0.0008848827)
(4.370836 -0.0002384136 -0.0004494088)
(5.252723 0.0001264667 -0.003189545)
(5.499971 -0.001027457 -0.00225627)
(5.780122 0.000437235 -0.003626266)
(4.895243 -0.001971184 -0.006499654)
(4.928329 0.01134802 0.03810063)
(2.377342 0.04382756 0.1747521)
(1.203507 6.248197e-05 -0.0001673546)
(2.922764 -0.0001337371 -0.0002438458)
(4.125202 0.0001490118 -0.00162951)
(4.828069 -0.0008597071 -0.001591922)
(5.273151 0.0001318136 -0.003782621)
(5.153132 -0.003209015 -0.004767018)
(5.092028 0.0009355686 -0.00291348)
(3.947622 -0.006394303 -0.009658916)
(3.569176 0.02278666 0.0313026)
(1.321768 0.07495162 0.04333798)
(1.059025 2.440428e-06 -4.351943e-05)
(2.531388 0.0001114718 -0.0005071236)
(3.505452 -0.0003170583 -0.0008014574)
(4.13405 8.905109e-05 -0.002206123)
(4.396958 -0.001454136 -0.002738339)
(4.493452 -8.614997e-05 -0.004165413)
(4.114667 -0.00496618 -0.006936056)
(3.785547 0.0008650259 -0.002568)
(2.523031 -0.009914414 -0.011862)
(1.635952 0.01421268 -0.00393986)
(0.005237959 0.0005472508 -0.005040533)
(0.8145508 5.078778e-05 -7.230583e-05)
(1.859335 -5.198312e-05 -0.0001899591)
(2.533959 5.903385e-05 -0.0008174382)
(2.931705 -0.000401881 -0.001218944)
(3.147497 -5.134866e-05 -0.002347901)
(3.134972 -0.001621832 -0.003461714)
(3.028974 -0.0004861233 -0.004340801)
(2.569146 -0.005359622 -0.008428454)
(2.108138 -0.0002363289 -0.004969707)
(0.9556308 -0.008239423 -0.01879723)
(0.00551809 -2.445583e-05 -0.006113574)
(0.0008722088 -0.001850603 -0.01019167)
(0.3968984 1.927928e-05 -1.104552e-05)
(0.8148065 5.621173e-05 -0.0001055274)
(1.060309 2.588071e-06 -0.0002242665)
(1.207099 9.725347e-05 -0.0005763832)
(1.273179 -0.000124086 -0.000910623)
(1.287688 0.0001225448 -0.001561323)
(1.217141 -0.0006973963 -0.002765138)
(1.113975 0.000127061 -0.003517718)
(0.8487156 -0.001971995 -0.008205988)
(0.5247246 -0.003077732 -0.02146977)
(0.002220217 -0.009693521 -0.008236198)
(0.0009732584 -0.00832811 -0.01198267)
(0.0008185974 -0.008759068 -0.009928255)
(0.0006891722 -0.01193535 -0.0009666251)
(0.0005148101 -0.01017235 -0.001950268)
(0.0007930226 -0.009676201 -0.003782972)
(0.0007037424 -0.009989573 -0.001899961)
(0.0005872924 -0.00576524 -0.0006795882)
(0.0006501347 -0.005968027 -0.001389515)
(0.0004680862 -0.006270305 -0.003070107)
(0.0007067692 -0.006420983 -0.001348972)
(0.0006534225 -0.007197936 -0.01074557)
(0.0006228203 -0.004157363 -0.0004285572)
(0.0005611332 -0.004349914 -0.0008904567)
(0.0006099725 -0.004497143 -0.002454761)
(0.0004166567 -0.004736169 -0.0009365732)
(0.000648418 -0.00490438 -0.009438692)
(6.496973e-05 -0.0006093683 -0.003946719)
(0.0006017554 -0.00221099 -0.0003839573)
(0.000612679 -0.00233216 -0.0007897574)
(0.0005415982 -0.002449284 -0.002239748)
(0.0005781361 -0.002555311 -0.0008224451)
(0.0003975569 -0.002722363 -0.008601103)
(6.375116e-05 -0.0003127035 -0.003550894)
(5.624983e-05 -0.0003229788 -0.004593467)
(0.0006213553 -0.000728425 -0.0003569077)
(0.0005990731 -0.0007666536 -0.0007263639)
(0.0006014235 -0.0008008212 -0.002087284)
(0.0005230202 -0.0008324192 -0.0007525823)
(0.0005655915 -0.0008772417 -0.007989852)
(3.946129e-05 -0.0001036581 -0.003264469)
(5.493215e-05 -9.83639e-05 -0.004179555)
(5.383346e-05 -0.0001113809 -0.004489713)
(0.3842326 0.0006600248 0.0006689607)
(0.8568277 -0.002300703 -0.002262023)
(0.9597406 0.00400574 0.003043359)
(1.397173 -0.01178061 -0.009715277)
(1.062982 -0.09833635 -0.03457481)
(0.8278403 -0.0006498578 -0.0007332892)
(1.811162 0.0021406 0.00185765)
(2.628567 -0.003918983 -0.004595568)
(2.681939 0.007001569 0.003225506)
(3.462267 -0.03510058 -0.01203327)
(2.212342 -0.2227404 0.007696596)
(1.051953 0.0003011955 0.0002969682)
(2.560516 -0.001026842 -0.001626213)
(3.430187 0.002848779 0.001672893)
(4.243842 -0.003514038 -0.004859321)
(4.059252 0.00749414 -5.272e-06)
(4.774407 -0.04328229 0.005961282)
(2.744996 -0.2196424 0.09733037)
(1.207482 -0.0001419178 -0.0003272999)
(2.909299 0.0004585933 0.0002802204)
(4.153464 -0.0006197633 -0.002491157)
(4.752644 0.002434067 7.390875e-05)
(5.356269 -0.001823233 -0.004338551)
(4.837421 0.005319942 -0.00330203)
(5.26626 -0.03349357 0.02753954)
(2.797414 -0.1460687 0.1703542)
(1.265493 1.400446e-05 9.813702e-06)
(3.126863 -6.982383e-05 -0.0008848827)
(4.370836 0.0002384138 -0.0004494088)
(5.252723 -0.0001264668 -0.003189545)
(5.499971 0.001027457 -0.00225627)
(5.780122 -0.000437235 -0.003626266)
(4.895243 0.001971184 -0.006499654)
(4.928329 -0.01134802 0.03810063)
(2.377342 -0.04382756 0.1747521)
(1.269414 2.103448e-05 -0.0001726907)
(3.109975 -4.860202e-05 -0.0002673942)
(4.410206 4.560231e-05 -0.001687402)
(5.178297 -0.0003173439 -0.001655491)
(5.660447 1.673765e-05 -0.003837459)
(5.5369 -0.001173911 -0.004744182)
(5.452913 0.0002929049 -0.00280785)
(4.225466 -0.002138875 -0.009569446)
(3.764776 0.008404314 0.03120297)
(1.353663 0.02541794 0.04300239)
(1.200998 1.245683e-06 -5.57056e-05)
(2.930721 6.853213e-05 -0.0005750534)
(4.104458 -0.0002431426 -0.0009439735)
(4.869951 2.619785e-06 -0.002450765)
(5.198594 -0.001120791 -0.002979407)
(5.30756 -0.0002418069 -0.004342354)
(4.857111 -0.003639261 -0.006908796)
(4.423829 0.000529669 -0.001987701)
(2.935085 -0.00618246 -0.01108243)
(1.832986 0.01071285 -0.002495478)
(0.005535733 0.000333165 -0.00441506)
(1.059816 5.361468e-05 -9.907272e-05)
(2.526508 -5.884695e-05 -0.000297598)
(3.514602 3.422012e-05 -0.001122117)
(4.113258 -0.0004935664 -0.001672467)
(4.436334 -0.0001992544 -0.003017444)
(4.424721 -0.001929712 -0.004161687)
(4.249366 -0.0007855006 -0.004723703)
(3.580121 -0.005690675 -0.008473628)
(2.865396 0.0001078133 -0.002488769)
(1.264413 -0.006756829 -0.01177519)
(0.006790339 3.873001e-05 -0.004305676)
(0.0008809982 -0.0009464114 -0.007495291)
(0.8136776 2.966121e-05 -4.448561e-05)
(1.860587 4.271876e-05 -0.0002817841)
(2.529069 -0.0001262372 -0.0006081589)
(2.939639 -5.184263e-05 -0.001385271)
(3.1305 -0.0006109121 -0.002073485)
(3.165915 -0.0004353729 -0.003202466)
(2.97542 -0.002297731 -0.00498106)
(2.666449 -0.001511397 -0.005289352)
(1.968016 -0.006019071 -0.01019988)
(1.108831 -0.001467417 -0.01480741)
(0.004026652 -0.0001248112 -0.005723582)
(0.0009946569 -0.001783633 -0.008673793)
(0.000830014 -0.002479852 -0.008263353)
(0.3969038 2.243004e-05 -1.496754e-05)
(0.813933 3.041471e-05 -7.787122e-05)
(1.061094 5.863506e-05 -0.0002742549)
(1.204577 -1.078798e-05 -0.0004871297)
(1.277084 6.212109e-05 -0.0009210338)
(1.279612 -0.0002089511 -0.001518897)
(1.231339 -6.726751e-05 -0.002376479)
(1.089694 -0.0009533001 -0.004119567)
(0.8882096 3.807575e-05 -0.006090845)
(0.4800222 -0.005332152 -0.02123831)
(0.002668738 -0.008948373 -0.007620237)
(0.0006143902 -0.007869734 -0.01123389)
(0.0009270166 -0.007630907 -0.008514839)
(0.0007872658 -0.007978931 -0.005582057)
(0.0006213761 -0.01128734 -0.0009118493)
(0.000690086 -0.009417299 -0.001806363)
(0.0005090566 -0.009143958 -0.003488495)
(0.0007695061 -0.00868087 -0.001662449)
(0.00069976 -0.009455518 -0.01119586)
(0.0006502608 -0.005443768 -0.0006422339)
(0.0005910034 -0.005652416 -0.00130895)
(0.0006462622 -0.005810436 -0.002857496)
(0.000453399 -0.006089171 -0.001249085)
(0.0007081527 -0.006288313 -0.009707041)
(6.962818e-05 -0.000780346 -0.004056492)
(0.0006152644 -0.003961625 -0.000407579)
(0.0006283838 -0.004109065 -0.0008429108)
(0.0005588842 -0.004260666 -0.002311636)
(0.000599359 -0.004393874 -0.000873665)
(0.0004196104 -0.004649715 -0.008707238)
(6.745916e-05 -0.0005349097 -0.003596932)
(5.870705e-05 -0.0005540712 -0.004676988)
(0.0006290595 -0.002108677 -0.0003665045)
(0.0006074358 -0.002223248 -0.0007514961)
(0.0006108529 -0.002314642 -0.002122195)
(0.0005330587 -0.002423233 -0.0007752374)
(0.0005778723 -0.00252611 -0.008041929)
(4.071712e-05 -0.0002975573 -0.003282503)
(5.672278e-05 -0.0002850425 -0.004207707)
(5.513425e-05 -0.0003190262 -0.004530657)
(0.0006264518 -0.0006976556 -0.000341666)
(0.0006274888 -0.0007312629 -0.0006935471)
(0.0005975306 -0.0007635111 -0.00198667)
(0.0005941202 -0.0007869701 -0.0007133797)
(0.0005224248 -0.0008317241 -0.007533826)
(6.00399e-05 -9.632989e-05 -0.003054257)
(3.479356e-05 -9.371593e-05 -0.003867672)
(5.338532e-05 -9.837859e-05 -0.004122898)
(5.307927e-05 -0.0001084548 -0.004049224)
(0.4047678 -0.0004082436 -0.0003995447)
(0.7905483 0.001167851 0.00107662)
(1.110248 -0.002473213 -0.002443285)
(1.091538 0.00428317 0.002003007)
(1.464883 -0.01155069 -0.003581975)
(1.065473 -0.09776063 0.005381383)
(0.8079579 0.0003106633 0.0002953195)
(1.887054 -0.001054723 -0.00138675)
(2.468175 0.00260272 0.001473318)
(3.03971 -0.003624811 -0.004121865)
(2.867202 0.007749054 0.0003342125)
(3.480661 -0.03394369 0.005798621)
(2.172659 -0.2221207 0.0838022)
(1.065071 -0.0002203891 -0.0003117735)
(2.511794 0.0006524379 0.0003098841)
(3.550781 -0.001001375 -0.002357911)
(4.029153 0.003297719 5.106631e-05)
(4.547094 -0.00293832 -0.004202893)
(4.08667 0.008336655 -0.003217321)
(4.55611 -0.04205693 0.02658372)
(2.561644 -0.2141894 0.1674025)
(1.199679 3.998803e-05 1.505489e-05)
(2.939161 -0.0002093542 -0.0008610984)
(4.087224 0.0006556932 -0.0004116945)
(4.900327 -0.0004220281 -0.00314194)
(5.119258 0.002806692 -0.002271669)
(5.391268 -0.001363216 -0.003655124)
(4.562388 0.005897287 -0.006520928)
(4.653401 -0.03046374 0.038329)
(2.309007 -0.1264649 0.1769628)
(1.269414 -2.10345e-05 -0.0001726907)
(3.109975 4.860208e-05 -0.0002673941)
(4.410206 -4.56023e-05 -0.001687402)
(5.178297 0.000317344 -0.001655491)
(5.660447 -1.673765e-05 -0.003837459)
(5.5369 0.001173911 -0.004744182)
(5.452913 -0.000292905 -0.00280785)
(4.225466 0.002138875 -0.009569446)
(3.764776 -0.008404314 0.03120297)
(1.353663 -0.02541794 0.04300239)
(1.266841 4.549551e-08 -6.055467e-05)
(3.118165 2.197884e-05 -0.000600722)
(4.388791 -9.056071e-05 -0.001000408)
(5.221786 -1.080861e-05 -0.002534622)
(5.58365 -0.0004162499 -0.003043745)
(5.697968 -0.0001187351 -0.004347933)
(5.212599 -0.001316717 -0.006793287)
(4.724986 0.0001747178 -0.001746335)
(3.128473 -0.002057786 -0.01090372)
(1.91983 0.0038645 -0.00218533)
(0.005645289 0.0001094401 -0.004142701)
(1.201794 3.521656e-05 -0.0001114521)
(2.925408 -4.744474e-05 -0.0003566945)
(4.114414 1.878889e-06 -0.001276015)
(4.847179 -0.0003916593 -0.001893151)
(5.242069 -0.0002294787 -0.003283868)
(5.23266 -0.001475441 -0.004338911)
(5.006531 -0.0006984961 -0.004633118)
(4.201964 -0.003973666 -0.008042597)
(3.315349 0.0002675709 -0.001424273)
(1.44622 -0.003870049 -0.01016127)
(0.007479689 3.777777e-05 -0.003748623)
(0.0008822723 -0.0002885947 -0.006583276)
(1.058808 3.440092e-05 -6.825903e-05)
(2.527878 3.964453e-05 -0.0003992309)
(3.508432 -0.0001592418 -0.0008704179)
(4.123193 -0.0001190582 -0.001862996)
(4.414798 -0.0007666313 -0.002680351)
(4.464194 -0.0006513422 -0.003857569)
(4.182042 -0.002614523 -0.005470466)
(3.704011 -0.001639739 -0.004910921)
(2.692841 -0.005811341 -0.008503982)
(1.456033 -0.0001730162 -0.008085548)
(0.005116469 -5.05165e-05 -0.004013074)
(0.001008539 -0.0009330411 -0.006377787)
(0.0008379557 -0.001322002 -0.007104252)
(0.8136254 3.028769e-05 -4.943167e-05)
(1.858939 9.260899e-06 -0.0002327879)
(2.530427 -1.436377e-05 -0.0006928211)
(2.934295 -0.0002380433 -0.001198872)
(3.13864 -0.0002494638 -0.002083726)
(3.148818 -0.0009782801 -0.00310704)
(3.005506 -0.001088751 -0.004243342)
(2.616195 -0.003263922 -0.006447428)
(2.048717 -0.002516292 -0.006727188)
(1.025596 -0.005178402 -0.01556262)
(0.004734307 -8.079635e-05 -0.005284899)
(0.0006372657 -0.001711632 -0.008116383)
(0.0009422638 -0.002309778 -0.007106056)
(0.000802413 -0.002988658 -0.004495041)
(0.3967269 1.9756e-05 -1.263643e-05)
(0.8138802 3.534947e-05 -7.840246e-05)
(1.060084 3.06686e-05 -0.0002388377)
(1.205356 4.66695e-05 -0.0005127577)
(1.274484 -4.483667e-05 -0.0008535956)
(1.283509 -1.922612e-05 -0.001438987)
(1.223393 -0.0003905823 -0.002408596)
(1.103034 -0.0003150063 -0.003486611)