/*--------------------------------*- C++ -*----------------------------------*\
| =========                 |                                                 |
| \\      /  F ield         | OpenFOAM: The Open Source CFD Toolbox           |
|  \\    /   O peration     | Version:  2306                                  |
|   \\  /    A nd           | Website:  www.openfoam.com                      |
|    \\/     M anipulation  |                                                 |
\*---------------------------------------------------------------------------*/
FoamFile
{
    version     2.0;
    format      ascii;
    arch        "LSB;label=32;scalar=64";
    class       volScalarField;
    location    "1.2/air";
    object      X.N2;
}
// * * * * * * * * * * * * * * * * * * * * * * * * * * * * * * * * * * * * * //

dimensions      [0 0 0 0 0 0 0];

internalField   nonuniform List<scalar> 
16000
(
0.7926547
0.7926354
0.7937328
0.7926692
0.7926115
0.7936668
0.7926411
0.79519
0.7938219
0.7927244
0.7925923
0.7935822
0.7926084
0.7950833
0.7937303
0.7926825
0.7970051
0.7953254
0.7940581
0.7928555
0.792582
0.7935113
0.7925836
0.7949361
0.7936207
0.792635
0.7968968
0.7951871
0.7939265
0.7927955
0.7988477
0.7971481
0.7956619
0.7945091
0.7931154
0.792582
0.7934721
0.7925708
0.794805
0.7935329
0.792601
0.7967479
0.7950035
0.7937731
0.7927276
0.7987412
0.797008
0.7954868
0.7943313
0.7930323
0.8006427
0.7989887
0.7975024
0.7962572
0.795246
0.793583
0.8296743
0.7925923
0.7934721
0.7925708
0.7947295
0.7934856
0.7925842
0.7966152
0.7948438
0.7936531
0.7926795
0.7985949
0.7968236
0.7952558
0.7941157
0.7929349
0.8005405
0.7988513
0.7973255
0.7960463
0.7950211
0.7934714
0.8023654
0.8007786
0.7993373
0.7981272
0.797165
0.7963418
0.7943723
0.8283837
0.8310632
0.8298786
0.7926115
0.7935113
0.7925836
0.7947295
0.7934856
0.7925842
0.7965386
0.794753
0.7935896
0.7926551
0.7984647
0.7966631
0.7950561
0.7939454
0.7928617
0.8004004
0.7986707
0.7970956
0.7957718
0.7947413
0.793332
0.8022681
0.8006471
0.7991652
0.7979179
0.7969206
0.7960694
0.7942221
0.8040096
0.8024948
0.8011145
0.7999489
0.7990681
0.7984323
0.7978699
0.7956474
0.8257756
0.8299066
0.8285928
0.8312914
0.8312501
0.8302865
0.7926354
0.7935822
0.7926084
0.794805
0.7935329
0.792601
0.7965386
0.794753
0.7935896
0.7926551
0.7983896
0.7965716
0.794943
0.7938562
0.7928234
0.8002756
0.7985139
0.7968975
0.7955337
0.7945116
0.7932198
0.8021346
0.8004744
0.7989422
0.7976453
0.7966018
0.795724
0.7940219
0.8039172
0.8023696
0.8009503
0.7997479
0.7988335
0.7981569
0.7975434
0.7954242
0.8055787
0.8041328
0.8028146
0.8017026
0.8008638
0.8003571
0.8000989
0.7999061
0.7976636
0.8217522
0.8275748
0.8260014
0.8302164
0.8300972
0.8290091
0.8312767
0.8314639
0.8316234
0.8308966
0.7926547
0.7936668
0.7926411
0.7949361
0.7936207
0.792635
0.7966152
0.7948438
0.7936531
0.7926795
0.7983896
0.7965716
0.794943
0.7938562
0.7928234
0.8002036
0.7984246
0.7967853
0.7953974
0.794386
0.7931588
0.8020159
0.8003244
0.7987504
0.7974104
0.7963272
0.7954347
0.7938533
0.8037904
0.8022053
0.8007378
0.799487
0.7985254
0.7977945
0.7971235
0.7951218
0.8054907
0.8040138
0.8026585
0.801512
0.800642
0.8001024
0.7997884
0.7994971
0.7972474
0.807078
0.8056959
0.804437
0.803374
0.8025799
0.8021072
0.8020149
0.8022012
0.8025434
0.8008889
0.8159326
0.8239938
0.8220412
0.82805
0.8277786
0.8264455
0.8302719
0.830392
0.8304768
0.8296295
0.8312513
0.8314375
0.8318082
0.832182
0.8317075
0.7937328
0.7926692
0.7950833
0.7937303
0.7926825
0.7967479
0.7950035
0.7937731
0.7927276
0.7984647
0.7966631
0.7950561
0.7939454
0.7928617
0.8002036
0.7984246
0.7967853
0.7953974
0.794386
0.7931588
0.8019474
0.8002389
0.7986419
0.7972772
0.7961719
0.7952738
0.793759
0.8036776
0.8020627
0.8005552
0.7992625
0.7982584
0.7974812
0.7967688
0.7948669
0.8053701
0.8038578
0.8024567
0.8012647
0.8003515
0.7997638
0.7993767
0.7989741
0.7967452
0.8069941
0.8055826
0.8042888
0.8031931
0.8023708
0.8018697
0.8017359
0.801828
0.8019511
0.7998851
0.8085135
0.8071898
0.8059853
0.8049692
0.8042078
0.8037684
0.8036932
0.8040591
0.8047943
0.8059546
0.8064407
0.8188563
0.8165294
0.824725
0.8242494
0.8225792
0.8282473
0.8282373
0.82818
0.8270972
0.8303054
0.8304356
0.8307418
0.8310429
0.8304507
0.8313331
0.8314026
0.8317587
0.8323235
0.8329248
0.8328785
0.79519
0.7938219
0.7927244
0.7968968
0.7951871
0.7939265
0.7927955
0.7985949
0.7968236
0.7952558
0.7941157
0.7929349
0.8002756
0.7985139
0.7968975
0.7955337
0.7945116
0.7932198
0.8019474
0.8002389
0.7986419
0.7972772
0.7961719
0.7952738
0.793759
0.8036126
0.8019814
0.8004518
0.7991355
0.7981066
0.7973039
0.7965706
0.7947253
0.8052628
0.8037223
0.8022834
0.801052
0.8001002
0.7994684
0.7990204
0.7985365
0.7963521
0.806879
0.8054341
0.8040971
0.8029588
0.8020972
0.801555
0.8013617
0.8013397
0.8012505
0.7989888
0.8084333
0.8070817
0.8058442
0.8047974
0.8040097
0.8035457
0.8034353
0.8037265
0.8042587
0.8048485
0.80351
0.8098909
0.8086203
0.8074658
0.8064918
0.8057623
0.805336
0.8052789
0.8056346
0.8065297
0.8080204
0.8106085
0.8092074
0.8199599
0.8193693
0.8174186
0.8251415
0.8249596
0.8247272
0.8233247
0.8283996
0.8284218
0.8286064
0.82877
0.8279467
0.8304387
0.8304592
0.8307616
0.8312635
0.8317929
0.8316326
0.8315004
0.8314761
0.8317046
0.8322395
0.8330089
0.833998
0.8331199
0.7970051
0.7953254
0.7940581
0.7928555
0.7987412
0.797008
0.7954868
0.7943313
0.7930323
0.8004004
0.7986707
0.7970956
0.7957718
0.7947413
0.793332
0.8020159
0.8003244
0.7987504
0.7974104
0.7963272
0.7954347
0.7938533
0.8036126
0.8019814
0.8004518
0.7991355
0.7981066
0.7973039
0.7965706
0.7947253
0.8052009
0.8036452
0.8021853
0.8009316
0.7999576
0.7993
0.7988189
0.7982938
0.7961426
0.8067767
0.8053052
0.8039326
0.8027575
0.8018607
0.801281
0.8010347
0.8009237
0.8006934
0.798382
0.8083234
0.8069401
0.8056618
0.804575
0.803751
0.8032508
0.8030905
0.8032871
0.8036179
0.8038147
0.8019645
0.809814
0.808517
0.8073312
0.8063282
0.8055742
0.8051253
0.8050377
0.805327
0.8060451
0.8070058
0.8078766
0.8057577
0.811215
0.8099932
0.8088842
0.807949
0.8072467
0.8068355
0.806769
0.8071217
0.8079683
0.8095579
0.8123218
0.8129435
0.8113585
0.8206931
0.8204315
0.8201393
0.8184528
0.8254766
0.8253596
0.825398
0.8253922
0.8242463
0.828637
0.8285634
0.8287654
0.829149
0.8295405
0.8291527
0.8306509
0.8305841
0.8307657
0.831248
0.8319548
0.8328731
0.8318762
0.8317505
0.8316362
0.8317617
0.8321567
0.832879
0.8339994
0.8342193
0.8333634
0.7988477
0.7971481
0.7956619
0.7945091
0.7931154
0.8005405
0.7988513
0.7973255
0.7960463
0.7950211
0.7934714
0.8021346
0.8004744
0.7989422
0.7976453
0.7966018
0.795724
0.7940219
0.8036776
0.8020627
0.8005552
0.7992625
0.7982584
0.7974812
0.7967688
0.7948669
0.8052009
0.8036452
0.8021853
0.8009316
0.7999576
0.7993
0.7988189
0.7982938
0.7961426
0.8067177
0.8052319
0.8038395
0.8026437
0.8017265
0.8011251
0.8008484
0.8006909
0.8003929
0.7980806
0.8082256
0.8068172
0.8055052
0.8043839
0.8035276
0.8029943
0.8027899
0.8029098
0.8031025
0.8030804
0.8010748
0.8097087
0.8083816
0.8071572
0.8061164
0.8053285
0.8048467
0.8047154
0.804922
0.805463
0.8060563
0.8063224
0.803878
0.8111412
0.8098942
0.8087554
0.8077928
0.8070673
0.8066352
0.8065406
0.8068336
0.8075167
0.8086208
0.8097925
0.8097758
0.807749
0.8124903
0.8113132
0.810246
0.8093461
0.8086695
0.8082685
0.8081984
0.8085165
0.809331
0.8108197
0.8135676
0.8144762
0.8147712
0.8131186
0.8212915
0.8211316
0.8211382
0.8210422
0.8195615
0.825874
0.8256812
0.8257672
0.8260082
0.8262183
0.8254978
0.8289398
0.8287918
0.8288861
0.8292707
0.8298578
0.8306364
0.8294011
0.8309412
0.830789
0.8308739
0.8312229
0.8318927
0.8329507
0.8330958
0.8321218
0.8320607
0.8318799
0.8319075
0.8321893
0.8327582
0.8338032
0.8342036
0.8344424
0.8336088
0.8006427
0.7989887
0.7975024
0.7962572
0.795246
0.793583
0.8022681
0.8006471
0.7991652
0.7979179
0.7969206
0.7960694
0.7942221
0.8037904
0.8022053
0.8007378
0.799487
0.7985254
0.7977945
0.7971235
0.7951218
0.8052628
0.8037223
0.8022834
0.801052
0.8001002
0.7994684
0.7990204
0.7985365
0.7963521
0.8067177
0.8052319
0.8038395
0.8026437
0.8017265
0.8011251
0.8008484
0.8006909
0.8003929
0.7980806
0.8081692
0.8067473
0.8054167
0.8042759
0.803401
0.8028483
0.802619
0.8026973
0.8028228
0.8027047
0.8006599
0.809615
0.8082642
0.8070079
0.8059346
0.8051166
0.8046048
0.8044345
0.8045753
0.8049933
0.8053791
0.8053757
0.802822
0.8110401
0.8097645
0.808589
0.8075906
0.8068333
0.8063706
0.806236
0.8064543
0.8069764
0.8077454
0.8083537
0.8079509
0.8056517
0.8124193
0.8112182
0.8101225
0.8091966
0.8084981
0.8080773
0.8079812
0.8082433
0.8089061
0.8099407
0.8112116
0.8115387
0.8114675
0.8094931
0.8137203
0.8125847
0.8115558
0.8106886
0.8100351
0.8096451
0.8095669
0.809861
0.8106118
0.8120257
0.8145894
0.8155743
0.8161581
0.8162787
0.8146046
0.8219189
0.8217029
0.8217884
0.8219656
0.8220183
0.8208982
0.8263161
0.8260673
0.8260638
0.8263345
0.8267658
0.8273447
0.8257551
0.829311
0.8290867
0.8290967
0.8293607
0.8299308
0.830866
0.8308622
0.8296515
0.8312874
0.8310727
0.8310641
0.8313062
0.831829
0.8328214
0.833156
0.8333203
0.8323695
0.8324205
0.8321844
0.8321385
0.8323137
0.8327582
0.8336275
0.8339938
0.8344096
0.8346674
0.8338563
0.8023654
0.8007786
0.7993373
0.7981272
0.797165
0.7963418
0.7943723
0.8039172
0.8023696
0.8009503
0.7997479
0.7988335
0.7981569
0.7975434
0.7954242
0.8053701
0.8038578
0.8024567
0.8012647
0.8003515
0.7997638
0.7993767
0.7989741
0.7967452
0.8067767
0.8053052
0.8039326
0.8027575
0.8018607
0.801281
0.8010347
0.8009237
0.8006934
0.798382
0.8081692
0.8067473
0.8054167
0.8042759
0.803401
0.8028483
0.802619
0.8026973
0.8028228
0.8027047
0.8006599
0.809561
0.8081973
0.8069234
0.8058319
0.8049964
0.8044672
0.8042748
0.8043806
0.8047376
0.8050316
0.8049189
0.8023383
0.8109502
0.809652
0.8084463
0.8074172
0.8066315
0.8061409
0.8059709
0.8061297
0.8065418
0.8071214
0.807476
0.8068755
0.8044689
0.8123221
0.8110937
0.809963
0.8090032
0.8082745
0.807825
0.8076915
0.8078842
0.8083978
0.809122
0.8098747
0.8098452
0.8094641
0.8072717
0.813652
0.8124933
0.8114373
0.8105452
0.8098709
0.8094622
0.8093592
0.8096007
0.8102082
0.8111957
0.812374
0.8128347
0.8130903
0.8129572
0.8110075
0.8149086
0.8138113
0.812818
0.8119808
0.811349
0.8109685
0.8108855
0.8111518
0.8118548
0.8131686
0.8155861
0.8164751
0.817139
0.817541
0.8175634
0.8160741
0.8225607
0.8223072
0.8223191
0.8225569
0.8228587
0.823205
0.8211718
0.8268115
0.8264994
0.8264284
0.8265961
0.8270389
0.8277988
0.8275764
0.826014
0.8297298
0.8294509
0.8293761
0.8295451
0.8299808
0.8308698
0.8310737
0.8310898
0.8299037
0.8316799
0.8314131
0.8313349
0.8314747
0.8318792
0.8327021
0.8330128
0.833363
0.8335467
0.8326191
0.8328168
0.832539
0.8324315
0.8325255
0.832854
0.8335804
0.8338067
0.8341859
0.8346172
0.8348943
0.8341583
0.8040096
0.8024948
0.8011145
0.7999489
0.7990681
0.7984323
0.7978699
0.7956474
0.8054907
0.8040138
0.8026585
0.801512
0.800642
0.8001024
0.7997884
0.7994971
0.7972474
0.806879
0.8054341
0.8040971
0.8029588
0.8020972
0.801555
0.8013617
0.8013397
0.8012505
0.7989888
0.8082256
0.8068172
0.8055052
0.8043839
0.8035276
0.8029943
0.8027899
0.8029098
0.8031025
0.8030804
0.8010748
0.809561
0.8081973
0.8069234
0.8058319
0.8049964
0.8044672
0.8042748
0.8043806
0.8047376
0.8050316
0.8049189
0.8023383
0.8108984
0.8095879
0.8083655
0.8073191
0.8065172
0.8060103
0.8058204
0.8059473
0.8063059
0.8068011
0.8070518
0.8063674
0.8039306
0.8122357
0.8109856
0.8098263
0.8088372
0.8080817
0.807606
0.8074395
0.8075772
0.8079891
0.8085401
0.8090605
0.808846
0.8082884
0.8060048
0.8135584
0.8123736
0.8112841
0.8103597
0.8096567
0.8092207
0.8090825
0.8092586
0.809726
0.8104229
0.8111189
0.8112575
0.811228
0.8108494
0.8087321
0.8148427
0.8137232
0.8127039
0.811843
0.8111913
0.810793
0.8106865
0.8109026
0.81147
0.81238
0.8134922
0.8138979
0.8142755
0.8144527
0.8142582
0.8125133
0.8160579
0.8149963
0.814036
0.8132267
0.812615
0.812244
0.812156
0.8124006
0.813054
0.8142888
0.816548
0.8173667
0.8179443
0.8184239
0.8187154
0.8188474
0.8163724
0.8232343
0.8229289
0.8228886
0.8230399
0.823386
0.8239428
0.823448
0.8214457
0.8273416
0.8269859
0.8268419
0.8269309
0.8272571
0.8279994
0.8280113
0.8278096
0.8262744
0.8301881
0.8298634
0.8297265
0.8298018
0.8301311
0.830863
0.8310633
0.8312831
0.8313191
0.8301579
0.832106
0.8318003
0.8316636
0.831726
0.8320189
0.8327048
0.8328821
0.8332058
0.8335717
0.8337749
0.8329236
0.833242
0.8329306
0.8327757
0.8328014
0.8330406
0.8336351
0.83375
0.8339875
0.8343797
0.8348266
0.835171
0.8344673
0.8055787
0.8041328
0.8028146
0.8017026
0.8008638
0.8003571
0.8000989
0.7999061
0.7976636
0.8069941
0.8055826
0.8042888
0.8031931
0.8023708
0.8018697
0.8017359
0.801828
0.8019511
0.7998851
0.8083234
0.8069401
0.8056618
0.804575
0.803751
0.8032508
0.8030905
0.8032871
0.8036179
0.8038147
0.8019645
0.809615
0.8082642
0.8070079
0.8059346
0.8051166
0.8046048
0.8044345
0.8045753
0.8049933
0.8053791
0.8053757
0.802822
0.8108984
0.8095879
0.8083655
0.8073191
0.8065172
0.8060103
0.8058204
0.8059473
0.8063059
0.8068011
0.8070518
0.8063674
0.8039306
0.8121858
0.8109242
0.8097489
0.8087434
0.8079725
0.8074816
0.8072964
0.807405
0.8077673
0.808242
0.8086671
0.8083734
0.8077383
0.8054285
0.8134751
0.8122697
0.8111528
0.8102006
0.8094721
0.8090113
0.808842
0.8089663
0.8093387
0.8098739
0.8103559
0.810328
0.8101336
0.809605
0.8074229
0.8147524
0.8136079
0.8125566
0.8116647
0.8109858
0.8105615
0.8104214
0.8105755
0.8110103
0.8116462
0.8123061
0.8124155
0.8125386
0.8124902
0.8121007
0.8102399
0.8159942
0.8149114
0.8139261
0.8130941
0.8124634
0.8120754
0.8119648
0.8121616
0.8126857
0.813537
0.814559
0.8149303
0.8152497
0.8155391
0.815638
0.8155593
0.812819
0.8171709
0.8161426
0.8152131
0.8144297
0.8138368
0.8134749
0.8133833
0.8136073
0.8142201
0.8153779
0.8175069
0.8182377
0.8187534
0.8191498
0.8195134
0.819884
0.8191082
0.8166687
0.8239239
0.8235847
0.8234802
0.8235686
0.8238173
0.8243918
0.8241648
0.8236914
0.82172
0.8279009
0.8275081
0.827312
0.8273186
0.8275551
0.8281584
0.8281969
0.8282251
0.8280441
0.8265363
0.8306743
0.830316
0.8301267
0.830132
0.830358
0.8309647
0.8310448
0.8312583
0.831494
0.8315502
0.8304677
0.8325586
0.8322216
0.8320402
0.8320374
0.8322446
0.8328029
0.832875
0.8330636
0.8334005
0.8337821
0.8340533
0.8332352
0.8336889
0.8333514
0.8331577
0.8331301
0.8332937
0.833785
0.8337961
0.8339209
0.8341697
0.8345751
0.8350821
0.8354542
0.8347025
0.807078
0.8056959
0.804437
0.803374
0.8025799
0.8021072
0.8020149
0.8022012
0.8025434
0.8008889
0.8084333
0.8070817
0.8058442
0.8047974
0.8040097
0.8035457
0.8034353
0.8037265
0.8042587
0.8048485
0.80351
0.8097087
0.8083816
0.8071572
0.8061164
0.8053285
0.8048467
0.8047154
0.804922
0.805463
0.8060563
0.8063224
0.803878
0.8109502
0.809652
0.8084463
0.8074172
0.8066315
0.8061409
0.8059709
0.8061297
0.8065418
0.8071214
0.807476
0.8068755
0.8044689
0.8121858
0.8109242
0.8097489
0.8087434
0.8079725
0.8074816
0.8072964
0.807405
0.8077673
0.808242
0.8086671
0.8083734
0.8077383
0.8054285
0.8134271
0.8122106
0.8110785
0.8101107
0.8093676
0.8088924
0.8087054
0.8088024
0.8091287
0.8095927
0.8099879
0.8098886
0.809621
0.8090245
0.8068267
0.8146721
0.8135078
0.8124303
0.8115119
0.8108087
0.8103607
0.8101911
0.8102961
0.8106411
0.8111251
0.8115853
0.8115431
0.8115187
0.8113299
0.8108188
0.8089279
0.8159069
0.8148001
0.8137841
0.8129225
0.8122657
0.811853
0.8117103
0.8118479
0.8122458
0.8128372
0.8134322
0.8135288
0.8136161
0.8137068
0.8136261
0.8133935
0.8105465
0.8171093
0.8160605
0.815107
0.8143018
0.8136908
0.8133125
0.8131994
0.8133775
0.8138669
0.8146588
0.8156112
0.8159232
0.8162056
0.8164343
0.8166368
0.8168172
0.8158235
0.8131225
0.8182497
0.8172528
0.8163519
0.8155929
0.8150175
0.8146643
0.8145699
0.8147765
0.8153515
0.8164444
0.8184518
0.8191157
0.8195532
0.8198908
0.820171
0.8205956
0.8201213
0.8193674
0.816963
0.824628
0.8242583
0.8241093
0.8241251
0.824302
0.8247599
0.8245978
0.8243871
0.8239353
0.8219946
0.8284793
0.8280604
0.8278195
0.8277659
0.8279108
0.8284061
0.8283438
0.8283957
0.8284402
0.8282801
0.8268551
0.8311821
0.8307971
0.8305681
0.830514
0.8306618
0.8311494
0.8311365
0.831228
0.8314548
0.8317066
0.8318319
0.8307849
0.8330308
0.8326697
0.8324518
0.8323982
0.8325329
0.8329918
0.8329646
0.8330466
0.8332466
0.8335967
0.8340388
0.834338
0.8334724
0.8341525
0.8337942
0.8335698
0.8334979
0.8336016
0.8340051
0.8339384
0.8339585
0.8340933
0.8343535
0.8348135
0.8353433
0.8356695
0.8348622
0.8085135
0.8071898
0.8059853
0.8049692
0.8042078
0.8037684
0.8036932
0.8040591
0.8047943
0.8059546
0.8064407
0.809814
0.808517
0.8073312
0.8063282
0.8055742
0.8051253
0.8050377
0.805327
0.8060451
0.8070058
0.8078766
0.8057577
0.8110401
0.8097645
0.808589
0.8075906
0.8068333
0.8063706
0.806236
0.8064543
0.8069764
0.8077454
0.8083537
0.8079509
0.8056517
0.8122357
0.8109856
0.8098263
0.8088372
0.8080817
0.807606
0.8074395
0.8075772
0.8079891
0.8085401
0.8090605
0.808846
0.8082884
0.8060048
0.8134271
0.8122106
0.8110785
0.8101107
0.8093676
0.8088924
0.8087054
0.8088024
0.8091287
0.8095927
0.8099879
0.8098886
0.809621
0.8090245
0.8068267
0.8146258
0.8134509
0.8123589
0.8114255
0.8107084
0.8102467
0.8100603
0.8101395
0.8104409
0.8108584
0.8112376
0.8111311
0.8110413
0.8107881
0.8102212
0.8083302
0.8158294
0.8147036
0.8136624
0.8127754
0.8120954
0.8116601
0.8114892
0.8115801
0.8118927
0.8123403
0.8127476
0.8127042
0.8126578
0.8126242
0.8124288
0.8121033
0.8092343
0.817025
0.815953
0.8149701
0.8141365
0.8135004
0.8130984
0.8129546
0.8130761
0.8134449
0.8139894
0.8145369
0.8145917
0.8146608
0.8147101
0.8147568
0.8147936
0.8136564
0.8108515
0.81819
0.8171735
0.8162494
0.8154695
0.8148767
0.8145078
0.8143926
0.8145553
0.8150119
0.815755
0.8166397
0.8169099
0.8171327
0.8173227
0.8174623
0.8177268
0.8170566
0.816086
0.8134241
0.8192969
0.8183289
0.8174553
0.8167188
0.8161601
0.8158151
0.8157185
0.8159097
0.8164519
0.817485
0.8193875
0.8199883
0.8203679
0.8206318
0.8208539
0.821184
0.8208153
0.8203571
0.819625
0.8172554
0.8253384
0.8249481
0.8247593
0.824723
0.8248205
0.8251913
0.8249529
0.8248041
0.8246098
0.8241795
0.8223273
0.8290719
0.8286323
0.8283584
0.8282529
0.8283296
0.828718
0.8285811
0.8285303
0.8285957
0.8286566
0.8285674
0.8271815
0.8317053
0.8313001
0.831039
0.830939
0.8310201
0.8314156
0.8313124
0.8313096
0.8314126
0.8316528
0.8319658
0.8321201
0.8310264
0.8335178
0.8331378
0.8328911
0.8327954
0.8328728
0.8332469
0.8331458
0.8331275
0.8332197
0.8334311
0.833836
0.8343013
0.8345546
0.8336336
0.8346286
0.834254
0.8340046
0.8338969
0.8339505
0.8342831
0.8341518
0.8340932
0.8341222
0.8342671
0.8345777
0.8350571
0.8355418
0.8358156
0.8349439
0.8159326
0.8098909
0.8086203
0.8074658
0.8064918
0.8057623
0.805336
0.8052789
0.8056346
0.8065297
0.8080204
0.8106085
0.8092074
0.8111412
0.8098942
0.8087554
0.8077928
0.8070673
0.8066352
0.8065406
0.8068336
0.8075167
0.8086208
0.8097925
0.8097758
0.807749
0.8123221
0.8110937
0.809963
0.8090032
0.8082745
0.807825
0.8076915
0.8078842
0.8083978
0.809122
0.8098747
0.8098452
0.8094641
0.8072717
0.8134751
0.8122697
0.8111528
0.8102006
0.8094721
0.8090113
0.808842
0.8089663
0.8093387
0.8098739
0.8103559
0.810328
0.8101336
0.809605
0.8074229
0.8146258
0.8134509
0.8123589
0.8114255
0.8107084
0.8102467
0.8100603
0.8101395
0.8104409
0.8108584
0.8112376
0.8111311
0.8110413
0.8107881
0.8102212
0.8083302
0.8157846
0.8146487
0.8135936
0.8126923
0.811999
0.8115506
0.8113637
0.8114299
0.8117013
0.8120859
0.8124175
0.8123148
0.8122094
0.8121188
0.81187
0.8115016
0.8086365
0.81695
0.8158598
0.8148527
0.8139947
0.8133364
0.8129128
0.8127419
0.8128188
0.8131063
0.8135142
0.8138842
0.8138083
0.8137546
0.8136919
0.8136385
0.813586
0.8123648
0.8095395
0.8181084
0.8170695
0.8161171
0.8153099
0.8146931
0.8143014
0.8141567
0.8142651
0.8146064
0.8151132
0.8156124
0.8156405
0.8156649
0.8156919
0.8156924
0.8158341
0.815031
0.813918
0.8111549
0.8192391
0.8182521
0.8173561
0.8165995
0.8160241
0.815664
0.8155475
0.8156963
0.816125
0.8168229
0.8176514
0.8178799
0.8180611
0.8181919
0.8182918
0.8184816
0.817948
0.8172945
0.8163468
0.8137236
0.8203134
0.8193737
0.8185249
0.8178101
0.8172668
0.8169299
0.8168316
0.817009
0.8175217
0.8185022
0.8203091
0.8208586
0.8211841
0.8213944
0.8215448
0.8218088
0.8213897
0.8210336
0.8205915
0.8198811
0.8176069
0.8260523
0.8256454
0.8254275
0.8253451
0.8253848
0.8256635
0.8253733
0.8251462
0.8250107
0.8248329
0.8244756
0.8226681
0.8296732
0.8292188
0.8289181
0.8287733
0.8287912
0.8290983
0.8288841
0.8287572
0.828718
0.8287969
0.8289201
0.8288613
0.82743
0.8322395
0.8318189
0.8315327
0.8313948
0.8314237
0.8317402
0.8315709
0.8314767
0.8314841
0.8315986
0.8318942
0.8322309
0.8323394
0.8311905
0.8340158
0.833621
0.833351
0.8332214
0.833251
0.8335566
0.833394
0.8333011
0.8332919
0.8333941
0.8336561
0.8340807
0.8345008
0.8347016
0.833716
0.8351144
0.8347267
0.8344569
0.8343196
0.8343321
0.8346047
0.8344236
0.8342997
0.8342493
0.8342873
0.8344792
0.8348068
0.8352423
0.8356764
0.8358902
0.8217522
0.8188563
0.8165294
0.811215
0.8099932
0.8088842
0.807949
0.8072467
0.8068355
0.806769
0.8071217
0.8079683
0.8095579
0.8123218
0.8129435
0.8113585
0.8124193
0.8112182
0.8101225
0.8091966
0.8084981
0.8080773
0.8079812
0.8082433
0.8089061
0.8099407
0.8112116
0.8115387
0.8114675
0.8094931
0.8135584
0.8123736
0.8112841
0.8103597
0.8096567
0.8092207
0.8090825
0.8092586
0.809726
0.8104229
0.8111189
0.8112575
0.811228
0.8108494
0.8087321
0.8146721
0.8135078
0.8124303
0.8115119
0.8108087
0.8103607
0.8101911
0.8102961
0.8106411
0.8111251
0.8115853
0.8115431
0.8115187
0.8113299
0.8108188
0.8089279
0.8157846
0.8146487
0.8135936
0.8126923
0.811999
0.8115506
0.8113637
0.8114299
0.8117013
0.8120859
0.8124175
0.8123148
0.8122094
0.8121188
0.81187
0.8115016
0.8086365
0.8169067
0.8158068
0.8147863
0.8139146
0.8132436
0.8128074
0.8126213
0.8126745
0.8129228
0.8132709
0.8135694
0.8134385
0.8133308
0.813217
0.8131167
0.8130221
0.8117624
0.8089417
0.8180357
0.8169794
0.8160037
0.815173
0.8145349
0.8141225
0.8139519
0.8140175
0.8142811
0.8146575
0.8149882
0.8148935
0.8148039
0.8147289
0.8146401
0.814705
0.8138216
0.8126252
0.8098435
0.8191599
0.8181515
0.8172282
0.8164452
0.8158468
0.8154648
0.8153199
0.8154166
0.8157346
0.8162062
0.8166668
0.8166661
0.8166617
0.8166422
0.8166174
0.816699
0.8160531
0.8152672
0.8141783
0.8114568
0.8202574
0.8192992
0.8184289
0.8176946
0.8171352
0.8167839
0.8166663
0.8168031
0.8172064
0.8178651
0.8186423
0.8188386
0.818979
0.8190689
0.8191103
0.8192519
0.8186885
0.8181678
0.8175307
0.816606
0.8140835
0.8213025
0.820388
0.8195636
0.8188685
0.8183402
0.8180108
0.8179113
0.8180764
0.8185624
0.8194953
0.821217
0.8217205
0.8220032
0.8221641
0.8222632
0.8224496
0.8220027
0.8215941
0.8212506
0.8208243
0.8201891
0.8179668
0.8267655
0.8263472
0.8261052
0.8259881
0.8259768
0.826187
0.8258361
0.8255557
0.8253399
0.8252177
0.8251033
0.8247786
0.8229276
0.8302799
0.8298147
0.8294936
0.8293161
0.8292886
0.8295252
0.8292564
0.8290512
0.8289344
0.8289068
0.8290419
0.8291895
0.8290849
0.827599
0.8327815
0.8323491
0.8320428
0.8318748
0.8318599
0.8321132
0.8318886
0.8317274
0.8316423
0.8316599
0.8318254
0.8321411
0.8324324
0.8324882
0.8312745
0.8345219
0.8341154
0.8338265
0.8336691
0.8336594
0.8339073
0.8336976
0.8335424
0.8334576
0.8334575
0.8336069
0.8338861
0.8342667
0.8346361
0.8347768
0.8356072
0.8352092
0.8349226
0.8347607
0.8347388
0.8349611
0.8347395
0.8345653
0.8344488
0.8344066
0.8344888
0.8346959
0.8349809
0.8353677
0.8357452
0.8257756
0.8239938
0.8220412
0.8199599
0.8193693
0.8174186
0.8124903
0.8113132
0.810246
0.8093461
0.8086695
0.8082685
0.8081984
0.8085165
0.809331
0.8108197
0.8135676
0.8144762
0.8147712
0.8131186
0.813652
0.8124933
0.8114373
0.8105452
0.8098709
0.8094622
0.8093592
0.8096007
0.8102082
0.8111957
0.812374
0.8128347
0.8130903
0.8129572
0.8110075
0.8147524
0.8136079
0.8125566
0.8116647
0.8109858
0.8105615
0.8104214
0.8105755
0.8110103
0.8116462
0.8123061
0.8124155
0.8125386
0.8124902
0.8121007
0.8102399
0.8158294
0.8147036
0.8136624
0.8127754
0.8120954
0.8116601
0.8114892
0.8115801
0.8118927
0.8123403
0.8127476
0.8127042
0.8126578
0.8126242
0.8124288
0.8121033
0.8092343
0.8169067
0.8158068
0.8147863
0.8139146
0.8132436
0.8128074
0.8126213
0.8126745
0.8129228
0.8132709
0.8135694
0.8134385
0.8133308
0.813217
0.8131167
0.8130221
0.8117624
0.8089417
0.8179939
0.8169281
0.8159396
0.8150958
0.8144454
0.814021
0.8138357
0.8138787
0.8141047
0.8144243
0.8146872
0.8145409
0.8144012
0.8142797
0.8141494
0.8141778
0.8132567
0.8120223
0.809246
0.8190896
0.8180642
0.8171185
0.816313
0.815694
0.8152921
0.8151223
0.8151779
0.8154214
0.8157685
0.8160684
0.8159518
0.8158408
0.8157271
0.8156219
0.8156359
0.814922
0.8140561
0.8128847
0.8101464
0.8201806
0.8192017
0.818305
0.8175454
0.8169638
0.8165913
0.8164465
0.816533
0.81683
0.8172717
0.8176967
0.8176754
0.8176411
0.8175915
0.817519
0.8175651
0.8169036
0.816271
0.8155021
0.8144373
0.8118202
0.8212481
0.8203157
0.8194706
0.8187566
0.8182128
0.8178694
0.8177515
0.8178773
0.8182581
0.8188813
0.8196138
0.8197812
0.8198906
0.8199411
0.8199426
0.8200197
0.8194468
0.818894
0.818386
0.8177653
0.8169175
0.8144521
0.8222637
0.8213749
0.8205722
0.8198966
0.8193818
0.81906
0.8189594
0.8191136
0.8195754
0.8204651
0.8221092
0.8225736
0.8228186
0.8229412
0.8229933
0.8231239
0.8226334
0.8221953
0.8217972
0.8214662
0.8211044
0.8205043
0.8182409
0.827476
0.8270494
0.826789
0.8266429
0.8265927
0.8267425
0.8263513
0.826009
0.8257384
0.8255338
0.8254685
0.8253799
0.8250091
0.8231041
0.8308893
0.8304163
0.8300791
0.829876
0.8298105
0.8299912
0.8296761
0.8294154
0.8292193
0.8291127
0.8291366
0.8292923
0.8293944
0.8292368
0.8276855
0.8333286
0.8328872
0.832565
0.8323722
0.8323218
0.8325216
0.8322553
0.8320381
0.8318852
0.8318092
0.8318742
0.8320572
0.8323286
0.8325691
0.8325643
0.8350338
0.8346182
0.8343139
0.8341333
0.8340909
0.8342904
0.8340425
0.8338397
0.8336921
0.8336155
0.8336596
0.8338243
0.8340608
0.8343927
0.8347051
0.8361053
0.835699
0.8353986
0.835216
0.835165
0.8353445
0.8350908
0.8348755
0.8347082
0.8345992
0.8345986
0.8346946
0.8348604
0.8350988
0.8354317
0.8283837
0.8275748
0.8260014
0.824725
0.8242494
0.8225792
0.8206931
0.8204315
0.8201393
0.8184528
0.8137203
0.8125847
0.8115558
0.8106886
0.8100351
0.8096451
0.8095669
0.809861
0.8106118
0.8120257
0.8145894
0.8155743
0.8161581
0.8162787
0.8146046
0.8148427
0.8137232
0.8127039
0.811843
0.8111913
0.810793
0.8106865
0.8109026
0.81147
0.81238
0.8134922
0.8138979
0.8142755
0.8144527
0.8142582
0.8125133
0.8159069
0.8148001
0.8137841
0.8129225
0.8122657
0.811853
0.8117103
0.8118479
0.8122458
0.8128372
0.8134322
0.8135288
0.8136161
0.8137068
0.8136261
0.8133935
0.8105465
0.81695
0.8158598
0.8148527
0.8139947
0.8133364
0.8129128
0.8127419
0.8128188
0.8131063
0.8135142
0.8138842
0.8138083
0.8137546
0.8136919
0.8136385
0.813586
0.8123648
0.8095395
0.8179939
0.8169281
0.8159396
0.8150958
0.8144454
0.814021
0.8138357
0.8138787
0.8141047
0.8144243
0.8146872
0.8145409
0.8144012
0.8142797
0.8141494
0.8141778
0.8132567
0.8120223
0.809246
0.819049
0.8180145
0.8170565
0.8162383
0.8156076
0.8151941
0.8150103
0.8150441
0.8152516
0.8155444
0.8157799
0.8156146
0.8154567
0.8153003
0.8151577
0.8151399
0.8143939
0.8134905
0.8122813
0.8095493
0.8201123
0.8191171
0.8181988
0.8174175
0.8168161
0.8164245
0.8162556
0.8163026
0.8165281
0.8168503
0.8171219
0.8169907
0.816856
0.8167189
0.8165729
0.8165592
0.8158386
0.8151382
0.8142897
0.8131431
0.8105115
0.8211735
0.8202211
0.8193505
0.8186121
0.8180469
0.8176831
0.8175388
0.8176162
0.8178947
0.8183093
0.8187041
0.8186642
0.8186084
0.8185285
0.8184254
0.8184164
0.8177578
0.8171071
0.8164877
0.8157358
0.814749
0.8121924
0.8222108
0.8213047
0.8204819
0.8197882
0.8192584
0.8189231
0.8188047
0.8189209
0.8192812
0.8198726
0.8205649
0.8207085
0.8207903
0.8208113
0.8207749
0.8208074
0.8202043
0.8196404
0.819098
0.8186028
0.8180473
0.8172364
0.8147329
0.8232012
0.822334
0.8215538
0.8208952
0.8203942
0.820079
0.8199781
0.8201221
0.820562
0.8214121
0.8229856
0.8234154
0.8236289
0.8237182
0.8237347
0.8238146
0.8232987
0.8228159
0.8223867
0.8219989
0.8217254
0.8213908
0.8207441
0.8184272
0.8281818
0.8277496
0.8274746
0.8273057
0.8272227
0.8273254
0.8268993
0.8265158
0.8261822
0.8259213
0.8257689
0.825725
0.8255902
0.8251657
0.8231945
0.8314993
0.8310209
0.8306712
0.8304473
0.8303511
0.8304844
0.8301357
0.8298281
0.8295755
0.8293884
0.8293297
0.8293716
0.8294827
0.8295334
0.8293144
0.8338788
0.8334309
0.8330957
0.8328825
0.8328026
0.8329579
0.8326579
0.8323985
0.8321888
0.8320441
0.8320126
0.8320932
0.8322333
0.8324558
0.8326389
0.8355497
0.835127
0.8348101
0.8346101
0.8345401
0.8346985
0.8344205
0.834179
0.8339831
0.8338429
0.8338081
0.833866
0.8339894
0.8341792
0.834457
0.8366068
0.8361942
0.8358823
0.8356822
0.8356064
0.8357492
0.8354694
0.8352216
0.8350127
0.8348522
0.8347827
0.8347947
0.8348508
0.8349718
0.8351589
0.8296743
0.8299066
0.8285928
0.82805
0.8277786
0.8264455
0.8251415
0.8249596
0.8247272
0.8233247
0.8212915
0.8211316
0.8211382
0.8210422
0.8195615
0.8149086
0.8138113
0.812818
0.8119808
0.811349
0.8109685
0.8108855
0.8111518
0.8118548
0.8131686
0.8155861
0.8164751
0.817139
0.817541
0.8175634
0.8160741
0.8159942
0.8149114
0.8139261
0.8130941
0.8124634
0.8120754
0.8119648
0.8121616
0.8126857
0.813537
0.814559
0.8149303
0.8152497
0.8155391
0.815638
0.8155593
0.812819
0.817025
0.815953
0.8149701
0.8141365
0.8135004
0.8130984
0.8129546
0.8130761
0.8134449
0.8139894
0.8145369
0.8145917
0.8146608
0.8147101
0.8147568
0.8147936
0.8136564
0.8108515
0.8180357
0.8169794
0.8160037
0.815173
0.8145349
0.8141225
0.8139519
0.8140175
0.8142811
0.8146575
0.8149882
0.8148935
0.8148039
0.8147289
0.8146401
0.814705
0.8138216
0.8126252
0.8098435
0.819049
0.8180145
0.8170565
0.8162383
0.8156076
0.8151941
0.8150103
0.8150441
0.8152516
0.8155444
0.8157799
0.8156146
0.8154567
0.8153003
0.8151577
0.8151399
0.8143939
0.8134905
0.8122813
0.8095493
0.820073
0.819069
0.8181387
0.8173452
0.8167325
0.8163298
0.8161474
0.8161735
0.8163644
0.8166347
0.8168447
0.8166674
0.8164888
0.8163119
0.8161317
0.8160898
0.8153416
0.8146092
0.8137234
0.8125394
0.8099151
0.8211073
0.820139
0.8192475
0.8184882
0.8179039
0.8175217
0.8173543