/*--------------------------------*- C++ -*----------------------------------*\
| =========                 |                                                 |
| \\      /  F ield         | OpenFOAM: The Open Source CFD Toolbox           |
|  \\    /   O peration     | Version:  2306                                  |
|   \\  /    A nd           | Website:  www.openfoam.com                      |
|    \\/     M anipulation  |                                                 |
\*---------------------------------------------------------------------------*/
FoamFile
{
    version     2.0;
    format      ascii;
    arch        "LSB;label=32;scalar=64";
    class       volScalarField;
    location    "1.2/air";
    object      X.O2;
}
// * * * * * * * * * * * * * * * * * * * * * * * * * * * * * * * * * * * * * //

dimensions      [0 0 0 0 0 0 0];

internalField   nonuniform List<scalar> 
16000
(
0.2073453
0.2073646
0.2062672
0.2073308
0.2073885
0.2063332
0.2073589
0.20481
0.2061781
0.2072756
0.2074077
0.2064178
0.2073916
0.2049167
0.2062697
0.2073175
0.2029949
0.2046746
0.2059419
0.2071445
0.207418
0.2064887
0.2074164
0.2050639
0.2063793
0.207365
0.2031032
0.2048129
0.2060735
0.2072045
0.2011523
0.2028519
0.2043381
0.2054909
0.2068846
0.207418
0.2065279
0.2074292
0.205195
0.2064671
0.207399
0.2032521
0.2049965
0.2062269
0.2072724
0.2012588
0.202992
0.2045132
0.2056687
0.2069677
0.1993573
0.2010113
0.2024976
0.2037428
0.204754
0.206417
0.1703257
0.2074077
0.2065279
0.2074292
0.2052705
0.2065144
0.2074158
0.2033848
0.2051562
0.2063469
0.2073205
0.2014051
0.2031764
0.2047442
0.2058843
0.2070651
0.1994595
0.2011487
0.2026745
0.2039537
0.2049789
0.2065286
0.1976346
0.1992214
0.2006627
0.2018728
0.202835
0.2036582
0.2056277
0.1716163
0.1689368
0.1701214
0.2073885
0.2064887
0.2074164
0.2052705
0.2065144
0.2074158
0.2034614
0.205247
0.2064104
0.2073449
0.2015353
0.2033369
0.2049439
0.2060546
0.2071383
0.1995996
0.2013293
0.2029044
0.2042282
0.2052587
0.206668
0.1977319
0.1993529
0.2008348
0.2020821
0.2030794
0.2039306
0.2057779
0.1959904
0.1975052
0.1988855
0.2000511
0.2009319
0.2015677
0.2021301
0.2043526
0.1742244
0.1700934
0.1714072
0.1687086
0.1687499
0.1697135
0.2073646
0.2064178
0.2073916
0.205195
0.2064671
0.207399
0.2034614
0.205247
0.2064104
0.2073449
0.2016104
0.2034284
0.205057
0.2061438
0.2071766
0.1997244
0.2014861
0.2031025
0.2044663
0.2054884
0.2067802
0.1978654
0.1995256
0.2010578
0.2023547
0.2033982
0.204276
0.2059781
0.1960828
0.1976304
0.1990497
0.2002521
0.2011665
0.2018431
0.2024566
0.2045758
0.1944213
0.1958672
0.1971854
0.1982974
0.1991362
0.1996429
0.1999011
0.2000939
0.2023364
0.1782478
0.1724252
0.1739986
0.1697836
0.1699028
0.1709909
0.1687233
0.1685361
0.1683766
0.1691034
0.2073453
0.2063332
0.2073589
0.2050639
0.2063793
0.207365
0.2033848
0.2051562
0.2063469
0.2073205
0.2016104
0.2034284
0.205057
0.2061438
0.2071766
0.1997964
0.2015754
0.2032147
0.2046026
0.205614
0.2068412
0.1979841
0.1996756
0.2012496
0.2025896
0.2036728
0.2045653
0.2061467
0.1962096
0.1977947
0.1992622
0.200513
0.2014746
0.2022055
0.2028765
0.2048782
0.1945093
0.1959862
0.1973415
0.198488
0.199358
0.1998976
0.2002116
0.2005029
0.2027526
0.192922
0.1943041
0.195563
0.196626
0.1974201
0.1978928
0.1979851
0.1977988
0.1974566
0.1991111
0.1840674
0.1760062
0.1779588
0.17195
0.1722214
0.1735545
0.1697281
0.169608
0.1695232
0.1703705
0.1687487
0.1685625
0.1681918
0.167818
0.1682925
0.2062672
0.2073308
0.2049167
0.2062697
0.2073175
0.2032521
0.2049965
0.2062269
0.2072724
0.2015353
0.2033369
0.2049439
0.2060546
0.2071383
0.1997964
0.2015754
0.2032147
0.2046026
0.205614
0.2068412
0.1980526
0.1997611
0.2013581
0.2027228
0.2038281
0.2047262
0.206241
0.1963224
0.1979373
0.1994448
0.2007375
0.2017416
0.2025188
0.2032312
0.2051331
0.1946299
0.1961422
0.1975433
0.1987353
0.1996485
0.2002362
0.2006233
0.2010259
0.2032548
0.1930059
0.1944174
0.1957112
0.1968069
0.1976292
0.1981303
0.1982641
0.198172
0.1980489
0.2001149
0.1914865
0.1928102
0.1940147
0.1950308
0.1957922
0.1962316
0.1963068
0.1959409
0.1952057
0.1940454
0.1935593
0.1811437
0.1834706
0.175275
0.1757506
0.1774208
0.1717527
0.1717627
0.17182
0.1729028
0.1696946
0.1695644
0.1692582
0.1689571
0.1695493
0.1686669
0.1685974
0.1682413
0.1676765
0.1670752
0.1671215
0.20481
0.2061781
0.2072756
0.2031032
0.2048129
0.2060735
0.2072045
0.2014051
0.2031764
0.2047442
0.2058843
0.2070651
0.1997244
0.2014861
0.2031025
0.2044663
0.2054884
0.2067802
0.1980526
0.1997611
0.2013581
0.2027228
0.2038281
0.2047262
0.206241
0.1963874
0.1980186
0.1995482
0.2008645
0.2018934
0.2026961
0.2034294
0.2052747
0.1947372
0.1962777
0.1977166
0.198948
0.1998998
0.2005316
0.2009796
0.2014635
0.2036479
0.193121
0.1945659
0.1959029
0.1970412
0.1979028
0.198445
0.1986383
0.1986603
0.1987495
0.2010112
0.1915667
0.1929183
0.1941558
0.1952026
0.1959903
0.1964543
0.1965647
0.1962735
0.1957413
0.1951515
0.19649
0.1901091
0.1913797
0.1925342
0.1935082
0.1942377
0.194664
0.1947211
0.1943654
0.1934703
0.1919796
0.1893915
0.1907926
0.1800401
0.1806307
0.1825814
0.1748585
0.1750404
0.1752728
0.1766753
0.1716004
0.1715782
0.1713936
0.17123
0.1720533
0.1695613
0.1695408
0.1692384
0.1687365
0.1682071
0.1683674
0.1684996
0.1685239
0.1682954
0.1677605
0.1669911
0.166002
0.1668801
0.2029949
0.2046746
0.2059419
0.2071445
0.2012588
0.202992
0.2045132
0.2056687
0.2069677
0.1995996
0.2013293
0.2029044
0.2042282
0.2052587
0.206668
0.1979841
0.1996756
0.2012496
0.2025896
0.2036728
0.2045653
0.2061467
0.1963874
0.1980186
0.1995482
0.2008645
0.2018934
0.2026961
0.2034294
0.2052747
0.1947991
0.1963548
0.1978147
0.1990684
0.2000424
0.2007
0.2011811
0.2017062
0.2038574
0.1932233
0.1946948
0.1960674
0.1972425
0.1981393
0.198719
0.1989653
0.1990763
0.1993066
0.201618
0.1916766
0.1930599
0.1943382
0.195425
0.196249
0.1967492
0.1969095
0.1967129
0.1963821
0.1961853
0.1980355
0.190186
0.191483
0.1926688
0.1936718
0.1944258
0.1948747
0.1949623
0.194673
0.1939549
0.1929942
0.1921234
0.1942423
0.188785
0.1900068
0.1911158
0.192051
0.1927533
0.1931645
0.193231
0.1928783
0.1920317
0.1904421
0.1876782
0.1870565
0.1886415
0.1793069
0.1795685
0.1798607
0.1815472
0.1745234
0.1746404
0.174602
0.1746078
0.1757537
0.171363
0.1714366
0.1712346
0.170851
0.1704595
0.1708473
0.1693491
0.1694159
0.1692343
0.168752
0.1680452
0.1671269
0.1681238
0.1682495
0.1683638
0.1682383
0.1678433
0.167121
0.1660006
0.1657807
0.1666366
0.2011523
0.2028519
0.2043381
0.2054909
0.2068846
0.1994595
0.2011487
0.2026745
0.2039537
0.2049789
0.2065286
0.1978654
0.1995256
0.2010578
0.2023547
0.2033982
0.204276
0.2059781
0.1963224
0.1979373
0.1994448
0.2007375
0.2017416
0.2025188
0.2032312
0.2051331
0.1947991
0.1963548
0.1978147
0.1990684
0.2000424
0.2007
0.2011811
0.2017062
0.2038574
0.1932823
0.1947681
0.1961605
0.1973563
0.1982735
0.1988749
0.1991516
0.1993091
0.1996071
0.2019194
0.1917744
0.1931828
0.1944948
0.1956161
0.1964724
0.1970057
0.1972101
0.1970902
0.1968975
0.1969196
0.1989252
0.1902913
0.1916184
0.1928428
0.1938836
0.1946715
0.1951533
0.1952846
0.195078
0.194537
0.1939437
0.1936776
0.196122
0.1888588
0.1901058
0.1912446
0.1922072
0.1929327
0.1933648
0.1934594
0.1931664
0.1924833
0.1913792
0.1902075
0.1902242
0.192251
0.1875097
0.1886868
0.189754
0.1906539
0.1913305
0.1917315
0.1918016
0.1914835
0.190669
0.1891803
0.1864324
0.1855238
0.1852288
0.1868814
0.1787085
0.1788684
0.1788618
0.1789578
0.1804385
0.174126
0.1743188
0.1742328
0.1739918
0.1737817
0.1745022
0.1710602
0.1712082
0.1711139
0.1707293
0.1701422
0.1693636
0.1705989
0.1690588
0.169211
0.1691261
0.1687771
0.1681073
0.1670493
0.1669042
0.1678782
0.1679393
0.1681201
0.1680925
0.1678107
0.1672418
0.1661968
0.1657964
0.1655576
0.1663912
0.1993573
0.2010113
0.2024976
0.2037428
0.204754
0.206417
0.1977319
0.1993529
0.2008348
0.2020821
0.2030794
0.2039306
0.2057779
0.1962096
0.1977947
0.1992622
0.200513
0.2014746
0.2022055
0.2028765
0.2048782
0.1947372
0.1962777
0.1977166
0.198948
0.1998998
0.2005316
0.2009796
0.2014635
0.2036479
0.1932823
0.1947681
0.1961605
0.1973563
0.1982735
0.1988749
0.1991516
0.1993091
0.1996071
0.2019194
0.1918308
0.1932527
0.1945833
0.1957241
0.196599
0.1971517
0.197381
0.1973027
0.1971772
0.1972953
0.1993401
0.190385
0.1917358
0.1929921
0.1940654
0.1948834
0.1953952
0.1955655
0.1954247
0.1950067
0.1946209
0.1946243
0.197178
0.1889599
0.1902355
0.191411
0.1924094
0.1931667
0.1936294
0.193764
0.1935457
0.1930236
0.1922546
0.1916463
0.1920491
0.1943483
0.1875807
0.1887818
0.1898775
0.1908034
0.1915019
0.1919227
0.1920188
0.1917567
0.1910939
0.1900593
0.1887884
0.1884613
0.1885325
0.1905069
0.1862797
0.1874153
0.1884442
0.1893114
0.1899649
0.1903549
0.1904331
0.190139
0.1893882
0.1879743
0.1854106
0.1844257
0.1838419
0.1837213
0.1853954
0.1780811
0.1782971
0.1782116
0.1780344
0.1779817
0.1791018
0.1736839
0.1739327
0.1739362
0.1736655
0.1732342
0.1726553
0.1742449
0.170689
0.1709133
0.1709033
0.1706393
0.1700692
0.169134
0.1691378
0.1703485
0.1687126
0.1689273
0.1689359
0.1686938
0.168171
0.1671786
0.166844
0.1666797
0.1676305
0.1675795
0.1678156
0.1678615
0.1676863
0.1672418
0.1663725
0.1660062
0.1655904
0.1653326
0.1661437
0.1976346
0.1992214
0.2006627
0.2018728
0.202835
0.2036582
0.2056277
0.1960828
0.1976304
0.1990497
0.2002521
0.2011665
0.2018431
0.2024566
0.2045758
0.1946299
0.1961422
0.1975433
0.1987353
0.1996485
0.2002362
0.2006233
0.2010259
0.2032548
0.1932233
0.1946948
0.1960674
0.1972425
0.1981393
0.198719
0.1989653
0.1990763
0.1993066
0.201618
0.1918308
0.1932527
0.1945833
0.1957241
0.196599
0.1971517
0.197381
0.1973027
0.1971772
0.1972953
0.1993401
0.190439
0.1918027
0.1930766
0.1941681
0.1950036
0.1955328
0.1957252
0.1956194
0.1952624
0.1949684
0.1950811
0.1976617
0.1890498
0.190348
0.1915537
0.1925828
0.1933685
0.1938591
0.1940291
0.1938703
0.1934582
0.1928786
0.192524
0.1931245
0.1955311
0.1876779
0.1889063
0.190037
0.1909968
0.1917255
0.192175
0.1923085
0.1921158
0.1916022
0.190878
0.1901253
0.1901548
0.1905359
0.1927283
0.186348
0.1875067
0.1885627
0.1894548
0.1901291
0.1905378
0.1906408
0.1903993
0.1897918
0.1888043
0.187626
0.1871653
0.1869097
0.1870428
0.1889925
0.1850914
0.1861887
0.187182
0.1880192
0.188651
0.1890315
0.1891145
0.1888482
0.1881452
0.1868314
0.1844139
0.1835249
0.182861
0.182459
0.1824366
0.1839259
0.1774393
0.1776928
0.1776809
0.1774431
0.1771413
0.176795
0.1788282
0.1731885
0.1735006
0.1735716
0.1734039
0.1729611
0.1722012
0.1724236
0.173986
0.1702702
0.1705491
0.1706239
0.1704549
0.1700192
0.1691302
0.1689263
0.1689102
0.1700963
0.1683201
0.1685869
0.1686651
0.1685253
0.1681208
0.1672979
0.1669872
0.166637
0.1664533
0.1673809
0.1671832
0.167461
0.1675685
0.1674745
0.167146
0.1664196
0.1661933
0.1658141
0.1653828
0.1651057
0.1658417
0.1959904
0.1975052
0.1988855
0.2000511
0.2009319
0.2015677
0.2021301
0.2043526
0.1945093
0.1959862
0.1973415
0.198488
0.199358
0.1998976
0.2002116
0.2005029
0.2027526
0.193121
0.1945659
0.1959029
0.1970412
0.1979028
0.198445
0.1986383
0.1986603
0.1987495
0.2010112
0.1917744
0.1931828
0.1944948
0.1956161
0.1964724
0.1970057
0.1972101
0.1970902
0.1968975
0.1969196
0.1989252
0.190439
0.1918027
0.1930766
0.1941681
0.1950036
0.1955328
0.1957252
0.1956194
0.1952624
0.1949684
0.1950811
0.1976617
0.1891016
0.1904121
0.1916345
0.1926809
0.1934828
0.1939897
0.1941796
0.1940527
0.1936941
0.1931989
0.1929482
0.1936326
0.1960694
0.1877643
0.1890144
0.1901737
0.1911628
0.1919183
0.192394
0.1925605
0.1924228
0.1920109
0.1914599
0.1909395
0.191154
0.1917116
0.1939952
0.1864416
0.1876264
0.1887159
0.1896403
0.1903433
0.1907793
0.1909175
0.1907414
0.190274
0.1895771
0.1888811
0.1887425
0.188772
0.1891506
0.1912679
0.1851573
0.1862768
0.1872961
0.188157
0.1888087
0.189207
0.1893135
0.1890974
0.18853
0.18762
0.1865078
0.1861021
0.1857245
0.1855473
0.1857418
0.1874867
0.1839421
0.1850037
0.185964
0.1867733
0.187385
0.187756
0.187844
0.1875994
0.186946
0.1857112
0.183452
0.1826333
0.1820557
0.1815761
0.1812846
0.1811526
0.1836276
0.1767657
0.1770711
0.1771114
0.1769601
0.176614
0.1760572
0.176552
0.1785543
0.1726584
0.1730141
0.1731581
0.1730691
0.1727429
0.1720006
0.1719887
0.1721904
0.1737256
0.1698119
0.1701366
0.1702735
0.1701982
0.1698689
0.169137
0.1689367
0.1687169
0.1686809
0.1698421
0.167894
0.1681997
0.1683364
0.168274
0.1679811
0.1672952
0.1671179
0.1667942
0.1664283
0.1662251
0.1670764
0.166758
0.1670694
0.1672243
0.1671986
0.1669594
0.1663649
0.16625
0.1660125
0.1656203
0.1651734
0.164829
0.1655327
0.1944213
0.1958672
0.1971854
0.1982974
0.1991362
0.1996429
0.1999011
0.2000939
0.2023364
0.1930059
0.1944174
0.1957112
0.1968069
0.1976292
0.1981303
0.1982641
0.198172
0.1980489
0.2001149
0.1916766
0.1930599
0.1943382
0.195425
0.196249
0.1967492
0.1969095
0.1967129
0.1963821
0.1961853
0.1980355
0.190385
0.1917358
0.1929921
0.1940654
0.1948834
0.1953952
0.1955655
0.1954247
0.1950067
0.1946209
0.1946243
0.197178
0.1891016
0.1904121
0.1916345
0.1926809
0.1934828
0.1939897
0.1941796
0.1940527
0.1936941
0.1931989
0.1929482
0.1936326
0.1960694
0.1878142
0.1890758
0.1902511
0.1912566
0.1920275
0.1925184
0.1927036
0.192595
0.1922327
0.191758
0.1913329
0.1916266
0.1922617
0.1945715
0.1865249
0.1877303
0.1888472
0.1897994
0.1905279
0.1909887
0.191158
0.1910337
0.1906613
0.1901261
0.1896441
0.189672
0.1898664
0.190395
0.1925771
0.1852476
0.1863921
0.1874434
0.1883353
0.1890142
0.1894385
0.1895786
0.1894245
0.1889897
0.1883538
0.1876939
0.1875845
0.1874614
0.1875098
0.1878993
0.1897601
0.1840058
0.1850886
0.1860739
0.1869059
0.1875366
0.1879246
0.1880352
0.1878384
0.1873143
0.186463
0.185441
0.1850697
0.1847503
0.1844609
0.184362
0.1844407
0.187181
0.1828291
0.1838574
0.1847869
0.1855703
0.1861632
0.1865251
0.1866167
0.1863927
0.1857799
0.1846221
0.1824931
0.1817623
0.1812466
0.1808502
0.1804866
0.180116
0.1808918
0.1833313
0.1760761
0.1764153
0.1765198
0.1764314
0.1761827
0.1756082
0.1758352
0.1763086
0.17828
0.1720991
0.1724919
0.172688
0.1726814
0.1724449
0.1718416
0.1718031
0.1717749
0.1719559
0.1734637
0.1693257
0.169684
0.1698733
0.169868
0.169642
0.1690353
0.1689552
0.1687417
0.168506
0.1684498
0.1695323
0.1674414
0.1677784
0.1679598
0.1679626
0.1677554
0.1671971
0.167125
0.1669364
0.1665995
0.1662179
0.1659467
0.1667648
0.1663111
0.1666486
0.1668423
0.1668699
0.1667063
0.166215
0.1662039
0.1660791
0.1658303
0.1654249
0.1649179
0.1645458
0.1652975
0.192922
0.1943041
0.195563
0.196626
0.1974201
0.1978928
0.1979851
0.1977988
0.1974566
0.1991111
0.1915667
0.1929183
0.1941558
0.1952026
0.1959903
0.1964543
0.1965647
0.1962735
0.1957413
0.1951515
0.19649
0.1902913
0.1916184
0.1928428
0.1938836
0.1946715
0.1951533
0.1952846
0.195078
0.194537
0.1939437
0.1936776
0.196122
0.1890498
0.190348
0.1915537
0.1925828
0.1933685
0.1938591
0.1940291
0.1938703
0.1934582
0.1928786
0.192524
0.1931245
0.1955311
0.1878142
0.1890758
0.1902511
0.1912566
0.1920275
0.1925184
0.1927036
0.192595
0.1922327
0.191758
0.1913329
0.1916266
0.1922617
0.1945715
0.1865729
0.1877894
0.1889215
0.1898893
0.1906324
0.1911076
0.1912946
0.1911976
0.1908713
0.1904073
0.1900121
0.1901114
0.190379
0.1909755
0.1931733
0.1853279
0.1864922
0.1875697
0.1884881
0.1891913
0.1896393
0.1898089
0.1897039
0.1893589
0.1888749
0.1884147
0.1884569
0.1884813
0.1886701
0.1891812
0.1910721
0.1840931
0.1851999
0.1862159
0.1870775
0.1877343
0.188147
0.1882897
0.1881521
0.1877542
0.1871628
0.1865678
0.1864712
0.1863839
0.1862932
0.1863739
0.1866065
0.1894535
0.1828907
0.1839395
0.184893
0.1856982
0.1863092
0.1866875
0.1868006
0.1866225
0.1861331
0.1853412
0.1843888
0.1840768
0.1837944
0.1835657
0.1833632
0.1831828
0.1841765
0.1868775
0.1817503
0.1827472
0.1836481
0.1844071
0.1849825
0.1853357
0.1854301
0.1852235
0.1846485
0.1835556
0.1815482
0.1808843
0.1804468
0.1801092
0.179829
0.1794044
0.1798787
0.1806326
0.183037
0.175372
0.1757417
0.1758907
0.1758749
0.175698
0.1752401
0.1754022
0.1756129
0.1760647
0.1780054
0.1715207
0.1719396
0.1721805
0.1722341
0.1720892
0.1715939
0.1716562
0.1716043
0.1715598
0.1717199
0.1731449
0.1688179
0.1692029
0.1694319
0.169486
0.1693382
0.1688506
0.1688635
0.168772
0.1685452
0.1682934
0.1681681
0.1692151
0.1669692
0.1673303
0.1675482
0.1676018
0.1674671
0.1670082
0.1670354
0.1669534
0.1667534
0.1664033
0.1659612
0.165662
0.1665276
0.1658475
0.1662058
0.1664302
0.1665021
0.1663984
0.1659949
0.1660616
0.1660415
0.1659067
0.1656465
0.1651865
0.1646567
0.1643305
0.1651378
0.1914865
0.1928102
0.1940147
0.1950308
0.1957922
0.1962316
0.1963068
0.1959409
0.1952057
0.1940454
0.1935593
0.190186
0.191483
0.1926688
0.1936718
0.1944258
0.1948747
0.1949623
0.194673
0.1939549
0.1929942
0.1921234
0.1942423
0.1889599
0.1902355
0.191411
0.1924094
0.1931667
0.1936294
0.193764
0.1935457
0.1930236
0.1922546
0.1916463
0.1920491
0.1943483
0.1877643
0.1890144
0.1901737
0.1911628
0.1919183
0.192394
0.1925605
0.1924228
0.1920109
0.1914599
0.1909395
0.191154
0.1917116
0.1939952
0.1865729
0.1877894
0.1889215
0.1898893
0.1906324
0.1911076
0.1912946
0.1911976
0.1908713
0.1904073
0.1900121
0.1901114
0.190379
0.1909755
0.1931733
0.1853742
0.1865491
0.1876411
0.1885745
0.1892916
0.1897533
0.1899397
0.1898605
0.1895591
0.1891416
0.1887624
0.1888689
0.1889587
0.1892119
0.1897788
0.1916698
0.1841706
0.1852964
0.1863376
0.1872246
0.1879046
0.1883399
0.1885108
0.1884199
0.1881073
0.1876597
0.1872524
0.1872958
0.1873422
0.1873758
0.1875712
0.1878967
0.1907657
0.182975
0.184047
0.1850299
0.1858635
0.1864996
0.1869016
0.1870454
0.1869239
0.1865551
0.1860106
0.1854631
0.1854083
0.1853392
0.1852899
0.1852432
0.1852064
0.1863436
0.1891485
0.18181
0.1828265
0.1837506
0.1845305
0.1851233
0.1854922
0.1856074
0.1854447
0.1849881
0.184245
0.1833603
0.1830901
0.1828673
0.1826773
0.1825377
0.1822732
0.1829434
0.183914
0.1865759
0.1807031
0.1816711
0.1825447
0.1832812
0.1838399
0.1841849
0.1842815
0.1840903
0.1835481
0.182515
0.1806125
0.1800117
0.1796321
0.1793682
0.1791461
0.178816
0.1791847
0.1796429
0.180375
0.1827446
0.1746616
0.1750519
0.1752407
0.175277
0.1751795
0.1748087
0.1750471
0.1751959
0.1753902
0.1758205
0.1776727
0.1709281
0.1713677
0.1716416
0.1717471
0.1716704
0.171282
0.1714189
0.1714697
0.1714043
0.1713434
0.1714326
0.1728185
0.1682947
0.1686999
0.168961
0.169061
0.1689799
0.1685844
0.1686876
0.1686904
0.1685874
0.1683472
0.1680342
0.1678799
0.1689736
0.1664822
0.1668622
0.1671089
0.1672046
0.1671272
0.1667531
0.1668542
0.1668725
0.1667803
0.1665689
0.166164
0.1656987
0.1654454
0.1663664
0.1653714
0.165746
0.1659954
0.1661031
0.1660495
0.1657169
0.1658482
0.1659068
0.1658778
0.1657329
0.1654223
0.1649429
0.1644582
0.1641844
0.1650561
0.1840674
0.1901091
0.1913797
0.1925342
0.1935082
0.1942377
0.194664
0.1947211
0.1943654
0.1934703
0.1919796
0.1893915
0.1907926
0.1888588
0.1901058
0.1912446
0.1922072
0.1929327
0.1933648
0.1934594
0.1931664
0.1924833
0.1913792
0.1902075
0.1902242
0.192251
0.1876779
0.1889063
0.190037
0.1909968
0.1917255
0.192175
0.1923085
0.1921158
0.1916022
0.190878
0.1901253
0.1901548
0.1905359
0.1927283
0.1865249
0.1877303
0.1888472
0.1897994
0.1905279
0.1909887
0.191158
0.1910337
0.1906613
0.1901261
0.1896441
0.189672
0.1898664
0.190395
0.1925771
0.1853742
0.1865491
0.1876411
0.1885745
0.1892916
0.1897533
0.1899397
0.1898605
0.1895591
0.1891416
0.1887624
0.1888689
0.1889587
0.1892119
0.1897788
0.1916698
0.1842154
0.1853513
0.1864064
0.1873077
0.188001
0.1884494
0.1886363
0.1885701
0.1882987
0.1879141
0.1875825
0.1876852
0.1877906
0.1878812
0.18813
0.1884984
0.1913635
0.18305
0.1841402
0.1851473
0.1860053
0.1866636
0.1870872
0.1872581
0.1871812
0.1868937
0.1864858
0.1861158
0.1861917
0.1862454
0.1863081
0.1863615
0.186414
0.1876352
0.1904605
0.1818916
0.1829305
0.1838829
0.1846901
0.1853069
0.1856986
0.1858433
0.1857349
0.1853936
0.1848868
0.1843876
0.1843595
0.1843351
0.1843081
0.1843076
0.1841659
0.184969
0.186082
0.1888451
0.1807609
0.1817479
0.1826439
0.1834005
0.1839759
0.184336
0.1844525
0.1843037
0.183875
0.1831771
0.1823486
0.1821201
0.1819389
0.1818081
0.1817082
0.1815184
0.182052
0.1827055
0.1836532
0.1862764
0.1796866
0.1806263
0.1814751
0.1821899
0.1827332
0.1830701
0.1831684
0.182991
0.1824783
0.1814978
0.1796909
0.1791414
0.1788159
0.1786056
0.1784552
0.1781912
0.1786103
0.1789664
0.1794085
0.1801189
0.1823931
0.1739477
0.1743546
0.1745725
0.1746549
0.1746152
0.1743365
0.1746267
0.1748538
0.1749893
0.1751671
0.1755244
0.1773319
0.1703268
0.1707812
0.1710819
0.1712267
0.1712088
0.1709017
0.1711159
0.1712428
0.171282
0.1712031
0.1710799
0.1711387
0.17257
0.1677605
0.1681811
0.1684673
0.1686052
0.1685763
0.1682598
0.1684291
0.1685233
0.1685159
0.1684014
0.1681058
0.1677691
0.1676606
0.1688095
0.1659842
0.166379
0.166649
0.1667786
0.166749
0.1664434
0.166606
0.1666989
0.1667081
0.1666059
0.1663439
0.1659193
0.1654992
0.1652984
0.166284
0.1648856
0.1652733
0.1655431
0.1656804
0.1656679
0.1653953
0.1655764
0.1657003
0.1657507
0.1657127
0.1655208
0.1651932
0.1647577
0.1643236
0.1641098
0.1782478
0.1811437
0.1834706
0.188785
0.1900068
0.1911158
0.192051
0.1927533
0.1931645
0.193231
0.1928783
0.1920317
0.1904421
0.1876782
0.1870565
0.1886415
0.1875807
0.1887818
0.1898775
0.1908034
0.1915019
0.1919227
0.1920188
0.1917567
0.1910939
0.1900593
0.1887884
0.1884613
0.1885325
0.1905069
0.1864416
0.1876264
0.1887159
0.1896403
0.1903433
0.1907793
0.1909175
0.1907414
0.190274
0.1895771
0.1888811
0.1887425
0.188772
0.1891506
0.1912679
0.1853279
0.1864922
0.1875697
0.1884881
0.1891913
0.1896393
0.1898089
0.1897039
0.1893589
0.1888749
0.1884147
0.1884569
0.1884813
0.1886701
0.1891812
0.1910721
0.1842154
0.1853513
0.1864064
0.1873077
0.188001
0.1884494
0.1886363
0.1885701
0.1882987
0.1879141
0.1875825
0.1876852
0.1877906
0.1878812
0.18813
0.1884984
0.1913635
0.1830933
0.1841932
0.1852137
0.1860854
0.1867564
0.1871926
0.1873787
0.1873255
0.1870772
0.1867291
0.1864306
0.1865615
0.1866692
0.186783
0.1868833
0.1869779
0.1882376
0.1910583
0.1819643
0.1830206
0.1839963
0.184827
0.1854651
0.1858775
0.1860481
0.1859825
0.1857189
0.1853425
0.1850118
0.1851065
0.1851961
0.1852711
0.1853599
0.185295
0.1861784
0.1873748
0.1901565
0.1808401
0.1818485
0.1827718
0.1835548
0.1841532
0.1845352
0.1846801
0.1845834
0.1842654
0.1837938
0.1833332
0.1833339
0.1833383
0.1833578
0.1833826
0.183301
0.1839469
0.1847328
0.1858217
0.1885432
0.1797426
0.1807008
0.1815711
0.1823054
0.1828648
0.1832161
0.1833337
0.1831969
0.1827936
0.1821349
0.1813577
0.1811614
0.181021
0.1809311
0.1808897
0.1807481
0.1813115
0.1818322
0.1824693
0.183394
0.1859165
0.1786975
0.179612
0.1804364
0.1811315
0.1816598
0.1819892
0.1820887
0.1819236
0.1814376
0.1805047
0.178783
0.1782795
0.1779968
0.1778359
0.1777368
0.1775504
0.1779973
0.1784059
0.1787494
0.1791757
0.1798109
0.1820332
0.1732345
0.1736528
0.1738948
0.1740119
0.1740232
0.173813
0.1741639
0.1744443
0.1746601
0.1747823
0.1748967
0.1752214
0.1770724
0.1697201
0.1701853
0.1705064
0.1706839
0.1707114
0.1704748
0.1707436
0.1709488
0.1710656
0.1710932
0.1709581
0.1708105
0.1709151
0.172401
0.1672185
0.1676509
0.1679572
0.1681252
0.1681401
0.1678868
0.1681114
0.1682726
0.1683577
0.1683401
0.1681746
0.1678589
0.1675676
0.1675118
0.1687255
0.1654781
0.1658846
0.1661735
0.1663309
0.1663406
0.1660927
0.1663024
0.1664576
0.1665424
0.1665425
0.1663931
0.1661139
0.1657333
0.1653639
0.1652232
0.1643928
0.1647908
0.1650774
0.1652393
0.1652612
0.1650389
0.1652605
0.1654347
0.1655512
0.1655934
0.1655112
0.1653041
0.1650191
0.1646323
0.1642548
0.1742244
0.1760062
0.1779588
0.1800401
0.1806307
0.1825814
0.1875097
0.1886868
0.189754
0.1906539
0.1913305
0.1917315
0.1918016
0.1914835
0.190669
0.1891803
0.1864324
0.1855238
0.1852288
0.1868814
0.186348
0.1875067
0.1885627
0.1894548
0.1901291
0.1905378
0.1906408
0.1903993
0.1897918
0.1888043
0.187626
0.1871653
0.1869097
0.1870428
0.1889925
0.1852476
0.1863921
0.1874434
0.1883353
0.1890142
0.1894385
0.1895786
0.1894245
0.1889897
0.1883538
0.1876939
0.1875845
0.1874614
0.1875098
0.1878993
0.1897601
0.1841706
0.1852964
0.1863376
0.1872246
0.1879046
0.1883399
0.1885108
0.1884199
0.1881073
0.1876597
0.1872524
0.1872958
0.1873422
0.1873758
0.1875712
0.1878967
0.1907657
0.1830933
0.1841932
0.1852137
0.1860854
0.1867564
0.1871926
0.1873787
0.1873255
0.1870772
0.1867291
0.1864306
0.1865615
0.1866692
0.186783
0.1868833
0.1869779
0.1882376
0.1910583
0.1820061
0.1830719
0.1840604
0.1849042
0.1855546
0.185979
0.1861643
0.1861213
0.1858953
0.1855757
0.1853128
0.1854591
0.1855988
0.1857203
0.1858506
0.1858222
0.1867433
0.1879777
0.190754
0.1809104
0.1819358
0.1828815
0.183687
0.184306
0.1847079
0.1848777
0.1848221
0.1845786
0.1842315
0.1839316
0.1840482
0.1841592
0.1842729
0.1843781
0.1843641
0.185078
0.1859439
0.1871153
0.1898536
0.1798194
0.1807983
0.181695
0.1824546
0.1830362
0.1834087
0.1835535
0.183467
0.18317
0.1827283
0.1823033
0.1823246
0.1823589
0.1824085
0.182481
0.1824349
0.1830964
0.183729
0.1844979
0.1855627
0.1881798
0.1787519
0.1796843
0.1805294
0.1812434
0.1817872
0.1821306
0.1822485
0.1821227
0.1817419
0.1811187
0.1803862
0.1802188
0.1801094
0.1800589
0.1800574
0.1799803
0.1805532
0.181106
0.181614
0.1822347
0.1830825
0.1855479
0.1777363
0.1786251
0.1794278
0.1801034
0.1806182
0.18094
0.1810406
0.1808864
0.1804246
0.1795349
0.1778908
0.1774264
0.1771814
0.1770588
0.1770067
0.1768761
0.1773666
0.1778047
0.1782028
0.1785338
0.1788956
0.1794957
0.1817591
0.172524
0.1729506
0.173211
0.1733571
0.1734073
0.1732575
0.1736487
0.173991
0.1742616
0.1744662
0.1745315
0.1746201
0.1749909
0.1768959
0.1691107
0.1695837
0.1699209
0.170124
0.1701895
0.1700088
0.1703239
0.1705846
0.1707807
0.1708873
0.1708634
0.1707077
0.1706056
0.1707632
0.1723145
0.1666714
0.1671128
0.167435
0.1676278
0.1676782
0.1674784
0.1677447
0.1679619
0.1681148
0.1681908
0.1681258
0.1679428
0.1676714
0.1674309
0.1674357
0.1649662
0.1653818
0.1656861
0.1658667
0.1659091
0.1657096
0.1659575
0.1661603
0.1663079
0.1663845
0.1663404
0.1661757
0.1659392
0.1656073
0.1652949
0.1638947
0.164301
0.1646014
0.164784
0.164835
0.1646555
0.1649092
0.1651245
0.1652918
0.1654008
0.1654014
0.1653054
0.1651396
0.1649012
0.1645683
0.1716163
0.1724252
0.1739986
0.175275
0.1757506
0.1774208
0.1793069
0.1795685
0.1798607
0.1815472
0.1862797
0.1874153
0.1884442
0.1893114
0.1899649
0.1903549
0.1904331
0.190139
0.1893882
0.1879743
0.1854106
0.1844257
0.1838419
0.1837213
0.1853954
0.1851573
0.1862768
0.1872961
0.188157
0.1888087
0.189207
0.1893135
0.1890974
0.18853
0.18762
0.1865078
0.1861021
0.1857245
0.1855473
0.1857418
0.1874867
0.1840931
0.1851999
0.1862159
0.1870775
0.1877343
0.188147
0.1882897
0.1881521
0.1877542
0.1871628
0.1865678
0.1864712
0.1863839
0.1862932
0.1863739
0.1866065
0.1894535
0.18305
0.1841402
0.1851473
0.1860053
0.1866636
0.1870872
0.1872581
0.1871812
0.1868937
0.1864858
0.1861158
0.1861917
0.1862454
0.1863081
0.1863615
0.186414
0.1876352
0.1904605
0.1820061
0.1830719
0.1840604
0.1849042
0.1855546
0.185979
0.1861643
0.1861213
0.1858953
0.1855757
0.1853128
0.1854591
0.1855988
0.1857203
0.1858506
0.1858222
0.1867433
0.1879777
0.190754
0.180951
0.1819855
0.1829435
0.1837617
0.1843924
0.1848059
0.1849897
0.1849559
0.1847484
0.1844556
0.1842201
0.1843854
0.1845433
0.1846997
0.1848423
0.1848601
0.1856061
0.1865095
0.1877187
0.1904507
0.1798877
0.1808829
0.1818012
0.1825825
0.1831839
0.1835755
0.1837444
0.1836974
0.1834719
0.1831497
0.1828781
0.1830093
0.183144
0.1832811
0.1834271
0.1834408
0.1841614
0.1848618
0.1857103
0.1868569
0.1894885
0.1788265
0.1797789
0.1806495
0.1813879
0.1819531
0.1823169
0.1824612
0.1823838
0.1821053
0.1816907
0.1812959
0.1813358
0.1813916
0.1814715
0.1815746
0.1815836
0.1822422
0.1828929
0.1835123
0.1842642
0.185251
0.1878076
0.1777892
0.1786953
0.1795181
0.1802118
0.1807416
0.1810769
0.1811953
0.1810791
0.1807188
0.1801274
0.1794351
0.1792915
0.1792097
0.1791887
0.1792251
0.1791926
0.1797957
0.1803596
0.180902
0.1813972
0.1819527
0.1827636
0.1852671
0.1767988
0.177666
0.1784462
0.1791048
0.1796058
0.179921
0.1800219
0.1798779
0.179438
0.1785879
0.1770144
0.1765846
0.1763711
0.1762818
0.1762653
0.1761854
0.1767013
0.1771841
0.1776133
0.1780011
0.1782746
0.1786092
0.1792559
0.1815728
0.1718182
0.1722504
0.1725254
0.1726943
0.1727773
0.1726746
0.1731007
0.1734842
0.1738178
0.1740787
0.1742311
0.174275
0.1744098
0.1748343
0.1768055
0.1685007
0.1689791
0.1693288
0.1695527
0.1696489
0.1695156
0.1698643
0.1701719
0.1704245
0.1706116
0.1706703
0.1706284
0.1705173
0.1704666
0.1706856
0.1661212
0.1665691
0.1669043
0.1671175
0.1671974
0.1670421
0.1673421
0.1676015
0.1678112
0.1679559
0.1679874
0.1679068
0.1677667
0.1675442
0.1673611
0.1644503
0.164873
0.1651899
0.1653899
0.1654599
0.1653015
0.1655795
0.165821
0.1660169
0.1661571
0.1661919
0.166134
0.1660106
0.1658208
0.165543
0.1633932
0.1638058
0.1641177
0.1643178
0.1643936
0.1642508
0.1645306
0.1647784
0.1649873
0.1651478
0.1652173
0.1652053
0.1651492
0.1650282
0.1648411
0.1703257
0.1700934
0.1714072
0.17195
0.1722214
0.1735545
0.1748585
0.1750404
0.1752728
0.1766753
0.1787085
0.1788684
0.1788618
0.1789578
0.1804385
0.1850914
0.1861887
0.187182
0.1880192
0.188651
0.1890315
0.1891145
0.1888482
0.1881452
0.1868314
0.1844139
0.1835249
0.182861
0.182459
0.1824366
0.1839259
0.1840058
0.1850886
0.1860739
0.1869059
0.1875366
0.1879246
0.1880352
0.1878384
0.1873143
0.186463
0.185441
0.1850697
0.1847503
0.1844609
0.184362
0.1844407
0.187181
0.182975
0.184047
0.1850299
0.1858635
0.1864996
0.1869016
0.1870454
0.1869239
0.1865551
0.1860106
0.1854631
0.1854083
0.1853392
0.1852899
0.1852432
0.1852064
0.1863436
0.1891485
0.1819643
0.1830206
0.1839963
0.184827
0.1854651
0.1858775
0.1860481
0.1859825
0.1857189
0.1853425
0.1850118
0.1851065
0.1851961
0.1852711
0.1853599
0.185295
0.1861784
0.1873748
0.1901565
0.180951
0.1819855
0.1829435
0.1837617
0.1843924
0.1848059
0.1849897
0.1849559
0.1847484
0.1844556
0.1842201
0.1843854
0.1845433
0.1846997
0.1848423
0.1848601
0.1856061
0.1865095
0.1877187
0.1904507
0.179927
0.180931
0.1818613
0.1826548
0.1832675
0.1836702
0.1838526
0.1838265
0.1836356
0.1833653
0.1831553
0.1833326
0.1835112
0.1836881
0.1838683
0.1839102
0.1846584
0.1853908
0.1862766
0.1874606
0.1900849
0.1788927
0.179861
0.1807525
0.1815118
0.1820961
0.1824783
0.1826457