/*--------------------------------*- C++ -*----------------------------------*\
| =========                 |                                                 |
| \\      /  F ield         | OpenFOAM: The Open Source CFD Toolbox           |
|  \\    /   O peration     | Version:  2306                                  |
|   \\  /    A nd           | Website:  www.openfoam.com                      |
|    \\/     M anipulation  |                                                 |
\*---------------------------------------------------------------------------*/
FoamFile
{
    version     2.0;
    format      ascii;
    arch        "LSB;label=32;scalar=64";
    class       volVectorField;
    location    "0.9/phiEC";
    object      i;
}
// * * * * * * * * * * * * * * * * * * * * * * * * * * * * * * * * * * * * * //

dimensions      [0 -2 0 0 0 1 0];

internalField   nonuniform List<vector> 
20000
(
(38.02146 84.09567 18222.11)
(37.61249 245.9262 18041.12)
(91.21272 80.00597 17448.93)
(116.6143 277.8939 18977.02)
(36.82503 388.2556 17691.02)
(90.27113 233.9619 17276.78)
(115.2541 816.2616 18748.11)
(106.3181 74.67976 16371.41)
(278.928 264.2915 18149.7)
(203.4847 541.9165 20680.66)
(35.72239 497.1998 17197.46)
(88.45851 369.3546 16943.81)
(112.6164 1299.063 18294.75)
(105.2795 218.384 16210.74)
(275.8035 776.2828 17932.15)
(200.8036 1610.46 20385.52)
(100.6864 69.61988 15297.65)
(323.9384 246.6496 17013.92)
(483.8331 515.1052 19733.01)
(306.1445 868.1703 23602.76)
(34.40282 559.2907 16602.43)
(85.92113 472.9777 16474.42)
(108.8848 1679.981 17632.26)
(103.2806 344.7555 15899.99)
(269.747 1235.371 17501.34)
(195.5079 2619.956 19766.77)
(99.73972 203.5869 15147.88)
(320.5017 724.4522 16810.97)
(477.6984 1530.691 19452.79)
(301.8 2644.039 23354.69)
(88.82013 65.2128 14337.5)
(306.0954 229.9246 15892.2)
(557.8194 480.5698 18467.64)
(721.5313 824.7253 22449.89)
(434.0584 1038.049 27563.24)
(32.99619 564.6537 15964.88)
(82.88533 532.0286 15908.57)
(104.3696 1905.874 16800.27)
(100.4835 441.468 15461.94)
(261.1825 1597.513 16871.87)
(187.8002 3486.16 18775.44)
(97.91795 321.3938 14858.19)
(313.8425 1152.853 16409.1)
(465.589 2489.921 18865.43)
(292.8847 4519.216 22765.14)
(88.00159 190.6994 14197.21)
(302.9674 675.3243 15703.03)
(551.103 1428.019 18206.38)
(711.6317 2511.441 22214.56)
(428.8304 3285.69 27735.4)
(77.0199 61.43445 13504.89)
(269.7319 215.3695 14893.56)
(524.7573 447.9407 17238.46)
(822.8483 769.1748 20964.97)
(1011.39 985.7698 26121.38)
(554.4011 652.402 30433.99)
(31.64996 511.1206 15354.78)
(79.64975 537.1251 15302.29)
(99.52047 1930.647 15881.56)
(97.13789 496.5769 14933.88)
(250.8244 1812.231 16081.47)
(178.1637 4060.685 17373.77)
(95.36904 411.5501 14449.85)
(304.431 1490.754 15821.96)
(447.9802 3312.718 17924.63)
(279.0475 6465.989 21594.07)
(86.4265 301.0487 13925.86)
(296.9075 1074.664 15328.46)
(537.8551 2322.774 17658.8)
(691.341 4291.69 21655.47)
(417.4417 6141.19 28133.98)
(76.31582 179.6506 13372.73)
(267.0288 632.5733 14716.38)
(518.6586 1331.048 16994.98)
(812.0639 2342.137 20745.66)
(999.5056 3119.523 26284.48)
(551.1951 1948.333 30938.99)
(67.05792 58.17194 12783.39)
(233.8025 202.8939 14029.1)
(461.4387 419.5832 16153)
(769.0241 716.8814 19552.89)
(1137.22 919.1999 24336.65)
(1277.985 620.3421 28758.84)
(641.6878 404.4974 31610.5)
(30.50482 405.2401 14837.44)
(76.55306 486.2069 14722.12)
(94.88143 1743.747 15009.04)
(93.57279 501.331 14368.11)
(239.7029 1835.765 15208.75)
(167.5587 4147.125 15640.41)
(92.32091 462.922 13957.6)
(293.0545 1691.078 15084.77)
(425.9856 3858.27 16594.75)
(260.1724 8175.936 19305.12)
(84.22288 385.4976 13543.37)
(288.3453 1389.633 14781.23)
(518.6115 3090.126 16781.84)
(659.9033 6138.866 20545.4)
(397.5358 10406.21 28926.21)
(74.96099 283.6068 13117.1)
(261.7926 1006.632 14365.52)
(506.6337 2165.006 16484.69)
(789.9905 4001.932 20224.72)
(973.6735 5828.244 26662.34)
(544.7702 3138.495 32110.4)
(66.44615 170.1103 12658.24)
(231.4778 595.9311 13862.18)
(456.1733 1246.784 15924.93)
(759.2565 2182.863 19348.52)
(1124.31 2908.519 24488.54)
(1270.629 1852.024 29236.98)
(639.8201 1163.494 32056.12)
(59.03019 55.31672 12151.88)
(203.5435 192.1218 13280.37)
(399.6574 395.287 15216.39)
(674.1454 671.4987 18318.74)
(1054.004 856.6697 22677.65)
(1418.001 578.8393 26747.48)
(1468.906 385.8207 29800.47)
(735.4037 206.7783 32359.48)
(29.67552 259.5013 14464.19)
(73.91854 385.4957 14230.14)
(90.95494 1375.944 14285.41)
(90.16066 453.8084 13826.7)
(229.0624 1658.092 14379.86)
(157.486 3703.414 14092.85)
(89.07307 467.3529 13430.21)
(280.8434 1713.027 14270.84)
(401.794 3940.348 14950.5)
(237.5027 8492.478 14683.7)
(81.58783 433.6172 13082.28)
(277.9982 1576.356 14094.15)
(494.6012 3598.823 15542.37)
(617.103 7760.489 18376.46)
(363.8959 17881.43 30603.44)
(73.06556 363.1633 12756.76)
(254.3948 1301.661 13852.93)
(489.1756 2880.179 15667.48)
(755.8611 5723.609 19190.61)
(928.673 9870.753 27413.85)
(535.5225 3746.862 34359.22)
(65.26895 268.5462 12416.19)
(226.9745 948.3237 13531.63)
(445.7928 2027.944 15446.95)
(739.2777 3729.663 18863.13)
(1096.324 5432.864 24840.58)
(1255.935 2981.769 30346.62)
(636.2624 1720.06 32977.2)
(58.49141 161.7609 12032.88)
(201.5235 564.2926 13122.31)
(395.13 1174.59 15001.52)
(665.7204 2044.673 18127.31)
(1042.328 2710.563 22819.14)
(1409.926 1727.84 27192.64)
(1464.515 1109.24 30221.23)
(734.6846 581.6269 32716.14)
(52.58538 52.78418 11592.32)
(179.1824 182.6942 12625.03)
(347.873 374.3095 14405.9)
(583.2218 632.6315 17258.11)
(920.3939 802.4484 21243.27)
(1304.275 539.5987 24908.98)
(1615.799 360.5879 27680.13)
(1671.022 199.5869 30424.45)
(835.1907 47.83915 32771.16)
(29.24099 89.24402 14269.15)
(72.01028 246.863 13875.17)
(88.1281 877.0835 13774.87)
(87.25727 359.8123 13367.58)
(220.0535 1308.411 13692.34)
(149.1189 2873.577 12904.81)
(85.96456 423.0517 12925.52)
(269.1592 1547.253 13497.76)
(378.8083 3519.017 13482.19)
(217.0138 7214.963 11763.02)
(78.78023 437.7675 12588.28)
(266.8936 1596.811 13335.56)
(468.2103 3675.352 14010.06)
(565.7744 8060.892 13998.53)
(304.5932 19231.32 6951.493)
(70.79907 408.4954 12322.38)
(245.4559 1476.562 13209.35)
(467.4048 3354.259 14512.51)
(709.5028 7234.646 17170.47)
(852.9148 16952 29005.2)
(525.8398 1904.298 38536.71)
(63.62204 343.8784 12074.98)
(220.6124 1226.266 13048.72)
(430.725 2697.836 14681.48)
(708.4173 5333.989 17899.64)
(1047.763 9198.625 25540.95)
(1234.884 3557.558 32477.88)
(631.6655 1760.12 34375.67)
(57.45468 255.3657 11802.7)
(197.6106 897.9782 12809.3)
(386.2048 1910.524 14551.19)
(648.4921 3493.54 17672.64)
(1017.051 5062.767 23147.1)
(1393.86 2781.054 28226)
(1456.201 1638.514 31091.71)
(733.3198 818.9473 33385.48)
(52.10487 154.3552 11478.77)
(177.4033 536.6027 12474.71)
(343.9392 1112.258 14202.43)
(575.9795 1926.33 17077.74)
(910.329 2538.992 21375.77)
(1296.94 1610.617 25323.61)
(1610.852 1036.436 28071.31)
(1669.11 560.7873 30758.9)
(835.5441 137.4969 33083.05)
(47.34479 50.51154 11090.81)
(159.6301 174.3317 12044.23)
(306.2582 355.9489 13696.45)
(507.5309 599.0749 16341.29)
(795.1465 756.021 20015.54)
(1135.024 505.486 23331.62)
(1479.014 336.3461 25766.66)
(1821.382 187.6539 28219.52)
(1882.903 51.37375 30716.69)
(940.8509 -105.1148 32891.49)
(29.24099 -89.24402 14269.15)
(71.01027 84.89876 13689.68)
(86.65338 300.8288 13512.18)
(85.15381 230.4187 13036.31)
(213.5655 834.0679 13207.22)
(143.2049 1805.964 12116.81)
(83.3193 335.4272 12497.54)
(259.2632 1220.975 12856.5)
(359.7009 2730.767 12354.7)
(200.9769 5328.024 9946.005)
(76.09306 396.2707 12115.54)
(256.2677 1442.289 12615.04)
(443.1242 3282.483 12641.56)
(519.3215 6849.705 11230.44)
(264.0024 13178.81 5039.805)
(68.3842 412.4052 11856.99)
(235.8631 1495.722 12498.79)
(443.4831 3425.577 13084.7)
(654.0044 7514.663 13093.41)
(719.8534 18232.39 6616.04)
(61.65271 386.8036 11663.66)
(212.9251 1391.038 12442.4)
(411.9388 3141.899 13599.64)
(666.5452 6741.921 16017.57)
(966.3788 15793.23 27024.14)
(1212.95 1807.471 36437.83)
(627.7655 799.0558 35948.72)
(56.00426 327.0009 11478.24)
(192.0827 1161.167 12352.01)
(373.2501 2541.638 13830)
(621.89 4996.284 16770.14)
(973.2694 8571.297 23799.68)
(1370.963 3317.011 30211.25)
(1445.541 1675.15 32414.83)
(731.6061 775.3503 34237.14)
(51.18023 243.6747 11259.13)
(173.9572 853.9157 12177.06)
(336.1841 1809.145 13775.97)
(561.1705 3291.359 16649.35)
(888.548 4742.274 21682.92)
(1282.369 2592.13 26286.23)
(1601.543 1530.32 28881)
(1665.556 788.163 31387.41)
(836.0699 199.0601 33631.41)
(46.91164 147.7094 10982.14)
(158.0433 512.0409 11900.8)
(302.7934 1057.701 13502.95)
(501.238 1824.159 16170.48)
(786.4954 2392.104 20140.36)
(1128.689 1508.776 23719.93)
(1474.469 966.6706 26130.82)
(1818.967 526.9672 28529.39)
(1883.19 146.2891 31005.24)
(942.4658 -278.6266 33234.28)
(43.00512 48.45263 10636.95)
(143.731 166.8269 11523.58)
(272.8755 339.6613 13067.49)
(446.8641 569.7022 15538.68)
(691.7596 715.9368 18955.37)
(979.3877 476.2504 21985.26)
(1284.309 315.1439 24134.12)
(1658.876 175.4309 26257.35)
(2032.51 50.71726 28446.61)
(2103.477 -88.9653 30722.53)
(1052.087 -294.9479 32690.72)
(29.67552 -259.5013 14464.19)
(71.01027 -84.89876 13689.68)
(86.65338 -300.8288 13512.18)
(84.05132 79.24394 12863.2)
(210.1799 286.0816 12957.6)
(140.1581 614.6142 11726.66)
(81.40265 214.8035 12188.73)
(252.1334 778.3473 12403.99)
(346.1856 1716.356 11606.7)
(190.1504 3233.378 8887.784)
(73.80629 314.1932 11714.65)
(247.2665 1138.152 12017.37)
(422.2526 2547.349 11590.57)
(482.901 5059.39 9507.626)
(236.7946 8624.048 3969.567)
(66.07292 373.3123 11411.64)
(226.6836 1350.982 11823.88)
(420.7394 3059.439 11809.49)
(603.6986 6386.229 10514.95)
(628.4222 12500.83 4804.863)
(59.55446 390.5059 11222.98)
(204.6756 1409.088 11772.97)
(391.2991 3208.699 12262.23)
(616.4592 7002.851 12219.29)
(824.0586 16986.4 6181.098)
(54.2699 367.8196 11087.1)
(185.4033 1317.194 11777.85)
(357.0993 2959.999 12810.74)
(585.8103 6315.065 15007.23)
(900.0527 14714.96 25181.75)
(1347.238 1684.957 33900.29)
(1436.568 760.0554 33904.53)
(730.2583 331.2516 34954.21)
(49.88664 312.0307 10949.51)
(169.0886 1104.193 11742.19)
(324.9279 2406.781 13093.01)
(538.3063 4707.17 15799.02)
(850.8482 8028.643 22294.14)
(1261.652 3091.341 28135.75)
(1589.71 1563.796 30112.42)
(1661.209 744.7361 32188.63)
(836.5171 191.3889 34253.69)
(46.07814 233.1834 10771.95)
(154.9696 814.8306 11616.76)
(295.9628 1720.411 13097.39)
(488.3704 3116.808 15764.78)
(767.7761 4467.959 20429.72)
(1116.114 2428.176 24621.49)
(1465.941 1427.09 26884.73)
(1814.558 739.9434 29112.11)
(1883.537 208.7894 31513.16)
(945.1454 -351.6902 33824.61)
(42.61126 141.6886 10532.71)
(142.3006 489.9986 11386.31)
(269.7849 1009.304 12882.84)
(441.3209 1734.725 15376.23)
(684.2422 2265.288 19073.57)
(973.9393 1421.514 22351.09)
(1280.368 905.7112 24475.12)
(1656.56 492.5416 26545.44)
(2032.198 143.8415 28712.16)
(2106.199 -235.6817 31034.37)
(1055.535 -795.6279 33159.95)
(39.34511 46.57298 10222.96)
(130.5636 160.0278 11052.31)
(245.7294 325.0432 12503.44)
(398.2338 543.6431 14826.78)
(609.1613 680.8477 18027.07)
(851.8594 451.0017 20823.39)
(1107.383 296.9338 22743.31)
(1437.358 164.4924 24593.22)
(1841.644 48.25375 26456.98)
(2247.354 -77.891 28405.36)
(2331.516 -260.4678 30418.01)
(1168.122 -574.3417 32043.45)
(30.50482 -405.2401 14837.44)
(72.01028 -246.863 13875.17)
(88.1281 -877.0835 13774.87)
(84.05132 -79.24394 12863.2)
(210.1799 -286.0816 12957.6)
(140.1581 -614.6142 11726.66)
(80.39798 73.87385 12027.36)
(248.4118 266.973 12171.14)
(339.219 584.1458 11236.3)
(184.7256 1081.132 8400.142)
(72.14932 201.2055 11425.39)
(240.7801 725.554 11595.61)
(407.4768 1601.146 10893.25)
(458.2781 3070.865 8503.93)
(219.9757 4897.69 3391.794)
(64.106 295.9898 11033.97)
(218.9072 1066.099 11264.05)
(401.8089 2374.293 10830.12)
(564.1787 4717.591 8909.827)
(566.9365 8183.781 3790.479)
(57.54621 353.4887 10801.27)
(196.7815 1272.73 11137.13)
(371.6743 2865.741 11067.77)
(571.0256 5951.448 9816.998)
(725.8119 11649.65 4494.302)
(52.42199 371.3403 10668.04)
(178.2355 1334.287 11143.93)
(339.3556 3022.932 11550.68)
(542.6659 6559.467 11449.45)
(772.2749 15826.72 5765.769)
(48.33979 350.9809 10576.28)
(163.2058 1252.565 11196.19)
(310.8946 2802.953 12127.77)
(507.2994 5949.68 14138.01)
(787.8511 13783.29 23588.67)
(1240.243 1570.23 31572.81)
(1579.834 709.3248 31499.54)
(1657.868 317.7735 32864.54)
(836.7325 81.98656 34697.67)
(44.91204 298.5965 10475.67)
(150.6272 1053.653 11201.79)
(286.0483 2288.743 12447.9)
(468.5037 4457.573 14959.48)
(735.382 7564.329 21005.54)
(1098.25 2895.746 26353.8)
(1455.141 1458.06 28031.59)
(1809.287 698.4735 29855.69)
(1883.686 198.0145 32090.57)
(947.9184 -290.9075 34470.17)
(41.85338 223.6787 10331.09)
(139.5297 779.7545 11114.5)
(263.6921 1641.694 12495.82)
(429.9863 2964.017 14990.39)
(667.9765 4231.14 19347.56)
(963.1257 2287.742 23200.46)
(1272.98 1337.038 25181.1)
(1652.359 691.3666 27087.36)
(2031.547 204.0166 29179.87)
(2110.71 -297.1641 31571.57)
(1061.375 -1036.832 33985.13)
(38.98448 136.1921 10122.77)
(129.2629 470.0284 10920.64)
(242.9432 965.8675 12326.72)
(393.2889 1655.38 14671.75)
(602.539 2154.273 18139.46)
(847.1242 1346.156 21169.82)
(1103.988 853.3719 23064.54)
(1435.317 461.8007 24862.86)
(1841.123 136.6614 26703.23)
(2249.168 -206.2878 28689.92)
(2337.626 -702.7508 30839.58)
(1174.502 -1573.034 32752.87)
(36.20722 44.84634 9842.935)
(119.457 153.8204 10622.39)
(223.2423 311.7987 11992.72)
(358.6866 520.2534 14188.01)
(543.0082 649.7147 17203.25)
(750.2574 428.898 19805.84)
(963.0686 281.1957 21543.54)
(1238.446 155.0222 23178.23)
(1592.222 45.50288 24780.18)
(2025.519 -70.82068 26407.22)
(2464.04 -233.8444 28076.35)
(2564.913 -510.5444 29692.59)
(1287.173 -1004.364 30710.27)
(31.64996 -511.1206 15354.78)
(73.91854 -385.4957 14230.14)
(90.95494 -1375.944 14285.41)
(85.15381 -230.4187 13036.31)
(213.5655 -834.0679 13207.22)
(143.2049 -1805.964 12116.81)
(80.39798 -73.87385 12027.36)
(248.4118 -266.973 12171.14)
(339.219 -584.1458 11236.3)
(184.7256 -1081.132 8400.142)
(71.28074 69.1973 11274.24)
(237.3938 248.8658 11378.57)
(399.8559 544.9488 10547.91)
(445.9289 1026.885 8041.312)
(211.9241 1589.898 3137.411)
(62.68079 189.5481 10761.47)
(213.303 679.6211 10869)
(388.4017 1492.389 10180.29)
(537.415 2863.658 7974.534)
(528.8356 4648.985 3242.667)
(55.83719 280.2718 10443.65)
(190.094 1004.346 10609.71)
(355.3373 2223.972 10150.4)
(535.2994 4396.553 8321.455)
(659.4868 7628.182 3549.39)
(50.65335 336.1397 10267.02)
(171.3764 1205.165 10541.83)
(322.4841 2699.822 10425.31)
(503.5188 5574.631 9199.266)
(683.8761 10855.11 4194.296)
(46.69167 354.3404 10176.41)
(156.8928 1268.819 10593.35)
(295.4774 2862.548 10934.49)
(470.2241 6179.937 10785.84)
(677.9893 14824.63 5402.019)
(43.51764 335.8699 10118.5)
(145.3802 1195.236 10680.76)
(273.6876 2665.494 11529.95)
(441.5619 5634.243 13386.42)
(681.2619 12986.37 22225.17)
(1079.808 1470.861 29573.18)
(1446.161 661.2948 29323.69)
(1805.322 297.8435 30483.6)
(1883.629 84.14046 32503.38)
(949.6877 -112.7292 34907.06)
(40.79308 286.4257 10046.88)
(135.6151 1008.298 10717.38)
(254.8483 2184.028 11876.02)
(412.4858 4239.085 14224.52)
(639.8287 7163.501 19892.84)
(947.7693 2728.279 24832.55)
(1263.636 1365.989 26255.15)
(1647.38 652.3775 27779.13)
(2030.659 192.3093 29712.07)
(2115.371 -245.4847 32159.26)
(1067.607 -891.0539 34918.42)
(38.29054 215.0016 9928.968)
(126.7434 747.9758 10659.9)
(237.4502 1571.045 11956.35)
(383.1774 2828.457 14303.54)
(588.2098 4023.823 18400.02)
(837.7265 2166.476 21974.16)
(1097.626 1259.763 23729.62)
(1431.625 648.1462 25370.12)
(1840.141 193.4042 27137.07)
(2252.167 -259.9695 29180.23)
(2347.976 -916.1063 31580.86)
(1185.572 -2110.163 34061.57)
(35.87514 131.1429 9746.453)
(118.266 451.7965 10495.82)
(220.7086 926.512 11823.2)
(354.2282 1584.162 14039.65)
(537.1004 2055.773 17310.5)
(746.0859 1280.185 20135.28)
(960.1168 808.1419 21847.73)
(1236.678 435.2056 23432.2)
(1591.693 128.8116 25010.46)
(2026.729 -187.5471 26670.26)
(2468.608 -631.0257 28458.69)
(2576.325 -1398.536 30325.71)
(1298.251 -2813.749 31770.77)
(33.4787 43.25222 9492.259)
(109.9336 148.1182 10227.69)
(204.2693 299.7064 11526.68)
(325.9151 499.0599 13609.4)
(489.206 621.7688 16463.64)
(668.9422 409.2866 18902.43)
(848.2901 267.4159 20492.56)
(1076.934 146.8153 21958.01)
(1370.903 42.95873 23357.22)
(1747.334 -65.79171 24734.32)
(2208.748 -214.7897 26091.17)
(2680.037 -460.2295 27361.44)
(2799.717 -893.5835 28333.87)
(1405.763 -1634.838 28340.37)
(32.99619 -564.6537 15964.88)
(76.55306 -486.2069 14722.12)
(94.88143 -1743.747 15009.04)
(87.25727 -359.8123 13367.58)
(220.0535 -1308.411 13692.34)
(149.1189 -2873.577 12904.81)
(81.40265 -214.8035 12188.73)
(252.1334 -778.3473 12403.99)
(346.1856 -1716.356 11606.7)
(190.1504 -3233.378 8887.784)
(71.28074 -69.1973 11274.24)
(237.3938 -248.8658 11378.57)
(399.8559 -544.9488 10547.91)
(445.9289 -1026.885 8041.312)
(211.9241 -1589.898 3137.411)
(61.93369 65.18813 10619.07)
(210.3771 233.1108 10665.7)
(381.4848 507.9374 9858.471)
(523.9771 957.6406 7543.395)
(510.5683 1509.381 3001.419)
(54.59884 179.4824 10185.62)
(185.2744 640.2539 10237.53)
(343.7652 1397.904 9541.723)
(511.0849 2668.849 7449.973)
(618.2681 4334.009 3039.006)
(49.14824 266.5161 9926.959)
(165.5657 951.0276 10042.39)
(308.4387 2095.202 9561.027)
(472.7253 4118.184 7798.421)
(624.0901 7108.343 3313.938)
(45.11425 320.7511 9793.741)
(150.8518 1146.033 10020.77)
(280.818 2556.572 9868.764)
(436.5817 5252.042 8665.737)
(601.9265 10167.8 3930.049)
(42.03195 339.0849 9735.839)
(139.7494 1210.747 10105.5)
(260.1077 2722.166 10395.12)
(409.3474 5852.29 10211.73)
(586.8986 13967.47 5089.152)
(39.52518 322.18 9704.272)
(130.8849 1143.787 10218.77)
(243.8222 2543.547 11000.03)
(388.7522 5358.116 12728.47)
(592.803 12298.45 21047.81)
(931.9195 1385.801 27865.74)
(1255.877 619.5191 27465.32)
(1643.664 278.1216 28363.51)
(2029.936 81.41694 30092.97)
(2118.339 -95.03691 32557.19)
(1071.719 -354.902 35576.83)
(37.31968 275.3145 9655.784)
(123.1838 967.2055 10278.96)
(229.477 2090.044 11363.21)
(367.5651 4045.233 13572.66)
(563.4119 6812.594 18918.56)
(824.3815 2583.684 23519.75)
(1089.584 1287.031 24741.48)
(1427.261 611.5234 26017.73)
(1838.937 181.9093 27630.91)
(2255.253 -214.6229 29716.79)
(2359.024 -787.6065 32419.05)
(1197.855 -1882.609 35666.55)
(35.23614 207.0307 9559.84)
(115.959 718.9629 10245.2)
(215.7135 1507.032 11467.91)
(345.1115 2706.779 13687.27)
(524.3164 3839.869 17559.13)
(737.8069 2060.316 20900.21)
(954.5855 1192.996 22477.53)
(1233.482 610.8009 23910.01)
(1590.715 182.1642 25416.21)
(2028.725 -236.3143 27123.54)
(2476.349 -822.8485 29130.98)
(2596.125 -1876.629 31493.69)
(1318.162 -3950.511 33867.43)
(33.17149 126.4813 9399.206)
(108.8369 435.0482 10105.81)
(201.9492 890.5801 11363.73)
(321.8607 1519.63 13467.07)
(483.8791 1967.354 16566.27)
(665.2208 1221.651 19216.81)
(845.6895 768.5405 20781.84)
(1075.395 412.164 22198.5)
(1370.424 121.5918 23574.06)
(1748.234 -174.2278 24980.04)
(2212.11 -579.6605 26443.77)
(2688.749 -1260.919 27933.85)
(2819.528 -2503.851 29276.61)
(1423.918 -4730.186 29777.46)
(31.07733 41.77432 9167.283)
(101.6518 142.8535 9863.442)
(187.997 288.5978 11098.73)
(298.254 479.7091 13081.22)
(444.6013 596.4456 15793.35)
(602.8004 391.6833 18091.02)
(756.468 255.1899 19559.17)
(948.6939 139.6253 20888.84)
(1192.007 40.70648 22130.48)
(1503.416 -61.82325 23317.4)
(1901.204 -200.223 24440.17)
(2389.137 -423.4225 25419.17)
(2891.382 -806.2494 26070.24)
(3028.917 -1453.287 26031.28)
(1518.082 -2441.457 47883.58)
(34.40282 -559.2907 16602.43)
(79.64975 -537.1251 15302.29)
(99.52047 -1930.647 15881.56)
(90.16066 -453.8084 13826.7)
(229.0624 -1658.092 14379.86)
(157.486 -3703.414 14092.85)
(83.3193 -335.4272 12497.54)
(259.2632 -1220.975 12856.5)
(359.7009 -2730.767 12354.7)
(200.9769 -5328.024 9946.005)
(72.14932 -201.2055 11425.39)
(240.7801 -725.554 11595.61)
(407.4768 -1601.146 10893.25)
(458.2781 -3070.865 8503.93)
(219.9757 -4897.69 3391.794)
(61.93369 -65.18813 10619.07)
(210.3771 -233.1108 10665.7)
(381.4848 -507.9374 9858.471)
(523.9771 -957.6406 7543.395)
(510.5683 -1509.381 3001.419)
(53.9497 61.72635 10050.78)
(182.7582 219.6076 10046.01)
(337.7943 475.7791 9240.28)
(498.9206 892.5062 7048.237)
(598.4709 1407.225 2814.214)
(48.05764 170.6732 9681.585)
(161.378 606.263 9689.953)
(298.4893 1316.959 8987.566)
(451.8479 2499.87 6982.121)
(586.8842 4038.826 2838.401)
(43.77187 254.3148 9469.24)
(145.7341 904.3629 9545.827)
(268.6141 1984.025 9050.294)
(410.116 3879.844 7345.893)
(550.4497 6658.263 3105.436)
(40.60999 306.9416 9369.648)
(134.3612 1093.579 9559.118)
(247.1955 2431.189 9381.618)
(380.1158 4973.55 8203.917)
(521.5539 9579.713 3702.258)
(38.17427 325.2639 9337.201)
(125.8088 1158.63 9668.267)
(231.7086 2597.627 9917.084)
(360.3732 5565.475 9709.178)
(510.8095 13227.55 4818.646)
(36.15874 309.6818 9326.466)
(118.8826 1097.174 9800.668)
(219.5363 2434.097 10524.89)
(346.3915 5113.117 12144.95)
(521.9809 11696.18 20016.93)
(810.6084 1312.362 26392.24)
(1082.909 583.7067 25881.63)
(1424.014 260.6855 26564.89)
(1838.032 76.91278 27984.5)
(2257.21 -83.05022 30080.2)
(2366.314 -313.7833 33010.19)
(1206.351 -771.1383 36930.68)
(34.34215 265.1077 9296.782)
(112.6995 929.6896 9879.031)
(208.463 2004.889 10898.93)
(331.0348 3871.226 12987.8)
(502.1916 6501.213 18053.96)
(726.0503 2457.099 22370.07)
(947.5944 1218.823 23435.74)
(1229.71 576.2699 24520.05)
(1589.544 171.2165 25878.14)
(2030.774 -195.0544 27619.66)
(2484.62 -707.6682 29891.19)
(2618.094 -1674.817 32926.17)
(1341.646 -3760.157 36782.93)
(32.58036 199.6716 9219.225)
(106.7125 692.311 9864.476)
(197.3753 1448.588 11022.22)
(313.5698 2596.523 13129.04)
(472.3519 3674.736 16804.2)
(657.8348 1966.12 19946.75)
(840.8164 1134.538 21380.77)
(1072.612 578.4586 22650.94)
(1369.543 171.9151 23956.14)
(1749.717 -219.5272 25403.5)
(2217.813 -755.9913 27063.82)
(2703.872 -1692.466 28990)
(2855.133 -3516.563 31141.4)
(1458.175 -7122.316 32881.7)
(30.79205 122.1595 9077.409)
(100.6373 419.5851 9745.897)
(185.8605 857.5713 10941.82)
(294.5412 1460.709 12944.41)
(439.7567 1887.232 15891.8)
(599.4449 1169.11 18391.88)
(754.1481 733.4044 19835.21)
(947.3369 391.9784 21117.54)
(1191.583 115.2115 22335.79)
(1504.145 -163.7205 23548.71)
(1903.848 -540.3756 24769.3)
(2395.668 -1160.193 25946.43)
(2906.536 -2259.584 26921.21)
(3061.281 -4206.067 27304.08)
(1545.588 -7355.08 51100.35)
(28.94253 40.39946 8865.06)
(94.36243 137.9726 9525.867)
(173.8434 278.3413 10703.74)
(274.5218 461.9318 12596.08)
(406.9328 573.3232 15181.27)
(547.9415 375.7325 17355.41)
(681.7725 244.2166 18720.56)
(846.1424 133.2461 19938.93)
(1050.198 38.72397 21055.24)
(1307.132 -58.49701 22096.12)
(1634.723 -188.348 23044.32)
(2052.019 -394.9209 23814.34)
(2563.458 -742.0468 24216.55)
(3091.77 -1311.202 23923.96)
(3241.357 -2166.391 43728.89)
(207.6345 -495.427 15078.8)
(35.72239 -497.1998 17197.46)
(82.88533 -532.0286 15908.57)
(104.3696 -1905.874 16800.27)
(93.57279 -501.331 14368.11)
(239.7029 -1835.765 15208.75)
(167.5587 -4147.125 15640.41)
(85.96456 -423.0517 12925.52)
(269.1592 -1547.253 13497.76)
(378.8083 -3519.017 13482.19)
(217.0138 -7214.963 11763.02)
(73.80629 -314.1932 11714.65)
(247.2665 -1138.152 12017.37)
(422.2526 -2547.349 11590.57)
(482.901 -5059.39 9507.626)
(236.7946 -8624.048 3969.567)
(62.68079 -189.5481 10761.47)
(213.303 -679.6211 10869)
(388.4017 -1492.389 10180.29)
(537.415 -2863.658 7974.534)
(528.8356 -4648.985 3242.667)
(53.9497 -61.72635 10050.78)
(182.7582 -219.6076 10046.01)
(337.7943 -475.7791 9240.28)
(498.9206 -892.5062 7048.237)
(598.4709 -1407.225 2814.214)
(47.48596 58.69673 9553.365)
(159.1917 207.9485 9508.595)
(293.3556 448.2287 8703.567)
(441.3579 835.997 6605.823)
(568.9992 1311.409 2628.95)
(42.79919 162.8596 9235.099)
(142.046 576.5143 9210.674)
(259.9693 1247.074 8507.237)
(392.1715 2355.175 6576.804)
(518.3989 3783.099 2660.01)
(39.39991 243.3655 9059.116)
(129.7966 862.9694 9105.9)
(236.4463 1886.715 8603.256)
(357.12 3674.081 6953.996)
(477.3237 6273.068 2925.316)
(36.88131 294.4307 8985.934)
(120.9514 1046.505 9145.392)
(220.1906 2319.958 8949.911)
(334.6225 4729.769 7799.67)
(454.0314 9072.049 3505.188)
(34.92179 312.6461 8973.634)
(114.2668 1111.412 9272.588)
(208.6149 2485.849 9488.506)
(321.0729 5310.993 9263.583)
(449.738 12579.76 4581.841)
(33.27312 298.201 8979.673)
(108.7611 1054.617 9419.284)
(199.4231 2334.926 10094.74)
(311.9433 4893.194 11621.45)
(465.2245 11161.71 19102.1)
(713.9161 1248.07 25101.86)
(941.7928 552.7732 24515.46)
(1226.905 245.6525 25035.49)
(1588.679 72.36101 26208.92)
(2032.068 -75.46646 27955.74)
(2490.081 -282.0011 30427.33)
(2633.288 -686.1796 34054.5)
(1359.337 -1619.031 39577.41)
(31.75332 255.6843 8965.518)
(103.711 895.2266 9511.881)
(190.7358 1927.14 10475.29)
(300.7679 3713.55 12458.04)
(452.4015 6221.676 17277.74)
(647.3459 2344.777 21349.42)
(834.6571 1159.104 22292.02)
(1069.327 545.7526 23228.61)
(1368.495 161.5476 24391.16)
(1751.236 -181.1927 25867.02)
(2223.913 -650.289 27765)
(2720.658 -1510.975 30285.63)
(2897.116 -3348.413 33736.42)
(1502.506 -7592.596 38050.78)
(30.24311 192.849 8903.578)
(98.67191 667.7041 9513.135)
(181.6484 1394.898 10612.97)
(286.9488 2495.852 12619.47)
(429.2731 3525.094 16120.04)
(592.7853 1881.567 19090.42)
(749.8007 1082.672 20406.76)
(944.8844 550.1275 21547.79)
(1190.807 162.8821 22697.56)
(1505.347 -206.292 23947.34)
(1908.336 -704.8172 25348.11)
(2407.013 -1557.545 26919.43)
(2933.776 -3174.631 28605.21)
(3122.346 -6336.437 30056.98)
(1600.634 -12223.83 58797.59)
(28.67678 118.1391 8778.144)
(93.42027 405.2492 9412.338)
(171.8669 827.0942 10552.4)
(271.1026 1406.578 12464.34)
(402.4962 1814.073 15275.9)
(544.89 1121.5 17644.01)
(679.6809 701.8676 18984.72)
(844.932 374.0692 20157.16)
(1049.823 109.5974 21250.47)
(1307.754 -154.9143 22315.1)
(1636.918 -508.3417 23354.06)
(2057.205 -1082.162 24306.29)
(2574.866 -2079.917 24999.88)
(3116.423 -3795.892 25071.2)
(3290.153 -6529.551 46553.27)
(213.4457 -1578.895 16109.87)
(27.02922 39.11674 8583.161)
(87.88177 133.432 9211.91)
(161.3838 268.8322 10337.62)
(253.8735 445.5176 12148.2)
(374.5997 552.0802 14618.9)
(501.5914 361.1682 16683.48)
(619.8014 234.2738 17960.09)
(762.709 127.5218 19085.16)
(936.8359 36.96508 20099.51)
(1151.791 -55.60512 21025.21)
(1421.226 -178.2729 21841.28)
(1763.305 -371.5571 22459.58)
(2197.163 -692.168 22694.07)
(2726.754 -1206.751 22227.28)
(3271.782 -1953.492 40170.06)
(435.9115 -437.3141 13751.38)
(246.1802 -792.1665 21580.05)
(36.82503 -388.2556 17691.02)
(85.92113 -472.9777 16474.42)
(108.8848 -1679.981 17632.26)
(97.13789 -496.5769 14933.88)
(250.8244 -1812.231 16081.47)
(178.1637 -4060.685 17373.77)
(89.07307 -467.3529 13430.21)
(280.8434 -1713.027 14270.84)
(401.794 -3940.348 14950.5)
(237.5027 -8492.478 14683.7)
(76.09306 -396.2707 12115.54)
(256.2677 -1442.289 12615.04)
(443.1242 -3282.483 12641.56)
(519.3215 -6849.705 11230.44)
(264.0024 -13178.81 5039.805)
(64.106 -295.9898 11033.97)
(218.9072 -1066.099 11264.05)
(401.8089 -2374.293 10830.12)
(564.1787 -4717.591 8909.827)
(566.9365 -8183.781 3790.479)
(54.59884 -179.4824 10185.62)
(185.2744 -640.2539 10237.53)
(343.7652 -1397.904 9541.723)
(511.0849 -2668.849 7449.973)
(618.2681 -4334.009 3039.006)
(47.48596 -58.69673 9553.365)
(159.1917 -207.9485 9508.595)
(293.3556 -448.2287 8703.567)
(441.3579 -835.997 6605.823)
(568.9992 -1311.409 2628.95)
(42.28932 56.0095 9112.747)
(140.1204 197.7445 9038.21)
(255.5087 424.4422 8238.297)
(383.1547 787.6062 6222.272)
(502.9872 1228.375 2463.821)
(38.5231 155.8477 8835.054)
(126.5071 550.1261 8786.081)
(228.832 1185.906 8086.814)
(341.5283 2230.257 6225.66)
(449.7815 3564.201 2505.646)
(35.78101 233.4458 8688.058)
(116.8365 825.8214 8711.675)
(210.6021 1800.39 8207.136)
(314.3658 3493.97 6610.964)
(415.6001 5940.539 2769.397)
(33.7379 283.009 8635.992)
(109.8499 1003.856 8771.015)
(198.2306 2220.125 8562.925)
(298.0998 4513.476 7441.319)
(399.7153 8627.619 3332.68)
(32.13409 301.0554 8639.92)
(104.5345 1068.303 8911.681)
(189.4914 2384.57 9100.559)
(289.1138 5082.558 8863.915)
(400.7613 12004.89 4371.823)
(30.76437 287.6013 8659.679)
(100.0843 1015.523 9069.173)
(182.4579 2244.381 9702.277)
(283.405 4693.906 11147.31)
(419.0657 10681.88 18280.8)
(636.5196 1191.021 23956.37)
(829.5458 525.6905 23318.85)
(1066.887 232.6427 23716.71)
(1367.726 68.2656 24702.69)
(1752.195 -70.10156 26181.05)
(2227.947 -259.1685 28259.57)
(2732.272 -619.1976 31306.46)
(2928.736 -1442.118 36225.86)
(1541.506 -3565.627 45052.16)
(29.4751 246.9478 8658.539)
(95.89525 863.4078 9173.07)
(175.5343 1855.715 10086.3)
(275.2254 3569.578 11974.48)
(411.1282 5968.35 16574.28)
(583.3276 2243.947 20432.77)
(744.3058 1106.117 21276.34)
(941.9902 519.0223 22097.14)
(1189.886 153.0486 23109.45)
(1506.578 -170.2719 24383.69)
(1913.14 -606.3292 26002.72)
(2419.621 -1390.808 28113.32)
(2965.904 -3024.13 30950.19)
(3201.368 -6759.279 34649.65)
(1681.758 -15930.62 75630.98)
(28.16539 186.5021 8610.034)
(91.59518 644.891 9187.527)
(167.9701 1345.326 10235.23)
(264.1107 2403.365 12151.44)
(392.8955 3388.451 15495.28)
(538.8334 1804.947 18314.1)
(675.7613 1036.116 19531.67)
(842.7443 524.9911 20567.72)
(1049.138 154.9389 21594.48)
(1308.778 -195.2011 22692.49)
(1640.644 -663.0693 23898.78)
(2066.22 -1452.942 25214.24)
(2595.39 -2922.883 26550.5)
(3162.962 -5721.442 27554.63)
(3387.84 -10862.13 53332.99)
(226.0121 -3098.905 18577.63)
(26.78097 114.388 8499.005)
(87.00407 391.9126 9102.116)
(159.5482 798.8382 10191.46)
(250.7103 1356.598 12021.14)
(370.514 1746.859 14710.02)
(498.7969 1078.029 16960.89)
(617.8993 673.2922 18213.48)
(761.618 357.9977 19293.99)
(936.5024 104.6168 20285.79)
(1152.337 -147.2578 21233.42)
(1423.112 -481.1592 22134.48)
(1767.627 -1018.18 22922.46)
(2206.246 -1940.269 23424.71)
(2745.318 -3494.146 23282.56)
(3308.688 -5890.254 42706.46)
(446.1017 -1395.118 14653.5)
(255.7144 -2580.551 22982.51)
(25.3025 37.91697 8319.548)
(82.0732 129.1956 8919.055)
(150.3049 259.9859 9997.088)
(235.6921 430.2992 11733.01)