/*--------------------------------*- C++ -*----------------------------------*\
| =========                 |                                                 |
| \\      /  F ield         | OpenFOAM: The Open Source CFD Toolbox           |
|  \\    /   O peration     | Version:  2306                                  |
|   \\  /    A nd           | Website:  www.openfoam.com                      |
|    \\/     M anipulation  |                                                 |
\*---------------------------------------------------------------------------*/
FoamFile
{
    version     2.0;
    format      ascii;
    arch        "LSB;label=32;scalar=64";
    class       volScalarField;
    location    "0.9/phiEC";
    object      phi;
}
// * * * * * * * * * * * * * * * * * * * * * * * * * * * * * * * * * * * * * //

dimensions      [1 2 -3 0 0 -1 0];

internalField   nonuniform List<scalar> 
20000
(
0.8145212
0.8145203
0.8145174
0.8147051
0.8145187
0.8145166
0.8147024
0.814512
0.8146935
0.8149007
0.8145164
0.814515
0.814697
0.8145113
0.8146908
0.8148953
0.8145067
0.8146772
0.8148804
0.8151188
0.8145137
0.8145129
0.8146894
0.8145099
0.8146857
0.8148846
0.814506
0.8146748
0.8148752
0.8151101
0.814502
0.8146611
0.8148523
0.8150881
0.8153728
0.8145108
0.8145103
0.8146802
0.8145078
0.8146785
0.8148691
0.8145047
0.81467
0.814865
0.8150923
0.8145013
0.8146588
0.8148475
0.8150799
0.8153624
0.8144978
0.8146466
0.8148246
0.8150466
0.8153294
0.8155957
0.8145081
0.8145075
0.8146703
0.8145054
0.8146697
0.8148497
0.8145028
0.8146633
0.8148503
0.8150649
0.8145001
0.8146543
0.814838
0.815063
0.8153399
0.8144972
0.8146445
0.8148201
0.8150389
0.8153195
0.8155892
0.8144943
0.8146341
0.8147998
0.8150059
0.8152716
0.8155403
0.8157514
0.8145057
0.8145049
0.8146609
0.8145029
0.8146604
0.8148285
0.8145006
0.8146551
0.8148319
0.8150277
0.8144983
0.814648
0.8148243
0.815037
0.815301
0.814496
0.8146403
0.8148113
0.8150232
0.8152982
0.8155762
0.8144937
0.8146321
0.8147956
0.8149987
0.8152624
0.8155341
0.8157474
0.8144911
0.8146233
0.8147784
0.8149697
0.8152156
0.8154679
0.8156872
0.8159118
0.814504
0.8145027
0.8146529
0.8145004
0.8146514
0.8148083
0.8144982
0.8146463
0.8148117
0.8149831
0.8144962
0.8146404
0.8148071
0.8150016
0.8152358
0.8144944
0.8146344
0.8147984
0.8149989
0.8152612
0.8155578
0.8144926
0.8146282
0.8147874
0.814984
0.8152425
0.8155217
0.8157398
0.8144906
0.8146213
0.8147745
0.814963
0.8152071
0.8154621
0.8156834
0.8159097
0.8144884
0.8146138
0.8147599
0.8149384
0.8151662
0.8153985
0.8156045
0.8158383
0.816075
0.8145031
0.8145011
0.8146471
0.8144983
0.8146438
0.8147914
0.8144959
0.814638
0.8147925
0.8149427
0.814494
0.8146323
0.8147883
0.8149594
0.8151221
0.8144924
0.8146273
0.8147825
0.8149659
0.8151994
0.8155388
0.814491
0.8146226
0.8147754
0.8149614
0.8152081
0.8155042
0.8157302
0.8144895
0.8146176
0.8147667
0.8149493
0.8151885
0.8154506
0.8156762
0.815906
0.8144878
0.8146119
0.8147561
0.8149321
0.8151582
0.8153931
0.8156009
0.8158363
0.8160745
0.8144859
0.8146053
0.8147436
0.8149114
0.8151236
0.8153375
0.8155257
0.8157447
0.8159915
0.8162395
0.8145031
0.8145002
0.8146441
0.8144968
0.8146383
0.8147795
0.814494
0.8146309
0.8147765
0.814911
0.8144918
0.8146245
0.8147704
0.814921
0.8150435
0.8144903
0.8146197
0.8147649
0.8149265
0.8150917
0.8144891
0.8146159
0.8147604
0.8149307
0.8151505
0.8154862
0.8157222
0.814488
0.8146124
0.8147554
0.814928
0.8151564
0.8154343
0.815667
0.8159016
0.8144868
0.8146084
0.8147488
0.8149192
0.8151408
0.8153824
0.8155942
0.8158327
0.8160736
0.8144854
0.8146036
0.8147401
0.8149054
0.815116
0.8153324
0.8155223
0.8157428
0.815991
0.8162406
0.8144836
0.8145978
0.8147293
0.8148877
0.8150867
0.815285
0.8154566
0.8156561
0.8158867
0.8161454
0.8164039
0.814504
0.8145002
0.8146441
0.814496
0.8146354
0.8147734
0.8144925
0.8146258
0.8147652
0.8148894
0.81449
0.8146179
0.8147555
0.8148909
0.8149904
0.8144883
0.8146123
0.8147482
0.8148908
0.8150171
0.8144871
0.8146087
0.8147439
0.814894
0.8150502
0.8144863
0.814606
0.8147413
0.8148993
0.8151028
0.8154175
0.8156594
0.8158982
0.8144854
0.8146034
0.814738
0.8148992
0.8151108
0.8153671
0.8155856
0.8158284
0.8160725
0.8144844
0.8146002
0.8147331
0.8148931
0.8150997
0.8153224
0.815516
0.8157394
0.81599
0.8162423
0.8144831
0.8145961
0.8147259
0.814882
0.8150795
0.8152802
0.8154535
0.8156544
0.8158862
0.8161463
0.8164069
0.8144816
0.814591
0.8147164
0.8148667
0.8150544
0.8152395
0.8153972
0.8155788
0.8157882
0.8160292
0.8162987
0.8165664
0.8145057
0.8145011
0.8146471
0.814496
0.8146354
0.8147734
0.8144918
0.8146231
0.8147594
0.8148786
0.8144887
0.8146131
0.8147449
0.8148704
0.8149573
0.8144866
0.8146061
0.8147343
0.8148627
0.8149667
0.8144852
0.8146018
0.8147283
0.8148607
0.8149807
0.8144844
0.8145992
0.8147258
0.8148649
0.8150093
0.8144837
0.8145973
0.8147247
0.8148721
0.8150605
0.8153514
0.8155785
0.8158252
0.8160717
0.814483
0.8145954
0.8147229
0.8148742
0.8150713
0.8153081
0.815508
0.8157354
0.8159889
0.8162441
0.8144822
0.8145929
0.8147192
0.8148703
0.815064
0.8152707
0.8154476
0.8156512
0.8158853
0.8161478
0.8164119
0.8144811
0.8145894
0.8147131
0.8148613
0.8150476
0.815235
0.8153943
0.8155772
0.8157878
0.81603
0.8163013
0.8165722
0.8144797
0.8145847
0.8147047
0.8148479
0.8150258
0.8151998
0.8153459
0.8155124
0.8157026
0.8159207
0.8161708
0.8164496
0.8167244
0.8145081
0.8145027
0.8146529
0.8144968
0.8146383
0.8147795
0.8144918
0.8146231
0.8147594
0.8148786
0.814488
0.8146106
0.8147395
0.8148602
0.8149414
0.8144853
0.8146017
0.8147245
0.8148436
0.8149353
0.8144836
0.814596
0.8147153
0.8148345
0.8149337
0.8144825
0.8145927
0.814711
0.8148337
0.8149445
0.8144819
0.8145909
0.81471
0.8148397
0.8149729
0.8144814
0.8145897
0.8147102
0.8148486
0.815024
0.8152934
0.8155014
0.8157325
0.815988
0.8162452
0.8144809
0.8145883
0.8147094
0.8148523
0.8150372
0.8152573
0.8154401
0.8156475
0.8158842
0.8161493
0.8164172
0.8144802
0.8145863
0.8147067
0.8148501
0.8150329
0.8152261
0.8153887
0.8155742
0.8157869
0.8160312
0.8163057
0.8165822
0.8144792
0.8145832
0.8147016
0.8148427
0.8150193
0.8151955
0.8153431
0.8155108
0.8157021
0.8159214
0.8161731
0.8164547
0.8167344
0.814478
0.814579
0.814694
0.8148308
0.8150001
0.8151645
0.8153009
0.815455
0.815629
0.8158266
0.8160523
0.8163099
0.8165956
0.8168735
0.8145108
0.8145049
0.8146609
0.8144983
0.8146438
0.8147914
0.8144925
0.8146258
0.8147652
0.8148894
0.814488
0.8146106
0.8147395
0.8148602
0.8149414
0.8144847
0.8145993
0.8147194
0.814834
0.8149202
0.8144824
0.8145918
0.8147061
0.8148167
0.8149044
0.814481
0.8145871
0.8146988
0.8148092
0.8149007
0.8144802
0.8145847
0.8146961
0.8148103
0.8149123
0.8144797
0.8145835
0.8146962
0.8148179
0.8149415
0.8144794
0.8145828
0.8146973
0.8148279
0.8149924
0.8152435
0.8154339
0.8156447
0.8158834
0.8161502
0.8164208
0.814479
0.8145819
0.8146974
0.814833
0.8150074
0.8152134
0.8153817
0.8155707
0.8157858
0.8160325
0.8163105
0.8165933
0.8144784
0.8145802
0.8146954
0.814832
0.8150052
0.815187
0.8153378
0.815508
0.8157013
0.8159226
0.8161771
0.8164636
0.8167525
0.8144775
0.8145775
0.814691
0.8148258
0.8149939
0.8151604
0.8152983
0.8154535
0.8156286
0.8158273
0.8160545
0.8163145
0.8166046
0.8168899
0.8144763
0.8145737
0.8146843
0.8148153
0.8149769
0.8151329
0.8152611
0.8154047
0.8155655
0.815746
0.8159499
0.8161816
0.8164444
0.816733
0.8170078
0.8145137
0.8145075
0.8146703
0.8145004
0.8146514
0.8148083
0.814494
0.8146309
0.8147765
0.814911
0.8144887
0.8146131
0.8147449
0.8148704
0.8149573
0.8144847
0.8145993
0.8147194
0.814834
0.8149202
0.8144818
0.8145896
0.8147013
0.8148078
0.8148903
0.8144799
0.8145831
0.8146901
0.8147925
0.8148735
0.8144787
0.8145794
0.8146844
0.8147872
0.8148713
0.814478
0.8145776
0.814683
0.81479
0.8148843
0.8144777
0.8145769
0.814684
0.8147988
0.8149142
0.8144775
0.8145766
0.8146858
0.8148097
0.8149647
0.8152002
0.8153758
0.8155681
0.8157851
0.8160334
0.8163136
0.816601
0.8144772
0.814576
0.8146865
0.8148156
0.8149809
0.8151749
0.8153311
0.8155047
0.8157003
0.8159238
0.8161813
0.8164735
0.8167739
0.8144767
0.8145747
0.8146851
0.8148156
0.8149804
0.8151523
0.8152932
0.8154509
0.8156278
0.8158284
0.8160581
0.8163225
0.8166207
0.8169208
0.8144759
0.8145723
0.8146814
0.8148105
0.8149709
0.815129
0.8152585
0.8154033
0.8155651
0.8157466
0.8159519
0.8161858
0.8164524
0.8167475
0.8170322
0.8144749
0.8145689
0.8146752
0.814801
0.8149557
0.8151042
0.8152253
0.8153601
0.8155098
0.8156763
0.8158622
0.816071
0.8163065
0.8165706
0.816856
0.817249
0.8145164
0.8145103
0.8146802
0.8145029
0.8146604
0.8148285
0.8144959
0.814638
0.8147925
0.8149427
0.81449
0.8146179
0.8147555
0.8148909
0.8149904
0.8144853
0.8146017
0.8147245
0.8148436
0.8149353
0.8144818
0.8145896
0.8147013
0.8148078
0.8148903
0.8144793
0.8145811
0.8146856
0.8147842
0.8148603
0.8144776
0.8145756
0.8146762
0.8147715
0.8148457
0.8144766
0.8145726
0.8146719
0.8147681
0.8148457
0.8144761
0.8145712
0.8146713
0.8147723
0.8148601
0.8144759
0.8145709
0.8146731
0.8147818
0.8148904
0.8144757
0.8145709
0.8146754
0.8147933
0.8149402
0.8151624
0.8153256
0.8155023
0.8156996
0.8159245
0.8161842
0.8164803
0.8167901
0.8144755
0.8145706
0.8146765
0.8147999
0.8149571
0.8151408
0.8152869
0.8154477
0.8156269
0.8158295
0.816062
0.8163315
0.8166397
0.8169611
0.8144751
0.8145695
0.8146757
0.8148007
0.814958
0.8151212
0.8152537
0.8154008
0.8155643
0.8157476
0.8159553
0.8161932
0.816467
0.816775
0.8170813
0.8144744
0.8145675
0.8146724
0.8147964
0.8149499
0.8151005
0.8152228
0.8153588
0.8155094
0.8156769
0.8158641
0.816075
0.8163139
0.8165837
0.8168776
0.8172903
0.8144735
0.8145643
0.8146669
0.8147878
0.8149362
0.8150781
0.8151929
0.8153201
0.8154604
0.8156153
0.8157864
0.8159764
0.816188
0.8164238
0.8166836
0.817076
0.8176138
0.8145187
0.8145129
0.8146894
0.8145054
0.8146697
0.8148497
0.8144982
0.8146463
0.8148117
0.8149831
0.8144918
0.8146245
0.8147704
0.814921
0.8150435
0.8144866
0.8146061
0.8147343
0.8148627
0.8149667
0.8144824
0.8145918
0.8147061
0.8148167
0.8149044
0.8144793
0.8145811
0.8146856
0.8147842
0.8148603
0.8144771
0.8145736
0.814672
0.8147636
0.8148334
0.8144756
0.8145689
0.8146641
0.8147533
0.8148216
0.8144747
0.8145664
0.8146608
0.8147515
0.8148235
0.8144743
0.8145655
0.8146609
0.8147566
0.8148389
0.8144742
0.8145655
0.8146631
0.8147667
0.8148693
0.8144741
0.8145657
0.8146659
0.8147785
0.8149182
0.8151288
0.8152816
0.8154454
0.8156262
0.8158302
0.8160646
0.8163377
0.8166542
0.8169968
0.814474
0.8145656
0.8146674
0.8147855
0.8149357
0.8151101
0.8152477
0.8153978
0.8155634
0.8157486
0.8159589
0.8162014
0.8164842
0.8168108
0.8171544
0.8144737
0.8145648
0.814667
0.8147869
0.8149375
0.815093
0.8152183
0.8153564
0.8155087
0.8156778
0.8158673
0.8160818
0.8163273
0.8166086
0.8169212
0.8173806
0.8144731
0.814563
0.8146642
0.8147834
0.8149307
0.8150745
0.8151905
0.8153188
0.8154601
0.8156158
0.8157882
0.8159801
0.816195
0.8164358
0.8167032
0.8171124
0.8176798
0.8144721
0.8145601
0.8146591
0.8147756
0.8149182
0.8150541
0.8151633
0.8152838
0.8154161
0.8155611
0.8157201
0.8158947
0.8160868
0.816298
0.8165288
0.8168857
0.8174086
0.8179683
0.8145203
0.814515
0.814697
0.8145078
0.8146785
0.8148691
0.8145006
0.8146551
0.8148319
0.8150277
0.814494
0.8146323
0.8147883
0.8149594
0.8151221
0.8144883
0.8146123
0.8147482
0.8148908
0.8150171
0.8144836
0.814596
0.8147153
0.8148345
0.8149337
0.8144799
0.8145831
0.8146901
0.8147925
0.8148735
0.8144771
0.8145736
0.814672
0.8147636
0.8148334
0.8144751
0.8145671
0.81466
0.8147458
0.81481
0.8144738
0.814563
0.8146533
0.8147374
0.8148007
0.814473
0.8145609
0.8146508
0.8147367
0.8148041
0.8144727
0.8145602
0.8146515
0.8147425
0.8148202
0.8144727
0.8145605
0.8146541
0.8147529
0.8148503
0.8144727
0.8145609
0.8146571
0.814765
0.8148983
0.8150987
0.8152427
0.8153956
0.8155628
0.8157493
0.8159614
0.8162071
0.8164972
0.8168426
0.8172406
0.8144726
0.814561
0.814659
0.8147723
0.814916
0.8150824
0.8152125
0.8153535
0.8155079
0.8156788
0.8158707
0.8160895
0.8163431
0.816641
0.8169862
0.8175485
0.8144723
0.8145604
0.8146589
0.8147743
0.8149187
0.8150673
0.8151861
0.8153165
0.8154594
0.8156167
0.8157912
0.8159866
0.8162074
0.8164587
0.8167425
0.8171922
0.8178288
0.8144718
0.8145588
0.8146565
0.8147713
0.8149129
0.8150506
0.815161
0.8152826
0.8154158
0.8155616
0.8157218
0.8158982
0.8160933
0.8163092
0.8165467
0.8169185
0.8174667
0.8180564
0.8144709
0.8145561
0.8146518
0.8147642
0.8149015
0.8150319
0.8151361
0.8152507
0.815376
0.8155125
0.8156612
0.8158231
0.8159993
0.8161905
0.8163964
0.8167168
0.8171914
0.817732
0.8183092
0.8145212
0.8145166
0.8147024
0.8145099
0.8146857
0.8148846
0.8145028
0.8146633
0.8148503
0.8150649
0.8144962
0.8146404
0.8148071
0.8150016
0.8152358
0.8144903
0.8146197
0.8147649
0.8149265
0.8150917
0.8144852
0.8146018
0.8147283
0.8148607
0.8149807
0.814481
0.8145871
0.8146988
0.8148092
0.8149007
0.8144776
0.8145756
0.8146762
0.8147715
0.8148457
0.8144751
0.8145671
0.81466
0.8147458
0.81481
0.8144732
0.8145612
0.8146495
0.8147303
0.8147898
0.8144721
0.8145576
0.8146437
0.8147232
0.8147825
0.8144715
0.8145558
0.8146418
0.8147235
0.8147869
0.8144712
0.8145554
0.8146429
0.8147297
0.8148033
0.8144712
0.8145558
0.8146458
0.8147404
0.8148332
0.8144713
0.8145565
0.8146491
0.8147526
0.8148801
0.8150715
0.8152077
0.8153514
0.8155073
0.8156794
0.815873
0.8160948
0.8163552
0.8166697
0.817063
0.8179596
0.8144713
0.8145567
0.8146512
0.8147602
0.814898
0.8150571
0.8151806
0.8153138
0.8154586
0.8156177
0.8157945
0.8159938
0.8162222
0.8164885
0.8168012
0.8173411
0.8181162
0.814471
0.8145563
0.8146514
0.8147625
0.8149013
0.8150437
0.8151568
0.8152804
0.8154151
0.8155625
0.8157246
0.8159043
0.816105
0.8163306
0.816583
0.8169904
0.8175981
0.8182553
0.8144706
0.8145548
0.8146493
0.8147601
0.8148964
0.8150286
0.815134
0.8152496
0.8153756
0.815513
0.8156628
0.8158265
0.8160055
0.8162011
0.8164132
0.816747
0.8172435
0.8178093
0.8184156
0.8144698
0.8145524
0.8146451
0.8147537
0.814886
0.8150114
0.8151111
0.8152203
0.8153393
0.8154684
0.8156083
0.8157596
0.8159227
0.8160977
0.8162835
0.8165731
0.8170013
0.8174886
0.8180431
0.8186334
0.8145174
0.8147051
0.8145113
0.8146908
0.8148953
0.8145047
0.81467
0.814865
0.8150923
0.8144983
0.814648
0.8148243
0.815037
0.815301
0.8144924
0.8146273
0.8147825
0.8149659
0.8151994
0.8155388
0.8144871
0.8146087
0.8147439
0.814894
0.8150502
0.8144825
0.8145927
0.814711
0.8148337
0.8149445
0.8144787
0.8145794
0.8146844
0.8147872
0.8148713
0.8144756
0.8145689
0.8146641
0.8147533
0.8148216
0.8144732
0.8145612
0.8146495
0.8147303
0.8147898
0.8144716
0.8145558
0.81464
0.8147165
0.814772
0.8144706
0.8145526
0.814635
0.8147106
0.8147663
0.81447
0.8145512
0.8146336
0.8147115
0.8147715
0.8144699
0.814551
0.814635
0.8147181
0.8147881
0.8144699
0.8145516
0.8146381
0.8147289
0.8148175
0.8203678
0.81447
0.8145523
0.8146416
0.8147411
0.8148635
0.8150466
0.815176
0.8153118
0.815458
0.8156183
0.8157966
0.8159988
0.8162334
0.816515
0.8168706
0.8177071
0.8187466
0.81447
0.8145527
0.8146439
0.8147489
0.8148814
0.8150339
0.8151515
0.8152778
0.8154144
0.8155634
0.8157277
0.8159111
0.816119
0.8163584
0.816637
0.8171248
0.8178523
0.8186295
0.8144698
0.8145524
0.8146444
0.8147516
0.8148853
0.8150219
0.8151299
0.8152474
0.815375
0.8155138
0.8156655
0.8158323
0.8160166
0.8162212
0.816447
0.8168131
0.8173617
0.8179842
0.8186542
0.8144694
0.8145512
0.8146426
0.8147496
0.8148811
0.8150081
0.815109
0.8152192
0.815339
0.8154689
0.8156098
0.8157628
0.8159286
0.8161077
0.8162993
0.8166012
0.8170492
0.817558
0.8181362
0.8187541
0.8144687
0.8145489
0.8146387
0.8147437
0.8148716
0.8149922
0.8150878
0.8151923
0.8153057
0.8154282
0.8155604
0.8157025
0.8158547
0.8160164
0.816186
0.8164505
0.8168403
0.8172781
0.8177747
0.8183392
0.8187937
0.814512
0.8146935
0.8149007
0.814506
0.8146748
0.8148752
0.8151101
0.8145001
0.8146543
0.814838
0.815063
0.8153399
0.8144944
0.8146344
0.8147984
0.8149989
0.8152612
0.8155578
0.8144891
0.8146159
0.8147604
0.8149307
0.8151505
0.8154862
0.8157222
0.8144844
0.8145992
0.8147258
0.8148649
0.8150093
0.8144802
0.8145847
0.8146961
0.8148103
0.8149123
0.8144766
0.8145726
0.8146719
0.8147681
0.8148457
0.8144738
0.814563
0.8146533
0.8147374
0.8148007
0.8144716
0.8145558
0.81464
0.8147165
0.814772
0.8144701
0.814551
0.8146315
0.8147041
0.8147563
0.8144692
0.8145481
0.814627
0.8146991
0.8147517
0.8144687
0.8145469
0.8146261
0.8147006
0.8147576
0.8144686
0.8145469
0.8146278
0.8147074
0.8147742
0.8217619
0.8144687
0.8145476
0.8146311
0.8147183
0.8148032
0.8198581
0.8205308
0.8144688
0.8145485
0.8146346
0.8147305
0.8148481
0.8150238
0.8151471
0.8152759
0.8154138
0.815564
0.8157298
0.8159159
0.8161295
0.8163831
0.816701
0.817456
0.8184125
0.8193495
0.8144689
0.814549
0.8146372
0.8147384
0.814866
0.8150124
0.8151248
0.8152449
0.8153743
0.8155147
0.8156685
0.8158388
0.8160298
0.8162474
0.8164975
0.8169368
0.817591
0.8183146
0.819088
0.8144687
0.8145488
0.8146378
0.8147414
0.8148703
0.8150017
0.815105
0.8152172
0.8153384
0.8154697
0.8156125
0.8157683
0.8159392
0.8161267
0.8163311
0.8166628
0.8171578
0.8177153
0.8183456
0.8190223
0.8144683
0.8145477
0.8146363
0.8147398
0.8148667
0.8149891
0.8150858
0.8151912
0.8153053
0.8154287
0.8155618
0.8157055
0.8158603
0.8160259
0.8162009
0.8164769
0.816885
0.8173417
0.8178583
0.8184446
0.8189197
0.8144677
0.8145456
0.8146327
0.8147345
0.814858
0.8149744
0.8150662
0.8151663
0.8152746
0.8153913
0.8155166
0.8156508
0.8157936
0.8159442
0.8161005
0.8163446
0.8167031
0.8171004
0.8175446
0.8180474
0.8184858
0.8188088
0.8145067
0.8146772
0.8148804
0.8151188
0.8145013
0.8146588
0.8148475
0.8150799
0.8153624
0.814496
0.8146403
0.8148113
0.8150232
0.8152982
0.8155762
0.814491
0.8146226
0.8147754
0.8149614
0.8152081
0.8155042
0.8157302
0.8144863
0.814606
0.8147413
0.8148993
0.8151028
0.8154175
0.8156594
0.8158982
0.8144819
0.8145909
0.81471
0.8148397
0.8149729
0.814478
0.8145776
0.814683
0.81479
0.8148843
0.8144747
0.8145664
0.8146608
0.8147515
0.8148235
0.8144721
0.8145576
0.8146437
0.8147232
0.8147825
0.8144701
0.814551
0.8146315
0.8147041
0.8147563
0.8144687
0.8145465
0.8146236
0.8146929
0.8147422
0.8144678
0.8145439
0.8146197
0.8146887
0.8147386
0.8144674
0.8145429
0.8146191
0.8146905
0.8147449
0.8227017
0.8144674
0.8145431
0.814621
0.8146976
0.8147614
0.821099
0.8218357
0.8144675
0.8145439
0.8146245
0.8147084
0.8147899
0.8194061
0.8200036
0.8207714
0.8144677
0.8145449
0.8146282
0.8147206
0.8148338
0.8150027
0.8151205
0.8152431
0.8153737
0.8155152
0.8156704
0.8158433
0.8160398
0.8162706
0.8165572
0.8172422
0.8180974
0.818953
0.8198408
0.8144678
0.8145455
0.8146308
0.8147287
0.8148517
0.8149926
0.8151001
0.8152147
0.8153377
0.8154705
0.8156153
0.8157745
0.8159517
0.8161515
0.8163785
0.8167782
0.8173688
0.8180128
0.8187276
0.819496
0.8144677
0.8145454
0.8146317
0.8147319
0.8148563
0.8149829
0.815082
0.8151892
0.8153048
0.8154295
0.8155644
0.8157109
0.8158704
0.816044
0.816231
0.8165348
0.8169862
0.8174862
0.8180463
0.8186792
0.8191986
0.8144673
0.8145445
0.8146304
0.8147307
0.8148534
0.8149714
0.8150642
0.8151652
0.8152743
0.8153917
0.815518
0.8156537
0.8157989
0.8159533
0.8161146
0.8163695
0.8167451
0.8171596
0.8176212
0.8181418
0.8185956
0.8189352
0.8144667
0.8145425
0.8146271
0.8147257
0.8148454
0.8149577
0.815046
0.8151421
0.8152457
0.8153571
0.8154764
0.8156035
0.8157382
0.8158793
0.8160245
0.8162516
0.8165845
0.8169491
0.8173509
0.8177988
0.8181826
0.8184996
0.8188237
0.814502
0.8146611
0.8148523
0.8150881
0.8153728
0.8144972
0.8146445
0.8148201
0.8150389
0.8153195
0.8155892
0.8144926
0.8146282
0.8147874
0.814984
0.8152425
0.8155217
0.8157398
0.814488
0.8146124
0.8147554
0.814928
0.8151564
0.8154343
0.815667
0.8159016
0.8144837
0.8145973
0.8147247
0.8148721
0.8150605
0.8153514
0.8155785
0.8158252
0.8160717
0.8144797
0.8145835
0.8146962
0.8148179
0.8149415
0.8144761
0.8145712
0.8146713
0.8147723
0.8148601
0.814473
0.8145609
0.8146508
0.8147367
0.8148041
0.8144706
0.8145526
0.814635
0.8147106
0.8147663
0.8144687
0.8145465
0.8146236
0.8146929
0.8147422
0.8144674
0.8145424
0.8146165
0.8146827
0.8147295
0.8144666
0.8145401
0.814613
0.8146791
0.8147266
0.8233052
0.8144663
0.8145392
0.8146127
0.8146813
0.8147332
0.8219333
0.8227567
0.8144663
0.8145395
0.8146148
0.8146884
0.8147497
0.8205285
0.8211639
0.8219719
0.8144664
0.8145404
0.8146183
0.8146993
0.8147776
0.8190428
0.8195385
0.8202179
0.8210483
0.8144666
0.8145415
0.8146221
0.8147114
0.8148205
0.8149831
0.815096
0.815213
0.8153372
0.8154711
0.8156172
0.8157788
0.8159612
0.8161735
0.8164348
0.8170635
0.8178355
0.8185892
0.8193931
0.8202601
0.8144667
0.8145422
0.8146249
0.8147195
0.8148383
0.8149741
0.8150772
0.8151869
0.8153041
0.8154302
0.8155671
0.8157168
0.8158823
0.8160676
0.8162759
0.8166434
0.8171829
0.8177598
0.81839
0.8190952
0.8196862
0.8144667
0.8145422
0.8146259
0.8147229
0.8148433
0.8149654
0.8150606
0.8151633
0.8152737
0.8153925
0.8155204
0.8156588
0.8158086
0.8159705
0.8161433
0.8164244
0.8168402
0.8172942
0.8177938
0.8183523
0.8188392
0.819215
0.8144664
0.8145414
0.8146249
0.8147221
0.8148408
0.8149548
0.8150441
0.815141
0.8152455
0.8153576
0.8154778
0.8156063
0.8157433
0.815888
0.816038
0.8162754
0.8166242
0.8170047
0.8174222
0.8178853
0.8182808
0.8186097
0.8189505
0.8144658
0.8145396
0.8146218
0.8147175
0.8148335
0.8149421
0.8150271
0.8151195
0.8152189
0.8153255
0.8154393
0.8155601
0.8156876
0.8158205
0.8159562
0.816169
0.8164804
0.8168182
0.817186
0.81759
0.8179249
0.8181953
0.8185132
0.8188384
0.8144978
0.8146466
0.8148246
0.8150466
0.8153294
0.8155957
0.8144937
0.8146321
0.8147956
0.8149987
0.8152624
0.8155341
0.8157474
0.8144895
0.8146176
0.8147667
0.8149493
0.8151885
0.8154506
0.8156762
0.815906
0.8144854
0.8146034
0.814738
0.8148992
0.8151108
0.8153671
0.8155856
0.8158284
0.8160725
0.8144814
0.8145897
0.8147102
0.8148486
0.815024
0.8152934
0.8155014
0.8157325
0.815988
0.8162452
0.8144777
0.8145769
0.814684
0.8147988
0.8149142
0.8144743
0.8145655
0.8146609
0.8147566
0.8148389
0.8144715
0.8145558
0.8146418
0.8147235
0.8147869
0.8144692
0.8145481
0.814627
0.8146991
0.8147517
0.8144674
0.8145424
0.8146165
0.8146827
0.8147295
0.8144662
0.8145386
0.8146099
0.8146733
0.8147179
0.8236031
0.8144655
0.8145365
0.8146068
0.8146703
0.8147156
0.8224682
0.8233555
0.8144652
0.8145358
0.8146067
0.8146727
0.8147224
0.8212817
0.821981
0.8228645
0.8144652
0.8145362
0.8146089
0.81468
0.8147388
0.8200776
0.8205874
0.8212836
0.8221586
0.8144654
0.8145372
0.8146125
0.8146908
0.8147662
0.8187464
0.8191652
0.8197333
0.8204639
0.8213416
0.8144656
0.8145383
0.8146164
0.8147028
0.8148081
0.8149649
0.8150732
0.8151851
0.8153036
0.8154307
0.8155689
0.8157209
0.8158914
0.8160885
0.8163292
0.816912
0.8176186
0.8182907
0.8189901
0.8197683
0.8204539
0.8144658
0.8145391
0.8146193
0.814711
0.8148258
0.8149568
0.8150559
0.815161
0.8152731
0.8153932
0.815523
0.8156645
0.81582
0.815993
0.816186
0.8165271
0.8170253
0.8175493
0.8181097
0.818726
0.8192665
0.8197038
0.8144658
0.8145392
0.8146205
0.8147145
0.814831
0.814949
0.8150406
0.8151392
0.8152449
0.8153583
0.8154801
0.8156112
0.8157526
0.8159045
0.8160653
0.8163275
0.8167142
0.8171312
0.8175829
0.8180784
0.8184992
0.8188541
0.8192312
0.8144655
0.8145385
0.8146196
0.814714
0.8148291
0.8149393
0.8150253
0.8151185
0.8152186
0.8153259
0.8154406
0.8155628
0.8156925
0.8158288
0.8159692
0.8161917
0.8165181
0.8168708
0.817253
0.8176705
0.8180149
0.8182939
0.8186237
0.8189656
0.814465
0.8145369
0.8146168
0.8147098
0.8148223
0.8149274
0.8150094
0.8150984
0.8151939
0.8152961
0.8154048
0.81552
0.8156411
0.8157667
0.8158943
0.8160948
0.8163878
0.8167032
0.8170434
0.8174123
0.8177088
0.8179368
0.8182079
0.8185266
0.8188528
0.8144943
0.8146341
0.8147998
0.8150059
0.8152716
0.8155403
0.8157514
0.8144906
0.8146213
0.8147745
0.814963
0.8152071
0.8154621
0.8156834
0.8159097
0.8144868
0.8146084
0.8147488
0.8149192
0.8151408
0.8153824
0.8155942
0.8158327
0.8160736
0.814483
0.8145954
0.8147229
0.8148742
0.8150713
0.8153081
0.815508
0.8157354
0.8159889
0.8162441
0.8144794
0.8145828
0.8146973
0.8148279
0.8149924
0.8152435
0.8154339
0.8156447
0.8158834
0.8161502
0.8164208
0.8144759
0.8145709
0.8146731
0.8147818
0.8148904
0.8144727
0.8145602
0.8146515
0.8147425
0.8148202
0.81447
0.8145512
0.8146336
0.8147115
0.8147715
0.8144678
0.8145439
0.8146197
0.8146887
0.8147386
0.8144662
0.8145386
0.8146099
0.8146733
0.8147179
0.8236031
0.8144651
0.814535
0.8146037
0.8146647
0.8147072
0.8227319
0.8236522
0.8144644
0.8145331
0.814601
0.8146621
0.8147055
0.8217639
0.8225113
0.8234554
0.8144642
0.8145326
0.8146011
0.8146647
0.8147125
0.8207712
0.8213248
0.8220744
0.8230219
0.8144642
0.814533
0.8146034
0.814672
0.8147286
0.8197127
0.8201321
0.820696
0.8214472
0.8223859
0.8144644
0.8145341
0.8146072
0.8146828
0.8147555
0.8184976
0.818861
0.8193456
0.8199571
0.8207238
0.8214993
0.8144647
0.8145353
0.8146111
0.8146947
0.8147966
0.814948
0.8150521
0.8151594
0.8152726
0.8153937
0.8155248
0.8156684
0.8158287
0.816013
0.8162366
0.8167815
0.8174355
0.8180447
0.8186619
0.8193321
0.8199416
0.8204719
0.8144649
0.8145362
0.8146141
0.8147029
0.8148141
0.8149407
0.8150361
0.815137
0.8152443
0.815359
0.8154826
0.8156167
0.8157636
0.815926
0.8161061
0.8164252
0.8168893
0.8173711
0.8178773
0.8184216
0.8188829
0.8192824
0.8197211
0.8144649
0.8145364
0.8146154
0.8147066
0.8148195
0.8149336
0.8150219
0.8151167
0.8152181
0.8153266
0.8154428
0.8155675
0.8157014
0.8158446
0.8159953
0.8162414
0.8166036
0.8169904
0.8174039
0.8178501
0.8182151
0.8185129
0.8188688
0.819247
0.8144646
0.8145358
0.8146147
0.8147063
0.814818
0.8149247
0.8150077
0.8150974
0.8151936
0.8152965
0.8154061
0.8155226
0.8156458
0.8157747
0.8159067
0.8161164
0.8164237
0.8167531
0.8171066
0.8174878
0.8177924
0.8180271
0.8183067
0.8186374
0.8189804
0.8144641
0.8145343
0.8146121
0.8147025
0.8148117
0.8149136
0.8149928
0.8150786
0.8151705
0.8152686
0.8153728
0.8154828
0.8155982
0.8157173
0.8158378
0.8160274
0.8163044
0.8166008
0.8169179
0.8172584
0.8175247
0.8177199
0.8179485
0.8182203
0.8185399
0.8188698
0.8144911
0.8146233
0.8147784
0.8149697
0.8152156
0.8154679
0.8156872
0.8159118
0.8144878
0.8146119
0.8147561
0.8149321
0.8151582
0.8153931
0.8156009
0.8158363
0.8160745
0.8144844
0.8146002
0.8147331
0.8148931
0.8150997
0.8153224
0.815516
0.8157394
0.81599
0.8162423
0.8144809
0.8145883
0.8147094
0.8148523
0.8150372
0.8152573
0.8154401
0.8156475
0.8158842
0.8161493
0.8164172
0.8144775
0.8145766
0.8146858
0.8148097
0.8149647
0.8152002
0.8153758
0.8155681
0.8157851
0.8160334
0.8163136
0.816601
0.8144742
0.8145655
0.8146631
0.8147667
0.8148693
0.8144712
0.8145554
0.8146429
0.8147297
0.8148033
0.8144687
0.8145469
0.8146261
0.8147006
0.8147576
0.8144666
0.8145401
0.814613
0.8146791
0.8147266
0.8233052
0.8144651
0.814535
0.8146037
0.8146647
0.8147072
0.8227319
0.8236522
0.814464
0.8145317
0.814598
0.8146567
0.8146973
0.8220016
0.8227738
0.8237501
0.8144634
0.81453
0.8145956
0.8146544
0.8146961
0.821215
0.8218028
0.8225971
0.8236042
0.8144632
0.8145295
0.8145959
0.8146573
0.8147032
0.82036
0.820811
0.8214092
0.8222105
0.8232255
0.8144633
0.8145301
0.8145983
0.8146646
0.8147191
0.8194075
0.8197637
0.8202324
0.8208442
0.8216458
0.822523
0.8144635
0.8145312
0.8146021
0.8146753
0.8147456
0.8182838
0.8186056
0.8190299
0.8195528
0.8201935
0.8208631
0.8215144
0.8144638
0.8145325
0.8146061
0.8146871
0.8147857
0.8149321
0.8150324
0.8151354
0.8152438
0.8153595
0.8154842
0.8156205
0.8157719
0.8159451
0.8161544
0.8166672
0.8172778
0.8178373
0.8183924
0.8189789
0.8194901
0.8199577
0.8204895
0.814464
0.8145334
0.8146091
0.8146953
0.8148031
0.8149255
0.8150175
0.8151146
0.8152175
0.8153273
0.8154452
0.8155728
0.815712
0.8158652
0.8160343
0.8163346
0.8167701
0.8172174
0.8176807
0.8181698
0.8185673
0.8188974
0.8192979
0.8197379
0.814464
0.8145337
0.8146105
0.8146992
0.8148087
0.8149192
0.8150043
0.8150957
0.8151931
0.8152971
0.8154083
0.8155272
0.8156544
0.8157899
0.8159318
0.8161639
0.8165052
0.8168667
0.8172493
0.8176565
0.8179787
0.8182279
0.8185264
0.8188831
0.8192624
0.8144638
0.8145332
0.8146101
0.8146991
0.8148076
0.8149109
0.8149911
0.8150776
0.8151702
0.815269
0.815374
0.8154854
0.8156027
0.815725
0.8158497
0.8160481
0.8163387
0.8166484
0.816978
0.8173297
0.8176032
0.8178039
0.8180391
0.8183194
0.818651
0.8189976
0.8144634
0.8145318
0.8146077
0.8146957
0.8148018
0.8149006
0.8149772
0.81506
0.8151486
0.8152429
0.8153429
0.8154483
0.8155583
0.8156717
0.8157858
0.8159658
0.8162287
0.8165086
0.8168061
0.817123
0.8173653
0.8175352
0.817731
0.8179601
0.8182325
0.8185554
0.8188856
0.8144884
0.8146138
0.8147599
0.8149384
0.8151662
0.8153985
0.8156045
0.8158383
0.816075
0.8144854
0.8146036
0.8147401
0.8149054
0.815116
0.8153324
0.8155223
0.8157428
0.815991
0.8162406
0.8144822
0.8145929
0.8147192
0.8148703
0.815064
0.8152707
0.8154476
0.8156512
0.8158853
0.8161478
0.8164119
0.814479
0.8145819
0.8146974
0.814833
0.8150074
0.8152134
0.8153817
0.8155707
0.8157858
0.8160325
0.8163105
0.8165933
0.8144757
0.8145709
0.8146754
0.8147933
0.8149402
0.8151624
0.8153256
0.8155023
0.8156996
0.8159245
0.8161842
0.8164803
0.8167901
0.8144727
0.8145605
0.8146541
0.8147529
0.8148503
0.8144699
0.814551
0.814635
0.8147181
0.8147881
0.8144674
0.8145429
0.8146191
0.8146905
0.8147449
0.8227017
0.8144655
0.8145365
0.8146068
0.8146703
0.8147156
0.8224682
0.8233555
0.814464
0.8145317
0.814598
0.8146567
0.8146973
0.8220016
0.8227738
0.8237501
0.814463
0.8145286
0.8145927
0.8146493
0.8146882
0.8214336
0.8220393
0.8228576
0.8238966
0.8144625
0.814527
0.8145905
0.8146473
0.8146873
0.8207741
0.8212509
0.8218801
0.8227247
0.8238007
0.8144623
0.8145267
0.814591
0.8146504
0.8146945
0.8200167
0.8203973
0.8208889
0.8215321
0.8223862
0.8233553
0.8144624
0.8145273
0.8145935
0.8146577
0.8147103
0.8191456
0.8194555
0.8198576
0.8203695
0.8210242
0.8217652
0.8225364
0.8144627
0.8145285
0.8145973
0.8146683
0.8147362
0.8180965
0.8183863
0.8187649
0.8192238
0.8197717
0.8203201
0.8208764
0.8215295
0.814463
0.8145298
0.8146014
0.81468
0.8147755
0.8149172
0.8150139
0.815113
0.8152171
0.8153278
0.8154468
0.8155764
0.8157199
0.8158836
0.8160806
0.8165655
0.8171395
0.8176587
0.8181652
0.8186893
0.8191255
0.8195048
0.8199734
0.8205067
0.8144632
0.8145308
0.8146045
0.8146882
0.8147927
0.8149113
0.8150001