/*--------------------------------*- C++ -*----------------------------------*\
| =========                 |                                                 |
| \\      /  F ield         | OpenFOAM: The Open Source CFD Toolbox           |
|  \\    /   O peration     | Version:  2306                                  |
|   \\  /    A nd           | Website:  www.openfoam.com                      |
|    \\/     M anipulation  |                                                 |
\*---------------------------------------------------------------------------*/
FoamFile
{
    version     2.0;
    format      ascii;
    arch        "LSB;label=32;scalar=64";
    class       volVectorField;
    location    "0.3/phiEA";
    object      i;
}
// * * * * * * * * * * * * * * * * * * * * * * * * * * * * * * * * * * * * * //

dimensions      [0 -2 0 0 0 1 0];

internalField   nonuniform List<vector> 
20000
(
(-739.2436 2654.416 2295.913)
(-772.5901 8535.517 2335.309)
(-1508.148 2320.951 2071.216)
(-738.3448 2652.84 6782.183)
(-845.3112 16150.92 2414.528)
(-1567.6 7474.84 2102.099)
(-771.6572 8530.772 6899.01)
(-1440.091 2059.888 1872.337)
(-1506.453 2319.716 6124.134)
(-736.6114 2649.743 11088.36)
(-969.4889 26323.3 2519.098)
(-1697.739 14181.93 2163.884)
(-844.3086 16143.56 7133.958)
(-1485.968 6639.603 1898.435)
(-1565.853 7471.134 6215.988)
(-769.858 8521.446 11280.35)
(-1242.135 1862.183 1712.236)
(-1438.655 2058.844 5540.658)
(-1503.181 2317.277 10023.82)
(-734.0866 2645.161 15273.64)
(-1159.064 37590.4 2569.381)
(-1921.197 23185.77 2242.996)
(-968.3845 26317.11 7443.665)
(-1587.035 12614.95 1950.605)
(-1695.883 14176.29 6399.815)
(-842.3746 16129.13 11666.55)
(-1277.527 6005.405 1735.148)
(-1484.5 6636.472 5618.402)
(-1562.478 7463.813 10175.31)
(-767.2371 8507.644 15539.39)
(-1059.091 1705.97 1580.331)
(-1240.967 1861.266 5070.327)
(-1435.876 2056.778 9077.954)
(-1498.412 2313.656 13819.71)
(-730.7956 2639.113 17940.05)
(-1408.643 42724.28 2401.253)
(-2264.444 33198.86 2267.925)
(-1157.858 37595.11 7589.416)
(-1762.191 20656.25 2016.57)
(-1919.187 23181.61 6635.026)
(-966.2544 26305.08 12174.95)
(-1355.736 11419.7 1780.944)
(-1585.503 12610.22 5773.865)
(-1692.299 14165.17 10478.65)
(-839.557 16107.78 16074.17)
(-1087.575 5503.597 1600.892)
(-1276.337 6002.656 5138.646)
(-1481.658 6630.275 9206.412)
(-1557.557 7452.94 14029.99)
(-763.8204 8489.425 18253.47)
(-910.409 1577.342 1468.546)
(-1058.116 1705.148 4682.413)
(-1238.702 1859.45 8314.303)
(-1431.817 2053.706 12525.91)
(-1492.19 2308.866 16242.36)
(-997.4343 3610.456 23571.69)
(-1652.52 38459.83 2305.147)
(-2718.733 37789.73 2094.226)
(-1407.415 42734.85 7078.84)
(-2033.946 29615.03 2032.256)
(-2262.295 33204.81 6707.329)
(-1155.536 37604.99 12408.15)
(-1491.859 18716.65 1838.425)
(-1760.572 20652.99 5970.356)
(-1915.304 23173.47 10866.55)
(-963.1509 26287.44 16777.74)
(-1150.629 10471.63 1641.999)
(-1354.501 11415.57 5275.249)
(-1582.536 12600.87 9463.428)
(-1687.071 14148.64 14451.28)
(-835.8831 16079.6 18884.5)
(-934.1728 5090.021 1487.258)
(-1086.583 5501.13 4743.766)
(-1274.028 5997.208 8427.32)
(-1477.508 6621.053 12704.48)
(-1551.138 7438.55 16490.83)
(-1042.542 11615.82 24013.02)
(-792.3213 1468.332 1371.841)
(-909.5751 1576.594 4353.373)
(-1056.223 1703.516 7683.658)
(-1235.39 1856.745 11480.12)
(-1426.517 2049.636 14730.38)
(-2037.357 3159.383 21345.56)
(-993.3295 3601.702 21861.32)
(-1850.58 29174.68 2273.798)
(-3163.869 34040.45 1989.243)
(-1651.256 38464.92 6786.212)
(-2396.605 33730.03 1869.009)
(-2716.604 37800.88 6183.174)
(-1405.06 42756.41 11544.41)
(-1703.976 26854.71 1849.368)
(-2032.272 29620.94 6015.853)
(-2258.149 33216.93 10982.4)
(-1152.155 37620.33 17094.48)
(-1260.641 17173.85 1693.34)
(-1490.566 18713.92 5446.661)
(-1757.437 20646.57 9788.214)
(-1909.64 23161.46 14990.08)
(-959.1037 26264.27 19714.93)
(-986.8413 9689.031 1524.68)
(-1149.604 10467.93 4866.465)
(-1352.106 11407.38 8653.421)
(-1578.202 12586.95 13061.98)
(-1680.25 14126.76 16988.96)
(-1140.994 22010.5 24902.82)
(-812.6589 4739.274 1389.04)
(-933.3254 5087.775 4409.234)
(-1084.657 5496.235 7785.235)
(-1270.652 5989.092 11637.37)
(-1472.088 6608.832 14941.59)
(-2117.91 10180.22 21699.08)
(-1038.269 11589.39 22330.19)
(-698.1961 1373.966 1286.824)
(-791.5944 1467.644 4068.492)
(-907.9533 1575.108 7148.135)
(-1053.451 1701.085 10615.61)
(-1231.061 1853.16 13507.34)
(-1948.631 2804.925 19361.59)
(-2029.592 3152.303 19794.74)
(-989.168 3591.701 22141.13)
(-1986.683 17928.53 2267.269)
(-3526.181 25833.04 1948.512)
(-1849.279 29176.19 6689.57)
(-2753.303 30385.35 1769.009)
(-3161.724 34046.28 5866.464)
(-1648.841 38475.4 11048.27)
(-1987.966 30596.17 1697.235)
(-2395.017 33740.56 5524.11)
(-2712.514 37823.37 10102.14)
(-1401.646 42789.25 15869.91)
(-1432.491 24653.96 1701.414)
(-1702.653 26860.36 5478.393)
(-2029.031 29632.88 9861.175)
(-2252.107 33235.39 15147.81)
(-1147.749 37641.31 20085.01)
(-1078.884 15898.03 1571.252)
(-1259.573 17171.47 5019.691)
(-1488.056 18708.53 8937.147)
(-1752.855 20637.08 13513.92)
(-1902.248 23145.61 17626.51)
(-1309.436 35985.5 26068.51)
(-857.7763 9024.523 1423.453)
(-985.9671 9685.671 4520.993)
(-1147.612 10460.6 7988.492)
(-1348.601 11395.17 11952.16)
(-1572.54 12568.49 15364.73)
(-2294.388 19341.55 22409.27)
(-1136.38 21969.8 23277.56)
(-715.9367 4435.471 1302.752)
(-811.9209 4737.21 4119.86)
(-931.6772 5083.316 7240.68)
(-1081.837 5488.937 10757.03)
(-1266.238 5978.326 13693.45)
(-2010.951 9045.503 19663.56)
(-2109.877 10158.89 20176.85)
(-1033.928 11559.17 22672.37)
(-622.0424 1290.926 1211.177)
(-697.5534 1373.329 3817.86)
(-790.1793 1466.278 6684.027)
(-905.5765 1572.892 9880.853)
(-1049.826 1697.859 12495.63)
(-1681.99 2536.184 17756.48)
(-1942.01 2798.85 17951.26)
(-2021.717 3144.099 20046.25)
(-984.95 3580.452 22420.11)
(-2055.468 6026.304 2266.861)
(-3775.614 15879.65 1935.309)
(-1985.355 17928.8 6668.572)
(-3044.436 23057.22 1728.657)
(-3524.001 25835.2 5743.386)
(-1846.796 29179.38 10882.22)
(-2267.464 27562.15 1603.51)
(-2751.76 30390.96 5223.118)
(-3157.616 34058.04 9570.784)
(-1645.346 38491.41 15166.3)
(-1662.974 28095.15 1559.328)
(-1986.727 30606 5020.512)
(-2391.954 33761.74 9037.064)
(-2706.575 37857.34 13906.63)
(-1397.207 42833.54 18614.6)
(-1222.9 22831.39 1577.411)
(-1431.403 24659.32 5043.092)
(-1700.085 26871.76 8988.061)
(-2024.295 29650.98 13613.48)
(-2244.225 33260.27 17811.43)
(-1567.627 51653.96 26539.25)
(-936.7225 14813.27 1466.166)
(-1077.975 15895.92 4660.072)
(-1257.495 17166.78 8242.365)
(-1484.382 18700.53 12347.42)
(-1746.867 20624.51 15900.2)
(-2598.008 31719.17 23316.19)
(-1304.333 35954.11 24508.35)
(-755.322 8448.396 1334.638)
(-857.0161 9021.438 4222.673)
(-984.2661 9678.998 7425.932)
(-1144.694 10449.65 11040.21)
(-1344.019 11378.98 14066.29)
(-2148.358 17209.52 20269.91)
(-2285.811 19309.16 20946.96)
(-1131.672 21923.37 23747.8)
(-637.7424 4168.015 1226.013)
(-715.2846 4433.559 3865.449)
(-810.4838 4733.107 6769.171)
(-929.2611 5076.663 10009.77)
(-1078.147 5479.251 12663.09)
(-1730.109 8182.949 18023.37)
(-2004.161 9027.208 18280.25)
(-2101.71 10134.13 20484.59)
(-1029.518 11525.13 23013.72)
(-559.4057 1216.966 1143.235)
(-621.4681 1290.333 3594.706)
(-696.3009 1372.063 6275.351)
(-788.1033 1464.239 9243.571)
(-902.4652 1569.951 11635.24)
(-1434.463 2323.73 16428.66)
(-1676.58 2530.801 16460.18)
(-1935.293 2791.765 18175.93)
(-2013.731 3134.77 20297.05)
(-980.6757 3567.956 33078.64)
(-2055.468 -6026.304 2266.861)
(-3901.833 5338.456 1931.624)
(-2054.127 6026.32 6666.74)
(-3245.314 14172.01 1714.597)
(-3773.404 15880.33 5703.368)
(-1982.822 17929.44 10844.53)
(-2495.578 20912.93 1565.051)
(-3042.902 23059.4 5101.656)
(-3519.83 25839.57 9363.969)
(-1843.206 29184.34 14928.75)
(-1889.831 25309.23 1471.519)
(-2266.274 27567.43 4738.685)
(-2748.792 30402.24 8533.414)
(-3151.665 34075.81 13158.83)
(-1640.811 38513.04 17771.04)
(-1416.278 26022.77 1444.245)
(-1661.962 28104.35 4615.656)
(-1984.332 30625.75 8221.457)
(-2387.494 33793.67 12453.33)
(-2698.848 37902.92 16326.29)
(-1909.704 58809.34 24269.28)
(-1060.403 21280.02 1470.981)
(-1221.978 22836.47 4677.91)
(-1429.289 24670.12 8279.925)
(-1696.328 26888.99 12417.04)
(-2018.108 29675.31 16017.33)
(-3066.29 45651.28 23549.28)
(-1562.096 51694.33 24915.12)
(-824.3066 13871.76 1374.134)
(-935.934 14811.36 4350.288)
(-1076.206 15891.76 7656.536)
(-1254.45 17159.81 11394.17)
(-1479.577 18689.93 14534.98)
(-2386.956 28266.48 21036.29)
(-2588.669 31696.95 21926.08)
(-1299.107 35919.99 25137.86)
(-672.6181 7940.824 1255.727)
(-754.6511 8445.541 3960.745)
(-855.5353 9015.306 6939.681)
(-981.7718 9669.037 10268)
(-1140.875 10435.11 12998.66)
(-1836.531 15581.5 18559.3)
(-2141.226 17181.88 18943.16)
(-2277.051 19271.58 21370.35)
(-1126.87 21871.18 24217.58)
(-573.4542 3929.715 1157.118)
(-637.1599 4166.233 3639.045)
(-714.0134 4429.756 6354.265)
(-808.3753 4726.983 9362.227)
(-926.098 5067.83 11787.96)
(-1473.209 7500.09 16669.34)
(-1724.579 8166.735 16752.35)
(-1997.253 9005.827 18555.43)
(-2093.41 10105.93 20791.61)
(-1025.04 11487.27 34046.89)
(-507.0944 1150.441 1081.73)
(-558.8879 1216.411 3394.16)
(-620.3476 1289.153 5911.185)
(-694.462 1370.173 8681.995)
(-785.3838 1461.531 10888.57)
(-1233.118 2148.732 15299.38)
(-1429.933 2318.866 15227.3)
(-1671.094 2524.498 16663.47)
(-1928.479 2783.67 18399.98)
(-2005.636 3124.316 29943.36)
(-467.604 1711.833 22983.99)
(-1986.683 -17928.53 2267.269)
(-3901.833 -5338.456 1931.624)
(-2054.127 -6026.32 6666.74)
(-3347.115 4764.122 1710.284)
(-3899.606 5338.604 5692.156)
(-2051.569 6026.377 10840.31)
(-2652.949 12852.86 1551.263)
(-3243.778 14172.75 5059.334)
(-3769.178 15881.7 9296.495)
(-1979.163 17930.48 14873.23)
(-2074.917 19202.37 1435.151)
(-2494.404 20915.02 4623.095)
(-3039.955 23063.77 8330.223)
(-3513.793 25846.17 12867.6)
(-1838.551 29191.11 17485.02)
(-1606.616 23442.72 1361.795)
(-1888.864 25314.19 4351.767)
(-2263.979 27578.04 7750.432)
(-2744.479 30419.23 11745.96)
(-3143.935 34099.61 15433.95)
(-2243.654 52850.19 22961.37)
(-1226.626 24257.98 1345.772)
(-1415.423 26031.39 4277.439)
(-1660.002 28122.8 7564.714)
(-1980.838 30655.5 11338.69)
(-2381.683 33836.44 14630.65)
(-3690.019 52049.06 21300.98)
(-1904.297 58886.26 22145.6)
(-932.4869 19932.35 1377.972)
(-1059.605 21284.84 4364.222)
(-1220.184 22846.69 7685.174)
(-1426.192 24686.43 11445.64)
(-1691.414 26912.11 14617.19)
(-2758.653 40733.85 21182.4)
(-3056.368 45694.69 22122.64)
(-1556.457 51748.47 25525.47)
(-733.7518 13041.62 1292.475)
(-823.6118 13870.03 4078.793)
(-934.3973 14807.6 7151.4)
(-1073.611 15885.55 10589.71)
(-1250.464 17150.57 13418.62)
(-2022.111 25616.22 19232.62)
(-2379.368 28248.55 19778.78)
(-2579.09 31672.14 22494.27)
(-1293.759 35883.01 25769.02)
(-604.677 7488.302 1184.938)
(-672.0193 7938.165 3727.876)
(-753.3428 8439.862 6512.373)
(-853.3618 9006.149 9600.005)
(-978.5053 9655.8 12094.07)
(-1559.047 14289.5 17152.74)
(-1830.757 15557.08 17341.14)
(-2133.935 17149.58 19322.28)
(-2268.109 19228.77 21793.36)
(-1121.975 21813.16 36014.71)
(-519.7798 3715.301 1094.771)
(-572.9292 3928.047 3435.661)
(-636.0233 4162.688 5984.735)
(-712.1469 4424.078 8792.007)
(-805.6128 4718.849 11029.17)
(-1265.452 6937.112 15519.23)
(-1468.584 7485.438 15491.66)
(-1718.955 8147.71 17001.62)
(-1990.229 8981.354 18829.98)
(-2084.976 10074.28 30757.22)
(-488.6494 5524.778 23810.34)
(-462.7753 1090.112 1025.688)
(-506.6242 1149.919 3212.513)
(-557.8769 1215.306 5583.667)
(-618.7014 1287.391 8181.244)
(-692.0516 1367.662 10230.26)
(-1073.12 2000.386 14319.26)
(-1229.229 2144.282 14179.2)
(-1425.339 2313.155 15413.47)
(-1665.53 2517.275 16866.22)
(-1921.57 2774.565 27139.17)
(-959.7456 1501.38 20801.61)
(-421.6432 1512.467 24757.16)
(-1850.58 -29174.68 2273.798)
(-3775.615 -15879.65 1935.309)
(-1985.355 -17928.8 6668.572)
(-3347.115 -4764.122 1710.284)
(-3899.606 -5338.604 5692.156)
(-2051.569 -6026.377 10840.31)
(-2732.693 4320.444 1546.892)
(-3345.576 4764.294 5046.357)
(-3895.351 5338.905 9277.512)
(-2047.875 6026.489 14866.14)
(-2202.556 11800.86 1421.914)
(-2651.778 12853.58 4581.689)
(-3240.827 14174.23 8259.431)
(-3763.063 15883.79 12772.38)
(-1974.419 17931.94 17417.11)
(-1761.863 17785.68 1327.45)
(-2073.966 19204.36 4242.545)
(-2492.141 20919.21 7557.404)
(-3035.676 23070.36 11460.79)
(-3505.958 25855.03 15086.56)
(-2514.668 40043.66 22504.47)
(-1390.243 21853.37 1268.158)
(-1605.803 23447.39 4029.741)
(-1886.995 25324.15 7123.958)
(-2260.637 27594 10677.75)
(-2738.868 30441.95 13787.67)
(-4300.432 46800.55 19954.34)
(-2238.227 52888.48 20538.86)
(-1077.979 22724.37 1259.916)
(-1225.889 24266.1 3987.768)
(-1413.766 26048.69 7015.345)
(-1657.138 28150.58 10440.06)
(-1976.279 30695.33 13329)
(-3257.835 46467.92 19095.31)
(-3680.581 52124.95 19453.32)
(-1898.935 58984.39 22084.67)
(-829.6944 18743.3 1295.578)
(-931.7853 19936.92 4089.891)
(-1058.051 21294.52 7173.773)
(-1217.553 22862.12 10629.04)
(-1422.137 24708.29 13479.64)
(-2312.471 36942.49 19334.05)
(-2750.83 40775.2 19898.39)
(-3046.223 45750.19 22678.17)
(-1550.707 51816.46 26141.99)
(-659.4438 12301 1219.298)
(-733.1325 13040.02 3837.745)
(-822.2564 13866.6 6708.314)
(-932.1411 14802 9895.516)
(-1070.212 15877.31 12475.95)
(-1709.094 23507.08 17757.65)
(-2016.019 25600.92 18079.67)
(-2371.57 28228.27 20288.24)
(-2569.27 31644.64 23063.96)
(-1288.287 35843.02 38547.18)
(-547.9856 7080.927 1120.915)
(-604.1378 7485.815 3518.848)
(-670.8505 7932.876 6132.168)
(-751.4211 8431.379 9012.565)
(-850.5135 8993.974 11311.13)
(-1337.173 13222.65 15960.95)
(-1554.236 14267.48 16024.58)
(-1824.857 15528.41 17685.05)
(-2126.485 17112.57 19701.08)
(-2258.985 19180.69 32410.07)
(-534.798 10571.1 25511.63)
(-474.3153 3520.803 1037.977)
(-519.3033 3713.734 3251.505)
(-571.904 3924.727 5652.531)
(-634.353 4157.393 8283.81)
(-709.6998 4416.533 10360.65)
(-1100.799 6459.54 14521.95)
(-1261.488 6923.704 14421.33)
(-1463.884 7468.199 15720.17)
(-1713.238 8125.871 17250.34)
(-1983.088 8953.783 27849.54)
(-997.5108 4852.838 21506.95)
(-439.9147 4911.644 25902.96)
(-424.7086 1035.041 974.3304)
(-462.3457 1089.621 3046.915)
(-505.7054 1148.881 5286.808)
(-556.3904 1213.656 7730.607)
(-616.5421 1285.05 9642.953)
(-945.572 1871.941 13455.03)
(-1069.72 1996.278 13269.85)
(-1225.288 2139.047 14351.24)
(-1420.684 2306.598 15599.15)
(-1659.89 2509.133 24872.54)
(-924.0073 1334.182 18845.13)
(-872.5048 1329.751 22401.73)
(-373.3867 1253.513 25831.75)
(-1652.52 -38459.83 2305.147)
(-3526.181 -25833.04 1948.512)
(-1849.279 -29176.19 6689.57)
(-3245.314 -14172.01 1714.597)
(-3773.404 -15880.33 5703.368)
(-1982.822 -17929.44 10844.53)
(-2732.693 -4320.444 1546.892)
(-3345.576 -4764.294 5046.357)
(-3895.351 -5338.905 9277.512)
(-2047.875 -6026.489 14866.14)
(-2267.217 3966.685 1417.646)
(-2731.522 4320.619 4568.576)
(-3342.621 4764.641 8237.737)
(-3889.196 5339.363 12745.51)
(-2043.087 6026.661 17407.85)
(-1868.892 10929.85 1314.835)
(-2201.61 11801.56 4202.833)
(-2649.523 12855.04 7488.332)
(-3236.545 14176.45 11361.47)
(-3755.131 15886.59 14972.86)
(-2700.872 24594.61 22386.53)
(-1523.671 16579.61 1235.706)
(-1761.065 17787.56 3926.64)
(-2072.131 19208.33 6941.732)
(-2488.85 20925.51 10407.22)
(-3030.113 23079.15 13448.23)
(-4796.771 35471.47 19428.07)
(-2509.136 40056.51 19955.16)
(-1221.197 20472.27 1186.682)
(-1389.543 21857.78 3754.653)
(-1604.228 23456.75 6601.806)
(-1884.27 25339.11 9821.916)
(-2256.283 27615.3 12541.83)
(-3747.991 41782.67 17832.55)
(-4291.167 46840.09 17860.1)
(-2232.939 52937.81 20084.91)
(-958.7987 21370.89 1183.991)
(-1077.332 22732.02 3735.003)
(-1224.456 24282.37 6544.292)
(-1411.342 26074.73 9687.573)
(-1653.397 28187.75 12278.78)
(-2703.676 42155.68 17400.82)
(-3250.707 46538.26 17440.9)
(-3671.201 52219.57 19415.33)
(-1893.619 59103.88 22021.49)
(-745.45 17681.89 1221.836)
(-829.0699 18747.64 3846.707)
(-930.4168 19946.11 6726.137)
(-1055.769 21309.12 9926.323)
(-1214.107 22882.78 12522.78)
(-1944.431 33918.2 17832.07)
(-2306.252 36981.31 18160.03)
(-2742.803 40827.36 20397.37)
(-3035.855 45817.85 23239.22)
(-1544.846 51898.37 39074.64)
(-597.4883 11633.89 1153.173)
(-658.8866 12299.52 3621.607)
(-731.9231 13036.86 6314.603)
(-820.2647 13861.48 9286.163)
(-929.1832 14794.55 11662.04)
(-1462.745 21762.38 16512.13)
(-1704.04 23493.6 16690.84)
(-2009.759 25583.47 18542.33)
(-2363.561 28205.54 20799.07)
(-2559.21 31614.31 34508.84)
(-614.7688 17694.89 27758.75)
(-499.9842 6711.217 1062.625)
(-547.4963 7078.591 3329.699)
(-603.0843 7480.865 5790.636)
(-669.1324 7924.97 8489.534)
(-748.9009 8420.096 10622.25)
(-1162.251 12316.57 14929.37)
(-1333.057 13202.52 14909.58)
(-1549.321 14241.54 16340.2)
(-1818.829 15495.46 18028.68)
(-2118.876 17070.82 29292.52)
(-1080.639 9309.901 22959.74)
(-480.3399 9601.7 28336.83)
(-435.2713 3343.213 985.942)
(-473.88 3519.326 3083.666)
(-518.3718 3710.614 5351.526)
(-570.3964 3919.768 7826.662)
(-632.1619 4150.356 9764.544)
(-969.7211 6045.803 13643.22)
(-1097.336 6447.161 13493.56)
(-1257.46 6907.896 14632.66)
(-1459.109 7448.369 15948.17)
(-1707.428 8101.212 25508.57)
(-953.4459 4315.844 19464.84)
(-905.467 4324.678 23394.19)
(-388.2984 4092.909 27258.87)
(-391.6147 984.4859 927.0529)
(-424.3141 1034.576 2895.086)
(-461.5056 1088.642 5016.005)
(-504.3536 1147.331 7321.918)
(-554.4396 1211.464 9114.181)
(-842.3822 1758.894 12683.93)
(-942.558 1868.124 12468.23)
(-1066.276 1991.437 13429.92)
(-1221.295 2133.026 14522.83)
(-1415.966 2299.194 23000.94)
(-799.9346 1206.995 17264.38)
(-849.3862 1182.845 20282.23)
(-780.7484 1104.396 23372.86)
(-323.2875 941.6192 26681.94)
(-1408.643 -42724.28 2401.253)
(-3163.869 -34040.45 1989.243)
(-1651.256 -38464.92 6786.212)
(-3044.436 -23057.22 1728.657)
(-3524.001 -25835.2 5743.386)
(-1846.796 -29179.38 10882.22)
(-2652.949 -12852.86 1551.263)
(-3243.778 -14172.75 5059.334)
(-3769.178 -15881.7 9296.495)
(-1979.163 -17930.48 14873.23)
(-2267.217 -3966.685 1417.646)
(-2731.522 -4320.619 4568.576)
(-3342.621 -4764.641 8237.737)
(-3889.196 -5339.363 12745.51)
(-2043.087 -6026.661 17407.85)
(-1923.101 3673.834 1310.729)
(-2266.272 3966.856 4190.049)
(-2729.267 4320.969 7466.493)
(-3338.332 4765.162 11331.06)
(-3881.211 5339.979 14940.74)
(-2794.981 8265.407 22365.55)
(-1615.639 10188.48 1223.717)
(-1868.099 10930.52 3888.816)
(-2199.785 11802.96 6875.569)
(-2646.243 12857.22 10310.51)
(-3230.98 14179.42 13330.08)
(-5138.352 21791.48 19254.47)
(-2695.246 24597.94 19789.3)
(-1337.974 15531.72 1155.985)
(-1522.985 16581.39 3657.262)
(-1759.522 17791.32 6429.885)
(-2069.456 19214.29 9566.706)
(-2484.565 20933.9 12220.11)
(-4147.488 31664.45 17324.66)
(-4787.452 35486.32 17233.76)
(-2503.783 40073.64 19343.32)
(-1085.891 19253.43 1114.739)
(-1220.583 20476.43 3515.08)
(-1388.184 21866.59 6155.212)
(-1601.928 23470.81 9107.795)
(-1880.715 25359.09 11542.86)
(-3087.987 37904.02 16225.89)
(-3741.247 41819.78 15962.78)
(-4282.127 46889.33 17475.98)
(-2227.791 52998.14 19628.99)
(-861.2373 20162.4 1116.134)
(-958.2235 21378.12 3511.31)
(-1076.073 22747.36 6132.841)
(-1222.359 24306.84 9041.765)
(-1408.173 26109.54 11398.74)
(-2262.057 38712.76 16033.16)
(-2698.077 42220.77 15893.22)
(-3243.595 46625.35 17408.67)
(-3661.877 52333.04 19375.21)
(-1888.35 59244.91 31920.07)
(-675.2712 16725.37 1155.269)
(-744.8888 17686.01 3628.929)
(-827.8506 18756.36 6329.001)
(-928.4062 19959.94 9310.771)
(-1052.778 21328.67 11698.89)
(-1660.019 31412.85 16568.53)
(-1939.298 33954.63 16747.68)
(-2299.868 37029.94 18613.49)
(-2734.571 40890.39 20901.3)
(-3025.261 45897.74 34757.71)
(-741.0553 26452.9 28266.25)
(-545.0563 11028.14 1093.011)
(-596.9832 11632.51 3426.194)
(-657.7976 12296.6 5961.324)
(-730.1445 13032.15 8744.358)
(-817.6518 13854.67 10947.23)
(-1269.979 20278.62 15436.66)
(-1458.435 21750.3 15518.59)
(-1698.849 23478.15 17115.82)
(-2003.33 25563.78 19006.24)
(-2355.339 28180.26 31115.16)
(-1225.519 15632.32 24864.24)
(-552.3967 17005.07 31830.77)
(-458.7723 6373.518 1009.241)
(-499.5375 6709.016 3157.399)
(-546.5398 7073.94 5481.376)
(-601.5346 7473.464 8019.418)
(-666.8779 7914.454 10008.6)
(-1023.375 11530.86 14021.64)
(-1158.661 12298 13944.83)
(-1328.854 13178.76 15201.75)
(-1544.302 14211.65 16655.56)
(-1812.674 15458.18 26800.87)
(-1018.661 8291.015 20741.97)
(-978.6772 8476.881 25505.89)
(-421.5604 8199.974 30430.57)
(-401.3299 3180.167 938.0474)
(-434.8715 3341.816 2929.816)
(-473.0286 3516.384 5077.016)
(-517.0012 3705.951 7412.208)
(-568.4176 3913.175 9228.074)
(-863.7568 5681.509 12859.58)
(-966.6531 6034.296 12676.3)
(-1093.819 6432.54 13690.31)
(-1253.368 6889.684 14843.52)
(-1454.257 7425.942 23579.76)
(-822.724 3906.304 17821.38)
(-875.2923 3849.92 21159.61)
(-807.7767 3611.173 24618.94)
(-334.3174 3072.118 28339.87)
(-362.5586 937.8884 883.3487)
(-391.2508 984.0462 2755.255)
(-423.542 1033.652 4767.565)
(-460.2687 1087.18 6948.896)
(-502.5786 1145.27 8634.422)
(-757.5172 1658.195 11989.59)
(-839.6817 1755.328 11753.14)
(-939.5051 1863.618 12617.95)
(-1062.787 1985.863 13589.57)
(-1217.25 2126.219 21411.78)
(-682.8886 1106.287 15960.49)
(-739.1139 1070.689 18570.53)
(-770.7594 983.2305 21152.52)
(-685.3353 831.32 24144.24)
(-271.8787 590.3399 18629.26)
(-1159.064 -37590.4 2569.381)
(-2718.733 -37789.73 2094.226)
(-1407.415 -42734.85 7078.84)
(-2753.303 -30385.35 1769.009)
(-3161.724 -34046.28 5866.464)
(-1648.841 -38475.4 11048.27)
(-2495.578 -20912.93 1565.051)
(-3042.902 -23059.4 5101.656)
(-3519.83 -25839.57 9363.969)
(-1843.206 -29184.34 14928.75)
(-2202.556 -11800.86 1421.914)
(-2651.778 -12853.58 4581.689)
(-3240.827 -14174.23 8259.431)
(-3763.063 -15883.79 12772.38)
(-1974.419 -17931.94 17417.11)
(-1923.101 -3673.834 1310.729)
(-2266.272 -3966.856 4190.049)
(-2729.267 -4320.969 7466.493)
(-3338.332 -4765.162 11331.06)
(-3881.211 -5339.98 14940.74)
(-2794.981 -8265.407 22365.55)
(-1662.213 3424.597 1219.792)
(-1922.31 3673.998 3876.523)
(-2264.449 3967.196 6854.309)
(-2725.988 4321.493 10279.98)
(-3332.759 4765.857 13293.92)
(-5311.187 7324.317 19205.02)
(-2789.305 8265.974 19752.57)
(-1418.453 9544.431 1144.602)
(-1614.958 10189.12 3621.326)
(-1866.566 10931.86 6366.908)
(-2197.125 11805.06 9474.167)
(-2641.974 12860.13 12105.23)
(-4422.96 19450.45 17148.12)
(-5128.94 21796.24 17024.85)
(-2689.814 24602.71 19122.37)
(-1189.511 14607.05 1085.664)
(-1337.373 15533.41 3422.973)
(-1521.656 16584.95 5992.866)
(-1757.27 17796.96 8867.121)
(-2065.971 19222.24 11239.52)
(-3401.163 28721.79 15747.18)
(-4140.86 31678.79 15368.97)
(-4778.426 35504.88 16711.66)
(-2498.609 40095.01 18730.7)
(-975.2284 18165.15 1050.519)
(-1085.346 19257.36 3303.373)
(-1219.391 20484.75 5765.854)
(-1386.199 21879.83 8496.405)
(-1598.926 23489.57 10708.67)
(-2574.085 34807.8 14937.08)
(-3082.749 37938.56 14525.06)
(-3734.651 41865.55 15621.2)
(-4273.312 46948.24 17089.97)
(-2222.783 53069.44 27780.24)
(-780.03 19073.1 1054.953)
(-860.7211 20169.25 3311.256)
(-957.1037 21392.62 5768.38)
(-1074.228 22770.43 8477.205)
(-1219.615 24339.56 10642.98)
(-1926.581 35859.14 14886.8)
(-2257.46 38773.29 14643.85)
(-2692.488 42301.08 15863.84)
(-3236.501 46729.31 17374.52)
(-3652.613 52465.53 28110.07)
(-916.7558 30477.01 21164.86)
(-615.9083 15856.47 1094.752)
(-674.7629 16729.29 3432.233)
(-743.7921 17694.3 5973.089)
(-826.0577 18769.49 8764.297)
(-925.7687 19978.46 10976.82)
(-1439.431 29279.84 15480.45)
(-1655.654 31447.11 15559.92)
(-1934.03 34000.08 17164.4)
(-2293.32 37088.45 19071.45)
(-2726.132 40964.35 31259.87)
(-1455.803 23433.03 25179.81)
(-674.6294 28174.61 33284.64)
(-500.05 10474.65 1037.94)
(-544.5953 11026.86 3248.311)
(-595.9951 11629.79 5641.704)
(-656.195 12292.23 8257.899)
(-727.81 13025.87 10311.36)
(-1117.525 18990.58 14492.07)
(-1266.228 20267.63 14506.76)
(-1454.009 21736.37 15912.27)
(-1693.52 23460.64 17541.96)
(-1996.731 25541.75 28428.27)
(-1133.392 13943.25 22411.26)
(-1109.958 15062.18 28533.35)
(-482.872 15715.77 35627.21)
(-422.9499 6063.429 960.1169)
(-458.3622 6371.438 2999.523)
(-498.6635 6704.632 5199.484)
(-545.1317 7066.984 7593.48)
(-599.5001 7463.615 9456.789)
(-911.2739 10838.53 13212.95)
(-1020.198 11513.61 13096.17)
(-1154.997 12276.04 14217.05)
(-1324.564 13151.34 15493.69)
(-1539.181 14177.78 24756.14)
(-873.3617 7510.439 18969.72)
(-933.2004 7556.794 23028.22)
(-868.2943 7254.238 27395.25)
(-358.9272 6254.364 32205.17)
(-371.531 3029.861 893.7805)
(-400.9613 3178.844 2788.144)
(-434.0892 3339.035 4825.233)
(-471.7749 3511.986 7034.032)
(-515.2013 3699.751 8741.497)
(-776.6457 5356.887 12154.25)
(-861.009 5670.756 11947.64)
(-963.5375 6020.686 12860.42)
(-1090.247 6415.675 13886.63)
(-1249.213 6869.062 21944.26)
(-701.2627 3581.572 16468.75)
(-759.2254 3486.535 19361.94)
(-792.1559 3217.451 22257.8)
(-705.4243 2715.721 25598.4)
(-278.6397 1883.618 19850.28)
(-336.85 894.7615 842.8159)
(-362.2216 937.4711 2625.937)
(-390.5381 983.1704 4538.629)
(-422.4046 1032.27 6606.505)
(-458.644 1085.237 8196.354)
(-686.65 1567.608 11359.52)
(-755.0767 1654.85 11109.34)
(-836.9467 1751.114 11893.77)
(-936.4134 1858.425 12767.29)
(-1059.254 1979.555 20034.3)
(-587.1159 1023.254 14854.42)
(-632.1161 981.7299 17160.62)
(-675.0701 890.4317 19359.37)
(-688.8464 740.7295 21845.27)
(-587.2816 522.7303 16860.02)
(-1983.311 2919.738 59023.1)
(-969.489 -26323.3 2519.098)
(-2264.444 -33198.86 2267.925)
(-1157.858 -37595.11 7589.416)
(-2396.605 -33730.03 1869.009)
(-2716.604 -37800.88 6183.174)
(-1405.06 -42756.41 11544.41)
(-2267.464 -27562.15 1603.51)
(-2751.76 -30390.96 5223.118)
(-3157.617 -34058.04 9570.784)
(-1645.346 -38491.41 15166.3)
(-2074.917 -19202.37 1435.151)
(-2494.404 -20915.02 4623.095)
(-3039.955 -23063.77 8330.223)
(-3513.793 -25846.17 12867.6)
(-1838.551 -29191.11 17485.02)
(-1868.892 -10929.85 1314.835)
(-2201.61 -11801.56 4202.833)
(-2649.523 -12855.04 7488.332)
(-3236.545 -14176.45 11361.47)
(-3755.131 -15886.59 14972.86)
(-2700.872 -24594.61 22386.53)
(-1662.213 -3424.597 1219.792)
(-1922.31 -3673.998 3876.523)
(-2264.449 -3967.196 6854.309)
(-2725.988 -4321.493 10279.98)
(-3332.759 -4765.858 13293.92)
(-5311.187 -7324.318 19205.02)
(-2789.305 -8265.974 19752.57)
(-1459.205 3208.093 1140.862)
(-1661.534 3424.754 3609.577)
(-1920.779 3674.326 6346.48)
(-2261.792 3967.706 9444.477)
(-2721.721 4322.19 12068.99)
(-4562.531 6537.063 17094.3)
(-5301.718 7325.379 16964.66)
(-2783.829 8266.876 19068.97)
(-1260.915 8976.173 1074.858)
(-1417.858 9545.036 3388.86)
(-1613.639 10190.39 5933.056)
(-1864.329 10933.86 8779.085)
(-2193.659 11807.85 11129.65)
(-3617.062 17641.05 15577.04)
(-4416.349 19455.27 15162.98)
(-5119.847 21802.25 16455.16)
(-2684.577 24608.91 18455.2)
(-1068.163 13781.48 1022.94)
(-1188.979 14608.65 3216.143)
(-1336.209 15536.77 5612.351)
(-1519.715 16590.28 8269.199)
(-1754.332 17804.47 10422.69)
(-2828.251 26373.7 14487.17)
(-3396.053 28735.3 13969.92)
(-4134.432 31696.44 14904.38)
(-4769.696 35527.15 16188.74)
(-2493.615 40120.59 26212.61)
(-883.17 17184.16 992.671)
(-974.7401 18168.88 3114.256)
(-1084.288 19265.23 5421.447)
(-1217.648 20497.25 7962.9)
(-1383.605 21897.5 9993.983)
(-2188.433 32242.08 13860.5)
(-2569.805 34840.01 13371.54)
(-3077.622 37980.96 14214.7)
(-3728.202 41919.95 15277.91)
(-4264.723 47016.79 24204.93)
(-1085.835 26966.46 17284.95)
(-711.3584 18083.41 999.3764)
(-779.5629 19079.61 3130.769)
(-859.7151 20182.99 5442.163)
(-955.4608 21414.42 7976.745)
(-1071.813 22801.27 9981.912)
(-1668.605 33428.62 13902.09)
(-1922.684 35915.7 13596.69)
(-2252.871 38847.81 14616.59)
(-2686.908 42396.72 15832.7)
(-3229.425 46850.28 25210.43)
(-1777.978 27029.21 18678.24)
(-867.1439 33315.79 20798.27)
(-564.9563 15062.35 1039.389)
(-615.4448 15860.21 3253.321)
(-673.7688 16737.18 5651.411)
(-742.1784 17706.78 8274.247)
(-823.7045 18787.06 10335.47)
(-1265.763 27426.59 14526.71)
(-1435.643 29312.13 14537.35)
(-1651.177 31489.73 15946.09)
(-1928.628 34054.6 17585.27)
(-2286.604 37156.89 28520.04)
(-1317.659 20928.31 22643.68)
(-1334.223 25027.14 29709.8)
(-598.0618 30865.9 39923.74)
(-460.9348 9966.303 987.2877)
(-499.6271 10473.44 3085.404)
(-543.6931 11024.31 5350.575)
(-594.5402 11625.71 7817.542)
(-654.0904 12286.4 9740.193)
(-994.7196 17854.73 13651.69)
(-1114.211 18980.49 13618.3)
(-1262.378 20254.92 14873.77)
(-1449.467 21720.52 16307.04)
(-1688.053 23440.96 26234.69)
(-962.8274 12642.34 20468.17)
(-1038.054 13449.62 25705.95)
(-980.526 13950.76 31954.19)
(-405.4757 13207.8 39573.56)
(-391.5036 5777.469 914.7316)
(-422.5718 6061.46 2854.182)
(-457.5594 6367.295 4941.038)
(-497.3761 6698.074 7205.03)
(-543.2822 7057.726 8956.619)
(-819.1909 10221.23 12485.67)
(-908.4316 10822.42 12340.27)
(-1016.957 11493.18 13351.07)
(-1151.259 12250.67 14489.06)
(-1320.188 13120.22 23026.79)
(-742.16 6889.981 17516.95)
(-804.3162 6849.266 21048.43)
(-840.3622 6472.481 24723.55)
(-750.3965 5542.781 28998.81)
(-293.3061 3706.501 22782.49)
(-345.1698 2890.716 852.7332)
(-371.1898 3028.605 2657.147)
(-400.2393 3176.209 4593.25)
(-432.9365 3334.877 6686.989)
(-470.1277 3506.138 8297.331)
(-703.9244 5064.772 11514.44)
(-774.1636 5346.796 11291.91)
(-858.2192 5658.024 12120.66)
(-960.3745 6004.971 13044.15)
(-1086.622 6396.561 20528.03)
(-602.4632 3313.59 15322.95)
(-648.3545 3197.897 17884.55)
(-691.7217 2915.145 20358.27)
(-704.8656 2421.506 23137.58)
(-599.6852 1669.344 17933.09)
(-2015.605 8801.971 62842.4)
(-313.9559 854.691 805.1012)
(-336.537 894.3648 2505.955)
(-361.5614 936.64 4326.792)
(-389.4877 981.8613 6290.842)
(-420.9098 1030.432 7794.104)
(-626.616 1485.451 10784.13)
(-684.4288 1564.459 10525.21)
(-752.6055 1650.893 11241.88)
(-834.1774 1746.253 12034.03)
(-933.283 1852.544 18820.95)
(-510.8445 952.8138 13896.41)
(-543.6598 908.3055 15966.21)
(-578.7158 816.7146 17883.75)
(-608.3632 671.1276 19987.87)
(-604.5047 466.304 15253.42)
(-4354.723 2596.795 53523.06)
(-1836.656 1957.241 34712.57)
(-845.3112 -16150.92 2414.528)
(-1921.197 -23185.77 2242.996)
(-968.3846 -26317.11 7443.665)
(-2033.946 -29615.03 2032.256)
(-2262.295 -33204.81 6707.329)
(-1155.536 -37604.99 12408.15)
(-1987.966 -30596.17 1697.235)