/*--------------------------------*- C++ -*----------------------------------*\
| =========                 |                                                 |
| \\      /  F ield         | OpenFOAM: The Open Source CFD Toolbox           |
|  \\    /   O peration     | Version:  2306                                  |
|   \\  /    A nd           | Website:  www.openfoam.com                      |
|    \\/     M anipulation  |                                                 |
\*---------------------------------------------------------------------------*/
FoamFile
{
    version     2.0;
    format      ascii;
    arch        "LSB;label=32;scalar=64";
    class       volScalarField;
    location    "0.3/phiEA";
    object      J;
}
// * * * * * * * * * * * * * * * * * * * * * * * * * * * * * * * * * * * * * //

dimensions      [0 -3 0 0 0 1 0];

internalField   nonuniform List<scalar> 
20000
(
-1.096346e+09
-1.104666e+09
-9.892485e+08
-1.043599e+09
-1.121181e+09
-9.944354e+08
-1.051238e+09
-8.947751e+08
-9.445158e+08
-1.006385e+09
-1.145815e+09
-1.004473e+09
-1.066385e+09
-8.986128e+08
-9.493065e+08
-1.013573e+09
-8.186738e+08
-8.566204e+08
-9.127051e+08
-9.833025e+08
-1.17734e+09
-1.018869e+09
-1.088954e+09
-9.059563e+08
-9.585689e+08
-1.027817e+09
-8.217445e+08
-8.601825e+08
-9.172269e+08
-9.902374e+08
-7.558803e+08
-7.855022e+08
-8.293253e+08
-8.927408e+08
-9.729914e+08
-1.210434e+09
-1.036188e+09
-1.117799e+09
-9.162871e+08
-9.718442e+08
-1.049037e+09
-8.275802e+08
-8.669929e+08
-9.259648e+08
-1.003983e+09
-7.58442e+08
-7.883638e+08
-8.326977e+08
-8.971056e+08
-9.798444e+08
-7.025945e+08
-7.266076e+08
-7.616713e+08
-8.12056e+08
-8.835818e+08
0
-1.234177e+09
-1.052766e+09
-1.14803e+09
-9.283142e+08
-9.878054e+08
-1.076159e+09
-8.356802e+08
-8.765699e+08
-9.384872e+08
-1.024474e+09
-7.632889e+08
-7.937975e+08
-8.39142e+08
-9.055394e+08
-9.934383e+08
-7.047865e+08
-7.290027e+08
-7.643876e+08
-8.153148e+08
-8.878864e+08
0
-6.564496e+08
-6.764769e+08
-7.055109e+08
-7.465141e+08
-8.040101e+08
0
0
-1.248005e+09
-1.063474e+09
-1.169611e+09
-9.392173e+08
-1.00307e+09
-1.104595e+09
-8.448902e+08
-8.877146e+08
-9.535443e+08
-1.050706e+09
-7.699491e+08
-8.013368e+08
-8.482033e+08
-9.176306e+08
-1.013735e+09
-7.08922e+08
-7.335306e+08
-7.695424e+08
-8.215406e+08
-8.962069e+08
0
-6.583607e+08
-6.785321e+08
-7.077895e+08
-7.491419e+08
-8.072217e+08
0
0
-6.158488e+08
-6.329476e+08
-6.576071e+08
-6.920435e+08
-7.39393e+08
0
0
0
-1.255126e+09
-1.068919e+09
-1.18211e+09
-9.456993e+08
-1.012894e+09
-1.124823e+09
-8.529058e+08
-8.978102e+08
-9.679442e+08
-1.078275e+09
-7.773849e+08
-8.099053e+08
-8.587479e+08
-9.321814e+08
-1.039795e+09
-7.145602e+08
-7.397502e+08
-7.766938e+08
-8.302968e+08
-9.081455e+08
0
-6.619599e+08
-6.824065e+08
-7.120946e+08
-7.541276e+08
-8.133585e+08
0
0
-6.175393e+08
-6.347437e+08
-6.595661e+08
-6.942505e+08
-7.419827e+08
0
0
0
-5.797016e+08
-5.945558e+08
-6.159329e+08
-6.455292e+08
-6.856865e+08
0
0
0
0
-1.258068e+09
-1.071314e+09
-1.188511e+09
-9.485436e+08
-1.017867e+09
-1.136498e+09
-8.57344e+08
-9.037936e+08
-9.771811e+08
-1.097849e+09
-7.836459e+08
-8.173556e+08
-8.682972e+08
-9.461114e+08
-1.067298e+09
-7.207624e+08
-7.466898e+08
-7.848204e+08
-8.404914e+08
-9.225346e+08
0
-6.668359e+08
-6.87686e+08
-7.18007e+08
-7.610454e+08
-8.219938e+08
0
0
-6.207201e+08
-6.381238e+08
-6.63257e+08
-6.984192e+08
-7.468965e+08
0
0
0
-5.812132e+08
-5.961481e+08
-6.17648e+08
-6.474287e+08
-6.87862e+08
0
0
0
0
-5.472213e+08
-5.603009e+08
-5.791145e+08
-6.050205e+08
-6.398126e+08
0
0
0
0
0
-1.258068e+09
-1.072163e+09
-1.191143e+09
-9.49509e+08
-1.020043e+09
-1.14246e+09
-8.590032e+08
-9.064079e+08
-9.818415e+08
-1.109136e+09
-7.868937e+08
-8.214669e+08
-8.739374e+08
-9.550209e+08
-1.086823e+09
-7.25842e+08
-7.525257e+08
-7.918818e+08
-8.497265e+08
-9.363352e+08
0
-6.72135e+08
-6.934896e+08
-7.24602e+08
-7.689083e+08
-8.32057e+08
0
0
-6.250074e+08
-6.427007e+08
-6.682854e+08
-7.041444e+08
-7.537168e+08
0
0
0
-5.840565e+08
-5.99142e+08
-6.208737e+08
-6.510065e+08
-6.919713e+08
0
0
0
0
-5.485852e+08
-5.617275e+08
-5.806373e+08
-6.066851e+08
-6.416857e+08
0
0
0
0
0
-5.178082e+08
-5.2946e+08
-5.462119e+08
-5.691957e+08
-5.99848e+08
0
0
0
0
0
0
-1.255126e+09
-1.072163e+09
-1.191143e+09
-9.497332e+08
-1.020809e+09
-1.144906e+09
-8.593515e+08
-9.072884e+08
-9.838734e+08
-1.1149e+09
-7.878988e+08
-8.229948e+08
-8.763919e+08
-9.59508e+08
-1.098099e+09
-7.283212e+08
-7.555402e+08
-7.957629e+08
-8.551611e+08
-9.451409e+08
0
-6.763743e+08
-6.982346e+08
-7.301419e+08
-7.757387e+08
-8.411794e+08
0
0
-6.296206e+08
-6.476704e+08
-6.738103e+08
-7.105308e+08
-7.614733e+08
0
0
0
-5.878732e+08
-6.031751e+08
-6.252402e+08
-6.558806e+08
-6.976164e+08
0
0
0
0
-5.511511e+08
-5.644091e+08
-5.83499e+08
-6.098152e+08
-6.452137e+08
0
0
0
0
0
-5.19048e+08
-5.307495e+08
-5.475781e+08
-5.706752e+08
-6.014902e+08
0
0
0
0
0
0
-4.910009e+08
-5.014804e+08
-5.165457e+08
-5.371506e+08
-5.644911e+08
0
0
0
0
0
0
0
-1.248005e+09
-1.071314e+09
-1.188511e+09
-9.497332e+08
-1.020809e+09
-1.144906e+09
-8.593171e+08
-9.074895e+08
-9.845867e+08
-1.117266e+09
-7.879258e+08
-8.233086e+08
-8.772134e+08
-9.614635e+08
-1.103876e+09
-7.289289e+08
-7.564634e+08
-7.971958e+08
-8.575177e+08
-9.495737e+08
0
-6.783287e+08
-7.005381e+08
-7.329895e+08
-7.794755e+08
-8.465269e+08
0
0
-6.332386e+08
-6.516377e+08
-6.783207e+08
-7.158915e+08
-7.68211e+08
0
0
0
-5.919461e+08
-6.075102e+08
-6.299785e+08
-6.612353e+08
-7.039156e+08
0
0
0
0
-5.545837e+08
-5.680064e+08
-5.873526e+08
-6.140518e+08
-6.500209e+08
0
0
0
0
0
-5.213817e+08
-5.331739e+08
-5.50145e+08
-5.734546e+08
-6.045779e+08
0
0
0
0
0
0
-4.921352e+08
-5.026545e+08
-5.177824e+08
-5.384792e+08
-5.659512e+08
0
0
0
0
0
0
0
-4.66429e+08
-4.759365e+08
-4.895959e+08
-5.08232e+08
-5.328523e+08
0
0
0
0
0
0
0
0
-1.234177e+09
-1.068919e+09
-1.18211e+09
-9.49509e+08
-1.020043e+09
-1.14246e+09
-8.593171e+08
-9.074895e+08
-9.845867e+08
-1.117266e+09
-7.877634e+08
-8.232717e+08
-8.773985e+08
-9.621503e+08
-1.106255e+09
-7.287751e+08
-7.564786e+08
-7.974836e+08
-8.583035e+08
-9.515101e+08
0
-6.786825e+08
-7.010916e+08
-7.338513e+08
-7.808461e+08
-8.488385e+08
0
0
-6.348215e+08
-6.534543e+08
-6.804967e+08
-7.186314e+08
-7.718784e+08
0
0
0
-5.950876e+08
-6.109015e+08
-6.337539e+08
-6.656017e+08
-7.092e+08
0
0
0
0
-5.582217e+08
-5.718409e+08
-5.914918e+08
-6.186481e+08
-6.55303e+08
0
0
0
0
0
-5.24495e+08
-5.364151e+08
-5.535872e+08
-5.771971e+08
-6.087576e+08
0
0
0
0
0
0
-4.942718e+08
-5.048632e+08
-5.201062e+08
-5.409746e+08
-5.686941e+08
0
0
0
0
0
0
0
-4.674722e+08
-4.770123e+08
-4.907232e+08
-5.094355e+08
-5.34164e+08
0
0
0
0
0
0
0
0
-4.438059e+08
-4.524856e+08
-4.649615e+08
-4.819393e+08
-5.042895e+08
0
0
0
0
0
0
0
0
0
-1.210435e+09
-1.063474e+09
-1.169611e+09
-9.485436e+08
-1.017867e+09
-1.136498e+09
-8.593515e+08
-9.072884e+08
-9.838734e+08
-1.1149e+09
-7.877634e+08
-8.232717e+08
-8.773985e+08
-9.621503e+08
-1.106255e+09
-7.285461e+08
-7.563222e+08
-7.974442e+08
-8.584794e+08
-9.52193e+08
0
-6.784241e+08
-7.009373e+08
-7.338561e+08
-7.811157e+08
-8.496079e+08
0
0
-6.350094e+08
-6.537707e+08
-6.810084e+08
-7.194507e+08
-7.732143e+08
0
0
0
-5.963985e+08
-6.12373e+08
-6.354697e+08
-6.67694e+08
-7.118842e+08
0
0
0
0
-5.609885e+08
-5.747901e+08
-5.947226e+08
-6.223046e+08
-6.59606e+08
0
0
0
0
0
-5.27776e+08
-5.398459e+08
-5.572532e+08
-5.812154e+08
-6.132926e+08
0
0
0
0
0
0
-4.971156e+08
-5.078079e+08
-5.232116e+08
-5.443203e+08
-5.723877e+08
0
0
0
0
0
0
0
-4.694387e+08
-4.790377e+08
-4.92843e+08
-5.116965e+08
-5.366276e+08
0
0
0
0
0
0
0
0
-4.447682e+08
-4.534763e+08
-4.659956e+08
-4.830373e+08
-5.054782e+08
0
0
0
0
0
0
0
0
0
-4.228893e+08
-4.308626e+08
-4.423191e+08
-4.578866e+08
-4.783106e+08
0
0
0
0
0
0
0
0
0
0
-1.17734e+09
-1.052766e+09
-1.14803e+09
-9.456993e+08
-1.012894e+09
-1.124823e+09
-8.590032e+08
-9.064079e+08
-9.818415e+08
-1.109136e+09
-7.879258e+08
-8.233086e+08
-8.772134e+08
-9.614635e+08
-1.103876e+09
-7.285461e+08
-7.563222e+08
-7.974442e+08
-8.584794e+08
-9.52193e+08
0
-6.781609e+08
-7.007178e+08
-7.33703e+08
-7.81074e+08
-8.497799e+08
0
0
-6.34692e+08
-6.535175e+08
-6.808516e+08
-7.194462e+08
-7.734718e+08
0
0
0
-5.964763e+08
-6.125341e+08
-6.357563e+08
-6.681752e+08
-7.126767e+08
0
0
0
0
-5.620947e+08
-5.760085e+08
-5.961118e+08
-6.23953e+08
-6.61653e+08
0
0
0
0
0
-5.302419e+08
-5.424469e+08
-5.600655e+08
-5.843461e+08
-6.168958e+08
0
0
0
0
0
0
-5.000966e+08
-5.109068e+08
-5.264957e+08
-5.47882e+08
-5.763536e+08
0
0
0
0
0
0
0
-4.720491e+08
-4.817315e+08
-4.956677e+08
-5.147174e+08
-5.399309e+08
0
0
0
0
0
0
0
0
-4.465837e+08
-4.553432e+08
-4.679417e+08
-4.851013e+08
-5.077112e+08
0
0
0
0
0
0
0
0
0
-4.237806e+08
-4.317777e+08
-4.432724e+08
-4.588944e+08
-4.793954e+08
0
0
0
0
0
0
0
0
0
0
-4.034886e+08
-4.10843e+08
-4.214187e+08
-4.357623e+08
-4.545363e+08
0
0
0
0
0
0
0
0
0
0
0
-1.145815e+09
-1.036188e+09
-1.117799e+09
-9.392173e+08
-1.00307e+09
-1.104595e+09
-8.57344e+08
-9.037936e+08
-9.771811e+08
-1.097849e+09
-7.878988e+08
-8.229948e+08
-8.763919e+08
-9.59508e+08
-1.098099e+09
-7.287751e+08
-7.564786e+08
-7.974836e+08
-8.583035e+08
-9.515101e+08
0
-6.781609e+08
-7.007178e+08
-7.33703e+08
-7.81074e+08
-8.497799e+08
0
0
-6.344135e+08
-6.53265e+08
-6.806379e+08
-7.19294e+08
-7.734275e+08
0
0
0
-5.961281e+08
-6.122247e+08
-6.355048e+08
-6.680142e+08
-7.126636e+08
0
0
0
0
-5.620983e+08
-5.760665e+08
-5.96251e+08
-6.24217e+08
-6.621132e+08
0
0
0
0
0
-5.311905e+08
-5.434749e+08
-5.612153e+08
-5.856799e+08
-6.185068e+08
0
0
0
0
0
0
-5.023108e+08
-5.13228e+08
-5.289784e+08
-5.506086e+08
-5.794388e+08
0
0
0
0
0
0
0
-4.747724e+08
-4.845513e+08
-4.986375e+08
-5.179105e+08
-5.434472e+08
0
0
0
0
0
0
0
0
-4.489913e+08
-4.578194e+08
-4.705287e+08
-4.878513e+08
-5.106948e+08
0
0
0
0
0
0
0
0
0
-4.254659e+08
-4.335035e+08
-4.450681e+08
-4.607908e+08
-4.814346e+08
0
0
0
0
0
0
0
0
0
0
-4.04318e+08
-4.116917e+08
-4.223001e+08
-4.366921e+08
-4.555324e+08
0
0
0
0
0
0
0
0
0
0
0
-3.854352e+08
-3.922501e+08
-4.020482e+08
-4.153258e+08
-4.326604e+08
0
0
0
0
0
0
0
0
0
0
0
0
-1.121181e+09
-1.018869e+09
-1.088954e+09
-9.283142e+08
-9.878054e+08
-1.076159e+09
-8.529058e+08
-8.978102e+08
-9.679442e+08
-1.078275e+09
-7.868937e+08
-8.214669e+08
-8.739374e+08
-9.550209e+08
-1.086823e+09
-7.289289e+08
-7.564634e+08
-7.971958e+08
-8.575177e+08
-9.495737e+08
0
-6.784241e+08
-7.009373e+08
-7.338561e+08
-7.811157e+08
-8.496079e+08
0
0
-6.344135e+08
-6.53265e+08
-6.806379e+08
-7.19294e+08
-7.734275e+08
0
0
0
-5.958459e+08
-6.119572e+08
-6.352592e+08
-6.67803e+08
-7.1251e+08
0
0
0
0
-5.617362e+08
-5.757275e+08
-5.959456e+08
-6.239642e+08
-6.619461e+08
0
0
0
0
0
-5.311426e+08
-5.434634e+08
-5.612567e+08
-5.858017e+08
-6.187541e+08
0
0
0
0
0
0
-5.031319e+08
-5.141095e+08
-5.299481e+08
-5.517119e+08
-5.807411e+08
0
0
0
0
0
0
0
-4.767811e+08
-4.866381e+08
-5.008553e+08
-5.203188e+08
-5.461346e+08
0
0
0
0
0
0
0
0
-4.514978e+08
-4.60399e+08
-4.73234e+08
-4.907409e+08
-5.138482e+08
0
0
0
0
0
0
0
0
0
-4.276988e+08
-4.357904e+08
-4.474487e+08
-4.633113e+08
-4.841517e+08
0
0
0
0
0
0
0
0
0
0
-4.058885e+08
-4.132956e+08
-4.239617e+08
-4.384431e+08
-4.574067e+08
0
0
0
0
0
0
0
0
0
0
0
-3.862097e+08
-3.930407e+08
-4.028663e+08
-4.161859e+08
-4.335797e+08
0
0
0
0
0
0
0
0
0
0
0
0
-3.68592e+08
-3.749272e+08
-3.840406e+08
-3.963725e+08
-4.124466e+08
0
0
0
0
0
0
0
0
0
0
0
0
0
-1.104666e+09
-1.004473e+09
-1.066385e+09
-9.162871e+08
-9.718442e+08
-1.049037e+09
-8.448902e+08
-8.877146e+08
-9.535442e+08
-1.050706e+09
-7.836459e+08
-8.173556e+08
-8.682972e+08
-9.461114e+08
-1.067298e+09
-7.283212e+08
-7.555402e+08
-7.957629e+08
-8.551611e+08
-9.451409e+08
0
-6.786825e+08
-7.010916e+08
-7.338513e+08
-7.808461e+08
-8.488385e+08
0
0
-6.34692e+08
-6.535175e+08
-6.808516e+08
-7.194462e+08
-7.734718e+08
0
0
0
-5.958459e+08
-6.119572e+08
-6.352592e+08
-6.67803e+08
-7.1251e+08
0
0
0
0
-5.614569e+08
-5.754561e+08
-5.956852e+08
-6.237219e+08
-6.617343e+08
0
0
0
0
0
-5.307761e+08
-5.43111e+08
-5.609228e+08
-5.854966e+08
-6.184969e+08
0
0
0
0
0
0
-5.030496e+08
-5.140498e+08
-5.299236e+08
-5.517395e+08
-5.808493e+08
0
0
0
0
0
0
0
-4.775059e+08
-4.874008e+08
-5.016865e+08
-5.212487e+08
-5.47211e+08
0
0
0
0
0
0
0
0
-4.533355e+08
-4.622943e+08
-4.752294e+08
-4.928935e+08
-5.162224e+08
0
0
0
0
0
0
0
0
0
-4.300179e+08
-4.381677e+08
-4.499259e+08
-4.659452e+08
-4.870063e+08
0
0
0
0
0
0
0
0
0
0
-4.079678e+08
-4.154193e+08
-4.261624e+08
-4.40764e+08
-4.598978e+08
0
0
0
0
0
0
0
0
0
0
0
-3.876787e+08
-3.945373e+08
-4.04412e+08
-4.178073e+08
-4.353109e+08
0
0
0
0
0
0
0
0
0
0
0
0
-3.69317e+08
-3.756663e+08
-3.848034e+08
-3.971713e+08
-4.132973e+08
0
0
0
0
0
0
0
0
0
0
0
0
0
-3.528347e+08
-3.587468e+08
-3.672476e+08
-3.787417e+08
-3.936939e+08
0
0
0
0
0
0
0
0
0
0
0
0
0
0
-1.096346e+09
-9.944354e+08
-1.051238e+09
-9.059563e+08
-9.585688e+08
-1.027817e+09
-8.356802e+08
-8.765699e+08
-9.384872e+08
-1.024474e+09
-7.773849e+08
-8.099053e+08
-8.587479e+08
-9.321814e+08
-1.039795e+09
-7.25842e+08
-7.525257e+08
-7.918818e+08
-8.497265e+08
-9.363352e+08
0
-6.783287e+08
-7.005381e+08
-7.329895e+08
-7.794755e+08
-8.465269e+08
0
0
-6.350094e+08
-6.537707e+08
-6.810084e+08
-7.194507e+08
-7.732143e+08
0
0
0
-5.961281e+08
-6.122247e+08
-6.355048e+08
-6.680142e+08
-7.126636e+08
0
0
0
0
-5.614569e+08
-5.754561e+08
-5.956852e+08
-6.237219e+08
-6.617343e+08
0
0
0
0
0
-5.305029e+08
-5.428419e+08
-5.606583e+08
-5.852398e+08
-6.182544e+08
0
0
0
0
0
0
-5.026874e+08
-5.13693e+08
-5.295768e+08
-5.514069e+08
-5.805411e+08
0
0
0
0
0
0
0
-4.774035e+08
-4.87309e+08
-5.016165e+08
-5.212131e+08
-5.472273e+08
0
0
0
0
0
0
0
0
-4.539835e+08
-4.629676e+08
-4.759484e+08
-4.936901e+08
-5.171292e+08
0
0
0
0
0
0
0
0
0
-4.317097e+08
-4.399037e+08
-4.517399e+08
-4.67883e+08
-4.891289e+08
0
0
0
0
0
0
0
0
0
0
-4.101229e+08
-4.176215e+08
-4.284476e+08
-4.431774e+08
-4.625007e+08
0
0
0
0
0
0
0
0
0
0
0
-3.896224e+08
-3.965172e+08
-4.064576e+08
-4.199541e+08
-4.376055e+08
0
0
0
0
0
0
0
0
0
0
0
0
-3.706947e+08
-3.770678e+08
-3.86247e+08
-3.986805e+08
-4.149007e+08
0
0
0
0
0
0
0
0
0
0
0
0
0
-3.535151e+08
-3.594394e+08
-3.679612e+08
-3.794869e+08
-3.944841e+08
0
0
0
0
0
0
0
0
0
0
0
0
0
0
-3.380603e+08
-3.435929e+08
-3.515485e+08
-3.622901e+08
-3.762442e+08
0
0
0
0
0
0
0
0
0
0
0
0
0
0
0
-9.892485e+08
-1.043599e+09
-8.986128e+08
-9.493065e+08
-1.013573e+09
-8.275802e+08
-8.669929e+08
-9.259648e+08
-1.003983e+09
-7.699491e+08
-8.013368e+08
-8.482033e+08
-9.176306e+08
-1.013735e+09
-7.207624e+08
-7.466898e+08
-7.848204e+08
-8.404914e+08
-9.225346e+08
0
-6.763743e+08
-6.982346e+08
-7.301419e+08
-7.757387e+08
-8.411794e+08
0
0
-6.348215e+08
-6.534543e+08
-6.804967e+08
-7.186314e+08
-7.718784e+08
0
0
0
-5.964763e+08
-6.125341e+08
-6.357563e+08
-6.681752e+08
-7.126767e+08
0
0
0
0
-5.617362e+08
-5.757275e+08
-5.959456e+08
-6.239642e+08
-6.619461e+08
0
0
0
0
0
-5.305029e+08
-5.428419e+08
-5.606583e+08
-5.852398e+08
-6.182544e+08
0
0
0
0
0
0
-5.024236e+08
-5.134293e+08
-5.293143e+08
-5.51146e+08
-5.802845e+08
0
0
0
0
0
0
0
-4.77051e+08
-4.869561e+08
-5.012653e+08
-5.208681e+08
-5.468924e+08
0
0
0
0
0
0
0
0
-4.538698e+08
-4.628575e+08
-4.758481e+08
-4.936109e+08
-5.170841e+08
0
0
0
0
0
0
0
0
0
-4.322955e+08
-4.405059e+08
-4.523745e+08
-4.685717e+08
-4.899053e+08
0
0
0
0
0
0
0
0
0
0
-4.116893e+08
-4.192217e+08
-4.301107e+08
-4.4494e+08
-4.64412e+08
0
0
0
0
0
0
0
0
0
0
-3.916337e+08
-3.985661e+08
-4.085765e+08
-4.221819e+08
-4.399912e+08
0
0
0
0
0
0
0
0
0
0
0
0
-3.72516e+08
-3.789206e+08
-3.881557e+08
-4.006773e+08
-4.17024e+08
0
0
0
0
0
0
0
0
0
0
0
0
0
-3.548097e+08
-3.60755e+08
-3.693142e+08
-3.808972e+08
-3.959771e+08
0
0
0
0
0
0
0
0
0
0
0
0
0
0
-3.387e+08
-3.442434e+08
-3.522178e+08
-3.629877e+08
-3.769816e+08
0
0
0
0
0
0
0
0
0
0
0
0
0
0
0
-3.241815e+08
-3.293694e+08
-3.368333e+08
-3.469015e+08
-3.59957e+08
0
0
0
0
0
0
0
0
0
0
0
0
0
0
0
0
-8.947751e+08
-9.445158e+08
-1.006385e+09
-8.217445e+08
-8.601825e+08
-9.172269e+08
-9.902374e+08
-7.632889e+08
-7.937975e+08
-8.39142e+08
-9.055394e+08
-9.934383e+08
-7.145602e+08
-7.397502e+08
-7.766938e+08
-8.302968e+08
-9.081455e+08
0
-6.72135e+08
-6.934896e+08
-7.24602e+08
-7.689083e+08
-8.32057e+08
0
0
-6.332386e+08
-6.516377e+08
-6.783207e+08
-7.158915e+08
-7.68211e+08
0
0
0
-5.963985e+08
-6.12373e+08
-6.354697e+08
-6.67694e+08
-7.118842e+08
0
0
0
0
-5.620983e+08
-5.760665e+08
-5.96251e+08
-6.24217e+08
-6.621132e+08
0
0
0
0
0
-5.307761e+08
-5.43111e+08
-5.609228e+08
-5.854966e+08
-6.184969e+08
0
0
0
0
0
0
-5.024236e+08
-5.134293e+08
-5.293143e+08
-5.51146e+08
-5.802845e+08
0
0
0
0
0
0
0
-4.767984e+08
-4.867012e+08
-5.010079e+08
-5.206092e+08
-5.466319e+08
0
0
0
0
0
0
0
0
-4.535302e+08
-4.625138e+08
-4.755007e+08
-4.932619e+08
-5.167373e+08
0
0
0
0
0
0
0
0
0
-4.321765e+08
-4.403857e+08
-4.522572e+08
-4.684637e+08
-4.89818e+08
0
0
0
0
0
0
0
0
0
0
-4.122239e+08
-4.197663e+08
-4.306783e+08
-4.455478e+08
-4.650829e+08
0
0
0
0
0
0
0
0
0
0
-3.930897e+08
-4.000494e+08
-4.101107e+08
-4.237987e+08
-4.417301e+08
0
0
0
0
0
0
0
0
0
0
-3.743963e+08
-3.80835e+08
-3.901289e+08
-4.027441e+08
-4.192268e+08
0
0
0
0
0
0
0
0
0
0
0
0
0
-3.56519e+08
-3.624931e+08
-3.711021e+08
-3.827614e+08
-3.979525e+08
0
0
0
0
0
0
0
0
0
0
0
0
0
0
-3.399187e+08
-3.45481e+08
-3.534889e+08
-3.643102e+08
-3.783772e+08
0
0
0
0
0
0
0
0
0
0
0
0
0
0
0
-3.247835e+08
-3.299815e+08
-3.374623e+08
-3.47556e+08
-3.606474e+08
0
0
0
0
0
0
0
0
0
0
0
0
0
0
0
0
-3.111043e+08
-3.159948e+08
-3.230106e+08
-3.324694e+08
-3.447178e+08
0
0
0
0
0
0
0
0
0
0
0
0
0
0
0
0
0
-8.186738e+08
-8.566204e+08
-9.127051e+08
-9.833025e+08
-7.58442e+08
-7.883638e+08
-8.326977e+08
-8.971056e+08
-9.798444e+08
-7.08922e+08
-7.335306e+08
-7.695424e+08
-8.215406e+08
-8.962069e+08
0
-6.668359e+08
-6.87686e+08
-7.18007e+08
-7.610454e+08
-8.219938e+08
0
0
-6.296206e+08
-6.476704e+08
-6.738103e+08
-7.105308e+08
-7.614733e+08
0
0
0
-5.950876e+08
-6.109015e+08
-6.337539e+08
-6.656017e+08
-7.092e+08
0
0
0
0
-5.620947e+08
-5.760085e+08
-5.961118e+08
-6.23953e+08
-6.61653e+08
0
0
0
0
0
-5.311426e+08
-5.434634e+08
-5.612567e+08
-5.858017e+08
-6.187541e+08
0
0
0
0
0
0
-5.026874e+08
-5.13693e+08
-5.295768e+08
-5.514069e+08
-5.805411e+08
0
0
0
0
0
0
0
-4.767984e+08
-4.867012e+08
-5.010079e+08
-5.206092e+08
-5.466319e+08
0
0
0
0
0
0
0
0
-4.532895e+08
-4.622693e+08
-4.752517e+08
-4.930079e+08
-5.164789e+08
0
0
0
0
0
0
0
0
0
-4.318513e+08
-4.400542e+08
-4.519188e+08
-4.681186e+08
-4.894676e+08
0
0
0
0
0
0
0
0
0
0
-4.121028e+08
-4.196416e+08
-4.305519e+08
-4.454238e+08
-4.649678e+08
0
0
0
0
0
0
0
0
0
0
-3.93577e+08
-4.005467e+08
-4.106243e+08
-4.243424e+08
-4.423221e+08
0
0
0
0
0
0
0
0
0
0
-3.757513e+08
-3.822152e+08
-3.915522e+08
-4.042365e+08
-4.208224e+08
0
0
0
0
0
0
0
0
0
0
-3.5828e+08
-3.642847e+08
-3.729472e+08
-3.846873e+08
-3.999968e+08
0
0
0
0
0
0
0
0
0
0
0
0
0
0
-3.415264e+08
-3.471138e+08
-3.551673e+08
-3.660573e+08
-3.80222e+08
0
0
0
0
0
0
0
0
0
0
0
0
0
0
0
-3.259317e+08
-3.311476e+08
-3.386589e+08
-3.487992e+08
-3.619565e+08
0
0
0
0
0
0
0
0
0
0
0
0
0
0
0
0
-3.116696e+08
-3.165712e+08
-3.236028e+08
-3.330848e+08
-3.453658e+08
0
0
0
0
0
0
0
0
0
0
0
0
0
0
0
0
0
-2.987598e+08
-3.033804e+08
-3.100031e+08
-3.189056e+08
-3.30422e+08
0
0
0
0
0
0
0
0
0
0
0
0
0
0
0
0
0
0
-7.558803e+08
-7.855022e+08
-8.293253e+08
-8.927408e+08
-9.729914e+08
-7.047865e+08
-7.290027e+08
-7.643876e+08
-8.153148e+08
-8.878864e+08
0
-6.619599e+08
-6.824065e+08
-7.120946e+08
-7.541276e+08
-8.133585e+08
0
0
-6.250074e+08
-6.427007e+08
-6.682854e+08
-7.041444e+08
-7.537168e+08
0
0
0
-5.919461e+08
-6.075102e+08
-6.299785e+08
-6.612353e+08
-7.039156e+08
0
0
0
0
-5.609885e+08
-5.747901e+08
-5.947226e+08
-6.223046e+08
-6.59606e+08
0
0
0
0
0
-5.311905e+08
-5.434749e+08
-5.612153e+08
-5.856799e+08
-6.185068e+08
0
0
0
0
0
0
-5.030496e+08
-5.140498e+08
-5.299236e+08
-5.517395e+08
-5.808493e+08
0
0
0
0
0
0
0
-4.77051e+08
-4.869561e+08
-5.012653e+08
-5.208681e+08
-5.468924e+08
0
0
0
0
0
0
0
0
-4.532895e+08
-4.622693e+08
-4.752517e+08
-4.930079e+08
-5.164789e+08
0
0
0
0
0
0
0
0
0
-4.316228e+08
-4.398211e+08
-4.516798e+08
-4.678727e+08
-4.892142e+08
0
0
0
0
0
0
0
0
0
0
-4.117918e+08
-4.19324e+08
-4.302255e+08
-4.450876e+08
-4.646216e+08
0
0
0
0
0
0
0
0
0
0
-3.934535e+08
-4.004205e+08
-4.104941e+08
-4.242102e+08
-4.421919e+08
0
0
0
0
0
0
0
0
0
0
-3.762017e+08
-3.826686e+08
-3.920214e+08
-4.047285e+08
-4.213519e+08
0
0
0
0
0
0
0
0
0
0
-3.595494e+08
-3.655703e+08
-3.742727e+08
-3.860726e+08
-4.014701e+08
0
0
0
0
0
0
0
0
0
0
-3.431835e+08
-3.487931e+08
-3.568954e+08
-3.678592e+08
-3.821274e+08
0
0
0
0
0
0
0
0
0
0
0
0
0
0
0
-3.274465e+08
-3.326846e+08
-3.402368e+08
-3.504402e+08
-3.636859e+08
0
0
0
0
0
0
0
0
0
0
0
0
0
0
0
0
-3.127511e+08
-3.176707e+08
-3.24731e+08
-3.342557e+08
-3.465966e+08
0
0
0
0
0
0
0
0
0
0
0
0
0
0
0
0
0
-2.992942e+08
-3.039221e+08
-3.105612e+08
-3.194854e+08
-3.310314e+08
0
0
0
0
0
0
0
0
0
0
0
0
0
0
0
0
0
0
-2.870982e+08
-2.914617e+08
-2.97726e+08
-3.061355e+08
-3.169828e+08
0
0
0
0
0
0
0
0
0
0
0
0
0
0
0
0
0
0
0
-7.025945e+08
-7.266076e+08
-7.616713e+08
-8.12056e+08
-8.835818e+08
0
-6.583607e+08
-6.785321e+08
-7.077895e+08
-7.491419e+08
-8.072217e+08
0
0
-6.207201e+08
-6.381238e+08
-6.63257e+08
-6.984192e+08
-7.468965e+08
0
0
0
-5.878732e+08
-6.031751e+08
-6.252402e+08
-6.558806e+08
-6.976164e+08
0
0
0
0
-5.582217e+08
-5.718409e+08
-5.914918e+08
-6.186481e+08
-6.55303e+08
0
0
0
0
0
-5.302419e+08
-5.424469e+08
-5.600655e+08
-5.843461e+08
-6.168958e+08
0
0
0
0
0
0
-5.031319e+08
-5.141095e+08
-5.299481e+08
-5.517119e+08
-5.807411e+08
0
0
0
0
0
0
0
-4.774035e+08
-4.87309e+08
-5.016165e+08
-5.212131e+08
-5.472273e+08
0
0
0
0
0
0
0
0
-4.535302e+08
-4.625138e+08
-4.755007e+08
-4.932619e+08
-5.167373e+08
0
0
0
0
0
0
0
0
0
-4.316228e+08
-4.398211e+08
-4.516798e+08
-4.678727e+08
-4.892142e+08
0
0
0
0
0
0
0
0
0
0
-4.115744e+08
-4.191024e+08
-4.299973e+08
-4.448515e+08
-4.643763e+08
0
0
0
0
0
0
0
0
0
0
-3.931565e+08
-4.001165e+08
-4.101812e+08
-4.238858e+08
-4.418549e+08
0
0
0
0
0
0
0
0
0
0
-3.76082e+08
-3.825407e+08
-3.918903e+08
-4.045932e+08
-4.212141e+08
0
0
0
0
0
0
0
0
0
0
-3.599696e+08
-3.659897e+08
-3.747005e+08
-3.865222e+08
-4.019493e+08
0
0
0
0
0
0
0
0
0
0
-3.443762e+08
-3.499987e+08
-3.58131e+08
-3.6915e+08
-3.834953e+08
0
0
0
0
0
0
0
0
0
0
-3.290047e+08
-3.342664e+08
-3.418577e+08
-3.521286e+08
-3.654691e+08
0
0
0
0
0
0
0
0
0
0
0
0
0
0
0
0
-3.141791e+08
-3.191202e+08
-3.262174e+08
-3.357991e+08
-3.482213e+08
0
0
0
0
0
0
0
0
0
0
0
0
0
0
0
0
0
-3.00319e+08
-3.049585e+08
-3.116256e+08
-3.205897e+08
-3.321909e+08
0
0
0
0
0
0
0
0
0
0
0
0
0
0
0
0
0
0
-2.876046e+08
-2.919742e+08
-2.982507e+08
-3.06682e+08
-3.17557e+08
0
0
0
0
0
0
0
0
0
0
0
0
0
0
0
0
0
0
0
-2.760856e+08
-2.801926e+08
-2.86118e+08
-2.940767e+08
-3.043269e+08
0
0
0
0
0
0
0
0
0
0
0
0
0
0
0
0
0
0
0
0
-6.564496e+08
-6.764769e+08
-7.055109e+08
-7.465141e+08
-8.040101e+08
0
0
-6.175393e+08
-6.347437e+08
-6.595661e+08
-6.942505e+08
-7.419827e+08
0
0
0
-5.840565e+08
-5.99142e+08
-6.208737e+08
-6.510065e+08
-6.919713e+08
0
0
0
0
-5.545837e+08
-5.680064e+08
-5.873526e+08
-6.140518e+08
-6.500209e+08
0
0
0
0
0
-5.27776e+08
-5.398459e+08
-5.572532e+08
-5.812154e+08
-6.132926e+08
0
0
0
0
0
0
-5.023108e+08
-5.13228e+08
-5.289784e+08
-5.506086e+08
-5.794388e+08
0
0
0
0
0
0
0
-4.775059e+08
-4.874008e+08
-5.016865e+08
-5.212487e+08
-5.47211e+08
0
0
0
0
0
0
0
0
-4.538698e+08
-4.628575e+08
-4.758481e+08
-4.936109e+08
-5.170841e+08
0
0
0
0
0
0
0
0
0
-4.318513e+08
-4.400542e+08
-4.519188e+08
-4.681186e+08
-4.894676e+08
0
0
0
0
0
0
0
0
0
0
-4.115744e+08
-4.191024e+08
-4.299973e+08
-4.448515e+08
-4.643763e+08
0
0
0
0
0
0
0
0
0
0
-3.929504e+08
-3.999054e+08
-4.099641e+08
-4.236603e+08
-4.416194e+08
0
0
0
0
0
0
0
0
0
0
-3.758009e+08
-3.8225e+08
-3.915907e+08
-4.042822e+08
-4.208891e+08
0
0
0
0
0
0
0
0
0
0
-3.598547e+08
-3.658658e+08
-3.745682e+08
-3.863865e+08
-4.018089e+08
0
0
0
0
0
0
0
0
0
0
-3.447675e+08
-3.503905e+08
-3.585269e+08
-3.6956e+08
-3.839333e+08
0
0
0
0
0
0
0
0
0
0
-3.301247e+08
-3.354003e+08
-3.430172e+08
-3.533324e+08
-3.66744e+08
0
0
0
0
0
0
0
0
0
0
-3.1565e+08
-3.206088e+08
-3.277453e+08
-3.373836e+08
-3.498926e+08
0
0
0
0
0
0
0
0
0
0
0
0
0
0
0
0
0
-3.016723e+08
-3.063259e+08
-3.130282e+08
-3.220443e+08
-3.337194e+08
0
0
0
0
0
0
0
0
0
0
0
0
0
0
0
0
0
0
-2.885775e+08
-2.929569e+08
-2.992546e+08
-3.077244e+08
-3.186509e+08
0
0
0
0
0
0
0
0
0
0
0
0
0
0
0
0
0
0
0
-2.76566e+08
-2.806784e+08
-2.866145e+08
-2.945906e+08
-3.048683e+08
0
0
0
0
0
0
0
0
0
0
0
0
0
0
0
0
0
0
0
0
-2.656597e+08
-2.69542e+08
-2.751352e+08
-2.826696e+08
-2.92373e+08
0
0
0
0
0
0
0
0
0
0
0
0
0
0
0
0
0
0
0
0
0
-6.158488e+08
-6.329476e+08
-6.576071e+08
-6.920435e+08
-7.39393e+08
0
0
0
-5.812132e+08
-5.961481e+08
-6.17648e+08
-6.474287e+08
-6.87862e+08
0
0
0
0
-5.511511e+08
-5.644091e+08
-5.83499e+08
-6.098152e+08
-6.452137e+08
0
0
0
0
0
-5.24495e+08
-5.364151e+08
-5.535872e+08
-5.771971e+08
-6.087576e+08
0
0
0
0
0
0
-5.000966e+08
-5.109068e+08
-5.264957e+08
-5.47882e+08
-5.763536e+08
0
0
0
0
0
0
0
-4.767811e+08
-4.866381e+08
-5.008553e+08
-5.203188e+08
-5.461346e+08
0
0
0
0
0
0
0
0
-4.539835e+08
-4.629676e+08
-4.759484e+08
-4.936901e+08
-5.171292e+08
0
0
0
0
0
0
0
0
0
-4.321765e+08
-4.403857e+08
-4.522572e+08
-4.684637e+08
-4.89818e+08
0
0
0
0
0
0
0
0
0
0
-4.117918e+08
-4.19324e+08
-4.302255e+08
-4.450876e+08
-4.646216e+08
0
0
0
0
0
0
0
0
0
0
-3.929504e+08
-3.999054e+08
-4.099641e+08
-4.236603e+08
-4.416194e+08
0
0
0
0
0
0
0
0
0
0
-3.756064e+08
-3.820498e+08
-3.913838e+08
-4.040676e+08
-4.206642e+08
0
0
0
0
0
0
0
0
0
0
-3.595887e+08
-3.655907e+08
-3.742816e+08
-3.860887e+08
-4.014974e+08
0
0
0
0
0
0
0
0
0
0
-3.446562e+08
-3.502718e+08
-3.583991e+08
-3.694235e+08
-3.837931e+08
0
0
0
0
0
0
0
0
0
0
-3.304911e+08
-3.357653e+08
-3.433874e+08
-3.53712e+08
-3.671434e+08
0
0
0
0
0
0
0
0
0
0
-3.167083e+08
-3.216744e+08
-3.288366e+08
-3.385139e+08
-3.51082e+08
0
0
0
0
0
0
0
0
0
0
-3.030665e+08
-3.077321e+08
-3.144669e+08
-3.235385e+08
-3.352881e+08
0
0
0
0
0
0
0
0
0
0
0
0
0
0
0
0
0
0
-2.898629e+08
-2.942539e+08
-3.005785e+08
-3.090975e+08
-3.200917e+08
0
0
0
0
0
0
0
0
0
0
0
0
0
0
0
0
0
0
0
-2.77491e+08
-2.816122e+08
-2.87567e+08
-2.95574e+08
-3.05901e+08
0
0
0
0
0
0
0
0
0
0
0
0
0
0
0
0
0
0
0
0
-2.661159e+08
-2.700032e+08
-2.756063e+08
-2.831562e+08
-2.928822e+08
0
0
0
0
0
0
0
0
0
0
0
0
0
0
0
0
0
0
0
0
0
-2.557738e+08
-2.59451e+08
-2.647491e+08
-2.718723e+08
-2.810626e+08
0
0
0
0
0
0
0
0
0
0
0
0
0
0
0
0
0
0
0
0
0
0
-5.797016e+08
-5.945558e+08
-6.159329e+08
-6.455292e+08
-6.856865e+08
0
0
0
0
-5.485852e+08
-5.617275e+08
-5.806373e+08
-6.066851e+08
-6.416857e+08
0
0
0
0
0
-5.213817e+08
-5.331739e+08
-5.50145e+08
-5.734546e+08
-6.045779e+08
0
0
0
0
0
0
-4.971156e+08
-5.078079e+08
-5.232116e+08
-5.443203e+08
-5.723877e+08
0
0
0
0
0
0
0
-4.747724e+08
-4.845513e+08
-4.986375e+08
-5.179105e+08
-5.434472e+08
0
0
0
0
0
0
0
0
-4.533355e+08
-4.622943e+08
-4.752294e+08
-4.928935e+08
-5.162224e+08
0
0
0
0
0
0
0
0
0
-4.322955e+08
-4.405059e+08
-4.523745e+08
-4.685717e+08
-4.899053e+08
0
0
0
0
0
0
0
0
0
0
-4.121028e+08
-4.196416e+08
-4.305519e+08
-4.454238e+08
-4.649678e+08
0
0
0
0
0
0
0
0
0
0
-3.931565e+08
-4.001165e+08
-4.101812e+08
-4.238858e+08
-4.418549e+08
0
0
0
0
0
0
0
0
0
0
-3.756064e+08
-3.820498e+08
-3.913838e+08
-4.040676e+08
-4.206642e+08
0
0
0
0
0
0
0
0
0
0
-3.59405e+08
-3.654015e+08
-3.740852e+08
-3.858841e+08
-4.012833e+08
0
0
0
0
0
0
0
0
0
0
-3.44404e+08
-3.500111e+08
-3.581275e+08
-3.691386e+08
-3.834947e+08
0
0
0
0
0
0
0
0
0
0
-3.303843e+08
-3.356504e+08
-3.432649e+08
-3.535803e+08
-3.670029e+08
0
0
0
0
0
0
0
0
0
0
-3.170553e+08
-3.220164e+08
-3.291817e+08
-3.38869e+08
-3.514519e+08
0
0
0
0
0
0
0
0
0
0
-3.040711e+08
-3.087398e+08
-3.154932e+08
-3.246029e+08
-3.364052e+08
0
0
0
0
0
0
0
0
0
0
-2.911876e+08
-2.955879e+08
-3.019384e+08
-3.10505e+08
-3.215715e+08
0
0
0
0
0
0
0
0
0
0
0
0
0
0
0
0
0
0
0
-2.787134e+08
-2.828449e+08
-2.888234e+08
-2.968706e+08
-3.072614e+08
0
0
0
0
0
0
0
0
0
0
0
0
0
0
0
0
0
0
0
0
-2.669964e+08
-2.708916e+08
-2.765118e+08
-2.840896e+08
-2.938567e+08
0
0
0
0
0
0
0
0
0
0
0
0
0
0
0
0
0
0
0
0
0
-2.562079e+08
-2.598893e+08
-2.651965e+08
-2.72334e+08
-2.815448e+08
0
0
0
0
0
0
0
0
0
0
0
0
0
0
0
0
0
0
0
0
0
0
-2.463869e+08
-2.498753e+08
-2.549027e+08
-2.616574e+08
-2.703545e+08
0
0
0
0
0
0
0
0
0
0
0
0
0
0
0
0
0
0
0
0
0
0
0
-5.472213e+08
-5.603009e+08
-5.791145e+08
-6.050205e+08
-6.398126e+08
0
0
0
0
0
-5.19048e+08
-5.307495e+08
-5.475781e+08
-5.706752e+08
-6.014902e+08
0
0
0
0
0
0
-4.942718e+08
-5.048632e+08
-5.201062e+08
-5.409746e+08
-5.686941e+08
0
0
0
0
0
0
0
-4.720491e+08
-4.817315e+08
-4.956677e+08
-5.147174e+08
-5.399309e+08
0
0
0
0
0
0
0
0
-4.514978e+08
-4.60399e+08
-4.73234e+08
-4.907409e+08
-5.138482e+08
0
0
0
0
0
0
0
0
0
-4.317097e+08
-4.399037e+08
-4.517399e+08
-4.67883e+08
-4.891289e+08
0
0
0
0
0
0
0
0
0
0
-4.122239e+08
-4.197663e+08
-4.306783e+08
-4.455478e+08
-4.650829e+08
0
0
0
0
0
0
0
0
0
0
-3.934535e+08
-4.004205e+08
-4.104941e+08
-4.242102e+08
-4.421919e+08
0
0
0
0
0
0
0
0
0
0
-3.758009e+08
-3.8225e+08
-3.915907e+08
-4.042822e+08
-4.208891e+08
0
0
0
0
0
0
0
0
0
0
-3.59405e+08
-3.654015e+08
-3.740852e+08
-3.858841e+08
-4.012833e+08
0
0
0
0
0
0
0
0
0
0
-3.442303e+08
-3.498322e+08
-3.579419e+08
-3.689443e+08
-3.832906e+08
0
0
0
0
0
0
0
0
0
0
-3.301453e+08
-3.354031e+08
-3.430077e+08
-3.533103e+08
-3.667174e+08
0
0
0
0
0
0
0
0
0
0
-3.169559e+08
-3.219062e+08
-3.290633e+08
-3.387429e+08
-3.513164e+08
0
0
0
0
0
0
0
0
0
0
-3.044026e+08
-3.090642e+08
-3.158166e+08
-3.24934e+08
-3.367513e+08
0
0
0
0
0
0
0
0
0
0
-2.921439e+08
-2.965453e+08
-3.029096e+08
-3.115064e+08
-3.226236e+08
0
0
0
0
0
0
0
0
0
0
-2.799739e+08
-2.841135e+08
-2.901144e+08
-2.982015e+08
-3.086556e+08
0
0
0
0
0
0
0
0
0
0
0
0
0
0
0
0
0
0
0
0
-2.681603e+08
-2.720647e+08
-2.777066e+08
-2.853206e+08
-2.951415e+08
0
0
0
0
0
0
0
0
0
0
0
0
0
0
0
0
0
0
0
0
0
-2.570474e+08
-2.607354e+08
-2.660584e+08
-2.732218e+08
-2.824699e+08
0
0
0
0
0
0
0
0
0
0
0
0
0
0
0
0
0
0
0
0
0
0
-2.468007e+08
-2.502926e+08
-2.553281e+08
-2.620961e+08
-2.708121e+08
0
0
0
0
0
0
0
0
0
0
0
0
0
0
0
0
0
0
0
0
0
0
0
-2.374849e+08
-2.407763e+08
-2.455539e+08
-2.519697e+08
-2.602219e+08
0
0
0
0
0