/*--------------------------------*- C++ -*----------------------------------*\
| =========                 |                                                 |
| \\      /  F ield         | OpenFOAM: The Open Source CFD Toolbox           |
|  \\    /   O peration     | Version:  2306                                  |
|   \\  /    A nd           | Website:  www.openfoam.com                      |
|    \\/     M anipulation  |                                                 |
\*---------------------------------------------------------------------------*/
FoamFile
{
    version     2.0;
    format      ascii;
    arch        "LSB;label=32;scalar=64";
    class       volScalarField;
    location    "0.3/phiEA";
    object      T;
}
// * * * * * * * * * * * * * * * * * * * * * * * * * * * * * * * * * * * * * //

dimensions      [0 0 0 1 0 0 0];

internalField   nonuniform List<scalar> 
20000
(
1102.277
1102.156
1103.7
1102.284
1101.875
1103.688
1102.162
1105.02
1103.703
1102.295
1101.356
1103.657
1101.883
1105.039
1103.69
1102.174
1106.261
1105.019
1103.71
1102.312
1100.49
1103.597
1101.366
1105.078
1103.659
1101.895
1106.289
1105.037
1103.697
1102.191
1107.46
1106.257
1105.022
1103.722
1102.334
1099.231
1103.485
1100.505
1105.145
1103.597
1101.382
1106.35
1105.076
1103.665
1101.914
1107.491
1106.284
1105.04
1103.708
1102.214
1108.631
1107.454
1106.257
1105.03
1103.738
1102.361
1097.813
1103.298
1099.254
1105.244
1103.483
1100.526
1106.456
1105.142
1103.603
1101.403
1107.558
1106.345
1105.079
1103.677
1101.938
1108.661
1107.484
1106.284
1105.048
1103.725
1102.242
1109.774
1108.622
1107.451
1106.261
1105.043
1103.76
1102.389
1096.522
1103.038
1097.849
1105.359
1103.293
1099.283
1106.62
1105.237
1103.487
1100.552
1107.676
1106.45
1105.142
1103.613
1101.43
1108.729
1107.55
1106.344
1105.085
1103.693
1101.967
1109.803
1108.652
1107.481
1106.288
1105.06
1103.747
1102.271
1110.888
1109.764
1108.618
1107.453
1106.27
1105.06
1103.783
1102.418
1095.565
1102.756
1096.57
1105.442
1103.032
1097.89
1106.833
1105.347
1103.294
1099.318
1107.859
1106.61
1105.234
1103.496
1100.584
1108.848
1107.667
1106.447
1105.148
1103.628
1101.463
1109.87
1108.719
1107.547
1106.347
1105.097
1103.714
1101.998
1110.917
1109.793
1108.647
1107.482
1106.297
1105.077
1103.769
1102.3
1111.973
1110.877
1109.757
1108.617
1107.459
1106.283
1105.077
1103.805
1102.447
1095.06
1102.522
1095.622
1105.48
1102.752
1096.623
1107.029
1105.426
1103.032
1097.936
1108.101
1106.818
1105.34
1103.3
1099.358
1109.034
1107.847
1106.605
1105.237
1103.509
1100.623
1109.987
1108.837
1107.662
1106.449
1105.158
1103.649
1101.497
1110.982
1109.859
1108.714
1107.547
1106.355
1105.113
1103.736
1102.029
1112.001
1110.906
1109.787
1108.646
1107.488
1106.309
1105.094
1103.792
1102.33
1113.026
1111.961
1110.87
1109.755
1108.62
1107.469
1106.297
1105.095
1103.828
1102.476
1095.06
1102.389
1095.122
1105.488
1102.52
1095.683
1107.175
1105.463
1102.754
1096.68
1108.334
1107.01
1105.416
1103.037
1097.987
1109.282
1108.084
1106.807
1105.337
1103.31
1099.404
1110.17
1109.021
1107.839
1106.603
1105.243
1103.528
1100.663
1111.096
1109.975
1108.83
1107.661
1106.455
1105.172
1103.671
1101.531
1112.064
1110.97
1109.852
1108.712
1107.552
1106.367
1105.129
1103.759
1102.061
1113.053
1111.989
1110.898
1109.784
1108.649
1107.497
1106.323
1105.111
1103.814
1102.359
1114.046
1113.013
1111.952
1110.866
1109.756
1108.627
1107.479
1106.311
1105.113
1103.851
1102.619
1095.565
1102.389
1095.122
1105.485
1102.389
1095.188
1107.267
1105.47
1102.523
1095.749
1108.517
1107.154
1105.451
1102.76
1096.742
1109.524
1108.313
1106.995
1105.41
1103.047
1098.043
1110.416
1109.265
1108.072
1106.801
1105.339
1103.326
1099.451
1111.275
1110.156
1109.011
1107.835
1106.606
1105.255
1103.548
1100.703
1112.175
1111.083
1109.966
1108.827
1107.664
1106.465
1105.187
1103.692
1101.567
1113.115
1112.051
1110.962
1109.848
1108.714
1107.561
1106.379
1105.146
1103.781
1102.093
1114.072
1113.04
1111.98
1110.894
1109.785
1108.656
1107.507
1106.336
1105.129
1103.837
1102.507
1115.031
1114.032
1113.004
1111.947
1110.865
1109.761
1108.635
1107.489
1106.324
1105.131
1103.964
1102.892
1096.522
1102.522
1095.622
1105.485
1102.389
1095.188
1107.311
1105.468
1102.393
1095.258
1108.639
1107.245
1105.458
1102.531
1095.82
1109.718
1108.494
1107.137
1105.443
1102.771
1096.81
1110.656
1109.503
1108.297
1106.985
1105.409
1103.062
1098.101
1111.515
1110.397
1109.251
1108.064
1106.799
1105.346
1103.343
1099.498
1112.35
1111.26
1110.145
1109.005
1107.835
1106.613
1105.267
1103.568
1100.744
1113.223
1112.161
1111.073
1109.962
1108.828
1107.671
1106.476
1105.202
1103.714
1101.602
1114.132
1113.101
1112.042
1110.957
1109.849
1108.72
1107.57
1106.392
1105.163
1103.803
1102.25
1115.057
1114.059
1113.031
1111.975
1110.893
1109.789
1108.663
1107.517
1106.349
1105.146
1103.95
1102.792
1115.982
1115.018
1114.022
1112.997
1111.945
1110.868
1109.766
1108.642
1107.499
1106.338
1105.221
1104.171
1103.178
1097.813
1102.756
1096.57
1105.488
1102.52
1095.683
1107.311
1105.468
1102.393
1095.258
1108.698
1107.288
1105.456
1102.403
1095.334
1109.848
1108.615
1107.227
1105.45
1102.544
1095.896
1110.85
1109.695
1108.476
1107.125
1105.441
1102.787
1096.878
1111.751
1110.635
1109.486
1108.285
1106.979
1105.412
1103.077
1098.158
1112.583
1111.496
1110.383
1109.241
1108.059
1106.801
1105.354
1103.359
1099.545
1113.393
1112.334
1111.248
1110.138
1109.004
1107.84
1106.621
1105.279
1103.588
1100.786
1114.238
1113.208
1112.151
1111.067
1109.961
1108.832
1107.678
1106.487
1105.217
1103.736
1101.779
1115.116
1114.118
1113.091
1112.036
1110.955
1109.852
1108.727
1107.579
1106.404
1105.179
1103.915
1102.566
1116.007
1115.043
1114.049
1113.024
1111.972
1110.896
1109.794
1108.67
1107.527
1106.363
1105.235
1104.157
1103.096
1116.897
1115.968
1115.007
1114.015
1112.994
1111.946
1110.871
1109.771
1108.649
1107.51
1106.408
1105.381
1104.38
1103.474
1099.231
1103.038
1097.849
1105.48
1102.752
1096.623
1107.267
1105.47
1102.523
1095.749
1108.698
1107.288
1105.456
1102.403
1095.334
1109.913
1108.674
1107.27
1105.448
1102.417
1095.414
1110.982
1109.824
1108.595
1107.214
1105.447
1102.562
1095.972
1111.942
1110.827
1109.675
1108.462
1107.117
1105.443
1102.804
1096.945
1112.814
1111.73
1110.618
1109.473
1108.277
1106.978
1105.416
1103.093
1098.214
1113.621
1112.565
1111.481
1110.373
1109.236
1108.059
1106.804
1105.361
1103.376
1099.593
1114.404
1113.377
1112.321
1111.24
1110.135
1109.006
1107.844
1106.628
1105.291
1103.608
1100.991
1115.219
1114.223
1113.197
1112.144
1111.065
1109.963
1108.837
1107.686
1106.497
1105.233
1103.845
1102.145
1116.065
1115.102
1114.107
1113.084
1112.033
1110.957
1109.856
1108.733
1107.588
1106.417
1105.264
1104.123
1102.909
1116.922
1115.993
1115.033
1114.041
1113.021
1111.973
1110.898
1109.799
1108.677
1107.537
1106.431
1105.392
1104.367
1103.413
1117.777
1116.883
1115.957
1114.999
1114.011
1112.994
1111.948
1110.874
1109.776
1108.657
1107.563
1106.531
1105.539
1104.591
1103.778
1100.49
1103.298
1099.254
1105.442
1103.032
1097.89
1107.175
1105.463
1102.754
1096.68
1108.639
1107.245
1105.458
1102.531
1095.82
1109.913
1108.674
1107.27
1105.448
1102.417
1095.414
1111.048
1109.888
1108.654
1107.256
1105.445
1102.436
1095.495
1112.072
1110.958
1109.804
1108.579
1107.205
1105.449
1102.58
1096.048
1113.002
1111.919
1110.808
1109.66
1108.452
1107.113
1105.445
1102.82
1097.012
1113.847
1112.793
1111.712
1110.604
1109.464
1108.274
1106.977
1105.42
1103.109
1098.271
1114.628
1113.603
1112.55
1111.47
1110.366
1109.234
1108.059
1106.807
1105.368
1103.393
1099.824
1115.382
1114.388
1113.364
1112.312
1111.235
1110.135
1109.008
1107.848
1106.636
1105.303
1103.709
1101.416
1116.166
1115.204
1114.211
1113.189
1112.14
1111.065
1109.966
1108.842
1107.693
1106.508
1105.309
1104.052
1102.557
1116.979
1116.05
1115.09
1114.1
1113.08
1112.034
1110.959
1109.86
1108.739
1107.597
1106.48
1105.414
1104.336
1103.275
1117.802
1116.908
1115.982
1115.025
1114.037
1113.021
1111.975
1110.901
1109.803
1108.684
1107.588
1106.55
1105.547
1104.58
1103.741
1118.621
1117.763
1116.872
1115.949
1114.994
1114.01
1112.994
1111.949
1110.877
1109.781
1108.696
1107.655
1106.651
1105.696
1104.802
1103.951
1101.356
1103.485
1100.505
1105.359
1103.293
1099.283
1107.029
1105.426
1103.032
1097.936
1108.517
1107.154
1105.451
1102.76
1096.742
1109.848
1108.615
1107.227
1105.45
1102.544
1095.896
1111.048
1109.888
1108.654
1107.256
1105.445
1102.436
1095.495
1112.137
1111.023
1109.867
1108.638
1107.247
1105.446
1102.456
1095.574
1113.129
1112.048
1110.938
1109.787
1108.568
1107.2
1105.45
1102.599
1096.122
1114.031
1112.979
1111.9
1110.793
1109.649
1108.446
1107.11
1105.447
1102.837
1097.078
1114.849
1113.826
1112.776
1111.699
1110.595
1109.459
1108.27
1106.976
1105.424
1103.124
1098.542
1115.601
1114.609
1113.587
1112.538
1111.463
1110.363
1109.232
1108.059
1106.81
1105.376
1103.478
1100.252
1116.326
1115.366
1114.374
1113.354
1112.307
1111.234
1110.135
1109.01
1107.853
1106.643
1105.364
1103.907
1101.906
1117.078
1116.151
1115.192
1114.203
1113.184
1112.139
1111.066
1109.968
1108.847
1107.7
1106.562
1105.445
1104.271
1103.014
1117.857
1116.964
1116.039
1115.082
1114.095
1113.079
1112.034
1110.962
1109.864
1108.746
1107.644
1106.589
1105.561
1104.555
1103.659
1118.645
1117.787
1116.897
1115.974
1115.02
1114.036
1113.021
1111.976
1110.904
1109.808
1108.721
1107.676
1106.665
1105.7
1104.795
1103.928
1119.429
1118.607
1117.751
1116.863
1115.943
1114.993
1114.009
1112.995
1111.951
1110.88
1109.808
1108.762
1107.743
1106.768
1105.852
1104.921
1104.004
1101.875
1103.597
1101.366
1105.244
1103.483
1100.526
1106.833
1105.347
1103.294
1099.318
1108.334
1107.01
1105.416
1103.037
1097.987
1109.718
1108.494
1107.137
1105.443
1102.771
1096.81
1110.982
1109.824
1108.595
1107.214
1105.447
1102.562
1095.972
1112.137
1111.023
1109.867
1108.638
1107.247
1105.446
1102.456
1095.574
1113.194
1112.113
1111.003
1109.851
1108.626
1107.242
1105.448
1102.475
1095.653
1114.156
1113.106
1112.028
1110.921
1109.775
1108.561
1107.195
1105.452
1102.617
1096.196
1115.029
1114.009
1112.96
1111.885
1110.781
1109.642
1108.439
1107.106
1105.449
1102.853
1097.394
1115.819
1114.828
1113.809
1112.762
1111.689
1110.589
1109.454
1108.267
1106.975
1105.428
1103.203
1099.001
1116.542
1115.583
1114.594
1113.575
1112.53
1111.458
1110.359
1109.23
1108.059
1106.813
1105.414
1103.64
1100.687
1117.236
1116.31
1115.352
1114.364
1113.348
1112.304
1111.233
1110.135
1109.012
1107.857
1106.682
1105.476
1104.126
1102.482
1117.955
1117.063
1116.139
1115.183
1114.197
1113.183
1112.138
1111.067
1109.971
1108.851
1107.738
1106.654
1105.58
1104.502
1103.51
1118.7
1117.842
1116.952
1116.03
1115.077
1114.093
1113.079
1112.035
1110.964
1109.868
1108.778
1107.721
1106.694
1105.708
1104.778
1103.879
1119.453
1118.631
1117.776
1116.888
1115.968
1115.018
1114.035
1113.02
1111.977
1110.907
1109.833
1108.783
1107.759
1106.777
1105.853
1104.916
1103.984
1120.202
1119.415
1118.595
1117.743
1116.857
1115.941
1114.991
1114.008
1112.995
1111.952
1110.897
1109.852
1108.824
1107.829
1106.884
1105.939
1104.952
1104.066
1102.156
1103.657
1101.883
1105.145
1103.597
1101.382
1106.62
1105.237
1103.487
1100.552
1108.101
1106.818
1105.34
1103.3
1099.358
1109.524
1108.313
1106.995
1105.41
1103.047
1098.043
1110.85
1109.695
1108.476
1107.125
1105.441
1102.787
1096.878
1112.072
1110.958
1109.804
1108.579
1107.205
1105.449
1102.58
1096.048
1113.194
1112.113
1111.003
1109.851
1108.626
1107.242
1105.448
1102.475
1095.653
1114.219
1113.17
1112.093
1110.986
1109.838
1108.618
1107.237
1105.45
1102.495
1095.732
1115.152
1114.133
1113.086
1112.012
1110.909
1109.767
1108.554
1107.191
1105.454
1102.635
1096.548
1115.996
1115.007
1113.99
1112.945
1111.873
1110.773
1109.635
1108.434
1107.103
1105.452
1102.935
1097.904
1116.755
1115.798
1114.811
1113.795
1112.752
1111.682
1110.583
1109.449
1108.263
1106.974
1105.449
1103.346
1099.427
1117.448
1116.523
1115.567
1114.581
1113.567
1112.525
1111.454
1110.356
1109.228
1108.06
1106.828
1105.485
1103.807
1101.124
1118.11
1117.219
1116.296
1115.342
1114.357
1113.344
1112.301
1111.231
1110.135
1109.013
1107.879
1106.746
1105.59
1104.373
1103.187
1118.797
1117.94
1117.051
1116.129
1115.177
1114.194
1113.181
1112.138
1111.068
1109.973
1108.875
1107.798
1106.742
1105.717
1104.746
1103.804
1119.508
1118.685
1117.831
1116.943
1116.024
1115.074
1114.091
1113.078
1112.035
1110.966
1109.889
1108.83
1107.794
1106.796
1105.855
1104.905
1103.944
1120.226
1119.439
1118.619
1117.767
1116.882
1115.965
1115.016
1114.033
1113.02
1111.978
1110.921
1109.873
1108.841
1107.84
1106.888
1105.938
1104.947
1104.05
1120.94
1120.188
1119.404
1118.586
1117.736
1116.854
1115.938
1114.989
1114.007
1112.995
1111.96
1110.923
1109.893
1108.884
1107.913
1106.948
1105.957
1104.986
1104.136
1102.277
1103.688
1102.162
1105.078
1103.659
1101.895
1106.456
1105.142
1103.603
1101.403
1107.859
1106.61
1105.234
1103.496
1100.584
1109.282
1108.084
1106.807
1105.337
1103.31
1099.404
1110.656
1109.503
1108.297
1106.985
1105.409
1103.062
1098.101
1111.942
1110.827
1109.675
1108.462
1107.117
1105.443
1102.804
1096.945
1113.129
1112.048
1110.938
1109.787
1108.568
1107.2
1105.45
1102.599
1096.122
1114.219
1113.17
1112.093
1110.986
1109.838
1108.618
1107.237
1105.45
1102.495
1095.732
1115.214
1114.196
1113.15
1112.076
1110.973
1109.829
1108.61
1107.232
1105.452
1102.514
1096.103
1116.117
1115.13
1114.114
1113.07
1112
1110.9
1109.758
1108.547
1107.187
1105.456
1102.725
1097.105
1116.93
1115.974
1114.989
1113.975
1112.933
1111.865
1110.765
1109.628
1108.428
1107.1
1105.464
1103.078
1098.356
1117.658
1116.736
1115.781
1114.797
1113.785
1112.744
1111.675
1110.577
1109.444
1108.26
1106.97
1105.491
1103.487
1099.815
1118.319
1117.43
1116.508
1115.555
1114.572
1113.561
1112.519
1111.45
1110.353
1109.227
1108.061
1106.855
1105.556
1103.977
1101.547
1118.95
1118.094
1117.205
1116.285
1115.334
1114.353
1113.34
1112.299
1111.23
1110.135
1109.023
1107.912
1106.807
1105.711
1104.661
1103.703
1119.603
1118.782
1117.927
1117.041
1116.122
1115.173
1114.191
1113.179
1112.137
1111.068
1109.986
1108.91
1107.852
1106.826
1105.856
1104.887
1103.885
1120.28
1119.493
1118.673
1117.821
1116.937
1116.021
1115.071
1114.09
1113.077
1112.036
1110.976
1109.92
1108.877
1107.862
1106.896
1105.937
1104.938
1104.018
1120.964
1120.212
1119.428
1118.61
1117.761
1116.879
1115.963
1115.013
1114.032
1113.02
1111.984
1110.943
1109.909
1108.895
1107.918
1106.949
1105.956
1104.982
1104.123
1121.642
1120.926
1120.177
1119.395
1118.58
1117.733
1116.851
1115.935
1114.987
1114.006
1112.996
1111.971
1110.945
1109.931
1108.942
1107.959
1106.96
1105.976
1105.023
1104.211
1103.7
1102.284
1105.039
1103.69
1102.174
1106.35
1105.076
1103.665
1101.914
1107.676
1106.45
1105.142
1103.613
1101.43
1109.034
1107.847
1106.605
1105.237
1103.509
1100.623
1110.416
1109.265
1108.072
1106.801
1105.339
1103.326
1099.451
1111.751
1110.635
1109.486
1108.285
1106.979
1105.412
1103.077
1098.158
1113.002
1111.919
1110.808
1109.66
1108.452
1107.113
1105.445
1102.82
1097.012
1114.156
1113.106
1112.028
1110.921
1109.775
1108.561
1107.195
1105.452
1102.617
1096.196
1115.214
1114.196
1113.15
1112.076
1110.973
1109.829
1108.61
1107.232
1105.452
1102.514
1096.103
1116.178
1115.192
1114.176
1113.133
1112.063
1110.963
1109.82
1108.603
1107.227
1105.454
1102.609
1096.687
1117.049
1116.095
1115.111
1114.098
1113.058
1111.99
1110.891
1109.75
1108.54
1107.182
1105.466
1102.876
1097.59
1117.83
1116.909
1115.956
1114.974
1113.963
1112.924
1111.856
1110.757
1109.621
1108.422
1107.085
1105.491
1103.216
1098.751
1118.527
1117.639
1116.719
1115.768
1114.787
1113.777
1112.737
1111.668
1110.571
1109.439
1108.243
1106.968
1105.534
1103.625
1100.156
1119.156
1118.301
1117.414
1116.495
1115.546
1114.566
1113.555
1112.514
1111.446
1110.35
1109.218
1108.062
1106.882
1105.626
1104.14
1119.754
1118.934
1118.08
1117.194
1116.277
1115.329
1114.348
1113.337
1112.296
1111.228
1110.135
1109.033
1107.939
1106.866
1105.843
1104.862
1103.812
1120.374
1119.588
1118.769
1117.917
1117.034
1116.118
1115.169
1114.189
1113.177
1112.136
1111.072
1110.001
1108.938
1107.9
1106.908
1105.934
1104.924
1103.971
1121.016
1120.265
1119.481
1118.664
1117.814
1116.933
1116.017
1115.069
1114.088
1113.076
1112.038
1110.989
1109.945
1108.919
1107.928
1106.951
1105.955
1104.975
1104.096
1121.666
1120.95
1120.2
1119.418
1118.604
1117.757
1116.875
1115.96
1115.011
1114.031
1113.019
1111.991
1110.961
1109.942
1108.947
1107.961
1106.96
1105.975
1105.02
1104.2
1122.31
1121.629
1120.915
1120.168
1119.388
1118.576
1117.729
1116.848
1115.933
1114.985
1114.001
1112.993
1111.978
1110.965
1109.967
1108.973
1107.967
1106.971
1105.996
1105.063
1104.288
1105.02
1103.703
1102.295
1106.289
1105.037
1103.697
1102.191
1107.558
1106.345
1105.079
1103.677
1101.938
1108.848
1107.667
1106.447
1105.148
1103.628
1101.463
1110.17
1109.021
1107.839
1106.603
1105.243
1103.528
1100.663
1111.515
1110.397
1109.251
1108.064
1106.799
1105.346
1103.343
1099.498
1112.814
1111.73
1110.618
1109.473
1108.277
1106.978
1105.416
1103.093
1098.214
1114.031
1112.979
1111.9
1110.793
1109.649
1108.446
1107.11
1105.447
1102.837
1097.078
1115.152
1114.133
1113.086
1112.012
1110.909
1109.767
1108.554
1107.191
1105.454
1102.635
1096.548
1116.178
1115.192
1114.176
1113.133
1112.063
1110.963
1109.82
1108.603
1107.227
1105.454
1102.609
1096.687
1117.109
1116.156
1115.172
1114.16
1113.12
1112.053
1110.954
1109.811
1108.595
1107.222
1105.463
1102.766
1097.192
1117.948
1117.028
1116.076
1115.095
1114.086
1113.048
1111.981
1110.882
1109.742
1108.533
1107.161
1105.487
1103.017
1098.006
1118.697
1117.81
1116.891
1115.942
1114.962
1113.954
1112.916
1111.848
1110.75
1109.614
1108.394
1107.064
1105.52
1103.345
1099.086
1119.362
1118.508
1117.622
1116.705
1115.757
1114.779
1113.769
1112.73
1111.662
1110.565
1109.415
1108.218
1106.969
1105.577
1103.753
1119.958
1119.139
1118.286
1117.402
1116.486
1115.539
1114.56
1113.549
1112.509
1111.442
1110.334
1109.202
1108.063
1106.906
1105.69
1120.523
1119.738
1118.92
1118.069
1117.186
1116.272
1115.324
1114.344
1113.333
1112.293
1111.22
1110.127
1109.036
1107.959
1106.923
1105.929
1104.907
1103.913
1121.11
1120.359
1119.575
1118.759
1117.91
1117.029
1116.114
1115.166
1114.186
1113.175
1112.132
1111.07
1110.008
1108.96
1107.945
1106.953
1105.952
1104.965
1104.058
1121.718
1121.002
1120.253
1119.471
1118.657
1117.81
1116.929
1116.014
1115.066
1114.086
1113.072
1112.036
1110.997
1109.966
1108.958
1107.964
1106.961
1105.974
1105.015
1104.178
1122.333
1121.652
1120.938
1120.191
1119.412
1118.599
1117.753
1116.872
1115.957
1115.009
1114.024
1113.013
1111.994
1110.976
1109.972
1108.975
1107.968
1106.971
1105.995
1105.061
1104.279
1122.943
1122.296
1121.617
1120.905
1120.161
1119.384
1118.572
1117.725
1116.844
1115.93
1114.975
1113.988
1112.988
1111.983
1110.983
1109.986
1108.978
1107.973
1106.981
1106.016
1105.103
1104.365
1106.261
1105.019
1103.71
1102.312
1107.491
1106.284
1105.04
1103.708
1102.214
1108.729
1107.55
1106.344
1105.085
1103.693
1101.967
1109.987
1108.837
1107.662
1106.449
1105.158
1103.649
1101.497
1111.275
1110.156
1109.011
1107.835
1106.606
1105.255
1103.548
1100.703
1112.583
1111.496
1110.383
1109.241
1108.059
1106.801
1105.354
1103.359
1099.545
1113.847
1112.793
1111.712
1110.604
1109.464
1108.274
1106.977
1105.42
1103.109
1098.271
1115.029
1114.009
1112.96
1111.885
1110.781
1109.642
1108.439
1107.106
1105.449
1102.853
1097.394
1116.117
1115.13
1114.114
1113.07
1112
1110.9
1109.758
1108.547
1107.187
1105.456
1102.725
1097.105
1117.109
1116.156
1115.172
1114.16
1113.12
1112.053
1110.954
1109.811
1108.595
1107.222
1105.463
1102.766
1097.192
1118.008
1117.088
1116.137
1115.156
1114.147
1113.111
1112.044
1110.944
1109.803
1108.588
1107.199
1105.482
1102.912
1097.623
1118.813
1117.927
1117.01
1116.061
1115.083
1114.076
1113.039
1111.972
1110.873
1109.734
1108.498
1107.131
1105.509
1103.148
1098.355
1119.529
1118.677
1117.793
1116.877
1115.93
1114.953
1113.945
1112.907
1111.84
1110.742
1109.579
1108.351
1107.049
1105.549
1103.465
1120.161
1119.343
1118.492
1117.609
1116.694
1115.749
1114.771
1113.762
1112.723
1111.655
1110.535
1109.376
1108.197
1106.971
1105.616
1120.725
1119.941
1119.124
1118.274
1117.392
1116.479
1115.532
1114.553
1113.544
1112.504
1111.42
1110.305
1109.185
1108.061
1106.925
1121.258
1120.507
1119.724
1118.909
1118.06
1117.18
1116.266
1115.319
1114.339
1113.329
1112.279
1111.197
1110.11
1109.029
1107.972
1106.955
1105.949
1104.953
1104.01
1121.811
1121.095
1120.346
1119.565
1118.751
1117.905
1117.024
1116.109
1115.162
1114.183
1113.164
1112.116
1111.06
1110.008
1108.976
1107.968
1106.963
1105.972
1105.008
1104.146
1122.385
1121.704
1120.99
1120.243
1119.464
1118.652
1117.806
1116.925
1116.01
1115.063
1114.076
1113.058
1112.029
1111
1109.983
1108.979
1107.97
1106.972
1105.994
1105.057
1104.261
1122.966
1122.319
1121.64
1120.929
1120.184
1119.407
1118.595
1117.749
1116.868
1115.954
1114.998
1114.008
1113.003
1111.993
1110.988
1109.988
1108.979
1107.973
1106.982
1106.015
1105.102
1104.358
1123.541
1122.929
1122.285
1121.608
1120.899
1120.156
1119.379
1118.567
1117.721
1116.841
1115.916
1114.953
1113.972
1112.98
1111.986
1110.993
1109.988
1108.98
1107.978
1106.992
1106.036
1105.144
1104.443
1107.46
1106.257
1105.022
1103.722
1102.334
1108.661
1107.484
1106.284
1105.048
1103.725
1102.242
1109.87
1108.719
1107.547
1106.347
1105.097
1103.714
1101.998
1111.096
1109.975
1108.83
1107.661
1106.455
1105.172
1103.671
1101.531
1112.35
1111.26
1110.145
1109.005
1107.835
1106.613
1105.267
1103.568
1100.744
1113.621
1112.565
1111.481
1110.373
1109.236
1108.059
1106.804
1105.361
1103.376
1099.593
1114.849
1113.826
1112.776
1111.699
1110.595
1109.459
1108.27
1106.976
1105.424
1103.124
1098.542
1115.996
1115.007
1113.99
1112.945
1111.873
1110.773
1109.635
1108.434
1107.103
1105.452
1102.935
1097.904
1117.049
1116.095
1115.111
1114.098
1113.058
1111.99
1110.891
1109.75
1108.54
1107.182
1105.466
1102.876
1097.59
1118.008
1117.088
1116.137
1115.156
1114.147
1113.111
1112.044
1110.944
1109.803
1108.588
1107.199
1105.482
1102.912
1097.623
1118.872
1117.987
1117.069
1116.121
1115.144
1114.137
1113.101
1112.034
1110.935
1109.794
1108.551
1107.164
1105.503
1103.046
1097.982
1119.645
1118.793
1117.91
1116.994
1116.049
1115.073
1114.066
1113.029
1111.962
1110.864
1109.693
1108.445
1107.106
1105.532
1103.269
1120.327
1119.51
1118.66
1117.778
1116.865
1115.921
1114.944
1113.936
1112.899
1111.832
1110.703
1109.524
1108.315
1107.037
1105.577
1120.926
1120.143
1119.327
1118.478
1117.598
1116.686
1115.74
1114.763
1113.754
1112.716
1111.622
1110.487
1109.342
1108.178
1106.974
1121.458
1120.708
1119.926
1119.111
1118.264
1117.385
1116.472
1115.525
1114.547
1113.538
1112.478
1111.38
1110.275
1109.166
1108.056
1121.957
1121.242
1120.494
1119.713
1118.9
1118.054
1117.174
1116.26
1115.313
1114.335
1113.309
1112.244
1111.165
1110.083
1109.01
1107.973
1106.964
1105.97
1104.999
1104.105
1122.476
1121.796
1121.082
1120.336
1119.557
1118.746
1117.899
1117.019
1116.105
1115.158
1114.167
1113.136
1112.092
1111.042
1110.003
1108.984
1107.972
1106.972
1105.993
1105.051
1104.234
1123.017
1122.371
1121.692
1120.98
1120.236
1119.459
1118.647
1117.801
1116.921
1116.007
1115.048
1114.051
1113.038
1112.017
1111
1109.992
1108.981
1107.975
1106.982
1106.015
1105.099
1104.344
1123.564
1122.952
1122.308
1121.631
1120.921
1120.179
1119.402
1118.591
1117.745
1116.865
1115.938
1114.972
1113.987
1112.99
1111.991
1110.995
1109.99
1108.981
1107.979
1106.992
1106.036
1105.143
1104.437
1124.105
1123.528
1122.918
1122.276
1121.601
1120.894
1120.151
1119.375
1118.563
1117.718
1116.824
1115.887
1114.928
1113.953
1112.97
1111.987
1110.992
1109.989
1108.983
1107.983
1107.002
1106.056
1105.185
1104.518
1108.631
1107.454
1106.257
1105.03
1103.738
1102.361
1109.803
1108.652
1107.481
1106.288
1105.06
1103.747
1102.271
1110.982
1109.859
1108.714
1107.547
1106.355
1105.113
1103.736
1102.029
1112.175
1111.083
1109.966
1108.827
1107.664
1106.465
1105.187
1103.692
1101.567
1113.393
1112.334
1111.248
1110.138
1109.004
1107.84
1106.621
1105.279
1103.588
1100.786
1114.628
1113.603
1112.55
1111.47
1110.366
1109.234
1108.059
1106.807
1105.368
1103.393
1099.824
1115.819
1114.828
1113.809
1112.762
1111.689
1110.589
1109.454
1108.267
1106.975
1105.428
1103.203
1099.001
1116.93
1115.974
1114.989
1113.975
1112.933
1111.865
1110.765
1109.628
1108.428
1107.1
1105.464
1103.078
1098.356
1117.948
1117.028
1116.076
1115.095
1114.086
1113.048
1111.981
1110.882
1109.742
1108.533
1107.161
1105.487
1103.017
1098.006
1118.872
1117.987
1117.069
1116.121
1115.144
1114.137
1113.101
1112.034
1110.935
1109.794
1108.551
1107.164
1105.503
1103.046
1097.982
1119.703
1118.852
1117.968
1117.054
1116.109
1115.134
1114.127
1113.091
1112.024
1110.926
1109.75
1108.492
1107.135
1105.524
1103.169
1120.441
1119.625
1118.776
1117.895
1116.982
1116.039
1115.063
1114.057
1113.02
1111.953
1110.82
1109.628
1108.399
1107.086
1105.555
1121.091
1120.308
1119.493
1118.646
1117.766
1116.856
1115.912
1114.935
1113.928
1112.89
1111.79
1110.641
1109.476
1108.283
1107.028
1121.657
1120.908
1120.127
1119.313
1118.467
1117.59
1116.678
1115.732
1114.755
1113.747
1112.679
1111.567
1110.443
1109.31
1108.162
1122.155
1121.441
1120.693
1119.914
1119.101
1118.257
1117.378
1116.465
1115.519
1114.541
1113.508
1112.43
1111.34
1110.243
1109.145
1122.622
1121.942
1121.228
1120.483
1119.704
1118.893
1118.048
1117.168
1116.255
1115.308
1114.31
1113.264
1112.199
1111.121
1110.04
1108.99
1107.975
1106.973
1105.991
1105.045
1104.199
1123.108
1122.462
1121.783
1121.072
1120.328
1119.551
1118.74
1117.894
1117.014
1116.101
1115.138
1114.129
1113.1
1112.06
1111.019
1109.998
1108.985
1107.976
1106.982
1106.014
1105.095
1104.323
1123.615
1123.003
1122.359
1121.682
1120.973
1120.231
1119.454
1118.642
1117.797
1116.917
1115.988
1115.015
1114.021
1113.014
1112.002
1110.999
1109.992
1108.983
1107.98
1106.992
1106.035
1105.141
1104.427
1124.127
1123.55
1122.941
1122.298
1121.624
1120.916
1120.174
1119.397
1118.586
1117.741
1116.846
1115.906
1114.943
1113.964
1112.975
1111.989
1110.994
1109.99
1108.983
1107.984
1107.002
1106.056
1105.184
1104.515
1124.634
1124.092
1123.517
1122.909
1122.269
1121.596
1120.889
1120.147
1119.37
1118.559
1117.697
1116.788
1115.854
1114.901
1113.933
1112.964
1111.985
1110.991
1109.988
1108.984
1107.988
1107.012
1106.076
1105.224
1104.589
1109.774
1108.622
1107.451
1106.261
1105.043
1103.76
1102.389
1110.917
1109.793
1108.647
1107.482
1106.297
1105.077
1103.769
1102.3
1112.064
1110.97
1109.852
1108.712
1107.552
1106.367
1105.129
1103.759
1102.061
1113.223
1112.161
1111.073
1109.962
1108.828
1107.671
1106.476
1105.202
1103.714
1101.602
1114.404
1113.377
1112.321
1111.24
1110.135
1109.006
1107.844
1106.628
1105.291
1103.608
1100.991
1115.601
1114.609
1113.587
1112.538
1111.463
1110.363
1109.232
1108.059
1106.81
1105.376
1103.478
1100.252
1116.755
1115.798
1114.811
1113.795
1112.752
1111.682
1110.583
1109.449
1108.263
1106.974
1105.449
1103.346
1099.427
1117.83
1116.909
1115.956
1114.974
1113.963
1112.924
1111.856
1110.757
1109.621
1108.422
1107.085
1105.491
1103.216
1098.751
1118.813
1117.927
1117.01
1116.061
1115.083
1114.076
1113.039
1111.972
1110.873
1109.734
1108.498
1107.131
1105.509
1103.148
1098.355
1119.703
1118.852
1117.968
1117.054
1116.109
1115.134
1114.127
1113.091
1112.024
1110.926
1109.75
1108.492
1107.135
1105.524
1103.169
1120.499
1119.683
1118.834
1117.953
1117.042
1116.099
1115.124
1114.117
1113.081
1112.015
1110.879
1109.681
1108.442
1107.111
1105.545
1121.204
1120.422
1119.608
1118.761
1117.883
1116.973
1116.029
1115.054
1114.047
1113.011
1111.907
1110.749
1109.571
1108.359
1107.07
1121.82
1121.072
1120.292
1119.479
1118.634
1117.757
1116.846
1115.902
1114.926
1113.919
1112.847
1111.723
1110.586
1109.434
1108.257
1122.353
1121.639
1120.893
1120.114
1119.303
1118.459
1117.581
1116.669
1115.724
1114.747
1113.708
1112.619
1111.516
1110.404
1109.282
1122.818
1122.139
1121.426
1120.681
1119.904
1119.094
1118.249
1117.37
1116.458
1115.512
1114.508
1113.453
1112.382
1111.299
1110.211
1123.252
1122.606
1121.928
1121.217
1120.474
1119.698
1118.887
1118.041
1117.162
1116.249
1115.28
1114.257
1113.209
1112.141
1111.06
1110.005
1108.988
1107.978
1106.983
1106.012
1105.09
1104.293
1123.705
1123.094
1122.45
1121.773
1121.064
1120.322
1119.546
1118.734
1117.889
1117.009
1116.077
1115.092
1114.083
1113.057
1112.022
1111.005
1109.996
1108.985
1107.981
1106.992
1106.035
1105.139
1104.411
1124.178
1123.601
1122.991
1122.349
1121.675
1120.967
1120.225
1119.449
1118.638
1117.792
1116.895
1115.948
1114.977
1113.987
1112.986
1111.993
1110.997
1109.991
1108.984
1107.984
1107.002
1106.056
1105.184
1104.508
1124.657
1124.114
1123.539
1122.931
1122.291
1121.619
1120.911
1120.169
1119.393
1118.582
1117.719
1116.807
1115.869
1114.911
1113.938
1112.966
1111.987
1110.992
1109.989
1108.985
1107.988
1107.012
1106.077
1105.224
1104.588
1125.13
1124.622
1124.081
1123.507
1122.902
1122.264
1121.591
1120.883
1120.142
1119.366
1118.536
1117.657
1116.75
1115.82
1114.872
1113.922
1112.962
1111.982
1110.989
1109.987
1108.985
1107.993
1107.022
1106.096
1105.261
1104.688
1110.888
1109.764
1108.618
1107.453
1106.27
1105.06
1103.783
1102.418
1112.001
1110.906
1109.787
1108.646
1107.488
1106.309
1105.094
1103.792
1102.33
1113.115
1112.051
1110.962
1109.848
1108.714
1107.561
1106.379
1105.146
1103.781
1102.093
1114.238
1113.208
1112.151
1111.067
1109.961
1108.832
1107.678
1106.487
1105.217
1103.736
1101.779
1115.382
1114.388
1113.364
1112.312
1111.235
1110.135
1109.008
1107.848
1106.636
1105.303
1103.709
1101.416
1116.542
1115.583
1114.594
1113.575
1112.53
1111.458
1110.359
1109.23
1108.059
1106.813
1105.414
1103.64
1100.687
1117.658
1116.736
1115.781
1114.797
1113.785
1112.744
1111.675
1110.577
1109.444
1108.26
1106.97
1105.491
1103.487
1099.815
1118.697
1117.81
1116.891
1115.942
1114.962
1113.954
1112.916
1111.848
1110.75
1109.614
1108.394
1107.064
1105.52
1103.345
1099.086
1119.645
1118.793
1117.91
1116.994
1116.049
1115.073
1114.066
1113.029
1111.962
1110.864
1109.693
1108.445
1107.106
1105.532
1103.269