/*--------------------------------*- C++ -*----------------------------------*\
| =========                 |                                                 |
| \\      /  F ield         | OpenFOAM: The Open Source CFD Toolbox           |
|  \\    /   O peration     | Version:  2306                                  |
|   \\  /    A nd           | Website:  www.openfoam.com                      |
|    \\/     M anipulation  |                                                 |
\*---------------------------------------------------------------------------*/
FoamFile
{
    version     2.0;
    format      ascii;
    arch        "LSB;label=32;scalar=64";
    class       volVectorField;
    location    "1.2/phiI";
    object      i;
}
// * * * * * * * * * * * * * * * * * * * * * * * * * * * * * * * * * * * * * //

dimensions      [0 -2 0 0 0 1 0];

internalField   nonuniform List<vector> 
12000
(
(36.17962 5.10379 1625.598)
(36.36712 15.26638 1639.739)
(72.46057 6.978742 1491.453)
(36.7162 4.538154 4898.814)
(36.62305 26.45595 1668.199)
(72.73435 19.70067 1500.649)
(36.92348 13.56234 4941.319)
(66.27865 7.841672 1378.149)
(73.45036 6.610884 4494.715)
(37.79602 3.403613 8225.802)
(36.64801 40.89003 1710.758)
(73.13913 29.26484 1518.684)
(37.22111 23.61521 5026.854)
(66.38762 22.05197 1385.196)
(73.75253 18.61145 4522.363)
(38.04294 10.1448 8297.325)
(54.67448 8.068392 1287.188)
(67.09571 7.559792 4153.172)
(75.44314 5.872834 7545.963)
(39.43556 1.677237 11636.97)
(35.92131 60.74183 1765.408)
(73.30568 33.87262 1544.348)
(37.31364 37.00168 5154.747)
(66.58296 32.16919 1398.858)
(74.21649 27.5169 4576.583)
(38.42414 17.91883 8441.251)
(54.70005 22.74376 1292.974)
(67.21832 21.22362 4174.358)
(75.8022 16.42597 7592.497)
(39.74279 4.944386 11739.02)
(45.20477 8.097384 1211.487)
(55.34113 7.83694 3878.892)
(68.74195 6.994233 6971.407)
(78.46794 4.749546 10670.28)
(41.6628 -0.6783719 15175.65)
(33.87267 81.14502 1824.209)
(72.57964 32.98848 1574.719)
(36.68406 56.20377 5318.896)
(66.78646 35.29519 1417.867)
(74.47724 31.63118 4653.776)
(38.65189 29.20835 8656.437)
(54.75994 33.25329 1304.117)
(67.44123 30.86236 4215.435)
(76.3848 24.00833 7683.77)
(40.25104 9.250724 11944.4)
(45.19798 22.90662 1216.417)
(55.37517 22.0666 3896.287)
(68.89192 19.56142 7007.062)
(78.91358 13.09918 10736.68)
(42.05232 -2.152273 15310.51)
(37.96221 8.000477 1146.308)
(45.76829 7.900176 3650.58)
(56.68484 7.37257 6510.06)
(71.23933 6.133569 9854.223)
(82.57414 3.216835 13904.81)
(44.51892 -3.717207 17003.45)
(30.73835 91.81175 1870.477)
(70.18992 29.31538 1603.641)
(34.75495 76.94228 5495.274)
(66.83918 29.58424 1439.47)
(73.88339 30.61678 4745.188)
(38.21614 47.12074 8932.487)
(54.85463 36.43483 1319.416)
(67.68619 33.67072 4272.628)
(76.83415 27.12843 7813.795)
(40.68421 17.35222 12251.5)
(45.20086 33.71499 1225.87)
(55.45189 32.19562 3929.791)
(69.17013 28.23837 7076.214)
(79.67664 18.66499 10866.96)
(42.73389 -2.580182 15581.98)
(37.93688 22.7047 1150.605)
(45.76745 22.33129 3665.402)
(56.73587 20.70778 6539.333)
(71.43097 17.03132 9905.09)
(83.13793 8.55867 13992.54)
(45.01465 -11.30913 17155.09)
(32.46465 7.844137 1089.038)
(38.45201 7.82859 3453.97)
(46.90445 7.504527 6126.066)
(58.72249 6.666018 9199.459)
(74.62522 4.959567 12834.06)
(87.83429 1.240177 15574.91)
(47.37696 -6.744134 17045.37)
(27.39478 84.92293 1901.133)
(66.28281 27.03285 1623.599)
(31.72586 88.7348 5633.799)
(66.47534 18.17672 1458.61)
(71.65232 27.36022 4832.309)
(36.52453 68.54891 9228.644)
(54.96619 29.87727 1336.379)
(67.79254 27.95452 4337.709)
(76.50439 25.84717 7967.924)
(40.54232 33.31548 12645.37)
(45.23603 37.35765 1238.738)
(55.57115 35.14435 3975.827)
(69.49825 30.40426 7172.582)
(80.41266 20.26504 11052.69)
(43.44712 1.169526 15988.05)
(37.90362 33.63385 1158.819)
(45.78205 32.82216 3693.824)
(56.84639 30.07169 6595.73)
(71.79339 24.24157 10003.78)
(84.14727 11.3678 14164.76)
(45.91994 -17.85115 17460.41)
(32.42898 22.32078 1092.846)
(38.43117 22.20424 3466.888)
(46.91557 21.17686 6151.004)
(58.7994 18.63977 9241.209)
(74.87379 13.579 12901.24)
(88.55065 2.701072 15673.51)
(47.97866 -20.4306 17196.42)
(28.18591 7.643749 1037.911)
(32.89824 7.691827 3281.185)
(39.43979 7.483753 5795.405)
(48.62691 6.902649 8654.766)
(61.48267 5.702579 11976.03)
(78.95441 3.44639 14371.78)
(93.10082 -0.7271923 15615.88)
(50.2369 -9.75922 17087.32)
(24.7207 59.27609 1919.085)
(61.92973 24.7465 1635.295)
(28.45813 82.97858 5725.366)
(65.53689 9.209833 1470.332)
(67.88339 25.7667 4892.409)
(33.70391 82.60805 9460.745)
(55.01147 16.29246 1350.714)
(67.48704 16.94225 4395.507)
(74.58899 23.42654 8115.02)
(39.20944 55.81198 13067.47)
(45.32896 31.15269 1252.777)
(55.71296 28.62534 4026.953)
(69.71212 24.6691 7282.437)
(80.48359 18.56778 11273.12)
(43.70514 14.48195 16508.93)
(37.89015 37.71581 1169.934)
(45.83396 36.28141 3732.545)
(57.01496 32.54837 6673.306)
(72.24814 25.42181 10141.46)
(85.2743 10.88196 14410.5)
(46.99445 -19.7256 17917.26)
(32.37383 33.24766 1100.108)
(38.40667 32.8607 3491.585)
(46.95369 31.02926 6198.843)
(58.96138 26.8367 9321.682)
(75.35124 18.78353 13031.65)
(89.87795 1.946811 15867.09)
(49.10714 -33.06669 17500.57)
(28.14366 21.79649 1041.325)
(32.8661 21.87797 3292.632)
(39.42796 21.20009 5817.138)
(48.65623 19.42021 8690.324)
(61.59494 15.81887 12031.15)
(79.27655 9.127512 14447.25)
(93.96932 -3.128766 15714.02)
(50.94428 -29.51706 17237.78)
(24.8048 7.421696 991.778)
(28.57495 7.507182 3126.9)
(33.77293 7.386269 5504.811)
(40.93702 6.959273 8185.899)
(50.95869 6.082222 11262.89)
(65.00717 4.461509 13408.01)
(83.29281 1.940942 14410.53)
(98.37366 -2.685461 15656.9)
(53.09867 -12.76255 17129.09)
(23.26464 21.16505 1927.288)
(58.34649 17.9747 1641.521)
(25.83096 58.22986 5778.867)
(64.24646 5.559734 1476.089)
(63.6299 24.02958 4927.558)
(30.58601 79.12019 9613.767)
(54.87271 4.744014 1358.699)
(66.59649 8.510663 4430.981)
(71.09408 23.22287 8216.473)
(36.70294 73.3299 13397.69)
(45.46383 17.24196 1264.264)
(55.78886 15.39968 4070.301)
(69.52337 14.44581 7380.325)
(79.04559 17.41824 11483.85)
(42.85899 38.45625 17066.8)
(37.93514 32.15521 1181.923)
(45.94678 30.13167 3774.862)
(57.21758 26.09833 6759.647)
(72.62565 19.6448 10298.72)
(85.891 8.600631 14702.58)
(47.76773 -9.834243 18503.51)
(32.32619 37.67279 1109.892)
(38.40553 36.79165 3525.03)
(47.03922 34.11614 6264.088)
(59.20512 28.58766 9432.504)
(75.979 18.60688 13213.8)
(91.50968 -1.24764 16143.49)
(50.54219 -40.5545 17955.85)
(28.07368 32.60592 1047.826)
(32.8178 32.56581 3314.467)
(39.42105 31.30819 5858.701)
(48.73017 28.29882 8758.567)
(61.82725 22.4199 12137.44)
(79.90266 11.73912 14593.77)
(95.6138 -7.431307 15906.69)
(52.29546 -48.22821 17540.78)
(24.75917 21.19845 994.8679)
(28.53558 21.39991 3137.164)
(33.74787 20.98951 5524.066)
(40.93892 19.6724 8216.878)
(51.0129 17.02482 11309.81)
(65.16512 12.1835 13469.9)
(83.68823 4.699303 14485.62)
(99.39389 -8.931542 15754.59)
(53.91144 -38.56899 17278.96)
(22.07573 7.187478 949.7786)
(25.15733 7.298099 2987.646)
(29.36007 7.233199 5245.315)
(35.0986 6.921613 7773.965)
(42.96299 6.244584 10649.42)
(53.93335 5.025929 12607.19)
(68.54102 3.22702 13444.38)
(87.64039 0.4430178 14449.35)
(103.6527 -4.634834 15697.77)
(55.96215 -15.75425 17170.46)
(23.26464 -21.16505 1927.288)
(56.3616 6.604445 1644.205)
(24.39698 20.83692 5803.274)
(63.05528 3.594797 1478.539)
(60.10867 17.61829 4946.215)
(28.05131 56.1598 9702.955)
(54.55752 -0.06963986 1361.941)
(65.33987 5.231421 4448.435)
(67.03745 22.59425 8275.684)
(33.81047 73.29016 13614.96)
(45.5587 4.670309 1270.204)
(55.67323 4.294956 4094.558)
(68.72829 7.092693 7440.593)
(75.964 19.34012 11629.21)
(40.77782 60.7084 17502.58)
(38.05163 18.5899 1191.51)
(46.10064 16.54488 3809.622)
(57.35501 13.58827 6833.194)
(72.61434 10.616 10439.36)
(85.10143 9.183065 14982.38)
(47.54712 16.06585 19131.2)
(32.32676 32.7675 1120.359)
(38.46481 31.29217 3561.171)
(47.19209 28.06959 6335.566)
(59.50045 22.22979 9556.149)
(76.58001 12.75322 13422.32)
(92.83004 -4.307548 16472.4)
(51.82957 -34.0758 18540.47)
(28.0004 37.24507 1056.554)
(32.77971 36.86274 3343.906)
(39.44471 34.93238 5915.05)
(48.86699 30.81248 8851.759)
(62.17377 23.1697 12284.02)
(80.75404 9.795237 14798.56)
(97.74907 -13.33027 16181.89)
(54.09028 -61.32161 17994.55)
(24.68075 31.81501 1000.742)
(28.47114 31.9968 3156.708)
(33.71334 31.19669 5560.809)
(40.95881 28.94423 8276.155)
(51.13579 24.57187 11399.91)
(65.48835 16.72174 13589.28)
(84.4625 4.730805 14631.38)
(101.3547 -16.76821 15946.38)
(55.48477 -63.33722 17580.83)
(22.02866 20.55604 952.5955)
(25.11409 20.83987 2996.936)
(29.32645 20.60418 5262.579)
(35.08433 19.63808 7801.406)
(42.98364 17.58987 10690.28)
(54.01969 13.93935 12659.86)
(68.74446 8.568083 13505.95)
(88.10883 0.2936401 14524.06)
(104.8242 -14.70802 15795.03)
(56.88002 -47.58692 17319.76)
(19.83954 6.950981 911.2867)
(22.3977 7.074801 2860.832)
(25.86907 7.050117 5011.075)
(30.54989 6.816626 7406.196)
(36.89174 6.288643 10110.74)
(45.54563 5.324881 11918.45)
(56.91695 3.97535 12641.26)
(72.08423 1.998912 13480.83)
(91.99706 -1.047603 14488.07)
(108.9377 -6.575538 15738.32)
(58.82722 -18.73447 15355.81)
(24.7207 -59.27609 1919.085)
(56.3616 -6.604445 1644.205)
(24.39698 -20.83692 5803.274)
(62.3539 1.316125 1479.391)
(58.15319 6.497116 4954.232)
(26.66081 20.18878 9743.572)
(54.21458 -0.9508655 1362.864)
(64.1699 3.462726 4455.87)
(63.63848 16.90775 8307.009)
(31.41474 53.03767 13741.37)
(45.5618 -1.021637 1272.187)
(55.37313 -0.2362544 4104.483)
(67.53876 4.564193 7470.324)
(72.20367 20.40817 11713.92)
(38.19017 65.373 17788.85)
(38.18683 5.723728 1196.181)
(46.20878 4.353394 3827.715)
(57.28578 3.376714 6874.609)
(71.96395 4.91071 10526.23)
(82.57992 14.02028 15175.41)
(46.01162 44.44787 19620.59)
(32.40102 19.75888 1128.587)
(38.59434 18.01959 3590.188)
(47.38428 15.12785 6394.597)
(59.73177 10.80123 9661.996)
(76.8108 5.345425 13609.54)
(92.87461 -1.495223 16787.94)
(52.23202 -6.227062 19166.31)
(27.96274 32.90352 1065.832)
(32.79112 32.0197 3375.457)
(39.53276 29.54889 5976.095)
(49.08099 24.91129 8954.128)
(62.59594 16.91863 12448.01)
(81.64392 3.81508 15033.38)
(99.77152 -17.17758 16509.74)
(55.89068 -58.25248 18577.71)
(24.59112 36.56348 1008.609)
(28.40553 36.52484 3182.969)
(33.69443 35.23317 5610.403)
(41.02027 32.09589 8356.622)
(51.34275 26.29372 11523.14)
(65.96778 16.165 13754.03)
(85.53684 1.022698 14835.17)
(103.9924 -25.36941 16220.45)
(57.6386 -82.03155 18033.14)
(21.94589 30.92538 957.9445)
(25.04028 31.26537 3014.599)
(29.27315 30.77371 5295.463)
(35.07075 29.11235 7853.793)
(43.04015 25.71844 10768.52)
(54.20587 19.76574 12761.03)
(69.15822 11.0548 13624.67)
(89.03074 -2.242997 14669.09)
(107.1006 -26.06565 15985.96)
(58.67494 -78.39545 17620.53)
(19.79248 19.90008 913.8703)
(22.35265 20.2294 2869.302)
(25.83062 20.12034 5026.699)
(30.52504 19.39399 7430.793)
(36.89222 17.79639 10146.92)
(45.59049 14.90869 11964.31)
(57.03526 10.87132 12693.66)
(72.33296 4.971939 13542.08)
(92.53824 -4.090249 14562.42)
(110.2601 -20.45901 15835.15)
(59.84989 -56.57155 15488.27)
(17.97817 6.71693 875.809)
(20.13542 6.847638 2744.571)
(23.04803 6.848701 4797.731)
(26.94766 6.67313 7074.278)
(32.15881 6.249324 9630.021)
(39.17621 5.474476 11313.74)
(48.13679 4.410202 11950.34)
(59.9095 2.930299 12675.42)
(75.63674 0.776976 13517.21)
(96.36264 -2.531154 14526.52)
(114.2285 -8.507817 14081.82)
(61.0581 -21.05298 11767.81)
(27.39478 -84.92293 1901.133)
(58.34649 -17.9747 1641.521)
(25.83096 -58.22986 5778.867)
(62.3539 -1.316124 1479.391)
(58.15319 -6.497116 4954.232)
(26.66081 -20.18878 9743.572)
(53.99809 -0.4093106 1362.994)
(63.47874 1.282059 4458.455)
(61.74087 6.283763 8320.429)
(30.08955 19.21226 13798.86)
(45.51167 -1.999513 1272.403)
(55.03912 -0.9929809 4107.364)
(66.41068 3.193985 7483.019)
(68.98842 15.82851 11758.63)
(35.98227 48.80369 17955.16)
(38.27695 -0.5399482 1197.454)
(46.21975 -1.109625 3833.851)
(57.01586 -0.5819008 6891.737)
(70.87566 3.534381 10569.23)
(79.22039 17.41749 15287.8)
(43.81466 55.18696 19941.31)
(32.51751 6.923532 1132.407)
(38.73802 5.485969 3604.44)
(47.51918 3.701182 6425.596)
(59.73321 1.953261 9721.981)
(76.35721 1.897969 13725.57)
(91.07205 7.123235 17005.55)
(51.238 28.30403 19652.88)
(27.99176 20.49743 1073.027)
(32.87495 19.27699 3400.362)
(39.68867 16.85916 6025.393)
(49.33185 12.94366 9039.163)
(62.95579 6.955001 12589.14)
(82.18731 -1.514005 15244.77)
(100.6472 -12.14275 16824.57)
(56.91405 -28.43041 19202.01)
(24.52605 32.68107 1016.929)
(28.37647 32.24456 3210.934)
(33.7277 30.50928 5663.69)
(41.15231 26.87844 8444.043)
(51.64051 20.57343 11658.9)
(66.55412 10.02517 13938.66)
(86.71496 -5.094974 15069.1)
(106.7155 -30.01475 16547.34)
(59.95105 -82.3743 18615.02)
(21.8463 35.69802 965.0911)
(24.95696 35.91603 3038.269)
(29.22295 35.07602 5339.699)
(35.08111 32.74749 7924.599)
(43.15334 28.21686 10874.88)
(54.50355 20.45292 12899.48)
(69.7701 9.194391 13788.55)
(90.32741 -7.713737 14871.93)
(110.2395 -37.36865 16258.96)
(61.18702 -102.6892 18071.45)
(19.70853 29.9914 918.7708)
(22.27378 30.42555 2885.386)
(25.76604 30.16168 5056.417)
(30.4887 28.912 7477.669)
(36.90728 26.26895 10216.03)
(45.69433 21.56039 12052.12)
(57.28443 14.98718 12794.25)
(72.83688 5.417605 13660.18)
(93.6073 -9.183948 14706.74)
(112.8511 -35.32546 16025.26)
(61.86583 -93.4048 15755.14)
(17.932 19.24591 878.1904)
(20.0901 19.60072 2752.339)
(23.00705 19.57389 4811.976)
(26.9165 19.02619 7096.534)
(32.14594 17.74527 9662.438)
(39.19572 15.42634 11354.34)
(48.20574 12.24294 11995.96)
(60.05965 7.820113 12727.54)
(75.93056 1.394342 13578.16)
(96.97629 -8.453181 14600.52)
(115.7012 -26.18541 14167.76)
(62.1621 -63.56029 11868.37)
(16.41015 6.489221 842.9595)
(18.25148 6.621675 2637.374)
(20.73337 6.640235 4602.105)
(24.03358 6.505024 6772.013)
(28.4058 6.159882 9196.331)
(34.20752 5.519938 10774.15)
(41.46892 4.664769 11343.55)
(50.7365 3.500379 11982.33)
(62.91097 1.890584 12709.53)
(79.19839 -0.4390071 13553.37)
(100.7369 -4.007883 13002.74)
(118.35 -10.01298 10799.73)
(62.69952 -22.75697 8320.4)
(30.73835 -91.81175 1870.477)
(61.92973 -24.7465 1635.295)
(28.45813 -82.97858 5725.366)
(63.05528 -3.594796 1478.539)
(60.10867 -17.61829 4946.215)
(28.05131 -56.1598 9702.955)
(53.99809 0.409311 1362.994)
(63.47874 -1.282059 4458.455)
(61.74087 -6.283762 8320.429)
(30.08955 -19.21226 13798.86)
(45.46753 -0.848732 1272.216)
(54.82679 -0.4144941 4107.801)
(65.73962 1.212709 7487.442)
(67.17771 5.96032 11777.74)
(34.7453 17.88897 18030.74)
(38.31874 -1.89349 1197.311)
(46.17388 -2.00069 3834.61)
(56.69962 -1.08357 6896.838)
(69.81059 2.777998 10587.66)
(76.25332 14.35495 15347.02)
(41.84733 43.36202 20127.3)
(32.61581 0.2974274 1133.247)
(38.83271 -0.5851605 3608.424)
(47.54604 -1.297434 6436.335)
(59.50909 -1.125432 9747.073)
(75.40614 2.107055 13783.23)
(88.22616 13.54402 17131.97)
(49.42753 45.10448 19970.6)
(28.07224 7.871659 1076.234)
(32.9973 6.737126 3412.028)
(39.84958 4.994289 6049.871)
(49.50773 2.683882 9084.226)
(63.05379 -0.02635728 12669.63)
(81.98707 -2.036574 15376.05)
(99.55809 0.2591427 17041.42)
(56.45747 12.27604 19685.84)
(24.51854 20.8538 1023.311)
(28.41286 20.08135 3232.714)
(33.83091 18.29607 5706.005)
(41.34871 15.06856 8515.089)
(51.97191 9.923929 11772.38)
(67.08043 1.936231 14098.1)
(87.57016 -8.361365 15280.07)
(108.4196 -22.7625 16861.62)
(61.59358 -50.55236 19238.12)
(21.76235 32.17776 972.6174)
(24.8989 32.09298 3063.345)
(29.2112 30.91372 5386.924)
(35.14781 28.19561 8000.897)
(43.34568 23.21023 10990.8)
(54.90982 14.9415 13052.3)
(70.52023 3.155555 13972.42)
(91.79321 -13.98093 15105.08)
(113.662 -42.82452 16585.02)
(64.01069 -106.4516 18652.23)
(19.60414 34.72798 925.306)
(22.17951 35.1111 2906.891)
(25.69543 34.61365 5096.285)
(30.46201 32.86642 7540.81)
(36.95768 29.34903 10309.59)
(45.87445 23.20454 12171.59)
(57.67248 14.64277 12931.93)
(73.58075 2.255274 13823.24)
(95.12567 -16.41714 14908.69)
(116.4902 -49.33172 16297.25)
(64.73541 -123.2998 16155.31)
(17.84878 29.04192 882.7031)
(20.00949 29.53397 2767.077)
(22.93598 29.42179 4839.036)
(26.86599 28.48196 7138.888)
(32.13277 26.37304 9724.259)
(39.24779 22.60536 11431.9)
(48.35667 17.42699 12083.26)
(60.37151 10.23486 12827.58)
(76.52427 -0.1913298 13695.65)
(98.19199 -16.09377 14744.16)
(118.606 -44.5496 14336.48)
(64.34958 -105.0771 12070.93)
(16.36547 18.60615 845.164)
(18.20682 18.97014 2644.536)
(20.69155 18.99983 4615.171)
(23.99876 18.57721 6792.3)
(28.38459 17.53597 9225.653)
(34.2101 15.62447 10810.52)
(41.50735 13.07007 11383.93)
(50.8294 9.592048 12027.7)
(63.0928 4.785055 12761.38)
(79.53711 -2.16546 13614.03)
(101.4227 -12.79602 13068.45)
(119.9393 -30.6454 10865.03)
(63.86326 -68.69655 8391.021)
(15.07449 6.270192 812.4253)
(16.66368 6.401043 2538.08)
(18.80413 6.43046 4421.695)
(21.63956 6.325008 6494.88)
(25.36563 6.037244 8801.518)
(30.26167 5.50026 10287.36)
(36.26432 4.79453 10801.92)
(43.7699 3.859368 11373.44)
(53.34471 2.595233 12014.28)
(65.92123 0.8560019 12743.45)
(82.76899 -1.649267 12135.57)
(104.1476 -5.159655 9979.154)
(121.3831 -11.1196 7639.574)
(63.7814 -23.87782 4966.8)
(33.87267 -81.14502 1824.209)
(66.28281 -27.03285 1623.599)
(31.72586 -88.7348 5633.799)
(64.24646 -5.559733 1476.089)
(63.6299 -24.02958 4927.558)
(30.58601 -79.12019 9613.767)
(54.21458 0.9508659 1362.864)
(64.1699 -3.462725 4455.87)
(63.63848 -16.90775 8307.009)
(31.41474 -53.03767 13741.37)
(45.46753 0.8487323 1272.216)
(54.82679 0.4144945 4107.801)
(65.73962 -1.212708 7487.442)
(67.17771 -5.96032 11777.74)
(34.7453 -17.88897 18030.74)
(38.33177 -0.8506951 1196.976)
(46.13161 -0.8412362 3834.097)
(56.49552 -0.4267843 6897.689)
(69.1697 1.105134 10594.1)
(74.55991 5.519319 15372.29)
(40.72336 16.1892 20211.73)
(32.67745 -1.451316 1132.912)
(38.8767 -1.874363 3608.095)
(47.50875 -2.009375 6437.871)
(59.21971 -1.231075 9754.755)
(74.42617 2.198952 13808.06)
(85.57682 12.44906 17198.42)
(47.69782 37.98696 20154.38)
(28.15172 1.059491 1076.79)
(33.09846 0.2772048 3414.693)
(39.95358 -0.6861616 6056.955)
(49.55887 -1.600629 9100.186)
(62.89202 -1.892861 12703.71)
(81.21201 0.2346694 15441.35)
(97.2202 9.702692 17166.93)
(55.02933 35.12706 20000.54)
(24.56491 8.52313 1026.055)
(28.49764 7.721154 3242.513)
(33.96522 6.350267 5726.075)
(41.5361 4.223487 8550.767)
(52.20403 1.260276 11833.07)
(67.30319 -2.629831 14189.45)
(87.62158 -5.965478 15411.21)
(108.0387 -6.571165 17077.71)
(61.67054 -3.637072 19719.3)
(21.72726 20.88609 978.338)
(24.8973 20.48875 3082.661)
(29.26256 19.23429 5423.929)
(35.2808 16.78158 8061.89)
(43.59777 12.59017 11085.65)
(55.34579 5.976747 13180.53)
(71.21274 -3.076572 14131.52)
(92.95954 -15.19848 15315.73)
(116.1923 -33.35755 16898.9)
(66.27094 -72.60143 19274.48)
(19.50864 31.49067 932.1632)
(22.10141 31.64789 2929.576)
(25.65148 30.90538 5138.624)
(30.47673 28.87539 7608.414)
(37.07022 25.01766 10410.74)
(46.14496 18.44754 12302.04)
(58.18701 9.331476 13084.04)
(74.49435 -3.693445 14006.41)
(96.87866 -22.84686 15141.16)
(120.611 -55.61248 16622.6)
(68.06957 -130.4953 16670.97)
(17.74294 33.69913 888.711)
(19.90966 34.19229 2786.744)
(22.8524 33.93045 4875.256)
(26.81474 32.62774 7195.781)
(32.13822 29.84623 9807.662)
(39.34998 24.95922 11536.96)
(48.60342 18.22014 12202.04)
(60.84959 8.860955 12964.53)
(77.39969 -4.655003 13857.94)
(99.93148 -25.09063 14945.28)
(122.7442 -61.26244 14577.92)
(67.49661 -139.3224 12374.64)
(16.28441 28.10087 849.3376)
(18.12651 28.6211 2658.109)
(20.61763 28.61521 4639.966)
(23.93959 27.89436 6830.858)
(28.35328 26.19181 9281.491)
(34.22687 23.10304 10879.89)
(41.59623 18.96398 11461.03)
(51.02719 13.31703 12114.52)
(63.46708 5.507428 12860.89)
(80.22026 -5.773556 13730.94)
(102.7846 -22.97424 13195.98)
(123.0878 -51.73198 10993.2)
(66.17675 -113.6556 8533.277)
(15.03162 17.98853 814.4735)
(16.62034 18.35103 2544.711)
(18.76251 18.4165 4433.741)
(21.60305 18.08629 6513.485)
(25.33924 17.22009 8828.237)
(30.25331 15.61981 10320.26)
(36.28227 13.51601 10838.1)
(43.82716 10.72706 11413.61)
(53.46146 6.955415 12059.42)
(66.13459 1.765464 12795.06)
(83.15241 -5.708254 12189.45)
(104.8895 -16.18272 10029.13)
(123.0581 -33.92425 7685.429)
(64.98446 -72.0754 5008.699)
(13.92533 6.060577 783.9481)
(15.31053 6.188264 2445.746)
(17.17666 6.223989 4254.547)
(19.64171 6.139861 6239.324)
(22.86413 5.896055 8439.639)
(27.06035 5.436289 9844.207)
(32.12558 4.8442 10313.12)
(38.32925 4.072959 10829.78)
(46.07913 3.058111 11403.32)
(55.96134 1.694581 12046.08)
(68.94012 -0.1736551 11413.42)
(85.55566 -2.594273 9319.25)
(106.6588 -6.006994 7062.328)
(123.3823 -11.84716 4561.6)
(64.32032 -24.43292 1653.916)
(35.92131 -60.74183 1765.408)
(70.18992 -29.31538 1603.641)
(34.75495 -76.94228 5495.274)
(65.53689 -9.209832 1470.332)
(67.88339 -25.7667 4892.409)
(33.70391 -82.60805 9460.745)
(54.55752 0.06964035 1361.941)
(65.33987 -5.23142 4448.435)
(67.03745 -22.59425 8275.684)
(33.81047 -73.29016 13614.96)
(45.51167 1.999513 1272.403)
(55.03912 0.9929813 4107.364)
(66.41068 -3.193985 7483.019)
(68.98842 -15.82851 11758.63)
(35.98227 -48.80369 17955.16)
(38.33177 0.8506954 1196.976)
(46.13161 0.8412365 3834.097)
(56.49552 0.4267847 6897.689)
(69.1697 -1.105133 10594.1)
(74.55991 -5.519319 15372.29)
(40.72336 -16.1892 20211.73)
(32.70533 -0.7183733 1132.506)
(38.89061 -0.8372649 3607.133)
(47.47021 -0.8282154 6437.131)
(59.02804 -0.4485333 9756.158)
(73.82595 0.9548791 13816.8)
(84.03349 4.949499 17226.71)
(46.68537 14.51204 20237.66)
(28.20713 -0.9982473 1076.347)
(33.16131 -1.421694 3413.775)
(40.00208 -1.841857 6056.644)
(49.53466 -2.032531 9102.788)
(62.63909 -1.446957 12714.45)
(80.34085 1.435223 15469.52)
(94.88447 10.56535 17232.65)
(53.53425 32.67974 20182.05)
(24.62103 1.64636 1026.415)
(28.57904 1.054965 3244.307)
(34.07228 0.2275233 5730.902)
(41.65444 -0.8560847 8561.469)
(52.28845 -2.039938 11855.07)
(67.22172 -2.91818 14228.37)
(87.02053 -1.631794 15476.35)
(106.2032 5.894902 17202.27)
(60.62059 25.25606 20030.94)
(21.74553 8.896578 980.7186)
(24.94697 8.398975 3091.049)
(29.35615 7.407935 5440.806)
(35.43356 5.741261 8091.201)
(43.82168 3.139091 11133.84)
(55.65089 -0.6235761 13249.56)
(71.55975 -5.237074 14222.94)
(93.26099 -9.887748 15446.73)
(116.5145 -13.36694 17114.23)
(66.87772 -19.43659 19753.09)
(19.45448 20.68568 937.3333)
(22.07117 20.56204 2946.887)
(25.66185 19.74561 5171.441)
(30.55112 17.92607 7661.752)
(37.24426 14.68392 10492.18)
(46.4695 9.346932 12409.21)
(58.72748 2.033877 13211.95)
(75.3529 -8.084707 14165.25)
(98.35561 -22.02724 15351.59)
(123.9657 -43.93116 16936.24)
(70.9465 -94.58653 17223.53)
(17.64095 30.6812 894.9949)
(19.81913 31.00958 2807.412)
(22.78608 30.57794 4913.553)
(26.79239 29.08673 7256.379)
(32.18927 26.07606 9897.258)
(39.52198 20.89203 11650.75)
(48.9519 13.70555 12331.83)
(61.47215 3.740621 13116.02)
(78.4765 -10.52511 14040.51)
(101.9712 -31.6969 15177.17)
(127.5623 -68.3844 14866.9)
(71.22697 -149.1803 12765.93)
(16.17961 32.6497 854.886)
(18.02462 33.20746 2676.192)
(20.52694 33.11459 4673.088)
(23.8723 32.13042 6882.535)
(28.32853 29.914 9356.616)
(34.27391 25.94645 10973.52)
(41.74997 20.59507 11565.47)
(51.34029 13.26163 12232.64)
(64.03486 3.105166 12997.17)
(81.22684 -11.53913 13892.51)
(104.7446 -33.73742 13374.57)
(127.6132 -70.54854 11176.58)
(69.52764 -151.0996 8746.609)
(14.95348 27.18327 818.348)
(16.54183 27.71199 2557.267)
(18.68802 27.77568 4456.577)
(21.53933 27.21727 6548.809)
(25.2963 25.81238 8879.055)
(30.2468 23.24343 10382.9)
(36.32879 19.85313 10907.05)
(43.95264 15.34373 11490.27)
(53.70588 9.229302 12145.77)
(66.57102 0.8035083 12894.06)
(83.92465 -11.33066 12293.28)
(106.3648 -28.33851 10126.1)
(126.3854 -57.01184 7775.438)
(67.38094 -119.3006 5093.113)
(13.88446 17.39606 785.8573)
(15.26885 17.75162 2451.908)
(17.13598 17.83868 4265.7)
(19.6047 17.57486 6256.473)
(22.83485 16.84268 8464.134)
(27.04484 15.47574 9874.175)
(32.12998 13.71475 10345.83)
(38.36247 11.41941 10865.76)
(46.15511 8.396747 11443.28)
(56.10182 4.332421 12091.01)
(69.18487 -1.239369 11459.28)
(85.97378 -8.474178 9360.267)
(107.4418 -18.67406 7097.44)
(125.1137 -36.07997 4588.785)
(65.54291 -73.74904 1667.794)
(12.92932 5.861486 757.315)
(14.14577 5.984209 2359.595)
(15.78843 6.02371 4099.075)
(17.95416 5.954928 6002.568)
(20.77338 5.744509 8106.021)
(24.42155 5.345177 9437.996)
(28.7631 4.838526 9867.95)
(33.99756 4.19157 10338.95)
(40.40228 3.355076 10857.62)
(48.39653 2.26083 11433.07)
(58.58624 0.7982345 10791.32)
(71.29822 -0.9784492 8769.326)
(87.6083 -3.28997 6597.969)
(108.3141 -6.564106 4217.98)
(124.3784 -12.20701 1519.185)
(36.64801 -40.89003 1710.758)
(72.57964 -32.98848 1574.719)
(36.68406 -56.20377 5318.896)
(66.47534 -18.17671 1458.61)
(71.65232 -27.36022 4832.309)
(36.52453 -68.54891 9228.644)
(54.87271 -4.744013 1358.699)
(66.59649 -8.510662 4430.981)
(71.09408 -23.22287 8216.473)
(36.70294 -73.3299 13397.69)
(45.5618 1.021638 1272.187)
(55.37313 0.2362548 4104.483)
(67.53876 -4.564192 7470.324)
(72.20367 -20.40817 11713.92)
(38.19017 -65.373 17788.85)
(38.31874 1.89349 1197.311)
(46.17388 2.00069 3834.61)
(56.69962 1.083571 6896.838)
(69.81059 -2.777998 10587.66)
(76.25332 -14.35495 15347.02)
(41.84733 -43.36202 20127.3)
(32.70533 0.7183736 1132.506)
(38.89061 0.8372651 3607.133)
(47.47021 0.8282158 6437.131)
(59.02804 0.4485336 9756.158)
(73.82595 -0.9548787 13816.8)
(84.03349 -4.949499 17226.71)
(46.68537 -14.51204 20237.66)
(28.23418 -0.5718796 1075.909)
(33.1896 -0.7021422 3412.598)
(40.01777 -0.8122112 6055.142)
(49.5018 -0.8116106 9101.93)
(62.46421 -0.482908 12716.59)
(79.7925 0.7558218 15479.43)
(93.48911 4.387516 17260.54)
(52.63182 12.8579 20264.17)
(24.66352 -0.6267046 1025.91)
(28.63514 -0.9630055 3243.053)
(34.13762 -1.367492 5729.578)
(41.70988 -1.801834 8561.416)
(52.28211 -2.079139 11859.1)
(67.01555 -1.746009 14240.81)
(86.2566 0.6760032 15504.36)
(104.1769 8.704667 17267.22)
(59.35713 27.44149 20210.16)
(21.78044 2.045524 980.9373)
(25.00444 1.652155 3092.239)
(29.44153 1.037892 5444.131)
(35.54976 0.1371077 8098.631)
(43.9598 -1.112095 11148.83)
(55.77841 -2.641808 13274.89)
(71.55788 -3.947092 14261.95)
(92.83195 -3.491079 15511.65)
(115.1757 2.122024 17237.81)
(66.20185 15.49261 20061.65)
(19.4517 9.054957 939.4217)
(22.09207 8.792605 2954.168)
(25.71829 8.140004 5185.901)
(30.65834 6.913072 7686.438)
(37.42254 4.880597 10531.85)
(46.74098 1.696376 12464.1)
(59.10544 -2.514134 13281.11)
(75.82363 -7.847106 14256.74)
(98.90546 -13.80242 15482.44)
(124.9862 -20.12751 17150.83)
(72.07955 -35.12403 17647.61)
(17.57402 20.31672 899.6987)
(19.76904 20.39534 2823.057)
(22.76567 19.9024 4942.96)
(26.82117 18.59769 7303.676)
(32.29542 16.11333 9968.479)
(39.7495 11.93694 11742.75)
(49.34889 6.10781 12438.68)
(62.11713 -1.905685 13243.67)
(79.501 -13.08951 14199.17)
(103.7585 -28.84962 15387.49)
(131.7402 -54.48671 15145.62)
(74.58256 -111.667 13185.21)
(16.07497 29.80146 860.6728)
(17.92691 30.2417 2695.133)
(20.44641 30.03815 4707.98)
(23.82399 28.93972 6937.337)
(28.33579 26.5896 9436.904)
(34.37206 22.4427 11074.28)
(41.98124 16.78617 11678.64)
(51.76657 8.981896 12361.85)
(64.76527 -1.833831 13148.09)
(82.46663 -17.34277 14074.56)
(107.0708 -40.53527 13580.61)
(132.9724 -78.3207 11396)
(73.54929 -162.9182 9021.563)
(14.85121 31.60469 823.492)
(16.44048 32.19629 2573.97)
(18.59404 32.21816 4487.032)
(21.46255 31.47173 6596.058)
(25.25129 29.67132 8947.271)
(30.2563 26.41119 10467.22)
(36.41719 22.07029 11000.11)
(44.15769 16.25476 11594.12)
(54.08507 8.326945 12263.29)
(67.2282 -2.626954 13029.7)
(85.062 -18.39985 12436.81)
(108.4959 -40.47588 10261.88)
(131.1953 -77.37427 7904.218)
(70.86617 -158.8538 5219.764)
(13.80972 26.29668 789.4659)
(15.19297 26.82253 2463.567)
(17.06258 26.93053 4286.826)
(19.53907 26.48943 6289.003)
(22.78506 25.31226 8510.676)
(27.02285 23.13298 9931.175)
(32.14812 20.31325 10408.1)
(38.43858 16.62232 10934.32)
(46.31701 11.74351 11519.53)
(56.39265 5.162559 12176.91)
(69.68319 -3.878322 11547.25)
(86.81517 -15.66807 9439.299)
(109.0002 -32.28414 7165.561)
(128.5586 -60.48356 4642.15)
(67.9806 -122.0982 1695.757)
(12.89049 16.83245 759.0997)
(14.10595 17.17535 2365.341)
(15.74911 17.2757 4109.44)
(17.91754 17.05986 6018.444)
(20.74267 16.42938 8128.594)
(24.40161 15.24479 9465.468)
(28.7584 13.74138 9897.761)
(34.01465 11.82035 10371.5)
(40.4507 9.33419 10893.43)
(48.49115 6.07858 11472.84)
(58.75034 1.722423 10831.26)
(71.56735 -3.587657 8804.268)
(88.05187 -10.51022 6626.8)
(109.124 -20.31203 4238.793)
(126.1377 -37.14623 1528.181)
(12.0591 5.67229 732.343)
(13.13574 5.790095 2278.986)
(14.59237 5.830768 3953.974)
(16.51283 5.773654 5782.358)
(19.00453 5.588952 7797.017)
(22.2122 5.236953 9063.478)
(25.98705 4.797163 9459.72)
(30.47393 4.243836 9891.77)
(35.87761 3.542238 10364.79)
(42.48337 2.64073 10885.37)
(50.72198 1.467354 10244.2)
(60.63825 0.09700082 8295.259)
(73.03608 -1.571315 6210.856)
(88.96155 -3.7475 3941.525)
(109.1391 -6.839509 1404.892)
(36.62305 -26.45595 1668.199)
(73.30568 -33.87262 1544.348)
(37.31364 -37.00168 5154.747)
(66.83918 -29.58424 1439.47)
(73.88339 -30.61678 4745.188)
(38.21614 -47.12074 8932.487)
(55.01147 -16.29246 1350.714)
(67.48704 -16.94225 4395.507)
(74.58899 -23.42654 8115.02)
(39.20944 -55.81198 13067.47)
(45.5587 -4.670308 1270.204)
(55.67323 -4.294955 4094.558)
(68.72829 -7.092692 7440.593)
(75.964 -19.34012 11629.21)
(40.77782 -60.7084 17502.58)
(38.27695 0.5399485 1197.454)
(46.21975 1.109625 3833.851)
(57.01586 0.5819013 6891.737)
(70.87566 -3.53438 10569.23)
(79.22039 -17.41749 15287.8)
(43.81466 -55.18696 19941.31)
(32.67745 1.451317 1132.912)
(38.8767 1.874363 3608.095)
(47.50875 2.009375 6437.871)
(59.21971 1.231076 9754.755)
(74.42617 -2.198951 13808.06)
(85.57682 -12.44906 17198.42)
(47.69782 -37.98696 20154.38)
(28.23418 0.5718797 1075.909)
(33.1896 0.7021425 3412.598)
(40.01777 0.8122115 6055.142)
(49.5018 0.8116109 9101.93)
(62.46421 0.4829084 12716.59)
(79.7925 -0.7558215 15479.43)
(93.48911 -4.387516 17260.54)
(52.63182 -12.8579 20264.17)