/*--------------------------------*- C++ -*----------------------------------*\
| =========                 |                                                 |
| \\      /  F ield         | OpenFOAM: The Open Source CFD Toolbox           |
|  \\    /   O peration     | Version:  2306                                  |
|   \\  /    A nd           | Website:  www.openfoam.com                      |
|    \\/     M anipulation  |                                                 |
\*---------------------------------------------------------------------------*/
FoamFile
{
    version     2.0;
    format      ascii;
    arch        "LSB;label=32;scalar=64";
    class       volScalarField;
    location    "1.2/phiI";
    object      J;
}
// * * * * * * * * * * * * * * * * * * * * * * * * * * * * * * * * * * * * * //

dimensions      [0 -3 0 0 0 1 0];

internalField   nonuniform List<scalar> 
12000
(
-8.076334e+08
-8.147762e+08
-7.406916e+08
-8.136161e+08
-8.291483e+08
-7.453596e+08
-8.208783e+08
-6.843068e+08
-7.459453e+08
-8.294418e+08
-8.506264e+08
-7.545203e+08
-8.35489e+08
-6.878933e+08
-7.506946e+08
-8.369905e+08
-6.391117e+08
-6.890192e+08
-7.597117e+08
-8.555973e+08
-8.781963e+08
-7.675558e+08
-8.573123e+08
-6.948566e+08
-7.600175e+08
-8.521806e+08
-6.420606e+08
-6.926684e+08
-7.646483e+08
-8.636133e+08
-6.015383e+08
-6.434202e+08
-7.012182e+08
-7.823697e+08
-8.930602e+08
-9.079961e+08
-7.829482e+08
-8.85277e+08
-7.045523e+08
-7.73292e+08
-8.748704e+08
-6.477512e+08
-6.997565e+08
-7.743442e+08
-8.79752e+08
-6.04053e+08
-6.464204e+08
-7.050093e+08
-7.876075e+08
-9.017509e+08
-5.692111e+08
-6.055247e+08
-6.544461e+08
-7.212066e+08
-8.146864e+08
0
-9.315896e+08
-7.975601e+08
-9.153848e+08
-7.155487e+08
-7.889862e+08
-9.039223e+08
-6.555758e+08
-7.096362e+08
-7.881655e+08
-9.038739e+08
-6.088869e+08
-6.522127e+08
-7.123782e+08
-7.979029e+08
-9.192617e+08
-5.714041e+08
-6.080827e+08
-6.575612e+08
-7.252242e+08
-8.203541e+08
0
-5.408291e+08
-5.729262e+08
-6.156221e+08
-6.724397e+08
-7.49602e+08
0
0
-9.473863e+08
-8.076138e+08
-9.391443e+08
-7.252265e+08
-8.039174e+08
-9.351152e+08
-6.642397e+08
-7.208699e+08
-8.045389e+08
-9.347632e+08
-6.154809e+08
-6.60187e+08
-7.226658e+08
-8.12602e+08
-9.454659e+08
-5.756083e+08
-6.130023e+08
-6.635799e+08
-7.330405e+08
-8.315055e+08
0
-5.42773e+08
-5.751565e+08
-6.182766e+08
-6.757373e+08
-7.539408e+08
0
0
-5.155127e+08
-5.443097e+08
-5.822527e+08
-6.320423e+08
-6.979149e+08
0
0
0
-9.567078e+08
-8.135729e+08
-9.54991e+08
-7.310607e+08
-8.141976e+08
-9.596661e+08
-6.715019e+08
-7.308154e+08
-8.20166e+08
-9.678799e+08
-6.226715e+08
-6.690451e+08
-7.344028e+08
-8.300621e+08
-9.790564e+08
-5.813123e+08
-6.19722e+08
-6.718811e+08
-7.43975e+08
-8.474581e+08
0
-5.464924e+08
-5.794344e+08
-6.233858e+08
-6.821148e+08
-7.62391e+08
0
0
-5.17256e+08
-5.462862e+08
-5.845659e+08
-6.348496e+08
-7.014699e+08
0
0
0
-4.926907e+08
-5.187865e+08
-5.529796e+08
-5.973728e+08
-6.55223e+08
0
0
0
0
-9.609863e+08
-8.167915e+08
-9.643094e+08
-7.33928e+08
-8.2027e+08
-9.759887e+08
-6.754382e+08
-7.368535e+08
-8.309392e+08
-9.938952e+08
-6.285068e+08
-6.765317e+08
-7.448671e+08
-8.467917e+08
-1.015061e+09
-5.874683e+08
-6.270756e+08
-6.811408e+08
-7.565006e+08
-8.664677e+08
0
-5.515194e+08
-5.852462e+08
-6.303782e+08
-6.909314e+08
-7.742407e+08
0
0
-5.205866e+08
-5.500701e+08
-5.890064e+08
-6.402583e+08
-7.083534e+08
0
0
0
-4.942685e+08
-5.205587e+08
-5.550286e+08
-5.998168e+08
-6.582449e+08
0
0
0
0
-4.719351e+08
-4.957801e+08
-5.268857e+08
-5.669973e+08
-6.186649e+08
0
0
0
0
0
-9.609863e+08
-8.18195e+08
-9.685763e+08
-7.351609e+08
-8.235308e+08
-9.855594e+08
-6.770055e+08
-7.398355e+08
-8.372885e+08
-1.01115e+09
-6.314158e+08
-6.806442e+08
-7.512713e+08
-8.583463e+08
-1.043314e+09
-5.923525e+08
-6.331008e+08
-6.89042e+08
-7.677538e+08
-8.84764e+08
0
-5.569049e+08
-5.915413e+08
-6.380654e+08
-7.008137e+08
-7.878753e+08
0
0
-5.25075e+08
-5.551909e+08
-5.950513e+08
-6.47679e+08
-7.178946e+08
0
0
0
-4.972794e+08
-5.239462e+08
-5.589542e+08
-6.045135e+08
-6.640745e+08
0
0
0
0
-4.733734e+08
-4.973837e+08
-5.287219e+08
-5.691604e+08
-6.212924e+08
0
0
0
0
0
-4.529342e+08
-4.748582e+08
-5.033767e+08
-5.399493e+08
-5.86694e+08
0
0
0
0
0
9.277206e+08
-9.567078e+08
-8.18195e+08
-9.685763e+08
-7.355967e+08
-8.249453e+08
-9.899333e+08
-6.774387e+08
-7.411214e+08
-8.406832e+08
-1.021245e+09
-6.323403e+08
-6.823151e+08
-7.544573e+08
-8.651481e+08
-1.062022e+09
-5.946298e+08
-6.361609e+08
-6.934468e+08
-7.746998e+08
-8.974282e+08
0
-5.61109e+08
-5.965878e+08
-6.444343e+08
-7.093331e+08
-8.002228e+08
0
0
-5.29857e+08
-5.606969e+08
-6.016303e+08
-6.558806e+08
-7.28646e+08
0
0
0
-5.013277e+08
-5.285173e+08
-5.642777e+08
-6.109236e+08
-6.720951e+08
0
0
0
0
-4.761154e+08
-5.004453e+08
-5.322346e+08
-5.73309e+08
-6.26348e+08
0
0
0
0
0
-4.542533e+08
-4.763198e+08
-5.050375e+08
-5.418862e+08
-5.890166e+08
0
0
0
0
0
9.358509e+08
-4.354423e+08
-4.557065e+08
-4.820074e+08
-5.156037e+08
-5.582701e+08
0
0
0
0
0
8.482697e+08
8.863629e+08
-9.473863e+08
-8.167915e+08
-9.643094e+08
-7.355967e+08
-8.249453e+08
-9.899333e+08
-6.774935e+08
-7.415766e+08
-8.421498e+08
-1.025852e+09
-6.324077e+08
-6.827998e+08
-7.558409e+08
-8.68774e+08
-1.072952e+09
-5.951973e+08
-6.371762e+08
-6.952805e+08
-7.781858e+08
-9.048811e+08
0
-5.629658e+08
-5.989954e+08
-6.477368e+08
-7.141558e+08
-8.079088e+08
0
0
-5.335438e+08
-5.650413e+08
-6.069685e+08
-6.627576e+08
-7.380117e+08
0
0
0
-5.056222e+08
-5.334049e+08
-5.700298e+08
-6.179393e+08
-6.810113e+08
0
0
0
0
-4.797953e+08
-5.045671e+08
-5.369842e+08
-5.789497e+08
-6.33268e+08
0
0
0
0
0
-4.567656e+08
-4.791074e+08
-5.082107e+08
-5.455956e+08
-5.93477e+08
0
0
0
0
0
9.522627e+08
-4.36658e+08
-4.570467e+08
-4.835205e+08
-5.173543e+08
-5.603476e+08
0
0
0
0
0
8.535066e+08
8.939054e+08
-4.19267e+08
-4.380771e+08
-4.624544e+08
-4.934925e+08
-5.327217e+08
0
0
0
0
0
7.808943e+08
8.125208e+08
8.571889e+08
-9.315896e+08
-8.135729e+08
-9.54991e+08
-7.351609e+08
-8.235308e+08
-9.855594e+08
-6.774935e+08
-7.415766e+08
-8.421498e+08
-1.025852e+09
-6.322967e+08
-6.828748e+08
-7.563338e+08
-8.703358e+08
-1.077936e+09
-5.950817e+08
-6.372897e+08
-6.958432e+08
-7.797149e+08
-9.088474e+08
0
-5.633192e+08
-5.996417e+08
-6.488867e+08
-7.162158e+08
-8.118029e+08
0
0
-5.350989e+08
-5.67011e+08
-6.095814e+08
-6.664002e+08
-7.433931e+08
0
0
0
-5.089001e+08
-5.372139e+08
-5.746261e+08
-6.237068e+08
-6.885787e+08
0
0
0
0
-4.836849e+08
-5.089549e+08
-5.420878e+08
-5.850798e+08
-6.408885e+08
0
0
0
0
0
-4.601319e+08
-4.828531e+08
-5.124915e+08
-5.506244e+08
-5.995597e+08
0
0
0
0
0
9.769795e+08
-4.389713e+08
-4.596002e+08
-4.864084e+08
-5.207027e+08
-5.643314e+08
0
0
0
0
0
8.638042e+08
9.091205e+08
-4.203922e+08
-4.39312e+08
-4.638412e+08
-4.950863e+08
-5.345975e+08
0
0
0
0
0
7.848743e+08
8.174032e+08
8.643404e+08
-4.042523e+08
-4.217757e+08
-4.444623e+08
-4.73276e+08
-5.09547e+08
0
0
0
0
0
7.267979e+08
7.496737e+08
7.87095e+08
8.392828e+08
-9.079961e+08
-8.076138e+08
-9.391443e+08
-7.33928e+08
-8.2027e+08
-9.759887e+08
-6.774387e+08
-7.411214e+08
-8.406832e+08
-1.021245e+09
-6.322967e+08
-6.828748e+08
-7.563338e+08
-8.703358e+08
-1.077936e+09
-5.948943e+08
-6.371973e+08
-6.959485e+08
-7.802649e+08
-9.105525e+08
0
-5.631078e+08
-5.995666e+08
-6.490646e+08
-7.168851e+08
-8.135305e+08
0
0
-5.353137e+08
-5.674331e+08
-6.103415e+08
-6.677318e+08
-7.457503e+08
0
0
0
-5.102283e+08
-5.38868e+08
-5.76773e+08
-6.266055e+08
-6.926706e+08
0
0
0
0
-4.86629e+08
-5.123405e+08
-5.461173e+08
-5.900464e+08
-6.472372e+08
0
0
0
0
0
-4.636793e+08
-4.868259e+08
-5.170709e+08
-5.560599e+08
-6.062123e+08
0
0
0
0
0
1.009092e+09
-4.42067e+08
-4.63026e+08
-4.902967e+08
-5.252318e+08
-5.697486e+08
0
0
0
0
0
8.786081e+08
9.320129e+08
-4.225315e+08
-4.416628e+08
-4.664854e+08
-4.981315e+08
-5.381899e+08
0
0
0
0
0
7.92606e+08
8.26999e+08
8.787642e+08
-4.052975e+08
-4.229185e+08
-4.457396e+08
-4.747358e+08
-5.112531e+08
0
0
0
0
0
7.30045e+08
7.533997e+08
7.91736e+08
8.462182e+08
-3.902689e+08
-4.06645e+08
-4.278315e+08
-4.546864e+08
-4.883821e+08
0
0
0
0
0
6.818212e+08
6.990582e+08
7.27335e+08
7.712725e+08
8.316574e+08
-8.781963e+08
-7.975601e+08
-9.153848e+08
-7.310607e+08
-8.141976e+08
-9.596661e+08
-6.770055e+08
-7.398355e+08
-8.372885e+08
-1.01115e+09
-6.324077e+08
-6.827998e+08
-7.558409e+08
-8.68774e+08
-1.072952e+09
-5.948943e+08
-6.371973e+08
-6.959485e+08
-7.802649e+08
-9.105525e+08
0
-5.628852e+08
-5.993956e+08
-6.489972e+08
-7.170312e+08
-8.141591e+08
0
0
-5.350497e+08
-5.672571e+08
-6.103208e+08
-6.679941e+08
-7.46558e+08
0
0
0
-5.103486e+08
-5.39143e+08
-5.77293e+08
-6.27517e+08
-6.942363e+08
0
0
0
0
-4.877794e+08
-5.137561e+08
-5.479262e+08
-5.924386e+08
-6.505106e+08
0
0
0
0
0
-4.663447e+08
-4.898655e+08
-5.206514e+08
-5.604133e+08
-6.116789e+08
0
0
0
0
0
1.043683e+09
-4.453205e+08
-4.66648e+08
-4.94441e+08
-5.301057e+08
-5.75642e+08
0
0
0
0
0
8.96507e+08
9.617213e+08
-4.253908e+08
-4.448123e+08
-4.700399e+08
-5.022425e+08
-5.43064e+08
0
0
0
0
0
8.034828e+08
8.407843e+08
9.004624e+08
-4.07283e+08
-4.25092e+08
-4.481729e+08
-4.775222e+08
-5.145171e+08
0
0
0
0
0
7.363063e+08
7.606349e+08
8.008551e+08
8.602102e+08
-3.912429e+08
-4.077064e+08
-4.29013e+08
-4.560301e+08
-4.899432e+08
0
0
0
0
0
6.845731e+08
7.021083e+08
7.308854e+08
7.75773e+08
8.385289e+08
-3.772106e+08
-3.925545e+08
-4.124e+08
-4.375142e+08
-4.689402e+08
0
0
0
0
0
6.431513e+08
6.568649e+08
6.791263e+08
7.133006e+08
7.642769e+08
-8.506264e+08
-7.829482e+08
-8.85277e+08
-7.252265e+08
-8.039174e+08
-9.351152e+08
-6.754382e+08
-7.368535e+08
-8.309392e+08
-9.938952e+08
-6.323403e+08
-6.823151e+08
-7.544573e+08
-8.651481e+08
-1.062022e+09
-5.950817e+08
-6.372897e+08
-6.958432e+08
-7.797149e+08
-9.088474e+08
0
-5.628852e+08
-5.993956e+08
-6.489972e+08
-7.170312e+08
-8.141591e+08
0
0
-5.348117e+08
-5.670489e+08
-6.101709e+08
-6.679583e+08
-7.467565e+08
0
0
0
-5.100558e+08
-5.389101e+08
-5.771636e+08
-6.275656e+08
-6.946044e+08
0
0
0
0
-4.878322e+08
-5.139296e+08
-5.482866e+08
-5.930879e+08
-6.516148e+08
0
0
0
0
0
-4.673519e+08
-4.910937e+08
-5.222038e+08
-5.624362e+08
-6.143917e+08
0
0
0
0
0
1.069716e+09
-4.477489e+08
-4.693988e+08
-4.976545e+08
-5.339729e+08
-5.804324e+08
0
0
0
0
0
9.139269e+08
9.936808e+08
-4.283888e+08
-4.481332e+08
-4.738165e+08
-5.066504e+08
-5.483439e+08
0
0
0
0
0
8.161671e+08
8.574379e+08
9.286252e+08
-4.099341e+08
-4.280003e+08
-4.514394e+08
-4.812778e+08
-5.189372e+08
0
0
0
0
0
7.449975e+08
7.70807e+08
8.139527e+08
8.812731e+08
-3.930916e+08
-4.097233e+08
-4.312619e+08
-4.585927e+08
-4.929273e+08
0
0
0
0
0
6.898527e+08
7.079874e+08
7.377778e+08
7.846168e+08
8.524022e+08
-3.781208e+08
-3.935434e+08
-4.134969e+08
-4.387564e+08
-4.70376e+08
0
0
0
0
0
6.455388e+08
6.594574e+08
6.82039e+08
7.167459e+08
7.687253e+08
-3.649853e+08
-3.79397e+08
-3.980338e+08
-4.215898e+08
-4.509976e+08
0
0
0
0
0
6.09202e+08
6.205028e+08
6.388764e+08
6.665249e+08
7.069523e+08
-8.291483e+08
-7.675558e+08
-8.573123e+08
-7.155487e+08
-7.889862e+08
-9.039223e+08
-6.715019e+08
-7.308154e+08
-8.20166e+08
-9.678799e+08
-6.314158e+08
-6.806442e+08
-7.512713e+08
-8.583463e+08
-1.043314e+09
-5.951973e+08
-6.371762e+08
-6.952805e+08
-7.781858e+08
-9.048811e+08
0
-5.631078e+08
-5.995666e+08
-6.490646e+08
-7.168851e+08
-8.135305e+08
0
0
-5.348117e+08
-5.670489e+08
-6.101709e+08
-6.679583e+08
-7.467565e+08
0
0
0
-5.098125e+08
-5.386848e+08
-5.769735e+08
-6.274416e+08
-6.946077e+08
0
0
0
0
-4.875239e+08
-5.136642e+08
-5.480943e+08
-5.930173e+08
-6.517492e+08
0
0
0
0
0
-4.673553e+08
-4.911939e+08
-5.224527e+08
-5.629089e+08
-6.152046e+08
0
0
0
0
0
1.086076e+09
-4.48638e+08
-4.704757e+08
-4.990045e+08
-5.357143e+08
-5.827342e+08
0
0
0
0
0
9.25652e+08
1.017643e+09
-4.30613e+08
-4.506384e+08
-4.767235e+08
-5.101199e+08
-5.525975e+08
0
0
0
0
0
8.278201e+08
8.736298e+08
9.589343e+08
-4.127078e+08
-4.310595e+08
-4.549003e+08
-4.852921e+08
-5.237082e+08
0
0
0
0
0
7.54901e+08
7.826604e+08
8.297735e+08
9.086507e+08
-3.955578e+08
-4.124192e+08
-4.34277e+08
-4.620418e+08
-4.969617e+08
0
0
0
0
0
6.97114e+08
7.161433e+08
7.474655e+08
7.973221e+08
8.733167e+08
-3.798471e+08
-3.95421e+08
-4.15583e+08
-4.411234e+08
-4.731181e+08
0
0
0
0
0
6.501023e+08
6.644287e+08
6.876516e+08
7.23434e+08
7.7747e+08
-3.658382e+08
-3.80321e+08
-3.990554e+08
-4.227424e+08
-4.523239e+08
0
0
0
0
0
6.113092e+08
6.227576e+08
6.413567e+08
6.693539e+08
7.103545e+08
-3.535177e+08
-3.670798e+08
-3.846226e+08
-4.067728e+08
-4.343732e+08
0
0
0
0
0
5.789022e+08
5.885111e+08
6.04137e+08
6.274529e+08
6.607473e+08
-8.147762e+08
-7.545203e+08
-8.35489e+08
-7.045523e+08
-7.73292e+08
-8.748704e+08
-6.642397e+08
-7.208699e+08
-8.045389e+08
-9.347632e+08
-6.285068e+08
-6.765317e+08
-7.448671e+08
-8.467917e+08
-1.015061e+09
-5.946298e+08
-6.361609e+08
-6.934468e+08
-7.746998e+08
-8.974282e+08
0
-5.633192e+08
-5.996417e+08
-6.488867e+08
-7.162158e+08
-8.118029e+08
0
0
-5.350497e+08
-5.672571e+08
-6.103208e+08
-6.679941e+08
-7.46558e+08
0
0
0
-5.098125e+08
-5.386848e+08
-5.769735e+08
-6.274416e+08
-6.946077e+08
0
0
0
0
-4.872807e+08
-5.134321e+08
-5.478846e+08
-5.928489e+08
-6.516561e+08
0
0
0
0
0
-4.670396e+08
-4.9091e+08
-5.22223e+08
-5.627674e+08
-6.152058e+08
0
0
0
0
0
1.095299e+09
-4.486041e+08
-4.705215e+08
-4.991719e+08
-5.360621e+08
-5.833485e+08
0
0
0
0
0
9.321577e+08
1.032651e+09
-4.314032e+08
-4.515904e+08
-4.7791e+08
-5.116385e+08
-5.545849e+08
0
0
0
0
0
8.350137e+08
8.844965e+08
9.815987e+08
-4.14754e+08
-4.333533e+08
-4.575469e+08
-4.884295e+08
-5.275226e+08
0
0
0
0
0
7.636527e+08
7.93539e+08
8.45154e+08
9.381786e+08
-3.981329e+08
-4.152486e+08
-4.374638e+08
-4.657183e+08
-5.013032e+08
0
0
0
0
0
7.052543e+08
7.254294e+08
7.587509e+08
8.126785e+08
9.005735e+08
-3.821478e+08
-3.979283e+08
-4.183768e+08
-4.443053e+08
-4.768202e+08
0
0
0
0
0
6.563362e+08
6.712624e+08
6.954353e+08
7.328351e+08
7.900413e+08
-3.674543e+08
-3.82074e+08
-4.009968e+08
-4.249368e+08
-4.548547e+08
0
0
0
0
0
6.153254e+08
6.270655e+08
6.461119e+08
6.748048e+08
7.169604e+08
-3.543187e+08
-3.679454e+08
-3.855769e+08
-4.078457e+08
-4.356029e+08
0
0
0
0
0
5.807853e+08
5.905056e+08
6.062981e+08
6.298642e+08
6.635404e+08
-3.4274e+08
-3.555265e+08
-3.720712e+08
-3.929478e+08
-4.189172e+08
0
0
0
0
0
5.515475e+08
5.599014e+08
5.735292e+08
5.93709e+08
6.221697e+08
-8.076334e+08
-7.453596e+08
-8.208783e+08
-6.948566e+08
-7.600175e+08
-8.521806e+08
-6.555758e+08
-7.096362e+08
-7.881655e+08
-9.038739e+08
-6.226715e+08
-6.690451e+08
-7.344028e+08
-8.300621e+08
-9.790564e+08
-5.923525e+08
-6.331008e+08
-6.89042e+08
-7.677538e+08
-8.84764e+08
0
-5.629658e+08
-5.989954e+08
-6.477368e+08
-7.141558e+08
-8.079088e+08
0
0
-5.353137e+08
-5.674331e+08
-6.103415e+08
-6.677318e+08
-7.457503e+08
0
0
0
-5.100558e+08
-5.389101e+08
-5.771636e+08
-6.275656e+08
-6.946044e+08
0
0
0
0
-4.872807e+08
-5.134321e+08
-5.478846e+08
-5.928489e+08
-6.516561e+08
0
0
0
0
0
-4.667996e+08
-4.906768e+08
-5.220046e+08
-5.625764e+08
-6.150631e+08
0
0
0
0
0
1.099417e+09
-4.482863e+08
-4.702278e+08
-4.989197e+08
-5.35877e+08
-5.832687e+08
0
0
0
0
0
9.35436e+08
1.041091e+09
-4.313409e+08
-4.515949e+08
-4.780161e+08
-5.118939e+08
-5.550571e+08
0
0
0
0
0
8.38486e+08
8.905102e+08
9.957647e+08
-4.1546e+08
-4.342005e+08
-4.585979e+08
-4.897674e+08
-5.292603e+08
0
0
0
0
0
7.687172e+08
8.002358e+08
8.554487e+08
9.602267e+08
-4.000225e+08
-4.173581e+08
-4.398861e+08
-4.685734e+08
-5.047508e+08
0
0
0
0
0
7.122474e+08
7.336261e+08
7.691034e+08
8.276203e+08
9.300817e+08
-3.845458e+08
-4.005545e+08
-4.213231e+08
-4.476886e+08
-4.807934e+08
0
0
0
0
0
6.632391e+08
6.789166e+08
7.042939e+08
7.437892e+08
8.052555e+08
-3.696064e+08
-3.844126e+08
-4.035942e+08
-4.278835e+08
-4.582674e+08
0
0
0
0
0
6.207829e+08
6.329468e+08
6.526459e+08
6.82364e+08
7.262492e+08
-3.55835e+08
-3.695862e+08
-3.873887e+08
-4.098868e+08
-4.379475e+08
0
0
0
0
0
5.843663e+08
5.943053e+08
6.104256e+08
6.344866e+08
6.689228e+08
-3.434938e+08
-3.563392e+08
-3.729649e+08
-3.939495e+08
-4.200611e+08
0
0
0
0
0
5.532471e+08
5.616874e+08
5.754437e+08
5.958119e+08
6.245507e+08
-3.325941e+08
-3.446689e+08
-3.603012e+08
-3.800152e+08
-4.045066e+08
0
0
0
0
0
5.266184e+08
5.340243e+08
5.461195e+08
5.639578e+08
5.888576e+08
-7.406916e+08
-8.136161e+08
-6.878933e+08
-7.506946e+08
-8.369905e+08
-6.477512e+08
-6.997565e+08
-7.743442e+08
-8.79752e+08
-6.154809e+08
-6.60187e+08
-7.226658e+08
-8.12602e+08
-9.454659e+08
-5.874683e+08
-6.270756e+08
-6.811408e+08
-7.565006e+08
-8.664677e+08
0
-5.61109e+08
-5.965878e+08
-6.444343e+08
-7.093331e+08
-8.002228e+08
0
0
-5.350989e+08
-5.67011e+08
-6.095814e+08
-6.664002e+08
-7.433931e+08
0
0
0
-5.103486e+08
-5.39143e+08
-5.77293e+08
-6.27517e+08
-6.942363e+08
0
0
0
0
-4.875239e+08
-5.136642e+08
-5.480943e+08
-5.930173e+08
-6.517492e+08
0
0
0
0
0
-4.667996e+08
-4.906768e+08
-5.220046e+08
-5.625764e+08
-6.150631e+08
0
0
0
0
0
1.099417e+09
-4.480512e+08
-4.699967e+08
-4.986987e+08
-5.356749e+08
-5.830996e+08
0
0
0
0
0
9.367869e+08
1.044854e+09
-4.310242e+08
-4.512968e+08
-4.777508e+08
-5.116813e+08
-5.54926e+08
0
0
0
0
0
8.399309e+08
8.935349e+08
1.003722e+09
-4.153757e+08
-4.341731e+08
-4.586569e+08
-4.899526e+08
-5.296263e+08
0
0
0
0
0
7.708638e+08
8.034586e+08
8.611352e+08
9.739993e+08
-4.006561e+08
-4.181161e+08
-4.408234e+08
-4.697616e+08
-5.062856e+08
0
0
0
0
0
7.160966e+08
7.383549e+08
7.75457e+08
8.375981e+08
9.521102e+08
-3.862964e+08
-4.025019e+08
-4.235499e+08
-4.503007e+08
-4.839294e+08
0
0
0
0
0
6.690411e+08
6.854834e+08
7.121068e+08
7.538391e+08
8.200837e+08
-3.718457e+08
-3.868576e+08
-4.063277e+08
-4.310098e+08
-4.619211e+08
0
0
0
0
0
6.267678e+08
6.394534e+08
6.599608e+08
6.909669e+08
7.370802e+08
-3.578526e+08
-3.717733e+08
-3.898106e+08
-4.126249e+08
-4.411057e+08
0
0
0
0
0
5.892118e+08
5.994656e+08
6.160587e+08
6.408376e+08
6.763883e+08
-3.449193e+08
-3.578785e+08
-3.746603e+08
-3.958535e+08
-4.222404e+08
0
0
0
0
0
5.564731e+08
5.650823e+08
5.790902e+08
5.998281e+08
6.291153e+08
-3.333048e+08
-3.454337e+08
-3.611401e+08
-3.809528e+08
-4.055739e+08
0
0
0
0
0
5.281643e+08
5.356392e+08
5.478364e+08
5.658226e+08
5.909346e+08
-3.230302e+08
-3.344484e+08
-3.492426e+08
-3.67893e+08
-3.910354e+08
0
0
0
0
0
5.037337e+08
5.104002e+08
5.212953e+08
5.37296e+08
5.594859e+08
-6.843068e+08
-7.459453e+08
-8.294418e+08
-6.420606e+08
-6.926684e+08
-7.646483e+08
-8.636133e+08
-6.088869e+08
-6.522127e+08
-7.123782e+08
-7.979029e+08
-9.192617e+08
-5.813123e+08
-6.19722e+08
-6.718811e+08
-7.43975e+08
-8.474581e+08
0
-5.569049e+08
-5.915413e+08
-6.380654e+08
-7.008137e+08
-7.878753e+08
0
0
-5.335438e+08
-5.650413e+08
-6.069685e+08
-6.627576e+08
-7.380117e+08
0
0
0
-5.102283e+08
-5.38868e+08
-5.76773e+08
-6.266055e+08
-6.926706e+08
0
0
0
0
-4.878322e+08
-5.139296e+08
-5.482866e+08
-5.930879e+08
-6.516148e+08
0
0
0
0
0
-4.670396e+08
-4.9091e+08
-5.22223e+08
-5.627674e+08
-6.152058e+08
0
0
0
0
0
1.095299e+09
-4.480512e+08
-4.699967e+08
-4.986987e+08
-5.356749e+08
-5.830996e+08
0
0
0
0
0
9.367869e+08
1.044854e+09
-4.307951e+08
-4.510698e+08
-4.775306e+08
-5.114747e+08
-5.54743e+08
0
0
0
0
0
8.404178e+08
8.947798e+08
1.007267e+09
-4.150624e+08
-4.338743e+08
-4.583845e+08
-4.897227e+08
-5.294616e+08
0
0
0
0
0
7.715521e+08
8.047952e+08
8.639931e+08
9.817372e+08
-4.005548e+08
-4.180637e+08
-4.408455e+08
-4.69892e+08
-5.065699e+08
0
0
0
0
0
7.17543e+08
7.403509e+08
7.785062e+08
8.431041e+08
9.658824e+08
-3.868672e+08
-4.031833e+08
-4.243904e+08
-4.513628e+08
-4.852956e+08
0
0
0
0
0
6.72107e+08
6.890858e+08
7.165985e+08
7.599878e+08
8.299667e+08
-3.734723e+08
-3.886612e+08
-4.083828e+08
-4.334103e+08
-4.64789e+08
0
0
0
0
0
6.317108e+08
6.449141e+08
6.662295e+08
6.985514e+08
7.470234e+08
-3.599486e+08
-3.740559e+08
-3.923545e+08
-4.15524e+08
-4.444795e+08
0
0
0
0
0
5.944832e+08
6.051192e+08
6.222869e+08
6.479463e+08
6.848879e+08
-3.46815e+08
-3.599287e+08
-3.769245e+08
-3.984053e+08
-4.25173e+08
0
0
0
0
0
5.608227e+08
5.696731e+08
5.840404e+08
6.053082e+08
6.353875e+08
-3.346477e+08
-3.468806e+08
-3.627301e+08
-3.827336e+08
-4.076054e+08
0
0
0
0
0
5.310943e+08
5.387032e+08
5.510991e+08
5.693738e+08
5.949013e+08
-3.237016e+08
-3.351694e+08
-3.500317e+08
-3.687727e+08
-3.920338e+08
0
0
0
0
0
5.051491e+08
5.118716e+08
5.228498e+08
5.389698e+08
5.613283e+08
-3.140034e+08
-3.248147e+08
-3.38835e+08
-3.56508e+08
-3.784164e+08
0
0
0
0
0
4.82596e+08
4.886774e+08
4.986039e+08
5.131316e+08
5.331606e+08
-6.391117e+08
-6.890192e+08
-7.597117e+08
-8.555973e+08
-6.04053e+08
-6.464204e+08
-7.050093e+08
-7.876075e+08
-9.017509e+08
-5.756083e+08
-6.130023e+08
-6.635799e+08
-7.330405e+08
-8.315055e+08
0
-5.515194e+08
-5.852462e+08
-6.303782e+08
-6.909314e+08
-7.742407e+08
0
0
-5.29857e+08
-5.606969e+08
-6.016303e+08
-6.558806e+08
-7.28646e+08
0
0
0
-5.089001e+08
-5.372139e+08
-5.746261e+08
-6.237068e+08
-6.885787e+08
0
0
0
0
-4.877794e+08
-5.137561e+08
-5.479262e+08
-5.924386e+08
-6.505106e+08
0
0
0
0
0
-4.673553e+08
-4.911939e+08
-5.224527e+08
-5.629089e+08
-6.152046e+08
0
0
0
0
0
1.086076e+09
-4.482863e+08
-4.702278e+08
-4.989197e+08
-5.35877e+08
-5.832687e+08
0
0
0
0
0
9.35436e+08
1.041091e+09
-4.307951e+08
-4.510698e+08
-4.775306e+08
-5.114747e+08
-5.54743e+08
0
0
0
0
0
8.404178e+08
8.947798e+08
1.007267e+09
-4.148397e+08
-4.336524e+08
-4.581673e+08
-4.895155e+08
-5.292718e+08
0
0
0
0
0
7.71695e+08
8.052442e+08
8.651693e+08
9.851868e+08
-4.002463e+08
-4.177667e+08
-4.405701e+08
-4.696516e+08
-5.063829e+08
0
0
0
0
0
7.178611e+08
7.40986e+08
7.797678e+08
8.458727e+08
9.736328e+08
-3.867525e+08
-4.031112e+08
-4.243833e+08
-4.5145e+08
-4.855156e+08
0
0
0
0
0
6.731338e+08
6.904314e+08
7.18486e+08
7.629316e+08
8.354194e+08
-3.739881e+08
-3.892759e+08
-4.091399e+08
-4.343649e+08
-4.66013e+08
0
0
0
0
0
6.342351e+08
6.477888e+08
6.696546e+08
7.028951e+08
7.530876e+08
-3.614638e+08
-3.757314e+08
-3.942575e+08
-4.177387e+08
-4.471139e+08
0
0
0
0
0
5.987739e+08
6.097808e+08
6.27507e+08
6.540339e+08
6.923811e+08
-3.487811e+08
-3.620647e+08
-3.792987e+08
-4.01102e+08
-4.282996e+08
0
0
0
0
0
5.65523e+08
5.746627e+08
5.894603e+08
6.113657e+08
6.424092e+08
-3.364321e+08
-3.488065e+08
-3.648518e+08
-3.851182e+08
-4.103367e+08
0
0
0
0
0
5.350327e+08
5.428319e+08
5.555095e+08
5.741939e+08
6.003144e+08
-3.249688e+08
-3.365322e+08
-3.515258e+08
-3.70442e+08
-3.939327e+08
0
0
0
0
0
5.078283e+08
5.146593e+08
5.257986e+08
5.4215e+08
5.648369e+08
-3.146387e+08
-3.254957e+08
-3.395788e+08
-3.573352e+08
-3.793526e+08
0
0
0
0
0
4.83899e+08
4.900268e+08
5.000222e+08
5.146483e+08
5.348148e+08
-3.054738e+08
-3.157225e+08
-3.29027e+08
-3.457975e+08
-3.665718e+08
0
0
0
0
0
4.629734e+08
4.685812e+08
4.777138e+08
4.910274e+08
5.092964e+08
-6.015383e+08
-6.434202e+08
-7.012182e+08
-7.823697e+08
-8.930602e+08
-5.714041e+08
-6.080827e+08
-6.575612e+08
-7.252242e+08
-8.203542e+08
0
-5.464924e+08
-5.794344e+08
-6.233858e+08
-6.821148e+08
-7.62391e+08
0
0
-5.25075e+08
-5.551909e+08
-5.950513e+08
-6.47679e+08
-7.178946e+08
0
0
0
-5.056222e+08
-5.334049e+08
-5.700298e+08
-6.179393e+08
-6.810113e+08
0
0
0
0
-4.86629e+08
-5.123405e+08
-5.461173e+08
-5.900464e+08
-6.472372e+08
0
0
0
0
0
-4.673519e+08
-4.910937e+08
-5.222038e+08
-5.624362e+08
-6.143917e+08
0
0
0
0
0
1.069716e+09
-4.486041e+08
-4.705215e+08
-4.991719e+08
-5.360621e+08
-5.833485e+08
0
0
0
0
0
9.321577e+08
1.032651e+09
-4.310242e+08
-4.512968e+08
-4.777508e+08
-5.116813e+08
-5.54926e+08
0
0
0
0
0
8.399309e+08
8.935349e+08
1.003722e+09
-4.148397e+08
-4.336524e+08
-4.581673e+08
-4.895155e+08
-5.292718e+08
0
0
0
0
0
7.71695e+08
8.052442e+08
8.651693e+08
9.851868e+08
-4.000303e+08
-4.175507e+08
-4.403572e+08
-4.694461e+08
-5.061907e+08
0
0
0
0
0
7.17845e+08
7.411153e+08
7.801907e+08
8.470135e+08
9.770932e+08
-3.864497e+08
-4.028176e+08
-4.241076e+08
-4.512036e+08
-4.853139e+08
0
0
0
0
0
6.732485e+08
6.907214e+08
7.19082e+08
7.641483e+08
8.381662e+08
-3.738629e+08
-3.891881e+08
-4.091094e+08
-4.344172e+08
-4.661817e+08
0
0
0
0
0
6.349908e+08
6.487436e+08
6.709256e+08
7.047122e+08
7.55985e+08
-3.619311e+08
-3.762878e+08
-3.949419e+08
-4.186006e+08
-4.482166e+08
0
0
0
0
0
6.009005e+08
6.121515e+08
6.302428e+08
6.573452e+08
6.966545e+08
-3.501958e+08
-3.636251e+08
-3.81066e+08
-4.03152e+08
-4.307292e+08
0
0
0
0
0
5.693013e+08
5.787165e+08
5.939224e+08
6.164375e+08
6.484194e+08
-3.382801e+08
-3.508098e+08
-3.670728e+08
-3.876337e+08
-4.132433e+08
0
0
0
0
0
5.39264e+08
5.47289e+08
5.602994e+08
5.794694e+08
6.06298e+08
-3.266516e+08
-3.383448e+08
-3.535184e+08
-3.726756e+08
-3.964836e+08
0
0
0
0
0
5.1142e+08
5.184042e+08
5.297703e+08
5.46448e+08
5.695992e+08
-3.158365e+08
-3.267815e+08
-3.409857e+08
-3.589033e+08
-3.811316e+08
0
0
0
0
0
4.863628e+08
4.9258e+08
5.027084e+08
5.175249e+08
5.379579e+08
-3.060759e+08
-3.163668e+08
-3.297293e+08
-3.465768e+08
-3.674515e+08
0
0
0
0
0
4.641785e+08
4.698253e+08
4.79016e+08
4.924122e+08
5.107959e+08
-2.974057e+08
-3.071314e+08
-3.19772e+08
-3.357074e+08
-3.554349e+08
0
0
0
0
0
4.446778e+08
4.498974e+08
4.583657e+08
4.706633e+08
4.874616e+08
-5.692111e+08
-6.055247e+08
-6.544461e+08
-7.212066e+08
-8.146864e+08
0
-5.42773e+08
-5.751565e+08
-6.182766e+08
-6.757373e+08
-7.539408e+08
0
0
-5.205866e+08
-5.500701e+08
-5.890064e+08
-6.402583e+08
-7.083534e+08
0
0
0
-5.013277e+08
-5.285173e+08
-5.642777e+08
-6.109236e+08
-6.720951e+08
0
0
0
0
-4.836849e+08
-5.089549e+08
-5.420878e+08
-5.850798e+08
-6.408885e+08
0
0
0
0
0
-4.663447e+08
-4.898655e+08
-5.206514e+08
-5.604133e+08
-6.116789e+08
0
0
0
0
0
1.043683e+09
-4.48638e+08
-4.704757e+08
-4.990045e+08
-5.357143e+08
-5.827342e+08
0
0
0
0
0
9.25652e+08
1.017643e+09
-4.313409e+08
-4.515949e+08
-4.780161e+08
-5.118939e+08
-5.550571e+08
0
0
0
0
0
8.38486e+08
8.905102e+08
9.957647e+08
-4.150624e+08
-4.338743e+08
-4.583845e+08
-4.897227e+08
-5.294616e+08
0
0
0
0
0
7.715521e+08
8.047952e+08
8.639931e+08
9.817372e+08
-4.000303e+08
-4.175507e+08
-4.403572e+08
-4.694461e+08
-5.061907e+08
0
0
0
0
0
7.17845e+08
7.411153e+08
7.801907e+08
8.470135e+08
9.770932e+08
-3.862404e+08
-4.026077e+08
-4.238997e+08
-4.510013e+08
-4.851219e+08
0
0
0
0
0
6.731513e+08
6.90702e+08
7.192012e+08
7.64556e+08
8.393006e+08
-3.735665e+08
-3.888991e+08
-4.088354e+08
-4.341682e+08
-4.659705e+08
0
0
0
0
0
6.349858e+08
6.488431e+08
6.711935e+08
7.052822e+08
7.571824e+08
-3.617977e+08
-3.761875e+08
-3.948925e+08
-4.186247e+08
-4.483435e+08
0
0
0
0
0
6.01469e+08
6.128533e+08
6.311431e+08
6.585654e+08
6.984342e+08
-3.506201e+08
-3.641301e+08
-3.81687e+08
-4.039332e+08
-4.317271e+08
0
0
0
0
0
5.711247e+08
5.807166e+08
5.961806e+08
6.190824e+08
6.516726e+08
-3.396036e+08
-3.522665e+08
-3.687184e+08
-3.895372e+08
-4.154916e+08
0
0
0
0
0
5.426284e+08
5.508649e+08
5.641847e+08
5.838075e+08
6.113042e+08
-3.283918e+08
-3.402274e+08
-3.556008e+08
-3.750279e+08
-3.991934e+08
0
0
0
0
0
5.152593e+08
5.224233e+08
5.340547e+08
5.511141e+08
5.748114e+08
-3.174261e+08
-3.284906e+08
-3.428605e+08
-3.61e+08
-3.835196e+08
0
0
0
0
0
4.896581e+08
4.960008e+08
5.063154e+08
5.213986e+08
5.422057e+08
-3.072097e+08
-3.17582e+08
-3.310564e+08
-3.480528e+08
-3.691219e+08
0
0
0
0
0
4.664554e+08
4.721768e+08
4.814791e+08
4.950347e+08
5.136398e+08
-2.979772e+08
-3.07742e+08
-3.204363e+08
-3.36443e+08
-3.562633e+08
0
0
0
0
0
4.45797e+08
4.510496e+08
4.595676e+08
4.719356e+08
4.888311e+08
-2.897697e+08
-2.990056e+08
-3.110287e+08
-3.261895e+08
-3.449486e+08
0
0
0
0
0
4.275573e+08
4.324521e+08
4.403575e+08
4.517892e+08
4.673405e+08
-5.408291e+08
-5.729262e+08
-6.156221e+08
-6.724397e+08
-7.49602e+08
0
0
-5.17256e+08
-5.462862e+08
-5.845659e+08
-6.348496e+08
-7.014699e+08
0
0
0
-4.972794e+08
-5.239462e+08
-5.589542e+08
-6.045135e+08
-6.640745e+08
0
0
0
0
-4.797953e+08
-5.045671e+08
-5.369842e+08
-5.789497e+08
-6.33268e+08
0
0
0
0
0
-4.636793e+08
-4.868259e+08
-5.170709e+08
-5.560599e+08
-6.062123e+08
0
0
0
0
0
1.009092e+09
-4.477489e+08
-4.693988e+08
-4.976545e+08
-5.339729e+08
-5.804324e+08
0
0
0
0
0
9.139269e+08
9.936808e+08
-4.314032e+08
-4.515904e+08
-4.7791e+08
-5.116385e+08
-5.545849e+08
0
0
0
0
0
8.350137e+08
8.844965e+08
9.815987e+08
-4.153757e+08
-4.341731e+08
-4.586569e+08
-4.899526e+08
-5.296263e+08
0
0
0
0
0
7.708638e+08
8.034586e+08
8.611352e+08
9.739993e+08
-4.002463e+08
-4.177667e+08
-4.405701e+08
-4.696516e+08
-5.063829e+08
0
0
0
0
0
7.178611e+08
7.40986e+08
7.797678e+08
8.458727e+08
9.736328e+08
-3.862404e+08
-4.026077e+08
-4.238997e+08
-4.510013e+08
-4.851219e+08
0
0
0
0
0
6.731513e+08
6.90702e+08
7.192012e+08
7.64556e+08
8.393006e+08
-3.733639e+08
-3.886955e+08
-4.08633e+08
-4.3397e+08
-4.657805e+08
0
0
0
0
0
6.348452e+08
6.487475e+08
6.711709e+08
7.053944e+08
7.575843e+08
-3.615079e+08
-3.759039e+08
-3.946216e+08
-4.183752e+08
-4.481266e+08
0
0
0
0
0
6.01389e+08
6.128405e+08
6.312298e+08
6.58817e+08
6.989891e+08
-3.504802e+08
-3.640198e+08
-3.816222e+08
-4.039342e+08
-4.318197e+08
0
0
0
0
0
5.715582e+08
5.812434e+08
5.968408e+08
6.199442e+08
6.528625e+08
-3.399894e+08
-3.527258e+08
-3.692833e+08
-3.902477e+08
-4.163982e+08
0
0
0
0
0
5.442128e+08
5.525821e+08
5.660915e+08
5.85991e+08
6.139005e+08
-3.296323e+08
-3.415899e+08
-3.571367e+08
-3.767999e+08
-4.012803e+08
0
0
0
0
0
5.182828e+08
5.256126e+08
5.37486e+08
5.548939e+08
5.790933e+08
-3.190676e+08
-3.302631e+08
-3.448169e+08
-3.632047e+08
-3.860523e+08
0
0
0
0
0
4.931646e+08
4.996533e+08
5.101836e+08
5.255755e+08
5.468171e+08
-3.087135e+08
-3.191962e+08
-3.328237e+08
-3.500248e+08
-3.713623e+08
0
0
0
0
0
4.694943e+08
4.7532e+08
4.847779e+08
4.985554e+08
5.174695e+08
-2.990521e+08
-3.088922e+08
-3.216902e+08
-3.378348e+08
-3.578347e+08
0
0
0
0
0
4.479101e+08
4.532258e+08
4.618387e+08
4.743422e+08
4.914247e+08
-2.903129e+08
-2.995851e+08
-3.11658e+08
-3.26885e+08
-3.457301e+08
0
0
0
0
0
4.286004e+08
4.335236e+08
4.414718e+08
4.529644e+08
4.685993e+08
-2.825355e+08
-2.913153e+08
-3.027602e+08
-3.172005e+08
-3.350615e+08
0
0
0
0
0
4.11484e+08
4.161049e+08
4.235253e+08
4.342103e+08
4.486867e+08
-5.155127e+08
-5.443097e+08
-5.822527e+08
-6.320423e+08
-6.979149e+08
0
0
0
-4.942685e+08
-5.205587e+08
-5.550286e+08
-5.998168e+08
-6.582449e+08
0
0
0
0
-4.761154e+08
-5.004453e+08
-5.322346e+08
-5.73309e+08
-6.26348e+08
0
0