/*--------------------------------*- C++ -*----------------------------------*\
| =========                 |                                                 |
| \\      /  F ield         | OpenFOAM: The Open Source CFD Toolbox           |
|  \\    /   O peration     | Version:  2306                                  |
|   \\  /    A nd           | Website:  www.openfoam.com                      |
|    \\/     M anipulation  |                                                 |
\*---------------------------------------------------------------------------*/
FoamFile
{
    version     2.0;
    format      ascii;
    arch        "LSB;label=32;scalar=64";
    class       volScalarField;
    location    "1.2/phiI";
    object      phi;
}
// * * * * * * * * * * * * * * * * * * * * * * * * * * * * * * * * * * * * * //

dimensions      [1 2 -3 0 0 -1 0];

internalField   nonuniform List<scalar> 
12000
(
1.613583
1.613515
1.608759
1.61445
1.61338
1.608666
1.61439
1.603922
1.609555
1.616196
1.613162
1.608497
1.614269
1.603817
1.609467
1.616151
1.599922
1.604657
1.611156
1.618837
1.612835
1.608276
1.614075
1.603628
1.609307
1.616061
1.599815
1.604556
1.611078
1.618815
1.596632
1.600609
1.606137
1.613579
1.622402
1.612353
1.608045
1.613776
1.603388
1.6091
1.615912
1.599619
1.604374
1.610937
1.618771
1.596524
1.600504
1.606044
1.613516
1.622411
1.593895
1.597278
1.601991
1.608375
1.616847
1.626931
1.611753
1.607836
1.613325
1.603157
1.608885
1.615671
1.599371
1.604145
1.610758
1.618692
1.596326
1.600314
1.605876
1.613405
1.622431
1.593788
1.597173
1.601893
1.608293
1.616804
1.626981
1.59157
1.594506
1.598579
1.604081
1.611392
1.620995
1.631471
1.611128
1.607654
1.61275
1.602994
1.608691
1.615283
1.599133
1.603925
1.610576
1.61854
1.596074
1.600075
1.605667
1.613267
1.622446
1.593592
1.59698
1.601715
1.608148
1.616733
1.627082
1.591466
1.594402
1.598479
1.603992
1.611326
1.620979
1.631561
1.589566
1.592151
1.595737
1.600545
1.606897
1.61522
1.625154
1.636022
1.61062
1.607476
1.612142
1.602915
1.60852
1.614757
1.598973
1.603772
1.610413
1.618247
1.595828
1.599846
1.605471
1.613134
1.622415
1.59334
1.596735
1.601492
1.60797
1.616653
1.627219
1.591273
1.59421
1.598297
1.603832
1.611211
1.620959
1.631743
1.589464
1.592049
1.595637
1.600453
1.606821
1.615174
1.625164
1.636152
1.587812
1.59012
1.59332
1.597597
1.603195
1.610468
1.619057
1.629324
1.640584
1.610338
1.607324
1.611644
1.602871
1.608348
1.614182
1.598916
1.603699
1.610263
1.617796
1.595659
1.599693
1.605338
1.613019
1.622253
1.593089
1.596497
1.601281
1.607809
1.616588
1.627345
1.591022
1.593964
1.598065
1.603634
1.611076
1.620953
1.632002
1.589276
1.591859
1.595454
1.600286
1.606686
1.615098
1.625196
1.636415
1.587713
1.59002
1.593222
1.597504
1.603114
1.610408
1.619032
1.629359
1.640754
1.586259
1.588341
1.591234
1.595087
1.600103
1.606552
1.614048
1.622905
1.633504
1.645157
1.610338
1.607236
1.611366
1.602841
1.6082
1.613702
1.59891
1.603658
1.610104
1.61727
1.595598
1.599641
1.605278
1.612902
1.621903
1.592911
1.596333
1.601144
1.607708
1.616538
1.62735
1.59077
1.59372
1.597842
1.603451
1.610963
1.620976
1.632284
1.58903
1.591614
1.59522
1.600076
1.606522
1.615017
1.625263
1.636795
1.58753
1.589834
1.59304
1.597335
1.602968
1.610305
1.618995
1.629443
1.641098
1.586163
1.588244
1.591137
1.594995
1.60002
1.606485
1.614005
1.622899
1.633566
1.645367
1.584869
1.586765
1.589406
1.592917
1.597466
1.603277
1.609919
1.617638
1.626764
1.637696
1.649742
1.61062
1.607236
1.611366
1.602823
1.608113
1.613433
1.598917
1.603629
1.609962
1.616819
1.595597
1.599636
1.605244
1.612762
1.621443
1.592841
1.596276
1.6011
1.607667
1.616466
1.627131
1.590585
1.593546
1.597691
1.603338
1.610906
1.62101
1.632456
1.588779
1.591368
1.594989
1.599876
1.606377
1.614967
1.625373
1.637233
1.587289
1.589593
1.592806
1.597118
1.602786
1.610185
1.618968
1.629583
1.641599
1.585985
1.588063
1.590959
1.594825
1.599868
1.606366
1.613934
1.622901
1.6337
1.645792
1.584776
1.586671
1.589312
1.592826
1.597383
1.603206
1.609866
1.617612
1.626778
1.637783
1.649991
1.583614
1.585355
1.587785
1.591014
1.595184
1.600479
1.606459
1.613294
1.621238
1.630632
1.641898
1.653347
1.611128
1.607324
1.611644
1.602823
1.608113
1.613433
1.598922
1.603612
1.609878
1.616563
1.595612
1.599644
1.605217
1.61263
1.621031
1.592835
1.596275
1.601099
1.607643
1.616351
1.626757
1.590507
1.593479
1.59764
1.603307
1.610892
1.620996
1.632367
1.588591
1.591187
1.594826
1.599744
1.606297
1.614966
1.625492
1.637572
1.587042
1.589347
1.592571
1.596907
1.602617
1.61009
1.618981
1.629781
1.642192
1.585751
1.587827
1.590727
1.594607
1.599677
1.606222
1.613858
1.622929
1.633914
1.646413
1.584603
1.586496
1.589137
1.592659
1.597229
1.603078
1.609774
1.617572
1.626818
1.637969
1.650496
1.583524
1.585263
1.587693
1.590925
1.595101
1.600406
1.6064
1.613255
1.621228
1.630666
1.642011
1.653628
1.582472
1.584081
1.586333
1.589324
1.593179
1.598053
1.6035
1.60965
1.616679
1.624847
1.634511
1.645206
1.656018
1.611753
1.607476
1.612142
1.602841
1.6082
1.613702
1.598922
1.603612
1.609878
1.616563
1.595623
1.599649
1.605201
1.612551
1.620793
1.592849
1.596291
1.601107
1.60762
1.616233
1.626395
1.590493
1.593473
1.597641
1.603312
1.610881
1.620915
1.632079
1.588506
1.591111
1.594764
1.599703
1.606285
1.614988
1.625535
1.637612
1.586853
1.589163
1.592399
1.59676
1.602512
1.610052
1.619036
1.629983
1.642697
1.585509
1.587584
1.590492
1.594389
1.599492
1.606094
1.613811
1.623004
1.634199
1.647161
1.584376
1.586265
1.588909
1.592441
1.597032
1.602918
1.609666
1.617539
1.6269
1.638254
1.651237
1.583357
1.585093
1.587524
1.59076
1.594947
1.600274
1.606296
1.61319
1.621219
1.630745
1.642247
1.654195
1.582385
1.583992
1.586244
1.589238
1.593096
1.59798
1.603438
1.609604
1.616654
1.624853
1.634565
1.64534
1.656321
1.581426
1.582921
1.58502
1.587809
1.591396
1.595918
1.60093
1.606529
1.61285
1.620073
1.628466
1.637567
1.647658
1.657785
1.612353
1.607654
1.61275
1.602871
1.608348
1.614182
1.598917
1.603629
1.609962
1.616819
1.595623
1.599649
1.605201
1.612551
1.620793
1.59286
1.596302
1.601113
1.607605
1.61616
1.626179
1.590503
1.593487
1.597657
1.603322
1.610864
1.620815
1.631766
1.588486
1.591098
1.594759
1.599708
1.606297
1.614994
1.625488
1.637408
1.586764
1.58908
1.592327
1.596706
1.602485
1.610064
1.619093
1.630084
1.642866
1.585322
1.587399
1.590315
1.594231
1.599367
1.606022
1.613816
1.623116
1.634485
1.647832
1.58414
1.586028
1.588676
1.59222
1.596838
1.602769
1.609578
1.617542
1.627037
1.638626
1.65214
1.583137
1.58487
1.587301
1.590545
1.594749
1.600105
1.606168
1.613119
1.62123
1.630881
1.642605
1.655029
1.582224
1.583828
1.586079
1.589077
1.592945
1.597845
1.603326
1.609522
1.616615
1.624876
1.634682
1.645615
1.656934
1.581342
1.582836
1.584935
1.587725
1.591316
1.595845
1.600866
1.606478
1.612815
1.620061
1.628488
1.637636
1.647806
1.658103
1.580462
1.581859
1.583825
1.586439
1.589796
1.594018
1.598665
1.603814
1.609566
1.616058
1.623475
1.63132
1.639833
1.649281
1.658667
1.612835
1.607836
1.613325
1.602915
1.60852
1.614757
1.59891
1.603658
1.610104
1.61727
1.595612
1.599644
1.605217
1.61263
1.621031
1.59286
1.596302
1.601113
1.607605
1.61616
1.626179
1.590513
1.593498
1.597668
1.603328
1.610851
1.620749
1.631572
1.588492
1.591107
1.594773
1.599724
1.60631
1.614985
1.625406
1.637144
1.58674
1.58906
1.592314
1.596704
1.602495
1.610087
1.619116
1.630071
1.642746
1.58523
1.587311
1.590235
1.594165
1.599324
1.606014
1.613852
1.623207
1.634643
1.648129
1.583956
1.585843
1.588497
1.592056
1.596699
1.602672
1.609541
1.617589
1.627205
1.638996
1.652977
1.582908
1.584638
1.587071
1.590325
1.594549
1.599941
1.606053
1.613072
1.621281
1.63108
1.643064
1.656052
1.58201
1.583611
1.585862
1.588866
1.592747
1.597672
1.603185
1.609426
1.61658
1.62493
1.634871
1.646029
1.657837
1.581186
1.582677
1.584775
1.587568
1.591167
1.59571
1.60075
1.606386
1.612757
1.620049
1.628543
1.637783
1.64811
1.658746
1.580381
1.581776
1.583742
1.586357
1.589718
1.593946
1.598601
1.60376
1.609525
1.616035
1.623478
1.631354
1.639914
1.649438
1.658993
1.579569
1.58088
1.58273
1.58519
1.588348
1.59231
1.596647
1.601419
1.606706
1.612611
1.619274
1.62616
1.633437
1.641334
1.650091
1.613162
1.608045
1.613776
1.602994
1.608691
1.615283
1.598916
1.603699
1.610263
1.617796
1.595597
1.599636
1.605244
1.612762
1.621443
1.592849
1.596291
1.601107
1.60762
1.616233
1.626395
1.590513
1.593498
1.597668
1.603328
1.610851
1.620749
1.631572
1.588499
1.591117
1.594784
1.599735
1.606316
1.614974
1.625347
1.636972
1.586742
1.589066
1.592324
1.596717
1.602512
1.610103
1.619114
1.630006
1.642529
1.585203
1.587287
1.590216
1.594154
1.599325
1.606031
1.613886
1.623248
1.634663
1.648091
1.583865
1.585753
1.588413
1.591981
1.596642
1.602644
1.609551
1.61765
1.627331
1.639212
1.653401
1.582728
1.584456
1.586893
1.590157
1.594401
1.599826
1.605985
1.613069
1.621371
1.631303
1.643517
1.657018
1.581788
1.583385
1.585638
1.588648
1.592546
1.597499
1.603051
1.609346
1.616574
1.62503
1.635132
1.646555
1.658948
1.58098
1.582466
1.584564
1.587362
1.590972
1.595535
1.600601
1.606273
1.612692
1.62005
1.62864
1.638014
1.648566
1.659694
1.58023
1.581622
1.583587
1.586205
1.589572
1.593812
1.598482
1.603662
1.609454
1.616
1.623492
1.631433
1.640082
1.649762
1.65965
1.579491
1.5808
1.58265
1.585111
1.588271
1.592239
1.596582
1.601363
1.606661
1.612581
1.619264
1.626173
1.633481
1.641421
1.650254
1.578738
1.579973
1.58172
1.584045
1.587027
1.590762
1.59483
1.599281
1.604179
1.609605
1.615664
1.621813
1.628152
1.634839
1.642083
1.61338
1.608276
1.614075
1.603157
1.608885
1.615671
1.598973
1.603772
1.610413
1.618247
1.595598
1.599641
1.605278
1.612902
1.621903
1.592835
1.596275
1.601099
1.607643
1.616351
1.626757
1.590503
1.593487
1.597657
1.603322
1.610864
1.620815
1.631766
1.588499
1.591117
1.594784
1.599735
1.606316
1.614974
1.625347
1.636972
1.586748
1.589073
1.592333
1.596728
1.602523
1.61011
1.619107
1.629955
1.64238
1.585203
1.587289
1.590221
1.594163
1.599339
1.606049
1.613905
1.623254
1.634615
1.647923
1.583836
1.585726
1.588389
1.591964
1.596634
1.60265
1.609575
1.617693
1.627389
1.639264
1.653445
1.582637
1.584366
1.586806
1.590077
1.594334
1.599782
1.605972
1.613097
1.621456
1.631464
1.64379
1.657541
1.581613
1.583208
1.585462
1.58848
1.592393
1.597372
1.602961
1.609306
1.616605
1.625161
1.635411
1.647074
1.660009
1.580764
1.582247
1.584345
1.587148
1.590771
1.595358
1.600456
1.60617
1.612646
1.620084
1.628788
1.638323
1.649142
1.660864
1.58003
1.581419
1.583383
1.586004
1.58938
1.593637
1.59833
1.603538
1.609369
1.615966
1.623529
1.631563
1.640344
1.650245
1.660621
1.579344
1.580651
1.5825
1.584963
1.588129
1.592107
1.596463
1.601261
1.606582
1.61253
1.619251
1.626208
1.633577
1.641605
1.650586
1.578662
1.579896
1.581642
1.583968
1.586952
1.590692
1.594766
1.599225
1.604132
1.60957
1.615644
1.621812
1.628173
1.634889
1.642174
1.577961
1.579128
1.580784
1.582989
1.585814
1.589349
1.593182
1.597356
1.601922
1.606947
1.612512
1.618075
1.623699
1.629472
1.635539
1.613515
1.608497
1.614269
1.603388
1.6091
1.615912
1.599133
1.603925
1.610576
1.61854
1.595659
1.599693
1.605338
1.613019
1.622253
1.592841
1.596276
1.6011
1.607667
1.616466
1.627131
1.590493
1.593473
1.597641
1.603312
1.610881
1.620915
1.632079
1.588492
1.591107
1.594773
1.599724
1.60631
1.614985
1.625406
1.637144
1.586748
1.589073
1.592333
1.596728
1.602523
1.61011
1.619107
1.629955
1.64238
1.585208
1.587295
1.590228
1.594171
1.599349
1.606059
1.613913
1.623249
1.634571
1.647794
1.583834
1.585726
1.58839
1.591968
1.596642
1.602664
1.609595
1.617716
1.627402
1.639234
1.653323
1.582607
1.584337
1.586779
1.590054
1.594318
1.599777
1.605982
1.613128
1.62151
1.631539
1.643875
1.657649
1.581524
1.583118
1.585374
1.588396
1.592319
1.597316
1.602929
1.609307
1.616652
1.625271
1.635607
1.647391
1.660605
1.580594
1.582074
1.584173
1.586981
1.590616
1.595224
1.60035
1.606104
1.612635
1.620149
1.628962
1.638646
1.649708
1.661987
1.579822
1.581206
1.58317
1.585795
1.589182
1.593459
1.598177
1.603419
1.609295
1.615955
1.623603
1.631749
1.640688
1.650853
1.661819
1.579151
1.580454
1.582302
1.584768
1.587941
1.591934
1.596309
1.601131
1.606482
1.612472
1.619249
1.626273
1.633732
1.641886
1.651083
1.578521
1.579751
1.581497
1.583824
1.586813
1.590563
1.594648
1.599121
1.604047
1.609508
1.615614
1.621818
1.628223
1.634997
1.642365
1.577888
1.579054
1.580709
1.582914
1.585742
1.58928
1.593119
1.597299
1.601874
1.606908
1.612486
1.618063
1.623704
1.629498
1.635592
1.577232
1.578339
1.579913
1.582009
1.584694
1.58805
1.591675
1.595607
1.599887
1.60457
1.609721
1.614808
1.619865
1.624948
1.630132
1.613583
1.608666
1.61439
1.603628
1.609307
1.616061
1.599371
1.604145
1.610758
1.618692
1.595828
1.599846
1.605471
1.613134
1.622415
1.592911
1.596333
1.601144
1.607708
1.616538
1.62735
1.590507
1.593479
1.59764
1.603307
1.610892
1.620996
1.632367
1.588486
1.591098
1.594759
1.599708
1.606297
1.614994
1.625488
1.637408
1.586742
1.589066
1.592324
1.596717
1.602512
1.610103
1.619114
1.630006
1.642529
1.585208
1.587295
1.590228
1.594171
1.599349
1.606059
1.613913
1.623249
1.634571
1.647794
1.583838
1.58573
1.588396
1.591974
1.59665
1.602673
1.609605
1.617725
1.6274
1.639197
1.653216
1.582605
1.584335
1.586778
1.590055
1.594322
1.599785
1.605996
1.613149
1.621536
1.63156
1.643861
1.657563
1.581494
1.583088
1.585345
1.58837
1.592297
1.597302
1.602927
1.609322
1.616689
1.625336
1.6357
1.647501
1.660759
1.580507
1.581986
1.584085
1.586897
1.590538
1.595159
1.600304
1.606083
1.612651
1.620214
1.629096
1.638869
1.650058
1.662631
1.579657
1.581039
1.583002
1.585631
1.589027
1.593321
1.598061
1.603335
1.609254
1.615972
1.623702
1.631956
1.641044
1.651451
1.662973
1.57895
1.580248
1.582095
1.584564
1.587747
1.591756
1.596152
1.601002
1.60639
1.612428
1.619271
1.626378
1.633946
1.642254
1.651707
1.578334
1.57956
1.581305
1.583635
1.586631
1.590393
1.594494
1.598987
1.603939
1.609434
1.615583
1.621839
1.62831
1.635168
1.642656
1.57775
1.578914
1.580568
1.582775
1.585606
1.589154
1.593002
1.597195
1.601785
1.606839
1.612442
1.618048
1.623723
1.629558
1.635706
1.577161
1.578267
1.57984
1.581937
1.584624
1.587984
1.591613
1.59555
1.599837
1.604529
1.609691
1.614789
1.61986
1.624958
1.63016
1.576545
1.577598
1.579098
1.581097
1.583656
1.586851
1.590291
1.594007
1.598037
1.602424
1.607223
1.611914
1.616514
1.621052
1.625572
1.608759
1.61445
1.603817
1.609467
1.616151
1.599619
1.604374
1.610937
1.618771
1.596074
1.600075
1.605667
1.613267
1.622446
1.593089
1.596497
1.601281
1.607809
1.616588
1.627345
1.590585
1.593546
1.597691
1.603338
1.610906
1.62101
1.632456
1.588506
1.591111
1.594764
1.599703
1.606285
1.614988
1.625535
1.637612
1.58674
1.58906
1.592314
1.596704
1.602495
1.610087
1.619116
1.630071
1.642746
1.585203
1.587289
1.590221
1.594163
1.599339
1.606049
1.613905
1.623254
1.634615
1.647923
1.583838
1.58573
1.588396
1.591974
1.59665
1.602673
1.609605
1.617725
1.6274
1.639197
1.653216
1.582608
1.584338
1.586782
1.59006
1.594328
1.599792
1.606005
1.613159
1.621545
1.63156
1.643832
1.657473
1.581491
1.583085
1.585342
1.588368
1.592297
1.597305
1.602935
1.609337
1.616711
1.625365
1.635727
1.6475
1.6607
1.580478
1.581956
1.584055
1.586868
1.590513
1.595139
1.600293
1.606085
1.612671
1.620259
1.629171
1.638975
1.650187
1.662816
1.579573
1.580952
1.582915
1.585546
1.588947
1.59325
1.598005
1.603299
1.609245
1.616003
1.623786
1.632109
1.641287
1.651822
1.663641
1.578791
1.580086
1.581932
1.584403
1.587593
1.591616
1.596031
1.600905
1.606327
1.612411
1.619317
1.626504
1.634177
1.64263
1.65232
1.578139
1.579362
1.581105
1.583437
1.58644
1.590216
1.594335
1.598852
1.603833
1.609367
1.615569
1.621888
1.628438
1.6354
1.643035
1.577569
1.578729
1.580382
1.582591
1.585428
1.588987
1.592849
1.597059
1.601671
1.606753
1.612392
1.618039
1.623763
1.629658
1.635885
1.577028
1.578131
1.579703
1.581801
1.584493
1.58786
1.591498
1.595446
1.599747
1.604455
1.609638
1.61476
1.619857
1.624985
1.630225
1.576476
1.577528
1.579028
1.581027
1.583588
1.586786
1.59023
1.593951
1.597987
1.602382
1.60719
1.61189
1.616501
1.621051
1.625584
1.575896
1.5769
1.578334
1.580244
1.582688
1.585738
1.589011
1.592535
1.596343
1.600472
1.604967
1.609322
1.613543
1.617645
1.621645
1.603922
1.609555
1.616196
1.599815
1.604556
1.611078
1.618815
1.596326
1.600314
1.605876
1.613405
1.622431
1.59334
1.596735
1.601492
1.60797
1.616653
1.627219
1.59077
1.59372
1.597842
1.603451
1.610963
1.620976
1.632284
1.588591
1.591187
1.594826
1.599744
1.606297
1.614966
1.625492
1.637572
1.586764
1.58908
1.592327
1.596706
1.602485
1.610064
1.619093
1.630084
1.642866
1.585203
1.587287
1.590216
1.594154
1.599325
1.606031
1.613886
1.623248
1.634663
1.648091
1.583834
1.585726
1.58839
1.591968
1.596642
1.602664
1.609595
1.617716
1.627402
1.639234
1.653323
1.582608
1.584338
1.586782
1.59006
1.594328
1.599792
1.606005
1.613159
1.621545
1.63156
1.643832
1.657473
1.581494
1.583088
1.585346
1.588372
1.592301
1.59731
1.602941
1.609345
1.616721
1.625375
1.63573
1.647476
1.660622
1.580475
1.581953
1.584052
1.586865
1.59051
1.595138
1.600295
1.606093
1.612686
1.620283
1.629204
1.639008
1.650196
1.662775
1.579545
1.580923
1.582886
1.585516
1.588919
1.593226
1.597987
1.60329
1.609251
1.616027
1.623837
1.632192
1.641402
1.651963
1.663842
1.578709
1.580002
1.581847
1.584319
1.587513
1.591543
1.595969
1.600858
1.606301
1.612415
1.619362
1.626602
1.634344
1.642886
1.652703
1.577985
1.579204
1.580946
1.58328
1.586289
1.590076
1.594211
1.598747
1.603756
1.609326
1.615576
1.621956
1.628583
1.635647
1.643422
1.577381
1.578536
1.580188
1.582398
1.585242
1.588813
1.59269
1.59692
1.601557
1.606671
1.612352
1.618048
1.623831
1.629801
1.636127
1.576852
1.577952
1.579523
1.581623
1.584319
1.587696
1.591347
1.59531
1.599629
1.604361
1.609574
1.614729
1.619864
1.625037
1.630332
1.576347
1.577396
1.578895
1.580895
1.58346
1.586665
1.590117
1.593848
1.597895
1.602305
1.607131
1.61185
1.616482
1.621055
1.625616
1.575829
1.576832
1.578265
1.580175
1.582622
1.585674
1.588951
1.59248
1.596294
1.600429
1.604932
1.609295
1.613525
1.617636
1.621646
1.575281
1.576241
1.577613
1.579443
1.581783
1.5847
1.587822
1.591174
1.594784
1.598684
1.602913
1.606978
1.610882
1.614624
1.61821
1.599922
1.604657
1.611156
1.618837
1.596524
1.600504
1.606044
1.613516
1.622411
1.593592
1.59698
1.601715
1.608148
1.616733
1.627082
1.591022
1.593964
1.598065
1.603634
1.611076
1.620953
1.632002
1.588779
1.591368
1.594989
1.599876
1.606377
1.614967
1.625373
1.637233
1.586853
1.589163
1.592399
1.59676
1.602512
1.610052
1.619036
1.629983
1.642697
1.58523
1.587311
1.590235
1.594165
1.599324
1.606014
1.613852
1.623207
1.634643
1.648129
1.583836
1.585726
1.588389
1.591964
1.596634
1.60265
1.609575
1.617693
1.627389
1.639264
1.653445
1.582605
1.584335
1.586778
1.590055
1.594322
1.599785
1.605996
1.613149
1.621536
1.63156
1.643861
1.657563
1.581494
1.583088
1.585346
1.588372
1.592301
1.59731
1.602941
1.609345
1.616721
1.625375
1.63573
1.647476
1.660622
1.580478
1.581956
1.584055
1.586867
1.590513
1.595141
1.600299
1.606098
1.612693
1.620292
1.629214
1.639013
1.650176
1.662704
1.579542
1.58092
1.582882
1.585512
1.588915
1.593223
1.597985
1.603292
1.609258
1.616043
1.623862
1.632228
1.64144
1.651978
1.663809
1.578682
1.579974
1.581818
1.58429
1.587484
1.591516
1.595946
1.600842
1.606295
1.612424
1.619392
1.626658
1.634433
1.643008
1.65285
1.577906
1.579123
1.580864
1.583198
1.586209
1.590002
1.594144
1.598693
1.603717
1.60931
1.615592
1.622013
1.628692
1.635824
1.643685
1.577232
1.578384
1.580035
1.582246
1.585095
1.588675
1.592565
1.596811
1.60147
1.606612
1.612332
1.618074
1.623915
1.629959
1.636381
1.57667
1.577766
1.579335
1.581436
1.584138
1.587526
1.59119
1.59517
1.59951
1.604268
1.609516
1.614709
1.61989
1.625118
1.630483
1.576177
1.577223
1.57872
1.580722
1.583291
1.586505
1.589968
1.593712
1.597776
1.602206
1.607057
1.611803
1.616465
1.621072
1.625673
1.575703
1.576704
1.578136
1.580048
1.582497
1.585556
1.58884
1.592378
1.596202
1.60035
1.604868
1.609247
1.613495
1.617624
1.621654
1.575216
1.576175
1.577546
1.579376
1.581719
1.584638
1.587764
1.59112
1.594735
1.598641
1.602876
1.606949
1.610859
1.614609
1.618203
1.574695
1.575615
1.576932
1.578688
1.580933
1.583728
1.586713
1.589909
1.593341
1.597037
1.60103
1.604844
1.608474
1.611916
1.615164
1.596632
1.600609
1.606137
1.613579
1.622402
1.593788
1.597173
1.601893
1.608293
1.616804
1.626981
1.591273
1.59421
1.598297
1.603832
1.611211
1.620959
1.631743
1.58903
1.591614
1.59522
1.600076
1.606522
1.615017
1.625263
1.636795
1.587042
1.589347
1.592571
1.596907
1.602617
1.61009
1.618981
1.629781
1.642192
1.585322
1.587399
1.590315
1.594231
1.599367
1.606022
1.613816
1.623116
1.634485
1.647832
1.583865
1.585753
1.588413
1.591981
1.596642
1.602644
1.609551
1.61765
1.627331
1.639212
1.653401
1.582607
1.584337
1.586779
1.590054
1.594318
1.599777
1.605982
1.613128
1.62151
1.631539
1.643875
1.657649
1.581491
1.583085
1.585342
1.588368
1.592297
1.597305
1.602935
1.609337
1.616711
1.625365
1.635727
1.6475
1.6607
1.580478
1.581956
1.584055
1.586867
1.590513
1.595141
1.600299
1.606098
1.612693
1.620292
1.629214
1.639013
1.650176
1.662704
1.579545
1.580923
1.582884
1.585514
1.588917
1.593224
1.597987
1.603295
1.609262
1.616049
1.623872
1.632239
1.641446
1.651961
1.663742
1.57868
1.579971
1.581814
1.584285
1.587479
1.591511
1.595941
1.600839
1.606296
1.612431
1.619407
1.626685
1.63447
1.643049
1.652868
1.577881
1.579096
1.580836
1.583169
1.58618
1.589974
1.594118
1.598671
1.603703
1.609307
1.615604
1.622046
1.628752
1.635916
1.64381
1.577157
1.578306
1.579955
1.582166
1.585016
1.5886
1.592496
1.596751
1.601422
1.606583
1.612326
1.6181
1.623981
1.630075
1.636562
1.576526
1.577619
1.579187
1.581288
1.583994
1.58739
1.591065
1.595058
1.599416
1.604198
1.609476
1.614706
1.61993
1.625213
1.630647
1.576
1.577042
1.578538
1.580541
1.583115
1.586338
1.589813
1.593572
1.597654
1.602106
1.606986
1.611763
1.616461
1.62111
1.625761
1.575538
1.576536
1.577967
1.579879
1.582333
1.5854
1.588694
1.592244
1.596082
1.600248
1.604788
1.609189
1.61346
1.617616
1.621676
1.575093
1.57605
1.577421
1.579252
1.581597
1.584522
1.587655
1.591019
1.594643
1.598561
1.60281
1.606896
1.61082
1.614585
1.618194
1.574632
1.575551
1.576867
1.578623
1.58087
1.583668
1.586656
1.589856
1.593292
1.596993
1.600992
1.604812
1.608449
1.611897
1.61515
1.574137
1.575021
1.576287
1.577975
1.580132
1.582816
1.585675
1.588729
1.592
1.595512
1.599294
1.602886
1.60628
1.609466
1.612433
1.593895
1.597278
1.601991
1.608375
1.616847
1.626931
1.591466
1.594402
1.598479
1.603992
1.611326
1.620979
1.631561
1.589276
1.591859
1.595454
1.600286
1.606686
1.615098
1.625196
1.636415
1.587289
1.589593
1.592806
1.597118
1.602786
1.610185
1.618968
1.629583
1.641599
1.585509
1.587584
1.590492
1.594389
1.599492
1.606094
1.613811
1.623004
1.634199
1.647161
1.583956
1.585843
1.588497
1.592056
1.596699
1.602672
1.609541
1.617589
1.627205
1.638996
1.652977
1.582637
1.584366
1.586806
1.590077
1.594334
1.599782
1.605972
1.613097
1.621456
1.631464
1.64379
1.657541
1.581494
1.583088
1.585345
1.58837
1.592297
1.597302
1.602927
1.609322
1.616689
1.625336
1.6357
1.647501
1.660759
1.580475
1.581953
1.584052
1.586865
1.59051
1.595138
1.600295
1.606093
1.612686
1.620283
1.629204
1.639008
1.650196
1.662775
1.579545
1.580923
1.582884
1.585514
1.588917
1.593224
1.597987
1.603295
1.609262
1.616049
1.623872
1.632239
1.641446
1.651961
1.663742
1.578683
1.579973
1.581816
1.584287
1.58748
1.591511
1.595941
1.60084
1.606298
1.612434
1.619414
1.626694
1.634482
1.643056
1.652852
1.577879
1.579094
1.580832
1.583164
1.586174
1.589967
1.594112
1.598665
1.603699
1.609307
1.615611
1.622062
1.628779
1.635955
1.643852
1.577133
1.578281
1.579928
1.582137
1.584987
1.588571
1.592469
1.596726
1.601402
1.60657
1.612325
1.618115
1.624017
1.630138
1.636657
1.576454
1.577544
1.57911
1.581211
1.583917
1.587316
1.590995
1.594995
1.599363
1.604158
1.609455
1.614708
1.619962
1.625284
1.630766
1.575862
1.5769
1.578395
1.580398
1.582975
1.586205
1.589689
1.593459
1.597556
1.602027
1.606932
1.611738
1.616469
1.621159
1.625861
1.575367
1.576361
1.57779
1.579704
1.582162
1.585237
1.588542
1.592104
1.595958
1.600143
1.604707
1.609134
1.613434
1.617622
1.621719
1.574933
1.575887
1.577257
1.579089
1.581438
1.58437
1.587512
1.590887
1.594524
1.598456
1.602724
1.60683
1.610774
1.614559
1.618191
1.574513
1.57543
1.576746
1.578503
1.580752
1.583555
1.58655
1.589757
1.593202
1.596913
1.600924
1.604756
1.608404
1.611864
1.615129
1.574075
1.574958
1.576224
1.577912
1.580071
1.582757
1.58562
1.588677
1.591952
1.595468
1.599256
1.602854
1.606253
1.609444
1.612415
1.573603
1.574453
1.575673
1.577298
1.579375
1.581956
1.5847
1.587624
1.590748
1.594093
1.597686
1.601081
1.604267
1.607233
1.609962
1.59157
1.594506
1.598579
1.604081
1.611392
1.620995
1.631471
1.589464
1.592049
1.595637
1.600453
1.606821
1.615174
1.625164
1.636152
1.58753
1.589834
1.59304
1.597335
1.602968
1.610305
1.618995
1.629443
1.641098
1.585751
1.587827
1.590727
1.594607
1.599677
1.606222
1.613858
1.622929
1.633914
1.646413
1.58414
1.586028
1.588676
1.59222
1.596838
1.602769
1.609578
1.617542
1.627037
1.638626
1.65214
1.582728
1.584456
1.586893
1.590157
1.594401
1.599826
1.605985
1.613069
1.621371
1.631303
1.643517
1.657018
1.581524
1.583118
1.585374
1.588396
1.592319
1.597316
1.602929
1.609307
1.616652
1.625271
1.635607
1.647391
1.660605
1.580478
1.581956
1.584055
1.586868
1.590513
1.595139
1.600293
1.606085
1.612671
1.620259
1.629171
1.638975
1.650187
1.662816
1.579542
1.58092
1.582882
1.585512
1.588915
1.593223
1.597985
1.603292
1.609258
1.616043
1.623862
1.632228
1.64144
1.651978
1.663809
1.578683
1.579973
1.581816
1.584287
1.58748
1.591511
1.595941
1.60084
1.606298
1.612434
1.619414
1.626694
1.634482
1.643056
1.652852
1.577883
1.579097
1.580835
1.583166
1.586175
1.589967
1.594111
1.598665
1.603699
1.609308
1.615614
1.622068
1.628789
1.635967
1.643859
1.577132
1.578279
1.579925
1.582133
1.584981
1.588564
1.592461
1.596718
1.601396
1.606566
1.612325
1.618122
1.624033
1.630166
1.636696
1.576431
1.577519
1.579084
1.581183
1.583889
1.587287
1.590967
1.594968
1.599339
1.60414
1.609444
1.614709
1.619979
1.625322
1.63083
1.575792
1.576828
1.578321
1.580323
1.5829
1.586132
1.58962
1.593395
1.597499
1.601981
1.6069
1.611724
1.616478
1.621196
1.625935
1.575233
1.576224
1.577651
1.579565
1.582026
1.585107
1.588419
1.591991
1.595858
1.600059
1.604643
1.609093
1.613419
1.617638
1.621773
1.574767
1.575717
1.577086
1.578918
1.581271
1.584212
1.587362
1.590748
1.594399
1.598349
1.602637
1.606764
1.610731
1.614541
1.618202
1.574356
1.575271
1.576586
1.578344
1.580597
1.583407
1.586409
1.589626
1.593083
1.596807
1.600835
1.604683
1.608348
1.611824
1.615107
1.573959
1.57484
1.576105
1.577794
1.579956
1.582647
1.585515
1.588579
1.591862
1.595388
1.599186
1.602794
1.606203
1.609404
1.612385
1.573542
1.574392
1.575611
1.577237
1.579315
1.581899
1.584646
1.587573
1.5907
1.59405
1.597648
1.601048
1.604238
1.607208
1.609941
1.57309
1.573911
1.575087
1.576655
1.578658
1.581144
1.583781
1.586586
1.589575
1.592769
1.59619
1.599408
1.602411
1.605184
1.607709
1.589566
1.592151
1.595737
1.600545
1.606897
1.61522
1.625154
1.636022
1.587713
1.59002
1.593222
1.597504
1.603114
1.610408
1.619032
1.629359
1.640754
1.585985
1.588063
1.590959
1.594825
1.599868
1.606366
1.613934
1.622901
1.6337
1.645792
1.584376
1.586265
1.588909
1.592441
1.597032
1.602918
1.609666
1.617539
1.6269
1.638254
1.651237
1.582908
1.584638
1.587071
1.590325
1.594549
1.599941
1.606053
1.613072
1.621281
1.63108
1.643064
1.656052
1.581613
1.583208
1.585462
1.58848
1.592393
1.597372
1.602961
1.609306
1.616605
1.625161
1.635411
1.647074
1.660009
1.580507
1.581986
1.584085
1.586897
1.590538
1.595159
1.600304
1.606083
1.612651
1.620214
1.629096
1.638869
1.650058
1.662631
1.579545
1.580923
1.582886
1.585516
1.588919
1.593226
1.597987
1.60329
1.609251
1.616027
1.623837
1.632192
1.641402
1.651963
1.663842
1.57868
1.579971
1.581814
1.584285
1.587479
1.591511
1.595941
1.600839
1.606296
1.612431
1.619407
1.626685
1.63447
1.643049
1.652868
1.577883
1.579097
1.580835
1.583166
1.586175
1.589967
1.594111
1.598665
1.603699
1.609308
1.615614
1.622068
1.628789
1.635967
1.643859
1.577136
1.578282
1.579927
1.582135
1.584982
1.588564
1.59246
1.596717
1.601394
1.606565
1.612325
1.618124
1.624038
1.630175
1.636708
1.576431
1.577518
1.579082
1.58118
1.583883
1.58728
1.590959
1.594959
1.599331
1.604132
1.609439
1.614709
1.619986
1.625338
1.630858
1.575771
1.576806
1.578296
1.580297
1.582873
1.586104
1.589591
1.593367
1.597473
1.601958
1.606883
1.611715
1.61648
1.621215
1.625974
1.575167
1.576155
1.57758
1.579493
1.581954
1.585036
1.588351
1.591927
1.595799
1.600008
1.604604
1.609068
1.613411
1.617651
1.621813
1.574637
1.575585
1.576951
1.578784
1.581139
1.584085
1.587242
1.590637
1.594298
1.598261
1.602566
1.606712
1.6107
1.614534
1.618222
1.574195
1.575107
1.57642
1.578178
1.580435
1.583252
1.586263
1.58949
1.592959
1.596698
1.600744
1.60461
1.608294
1.61179
1.615094
1.573807
1.574685
1.575949
1.57764
1.579805
1.582502
1.585378
1.588451
1.591744
1.595282
1.599095
1.602718
1.606141
1.609355
1.612349
1.573429
1.574277
1.575496
1.577123
1.579203
1.581792
1.584544
1.587477
1.590611
1.59397
1.597577
1.600986
1.604186
1.607163
1.609904
1.573032
1.573851
1.575027
1.576596
1.578599
1.581088
1.583728
1.586535
1.589528
1.592726
1.596152
1.599374
1.602381
1.605157
1.607685
1.572598
1.57339
1.574527
1.576042
1.577975
1.580374
1.582913
1.585607
1.588472
1.591527
1.594792
1.597851
1.600689
1.603293
1.605641
1.587812
1.59012
1.59332
1.597597
1.603195
1.610468
1.619057
1.629324
1.640584
1.586163
1.588244
1.591137
1.594995
1.60002
1.606485
1.614005
1.622899
1.633566
1.645367
1.584603
1.586496
1.589137
1.592659
1.597229
1.603078
1.609774
1.617572
1.626818
1.637969
1.650496
1.583137
1.58487
1.587301
1.590545
1.594749
1.600105
1.606168
1.613119
1.62123
1.630881
1.642605
1.655029
1.581788
1.583385
1.585638
1.588648
1.592546
1.597499
1.603051
1.609346
1.616574
1.62503
1.635132
1.646555
1.658948
1.580594
1.582074
1.584173
1.586981
1.590616
1.595224
1.60035
1.606104
1.612635