/*--------------------------------*- C++ -*----------------------------------*\
| =========                 |                                                 |
| \\      /  F ield         | OpenFOAM: The Open Source CFD Toolbox           |
|  \\    /   O peration     | Version:  2306                                  |
|   \\  /    A nd           | Website:  www.openfoam.com                      |
|    \\/     M anipulation  |                                                 |
\*---------------------------------------------------------------------------*/
FoamFile
{
    version     2.0;
    format      ascii;
    arch        "LSB;label=32;scalar=64";
    class       volVectorField;
    location    "0.6/phiEA";
    object      i;
}
// * * * * * * * * * * * * * * * * * * * * * * * * * * * * * * * * * * * * * //

dimensions      [0 -2 0 0 0 1 0];

internalField   nonuniform List<vector> 
20000
(
(-590.2482 2375.017 2023.12)
(-618.2842 7634.995 2058.856)
(-1193.954 2094.657 1847.252)
(-589.5448 2373.587 5975.765)
(-679.4112 14439.02 2130.905)
(-1243.283 6743.366 1875.723)
(-617.5517 7630.684 6081.739)
(-1128.948 1881.732 1694.422)
(-1192.64 2093.518 5460.707)
(-588.188 2370.778 9768.823)
(-783.7143 23517.74 2226.471)
(-1351.178 12784.72 1932.776)
(-678.6187 14432.32 6295.409)
(-1166.19 6062.761 1718.838)
(-1241.923 6739.945 5545.365)
(-616.1387 7622.209 9942.984)
(-972.9519 1722.237 1571.12)
(-1127.843 1880.756 5012.498)
(-1190.101 2091.271 8935.502)
(-586.2115 2366.621 13455.2)
(-942.7891 33566.45 2274.841)
(-1536.171 20883.96 2006.153)
(-782.833 23511.99 6578.437)
(-1248.112 11510.14 1767.689)
(-1349.725 12779.51 5715.055)
(-677.0898 14419.16 10294.2)
(-1001.481 5551.721 1592.827)
(-1165.058 6059.83 5085.201)
(-1239.297 6733.192 9075.08)
(-614.08 7609.669 13696.28)
(-832.6932 1596.438 1468.802)
(-972.0494 1721.369 4650.525)
(-1125.707 1878.824 8209.201)
(-1186.401 2087.935 12316.69)
(-583.634 2361.134 15804.37)
(-1152.068 38145.49 2129.753)
(-1819.853 29882.91 2031.539)
(-941.8159 33570.31 6718.839)
(-1389.757 18830.99 1829.717)
(-1534.584 20880.01 5933.135)
(-781.1331 23500.81 10758.79)
(-1064.419 10549.06 1636.233)
(-1246.926 11505.71 5230.714)
(-1346.919 12769.21 9354.977)
(-674.8618 14399.69 14182.63)
(-855.6653 5148.087 1488.504)
(-1000.56 5549.116 4715.221)
(-1162.869 6054.032 8329.272)
(-1235.468 6723.166 12510.39)
(-611.3951 7593.112 16088.74)
(-720.5634 1492.516 1381.194)
(-831.9335 1595.65 4349.908)
(-970.3015 1719.649 7621.968)
(-1122.589 1875.953 11323.39)
(-1181.574 2083.523 14474.28)
(-796.6507 3230.052 20768.48)
(-1356.792 34344.32 2048.018)
(-2194.858 34005.46 1878.877)
(-1151.064 38154.56 6277.828)
(-1608.98 26979.58 1846.507)
(-1818.14 29888 6006.871)
(-939.9412 33578.47 10983.84)
(-1173.684 17275.29 1690.927)
(-1388.496 18827.84 5415.384)
(-1531.519 20872.29 9714.468)
(-778.6557 23484.4 14825.6)
(-906.4327 9788.115 1527.895)
(-1063.46 10545.13 4844.637)
(-1244.631 11496.93 8569.712)
(-1342.827 12753.93 12899.01)
(-671.9553 14373.98 16662.69)
(-739.8116 4814.326 1399.312)
(-854.8913 5145.723 4408.668)
(-998.7752 5543.956 7728.935)
(-1159.674 6045.409 11490.24)
(-1230.472 6709.899 14703.12)
(-834.5658 10389.03 21168.43)
(-632.3676 1403.956 1304.586)
(-719.9066 1491.791 4092.323)
(-830.4604 1594.087 7133.807)
(-967.7478 1717.09 10519.66)
(-1118.519 1872.151 13313.34)
(-1613.399 2850.901 19022.88)
(-793.4299 3222.129 19266.27)
(-1523.304 26059.86 2022.9)
(-2562.582 30631.96 1787.12)
(-1355.749 34348.59 6028.549)
(-1901.031 30718.2 1700.736)
(-2193.142 34015.23 5545.924)
(-1149.14 38173.1 10237.02)
(-1343.51 24770.16 1703.139)
(-1607.667 26984.74 5464.167)
(-1814.835 29898.4 9832.804)
(-937.2118 33591.19 15131.73)
(-994.7874 16040.08 1577.273)
(-1172.674 17272.61 5007.656)
(-1386.055 18821.65 8874.773)
(-1527.048 20860.9 13398.16)
(-775.4233 23462.84 17421.68)
(-782.4042 9157.835 1435.541)
(-905.6299 9784.564 4526.196)
(-1061.601 10537.36 7943.024)
(-1241.278 11483.89 11824.54)
(-1337.487 12733.7 15162.54)
(-917.2953 19675.02 21976.57)
(-648.9495 4529.678 1321.406)
(-739.1432 4812.152 4146.391)
(-853.39 5141.035 7231.041)
(-996.1671 5536.274 10668.43)
(-1155.501 6033.986 13510.63)
(-1680.213 9182.585 19347.78)
(-831.2021 10365.09 19690.2)
(-562.5441 1326.697 1236.464)
(-631.7887 1403.283 3866.934)
(-718.6315 1490.353 6715.168)
(-828.3063 1591.76 9851.072)
(-964.4122 1713.699 12373.63)
(-1528.027 2561.913 17498.63)
(-1607.365 2844.407 17643.89)
(-790.1611 3213.095 19517.35)
(-1637.87 16018.17 2018.916)
(-2862.261 23249.08 1752.264)
(-1522.221 26061.02 5950.689)
(-2188.342 27670.29 1611.74)
(-2560.837 30637.02 5268.888)
(-1353.754 34357.4 9813.619)
(-1570.46 28211.83 1565.244)
(-1899.777 30727.59 5024.852)
(-2189.846 34034.98 9058.158)
(-1146.349 38201.37 14072.18)
(-1132.463 23011.82 1586.624)
(-1342.47 24775.19 5043.141)
(-1605.125 26995.2 8953.133)
(-1810.017 29914.25 13559.44)
(-933.6521 33608.61 17779.8)
(-856.6657 15014.99 1480.781)
(-993.9468 16037.73 4673.489)
(-1170.716 17267.35 8212.686)
(-1382.489 18812.5 12248.83)
(-1521.212 20845.87 15753.05)
(-1058.717 32145.9 23040.18)
(-685.6804 8619.573 1355.044)
(-781.7128 9154.576 4254.541)
(-904.0723 9777.522 7425.628)
(-1058.884 10525.78 10966.37)
(-1236.9 11466.59 13906.21)
(-1826.47 17433.51 20001.26)
(-913.6375 19638.02 20548.22)
(-577.1233 4281.198 1252.185)
(-648.361 4527.66 3917.149)
(-737.8455 4807.837 6804.696)
(-851.1943 5134.05 9986.393)
(-992.7598 5526.088 12549.65)
(-1578.596 8258.324 17780.01)
(-1673.951 9163.012 17993.78)
(-827.7801 10337.75 19996.86)
(-506.2752 1258.164 1175.162)
(-562.0264 1326.068 3666.385)
(-630.6638 1401.947 6348.563)
(-716.7656 1488.21 9277.328)
(-825.491 1588.674 11591.61)
(-1317.752 2345.211 16265)
(-1522.937 2556.266 16226.13)
(-1601.239 2836.905 17870.97)
(-786.8444 3202.948 19767.68)
(-1695.818 5384.891 2019.466)
(-3068.808 14293.03 1741.501)
(-1636.761 16018.31 5937.343)
(-2423.035 20997.6 1576.297)
(-2860.474 23250.9 5163.391)
(-1520.154 26063.5 9679.057)
(-1793.784 25411.92 1480.491)
(-2187.116 27675.27 4756.823)
(-2557.495 30647.26 8592.927)
(-1350.866 34370.91 13471.02)
(-1316.781 26215.45 1456.047)
(-1569.481 28220.74 4627.942)
(-1897.359 30746.49 8216.458)
(-2185.06 34064.83 12466.58)
(-1142.718 38239.53 16507.11)
(-972.5924 21550.23 1488.173)
(-1131.603 23016.67 4700.66)
(-1340.456 24785.35 8269.727)
(-1601.414 27011.07 12355.8)
(-1803.731 29935.66 15942.17)
(-1275.238 46118.08 23496.77)
(-749.8133 14138.2 1396.928)
(-855.9443 15012.88 4389.577)
(-992.3151 16033.1 7669.517)
(-1167.853 17259.54 11341.83)
(-1377.829 18800.4 14408.72)
(-2077.709 28566.47 20839.03)
(-1054.633 32116.8 21667.5)
(-609.4449 8149.197 1283.636)
(-685.0728 8616.552 4017.61)
(-780.3699 9148.107 6983.875)
(-901.7933 9767.025 10257.37)
(-1055.333 10510.42 12902.42)
(-1689.926 15700.06 18345.36)
(-1819.743 17403.71 18699.55)
(-909.9007 19595.93 20968.87)
(-519.2878 4060.67 1189.935)
(-576.5974 4279.311 3713.339)
(-647.2173 4523.651 6431.755)
(-735.9461 4801.404 9401.99)
(-848.3242 5124.783 11751.8)
(-1356.524 7563.596 16516.78)
(-1573.364 8241.312 16531.41)
(-1667.578 9140.359 18271.32)
(-824.2999 10307.03 20302.76)
(-460.0999 1196.571 1119.458)
(-505.8072 1257.573 3485.811)
(-561.0196 1324.819 6022.116)
(-629.0165 1399.956 8774.583)
(-714.3256 1485.367 10920.26)
(-1127.99 2174.198 15238.55)
(-1313.582 2340.144 15079.26)
(-1517.769 2549.701 16431.21)
(-1595.021 2828.393 18097.42)
(-783.4801 3191.691 29172.51)
(-1695.818 -5384.891 2019.466)
(-3173.403 4805.415 1738.732)
(-1694.695 5384.869 5938.378)
(-2585.11 12906.74 1564.265)
(-3066.989 14293.57 5130.642)
(-1634.644 16018.66 9654.15)
(-1976.123 19281.4 1446.044)
(-2421.81 20999.5 4650.026)
(-2857.058 23254.61 8415.317)
(-1517.166 26067.4 13277.77)
(-1498.141 23613.66 1375.501)
(-1792.839 25416.69 4372.977)
(-2184.759 27685.28 7767.646)
(-2552.653 30662.74 11811.39)
(-1347.115 34389.18 15786)
(-1127.996 24555.05 1364.233)
(-1315.977 26223.9 4307.713)
(-1567.591 28238.64 7574.246)
(-1893.841 30775.01 11318.26)
(-2178.83 34104.9 14634.05)
(-1561.86 52499.82 21523.5)
(-850.0728 20298.52 1402.911)
(-971.8575 21554.89 4411.051)
(-1129.934 23026.45 7713.221)
(-1337.511 24800.73 11419.84)
(-1596.567 27032.42 14534.49)
(-2464.506 41086.65 21078.32)
(-1270.763 46152.47 22063.7)
(-665.9443 13371.06 1322.705)
(-749.181 14136.29 4142.69)
(-854.5425 15008.73 7207.642)
(-989.9267 16026.23 10597.23)
(-1164.11 17249.21 13347.45)
(-1882.788 25765.53 19062.43)
(-2070.322 28545.55 19599.87)
(-1050.446 32085.28 22229.86)
(-548.1566 7731.363 1219.497)
(-608.9027 8146.376 3807.3)
(-683.8914 8610.552 6598.283)
(-778.4035 9138.458 9651.645)
(-898.8134 9753.088 12072.8)
(-1442.126 14391.59 17022.49)
(-1684.405 15674.31 17146.77)
(-1812.864 17369.27 19080.76)
(-906.085 19548.7 21389.09)
(-471.8499 3862.385 1133.399)
(-518.8127 4058.897 3529.947)
(-575.5745 4275.562 6099.941)
(-645.542 4517.671 8890.474)
(-733.4618 4792.865 11067.89)
(-1159.224 7014.586 15468.18)
(-1352.252 7548.335 15353.72)
(-1568.036 8221.499 16782.34)
(-1661.093 9114.62 18548.19)
(-820.7618 10272.9 30044.22)
(-421.5054 1140.665 1068.453)
(-459.6731 1196.013 3321.639)
(-504.8963 1256.399 5727.973)
(-559.544 1322.955 8326.642)
(-626.8611 1397.312 10331.75)
(-976.0815 2032.876 14357.44)
(-1124.472 2169.568 14125.62)
(-1309.35 2334.232 15267.07)
(-1512.522 2542.22 16635.72)
(-1588.711 2818.874 26703.04)
(-373.8279 1530.915 20281.36)
(-1637.87 -16018.17 2018.916)
(-3173.403 -4805.415 1738.732)
(-1694.695 -5384.869 5938.378)
(-2667.298 4338.932 1560.702)
(-3171.568 4805.526 5122.151)
(-1692.553 5384.849 9654.701)
(-2101.976 11850.4 1433.908)
(-2583.88 12907.37 4613.738)
(-3063.513 14294.68 8359.863)
(-1631.584 16019.28 13240.22)
(-1646.132 17915.68 1342.394)
(-1975.187 19283.26 4269.369)
(-2419.459 21003.33 7588.772)
(-2852.113 23260.22 11560.94)
(-1513.287 26072.74 15552.88)
(-1280.902 22118.41 1287.612)
(-1497.369 23618.21 4065.56)
(-1791.019 25426.27 7147.874)
(-2181.336 27700.37 10687.56)
(-2546.362 30683.49 13851.88)
(-1842.006 47189.59 20398.03)
(-984.6119 23132.36 1285.003)
(-1127.311 24563.07 4038.219)
(-1314.422 26240.86 7055.449)
(-1564.837 28265.61 10441.15)
(-1889.258 30813.22 13293.96)
(-2979.027 46832.15 19092.61)
(-1557.432 52566.73 19641.22)
(-754.3719 19202.25 1327.632)
(-849.4307 20303 4160.068)
(-970.43 21564.29 7242.202)
(-1127.493 23041.23 10657.11)
(-1333.661 24821.38 13439.42)
(-2182.496 37104.91 19220.24)
(-2456.582 41124.48 19803.43)
(-1266.197 46199.13 22608.76)
(-598.6679 12688.93 1256.153)
(-665.3812 13369.3 3924.024)
(-747.9511 14132.5 6805.68)
(-852.489 15002.55 9963.66)
(-986.8024 16017.12 12475.87)
(-1591.024 23640.77 17659.89)
(-1876.878 25748.41 17924.73)
(-2062.738 28522.31 20110.82)
(-1046.157 32051.21 22793.66)
(-497.9329 7355.397 1161.303)
(-547.6672 7728.714 3618.294)
(-607.8477 8140.769 6255.762)
(-682.1603 8601.595 9122.604)
(-775.8308 9125.641 11363.74)
(-1228.304 13355.06 15929.38)
(-1437.649 14368.57 15906.85)
(-1678.755 15644.33 17491.99)
(-1805.835 17330.13 19461.62)
(-902.1907 19496.29 31817.29)
(-432.2122 3682.341 1081.653)
(-471.4168 3860.711 3363.298)
(-517.8877 4055.371 5801.156)
(-574.075 4269.965 8435.095)
(-643.3497 4509.731 10469.03)
(-1002.261 6560.454 14569.43)
(-1155.627 7000.641 14376.79)
(-1347.905 7530.493 15583.79)
(-1562.614 8198.881 17032.7)
(-1654.498 9085.791 27443.51)
(-391.5029 4939.378 21023.64)
(-388.7118 1089.503 1021.45)
(-421.1134 1140.137 3171.235)
(-458.8416 1194.904 5460.368)
(-503.5602 1254.646 7922.796)
(-557.6124 1320.48 9807.17)
(-856.5451 1912.408 13585.06)
(-973.0326 2028.595 13307.45)
(-1120.903 2164.151 14299.64)
(-1305.056 2327.475 15454.37)
(-1507.197 2533.822 24540.2)
(-760.7516 1354.165 18557.95)
(-337.4587 1352.059 21863.87)
(-1523.304 -26059.86 2022.9)
(-3068.808 -14293.03 1741.501)
(-1636.761 -16018.31 5937.343)
(-2667.298 -4338.932 1560.702)
(-3171.568 -4805.526 5122.151)
(-1692.553 -5384.849 9654.701)
(-2165.773 3983.542 1430.142)
(-2666.063 4339.075 4602.986)
(-3168.062 4805.755 8345.357)
(-1689.458 5384.847 13239.8)
(-1748.22 11010.24 1330.502)
(-2101.041 11851.04 4232.879)
(-2581.519 12908.62 7527.938)
(-3058.484 14296.37 11482.44)
(-1627.612 16020.18 15506.39)
(-1405.627 16780.61 1255.897)
(-1645.372 17917.48 3966.077)
(-1973.387 19287 6974.704)
(-2416.048 21009.09 10436.28)
(-2845.692 23267.76 13552.88)
(-2069.714 35764.91 20019.18)
(-1116.995 20837.35 1212.007)
(-1280.248 22122.74 3807.962)
(-1495.881 23627.33 6650.811)
(-1788.372 25440.67 9842.595)
(-2176.884 27720.56 12542.06)
(-3482.986 42111.06 17908.19)
(-1837.513 47222.48 18245.77)
(-873.1313 21885.82 1215.234)
(-984.0159 23139.99 3805.477)
(-1125.987 24579.17 6618.384)
(-1312.153 26266.39 9731.969)
(-1561.246 28301.73 12269.94)
(-2584.299 42315.02 17348.95)
(-2971.412 46899.24 17436.53)
(-1553.042 52652.54 19588.28)
(-677.7978 18226.65 1260.269)
(-753.8013 19206.54 3938.334)
(-848.182 20312.01 6833.666)
(-968.3393 21578.46 10011.1)
(-1124.299 23061.06 12546.67)
(-1823.396 34071.54 17774.34)
(-2176.362 37141.57 18055.93)
(-2448.475 41173.18 20302.66)
(-1261.539 46258.13 23159.29)
(-543.6065 12074.65 1195.851)
(-598.1604 12687.3 3727.847)
(-664.2849 13365.82 6449.403)
(-746.1481 14126.87 9411.941)
(-849.8014 14994.35 11733.97)
(-1348.763 21952.83 16508.23)
(-1586.277 23625.98 16602.49)
(-1870.798 25729.17 18388.12)
(-2054.955 28496.67 20623.1)
(-1041.764 32014.47 34105.68)
(-455.9915 7013.797 1108.083)
(-497.4872 7352.899 3446.711)
(-546.7142 7723.447 5947.722)
(-606.3005 8132.397 8652.38)
(-679.8943 8589.693 10744.21)
(-1060.236 12496.2 14995.25)
(-1224.549 13334.06 14883.03)
(-1433.071 14341.64 16223.85)
(-1672.977 15610.08 17836.91)
(-1798.656 17286.27 28947.61)
(-430.2382 9445.51 22552.39)
(-398.5417 3517.524 1033.984)
(-431.8145 3680.756 3210.69)
(-470.5729 3857.382 5529.467)
(-516.5308 4050.107 8024.812)
(-572.1118 4262.532 9935.678)
(-879.1038 6173.037 13782.48)
(-999.1477 6547.559 13539.96)
(-1151.969 6984.29 14590.19)
(-1343.483 7510.064 15813.35)
(-1557.097 8173.451 25194.69)
(-792.042 4375.275 19197.65)
(-352.787 4389.28 22890.78)
(-360.4112 1042.366 977.9115)
(-388.3497 1089.002 3032.563)
(-420.3491 1139.086 5215.047)
(-457.6214 1193.249 7555.181)
(-501.8104 1252.318 9334.04)
(-761.9015 1807.289 12896.58)
(-853.8518 1908.417 12590.55)
(-969.9413 2023.575 13470.07)
(-1117.284 2157.946 14473.2)
(-1300.7 2319.873 22793.05)
(-725.2326 1218.011 17045.47)
(-692.4138 1198.776 19996.9)
(-299.149 1120.152 22827.29)
(-1356.792 -34344.32 2048.018)
(-2862.261 -23249.08 1752.264)
(-1522.221 -26061.02 5950.689)
(-2585.11 -12906.74 1564.265)
(-3066.989 -14293.57 5130.642)
(-1634.644 -16018.66 9654.15)
(-2165.773 -3983.542 1430.142)
(-2666.063 -4339.075 4602.986)
(-3168.062 -4805.755 8345.357)
(-1689.458 -5384.847 13239.8)
(-1799.948 3700.966 1326.727)
(-2164.837 3983.692 4221.566)
(-2663.695 4339.362 7509.901)
(-3162.989 4806.106 11461.77)
(-1685.441 5384.866 15505.09)
(-1491.63 10312.24 1244.37)
(-1747.461 11010.87 3930.37)
(-2099.243 11852.31 6913.746)
(-2578.095 12910.52 10350.79)
(-3051.955 14298.64 13458.97)
(-2226.369 21971.92 19932.26)
(-1224.956 15808.4 1181.649)
(-1404.984 16782.34 3712.714)
(-1643.906 17921.09 6484.723)
(-1970.771 19292.63 9599.723)
(-2411.614 21016.8 12242.79)
(-3893.311 31921.29 17452.37)
(-2065.098 35775.53 17751.02)
(-989.9966 19714.97 1145.581)
(-1116.427 20841.48 3586.176)
(-1278.984 22131.43 6233.816)
(-1493.713 23641.04 9164.265)
(-1784.926 25459.92 11556.85)
(-2978.956 38046.75 16219.7)
(-3475.44 42145.82 16028.25)
(-1833.136 47265.2 17842.32)
(-784.1424 20776.11 1152.931)
(-872.603 21893.11 3600.381)
(-982.8606 23155.31 6240.562)
(-1124.052 24603.41 9134.041)
(-1309.193 26300.57 11441.6)
(-2135.901 38867.54 16015.9)
(-2578.675 42378.15 15845.37)
(-2963.843 46983.15 17402.51)
(-1548.689 52757.39 19533.34)
(-615.2143 17347.5 1199.326)
(-677.2846 18230.78 3739.797)
(-752.6908 19215.19 6472.463)
(-846.3517 20325.6 9450.436)
(-965.6033 21597.47 11790.24)
(-1537.229 31656.14 16595.6)
(-1818.522 34106.51 16695.38)
(-2170.064 37188.08 18509.41)
(-2440.184 41232.81 20806.82)
(-1256.787 46329.55 34623.72)
(-497.6599 11516.12 1140.764)
(-543.1449 12073.13 3549.994)
(-597.1717 12684.07 6129.545)
(-662.6767 13360.63 8922.643)
(-743.7871 14119.39 11087.65)
(-1161.512 20551.53 15528.05)
(-1344.802 21939.68 15517.47)
(-1581.395 23609.23 17028.52)
(-1864.549 25707.72 18852.75)
(-2046.974 28468.5 30861.62)
(-497.2773 15799.56 24575.33)
(-420.383 6700.919 1059.088)
(-455.5827 7011.432 3289.713)
(-496.6185 7347.929 5667.893)
(-545.3157 7715.578 8229.254)
(-604.2743 8121.267 10193.32)
(-929.1135 11762.54 14179.09)
(-1056.995 12476.82 14008.65)
(-1220.712 13309.43 15177.42)
(-1428.391 14310.78 16540.59)
(-1667.071 15571.53 26524.05)
(-860.8462 8387.765 20515.11)
(-386.6695 8575.084 25071.82)
(-369.4907 3365.629 989.8412)
(-398.1745 3516.018 3070.036)
(-431.0391 3677.602 5280.509)
(-469.3342 3852.41 7651.53)
(-514.7534 4043.112 9454.947)
(-781.7399 5834.769 13081.59)
(-876.3569 6161.012 12807.54)
(-995.9835 6532.406 13739.54)
(-1148.25 6965.53 14803.11)
(-1338.987 7487.044 23386.23)
(-749.0899 3938.432 17614.49)
(-719.6885 3897.173 20894.31)
(-311.6444 3656.197 24104.62)
(-335.6898 998.7081 937.4112)
(-360.075 1041.889 2904.052)
(-387.6431 1088.004 4988.724)
(-419.2268 1137.518 7217.998)
(-456.0224 1191.05 8903.184)
(-685.6379 1714.025 12275.58)
(-759.4877 1803.544 11951.72)
(-851.1221 1903.728 12743.45)
(-966.8078 2017.816 13632.26)
(-1113.614 2150.954 21342.87)
(-627.1581 1115.592 15824.92)
(-667.4855 1079.311 18353.07)
(-620.3198 995.1985 20872.91)
(-259.2834 841.1267 23589.46)
(-1152.068 -38145.49 2129.753)
(-2562.582 -30631.96 1787.12)
(-1355.749 -34348.59 6028.549)
(-2423.035 -20997.6 1576.297)
(-2860.474 -23250.9 5163.391)
(-1520.154 -26063.5 9679.057)
(-2101.976 -11850.4 1433.908)
(-2583.88 -12907.37 4613.738)
(-3063.513 -14294.68 8359.863)
(-1631.584 -16019.28 13240.22)
(-1799.948 -3700.966 1326.727)
(-2164.837 -3983.692 4221.566)
(-2663.695 -4339.362 7509.901)
(-3162.989 -4806.106 11461.77)
(-1685.441 -5384.866 15505.09)
(-1535.197 3466.259 1240.661)
(-1799.19 3701.117 3919.048)
(-2163.037 3983.994 6894.865)
(-2660.261 4339.796 10325.44)
(-3156.404 4806.581 13434.17)
(-2305.61 7385.004 19922.55)
(-1299.38 9714.545 1170.531)
(-1490.99 10312.85 3678.13)
(-1746.001 11012.12 6425.172)
(-2096.63 11854.23 9514.284)
(-2573.647 12913.06 12140.98)
(-4176.031 19612.96 17307.04)
(-2221.653 21974.4 17619.42)
(-1085.289 14956.76 1116.518)
(-1224.398 15810.06 3495.039)
(-1403.743 16785.8 6074.905)
(-1641.773 17926.51 8931.529)
(-1967.368 19300.13 11267.89)
(-3300.902 28834.47 15770.01)
(-3885.667 31934.12 15480.84)
(-2060.633 35789.97 17206.4)
(-888.7997 18715.77 1086.37)
(-989.494 19718.91 3391.168)
(-1115.328 20849.76 5874.42)
(-1277.142 22144.48 8594.711)
(-1490.889 23659.34 10765.55)
(-2442.879 34945.04 14949.24)
(-2973.605 38079.93 14518.49)
(-3468.077 42189.29 15683.12)
(-1828.876 47317.75 17437.13)
(-711.504 19775.81 1096.66)
(-783.6681 20783.07 3417.112)
(-871.5779 21907.71 5907.329)
(-981.1717 23178.36 8616.782)
(-1121.526 24635.83 10742.87)
(-1791.147 36120.19 14937.38)
(-2131.491 38926.81 14627.75)
(-2573.064 42456.52 15815.63)
(-2956.321 47084.02 17366.6)
(-1544.375 52881.43 28315.36)
(-563.0324 16547.67 1143.726)
(-614.7481 17351.47 3560.082)
(-676.2848 18239.08 6148.816)
(-751.0619 19228.23 8954.431)
(-843.9553 20343.81 11133.47)
(-1320.256 29647.69 15596.9)
(-1533.186 31689.43 15586.62)
(-1813.519 34150.53 17112.6)
(-2163.601 37244.47 18967.39)
(-2431.708 41303.44 31122.83)
(-602.9507 23605.32 25059.08)
(-458.6774 11004.24 1090.097)
(-497.2369 11514.69 3387.441)
(-542.2449 12070.12 5839.372)
(-595.7203 12679.26 8483.114)
(-660.5696 13353.74 10514.23)
(-1016.598 19352.64 14674.19)
(-1158.106 20539.61 14594.56)
(-1340.731 21924.69 15913.5)
(-1576.379 23590.43 17455.71)
(-1858.129 25683.95 28206.19)
(-980.5407 14072.43 22244.26)
(-446.9523 15174.47 28204.57)
(-389.6722 6412.44 1013.742)
(-420.0056 6698.675 3145.111)
(-454.7851 7006.727 5411.687)
(-495.3431 7340.502 7844.668)
(-543.4834 7705.115 9697.419)
(-825.7554 11121.26 13453.37)
(-926.259 11744.48 13245.05)
(-1053.685 12454.02 14284.25)
(-1216.791 13281.13 15471.58)
(-1423.61 14275.95 24591.18)
(-801.8568 7560.522 18786.79)
(-780.1888 7633.431 22802.98)
(-339.4844 7319.991 26942.19)
(-344.1174 3224.913 948.7888)
(-369.1499 3364.196 2939.725)
(-397.4579 3513.022 5050.911)
(-429.9003 3672.89 7309.298)
(-467.7108 3845.803 9017.398)
(-703.3477 5534.498 12449.82)
(-779.2799 5823.487 12155.45)
(-873.5657 6146.857 12995.32)
(-992.7682 6514.992 13938.67)
(-1144.47 6944.355 21888.92)
(-645.4953 3609.033 16342.64)
(-688.45 3511.53 19156.13)
(-642.6561 3252.843 21997.8)
(-268.5142 2743.319 25072.2)
(-313.9025 958.0899 899.5916)
(-335.3765 998.253 2784.456)
(-359.4187 1040.939 4778.858)
(-386.6049 1086.514 6906.767)
(-417.7555 1135.434 8507.843)
(-623.0628 1630.191 11710.03)
(-683.4509 1710.495 11375.65)
(-757.0419 1799.139 12096.16)
(-848.3562 1898.342 12895.95)
(-963.6323 2011.319 20100.62)
(-537.2811 1034.639 14813.24)
(-580.036 989.1314 17028.19)
(-606.4842 896.7893 19146.65)
(-545.188 748.8185 21568.57)
(-218.3131 527.0588 16474.29)
(-942.7891 -33566.45 2274.841)
(-2194.858 -34005.46 1878.877)
(-1151.064 -38154.56 6277.828)
(-2188.342 -27670.29 1611.74)
(-2560.837 -30637.02 5268.888)
(-1353.754 -34357.4 9813.619)
(-1976.123 -19281.4 1446.044)
(-2421.81 -20999.5 4650.026)
(-2857.058 -23254.61 8415.317)
(-1517.166 -26067.4 13277.77)
(-1748.22 -11010.24 1330.502)
(-2101.041 -11851.04 4232.879)
(-2581.519 -12908.62 7527.938)
(-3058.484 -14296.37 11482.44)
(-1627.612 -16020.18 15506.39)
(-1535.197 -3466.259 1240.661)
(-1799.19 -3701.117 3919.048)
(-2163.037 -3983.994 6894.865)
(-2660.261 -4339.796 10325.44)
(-3156.404 -4806.581 13434.17)
(-2305.61 -7385.004 19922.55)
(-1337.075 3265.304 1166.924)
(-1534.557 3466.407 3667.02)
(-1797.73 3701.419 6406.319)
(-2160.423 3984.448 9487.843)
(-2655.8 4340.376 12110.78)
(-4319.194 6592.592 17267.84)
(-2300.843 7385.348 17594.66)
(-1150.969 9191.058 1105.817)
(-1298.826 9715.134 3461.696)
(-1489.756 10314.07 6017.281)
(-1743.876 11014 8848.171)
(-2093.233 11856.79 11166.31)
(-3523.097 17713.1 15616.74)
(-4168.277 19616.95 15302.65)
(-2217.102 21978.18 17025.27)
(-974.1304 14198.67 1058.53)
(-1084.796 14958.35 3303.939)
(-1223.321 15813.38 5722.436)
(-1401.935 16791 8372.154)
(-1638.995 17933.73 10488.81)
(-2693.15 26479.88 14517.86)
(-3295.618 28847.16 13989.44)
(-3878.265 31950.31 15011.49)
(-2056.318 35808.21 16661.08)
(-806.2742 17815.09 1032.966)
(-888.3493 18719.55 3217.216)
(-988.5207 19726.82 5558.119)
(-1113.724 20862.21 8103.437)
(-1274.741 22161.9 10100.79)
(-2040.533 32474.26 13928.6)
(-2438.734 34976.39 13381.71)
(-2968.37 38120.99 14207.27)
(-3460.899 42241.46 15336.29)
(-1824.733 47380.09 24677.89)
(-650.9802 18865.51 1045.396)
(-711.0739 19782.46 3251.483)
(-782.7468 20797.01 5609.319)
(-870.0781 21929.68 8160.253)
(-978.9654 23209.19 10138.13)
(-1534.406 33834.5 14027.51)
(-1787.511 36176.03 13642.53)
(-2127.09 39000.09 14600.2)
(-2567.466 42550.24 15784.16)
(-2948.847 47201.97 25196.01)
(-749.739 27193.65 18777.9)
(-518.7903 15814.3 1092.644)
(-562.6056 16551.49 3396.04)
(-613.8392 17359.44 5855.652)
(-674.8173 18251.59 8509.739)
(-748.928 19245.69 10552.2)
(-1153.919 27927.2 14729.75)
(-1316.793 29679.41 14647.6)
(-1529.038 31731.14 15974.66)
(-1808.383 34203.64 17533.98)
(-2156.972 37310.82 28368.68)
(-1170.36 21080.71 22552.09)
(-548.9311 25123.3 29530.52)
(-425.0742 10532.05 1043.238)
(-458.2873 11002.9 3237.86)
(-496.4114 11511.87 5573.995)
(-540.9227 12065.62 8084.161)
(-593.8178 12672.85 9998.932)
(-902.8413 18303.47 13916.63)
(-1013.605 19341.71 13790.94)
(-1154.606 20525.97 14965.59)
(-1336.55 21907.79 16310.61)
(-1571.227 23569.49 26110.97)
(-894.4623 12704.42 20320.43)
(-888.429 13551.86 25539.64)
(-390.6799 14016.08 31589.84)
(-362.8562 6145.084 971.59)
(-389.3223 6410.304 3011.214)
(-419.269 6694.206 5175.566)
(-453.6134 6999.693 7492.366)
(-493.671 7330.624 9246.509)
(-742.6676 10551.52 12800.06)
(-823.2028 11104.34 12566.31)
(-923.3442 11723.2 13504.56)
(-1050.304 12427.78 14559.62)
(-1212.788 13249.13 22998.33)
(-686.1706 6934.041 17409.56)
(-735.2327 6887.679 20865.53)
(-692.5946 6529.636 24502.55)
(-289.0838 5580.996 28526.86)
(-321.7582 3093.965 910.4618)
(-343.7999 3223.546 2818.482)
(-368.4845 3361.342 4838.072)
(-396.4047 3508.545 6993.519)
(-428.4071 3666.627 8616.09)
(-639.0566 5264.472 11874.76)
(-701.1202 5523.861 11567.82)
(-776.781 5810.186 12332.93)
(-870.7304 6130.568 13182.68)
(-989.5018 6495.312 20608.42)
(-552.0733 3348.307 15291.15)
(-596.1944 3219.701 17761.49)
(-623.7769 2933.449 20156.58)
(-561.7671 2445.314 22880.09)
(-223.9599 1681.24 17565.88)
(-294.5354 920.1517 864.1521)
(-313.6095 957.6551 2672.726)
(-334.7645 997.347 4583.441)
(-358.4539 1039.52 6618.026)
(-385.2432 1084.534 8142.792)
(-570.7683 1554.087 11191.04)
(-621.064 1626.851 10851.11)
(-681.2355 1706.338 11512.6)
(-754.5643 1794.074 12240.22)
(-845.554 1892.259 19013.4)
(-464.9247 967.6699 13947.68)
(-497.6937 917.727 15932.13)
(-530.3203 822.2713 17756.16)
(-542.8157 675.336 19778.09)
(-467.8648 470.591 15063.99)
(-1594.081 2604.723 52242.85)
(-783.7143 -23517.74 2226.471)
(-1819.853 -29882.91 2031.539)
(-941.8159 -33570.31 6718.839)
(-1901.031 -30718.2 1700.736)
(-2193.142 -34015.23 5545.924)
(-1149.14 -38173.1 10237.02)
(-1793.784 -25411.92 1480.491)
(-2187.116 -27675.27 4756.823)
(-2557.495 -30647.26 8592.927)
(-1350.866 -34370.91 13471.02)
(-1646.132 -17915.68 1342.394)
(-1975.187 -19283.26 4269.369)
(-2419.459 -21003.33 7588.772)
(-2852.113 -23260.22 11560.94)
(-1513.287 -26072.74 15552.88)
(-1491.63 -10312.24 1244.37)
(-1747.461 -11010.87 3930.37)
(-2099.243 -11852.31 6913.746)
(-2578.095 -12910.52 10350.79)
(-3051.955 -14298.64 13458.97)
(-2226.369 -21971.92 19932.26)
(-1337.075 -3265.304 1166.924)
(-1534.557 -3466.407 3667.02)
(-1797.73 -3701.419 6406.319)
(-2160.423 -3984.448 9487.843)
(-2655.8 -4340.376 12110.78)
(-4319.194 -6592.592 17267.84)
(-2300.843 -7385.347 17594.66)
(-1184.231 3089.317 1102.327)
(-1336.521 3265.448 3450.897)
(-1533.324 3466.703 5998.802)
(-1795.606 3701.871 8821.815)
(-2157.023 3985.052 11134.9)
(-3635.745 5953.377 15571.25)
(-4311.378 6593.451 15253.22)
(-2296.244 7385.994 16985.42)
(-1032.938 8725.126 1048.241)
(-1150.48 9191.626 3271.859)
(-1297.755 9716.31 5666.912)
(-1487.957 10315.9 8291.551)
(-1741.11 11016.51 10389.79)
(-2865.772 16264.53 14366.63)
(-3517.811 17717.29 13808.63)
(-4160.788 19622.06 14790.32)
(-2212.713 21983.24 16430.93)
(-883.5396 13515.37 1006.278)
(-973.6895 14200.2 3133.674)
(-1083.843 14961.53 5412.698)
(-1221.75 15818.36 7890.658)
(-1399.579 16797.93 9836.259)
(-2243.72 24605.54 13517.02)
(-2689.093 26492.06 12879.02)
(-3290.495 28862.86 13566.19)
(-3871.106 31969.83 14541.41)
(-2052.154 35830.22 23315.66)
(-737.5473 16995.42 984.3715)
(-805.8662 17818.7 3060.222)
(-887.4759 18727.11 5275.726)
(-987.0993 19738.7 7670.75)
(-1111.632 20878.81 9527.108)
(-1744.716 30419.3 13071)
(-2037.135 32503.92 12468.3)
(-2434.678 35014.99 13095.28)
(-2963.253 38169.9 13894.51)
(-3453.907 42302.3 21720.45)
(-891.2285 24068.57 15354.37)
(-599.6952 18030.66 998.3538)
(-650.587 18871.88 3100.505)
(-710.2376 19795.8 5339.788)
(-781.3979 20817.99 7751.712)
(-868.1176 21959.06 9604.136)
(-1339.36 31875.59 13239.88)
(-1531.303 33887.32 12811.42)
(-1783.882 36244.92 13616.66)
(-2122.696 39087.5 14571.04)
(-2561.882 42659.44 22902.1)
(-1435.433 24310.87 16742.29)
(-709.1301 29706.56 18458)
(-480.6736 15137.5 1045.441)
(-518.3972 15817.97 3245.25)
(-561.773 16559.15 5587.884)
(-612.5044 17371.45 8106.711)
(-672.8939 18268.33 10030.85)
(-1023.979 26420.07 13962.25)
(-1150.886 27957.46 13832.51)
(-1313.239 29719.02 15011.28)
(-1524.781 31781.3 16366.56)
(-1803.115 34265.91 26221.41)
(-1042.8 19056.4 20551.57)
(-1072.776 22501.52 26619.62)
(-486.5146 27503.95 35445.01)
(-395.742 10094.23 999.7084)
(-424.7126 10530.78 3099.457)
(-457.5254 11000.24 5329.65)
(-495.198 11507.64 7719.112)
(-539.1889 12059.63 9531.023)
(-811.5943 17370.41 13235.82)
(-900.1706 18293.34 13078.19)
(-1010.532 19329.14 14140.52)
(-1151.014 20510.53 15337.63)
(-1332.259 21888.89 24394.65)
(-757.8541 11663 18802.81)
(-819.7172 12248.61 23314.97)
(-784.9566 12545.78 28613.15)
(-327.8845 11773.35 35106.67)
(-339.2306 5896.194 932.2527)
(-362.5303 6143.047 2886.694)
(-388.6386 6406.051 4956.798)
(-418.1861 6687.525 7167.518)
(-452.0765 6990.334 8833.292)
(-674.5873 10038.8 12205.97)
(-740.359 10535.57 11955.45)
(-820.597 11084.35 12811.74)
(-920.369 11698.67 13763.86)
(-1046.854 12398.06 21640.31)
(-584.9433 6436.935 16276.31)
(-632.3592 6320.76 19323.28)
(-662.6689 5896.986 22408.11)
(-598.8254 4987.293 25944.64)
(-236.1957 3306.202 20185.38)
(-301.8863 2971.632 874.5539)
(-321.4612 3092.658 2705.24)
(-343.1795 3220.824 4639.934)
(-367.506 3357.078 6700.644)
(-395.0232 3502.592 8245.662)
(-585.344 5019.253 11347.28)
(-637.0218 5254.406 11033.04)
(-698.858 5511.306 11736.16)
(-774.2432 5794.863 12510.02)
(-867.8511 6112.141 19489.06)
(-477.3351 3132.411 14393.07)
(-510.748 2988.298 16610.79)
(-543.6816 2690.995 18680.19)
(-555.7458 2206.945 20957.8)
(-478.0802 1502.413 16031.39)
(-1620.966 7850.943 55655.38)
(-277.1468 884.5808 830.8465)
(-294.2604 919.7356 2567.985)
(-313.0366 956.7894 4400.779)
(-333.8642 995.9933 6349.036)
(-357.1878 1037.634 7803.997)
(-526.3399 1484.434 10711.76)
(-568.9287 1550.917 10369.85)
(-619.0395 1622.914 10981.33)
(-678.9916 1701.553 11649.18)
(-752.0549 1788.347 18045.47)
(-407.8763 910.5351 13190.84)
(-430.7403 858.5891 14995.98)
(-455.993 763.1767 16607.35)
(-478.464 619.5174 18335.9)
(-477.1776 424.9045 13811.6)
(-3473.268 2335.878 47848.47)
(-1476.35 1745.669 30808.39)
(-679.4112 -14439.02 2130.905)
(-1536.171 -20883.96 2006.153)
(-782.833 -23511.99 6578.437)
(-1608.98 -26979.58 1846.507)
(-1818.14 -29888 6006.871)
(-939.9412 -33578.47 10983.84)
(-1570.46 -28211.83 1565.244)
(-1899.777 -30727.59 5024.852)
(-2189.846 -34034.98 9058.158)