/*--------------------------------*- C++ -*----------------------------------*\
| =========                 |                                                 |
| \\      /  F ield         | OpenFOAM: The Open Source CFD Toolbox           |
|  \\    /   O peration     | Version:  2306                                  |
|   \\  /    A nd           | Website:  www.openfoam.com                      |
|    \\/     M anipulation  |                                                 |
\*---------------------------------------------------------------------------*/
FoamFile
{
    version     2.0;
    format      ascii;
    arch        "LSB;label=32;scalar=64";
    class       volScalarField;
    location    "0.6/phiEA";
    object      phi;
}
// * * * * * * * * * * * * * * * * * * * * * * * * * * * * * * * * * * * * * //

dimensions      [1 2 -3 0 0 -1 0];

internalField   nonuniform List<scalar> 
20000
(
-0.00487973
-0.005015445
-0.004542445
-0.004875105
-0.005316015
-0.00466214
-0.005010739
-0.00419747
-0.004538223
-0.004866071
-0.005840532
-0.00492778
-0.005311144
-0.004304998
-0.004657852
-0.005001544
-0.003897332
-0.004193597
-0.004529963
-0.004852777
-0.006659886
-0.005392695
-0.005835443
-0.004543913
-0.004923362
-0.005301626
-0.003995745
-0.004301069
-0.004649465
-0.004988012
-0.003641498
-0.003893741
-0.004186013
-0.004517799
-0.004835316
-0.007758615
-0.00612115
-0.006654687
-0.00496272
-0.00538811
-0.005825496
-0.004214573
-0.004539873
-0.004914717
-0.005287615
-0.003732723
-0.003992105
-0.004293374
-0.004637109
-0.004970238
-0.003421507
-0.00363814
-0.003886702
-0.004174833
-0.004501811
-0.004816652
-0.008839628
-0.00710029
-0.007753747
-0.00561997
-0.006116506
-0.006644529
-0.004598549
-0.004958538
-0.005379134
-0.005810851
-0.003935674
-0.004210833
-0.004531958
-0.00490198
-0.005269208
-0.003506794
-0.00372932
-0.003984968
-0.00428203
-0.004620869
-0.004951238
-0.003229747
-0.00341835
-0.003631555
-0.003876319
-0.004160131
-0.004484715
-0.004800702
-0.009721147
-0.008064319
-0.008834947
-0.00650441
-0.007095996
-0.007744265
-0.005201732
-0.005615749
-0.00610742
-0.006629581
-0.004292043
-0.004594684
-0.004950342
-0.005365905
-0.005791608
-0.003696612
-0.003932182
-0.0042035
-0.004520285
-0.004885234
-0.005249529
-0.003309973
-0.003503595
-0.003722646
-0.003974439
-0.004267111
-0.004603502
-0.004934957
-0.003060154
-0.003226765
-0.003412153
-0.003621834
-0.003862657
-0.004144403
-0.004470106
-0.004784542
-0.01032876
-0.008850688
-0.009716523
-0.007375296
-0.008060234
-0.008825849
-0.006013987
-0.006500523
-0.007087614
-0.007730348
-0.00485225
-0.005197839
-0.005607481
-0.006094031
-0.006609942
-0.004030099
-0.004288438
-0.004587103
-0.004938253
-0.005348509
-0.00577103
-0.003488586
-0.00369333
-0.003925328
-0.004192678
-0.00450493
-0.004867322
-0.005232581
-0.003135966
-0.003306953
-0.003497316
-0.003712792
-0.003960583
-0.004251149
-0.004588623
-0.004918421
-0.002908293
-0.003057328
-0.003220908
-0.003403001
-0.003609038
-0.003848037
-0.004130966
-0.004455308
-0.004768173
-0.01063647
-0.009392837
-0.01032415
-0.008085569
-0.008846683
-0.009707545
-0.006813837
-0.007371612
-0.008052275
-0.008812516
-0.005607004
-0.006010409
-0.006492925
-0.007075291
-0.0077121
-0.004554611
-0.004848624
-0.005190205
-0.005595285
-0.006076427
-0.006588941
-0.00380252
-0.004026714
-0.004281361
-0.004575912
-0.004922345
-0.005329898
-0.005753208
-0.003304794
-0.003485489
-0.003686887
-0.003915209
-0.004178434
-0.0044885
-0.004851898
-0.005215282
-0.002980188
-0.003133103
-0.00330102
-0.003488042
-0.00369982
-0.003945754
-0.004237478
-0.004573512
-0.004901629
-0.002770854
-0.002905607
-0.003051774
-0.003212254
-0.003390948
-0.003595339
-0.003835549
-0.004117359
-0.004440321
-0.004751596
-0.01063647
-0.009667432
-0.01063186
-0.008575159
-0.009388857
-0.01031519
-0.007466096
-0.008081967
-0.008838886
-0.0096944
-0.006350276
-0.006810453
-0.007364423
-0.008040593
-0.008795058
-0.005261541
-0.005603676
-0.006003408
-0.006481742
-0.007059119
-0.007692617
-0.004296483
-0.004551209
-0.004841506
-0.005178937
-0.005579239
-0.006057592
-0.006570781
-0.003601634
-0.003799327
-0.004020065
-0.004270908
-0.004561178
-0.004905318
-0.005313778
-0.005734918
-0.003140332
-0.00330186
-0.003479403
-0.003677367
-0.003901883
-0.004163186
-0.004474354
-0.004836156
-0.005197632
-0.00283923
-0.002977468
-0.003127478
-0.003292252
-0.003475826
-0.003685931
-0.003933055
-0.004223597
-0.004558171
-0.004884583
-0.002645379
-0.002768295
-0.002900326
-0.003043563
-0.003200852
-0.003378041
-0.003583641
-0.003822904
-0.004103581
-0.004425146
-0.004575356
-0.01032876
-0.009667432
-0.01063186
-0.008823098
-0.009663458
-0.0106229
-0.007915631
-0.008571583
-0.00938111
-0.01030208
-0.006956357
-0.007462791
-0.008074941
-0.008827448
-0.009677196
-0.005957757
-0.006347132
-0.006803842
-0.007353857
-0.008025278
-0.008776434
-0.004962435
-0.005258422
-0.005597158
-0.005993096
-0.006467054
-0.007041842
-0.007676228
-0.004068855
-0.004293276
-0.004544528
-0.004830993
-0.005164103
-0.005562063
-0.006041296
-0.006552168
-0.00342198
-0.003598611
-0.003793051
-0.004010239
-0.004257139
-0.004545403
-0.004890574
-0.005297232
-0.005716158
-0.002991562
-0.003137544
-0.003296092
-0.003470407
-0.003664826
-0.003887614
-0.004150063
-0.004459922
-0.004820097
-0.005179633
-0.00271056
-0.002836639
-0.00297212
-0.003119161
-0.003280698
-0.003462744
-0.003674039
-0.003920164
-0.004209507
-0.004542599
-0.004702932
-0.002529994
-0.002642937
-0.002763262
-0.002892515
-0.003032742
-0.003188639
-0.003367019
-0.003571797
-0.003810104
-0.004089633
-0.004263833
-0.004219747
-0.009721147
-0.009392837
-0.01032415
-0.008823098
-0.009663458
-0.0106229
-0.008143262
-0.00881953
-0.009655725
-0.01060979
-0.007374029
-0.007912354
-0.008564613
-0.009369748
-0.01028493
-0.006525449
-0.006953288
-0.007456338
-0.008064621
-0.008812461
-0.00965885
-0.005618332
-0.005954813
-0.006340983
-0.006794115
-0.007339994
-0.008008931
-0.008761061
-0.004698905
-0.004959498
-0.00525231
-0.00558755
-0.005979543
-0.006451356
-0.007027298
-0.007659882
-0.003865413
-0.00406582
-0.004286974
-0.004534656
-0.004817147
-0.005148218
-0.005547205
-0.006024586
-0.006533099
-0.003259538
-0.003419109
-0.003592665
-0.003783771
-0.003997291
-0.004242392
-0.004531745
-0.004875444
-0.00528026
-0.005696928
-0.002855798
-0.002988907
-0.003132061
-0.003287561
-0.003458551
-0.003651393
-0.003875334
-0.004136675
-0.004445201
-0.00480372
-0.004986971
-0.002592251
-0.002708087
-0.002831542
-0.002964209
-0.003108198
-0.003268322
-0.003451544
-0.00366197
-0.003907082
-0.004195209
-0.00437668
-0.004332418
-0.002423258
-0.002527659
-0.00263813
-0.002755815
-0.002882216
-0.003021147
-0.00317821
-0.003355862
-0.003559808
-0.003797147
-0.003941396
-0.003938531
-0.00384656
-0.008839628
-0.008850688
-0.009716523
-0.008575159
-0.009388857
-0.01031519
-0.008143262
-0.00881953
-0.009655725
-0.01060979
-0.007585513
-0.008139993
-0.008812577
-0.009644383
-0.01059264
-0.006916649
-0.007370988
-0.007905956
-0.008554377
-0.009354864
-0.01026664
-0.006153141
-0.006522579
-0.006947291
-0.007446849
-0.008051086
-0.00879647
-0.009643831
-0.005319473
-0.005615562
-0.005949053
-0.00633193
-0.006781344
-0.007325189
-0.007995431
-0.008746024
-0.004463503
-0.004696127
-0.004953737
-0.005243295
-0.005574914
-0.005965051
-0.00643814
-0.007012781
-0.007643581
-0.003681542
-0.003862533
-0.004059853
-0.004277657
-0.004521646
-0.004802315
-0.005134479
-0.00553197
-0.006007458
-0.006513569
-0.003111348
-0.003256805
-0.00341346
-0.003583869
-0.003771538
-0.003983419
-0.004229625
-0.004517733
-0.004859927
-0.00526286
-0.005490058
-0.002730995
-0.002853266
-0.002983684
-0.003123949
-0.003276315
-0.003445849
-0.003639834
-0.003862809
-0.004123023
-0.004430193
-0.004628439
-0.00458552
-0.002482822
-0.002589888
-0.002703221
-0.002824
-0.002953777
-0.003096451
-0.003257728
-0.003440177
-0.003649722
-0.003893809
-0.004042897
-0.004038429
-0.003939906
-0.002324045
-0.002421023
-0.002523062
-0.002631017
-0.002745993
-0.00287118
-0.003011247
-0.003167654
-0.003344569
-0.003547675
-0.003659472
-0.003642735
-0.003597269
-0.003458837
-0.007758615
-0.008064319
-0.008834947
-0.008085569
-0.008846683
-0.009707545
-0.007915631
-0.008571583
-0.00938111
-0.01030208
-0.007585513
-0.008139993
-0.008812577
-0.009644383
-0.01059264
-0.007114721
-0.007582481
-0.008133613
-0.008802365
-0.009629526
-0.01057435
-0.006521669
-0.006913804
-0.007365046
-0.007896551
-0.008540954
-0.009338985
-0.01025171
-0.005825475
-0.00615044
-0.006516963
-0.006938466
-0.007434396
-0.008036637
-0.008783374
-0.009629265
-0.00505262
-0.005316855
-0.005610135
-0.005940565
-0.006320036
-0.006767699
-0.007312961
-0.007982217
-0.008731324
-0.004250824
-0.004460868
-0.004690676
-0.004945234
-0.005231432
-0.005561397
-0.00595285
-0.006424947
-0.006998294
-0.007627326
-0.003513862
-0.003678801
-0.003856865
-0.004051026
-0.004265373
-0.004507707
-0.004789487
-0.005120393
-0.005516356
-0.005989908
-0.006303601
-0.002975161
-0.003108741
-0.003251424
-0.003405099
-0.00357227
-0.003758428
-0.003971411
-0.004216529
-0.004503364
-0.004844023
-0.00507566
-0.005047009
-0.00261558
-0.002728575
-0.002848279
-0.002975952
-0.003113251
-0.003264262
-0.003434919
-0.003628045
-0.003850038
-0.004109107
-0.004269599
-0.004263295
-0.004151243
-0.002381114
-0.002480559
-0.002585234
-0.002696018
-0.002814053
-0.002942597
-0.003086395
-0.003246976
-0.003428645
-0.003637298
-0.003752438
-0.003732678
-0.003680202
-0.003528931
-0.002231435
-0.002321902
-0.00241662
-0.002516256
-0.002621632
-0.002735464
-0.002861757
-0.003001227
-0.003156971
-0.003333141
-0.003418764
-0.003382293
-0.003329627
-0.003242768
-0.003060245
-0.006659886
-0.00710029
-0.007753747
-0.007375296
-0.008060234
-0.008825849
-0.007466096
-0.008081967
-0.008838886
-0.0096944
-0.007374029
-0.007912354
-0.008564613
-0.009369748
-0.01028493
-0.007114721
-0.007582481
-0.008133613
-0.008802365
-0.009629526
-0.01057435
-0.006708258
-0.007111885
-0.007576555
-0.008124234
-0.008788976
-0.009613676
-0.01055943
-0.006174146
-0.006518994
-0.006908241
-0.007356302
-0.007884209
-0.008526626
-0.009326019
-0.01023727
-0.005532976
-0.005822923
-0.006145152
-0.006508693
-0.006926876
-0.007421094
-0.008024803
-0.008770668
-0.009615154
-0.004811588
-0.005050137
-0.005311722
-0.005602134
-0.005929408
-0.006307323
-0.006756429
-0.007300992
-0.007969292
-0.008716962
-0.00405693
-0.004248317
-0.004455693
-0.004682625
-0.004934042
-0.005218739
-0.005550018
-0.005940671
-0.00641178
-0.006983837
-0.007457168
-0.003359809
-0.003511248
-0.003673405
-0.003848478
-0.004039386
-0.004252209
-0.004495651
-0.004776337
-0.005105958
-0.005500358
-0.005801142
-0.00585006
-0.002849247
-0.002972669
-0.003103605
-0.003243457
-0.00339407
-0.003559837
-0.003747081
-0.003959095
-0.004203103
-0.00448864
-0.004672941
-0.004674548
-0.004549905
-0.002508325
-0.002613262
-0.002723806
-0.002840896
-0.002965753
-0.003101784
-0.003253893
-0.003423773
-0.003616027
-0.003837023
-0.003960225
-0.003935363
-0.00386834
-0.003687447
-0.002286183
-0.002378945
-0.002476102
-0.002578343
-0.002686514
-0.002803389
-0.002933028
-0.003076191
-0.003236069
-0.003416946
-0.003504984
-0.003464721
-0.003404359
-0.003305169
-0.003104166
-0.002144672
-0.002229379
-0.00231768
-0.0024101
-0.002507275
-0.00261157
-0.002726476
-0.00285222
-0.002991087
-0.003146161
-0.003211738
-0.003159372
-0.003091866
-0.003004514
-0.002878317
-0.002796781
-0.005840532
-0.00612115
-0.006654687
-0.00650441
-0.007095996
-0.007744265
-0.006813837
-0.007371612
-0.008052275
-0.008812516
-0.006956357
-0.007462791
-0.008074941
-0.008827448
-0.009677196
-0.006916649
-0.007370988
-0.007905956
-0.008554377
-0.009354864
-0.01026664
-0.006708258
-0.007111885
-0.007576555
-0.008124234
-0.008788976
-0.009613676
-0.01055943
-0.006350678
-0.006705591
-0.007106339
-0.007567838
-0.008111926
-0.008774683
-0.009600746
-0.01054502
-0.005863973
-0.006171618
-0.006513757
-0.006900051
-0.007344821
-0.007871028
-0.008514926
-0.009313481
-0.01022333
-0.005268829
-0.005530557
-0.005817923
-0.00613736
-0.006497827
-0.006914492
-0.007410199
-0.008013322
-0.008758354
-0.009601497
-0.004591892
-0.004809227
-0.005045266
-0.005304151
-0.005591613
-0.005917477
-0.006296822
-0.006745397
-0.007289283
-0.007956657
-0.008569738
-0.003878835
-0.00405454
-0.004243392
-0.004448047
-0.004672024
-0.004922061
-0.005208053
-0.00553866
-0.005928516
-0.00639864
-0.006832386
-0.007140617
-0.003217411
-0.003357312
-0.0035061
-0.003665416
-0.003837414
-0.004026907
-0.004240824
-0.004483294
-0.004762863
-0.00509117
-0.005328301
-0.005392617
-0.00531925
-0.002732261
-0.002846862
-0.00296776
-0.003096
-0.003232946
-0.003382244
-0.003549076
-0.003735443
-0.003946469
-0.004189345
-0.004330275
-0.004306651
-0.004224339
-0.003994014
-0.002408233
-0.002506105
-0.002608697
-0.002716745
-0.002831154
-0.002954817
-0.003091918
-0.003243318
-0.003412412
-0.003603779
-0.00369779
-0.003650602
-0.003574081
-0.003446544
-0.003200348
-0.002197252
-0.002284102
-0.002374671
-0.002469501
-0.002569249
-0.002676324
-0.002794262
-0.002923318
-0.00306584
-0.003225005
-0.003292377
-0.003235849
-0.003160388
-0.003060792
-0.002917533
-0.002822828
-0.002063129
-0.002142697
-0.002225326
-0.002311426
-0.002401493
-0.002497644
-0.00260298
-0.002717379
-0.002842569
-0.002980827
-0.003031327
-0.002967548
-0.002887693
-0.002790421
-0.002670357
-0.002637373
-0.002650729
-0.005316015
-0.005392695
-0.005835443
-0.00561997
-0.006116506
-0.006644529
-0.006013987
-0.006500523
-0.007087614
-0.007730348
-0.006350276
-0.006810453
-0.007364423
-0.008040593
-0.008795058
-0.006525449
-0.006953288
-0.007456338
-0.008064621
-0.008812461
-0.00965885
-0.006521669
-0.006913804
-0.007365046
-0.007896551
-0.008540954
-0.009338985
-0.01025171
-0.006350678
-0.006705591
-0.007106339
-0.007567838
-0.008111926
-0.008774683
-0.009600746
-0.01054502
-0.006031555
-0.006348158
-0.00670037
-0.007098173
-0.007556391
-0.008098782
-0.008763023
-0.009588254
-0.01053112
-0.005583895
-0.005861577
-0.006166667
-0.006506041
-0.006889289
-0.007332554
-0.007860265
-0.008503611
-0.009301369
-0.01020989
-0.005028096
-0.005266529
-0.005525813
-0.005810551
-0.006127117
-0.00648621
-0.006904348
-0.007399629
-0.008002193
-0.008746433
-0.009462883
-0.004390132
-0.004589642
-0.004804593
-0.005038078
-0.005294189
-0.005580358
-0.005907623
-0.006286543
-0.006734604
-0.007277834
-0.007827047
-0.008325606
-0.003714247
-0.003876553
-0.004049843
-0.004236112
-0.004437975
-0.004660673
-0.004911975
-0.005197387
-0.005527324
-0.005916386
-0.006260974
-0.006549675
-0.006841902
-0.003085138
-0.003215021
-0.003352391
-0.003498476
-0.003654875
-0.003825551
-0.004016115
-0.004229154
-0.004470632
-0.00474906
-0.004932141
-0.00495608
-0.004913821
-0.004668559
-0.002623109
-0.002729976
-0.002842162
-0.002960487
-0.003085962
-0.003221672
-0.00337201
-0.00353804
-0.003723514
-0.003933532
-0.004041395
-0.003991451
-0.003895775
-0.003720777
-0.003379683
-0.002314479
-0.002406102
-0.002501727
-0.002601933
-0.002707424
-0.002820706
-0.00294541
-0.003081858
-0.00323254
-0.003400834
-0.003472772
-0.003408397
-0.003316115
-0.003188426
-0.003003518
-0.00287529
-0.002113677
-0.002195253
-0.00228
-0.002368339
-0.002460787
-0.002559496
-0.002667602
-0.002785001
-0.002913467
-0.003055341
-0.003107205
-0.003039097
-0.002951291
-0.002842048
-0.002705766
-0.002660732
-0.002668186
-0.001986302
-0.00206123
-0.002138802
-0.00221932
-0.002303168
-0.002392262
-0.002489423
-0.002594287
-0.002708174
-0.002832805
-0.002871841
-0.002800422
-0.002711872
-0.002605794
-0.002480669
-0.002449454
-0.002503094
-0.002488697
-0.005015445
-0.00492778
-0.005311144
-0.00496272
-0.00538811
-0.005825496
-0.005201732
-0.005615749
-0.00610742
-0.006629581
-0.005607004
-0.006010409
-0.006492925
-0.007075291
-0.0077121
-0.005957757
-0.006347132
-0.006803842
-0.007353857
-0.008025278
-0.008776434
-0.006153141
-0.006522579
-0.006947291
-0.007446849
-0.008051086
-0.00879647
-0.009643831
-0.006174146
-0.006518994
-0.006908241
-0.007356302
-0.007884209
-0.008526626
-0.009326019
-0.01023727
-0.006031555
-0.006348158
-0.00670037
-0.007098173
-0.007556391
-0.008098782
-0.008763023
-0.009588254
-0.01053112
-0.005743411
-0.006029166
-0.006343223
-0.006692679
-0.007087446
-0.007544161
-0.00808806
-0.008751758
-0.0095762
-0.01051773
-0.005328667
-0.005581618
-0.00585688
-0.006159368
-0.006495898
-0.006877786
-0.007322537
-0.007849855
-0.008492681
-0.009289684
-0.01007392
-0.004807044
-0.005025905
-0.005262017
-0.005518816
-0.005800855
-0.006116162
-0.006476696
-0.006894506
-0.007389383
-0.007991418
-0.008625378
-0.009245333
-0.0042037
-0.004387984
-0.004585223
-0.004797751
-0.005028616
-0.00528353
-0.005571062
-0.005897976
-0.006276486
-0.006724051
-0.007160391
-0.007611463
-0.00812506
-0.003561389
-0.003712064
-0.003872065
-0.004042897
-0.004226519
-0.004427187
-0.004651117
-0.004901908
-0.005186742
-0.005516011
-0.005789302
-0.006003914
-0.006282135
-0.006582401
-0.002961747
-0.003082849
-0.003210312
-0.003345102
-0.003488412
-0.003643569
-0.003815291
-0.004005055
-0.004217198
-0.004457663
-0.004600639
-0.00458828
-0.004520004
-0.004326393
-0.003820129
-0.002520886
-0.002620916
-0.002725471
-0.002835197
-0.002950885
-0.003075194
-0.003211916
-0.003361514
-0.003526727
-0.003711291
-0.003794426
-0.003725018
-0.003611592
-0.003436422
-0.003164211
-0.002953437
-0.002226381
-0.002312433
-0.002401901
-0.00249524
-0.002593002
-0.002697425
-0.002811718
-0.002935817
-0.003071604
-0.003221557
-0.003277
-0.003200586
-0.003095897
-0.002959209
-0.002783466
-0.002707806
-0.002701255
-0.002034939
-0.002111755
-0.002191311
-0.00227392
-0.002359979
-0.002451439
-0.002551148
-0.002658753
-0.002775606
-0.002903477
-0.002943561
-0.002867762
-0.002771387
-0.002653726
-0.002513172
-0.002470581
-0.002518773
-0.002499426
-0.001913748
-0.001984475
-0.002057485
-0.002133029
-0.002211389
-0.00229431
-0.002384382
-0.002481102
-0.002585491
-0.002698861
-0.002729088
-0.002652746
-0.002558711
-0.002446636
-0.002316184
-0.002275924
-0.002326228
-0.002353429
-0.002317289
-0.00487973
-0.00466214
-0.005010739
-0.004543913
-0.004923362
-0.005301626
-0.004598549
-0.004958538
-0.005379134
-0.005810851
-0.00485225
-0.005197839
-0.005607481
-0.006094031
-0.006609942
-0.005261541
-0.005603676
-0.006003408
-0.006481742
-0.007059119
-0.007692617
-0.005618332
-0.005954813
-0.006340983
-0.006794115
-0.007339994
-0.008008931
-0.008761061
-0.005825475
-0.00615044
-0.006516963
-0.006938466
-0.007434396
-0.008036637
-0.008783374
-0.009629265
-0.005863973
-0.006171618
-0.006513757
-0.006900051
-0.007344821
-0.007871028
-0.008514926
-0.009313481
-0.01022333
-0.005743411
-0.006029166
-0.006343223
-0.006692679
-0.007087446
-0.007544161
-0.00808806
-0.008751758
-0.0095762
-0.01051773
-0.005480843
-0.005741141
-0.006024486
-0.006335948
-0.006682569
-0.007075979
-0.007534184
-0.008077699
-0.008740887
-0.009564583
-0.01038244
-0.005094321
-0.005326497
-0.005577151
-0.005849953
-0.00614977
-0.006485053
-0.006868394
-0.007312849
-0.0078398
-0.008482137
-0.009171487
-0.009864787
-0.004602804
-0.004804952
-0.005021604
-0.005255358
-0.005509609
-0.005790483
-0.006107189
-0.006467464
-0.006884966
-0.007379463
-0.007881999
-0.008435004
-0.009077122
-0.004030577
-0.004201646
-0.004383764
-0.004578697
-0.004788742
-0.00501849
-0.005274725
-0.005561961
-0.005888538
-0.006266653
-0.006615791
-0.006964943
-0.00743389
-0.007978594
-0.003418818
-0.003559299
-0.003707769
-0.003865426
-0.004033741
-0.004216242
-0.004418106
-0.004641578
-0.00489186
-0.005176118
-0.005397492
-0.005552017
-0.005760593
-0.006049184
-0.006406577
-0.002846211
-0.00295955
-0.003078335
-0.003203333
-0.003335478
-0.003477616
-0.003633792
-0.003804777
-0.003993723
-0.004204952
-0.004318213
-0.004279835
-0.004185619
-0.003985216
-0.003560215
-0.003045735
-0.002424844
-0.002518781
-0.002616592
-0.002718792
-0.002825999
-0.002940583
-0.003065876
-0.003201912
-0.003350757
-0.003515138
-0.003579877
-0.00349707
-0.003370468
-0.003187096
-0.002928885
-0.002777992
-0.00274431
-0.002143392
-0.002224414
-0.002308396
-0.002395672
-0.002486673
-0.002583421
-0.002688825
-0.002802554
-0.00292604
-0.003061156
-0.003104093
-0.003019797
-0.002906758
-0.002762552
-0.002584534
-0.002513178
-0.002548483
-0.00251876
-0.001960585
-0.00203309
-0.002107964
-0.002185467
-0.00226589
-0.00235101
-0.002443439
-0.002542679
-0.002649777
-0.002766079
-0.002797118
-0.00271641
-0.002614737
-0.002491502
-0.002346375
-0.002295336
-0.002340415
-0.002363072
-0.002323423
-0.001845094
-0.001911989
-0.00198087
-0.002051931
-0.002125405
-0.002202879
-0.002286748
-0.002376407
-0.002472683
-0.002576591
-0.002599939
-0.002520626
-0.002423441
-0.002308007
-0.002174189
-0.002124775
-0.00216179
-0.00218869
-0.002194416
-0.002140976
-0.004542445
-0.004875105
-0.004304998
-0.004657852
-0.005001544
-0.004214573
-0.004539873
-0.004914717
-0.005287615
-0.004292043
-0.004594684
-0.004950342
-0.005365905
-0.005791608
-0.004554611
-0.004848624
-0.005190205
-0.005595285
-0.006076427
-0.006588941
-0.004962435
-0.005258422
-0.005597158
-0.005993096
-0.006467054
-0.007041842
-0.007676228
-0.005319473
-0.005615562
-0.005949053
-0.00633193
-0.006781344
-0.007325189
-0.007995431
-0.008746024
-0.005532976
-0.005822923
-0.006145152
-0.006508693
-0.006926876
-0.007421094
-0.008024803
-0.008770668
-0.009615154
-0.005583895
-0.005861577
-0.006166667
-0.006506041
-0.006889289
-0.007332554
-0.007860265
-0.008503611
-0.009301369
-0.01020989
-0.005480843
-0.005741141
-0.006024486
-0.006335948
-0.006682569
-0.007075979
-0.007534184
-0.008077699
-0.008740887
-0.009564583
-0.01038244
-0.005239766
-0.00547868
-0.005736689
-0.006017581
-0.006326381
-0.006671759
-0.007066624
-0.007524543
-0.008067702
-0.008730411
-0.009447206
-0.01017559
-0.00487781
-0.00509225
-0.005322239
-0.00557056
-0.00584084
-0.006139503
-0.006476197
-0.006859309
-0.007303491
-0.007830099
-0.008375464
-0.008989441
-0.009706437
-0.00441316
-0.004600803
-0.004800845
-0.005015253
-0.005246593
-0.005499757
-0.005781987
-0.006098484
-0.006458516
-0.006875729
-0.007278719
-0.007709862
-0.00828755
-0.008961815
-0.003869122
-0.00402861
-0.004197608
-0.004377527
-0.004570101
-0.004779097
-0.005010125
-0.005266106
-0.005553058
-0.005879311
-0.006165777
-0.006435599
-0.006803885
-0.007303914
-0.007899284
-0.003285344
-0.003416813
-0.003555184
-0.003701414
-0.003856672
-0.00402393
-0.00420759
-0.004409041
-0.004632059
-0.004881834
-0.005064823
-0.005176218
-0.005327435
-0.005548699
-0.00589107
-0.002737675
-0.002844102
-0.002955219
-0.003071644
-0.003194116
-0.003325152
-0.003468281
-0.003623772
-0.003794004
-0.003982116
-0.004073283
-0.004016884
-0.003904309
-0.003692027
-0.003288
-0.002860988
-0.002782468
-0.002334383
-0.00242282
-0.002514627
-0.002610181
-0.00270997
-0.002816129
-0.002931668
-0.00305632
-0.003191657
-0.003339737
-0.003390538
-0.003299037
-0.003163934
-0.00297438
-0.002718214
-0.002576737
-0.002587186
-0.002541651
-0.002065029
-0.002141498
-0.002220532
-0.00230241
-0.002387446
-0.002477481
-0.00257518
-0.002680056
-0.002793214
-0.002916079
-0.00294942
-0.002860176
-0.002742208
-0.002593402
-0.002412684
-0.002334487
-0.002367308
-0.002380453
-0.002334092
-0.001890229
-0.001958804
-0.002029441
-0.002102343
-0.002177749
-0.002257275
-0.002343333
-0.002435323
-0.002534089
-0.002640674
-0.00266465
-0.002581023
-0.002476416
-0.002350251
-0.002202459
-0.002142817
-0.002174829
-0.002197416
-0.002199925
-0.002144121
-0.001779993
-0.001843398
-0.001908516
-0.001975523
-0.002044595
-0.002117222
-0.002195615
-0.002279095
-0.002368338
-0.002464165
-0.002482066
-0.002401145
-0.00230248
-0.002185636
-0.002050518
-0.00199414
-0.002018184
-0.00203441
-0.002042323
-0.002030187
-0.001962625
-0.00419747
-0.004538223
-0.004866071
-0.003995745
-0.004301069
-0.004649465
-0.004988012
-0.003935674
-0.004210833
-0.004531958
-0.00490198
-0.005269208
-0.004030099
-0.004288438
-0.004587103
-0.004938253
-0.005348509
-0.00577103
-0.004296483
-0.004551209
-0.004841506
-0.005178937
-0.005579239
-0.006057592
-0.006570781
-0.004698905
-0.004959498
-0.00525231
-0.00558755
-0.005979543
-0.006451356
-0.007027298
-0.007659882
-0.00505262
-0.005316855
-0.005610135
-0.005940565
-0.006320036
-0.006767699
-0.007312961
-0.007982217
-0.008731324
-0.005268829
-0.005530557
-0.005817923
-0.00613736
-0.006497827
-0.006914492
-0.007410199
-0.008013322
-0.008758354
-0.009601497
-0.005328667
-0.005581618
-0.00585688
-0.006159368
-0.006495898
-0.006877786
-0.007322537
-0.007849855
-0.008492681
-0.009289684
-0.01007392
-0.005239766
-0.00547868
-0.005736689
-0.006017581
-0.006326381
-0.006671759
-0.007066624
-0.007524543
-0.008067702
-0.008730411
-0.009447206
-0.01017559
-0.005017042
-0.005237702
-0.005474437
-0.00573012
-0.006008499
-0.006316148
-0.00666294
-0.007057586
-0.007515241
-0.008058067
-0.008624554
-0.009267567
-0.01001993
-0.004676783
-0.00487583
-0.005088184
-0.005315953
-0.005561884
-0.005831089
-0.006131119
-0.006467632
-0.006850534
-0.007294462
-0.007731957
-0.008211134
-0.008851449
-0.009599986
-0.004236311
-0.004411245
-0.004596874
-0.004794776
-0.00500689
-0.005237211
-0.005491688
-0.005773744
-0.006090045
-0.006449852
-0.006781924
-0.007120208
-0.007576492
-0.008186332
-0.008902957
-0.003717987
-0.003867236
-0.004024742
-0.004191639
-0.00436931
-0.004560895
-0.00477113
-0.005001936
-0.005257674
-0.005544352
-0.00578464
-0.005997863
-0.006287096
-0.006685955
-0.007233418
-0.003159972
-0.003283419
-0.003412865
-0.003549092
-0.003693032
-0.00384729
-0.004015671
-0.004198954
-0.004399994
-0.004622559
-0.00477679
-0.004857048
-0.004966812
-0.005131882
-0.005404866
-0.002635461
-0.002735648
-0.002839942
-0.002948797
-0.003062806
-0.003184224
-0.003316223
-0.003458713
-0.003613507
-0.003782971
-0.003857327
-0.003788823
-0.003664242
-0.00344413
-0.003048775
-0.00265197
-0.002621507
-0.00255897
-0.002248975
-0.002332436
-0.002418826
-0.002508466
-0.00260171
-0.002700502
-0.002807588
-0.002922527
-0.003046527
-0.003181153
-0.003221253
-0.003124316
-0.002984473
-0.002791852
-0.002536975
-0.002392934
-0.002402358
-0.002401037
-0.00234597
-0.001990887
-0.002063206
-0.002137762
-0.002214774
-0.002294502
-0.002378617
-0.002469574
-0.002566777
-0.002671118
-0.002783697
-0.002809546
-0.00271744
-0.002596973
-0.00244622
-0.002264563
-0.002179215
-0.00219955
-0.002213147
-0.002209508
-0.002149461
-0.001823519
-0.001888513
-0.00195529
-0.002024029
-0.002094916
-0.002169465
-0.002249901
-0.002335545
-0.00242709
-0.002525377
-0.002543763
-0.002458603
-0.002352744
-0.002225586
-0.002077142
-0.002011042
-0.002030305
-0.002042429
-0.002047304
-0.002032995
-0.001963735
-0.001718163
-0.001778358
-0.001840051
-0.001903365
-0.001968459
-0.00203672
-0.002110237
-0.002188264
-0.002271352
-0.002360174
-0.002373699
-0.002292133
-0.00219314
-0.002076273
-0.001941419
-0.001880366
-0.001893969
-0.001899279
-0.001898819
-0.001890889
-0.001863435
-0.001784157
-0.003897332
-0.004193597
-0.004529963
-0.004852777
-0.003732723
-0.003992105
-0.004293374
-0.004637109
-0.004970238
-0.003696612
-0.003932182
-0.0042035
-0.004520285
-0.004885234
-0.005249529
-0.00380252
-0.004026714
-0.004281361
-0.004575912
-0.004922345
-0.005329898
-0.005753208
-0.004068855
-0.004293276
-0.004544528
-0.004830993
-0.005164103
-0.005562063
-0.006041296
-0.006552168
-0.004463503
-0.004696127
-0.004953737
-0.005243295
-0.005574914
-0.005965051
-0.00643814
-0.007012781
-0.007643581
-0.004811588
-0.005050137
-0.005311722
-0.005602134
-0.005929408
-0.006307323
-0.006756429
-0.007300992
-0.007969292
-0.008716962
-0.005028096
-0.005266529
-0.005525813
-0.005810551
-0.006127117
-0.00648621
-0.006904348
-0.007399629
-0.008002193
-0.008746433
-0.009462883
-0.005094321
-0.005326497
-0.005577151
-0.005849953
-0.00614977
-0.006485053
-0.006868394
-0.007312849
-0.0078398
-0.008482137
-0.009171487
-0.009864787
-0.005017042
-0.005237702
-0.005474437
-0.00573012
-0.006008499
-0.006316148
-0.00666294
-0.007057586
-0.007515241
-0.008058067
-0.008624554
-0.009267567
-0.01001993
-0.004810252
-0.005015069
-0.00523365
-0.005468172
-0.005721474
-0.00599878
-0.0063078
-0.006654419
-0.007048864
-0.007506275
-0.007960709
-0.008462521
-0.009132262
-0.009915846
-0.004489327
-0.004674887
-0.00487194
-0.005082178
-0.005307677
-0.005552599
-0.005823126
-0.00612301
-0.006459358
-0.006842067
-0.00720312
-0.007580754
-0.008086548
-0.008758607
-0.009546451
-0.004070778
-0.004234475
-0.00440748
-0.004591067
-0.004786784
-0.004997937
-0.005229526
-0.005483858
-0.005765754
-0.006081874
-0.00636186
-0.006634317
-0.00699738
-0.007484918
-0.008134619
-0.003576037
-0.003716177
-0.003863526
-0.004019021
-0.004183772
-0.004360508
-0.004553291
-0.004763331
-0.004993925
-0.005249429
-0.005455039
-0.005627047
-0.005859472
-0.006178351
-0.006621975
-0.003041915
-0.003158123
-0.003279628
-0.003407019
-0.003541056
-0.003684047
-0.003839392
-0.004007426
-0.004190335
-0.004390966
-0.004523036
-0.004580694
-0.00466043
-0.004784493
-0.004999159
-0.002538968
-0.002633511
-0.002731649
-0.002833771
-0.002940312
-0.003053319
-0.003175671
-0.003307072
-0.003448911
-0.003602993
-0.003664349
-0.00358777
-0.003455986
-0.003232209
-0.002844596
-0.002462162
-0.002433458
-0.002416617
-0.002354214
-0.002168177
-0.0022471
-0.002328592
-0.002412901
-0.002500325
-0.002592618
-0.002692309
-0.00279883
-0.002913158
-0.003036494
-0.003068221
-0.002968143
-0.002826174
-0.002633196
-0.002381027
-0.00223357
-0.00223178
-0.002231785
-0.002220181
-0.002155181
-0.001920594
-0.001989131
-0.002059608
-0.00213222
-0.002207167
-0.002286014
-0.002371022
-0.002461512
-0.002558213
-0.002662013
-0.002681931
-0.002588404
-0.002467153
-0.002316363
-0.002135644
-0.002045145
-0.00205329
-0.002056889
-0.00205597
-0.002037764
-0.001965567
-0.001760162
-0.001821865
-0.001885126
-0.001950076
-0.002016878
-0.002086944
-0.002162375
-0.00224242
-0.002327646
-0.002418741
-0.002432636
-0.002346922
-0.002240964
-0.002114183
-0.001966602
-0.00189629
-0.001905326
-0.001906734
-0.001903394
-0.001893419
-0.001864389
-0.00178362
-0.001659356
-0.001716585
-0.00177513
-0.001835085