/*--------------------------------*- C++ -*----------------------------------*\
| =========                 |                                                 |
| \\      /  F ield         | OpenFOAM: The Open Source CFD Toolbox           |
|  \\    /   O peration     | Version:  2306                                  |
|   \\  /    A nd           | Website:  www.openfoam.com                      |
|    \\/     M anipulation  |                                                 |
\*---------------------------------------------------------------------------*/
FoamFile
{
    version     2.0;
    format      ascii;
    arch        "LSB;label=32;scalar=64";
    class       volVectorField;
    location    "1.5/phiI";
    object      i;
}
// * * * * * * * * * * * * * * * * * * * * * * * * * * * * * * * * * * * * * //

dimensions      [0 -2 0 0 0 1 0];

internalField   nonuniform List<vector> 
12000
(
(40.82074 6.838862 1681.371)
(40.92392 20.94534 1695.692)
(81.73876 7.870703 1538.661)
(41.39158 6.266007 5062.936)
(40.95831 37.54519 1724.557)
(81.91092 22.32104 1547.823)
(41.5154 19.21788 5105.998)
(74.64615 8.560432 1417.518)
(82.79417 7.50424 4633.487)
(42.53853 5.11635 8492.489)
(40.5096 59.80487 1767.863)
(82.04948 33.40198 1565.793)
(41.59337 34.65834 5192.786)
(74.74007 24.05249 1424.493)
(82.99571 21.23577 4661.037)
(42.70377 15.75131 8564.911)
(61.32873 8.809975 1320.203)
(75.51998 8.281424 4268.816)
(84.91524 6.768717 7770.981)
(44.27761 3.369122 11999.65)
(38.88992 89.86935 1823.803)
(81.65005 39.12093 1591.389)
(41.2155 55.83504 5322.976)
(74.89585 34.9365 1438.019)
(83.19563 31.6593 4715.08)
(42.86914 28.86607 8710.865)
(61.36114 24.81806 1325.926)
(75.62766 23.23243 4289.788)
(85.17576 19.05734 7817.317)
(44.50578 10.48284 12102.8)
(50.48396 8.884536 1239.202)
(62.042 8.581059 3975.802)
(77.27689 7.72155 7158.459)
(88.13029 5.65081 10975.25)
(46.63613 0.9903563 15624.69)
(35.41477 118.8608 1884.546)
(79.86249 38.92102 1621.726)
(39.69823 85.20203 5491.056)
(75.01691 37.935 1456.857)
(82.89407 36.88361 4792.089)
(42.63315 47.8741 8929.783)
(61.43747 36.17039 1336.956)
(75.8112 33.64195 4330.462)
(85.49877 28.15989 7908.229)
(44.80391 20.06344 12310.69)
(50.48522 25.13987 1244.082)
(62.08279 24.14794 3993.006)
(77.4122 21.58663 7193.723)
(88.48047 15.74583 11041.24)
(46.95001 3.30947 15760.64)
(42.26449 8.822517 1169.552)
(51.08657 8.689344 3731.858)
(63.47656 8.121816 6666.369)
(79.93842 6.870848 10106.53)
(92.48769 4.129082 14280.52)
(49.65428 -2.068961 17488.91)
(30.53756 131.6378 1932.997)
(75.77861 35.33727 1650.658)
(36.35032 114.4931 5673.303)
(74.91818 31.15501 1478.293)
(81.24453 36.55025 4883.421)
(41.32046 75.8563 9212.235)
(61.56555 39.34423 1352.133)
(75.97394 36.32405 4387.143)
(85.39338 32.3873 8037.85)
(44.78323 35.78024 12622.52)
(50.50834 36.9806 1253.452)
(62.17574 35.12211 4026.169)
(77.65149 31.0423 7262.136)
(88.99054 22.83797 11170.75)
(47.42889 8.076938 16034.7)
(42.24416 25.06183 1173.81)
(51.09368 24.56985 3746.525)
(63.53419 22.80338 6695.29)
(80.11577 19.08535 10156.74)
(92.95999 11.23706 14367.47)
(50.07848 -5.917657 17641.68)
(36.06596 8.681239 1108.445)
(42.78751 8.652187 3522.055)
(52.29895 8.297852 6256.715)
(65.64897 7.424252 9409.128)
(83.54136 5.713414 13142.65)
(98.05848 2.172968 15979.85)
(52.67238 -5.120371 17522.85)
(25.51254 119.3374 1965.596)
(69.79006 32.61554 1670.712)
(31.5867 128.3959 5818.414)
(74.30841 18.13653 1497.297)
(77.32761 33.37781 4970.609)
(38.22555 105.7665 9517.953)
(61.73691 31.83598 1369.023)
(75.92899 29.5374 4451.723)
(84.01982 31.78024 8191.729)
(43.78025 61.67524 13024.69)
(50.58594 40.92937 1266.255)
(62.32796 38.06155 4071.831)
(77.89795 33.08458 7357.55)
(89.18301 25.54361 11355.54)
(47.7011 19.3142 16445.86)
(42.2242 37.17759 1181.968)
(51.12829 36.09368 3774.695)
(63.66054 33.01738 6751.054)
(80.4399 27.08888 10254.17)
(93.72486 15.58788 14538.18)
(50.79 -7.345347 17949.7)
(36.03194 24.73697 1112.222)
(42.77159 24.56518 3534.852)
(52.31783 23.4264 6281.364)
(65.73222 20.76058 9450.281)
(83.77602 15.68121 13208.75)
(98.68805 5.439494 16077.47)
(53.20684 -15.12215 17675.22)
(31.27594 8.482307 1053.995)
(36.52819 8.530143 3337.935)
(43.84018 8.310624 5904.393)
(54.13447 7.703392 8828.838)
(68.58735 6.475667 12230.24)
(88.13956 4.226737 14703.12)
(103.6309 0.2242525 16013.83)
(55.69036 -8.16388 17556.72)
(21.54878 82.26475 1984.968)
(63.40894 29.4496 1682.532)
(26.64479 117.2585 5915.847)
(73.04959 7.941063 1508.957)
(71.48622 31.34059 5031.036)
(33.68707 121.936 9760.839)
(61.86706 16.65139 1383.374)
(75.37755 16.90997 4509.113)
(80.43537 29.43267 8338.835)
(41.06679 92.54891 13459.37)
(50.75645 34.17008 1280.316)
(62.52881 30.58632 4122.722)
(77.96097 26.27621 7466.449)
(88.22767 24.51083 11575.16)
(47.11858 42.38248 16976.08)
(42.24033 41.82535 1193.062)
(51.22222 39.85481 3813.207)
(63.8613 35.48211 6827.907)
(80.81371 28.15152 10390.18)
(94.32274 16.2111 14781.94)
(51.43892 -1.874745 18411.96)
(35.98247 36.94239 1119.447)
(42.76022 36.40752 3559.371)
(52.37553 34.31335 6328.718)
(65.90941 29.81741 9529.667)
(84.21583 21.70443 13337.1)
(99.78096 6.259069 16269.18)
(54.15097 -22.73427 17982.52)
(31.2332 24.2269 1057.386)
(36.49764 24.29689 3349.286)
(43.83311 23.56915 5925.894)
(54.17126 21.68973 8863.899)
(68.70554 17.98179 12284.39)
(88.44808 11.30717 14777.28)
(104.4176 -0.3362259 16111.09)
(56.33502 -24.30421 17708.7)
(27.50701 8.25389 1004.958)
(31.68988 8.34669 3173.828)
(37.45887 8.227196 5595.183)
(45.43364 7.792139 8329.937)
(56.61571 6.895409 11471.71)
(72.33272 5.258168 13679.76)
(92.7417 2.746693 14736.28)
(109.2048 -1.717215 16047.79)
(58.70811 -11.19951 17590.38)
(19.40112 29.20754 1993.914)
(58.25582 21.15057 1688.867)
(22.73319 81.13202 5973.642)
(71.42067 3.99501 1514.691)
(65.21256 28.7234 5066.598)
(28.90954 113.1283 9923.513)
(61.8183 3.738155 1391.46)
(74.1666 7.245304 4544.409)
(74.88608 28.77596 8440.784)
(36.86692 112.1735 13804.01)
(51.00656 18.9505 1291.964)
(62.68839 15.75392 4166.1)
(77.52644 14.42906 7563.55)
(85.14523 23.41562 11785.46)
(44.92118 74.59367 17548.61)
(42.3416 36.04222 1205.146)
(51.41196 33.1417 3855.571)
(64.12152 28.0652 6913.736)
(81.04096 21.2974 10545.72)
(93.93571 14.58323 15072.06)
(51.39633 17.56531 19008.24)
(35.95043 42.10341 1129.241)
(42.78839 40.89824 3592.739)
(52.50231 37.69433 6393.52)
(66.18408 31.55424 9639.192)
(84.76333 21.42273 13516.47)
(100.9006 4.188534 16543.08)
(55.17662 -23.02733 18443.86)
(31.16396 36.36245 1063.862)
(36.4549 36.26164 3370.998)
(43.83898 34.86211 5967.101)
(54.2641 31.60743 8931.285)
(68.95207 25.46097 12388.91)
(89.03699 14.77988 14921.32)
(105.8384 -3.036507 16302.09)
(57.51171 -38.09094 18015.27)
(27.45967 23.6172 1008.03)
(31.64997 23.83223 3184.016)
(37.43529 23.41444 5614.25)
(45.44005 22.05683 8360.509)
(56.67692 19.3285 11517.82)
(72.49596 14.41387 13740.49)
(93.12393 6.953036 14810.12)
(110.1485 -6.090692 16144.69)
(59.4629 -33.4641 17741.97)
(24.47525 8.008888 960.4059)
(27.88137 8.13104 3025.986)
(32.52374 8.074805 5319.555)
(38.86754 7.767457 7892.207)
(47.5867 7.08774 10819.98)
(59.7755 5.859084 12829.21)
(76.08296 4.046535 13711.79)
(97.34773 1.273106 14769.45)
(114.78 -3.651598 16081.59)
(61.72554 -14.22729 17623.7)
(19.40112 -29.20754 1993.914)
(55.42364 7.730959 1691.611)
(20.61033 28.84971 6000.296)
(69.95022 2.411758 1517.133)
(60.12716 20.78742 5085.613)
(25.1009 78.88681 10019.79)
(61.57535 -1.544121 1394.82)
(72.57152 3.667993 4561.804)
(68.82511 27.2665 8500.674)
(32.33615 106.9004 14034.33)
(51.23341 5.023977 1298.157)
(62.66151 3.28034 4190.645)
(76.41115 5.833446 7623.458)
(80.03574 24.86706 11931.2)
(41.1783 98.93767 18001.71)
(42.54349 21.42094 1214.994)
(51.68008 18.23689 3890.785)
(64.34037 13.93448 6987.217)
(80.78402 10.62961 10684.9)
(91.53327 15.1908 15350.41)
(49.85961 51.52368 19651.72)
(35.98421 37.20162 1139.848)
(42.90347 35.16495 3629.137)
(52.73079 31.06695 6464.959)
(66.53478 24.21392 9761.781)
(85.21448 14.48774 13722.02)
(101.2439 1.77225 16869.45)
(55.67376 -7.207763 19039.34)
(31.09706 41.84274 1072.622)
(36.43219 41.28733 3400.452)
(43.89135 39.03471 6023.232)
(54.44092 34.40521 9023.602)
(69.32763 26.19754 12533.28)
(89.80837 12.75472 15122.74)
(107.4796 -7.799516 16575.07)
(58.91408 -44.14765 18475.76)
(27.37914 35.5809 1013.891)
(31.58619 35.75298 3203.478)
(37.40604 34.89575 5650.731)
(45.47217 32.51397 8419.126)
(56.81769 27.92525 11606.48)
(72.83188 19.86205 13857.71)
(93.8617 7.886278 14953.51)
(111.897 -12.30033 16335)
(60.87207 -53.41653 18047.83)
(24.42577 22.94819 963.2081)
(27.83638 23.25991 3035.214)
(32.48949 23.04091 5336.665)
(38.85456 22.07497 7919.308)
(47.61148 20.00159 10860.17)
(59.86817 16.29879 12880.9)
(76.29109 10.86376 13772.23)
(97.80352 2.618157 14842.97)
(115.8805 -11.82454 16178.13)
(62.59036 -42.6021 17774.89)
(21.99788 7.759153 919.6551)
(24.81646 7.896798 2891.615)
(28.63587 7.884762 5071.207)
(33.78579 7.662306 7502.102)
(40.77021 7.143132 10248.48)
(50.32656 6.184843 12098.55)
(62.94055 4.827974 12859.96)
(79.83802 2.840597 13743.83)
(101.9575 -0.1942105 14802.5)
(120.3563 -5.579071 16115.1)
(64.74251 -17.24728 15769.47)
(21.54878 -82.26475 1984.968)
(55.42364 -7.730959 1691.611)
(20.61033 -28.84971 6000.296)
(69.09189 0.8857382 1517.98)
(57.32738 7.621204 5093.832)
(23.02698 28.14138 10064.13)
(61.28025 -2.137235 1395.836)
(71.12234 2.280209 4569.224)
(63.87349 20.06122 8532.606)
(28.68194 75.50731 14170.39)
(51.35524 -1.38549 1300.389)
(62.43256 -1.719178 4200.916)
(74.8834 3.002427 7653.067)
(74.29434 25.05052 12016.69)
(36.98009 98.473 18303.92)
(42.77837 7.2249 1220.019)
(51.91917 4.68699 3909.609)
(64.35751 2.345526 7029.033)
(79.81361 3.664608 10771.03)
(87.01799 19.52683 15543.3)
(46.70057 81.96097 20159.94)
(36.11155 23.31818 1148.4)
(43.11775 20.82602 3658.906)
(53.03534 16.78899 6524.627)
(66.84408 11.14206 9867.223)
(85.1994 5.416468 13906.66)
(99.71304 4.56607 17183.01)
(54.796 28.52571 19681.65)
(31.07718 37.65339 1082.071)
(36.47651 36.43526 3432.398)
(44.03429 33.39553 6084.594)
(54.72853 27.89744 9125.613)
(69.80192 18.94395 12695.27)
(90.54812 5.689964 15353.89)
(108.5531 -11.01401 16900.71)
(59.95084 -31.94626 19070.59)
(27.29037 41.23555 1021.805)
(31.5268 41.11437 3229.819)
(37.40211 39.64741 5700.266)
(45.56141 36.19854 8499.059)
(57.06284 29.92122 11728.1)
(73.33756 19.29982 14019.73)
(94.85671 4.119746 15154.07)
(114.0598 -19.75629 16607.12)
(62.65116 -65.23988 18507.5)
(24.33926 34.66949 968.5517)
(27.76038 35.02989 3052.826)
(32.43665 34.53031 5369.359)
(38.84586 32.82102 7971.183)
(47.67939 29.32011 10937.25)
(60.07072 23.19593 12980.3)
(76.71616 14.29129 13888.87)
(98.68989 1.022196 14985.73)
(117.9566 -21.53392 16367.78)
(64.2319 -68.71232 18080.06)
(21.94809 22.25732 922.2273)
(24.76898 22.62236 2900.035)
(28.5956 22.54358 5086.703)
(33.76016 21.84007 7526.413)
(40.77167 20.25539 10284.08)
(50.37498 17.36613 12143.58)
(63.06456 13.28503 12911.39)
(80.0909 7.330826 13803.99)
(102.4867 -1.698134 14875.71)
(121.6135 -17.53843 16211.3)
(65.71725 -51.7186 15903.83)
(19.93892 7.510953 882.1709)
(22.31082 7.656267 2768.661)
(25.50455 7.672089 4845.446)
(29.77781 7.511198 7150.666)
(35.4899 7.102352 9739.385)
(43.18994 6.343338 11457.89)
(53.07198 5.286605 12127.95)
(66.11086 3.801916 12890.74)
(83.59782 1.640174 13775.78)
(106.571 -1.655451 14835.3)
(125.9335 -7.499822 14426.67)
(67.09671 -19.60204 12103.39)
(25.51254 -119.3374 1965.596)
(58.25582 -21.15057 1688.867)
(22.73319 -81.13202 5973.642)
(69.09189 -0.8857384 1517.98)
(57.32738 -7.621204 5093.832)
(23.02698 -28.14138 10064.13)
(61.08705 -0.8523011 1396.014)
(70.27428 0.8518418 4571.804)
(61.13761 7.402221 8546.372)
(26.68137 27.07625 14232.97)
(51.3924 -2.471254 1300.795)
(62.14561 -2.185027 4204.073)
(73.47638 2.011732 7665.737)
(69.54339 18.95948 12062.16)
(33.53382 70.94114 18482.18)
(42.95933 0.04584529 1221.627)
(52.04801 -1.491006 3916.475)
(64.15667 -2.08124 7046.697)
(78.38743 1.976851 10813.74)
(81.70748 22.0282 15656.3)
(42.92667 87.6817 20498.15)
(36.292 9.182364 1152.633)
(43.36046 6.959595 3674.189)
(53.29923 3.996379 6556.761)
(66.9283 0.9011436 9927.569)
(84.42569 0.6797514 14021.27)
(95.9575 12.63151 17400.24)
(52.21711 65.08043 20187.63)
(31.13743 24.49888 1089.629)
(36.61301 22.8068 3458.24)
(44.27367 19.61887 6135.029)
(55.08883 14.5648 9211.26)
(70.23491 7.302992 12835.28)
(90.84451 -1.340349 15562.08)
(107.8918 -6.040798 17213.89)
(59.73065 5.59187 19712.06)
(27.2337 37.60541 1030.315)
(31.51531 36.97313 3258.271)
(37.46768 34.89009 5754.104)
(45.74689 30.69307 8586.651)
(57.43131 23.56062 11862.85)
(73.97145 12.13363 14201.82)
(95.88496 -3.085859 15384.5)
(115.8633 -23.78056 16932.14)
(64.22755 -56.65978 19101.85)
(24.23728 40.38828 975.7576)
(27.67783 40.57856 3076.622)
(32.39237 39.65104 5413.649)
(38.87052 37.15239 8041.696)
(47.81897 32.3337 11042.5)
(60.40401 24.15034 13116.72)
(77.35168 12.43312 14050.1)
(99.90829 -4.484981 15185.48)
(120.6408 -31.6851 16639.1)
(66.3877 -86.30835 18538.97)
(21.85955 33.69593 927.1288)
(24.68631 34.16751 2916.092)
(28.52869 33.92458 5116.284)
(33.72397 32.67364 7572.888)
(40.79099 30.00024 10352.27)
(50.48903 25.22049 12229.97)
(63.32868 18.49224 13010.26)
(80.60487 8.747379 13920.06)
(103.5214 -5.813854 15017.87)
(124.0168 -30.73889 16400.31)
(67.59106 -83.97969 16175.06)
(19.88988 21.56482 884.5437)
(22.26275 21.95837 2776.39)
(25.46107 21.96911 4859.584)
(29.74471 21.45679 7172.678)
(35.47601 20.20947 9771.307)
(43.21 17.92349 11497.78)
(53.14395 14.74504 12172.75)
(66.26608 10.28667 12941.92)
(83.89532 3.814451 13835.67)
(107.1734 -5.996536 14908.22)
(127.3472 -23.23309 14512.18)
(68.15697 -58.82599 12205.6)
(18.20616 7.268694 847.5315)
(20.22742 7.416043 2655.517)
(22.94227 7.449999 4638.825)
(26.54599 7.331309 6831.238)
(31.31932 7.004279 9280.935)
(37.65597 6.385405 10887.22)
(45.61553 5.547733 11485.86)
(55.82296 4.392876 12157.38)
(69.28636 2.780745 12921.44)
(87.36226 0.4450778 13807.53)
(111.1878 -3.11082 13286.64)
(130.2876 -8.99941 11081.22)
(68.83122 -21.33552 8566.215)
(30.53756 -131.6378 1932.997)
(63.40894 -29.4496 1682.532)
(26.64479 -117.2585 5915.847)
(69.95022 -2.411758 1517.133)
(60.12716 -20.78742 5085.613)
(25.1009 -78.88681 10019.79)
(61.08705 0.8523012 1396.014)
(70.27428 -0.8518419 4571.804)
(61.13761 -7.402221 8546.372)
(26.68137 -27.07625 14232.97)
(51.39404 -1.046308 1300.706)
(61.95614 -0.8594396 4204.656)
(72.6486 0.7825272 7670.154)
(66.90328 7.070575 12081.72)
(31.63198 25.63825 18564.07)
(43.06836 -1.749168 1221.734)
(52.08881 -2.483941 3917.789)
(63.88599 -2.286811 7052.241)
(77.0438 1.596722 10832.08)
(77.22675 17.45999 15716.28)
(39.74551 65.10141 20697.31)
(36.44919 1.514455 1153.857)
(43.54546 -0.02276306 3679.157)
(53.44227 -1.712722 6568.668)
(66.77016 -2.647506 9953.307)
(83.13693 0.5605249 14078.29)
(91.19688 18.13113 17527.23)
(48.86376 76.97815 20523.3)
(31.25752 10.60135 1093.283)
(36.79895 8.964075 3471.115)
(44.53234 6.414854 6161.142)
(55.39073 2.925335 9257.729)
(70.41071 -1.097826 12915.86)
(90.32335 -3.200624 15691.58)
(104.8914 5.758039 17430.67)
(57.72841 48.29521 20215.87)
(27.24407 25.12163 1037.083)
(31.5827 24.05043 3281.103)
(37.62276 21.76947 5797.873)
(46.02476 17.76408 8659.036)
(57.86808 11.50434 11976.61)
(74.5643 2.318292 14359.71)
(96.49259 -8.091016 15592.4)
(116.07 -16.63252 17245.08)
(64.66389 -17.28574 19742.8)
(24.15604 37.19031 983.4881)
(27.62803 36.99429 3102.244)
(32.39779 35.60204 5461.584)
(38.96855 32.53096 8118.521)
(48.06266 26.99644 11158.15)
(60.87699 17.95732 13268.12)
(78.14504 5.344748 14231.49)
(101.225 -11.84346 15415.28)
(123.1743 -36.53249 16963.61)
(68.50381 -81.35819 19133)
(21.75098 39.40337 933.7317)
(24.58957 39.79083 2937.757)
(28.45862 39.25885 5156.286)
(33.70272 37.4254 7635.913)
(40.85469 33.75391 10445.07)
(50.69355 27.36252 12347.98)
(63.74985 18.40856 13145.96)
(81.36998 5.595003 14080.55)
(104.963 -13.06229 15216.85)
(127.2224 -43.58931 16670.88)
(70.12353 -107.3576 16583.02)
(19.8017 32.69838 889.0626)
(22.1775 33.23575 2791.12)
(25.38609 33.1606 4886.55)
(29.69162 32.24654 7214.716)
(35.46252 30.15035 9832.365)
(43.26541 26.38161 11574.16)
(53.30393 21.14424 12258.66)
(66.59155 13.81299 13040.28)
(84.49795 3.228952 13951.2)
(108.3562 -12.6234 15049.8)
(130.0776 -39.91688 14680.17)
(70.21146 -95.87963 12411.88)
(18.15853 20.88514 849.7296)
(20.17987 21.28915 2662.647)
(22.89764 21.35899 4651.801)
(26.50859 20.97822 6851.315)
(31.29599 19.98159 9309.826)
(37.65719 18.12087 10922.97)
(45.6541 15.60459 11525.54)
(55.91838 12.1378 12201.96)
(69.47269 7.30312 12972.38)
(87.70423 0.3139737 13867.16)
(111.8633 -10.27778 13351.46)
(131.823 -27.67847 11146.32)
(69.95439 -64.05808 8638.093)
(16.7319 7.03464 815.394)
(18.47326 7.180768 2550.914)
(20.80991 7.22575 4448.643)
(23.89804 7.13724 6538.921)
(27.95153 6.86903 8864.384)
(33.27781 6.355559 10373.32)
(39.8282 5.672241 10913.69)
(48.04699 4.75618 11513.87)
(58.57945 3.503503 12186.75)
(72.46697 1.764287 12951.97)
(91.13116 -0.7448841 12370.48)
(114.7957 -4.248526 10212.72)
(133.4962 -10.1038 7846.64)
(69.97501 -22.47717 5115.24)
(35.41477 -118.8608 1884.546)
(69.79006 -32.61554 1670.712)
(31.5867 -128.3958 5818.414)
(71.42067 -3.99501 1514.691)
(65.21256 -28.72341 5066.598)
(28.90954 -113.1283 9923.513)
(61.28025 2.137235 1395.836)
(71.12234 -2.280209 4569.224)
(63.87349 -20.06122 8532.606)
(28.68194 -75.50731 14170.39)
(51.39404 1.046308 1300.706)
(61.95615 0.8594396 4204.656)
(72.6486 -0.7825274 7670.154)
(66.90328 -7.070575 12081.72)
(31.63198 -25.63825 18564.07)
(43.11677 -0.8358984 1221.529)
(52.09198 -1.042777 3917.569)
(63.70399 -0.87561 7053.33)
(76.24645 0.6751233 10838.5)
(74.7155 6.619857 15742.04)
(37.96951 23.8004 20788.73)
(36.5545 -0.8967765 1153.806)
(43.65632 -1.745265 3679.564)
(53.49044 -2.515023 6571.106)
(66.52413 -2.450357 9961.562)
(81.87878 1.021357 14102.88)
(87.06056 15.5298 17594.49)
(45.94509 59.31783 20720.58)
(31.37397 2.670794 1094.249)
(36.9587 1.467529 3474.911)
(44.72558 -0.1691597 6169.816)
(55.55553 -2.064807 9275.231)
(70.31069 -3.440972 12950.57)
(89.21033 -1.287698 15756.08)
(100.6757 14.25802 17557)
(54.79187 66.36385 20548.96)
(27.3151 11.54767 1040.292)
(31.70689 10.41655 3292.214)
(37.8199 8.515523 5819.879)
(46.30799 5.568119 8696.84)
(58.22214 1.437515 12038.78)
(74.85824 -3.710356 14450.96)
(96.2228 -7.08045 15721.92)
(113.8204 -1.092595 17461.42)
(63.23493 31.60447 20244.53)
(24.13072 25.31295 989.6071)
(27.64415 24.72257 3122.682)
(32.47966 23.14113 5500.24)
(39.15216 20.17583 8181.317)
(48.39344 15.21133 11254.27)
(61.41287 7.527621 13396.35)
(78.89782 -2.66242 14389.08)
(102.1438 -14.83714 15623)
(124.2481 -27.21188 17276.46)
(69.59602 -40.11525 19773.76)
(21.65489 36.53983 940.8021)
(24.5141 36.63633 2961.028)
(28.42267 35.76299 5199.442)
(33.73396 33.50949 7704.285)
(40.99714 29.30528 10546.45)
(51.0125 22.22228 12477.85)
(64.32723 12.37546 13296.68)
(82.32274 -1.425731 14261.32)
(106.5683 -20.58663 15446.12)
(130.4862 -49.275 16994.99)
(72.77958 -106.0516 17111.32)
(19.69075 38.3417 895.145)
(22.07343 38.85644 2810.972)
(25.29988 38.59085 4922.964)
(29.64057 37.25225 7271.62)
(35.47268 34.39515 9915.27)
(43.37946 29.3851 11678.17)
(53.57317 22.41858 12376)
(67.10038 12.69376 13175.3)
(85.3924 -1.216971 14110.99)
(110.0207 -21.61506 15248.07)
(133.8043 -55.47239 14920.7)
(73.03697 -123.7585 12722.11)
(18.07226 31.70465 853.9139)
(20.09456 32.27433 2676.228)
(22.819 32.31267 4676.535)
(26.4453 31.63228 6889.625)
(31.26174 29.96689 9365.03)
(37.67292 26.91514 10991.36)
(45.74544 22.78438 11601.49)
(56.12411 17.09028 12287.41)
(69.8593 9.156954 13070.26)
(88.39529 -2.265367 13982.17)
(113.194 -19.408 13477.33)
(134.8078 -47.07967 11274.19)
(72.14181 -104.6399 8783.169)
(16.68604 20.22591 817.4379)
(18.42695 20.62985 2557.52)
(20.76536 20.7364 4460.612)
(23.85863 20.44997 6557.343)
(27.92241 19.63363 8890.724)
(33.26704 18.09299 10405.67)
(39.84446 16.04408 10949.25)
(48.10398 13.29821 11553.35)
(58.69823 9.54388 12231.12)
(72.68429 4.33379 13002.68)
(91.51748 -3.171283 12423.51)
(115.5281 -13.62411 10262.12)
(135.1211 -30.95211 7892.424)
(71.13965 -67.50418 5157.936)
(15.46456 6.810091 785.4772)
(16.98011 6.952883 2453.821)
(19.01294 7.004456 4272.769)
(21.69164 6.937256 6269.881)
(25.1877 6.713103 8483.302)
(29.73652 6.277711 9906.358)
(35.24278 5.710267 10398.2)
(42.00662 4.962735 10940.19)
(50.48428 3.968539 11541.83)
(61.34139 2.618327 12215.98)
(75.65254 0.7523627 11607.38)
(94.07928 -1.676162 9514.229)
(117.4558 -5.086956 7235.094)
(135.6121 -10.83081 4686.975)
(70.54428 -23.0434 1703.077)
(38.88992 -89.86935 1823.803)
(75.77861 -35.33727 1650.658)
(36.35032 -114.4931 5673.303)
(73.04959 -7.941063 1508.957)
(71.48622 -31.34059 5031.036)
(33.68707 -121.936 9760.839)
(61.57535 1.544121 1394.82)
(72.57152 -3.667993 4561.804)
(68.82511 -27.2665 8500.674)
(32.33615 -106.9004 14034.33)
(51.3924 2.471254 1300.795)
(62.14561 2.185027 4204.073)
(73.47638 -2.011732 7665.737)
(69.54339 -18.95948 12062.16)
(33.53382 -70.94114 18482.18)
(43.11677 0.8358986 1221.529)
(52.09198 1.042777 3917.569)
(63.70399 0.87561 7053.33)
(76.24645 -0.6751234 10838.5)
(74.7155 -6.619858 15742.04)
(37.96951 -23.8004 20788.73)
(36.60532 -0.5621674 1153.549)
(43.70541 -0.8277045 3678.989)
(53.49671 -1.037493 6570.843)
(66.35339 -0.9029924 9963.281)
(81.12235 0.5257569 14111.53)
(84.71345 6.040367 17623.31)
(44.29364 21.98148 20811.04)
(31.45681 -0.1878891 1094.107)
(37.06501 -0.8844351 3474.83)
(44.8402 -1.742415 6170.705)
(55.61496 -2.570917 9279.052)
(70.0981 -2.685798 12961.95)
(88.06112 0.2671225 15783.93)
(96.88026 13.61667 17623.69)
(52.13306 53.59163 20744.32)
(27.39481 3.507353 1041.076)
(31.82509 2.637814 3295.218)
(37.98495 1.365871 5826.54)
(46.51397 -0.4052559 8709.681)
(58.41677 -2.565626 12062.59)
(74.83296 -4.491112 14490.47)
(95.28396 -3.13348 15786.35)
(110.1447 10.41038 17587.02)
(60.7115 55.84027 20575)
(24.16457 12.1088 992.4629)
(27.71838 11.38796 3132.44)
(32.61223 10.03675 5519.229)
(39.3666 7.817384 8213.189)
(48.7105 4.389071 11304.91)
(61.83454 -0.5140395 13466.84)
(79.30968 -6.328226 14480.45)
(102.1242 -10.95859 15752.52)
(122.7448 -7.919436 17492.34)
(68.73715 15.00725 20273.48)
(21.60563 25.20696 946.3783)
(24.49354 24.95396 2979.503)
(28.45047 23.91379 5234.032)
(33.83807 21.74461 7759.723)
(41.22001 17.98273 10629.8)
(51.41197 11.89378 12586.16)
(64.96232 3.555339 13424.58)
(83.23557 -7.640282 14418.69)
(107.7982 -21.58039 15653.75)
(132.4263 -37.78178 17307.9)
(74.52736 -62.90501 17681.2)
(19.58624 35.73687 901.6481)
(21.98225 36.03397 2832.254)
(25.236 35.52045 4962.151)
(29.62576 33.88448 7333.154)
(35.53926 30.6496 10005.45)
(43.57935 25.14149 11791.97)
(53.96726 17.46939 12505.22)
(67.78205 6.812481 13325.4)
(86.50456 -8.180868 14291.21)
(111.9146 -29.31921 15476.89)
(137.7987 -62.01339 15209.01)
(76.11305 -125.2853 13123.77)
(17.96171 37.24869 859.5418)
(19.98751 37.83828 2694.515)
(22.72394 37.75801 4709.898)
(26.37512 36.7668 6941.411)
(31.23663 34.52134 9439.851)
(37.72358 30.50186 11084.25)
(45.90963 25.0418 11704.89)
(56.45784 17.5 12404.13)
(70.45555 7.003795 13204.63)
(89.41886 -8.005278 14141.3)
(115.0813 -30.14621 13653.62)
(138.94 -64.74261 11457.24)
(75.18298 -135.8332 9001.386)
(16.60254 30.73019 821.3267)
(18.34321 31.31217 2570.096)
(20.6858 31.42365 4483.416)
(23.79004 30.91185 6592.474)
(27.87505 29.55676 8941.013)
(33.25703 27.04553 10467.48)
(39.88926 23.69953 11017.24)
(48.23108 19.20755 11628.88)
(58.94953 13.05751 12316.13)
(73.13184 4.522896 13100.1)
(92.29674 -7.736987 12525.79)
(116.9737 -24.70969 10358.02)
(138.293 -52.35402 7982.356)
(73.41471 -110.4113 5244.129)
(15.42062 19.59153 787.384)
(16.93542 19.9886 2459.964)
(18.96926 20.11787 4283.859)
(21.65164 19.89822 6286.871)
(25.15541 19.21686 8507.463)
(29.71804 17.91306 9935.846)
(35.24451 16.21513 10430.38)
(42.03783 13.97866 10975.58)
(50.55961 11.00388 11581.12)
(61.48343 6.962732 12260.14)
(75.90075 1.378059 11652.5)
(94.5001 -5.898524 9554.68)
(118.2298 -16.08998 7269.854)
(137.2959 -33.10714 4714.152)
(71.72953 -69.21365 1717.233)
(14.3652 6.595213 757.5472)
(15.69595 6.733822 2363.396)
(17.48197 6.788914 4109.478)
(19.82992 6.737192 6021.097)
(22.88121 6.546136 8132.661)
(26.82493 6.170806 9479.125)
(31.52829 5.689504 9929.576)
(37.21425 5.068289 10423.12)
(44.19119 4.256759 10966.67)
(52.92734 3.184665 11569.67)
(64.10865 1.737186 10950.57)
(78.14661 -0.0403724 8931.995)
(96.25404 -2.36294 6743.083)
(119.21 -5.638918 4322.997)
(136.6652 -11.19089 1560.76)
(40.5096 -59.80488 1767.863)
(79.86249 -38.92102 1621.726)
(39.69823 -85.20203 5491.056)
(74.30841 -18.13653 1497.297)
(77.32761 -33.37781 4970.609)
(38.22555 -105.7665 9517.953)
(61.8183 -3.738155 1391.46)
(74.1666 -7.245304 4544.409)
(74.88608 -28.77596 8440.784)
(36.86692 -112.1735 13804.01)
(51.35524 1.38549 1300.389)
(62.43256 1.719178 4200.916)
(74.8834 -3.002427 7653.067)
(74.29434 -25.05052 12016.69)
(36.98009 -98.473 18303.92)
(43.06836 1.749168 1221.734)
(52.08881 2.483941 3917.789)
(63.88599 2.286811 7052.241)
(77.0438 -1.596723 10832.08)
(77.22675 -17.45999 15716.28)
(39.74551 -65.10141 20697.31)
(36.60532 0.5621675 1153.549)
(43.70541 0.8277046 3678.989)
(53.49671 1.037493 6570.843)
(66.35339 0.9029924 9963.281)
(81.12235 -0.525757 14111.53)
(84.71345 -6.040367 17623.31)
(44.29364 -21.98148 20811.04)
(31.49823 -0.3277068 1093.826)
(37.11613 -0.5518717 3474.091)
(44.89069 -0.8128698 6169.835)
(55.62596 -1.03226 9278.846)
(69.94259 -0.9443855 12964.46)
(87.35676 0.3292274 15793.73)
(94.69549 5.466968 17652.2)
(50.60486 20.18191 20833.8)
(27.4549 0.345838 1040.88)
(31.90852 -0.1709807 3294.854)
(38.09334 -0.8639772 5826.585)
(46.6344 -1.746009 8711.267)
(58.49161 -2.659625 12068.12)
(74.66319 -3.005887 14503.58)
(94.24244 -0.484666 15814.12)
(106.6864 11.72152 17653.12)
(58.30988 47.92401 20768.4)
(24.21501 4.068803 993.1104)
(27.79937 3.483846 3134.88)
(32.73409 2.565212 5524.524)
(39.53987 1.199289 8223.11)
(48.93407 -0.7462734 11322.51)
(62.06779 -3.238209 13494.09)
(79.35866 -5.545617 14520.08)
(101.358 -4.975467 15816.83)
(119.6042 6.589737 17617.18)
(66.62314 45.40879 20601.31)
(21.6129 12.39061 948.9456)
(24.52996 11.96867 2988.183)
(28.53123 11.05979 5250.704)
(33.98359 9.445168 7787.231)
(41.45834 6.843774 10672.52)
(51.77305 2.838804 12643.59)
(65.45162 -2.472043 13495.2)
(83.76512 -8.950358 14510.17)
(108.0278 -14.83395 15783.25)
(131.6655 -14.72157 17523.33)
(74.23556 -1.497512 18124.72)
(19.52122 24.89306 906.7619)
(21.93702 24.88121 2849.087)
(25.2251 24.22674 4993.406)
(29.67149 22.6721 7382.737)
(35.67398 19.82332 10079.01)
(43.85323 15.13304 11885.84)
(54.43548 8.581529 12613.17)
(68.5165 -0.4133946 13453.04)
(87.57764 -12.61647 14448.44)
(113.4559 -28.32248 15684.54)
(140.605 -48.34519 15487.48)
(78.37086 -80.65151 13557.04)
(17.8532 34.84455 865.5517)
(19.88724 35.27219 2714.089)
(22.64264 35.01523 4745.729)
(26.32895 33.81866 6997.264)
(31.25075 31.31831 9520.974)
(37.83586 26.95999 11185.42)
(46.16682 20.9986 11818.06)
(56.92697 12.73554 12532.75)
(71.24149 1.265788 13354.19)
(90.69044 -14.92376 14321.06)
(117.264 -38.0451 13857.2)
(143.5027 -71.94633 11676.58)
(78.56834 -139.4488 9284.02)
(16.49399 36.15104 826.5543)
(18.23607 36.78318 2587.018)
(20.58656 36.82724 4514.147)
(23.7087 36.0887 6639.907)
(27.82673 34.28529 9009.074)
(33.26535 31.0145 10551.29)
(39.98024 26.63244 11109.57)
(48.44521 20.72234 11731.7)
(59.34755 12.60489 12432.25)
(73.81531 1.33649 13233.87)
(93.44923 -14.77242 12667.31)
(119.0343 -36.80986 10492.32)
(142.7235 -71.56795 8111.093)
(76.59814 -143.7925 5373.837)
(15.34035 29.7842 791.0102)
(16.85415 30.36553 2471.654)
(18.89056 30.52471 4304.975)
(21.58081 30.13293 6319.252)
(25.10049 29.01011 8553.561)
(29.69118 26.89826 9992.142)
(35.2586 24.14219 10491.83)
(42.11156 20.50265 11043.19)
(50.72231 15.65013 11656.26)
(61.78012 9.044812 12344.74)
(76.40905 -0.0904478 11739.15)
(95.34798 -12.01751 9632.686)
(119.76 -28.61598 7337.323)
(140.5912 -55.8264 4767.536)
(74.04818 -113.2759 1745.814)
(14.32342 18.98383 759.3312)
(15.65304 19.37022 2369.127)
(17.43961 19.5126 4119.791)
(19.79023 19.34162 6036.834)
(22.84739 18.76153 8154.936)
(26.80178 17.63963 9506.17)
(31.5204 16.20227 9958.911)
(37.22841 14.34762 10455.14)
(44.23728 11.92417 11001.88)
(53.02092 8.721105 11608.78)
(64.27385 4.393799 10989.87)
(78.41886 -0.9371401 8966.438)
(96.7002 -7.909569 6771.558)
(120.0115 -17.71329 4343.627)
(138.3783 -34.17458 1569.762)
(13.40542 6.392298 731.4063)
(14.58148 6.523853 2278.934)
(16.16411 6.580829 3957.354)
(18.24177 6.540388 5790.12)
(20.93198 6.374949 7808.497)
(24.39086 6.046256 9085.975)
(28.46923 5.63134 9500.607)
(33.32688 5.104306 9952.837)
(39.1922 4.429505 10448.02)
(46.38185 3.554179 10993.04)
(55.37606 2.404409 10373.47)
(66.27704 1.046284 8430.488)
(79.9875 -0.6253668 6332.778)
(97.68855 -2.815185 4030.121)
(120.0832 -5.912144 1439.799)
(40.95831 -37.54519 1724.557)
(81.65005 -39.12093 1591.389)
(41.2155 -55.83504 5322.976)
(74.91818 -31.15501 1478.293)
(81.24453 -36.55025 4883.421)
(41.32046 -75.8563 9212.235)
(61.86706 -16.65139 1383.374)
(75.37755 -16.90997 4509.113)
(80.43537 -29.43267 8338.835)
(41.06679 -92.54891 13459.37)
(51.23341 -5.023977 1298.157)
(62.66151 -3.28034 4190.645)
(76.41115 -5.833446 7623.458)
(80.03574 -24.86706 11931.2)
(41.1783 -98.93767 18001.71)
(42.95933 -0.04584513 1221.627)
(52.04801 1.491006 3916.475)
(64.15667 2.08124 7046.697)
(78.38743 -1.976851 10813.74)
(81.70748 -22.02821 15656.3)
(42.92667 -87.6817 20498.15)
(36.5545 0.8967767 1153.806)
(43.65632 1.745265 3679.564)
(53.49044 2.515023 6571.106)
(66.52413 2.450357 9961.562)
(81.87878 -1.021357 14102.88)
(87.06056 -15.5298 17594.49)
(45.94509 -59.31783 20720.58)
(31.49823 0.3277069 1093.826)
(37.11613 0.5518718 3474.091)
(44.89069 0.81287 6169.835)
(55.62596 1.03226 9278.846)
(69.94259 0.9443855 12964.46)
(87.35676 -0.3292275 15793.73)
(94.69549 -5.466969 17652.2)
(50.60486 -20.18191 20833.8)
(27.48575 -0.1480297 1040.591)