/*--------------------------------*- C++ -*----------------------------------*\
| =========                 |                                                 |
| \\      /  F ield         | OpenFOAM: The Open Source CFD Toolbox           |
|  \\    /   O peration     | Version:  2306                                  |
|   \\  /    A nd           | Website:  www.openfoam.com                      |
|    \\/     M anipulation  |                                                 |
\*---------------------------------------------------------------------------*/
FoamFile
{
    version     2.0;
    format      ascii;
    arch        "LSB;label=32;scalar=64";
    class       volScalarField;
    location    "1.5/phiI";
    object      J;
}
// * * * * * * * * * * * * * * * * * * * * * * * * * * * * * * * * * * * * * //

dimensions      [0 -3 0 0 0 1 0];

internalField   nonuniform List<scalar> 
12000
(
-8.364087e+08
-8.43612e+08
-7.650854e+08
-8.417402e+08
-8.581211e+08
-7.697248e+08
-8.490497e+08
-7.046187e+08
-7.697333e+08
-8.562971e+08
-8.79874e+08
-7.78829e+08
-8.637699e+08
-7.08164e+08
-7.744439e+08
-8.638662e+08
-6.560999e+08
-7.087512e+08
-7.822867e+08
-8.804878e+08
-9.07975e+08
-7.917961e+08
-8.858239e+08
-7.15048e+08
-7.836903e+08
-8.79111e+08
-6.590142e+08
-7.123506e+08
-7.871632e+08
-8.884817e+08
-6.157548e+08
-6.598453e+08
-7.197651e+08
-8.030585e+08
-9.151816e+08
-9.38687e+08
-8.071277e+08
-9.14254e+08
-7.246439e+08
-7.96868e+08
-9.019475e+08
-6.64642e+08
-7.193426e+08
-7.9674e+08
-9.045886e+08
-6.182424e+08
-6.628033e+08
-7.234882e+08
-8.08202e+08
-9.237884e+08
-5.810949e+08
-6.191903e+08
-6.697056e+08
-7.379058e+08
-8.327236e+08
0
-9.633433e+08
-8.21705e+08
-9.451815e+08
-7.355389e+08
-8.124681e+08
-9.313498e+08
-6.723992e+08
-7.290992e+08
-8.10403e+08
-9.287259e+08
-6.230311e+08
-6.685183e+08
-7.307251e+08
-8.183104e+08
-9.41142e+08
-5.832671e+08
-6.217145e+08
-6.727628e+08
-7.418265e+08
-8.382479e+08
0
-5.50716e+08
-5.842701e+08
-6.281384e+08
-6.858802e+08
-7.637102e+08
0
0
-9.800947e+08
-8.317658e+08
-9.699117e+08
-7.45129e+08
-8.273349e+08
-9.63223e+08
-6.810199e+08
-7.402056e+08
-8.266083e+08
-9.597919e+08
-6.295897e+08
-6.76405e+08
-7.408385e+08
-8.327522e+08
-9.671717e+08
-5.874404e+08
-6.265761e+08
-6.786733e+08
-7.494538e+08
-8.491142e+08
0
-5.526438e+08
-5.864737e+08
-6.307452e+08
-6.890949e+08
-7.679107e+08
0
0
-5.236757e+08
-5.536672e+08
-5.924645e+08
-6.427648e+08
-7.088105e+08
0
0
0
-9.901103e+08
-8.37758e+08
-9.866394e+08
-7.509068e+08
-8.376016e+08
-9.886227e+08
-6.882847e+08
-7.500426e+08
-8.420993e+08
-9.933914e+08
-6.367909e+08
-6.851973e+08
-7.523887e+08
-8.499239e+08
-1.000691e+09
-5.931334e+08
-6.332425e+08
-6.868434e+08
-7.601323e+08
-8.646663e+08
0
-5.563426e+08
-5.907092e+08
-6.357693e+08
-6.953155e+08
-7.760903e+08
0
0
-5.254066e+08
-5.556223e+08
-5.947385e+08
-6.455025e+08
-7.122473e+08
0
0
0
-4.993519e+08
-5.264306e+08
-5.612231e+08
-6.058181e+08
-6.634412e+08
0
0
0
0
-9.947499e+08
-8.410112e+08
-9.966023e+08
-7.537436e+08
-8.436949e+08
-1.005738e+09
-6.922593e+08
-7.560131e+08
-8.52808e+08
-1.020095e+09
-6.427094e+08
-6.926676e+08
-7.626904e+08
-8.663992e+08
-1.036907e+09
-5.993385e+08
-6.405862e+08
-6.959868e+08
-7.723743e+08
-8.832125e+08
0
-5.613752e+08
-5.964939e+08
-6.426702e+08
-7.039315e+08
-7.875665e+08
0
0
-5.287243e+08
-5.593751e+08
-5.991124e+08
-6.507833e+08
-7.189043e+08
0
0
0
-5.009201e+08
-5.281855e+08
-5.632393e+08
-6.082035e+08
-6.663626e+08
0
0
0
0
-4.772799e+08
-5.019327e+08
-5.33435e+08
-5.735034e+08
-6.246489e+08
0
0
0
0
0
-9.947499e+08
-8.424354e+08
-1.001206e+09
-7.549598e+08
-8.469838e+08
-1.015899e+09
-6.938768e+08
-7.589608e+08
-8.591468e+08
-1.038033e+09
-6.457408e+08
-6.968079e+08
-7.68992e+08
-8.778039e+08
-1.065633e+09
-6.04361e+08
-6.466766e+08
-7.038261e+08
-7.833739e+08
-9.010808e+08
0
-5.668347e+08
-6.028195e+08
-6.503034e+08
-7.136166e+08
-8.007776e+08
0
0
-5.332303e+08
-5.644869e+08
-6.050961e+08
-6.580521e+08
-7.281463e+08
0
0
0
-5.03924e+08
-5.315506e+08
-5.67112e+08
-6.127954e+08
-6.720036e+08
0
0
0
0
-4.78711e+08
-5.035223e+08
-5.352436e+08
-5.75616e+08
-6.271901e+08
0
0
0
0
0
-4.57118e+08
-4.79705e+08
-5.084547e+08
-5.447924e+08
-5.907835e+08
0
0
0
0
0
9.435283e+08
-9.901103e+08
-8.424354e+08
-1.001206e+09
-7.553876e+08
-8.48416e+08
-1.020583e+09
-6.943513e+08
-7.602297e+08
-8.62552e+08
-1.048654e+09
-6.467876e+08
-6.985254e+08
-7.721252e+08
-8.845424e+08
-1.084887e+09
-6.068162e+08
-6.498485e+08
-7.082304e+08
-7.901563e+08
-9.134693e+08
0
-5.71211e+08
-6.079871e+08
-6.566976e+08
-7.219996e+08
-8.127382e+08
0
0
-5.381028e+08
-5.700499e+08
-6.116664e+08
-6.661299e+08
-7.385844e+08
0
0
0
-5.079983e+08
-5.361258e+08
-5.723958e+08
-6.190908e+08
-6.797868e+08
0
0
0
0
-4.814506e+08
-5.065682e+08
-5.387139e+08
-5.796774e+08
-6.320872e+08
0
0
0
0
0
-4.584317e+08
-4.811552e+08
-5.10092e+08
-5.466856e+08
-5.930309e+08
0
0
0
0
0
9.517473e+08
-4.385981e+08
-4.594026e+08
-4.858003e+08
-5.190078e+08
-5.607436e+08
0
0
0
0
0
8.607558e+08
9.05675e+08
-9.800947e+08
-8.410112e+08
-9.966023e+08
-7.553876e+08
-8.48416e+08
-1.020583e+09
-6.944282e+08
-7.606773e+08
-8.640285e+08
-1.053542e+09
-6.469481e+08
-6.990507e+08
-7.734832e+08
-8.881493e+08
-1.096265e+09
-6.075519e+08
-6.509816e+08
-7.100964e+08
-7.935551e+08
-9.207812e+08
0
-5.732779e+08
-6.10562e+08
-6.60087e+08
-7.267736e+08
-8.201698e+08
0
0
-5.419823e+08
-5.745502e+08
-6.170901e+08
-6.729682e+08
-7.47706e+08
0
0
0
-5.123941e+08
-5.410883e+08
-5.781696e+08
-6.260363e+08
-6.884799e+08
0
0
0
0
-4.851628e+08
-5.107037e+08
-5.434399e+08
-5.852304e+08
-6.388173e+08
0
0
0
0
0
-4.609453e+08
-4.839322e+08
-5.132311e+08
-5.503214e+08
-5.973558e+08
0
0
0
0
0
9.68379e+08
-4.3981e+08
-4.607336e+08
-4.872931e+08
-5.207201e+08
-5.627548e+08
0
0
0
0
0
8.659389e+08
9.133455e+08
-4.215085e+08
-4.407554e+08
-4.651176e+08
-4.956448e+08
-5.338046e+08
0
0
0
0
0
7.905576e+08
8.283002e+08
8.78893e+08
-9.633433e+08
-8.37758e+08
-9.866394e+08
-7.549598e+08
-8.469838e+08
-1.015899e+09
-6.944282e+08
-7.606773e+08
-8.640285e+08
-1.053542e+09
-6.468864e+08
-6.991481e+08
-7.739652e+08
-8.897079e+08
-1.101495e+09
-6.075618e+08
-6.511869e+08
-7.106937e+08
-7.950412e+08
-9.246851e+08
0
-5.738253e+08
-6.113717e+08
-6.613426e+08
-7.288405e+08
-8.239245e+08
0
0
-5.437661e+08
-5.7672e+08
-6.198482e+08
-6.766577e+08
-7.529684e+08
0
0
0
-5.158771e+08
-5.45075e+08
-5.828894e+08
-6.318333e+08
-6.959179e+08
0
0
0
0
-4.891612e+08
-5.151783e+08
-5.485862e+08
-5.913271e+08
-6.462807e+08
0
0
0
0
0
-4.643489e+08
-4.876989e+08
-5.175e+08
-5.552829e+08
-6.032833e+08
0
0
0
0
0
9.935038e+08
-4.421277e+08
-4.632809e+08
-4.901536e+08
-5.240058e+08
-5.666212e+08
0
0
0
0
0
8.761407e+08
9.288579e+08
-4.226313e+08
-4.419829e+08
-4.664869e+08
-4.972047e+08
-5.356214e+08
0
0
0
0
0
7.944576e+08
8.331607e+08
8.861962e+08
-4.056771e+08
-4.235499e+08
-4.461288e+08
-4.743323e+08
-5.094272e+08
0
0
0
0
0
7.342432e+08
7.624381e+08
8.051492e+08
8.624325e+08
-9.38687e+08
-8.317658e+08
-9.699117e+08
-7.537436e+08
-8.436949e+08
-1.005738e+09
-6.943513e+08
-7.602297e+08
-8.62552e+08
-1.048654e+09
-6.468864e+08
-6.991481e+08
-7.739652e+08
-8.897079e+08
-1.101495e+09
-6.074405e+08
-6.511436e+08
-7.108193e+08
-7.955734e+08
-9.263676e+08
0
-5.737571e+08
-6.114203e+08
-6.616073e+08
-7.295328e+08
-8.255822e+08
0
0
-5.441886e+08
-5.773312e+08
-6.20761e+08
-6.780748e+08
-7.552949e+08
0
0
0
-5.174441e+08
-5.469481e+08
-5.852165e+08
-6.348426e+08
-6.999993e+08
0
0
0
0
-4.923178e+08
-5.187548e+08
-5.527638e+08
-5.963672e+08
-6.525802e+08
0
0
0
0
0
-4.680101e+08
-4.917672e+08
-5.221369e+08
-5.607112e+08
-6.098251e+08
0
0
0
0
0
1.026301e+09
-4.452645e+08
-4.667333e+08
-4.940394e+08
-5.284832e+08
-5.719101e+08
0
0
0
0
0
8.908129e+08
9.522704e+08
-4.247776e+08
-4.443312e+08
-4.691093e+08
-5.001961e+08
-5.391111e+08
0
0
0
0
0
8.020391e+08
8.427234e+08
9.009629e+08
-4.067211e+08
-4.246869e+08
-4.473911e+08
-4.757621e+08
-5.110804e+08
0
0
0
0
0
7.374151e+08
7.661105e+08
8.097885e+08
8.695312e+08
-3.909624e+08
-4.076125e+08
-4.286149e+08
-4.547799e+08
-4.872156e+08
0
0
0
0
0
6.874267e+08
7.094357e+08
7.422624e+08
7.907194e+08
8.553083e+08
-9.07975e+08
-8.21705e+08
-9.451815e+08
-7.509068e+08
-8.376016e+08
-9.886227e+08
-6.938768e+08
-7.589608e+08
-8.591468e+08
-1.038033e+09
-6.469481e+08
-6.990507e+08
-7.734832e+08
-8.881493e+08
-1.096265e+09
-6.074405e+08
-6.511436e+08
-7.108193e+08
-7.955734e+08
-9.263676e+08
0
-5.736097e+08
-6.113151e+08
-6.615874e+08
-7.296947e+08
-8.261816e+08
0
0
-5.440769e+08
-5.772965e+08
-6.208598e+08
-6.78415e+08
-7.561074e+08
0
0
0
-5.177789e+08
-5.474261e+08
-5.859161e+08
-6.358899e+08
-7.016213e+08
0
0
0
0
-4.937122e+08
-5.204002e+08
-5.547737e+08
-5.989092e+08
-6.559157e+08
0
0
0
0
0
-4.708923e+08
-4.95006e+08
-5.258813e+08
-5.651677e+08
-6.152957e+08
0
0
0
0
0
1.061818e+09
-4.486354e+08
-4.704568e+08
-4.98252e+08
-5.333691e+08
-5.777267e+08
0
0
0
0
0
9.085814e+08
9.827992e+08
-4.276811e+08
-4.475119e+08
-4.726687e+08
-5.042679e+08
-5.438778e+08
0
0
0
0
0
8.127021e+08
8.564676e+08
9.232463e+08
-4.08716e+08
-4.268609e+08
-4.498074e+08
-4.785023e+08
-5.142538e+08
0
0
0
0
0
7.435369e+08
7.732464e+08
8.189142e+08
8.838882e+08
-3.919364e+08
-4.086694e+08
-4.297836e+08
-4.560969e+08
-4.887292e+08
0
0
0
0
0
6.901122e+08
7.124323e+08
7.457762e+08
7.952292e+08
8.623426e+08
-3.772468e+08
-3.928004e+08
-4.123976e+08
-4.367584e+08
-4.668602e+08
0
0
0
0
0
6.472065e+08
6.652534e+08
6.915639e+08
7.295668e+08
7.842462e+08
-8.79874e+08
-8.071277e+08
-9.14254e+08
-7.45129e+08
-8.273349e+08
-9.63223e+08
-6.922593e+08
-7.560131e+08
-8.52808e+08
-1.020095e+09
-6.467876e+08
-6.985254e+08
-7.721252e+08
-8.845424e+08
-1.084887e+09
-6.075618e+08
-6.511869e+08
-7.106937e+08
-7.950412e+08
-9.246851e+08
0
-5.736097e+08
-6.113151e+08
-6.615874e+08
-7.296947e+08
-8.261816e+08
0
0
-5.439184e+08
-5.77163e+08
-6.207742e+08
-6.784237e+08
-7.563148e+08
0
0
0
-5.176422e+08
-5.473435e+08
-5.859242e+08
-6.360511e+08
-7.020545e+08
0
0
0
0
-4.939824e+08
-5.207837e+08
-5.553285e+08
-5.997236e+08
-6.571321e+08
0
0
0
0
0
-4.721459e+08
-4.964697e+08
-5.276468e+08
-5.673644e+08
-6.181161e+08
0
0
0
0
0
1.088952e+09
-4.512829e+08
-4.73412e+08
-5.016397e+08
-5.373591e+08
-5.825577e+08
0
0
0
0
0
9.258976e+08
1.015817e+09
-4.30799e+08
-4.509387e+08
-4.765217e+08
-5.087024e+08
-5.491063e+08
0
0
0
0
0
8.251493e+08
8.730991e+08
9.523051e+08
-4.114137e+08
-4.298043e+08
-4.530848e+08
-4.822289e+08
-5.185836e+08
0
0
0
0
0
7.52038e+08
7.832772e+08
8.320269e+08
9.055659e+08
-3.937966e+08
-4.106896e+08
-4.320195e+08
-4.586197e+08
-4.91633e+08
0
0
0
0
0
6.952713e+08
7.182136e+08
7.526026e+08
8.041004e+08
8.765789e+08
-3.781581e+08
-3.937863e+08
-4.134835e+08
-4.379768e+08
-4.68253e+08
0
0
0
0
0
6.495361e+08
6.677976e+08
6.944374e+08
7.329851e+08
7.887056e+08
-3.644307e+08
-3.789952e+08
-3.973305e+08
-4.200815e+08
-4.481171e+08
0
0
0
0
0
6.119227e+08
6.272049e+08
6.492311e+08
6.802481e+08
7.237503e+08
-8.581211e+08
-7.917961e+08
-8.858239e+08
-7.355389e+08
-8.124681e+08
-9.313498e+08
-6.882847e+08
-7.500426e+08
-8.420993e+08
-9.933914e+08
-6.457408e+08
-6.968079e+08
-7.68992e+08
-8.778039e+08
-1.065633e+09
-6.075519e+08
-6.509816e+08
-7.100964e+08
-7.935551e+08
-9.207812e+08
0
-5.737571e+08
-6.114203e+08
-6.616073e+08
-7.295328e+08
-8.255822e+08
0
0
-5.439184e+08
-5.77163e+08
-6.207742e+08
-6.784237e+08
-7.563148e+08
0
0
0
-5.174803e+08
-5.471971e+08
-5.858075e+08
-6.35989e+08
-7.020976e+08
0
0
0
0
-4.938316e+08
-5.206726e+08
-5.552832e+08
-5.997847e+08
-6.573691e+08
0
0
0
0
0
-4.723672e+08
-4.967832e+08
-5.28098e+08
-5.680188e+08
-6.19074e+08
0
0
0
0
0
1.106351e+09
-4.524189e+08
-4.747273e+08
-5.032102e+08
-5.392891e+08
-5.84996e+08
0
0
0
0
0
9.376491e+08
1.040957e+09
-4.332431e+08
-4.536514e+08
-4.7961e+08
-5.123086e+08
-5.534262e+08
0
0
0
0
0
8.365904e+08
8.892922e+08
9.837416e+08
-4.14309e+08
-4.329726e+08
-4.566285e+08
-4.862811e+08
-5.233232e+08
0
0
0
0
0
7.617469e+08
7.949779e+08
8.478919e+08
9.338708e+08
-3.963116e+08
-4.134237e+08
-4.350507e+08
-4.620485e+08
-4.955913e+08
0
0
0
0
0
7.023772e+08
7.262375e+08
7.621956e+08
8.168499e+08
8.981017e+08
-3.798978e+08
-3.956697e+08
-4.155602e+08
-4.403097e+08
-4.709237e+08
0
0
0
0
0
6.539971e+08
6.726835e+08
6.999798e+08
7.396257e+08
7.974806e+08
-3.652855e+08
-3.799174e+08
-3.983429e+08
-4.212129e+08
-4.494044e+08
0
0
0
0
0
6.139788e+08
6.294174e+08
6.516755e+08
6.830461e+08
7.27128e+08
-3.524286e+08
-3.660964e+08
-3.832919e+08
-4.045965e+08
-4.307882e+08
0
0
0
0
0
5.804662e+08
5.937535e+08
6.127177e+08
6.390421e+08
6.750013e+08
-8.43612e+08
-7.78829e+08
-8.637699e+08
-7.246439e+08
-7.96868e+08
-9.019475e+08
-6.810199e+08
-7.402056e+08
-8.266083e+08
-9.597919e+08
-6.427094e+08
-6.926676e+08
-7.626904e+08
-8.663992e+08
-1.036907e+09
-6.068162e+08
-6.498485e+08
-7.082304e+08
-7.901563e+08
-9.134693e+08
0
-5.738253e+08
-6.113717e+08
-6.613426e+08
-7.288405e+08
-8.239245e+08
0
0
-5.440769e+08
-5.772965e+08
-6.208598e+08
-6.78415e+08
-7.561074e+08
0
0
0
-5.174803e+08
-5.471971e+08
-5.858075e+08
-6.35989e+08
-7.020976e+08
0
0
0
0
-4.936704e+08
-5.205214e+08
-5.551514e+08
-5.996879e+08
-6.573347e+08
0
0
0
0
0
-4.722088e+08
-4.96655e+08
-5.280197e+08
-5.680193e+08
-6.191992e+08
0
0
0
0
0
1.116381e+09
-4.526022e+08
-4.749872e+08
-5.035837e+08
-5.398279e+08
-5.857747e+08
0
0
0
0
0
9.442381e+08
1.05703e+09
-4.342793e+08
-4.548428e+08
-4.810209e+08
-5.140253e+08
-5.555687e+08
0
0
0
0
0
8.436936e+08
9.002536e+08
1.007617e+09
-4.16575e+08
-4.354753e+08
-4.59461e+08
-4.89565e+08
-5.272226e+08
0
0
0
0
0
7.703545e+08
8.057228e+08
8.633359e+08
9.645489e+08
-3.990096e+08
-4.163647e+08
-4.38325e+08
-4.65772e+08
-4.999172e+08
0
0
0
0
0
7.103771e+08
7.353946e+08
7.733821e+08
8.322834e+08
9.262707e+08
-3.822493e+08
-3.982179e+08
-4.183746e+08
-4.434784e+08
-4.745618e+08
0
0
0
0
0
6.601064e+08
6.794095e+08
7.076697e+08
7.489576e+08
8.100987e+08
-3.669165e+08
-3.816784e+08
-4.002781e+08
-4.233782e+08
-4.518717e+08
0
0
0
0
0
6.179066e+08
6.336526e+08
6.563685e+08
6.884427e+08
7.336908e+08
-3.532323e+08
-3.669612e+08
-3.842386e+08
-4.056507e+08
-4.319826e+08
0
0
0
0
0
5.823037e+08
5.957105e+08
6.148471e+08
6.414247e+08
6.77766e+08
-3.411673e+08
-3.540177e+08
-3.701788e+08
-3.901764e+08
-4.147113e+08
0
0
0
0
0
5.520992e+08
5.638707e+08
5.80568e+08
6.034748e+08
6.342828e+08
-8.364087e+08
-7.697248e+08
-8.490497e+08
-7.15048e+08
-7.836903e+08
-8.79111e+08
-6.723992e+08
-7.290992e+08
-8.10403e+08
-9.287259e+08
-6.367909e+08
-6.851973e+08
-7.523887e+08
-8.499239e+08
-1.000691e+09
-6.04361e+08
-6.466766e+08
-7.038261e+08
-7.833739e+08
-9.010808e+08
0
-5.732779e+08
-6.10562e+08
-6.60087e+08
-7.267736e+08
-8.201698e+08
0
0
-5.441886e+08
-5.773312e+08
-6.20761e+08
-6.780748e+08
-7.552949e+08
0
0
0
-5.176422e+08
-5.473435e+08
-5.859242e+08
-6.360511e+08
-7.020545e+08
0
0
0
0
-4.936704e+08
-5.205214e+08
-5.551514e+08
-5.996879e+08
-6.573347e+08
0
0
0
0
0
-4.720506e+08
-4.965032e+08
-5.278813e+08
-5.679048e+08
-6.191256e+08
0
0
0
0
0
1.120936e+09
-4.524405e+08
-4.748491e+08
-5.034847e+08
-5.397899e+08
-5.858305e+08
0
0
0
0
0
9.476079e+08
1.066278e+09
-4.344324e+08
-4.550608e+08
-4.813346e+08
-5.144766e+08
-5.562167e+08
0
0
0
0
0
8.471379e+08
9.063869e+08
1.022856e+09
-4.175254e+08
-4.365615e+08
-4.607385e+08
-4.911069e+08
-5.291281e+08
0
0
0
0
0
7.753917e+08
8.123774e+08
8.73765e+08
9.878137e+08
-4.011182e+08
-4.186836e+08
-4.409362e+08
-4.68781e+08
-5.03464e+08
0
0
0
0
0
7.17301e+08
7.435044e+08
7.836496e+08
8.473173e+08
9.569021e+08
-3.847711e+08
-4.009575e+08
-4.214122e+08
-4.469161e+08
-4.785325e+08
0
0
0
0
0
6.669143e+08
6.869758e+08
7.164421e+08
7.598415e+08
8.2539e+08
-3.691209e+08
-3.840605e+08
-4.028999e+08
-4.263181e+08
-4.552306e+08
0
0
0
0
0
6.232628e+08
6.394495e+08
6.628268e+08
6.959297e+08
7.429158e+08
-3.54765e+08
-3.686119e+08
-3.860473e+08
-4.076671e+08
-4.342706e+08
0
0
0
0
0
5.858072e+08
5.994477e+08
6.189221e+08
6.459987e+08
6.830987e+08
-3.419246e+08
-3.548307e+08
-3.710663e+08
-3.911615e+08
-4.158232e+08
0
0
0
0
0
5.537575e+08
5.656231e+08
5.824545e+08
6.055525e+08
6.366375e+08
-3.305837e+08
-3.426854e+08
-3.579029e+08
-3.767137e+08
-3.997517e+08
0
0
0
0
0
5.262781e+08
5.368726e+08
5.518077e+08
5.721345e+08
5.991365e+08
-7.650854e+08
-8.417402e+08
-7.08164e+08
-7.744439e+08
-8.638662e+08
-6.64642e+08
-7.193426e+08
-7.9674e+08
-9.045886e+08
-6.295897e+08
-6.76405e+08
-7.408385e+08
-8.327522e+08
-9.671717e+08
-5.993385e+08
-6.405862e+08
-6.959868e+08
-7.723743e+08
-8.832125e+08
0
-5.71211e+08
-6.079871e+08
-6.566976e+08
-7.219996e+08
-8.127382e+08
0
0
-5.437661e+08
-5.7672e+08
-6.198482e+08
-6.766577e+08
-7.529684e+08
0
0
0
-5.177789e+08
-5.474261e+08
-5.859161e+08
-6.358899e+08
-7.016213e+08
0
0
0
0
-4.938316e+08
-5.206726e+08
-5.552832e+08
-5.997847e+08
-6.573691e+08
0
0
0
0
0
-4.720506e+08
-4.965032e+08
-5.278813e+08
-5.679048e+08
-6.191256e+08
0
0
0
0
0
1.120936e+09
-4.522865e+08
-4.746993e+08
-5.033443e+08
-5.396667e+08
-5.85736e+08
0
0
0
0
0
9.490142e+08
1.070473e+09
-4.342702e+08
-4.549174e+08
-4.812226e+08
-5.144135e+08
-5.562273e+08
0
0
0
0
0
8.485827e+08
9.095194e+08
1.031614e+09
-4.176544e+08
-4.367461e+08
-4.610051e+08
-4.914905e+08
-5.296766e+08
0
0
0
0
0
7.775613e+08
8.155962e+08
8.79591e+08
1.002652e+09
-4.019942e+08
-4.196795e+08
-4.421005e+08
-4.701768e+08
-5.051752e+08
0
0
0
0
0
7.211934e+08
7.48238e+08
7.89991e+08
8.574463e+08
9.801203e+08
-3.867395e+08
-4.031143e+08
-4.238298e+08
-4.496873e+08
-4.817787e+08
0
0
0
0
0
6.727054e+08
6.935166e+08
7.24205e+08
7.698313e+08
8.403052e+08
-3.714841e+08
-3.866203e+08
-4.05728e+08
-4.295048e+08
-4.588927e+08
0
0
0
0
0
6.291854e+08
6.459041e+08
6.700884e+08
7.044701e+08
7.536811e+08
-3.568364e+08
-3.708444e+08
-3.88497e+08
-4.104041e+08
-4.37384e+08
0
0
0
0
0
5.905689e+08
6.045412e+08
6.244979e+08
6.522924e+08
6.90498e+08
-3.433682e+08
-3.563817e+08
-3.72761e+08
-3.93045e+08
-4.179521e+08
0
0
0
0
0
5.569146e+08
5.689632e+08
5.86056e+08
6.09528e+08
6.411582e+08
-3.312988e+08
-3.434513e+08
-3.587368e+08
-3.776367e+08
-4.007899e+08
0
0
0
0
0
5.277863e+08
5.38457e+08
5.534994e+08
5.739768e+08
6.011905e+08
-3.206225e+08
-3.320358e+08
-3.463884e+08
-3.641165e+08
-3.857955e+08
0
0
0
0
0
5.026032e+08
5.122546e+08
5.257893e+08
5.440765e+08
5.681626e+08
-7.046187e+08
-7.697333e+08
-8.562971e+08
-6.590142e+08
-7.123506e+08
-7.871632e+08
-8.884817e+08
-6.230311e+08
-6.685183e+08
-7.307251e+08
-8.183104e+08
-9.41142e+08
-5.931334e+08
-6.332425e+08
-6.868434e+08
-7.601323e+08
-8.646663e+08
0
-5.668347e+08
-6.028195e+08
-6.503034e+08
-7.136166e+08
-8.007776e+08
0
0
-5.419823e+08
-5.745502e+08
-6.170901e+08
-6.729682e+08
-7.47706e+08
0
0
0
-5.174441e+08
-5.469481e+08
-5.852165e+08
-6.348426e+08
-6.999993e+08
0
0
0
0
-4.939824e+08
-5.207837e+08
-5.553285e+08
-5.997236e+08
-6.571321e+08
0
0
0
0
0
-4.722088e+08
-4.96655e+08
-5.280197e+08
-5.680193e+08
-6.191992e+08
0
0
0
0
0
1.116381e+09
-4.522865e+08
-4.746993e+08
-5.033443e+08
-5.396667e+08
-5.85736e+08
0
0
0
0
0
9.490142e+08
1.070473e+09
-4.341211e+08
-4.54771e+08
-4.81083e+08
-5.142865e+08
-5.561215e+08
0
0
0
0
0
8.490735e+08
9.10826e+08
1.035586e+09
-4.174936e+08
-4.366004e+08
-4.608852e+08
-4.914107e+08
-5.296566e+08
0
0
0
0
0
7.78283e+08
8.169431e+08
8.825652e+08
1.011182e+09
-4.021034e+08
-4.19837e+08
-4.423291e+08
-4.705064e+08
-5.056458e+08
0
0
0
0
0
7.227215e+08
7.5027e+08
7.930504e+08
8.63099e+08
9.949361e+08
-3.8755e+08
-4.040317e+08
-4.248968e+08
-4.50959e+08
-4.833273e+08
0
0
0
0
0
6.758675e+08
6.971835e+08
7.287218e+08
7.759824e+08
8.503338e+08
-3.733267e+08
-3.886326e+08
-4.079749e+08
-4.320684e+08
-4.618793e+08
0
0
0
0
0
6.341582e+08
6.513876e+08
6.763595e+08
7.120245e+08
7.635658e+08
-3.590565e+08
-3.732425e+08
-3.911381e+08
-4.133687e+08
-4.407755e+08
0
0
0
0
0
5.95802e+08
6.101689e+08
6.307029e+08
6.593677e+08
6.989406e+08
-3.453189e+08
-3.584789e+08
-3.75056e+08
-3.956007e+08
-4.208482e+08
0
0
0
0
0
5.611941e+08
5.735006e+08
5.90963e+08
6.149668e+08
6.473788e+08
-3.32661e+08
-3.449118e+08
-3.603286e+08
-3.794005e+08
-4.027769e+08
0
0
0
0
0
5.306544e+08
5.414724e+08
5.56723e+08
5.774936e+08
6.051208e+08
-3.212989e+08
-3.327589e+08
-3.471738e+08
-3.649833e+08
-3.867675e+08
0
0
0
0
0
5.039838e+08
5.136981e+08
5.273208e+08
5.457301e+08
5.699847e+08
-3.112346e+08
-3.220131e+08
-3.355703e+08
-3.523058e+08
-3.727452e+08
0
0
0
0
0
4.807632e+08
4.896458e+08
5.020348e+08
5.186741e+08
5.404269e+08
-6.560999e+08
-7.087512e+08
-7.822867e+08
-8.804878e+08
-6.182424e+08
-6.628033e+08
-7.234882e+08
-8.08202e+08
-9.237884e+08
-5.874404e+08
-6.265761e+08
-6.786733e+08
-7.494538e+08
-8.491142e+08
0
-5.613752e+08
-5.964939e+08
-6.426702e+08
-7.039315e+08
-7.875665e+08
0
0
-5.381028e+08
-5.700499e+08
-6.116664e+08
-6.661299e+08
-7.385844e+08
0
0
0
-5.158771e+08
-5.45075e+08
-5.828894e+08
-6.318333e+08
-6.959179e+08
0
0
0
0
-4.937122e+08
-5.204002e+08
-5.547737e+08
-5.989092e+08
-6.559157e+08
0
0
0
0
0
-4.723672e+08
-4.967832e+08
-5.28098e+08
-5.680188e+08
-6.19074e+08
0
0
0
0
0
1.106351e+09
-4.524405e+08
-4.748491e+08
-5.034847e+08
-5.397899e+08
-5.858305e+08
0
0
0
0
0
9.476079e+08
1.066278e+09
-4.341211e+08
-4.54771e+08
-4.81083e+08
-5.142865e+08
-5.561215e+08
0
0
0
0
0
8.490735e+08
9.10826e+08
1.035586e+09
-4.173498e+08
-4.364582e+08
-4.60748e+08
-4.912832e+08
-5.295453e+08
0
0
0
0
0
7.784464e+08
8.173997e+08
8.838059e+08
1.015051e+09
-4.019452e+08
-4.196913e+08
-4.422049e+08
-4.704158e+08
-5.056048e+08
0
0
0
0
0
7.231139e+08
7.509421e+08
7.943281e+08
8.65986e+08
1.003463e+09
-3.876428e+08
-4.041671e+08
-4.250946e+08
-4.512451e+08
-4.837356e+08
0
0
0
0
0
6.770191e+08
6.986165e+08
7.306531e+08
7.789428e+08
8.559275e+08
-3.740792e+08
-3.894811e+08
-4.089576e+08
-4.332334e+08
-4.632897e+08
0
0
0
0
0
6.368136e+08
6.543728e+08
6.798629e+08
7.164039e+08
7.696323e+08
-3.607858e+08
-3.751254e+08
-3.932332e+08
-4.157494e+08
-4.435354e+08
0
0
0
0
0
6.001506e+08
6.148874e+08
6.359682e+08
6.654735e+08
7.064071e+08
-3.474093e+08
-3.607312e+08
-3.77529e+08
-3.983674e+08
-4.240005e+08
0
0
0
0
0
5.658737e+08
5.784829e+08
5.963813e+08
6.210178e+08
6.543727e+08
-3.345016e+08
-3.468865e+08
-3.624837e+08
-3.817932e+08
-4.054789e+08
0
0
0
0
0
5.345332e+08
5.455577e+08
5.611004e+08
5.822844e+08
6.104979e+08
-3.225867e+08
-3.341368e+08
-3.486722e+08
-3.66639e+08
-3.886268e+08
0
0
0
0
0
5.066067e+08
5.16442e+08
5.302349e+08
5.488806e+08
5.734627e+08
-3.118756e+08
-3.226971e+08
-3.363115e+08
-3.531218e+08
-3.736574e+08
0
0
0
0
0
4.820339e+08
4.909692e+08
5.034318e+08
5.201724e+08
5.420628e+08
-3.023754e+08
-3.125679e+08
-3.253913e+08
-3.41214e+08
-3.605175e+08
0
0
0
0
0
4.605137e+08
4.687571e+08
4.80193e+08
4.954649e+08
5.153096e+08
-6.157548e+08
-6.598453e+08
-7.197651e+08
-8.030585e+08
-9.151816e+08
-5.832671e+08
-6.217145e+08
-6.727628e+08
-7.418265e+08
-8.382479e+08
0
-5.563426e+08
-5.907092e+08
-6.357693e+08
-6.953155e+08
-7.760903e+08
0
0
-5.332303e+08
-5.644869e+08
-6.050961e+08
-6.580521e+08
-7.281463e+08
0
0
0
-5.123941e+08
-5.410883e+08
-5.781696e+08
-6.260363e+08
-6.884799e+08
0
0
0
0
-4.923178e+08
-5.187548e+08
-5.527638e+08
-5.963672e+08
-6.525802e+08
0
0
0
0
0
-4.721459e+08
-4.964697e+08
-5.276468e+08
-5.673644e+08
-6.181161e+08
0
0
0
0
0
1.088952e+09
-4.526022e+08
-4.749872e+08
-5.035837e+08
-5.398279e+08
-5.857747e+08
0
0
0
0
0
9.442381e+08
1.05703e+09
-4.342702e+08
-4.549174e+08
-4.812226e+08
-5.144135e+08
-5.562273e+08
0
0
0
0
0
8.485827e+08
9.095194e+08
1.031614e+09
-4.173498e+08
-4.364582e+08
-4.60748e+08
-4.912832e+08
-5.295453e+08
0
0
0
0
0
7.784464e+08
8.173997e+08
8.838059e+08
1.015051e+09
-4.018069e+08
-4.195538e+08
-4.420711e+08
-4.702895e+08
-5.054913e+08
0
0
0
0
0
7.231393e+08
7.510923e+08
7.947605e+08
8.671915e+08
1.007335e+09
-3.874879e+08
-4.040227e+08
-4.249685e+08
-4.511474e+08
-4.836801e+08
0
0
0
0
0
6.772378e+08
6.989802e+08
7.31288e+08
7.801773e+08
8.587882e+08
-3.741583e+08
-3.89598e+08
-4.0913e+08
-4.334837e+08
-4.636472e+08
0
0
0
0
0
6.377218e+08
6.554539e+08
6.812248e+08
7.182684e+08
7.725447e+08
-3.614867e+08
-3.759129e+08
-3.941417e+08
-4.168219e+08
-4.448271e+08
0
0
0
0
0
6.02431e+08
6.17399e+08
6.38824e+08
6.688706e+08
7.107176e+08
-3.49036e+08
-3.624976e+08
-3.794882e+08
-4.005854e+08
-4.265609e+08
0
0
0
0
0
5.697297e+08
5.82617e+08
6.009185e+08
6.261478e+08
6.60405e+08
-3.364738e+08
-3.490067e+08
-3.648053e+08
-3.843823e+08
-4.084182e+08
0
0
0
0
0
5.38757e+08
5.500211e+08
5.659042e+08
5.875728e+08
6.164804e+08
-3.243267e+08
-3.359997e+08
-3.507006e+08
-3.688847e+08
-3.911546e+08
0
0
0
0
0
5.101473e+08
5.201511e+08
5.341815e+08
5.531581e+08
5.782008e+08
-3.13095e+08
-3.239995e+08
-3.377247e+08
-3.546796e+08
-3.754016e+08
0
0
0
0
0
4.844461e+08
4.934826e+08
5.060868e+08
5.230228e+08
5.451797e+08
-3.029837e+08
-3.132159e+08
-3.260921e+08
-3.419837e+08
-3.613756e+08
0
0
0
0
0
4.616885e+08
4.699769e+08
4.814753e+08
4.968326e+08
5.167925e+08
-2.940061e+08
-3.036551e+08
-3.158008e+08
-3.307814e+08
-3.490408e+08
0
0
0
0
0
4.416582e+08
4.493612e+08
4.599901e+08
4.741092e+08
4.923545e+08
-5.810949e+08
-6.191903e+08
-6.697056e+08
-7.379058e+08
-8.327236e+08
0
-5.526438e+08
-5.864737e+08
-6.307452e+08
-6.890949e+08
-7.679107e+08
0
0
-5.287243e+08
-5.593751e+08
-5.991124e+08
-6.507833e+08
-7.189043e+08
0
0
0
-5.079983e+08
-5.361258e+08
-5.723958e+08
-6.190908e+08
-6.797868e+08
0
0
0
0
-4.891612e+08
-5.151783e+08
-5.485862e+08
-5.913271e+08
-6.462807e+08
0
0
0
0
0
-4.708923e+08
-4.95006e+08
-5.258813e+08
-5.651677e+08
-6.152957e+08
0
0
0
0
0
1.061818e+09
-4.524189e+08
-4.747273e+08
-5.032102e+08
-5.392891e+08
-5.84996e+08
0
0
0
0
0
9.376491e+08
1.040957e+09
-4.344324e+08
-4.550608e+08
-4.813346e+08
-5.144766e+08
-5.562167e+08
0
0
0
0
0
8.471379e+08
9.063869e+08
1.022856e+09
-4.174936e+08
-4.366004e+08
-4.608852e+08
-4.914107e+08
-5.296566e+08
0
0
0
0
0
7.78283e+08
8.169431e+08
8.825652e+08
1.011182e+09
-4.018069e+08
-4.195538e+08
-4.420711e+08
-4.702895e+08
-5.054913e+08
0
0
0
0
0
7.231393e+08
7.510923e+08
7.947605e+08
8.671915e+08
1.007335e+09
-3.87355e+08
-4.038901e+08
-4.248387e+08
-4.510236e+08
-4.835666e+08
0
0
0
0
0
6.771972e+08
6.990007e+08
7.31428e+08
7.805949e+08
8.599848e+08
-3.740072e+08
-3.894558e+08
-4.090036e+08
-4.333819e+08
-4.635816e+08
0
0
0
0
0
6.378395e+08
6.556543e+08
6.815656e+08
7.188776e+08
7.737582e+08
-3.615544e+08
-3.760143e+08
-3.942927e+08
-4.170424e+08
-4.451428e+08
0
0
0
0
0
6.031691e+08
6.182523e+08
6.398512e+08
6.701833e+08
7.125441e+08
-3.496906e+08
-3.632309e+08
-3.803311e+08
-4.015767e+08
-4.277496e+08
0
0
0
0
0
5.717214e+08
5.847778e+08
6.033244e+08
6.289181e+08
6.637456e+08
-3.380071e+08
-3.506676e+08
-3.666422e+08
-3.864548e+08
-4.108016e+08
0
0
0
0
0
5.422129e+08
5.536934e+08
5.698849e+08
5.919967e+08
6.215485e+08
-3.261909e+08
-3.379995e+08
-3.528851e+08
-3.713137e+08
-3.939029e+08
0
0
0
0
0
5.139889e+08
5.241866e+08
5.384907e+08
5.578507e+08
5.834308e+08
-3.147426e+08
-3.257602e+08
-3.396376e+08
-3.567921e+08
-3.777723e+08
0
0
0
0
0
4.876969e+08
4.968735e+08
5.096745e+08
5.268825e+08
5.494117e+08
-3.041402e+08
-3.14449e+08
-3.274275e+08
-3.434522e+08
-3.630155e+08
0
0
0
0
0
4.639176e+08
4.722917e+08
4.8391e+08
4.994317e+08
5.196136e+08
-2.945843e+08
-3.0427e+08
-3.164646e+08
-3.315088e+08
-3.498497e+08
0
0
0
0
0
4.427489e+08
4.504906e+08
4.611733e+08
4.753655e+08
4.937087e+08
-2.860901e+08
-2.952357e+08
-3.067526e+08
-3.209555e+08
-3.38252e+08
0
0
0
0
0
4.240366e+08
4.312756e+08
4.412108e+08
4.543421e+08
4.712265e+08
-5.50716e+08
-5.842701e+08
-6.281384e+08
-6.858802e+08
-7.637102e+08
0
0
-5.254066e+08
-5.556223e+08
-5.947385e+08
-6.455025e+08
-7.122473e+08
0
0
0
-5.03924e+08
-5.315506e+08
-5.67112e+08
-6.127954e+08
-6.720036e+08
0
0
0
0
-4.851628e+08
-5.107037e+08
-5.434399e+08
-5.852304e+08
-6.388173e+08
0
0
0
0
0
-4.680101e+08
-4.917672e+08
-5.221369e+08
-5.607112e+08
-6.098251e+08
0
0
0
0
0
1.026301e+09
-4.512829e+08
-4.73412e+08
-5.016397e+08
-5.373591e+08
-5.825577e+08
0
0
0
0
0
9.258976e+08
1.015817e+09
-4.342793e+08
-4.548428e+08
-4.810209e+08
-5.140253e+08
-5.555687e+08
0
0
0
0
0
8.436936e+08
9.002536e+08
1.007617e+09
-4.176544e+08
-4.367461e+08
-4.610051e+08
-4.914905e+08
-5.296766e+08
0
0
0
0
0
7.775613e+08
8.155962e+08
8.79591e+08
1.002652e+09
-4.019452e+08
-4.196913e+08
-4.422049e+08
-4.704158e+08
-5.056048e+08
0
0
0
0
0
7.231139e+08
7.509421e+08
7.943281e+08
8.65986e+08
1.003463e+09
-3.87355e+08
-4.038901e+08
-4.248387e+08
-4.510236e+08
-4.835666e+08
0
0
0
0
0
6.771972e+08
6.990007e+08
7.31428e+08
7.805949e+08
8.599848e+08
-3.738796e+08
-3.893282e+08
-4.08878e+08
-4.332613e+08
-4.634695e+08
0
0
0
0
0
6.37765e+08
6.556127e+08
6.815816e+08
7.190103e+08
7.741687e+08
-3.614075e+08
-3.758749e+08
-3.941671e+08
-4.169385e+08
-4.450703e+08
0
0
0
0
0
6.032229e+08
6.183577e+08
6.400365e+08
6.705069e+08
7.13137e+08
-3.497484e+08
-3.633192e+08
-3.80464e+08
-4.017721e+08
-4.280303e+08
0
0
0
0
0
5.723349e+08
5.854716e+08
6.041351e+08
6.299071e+08
6.650276e+08
-3.3862e+08
-3.513523e+08
-3.674268e+08
-3.873742e+08
-4.118998e+08
0
0
0
0
0
5.43975e+08
5.555838e+08
5.719572e+08
5.943318e+08
6.242716e+08
-3.27639e+08
-3.395645e+08
-3.546114e+08
-3.732555e+08
-3.961281e+08
0
0
0
0
0
5.171136e+08
5.274833e+08
5.420313e+08
5.61735e+08
5.87802e+08
-3.165076e+08
-3.2765e+08
-3.416971e+08
-3.590762e+08
-3.803487e+08
0
0
0
0
0
4.912133e+08
5.005497e+08
5.135754e+08
5.310954e+08
5.54054e+08
-3.057028e+08
-3.161159e+08
-3.292348e+08
-3.454433e+08
-3.652441e+08
0
0
0
0
0
4.669174e+08
4.754097e+08
4.871937e+08
5.02943e+08
5.234335e+08
-2.956828e+08
-3.054393e+08
-3.177284e+08
-3.328958e+08
-3.513945e+08
0
0
0
0
0
4.448173e+08
4.526326e+08
4.634181e+08
4.777506e+08
4.962819e+08
-2.866406e+08
-2.958201e+08
-3.073824e+08
-3.216442e+08
-3.39016e+08
0
0
0
0
0
4.250527e+08
4.323254e+08
4.423074e+08
4.555021e+08
4.724708e+08
-2.785977e+08
-2.872728e+08
-2.98207e+08
-3.116885e+08
-3.280958e+08
0
0
0
0
0
4.075154e+08
4.143512e+08
4.236821e+08
4.359556e+08
4.516645e+08
-5.236757e+08
-5.536672e+08
-5.924645e+08
-6.427648e+08
-7.088105e+08
0
0
0
-5.009201e+08
-5.281855e+08
-5.632393e+08
-6.082035e+08
-6.663626e+08
0
0
0
0
-4.814506e+08
-5.065682e+08
-5.387139e+08
-5.796774e+08