/*--------------------------------*- C++ -*----------------------------------*\
| =========                 |                                                 |
| \\      /  F ield         | OpenFOAM: The Open Source CFD Toolbox           |
|  \\    /   O peration     | Version:  2306                                  |
|   \\  /    A nd           | Website:  www.openfoam.com                      |
|    \\/     M anipulation  |                                                 |
\*---------------------------------------------------------------------------*/
FoamFile
{
    version     2.0;
    format      ascii;
    arch        "LSB;label=32;scalar=64";
    class       volScalarField;
    location    "1.5/phiI";
    object      phi;
}
// * * * * * * * * * * * * * * * * * * * * * * * * * * * * * * * * * * * * * //

dimensions      [1 2 -3 0 0 -1 0];

internalField   nonuniform List<scalar> 
12000
(
1.643613
1.643522
1.638171
1.64451
1.643334
1.638066
1.644427
1.632715
1.638991
1.646314
1.643022
1.637873
1.644254
1.632601
1.638891
1.646245
1.628218
1.633471
1.640642
1.649039
1.642537
1.63762
1.643965
1.632394
1.638708
1.646104
1.6281
1.633361
1.640552
1.648995
1.624538
1.628922
1.634992
1.643136
1.652713
1.641823
1.637351
1.643509
1.632135
1.638469
1.645861
1.627887
1.633161
1.640388
1.6489
1.624419
1.628808
1.634889
1.64306
1.6527
1.621487
1.625199
1.630338
1.637289
1.646495
1.657373
1.640952
1.637101
1.642828
1.631888
1.638216
1.645465
1.627618
1.632912
1.640176
1.648727
1.624203
1.6286
1.634704
1.642926
1.652669
1.621369
1.625083
1.63023
1.637197
1.64644
1.6574
1.618902
1.62211
1.626528
1.632477
1.640382
1.650752
1.662041
1.640068
1.63688
1.641983
1.63172
1.637982
1.644849
1.627362
1.632677
1.639956
1.648423
1.623926
1.628339
1.634475
1.642756
1.652593
1.621152
1.624871
1.630034
1.637034
1.646345
1.657452
1.618787
1.621995
1.626417
1.632378
1.640306
1.650723
1.662109
1.616678
1.619494
1.623365
1.628536
1.635356
1.644298
1.655018
1.666718
1.639361
1.636667
1.641117
1.631647
1.637771
1.644055
1.627194
1.632518
1.639752
1.647905
1.623657
1.628092
1.634263
1.642585
1.652412
1.620873
1.624602
1.62979
1.636836
1.646232
1.657498
1.618573
1.621783
1.626216
1.632201
1.640173
1.65068
1.662243
1.616565
1.61938
1.623254
1.628433
1.63527
1.644242
1.655015
1.666827
1.614732
1.61724
1.620683
1.625259
1.631237
1.639
1.648223
1.659293
1.671404
1.638971
1.636488
1.640419
1.631614
1.637564
1.643223
1.62714
1.632451
1.639563
1.647189
1.623471
1.627931
1.634124
1.642429
1.652027
1.620595
1.62434
1.629561
1.636659
1.646129
1.657477
1.618294
1.62151
1.62596
1.631981
1.640016
1.65064
1.662412
1.616355
1.61917
1.623051
1.628246
1.635117
1.644147
1.655022
1.667042
1.614622
1.617129
1.620573
1.625156
1.631145
1.63893
1.648187
1.659316
1.671554
1.61301
1.615268
1.618371
1.622478
1.627808
1.634654
1.642652
1.652158
1.663577
1.6761
1.638971
1.636385
1.640035
1.631593
1.637388
1.642547
1.627144
1.632422
1.639369
1.646409
1.623404
1.627882
1.63407
1.642273
1.651417
1.620393
1.62416
1.629416
1.636552
1.646038
1.657264
1.618011
1.621238
1.625713
1.63178
1.639887
1.650624
1.66255
1.61608
1.618896
1.622789
1.628011
1.634931
1.644045
1.655055
1.667335
1.614417
1.616922
1.620371
1.624965
1.630979
1.638808
1.648131
1.659374
1.671851
1.612903
1.61516
1.618263
1.622374
1.627713
1.634576
1.642598
1.652141
1.663625
1.676289
1.611469
1.613522
1.616346
1.620077
1.624892
1.63103
1.638079
1.646313
1.6561
1.66787
1.680804
1.639361
1.636385
1.640035
1.631582
1.637287
1.642172
1.627161
1.632402
1.6392
1.645763
1.623404
1.627888
1.634047
1.642098
1.650708
1.620309
1.624097
1.629375
1.636517
1.645927
1.65679
1.617798
1.621041
1.625546
1.631658
1.639823
1.650616
1.662508
1.615797
1.618619
1.62253
1.627788
1.634767
1.643977
1.655126
1.667631
1.614148
1.616652
1.620108
1.624722
1.630773
1.638665
1.648082
1.65948
1.672266
1.612704
1.614958
1.618063
1.622183
1.627541
1.634437
1.642507
1.652123
1.663734
1.676668
1.611366
1.613417
1.616241
1.619975
1.624797
1.630948
1.638015
1.646275
1.656103
1.667944
1.681034
1.610077
1.611959
1.614552
1.617973
1.622372
1.627944
1.63426
1.641512
1.649982
1.660052
1.672171
1.68451
1.640068
1.636488
1.640419
1.631582
1.637287
1.642172
1.627172
1.632391
1.639101
1.645402
1.623423
1.627905
1.63403
1.641939
1.650104
1.620296
1.624097
1.629384
1.636503
1.645778
1.656171
1.6177
1.62096
1.625489
1.631631
1.639815
1.650563
1.662169
1.615578
1.618411
1.622344
1.627639
1.634678
1.643969
1.655202
1.667761
1.613868
1.616374
1.619842
1.624483
1.63058
1.638551
1.648076
1.659637
1.672721
1.612441
1.614693
1.617802
1.621937
1.627322
1.634266
1.642408
1.652127
1.663913
1.677206
1.611172
1.613221
1.616046
1.619786
1.624622
1.630799
1.637902
1.646215
1.656123
1.668103
1.681493
1.609977
1.611857
1.61445
1.617873
1.622277
1.627859
1.63419
1.641462
1.649961
1.660074
1.672271
1.684771
1.60881
1.610548
1.612946
1.616107
1.62016
1.625271
1.631003
1.637498
1.644954
1.65366
1.664013
1.675564
1.687259
1.640952
1.636667
1.641117
1.631593
1.637388
1.642547
1.627172
1.632391
1.639101
1.645402
1.623437
1.627917
1.63402
1.641845
1.649762
1.620309
1.624116
1.629403
1.636491
1.645633
1.65562
1.617676
1.620948
1.625492
1.631646
1.639814
1.650448
1.661641
1.61547
1.618315
1.622269
1.627593
1.63467
1.643995
1.655207
1.667556
1.613647
1.616159
1.619643
1.624313
1.630458
1.638503
1.648123
1.659797
1.673021
1.612166
1.614417
1.617535
1.621688
1.62711
1.634115
1.642342
1.652182
1.664157
1.677819
1.610916
1.612962
1.615789
1.619539
1.624397
1.630611
1.637768
1.646159
1.656181
1.668354
1.682153
1.60979
1.611667
1.61426
1.617687
1.622102
1.627705
1.634064
1.641375
1.649932
1.660132
1.672481
1.685294
1.608714
1.610449
1.612846
1.616009
1.620067
1.625186
1.630929
1.63744
1.644917
1.653654
1.664054
1.675684
1.687543
1.60765
1.609263
1.611493
1.614434
1.618196
1.622923
1.628178
1.634069
1.640744
1.648404
1.657346
1.667138
1.678081
1.689079
1.641823
1.63688
1.641983
1.631614
1.637564
1.643223
1.627161
1.632402
1.6392
1.645763
1.623437
1.627917
1.63402
1.641845
1.649762
1.62032
1.62413
1.629415
1.636482
1.645545
1.655303
1.61768
1.62096
1.625512
1.631667
1.639807
1.650321
1.661143
1.615437
1.618291
1.622259
1.6276
1.634693
1.644012
1.655125
1.667117
1.613533
1.616053
1.619552
1.624246
1.630427
1.63852
1.648184
1.659859
1.672951
1.611945
1.6142
1.617328
1.621503
1.626962
1.634027
1.642337
1.652285
1.6644
1.67829
1.610647
1.61269
1.615522
1.619287
1.624172
1.630434
1.637656
1.646141
1.656297
1.668685
1.682925
1.609541
1.611414
1.614008
1.617443
1.621875
1.627507
1.633908
1.641278
1.649917
1.660243
1.672804
1.68605
1.608532
1.610264
1.612661
1.615827
1.619893
1.62503
1.630795
1.637336
1.644857
1.653656
1.66415
1.675933
1.688113
1.607556
1.609167
1.611397
1.614338
1.618104
1.622838
1.628103
1.634006
1.640697
1.64838
1.657356
1.667195
1.678216
1.689378
1.60658
1.608085
1.610171
1.61292
1.616433
1.620834
1.625692
1.631092
1.637144
1.643998
1.651862
1.660258
1.669459
1.679749
1.689987
1.642537
1.637101
1.642828
1.631647
1.637771
1.644055
1.627144
1.632422
1.639369
1.646409
1.623423
1.627905
1.63403
1.641939
1.650104
1.62032
1.62413
1.629415
1.636482
1.645545
1.655303
1.617688
1.620971
1.625526
1.631679
1.6398
1.650241
1.66085
1.615435
1.618296
1.622271
1.627621
1.634716
1.644012
1.655017
1.666671
1.613493
1.61602
1.619529
1.624239
1.630439
1.638553
1.648217
1.659811
1.6726
1.611828
1.614088
1.617226
1.621419
1.626907
1.634014
1.642377
1.65238
1.66452
1.678353
1.610429
1.612473
1.615312
1.619092
1.624006
1.630315
1.637603
1.646178
1.656455
1.669011
1.683567
1.609278
1.611149
1.613745
1.61719
1.621644
1.627313
1.633765
1.641206
1.649948
1.66042
1.673221
1.686945
1.608291
1.610018
1.612415
1.615587
1.619667
1.624827
1.630625
1.637212
1.644795
1.653684
1.664313
1.676312
1.688939
1.60738
1.608987
1.611217
1.614161
1.617934
1.622682
1.627964
1.633892
1.640617
1.648346
1.657389
1.66732
1.678494
1.689979
1.606489
1.607992
1.610078
1.612828
1.616344
1.620751
1.625616
1.631026
1.637091
1.643963
1.651852
1.66028
1.669527
1.679893
1.690294
1.605588
1.606998
1.608958
1.611541
1.614837
1.618958
1.623479
1.628469
1.634013
1.640225
1.647259
1.654595
1.662421
1.670997
1.680581
1.643022
1.637351
1.643509
1.63172
1.637982
1.644849
1.62714
1.632451
1.639563
1.647189
1.623404
1.627888
1.634047
1.642098
1.650708
1.620309
1.624116
1.629403
1.636491
1.645633
1.65562
1.617688
1.620971
1.625526
1.631679
1.6398
1.650241
1.66085
1.615439
1.618303
1.622282
1.627635
1.634729
1.644008
1.654944
1.666402
1.613486
1.616018
1.619533
1.624251
1.630461
1.63858
1.648225
1.65972
1.672206
1.611784
1.614048
1.617194
1.621399
1.626904
1.634034
1.642421
1.652431
1.664505
1.67809
1.610311
1.612358
1.615203
1.618997
1.623932
1.630275
1.637609
1.646243
1.656585
1.669188
1.683764
1.609065
1.610934
1.613534
1.616991
1.621466
1.627172
1.633675
1.641187
1.650027
1.660634
1.673631
1.68772
1.608035
1.609759
1.612157
1.615337
1.619433
1.624623
1.630461
1.637103
1.644763
1.653763
1.664552
1.676796
1.689924
1.607146
1.608749
1.610978
1.613926
1.61771
1.622477
1.627787
1.63375
1.640523
1.64832
1.657459
1.667525
1.678914
1.690851
1.606318
1.607818
1.609903
1.612655
1.616177
1.620596
1.625476
1.630906
1.636997
1.643905
1.651843
1.660336
1.669674
1.68019
1.69091
1.6055
1.606909
1.608868
1.611451
1.61475
1.618876
1.623403
1.628401
1.633956
1.640183
1.647236
1.654595
1.662452
1.671072
1.68073
1.604664
1.605992
1.60784
1.610276
1.613382
1.617258
1.621489
1.62613
1.631251
1.636941
1.643314
1.649838
1.656626
1.663854
1.671765
1.643334
1.63762
1.643965
1.631888
1.638216
1.645465
1.627194
1.632518
1.639752
1.647905
1.623404
1.627882
1.63407
1.642273
1.651417
1.620296
1.624097
1.629384
1.636503
1.645778
1.656171
1.61768
1.62096
1.625512
1.631667
1.639807
1.650321
1.661143
1.615439
1.618303
1.622282
1.627635
1.634729
1.644008
1.654944
1.666402
1.613488
1.616022
1.619541
1.624262
1.630475
1.638593
1.648224
1.659655
1.671961
1.611774
1.614041
1.617192
1.621403
1.626917
1.634057
1.642451
1.652447
1.664432
1.677748
1.610264
1.612314
1.615164
1.618967
1.623915
1.630277
1.637636
1.646297
1.656653
1.669207
1.683587
1.608947
1.610817
1.613422
1.616888
1.621379
1.627111
1.63365
1.641212
1.650116
1.660798
1.673865
1.68802
1.607826
1.609548
1.611949
1.615136
1.619249
1.624468
1.630345
1.637042
1.644778
1.653883
1.66482
1.677271
1.690798
1.606898
1.608497
1.610726
1.61368
1.617477
1.622268
1.627609
1.633616
1.640449
1.648328
1.657586
1.667811
1.679448
1.691896
1.606092
1.607587
1.609671
1.612426
1.615957
1.620392
1.625294
1.630753
1.636882
1.643842
1.651853
1.66044
1.669909
1.680638
1.691805
1.605335
1.60674
1.608698
1.611283
1.614587
1.618723
1.623263
1.628277
1.633854
1.640109
1.647201
1.654607
1.662526
1.671233
1.681037
1.604579
1.605905
1.607752
1.610189
1.613297
1.617177
1.621413
1.626062
1.631192
1.636894
1.643282
1.649824
1.656634
1.663892
1.671844
1.6038
1.605054
1.606803
1.609109
1.612046
1.615706
1.619683
1.624025
1.628787
1.634041
1.639876
1.645758
1.651756
1.657972
1.66457
1.643522
1.637873
1.644254
1.632135
1.638469
1.645861
1.627362
1.632677
1.639956
1.648423
1.623471
1.627931
1.634124
1.642429
1.652027
1.620309
1.624097
1.629375
1.636517
1.645927
1.65679
1.617676
1.620948
1.625492
1.631646
1.639814
1.650448
1.661641
1.615435
1.618296
1.622271
1.627621
1.634716
1.644012
1.655017
1.666671
1.613488
1.616022
1.619541
1.624262
1.630475
1.638593
1.648224
1.659655
1.671961
1.611774
1.614043
1.617196
1.62141
1.626927
1.634071
1.642465
1.652447
1.664374
1.677526
1.610252
1.612304
1.615158
1.618964
1.623919
1.630291
1.637661
1.646331
1.656676
1.669151
1.683296
1.608898
1.61077
1.613379
1.61685
1.621351
1.627098
1.633658
1.641246
1.650181
1.660883
1.673917
1.687912
1.607709
1.609431
1.611834
1.615029
1.619154
1.624392
1.630297
1.637033
1.644822
1.653997
1.665019
1.677551
1.691174
1.606694
1.60829
1.61052
1.61348
1.61729
1.622104
1.627476
1.633525
1.640416
1.648377
1.657748
1.668123
1.679971
1.692834
1.605851
1.607342
1.609425
1.612184
1.615726
1.620181
1.625109
1.630602
1.636778
1.643802
1.651901
1.660604
1.67023
1.681204
1.69288
1.605115
1.606516
1.608473
1.61106
1.614372
1.618521
1.62308
1.628118
1.633725
1.640021
1.647169
1.654644
1.662654
1.671488
1.681498
1.604419
1.605741
1.607588
1.610026
1.613138
1.617027
1.621274
1.625937
1.631085
1.636809
1.643228
1.649806
1.656661
1.663977
1.672012
1.603718
1.60497
1.606718
1.609024
1.611964
1.615627
1.619609
1.623957
1.628727
1.63399
1.639838
1.645734
1.651749
1.657985
1.664611
1.602989
1.604177
1.605837
1.608027
1.610813
1.61428
1.618034
1.622114
1.626567
1.631451
1.636837
1.642199
1.647575
1.653027
1.658645
1.643613
1.638066
1.644427
1.632394
1.638708
1.646104
1.627618
1.632912
1.640176
1.648727
1.623657
1.628092
1.634263
1.642585
1.652412
1.620393
1.62416
1.629416
1.636552
1.646038
1.657264
1.6177
1.62096
1.625489
1.631631
1.639815
1.650563
1.662169
1.615437
1.618291
1.622259
1.6276
1.634693
1.644012
1.655125
1.667117
1.613486
1.616018
1.619533
1.624251
1.630461
1.63858
1.648225
1.65972
1.672206
1.611774
1.614043
1.617196
1.62141
1.626927
1.634071
1.642465
1.652447
1.664374
1.677526
1.610251
1.612304
1.615159
1.618968
1.623926
1.630301
1.637675
1.646346
1.656679
1.669101
1.683097
1.608885
1.610758
1.613368
1.616843
1.621349
1.627103
1.633673
1.641273
1.650218
1.660913
1.673878
1.68766
1.607661
1.609383
1.611788
1.614987
1.619118
1.624368
1.630288
1.637046
1.644863
1.654073
1.665121
1.677628
1.691115
1.606579
1.608175
1.610406
1.61337
1.617189
1.622018
1.627411
1.63349
1.640423
1.64844
1.657887
1.668349
1.680284
1.693261
1.605653
1.60714
1.609223
1.611987
1.615539
1.620012
1.624965
1.630491
1.636712
1.643798
1.651984
1.660799
1.670574
1.681759
1.693851
1.604881
1.606278
1.608234
1.610824
1.614145
1.618311
1.622891
1.627956
1.633601
1.639947
1.647162
1.654723
1.662846
1.671833
1.682081
1.604206
1.605524
1.607369
1.609809
1.612928
1.616829
1.621091
1.625774
1.630947
1.636705
1.643167
1.649799
1.656719
1.664122
1.672277
1.603562
1.604811
1.606558
1.608866
1.611809
1.61548
1.619472
1.623831
1.628617
1.633899
1.639771
1.645695
1.651744
1.658022
1.664702
1.602909
1.604096
1.605755
1.607944
1.610733
1.614203
1.617962
1.622047
1.626506
1.631398
1.636795
1.642168
1.647557
1.653024
1.658661
1.602225
1.603354
1.604934
1.607018
1.609669
1.612964
1.616518
1.620367
1.62455
1.629115
1.63412
1.639051
1.643927
1.648781
1.653662
1.638171
1.64451
1.632601
1.638891
1.646245
1.627887
1.633161
1.640388
1.6489
1.623926
1.628339
1.634475
1.642756
1.652593
1.620595
1.62434
1.629561
1.636659
1.646129
1.657477
1.617798
1.621041
1.625546
1.631658
1.639823
1.650616
1.662508
1.61547
1.618315
1.622269
1.627593
1.63467
1.643995
1.655207
1.667556
1.613493
1.61602
1.619529
1.624239
1.630439
1.638553
1.648217
1.659811
1.6726
1.611774
1.614041
1.617192
1.621403
1.626917
1.634057
1.642451
1.652447
1.664432
1.677748
1.610251
1.612304
1.615159
1.618968
1.623926
1.630301
1.637675
1.646346
1.656679
1.669101
1.683097
1.608883
1.610757
1.613368
1.616844
1.621352
1.627109
1.633682
1.641287
1.650234
1.660919
1.673835
1.687479
1.607647
1.60937
1.611776
1.614976
1.619111
1.624365
1.630293
1.637062
1.644892
1.654114
1.665159
1.677603
1.690893
1.606531
1.608126
1.610359
1.613325
1.617149
1.621985
1.62739
1.633485
1.640441
1.648489
1.657973
1.668464
1.68038
1.693235
1.60554
1.607027
1.60911
1.611877
1.615435
1.61992
1.624889
1.630437
1.63669
1.64382
1.652065
1.660957
1.67082
1.682093
1.694302
1.604689
1.606082
1.608037
1.610631
1.613959
1.61814
1.62274
1.627832
1.633512
1.639905
1.647187
1.654833
1.663065
1.672197
1.682651
1.603979
1.605293
1.607136
1.609579
1.612705
1.61662
1.620901
1.625606
1.63081
1.636607
1.643123
1.649819
1.656821
1.664331
1.672633
1.603355
1.6046
1.606346
1.608655
1.611604
1.615285
1.61929
1.623667
1.628473
1.633783
1.639691
1.645656
1.651754
1.658094
1.664854
1.602758
1.603942
1.6056
1.60779
1.610582
1.61406
1.617826
1.621922
1.626394
1.631302
1.636719
1.642115
1.64753
1.653028
1.658702
1.602147
1.603275
1.604854
1.606938
1.609591
1.612889
1.616447
1.620301
1.624489
1.629061
1.634075
1.639015
1.643902
1.648767
1.653662
1.601503
1.602578
1.604086
1.606074
1.608603
1.611742
1.615118
1.618761
1.622705
1.626991
1.631668
1.636235
1.640698
1.645073
1.649383
1.632715
1.638991
1.646314
1.6281
1.633361
1.640552
1.648995
1.624203
1.6286
1.634704
1.642926
1.652669
1.620873
1.624602
1.62979
1.636836
1.646232
1.657498
1.618011
1.621238
1.625713
1.63178
1.639887
1.650624
1.66255
1.615578
1.618411
1.622344
1.627639
1.634678
1.643969
1.655202
1.667761
1.613533
1.616053
1.619552
1.624246
1.630427
1.63852
1.648184
1.659859
1.672951
1.611784
1.614048
1.617194
1.621399
1.626904
1.634034
1.642421
1.652431
1.664505
1.67809
1.610252
1.612304
1.615158
1.618964
1.623919
1.630291
1.637661
1.646331
1.656676
1.669151
1.683296
1.608883
1.610757
1.613368
1.616844
1.621352
1.627109
1.633682
1.641287
1.650234
1.660919
1.673835
1.687479
1.607645
1.609368
1.611775
1.614975
1.619112
1.624368
1.630299
1.637071
1.644906
1.65413
1.665167
1.677565
1.690725
1.606517
1.608112
1.610345
1.613312
1.617138
1.621978
1.627388
1.633491
1.640458
1.648519
1.658017
1.668507
1.680364
1.693032
1.605493
1.606978
1.609062
1.61183
1.615391
1.619882
1.624859
1.630419
1.636689
1.643844
1.652122
1.661051
1.670945
1.682202
1.694293
1.604579
1.605971
1.607925
1.610521
1.613854
1.618044
1.622656
1.627765
1.633469
1.639896
1.647224
1.654929
1.663237
1.672456
1.682996
1.603792
1.605102
1.606945
1.609389
1.612522
1.616449
1.620746
1.625473
1.630705
1.63654
1.643106
1.649866
1.656949
1.664566
1.673008
1.603135
1.604376
1.60612
1.608431
1.611386
1.61508
1.6191
1.623496
1.628328
1.63367
1.63962
1.645635
1.651794
1.658211
1.665073
1.602557
1.603737
1.605393
1.607585
1.610382
1.613869
1.617647
1.621757
1.626248
1.631179
1.636625
1.642054
1.647507
1.65305
1.658781
1.602
1.603125
1.604703
1.606788
1.609444
1.612748
1.616314
1.620177
1.624377
1.628963
1.633994
1.638952
1.643859
1.648747
1.65367
1.601427
1.602501
1.604008
1.605997
1.608527
1.611668
1.615048
1.618695
1.622645
1.626937
1.631622
1.636196
1.640668
1.645052
1.649371
1.600818
1.601845
1.603286
1.605188
1.607605
1.610602
1.613817
1.617275
1.621007
1.625048
1.629438
1.633692
1.637809
1.641791
1.645646
1.628218
1.633471
1.640642
1.649039
1.624419
1.628808
1.634889
1.64306
1.6527
1.621152
1.624871
1.630034
1.637034
1.646345
1.657452
1.618294
1.62151
1.62596
1.631981
1.640016
1.65064
1.662412
1.615797
1.618619
1.62253
1.627788
1.634767
1.643977
1.655126
1.667631
1.613647
1.616159
1.619643
1.624313
1.630458
1.638503
1.648123
1.659797
1.673021
1.611828
1.614088
1.617226
1.621419
1.626907
1.634014
1.642377
1.65238
1.66452
1.678353
1.610264
1.612314
1.615164
1.618967
1.623915
1.630277
1.637636
1.646297
1.656653
1.669207
1.683587
1.608885
1.610758
1.613368
1.616843
1.621349
1.627103
1.633673
1.641273
1.650218
1.660913
1.673878
1.68766
1.607645
1.609368
1.611775
1.614975
1.619112
1.624368
1.630299
1.637071
1.644906
1.65413
1.665167
1.677565
1.690725
1.606514
1.60811
1.610343
1.613311
1.617137
1.621978
1.62739
1.633496
1.640467
1.648533
1.658034
1.668517
1.680331
1.692873
1.605478
1.606964
1.609047
1.611816
1.615378
1.619871
1.624851
1.630417
1.636695
1.643861
1.652154
1.661098
1.670992
1.682193
1.694099
1.604533
1.605923
1.607877
1.610474
1.613809
1.618002
1.62262
1.627738
1.633455
1.6399
1.647254
1.654991
1.663337
1.672587
1.683111
1.603685
1.604994
1.606835
1.609281
1.612417
1.616351
1.620658
1.625398
1.630648
1.636508
1.64311
1.649915
1.657057
1.664747
1.673273
1.602954
1.604191
1.605933
1.608246
1.611206
1.61491
1.618944
1.623358
1.628212
1.633584
1.639574
1.645637
1.651857
1.658352
1.665316
1.602344
1.603519
1.605174
1.607367
1.610169
1.613667
1.617459
1.621585
1.626097
1.631055
1.636536
1.642004
1.647503
1.653103
1.658905
1.601805
1.602926
1.604503
1.606589
1.609249
1.612561
1.616138
1.620014
1.624229
1.628835
1.633891
1.638876
1.643812
1.648734
1.653698
1.601284
1.602355
1.603861
1.605851
1.608384
1.611531
1.614917
1.618573
1.622532
1.626837
1.631537
1.636126
1.640614
1.645016
1.649356
1.600744
1.60177
1.603211
1.605113
1.607531
1.610531
1.613749
1.617211
1.620947
1.624993
1.62939
1.63365
1.637774
1.641764
1.645626
1.600166
1.601149
1.602531
1.604353
1.606668
1.609536
1.612604
1.615895
1.619437
1.623258
1.627395
1.631377
1.635198
1.638853
1.642338
1.624538
1.628922
1.634992
1.643136
1.652713
1.621369
1.625083
1.63023
1.637197
1.64644
1.6574
1.618573
1.621783
1.626216
1.632201
1.640173
1.65068
1.662243
1.61608
1.618896
1.622789
1.628011
1.634931
1.644045
1.655055
1.667335
1.613868
1.616374
1.619842
1.624483
1.63058
1.638551
1.648076
1.659637
1.672721
1.611945
1.6142
1.617328
1.621503
1.626962
1.634027
1.642337
1.652285
1.6644
1.67829
1.610311
1.612358
1.615203
1.618997
1.623932
1.630275
1.637609
1.646243
1.656585
1.669188
1.683764
1.608898
1.61077
1.613379
1.61685
1.621351
1.627098
1.633658
1.641246
1.650181
1.660883
1.673917
1.687912
1.607647
1.60937
1.611776
1.614976
1.619111
1.624365
1.630293
1.637062
1.644892
1.654114
1.665159
1.677603
1.690893
1.606514
1.60811
1.610343
1.613311
1.617137
1.621978
1.62739
1.633496
1.640467
1.648533
1.658034
1.668517
1.680331
1.692873
1.605476
1.606961
1.609045
1.611814
1.615376
1.619869
1.62485
1.630419
1.6367
1.64387
1.652168
1.661116
1.671004
1.682162
1.693944
1.604519
1.605909
1.607863
1.610459
1.613794
1.617989
1.622609
1.627731
1.633453
1.639907
1.647272
1.655025
1.663386
1.672638
1.683105
1.60364
1.604948
1.606788
1.609234
1.612371
1.616308
1.620618
1.625365
1.630624
1.636498
1.643118
1.649949
1.657123
1.664851
1.673407
1.602851
1.604086
1.605827
1.608139
1.611102
1.614812
1.618853
1.623277
1.628146
1.633537
1.639554
1.645651
1.651915
1.658467
1.665501
1.602168
1.603339
1.604993
1.607187
1.609993
1.6135
1.617303
1.621444
1.625974
1.630957
1.636469
1.641975
1.64752
1.653177
1.659053
1.601598
1.602715
1.60429
1.606377
1.609042
1.612364
1.615952
1.619842
1.624076
1.628703
1.633788
1.638804
1.643777
1.648741
1.653757
1.601094
1.602162
1.603666
1.605657
1.608194
1.611349
1.614745
1.618412
1.622385
1.626706
1.631427
1.636038
1.64055
1.644978
1.649347
1.600605
1.601628
1.603068
1.604971
1.607392
1.610397
1.613621
1.617091
1.620836
1.624893
1.629303
1.633576
1.637713
1.641717
1.645594
1.600094
1.601076
1.602457
1.60428
1.606596
1.609466
1.612537
1.615832
1.619378
1.623204
1.627347
1.631334
1.635161
1.638822
1.642312
1.599544
1.600488
1.601815
1.603564
1.605785
1.608534
1.611468
1.614608
1.617977
1.621602
1.625513
1.629256
1.632821
1.636198
1.639375
1.621487
1.625199
1.630338
1.637289
1.646495
1.657373
1.618787
1.621995
1.626417
1.632378
1.640306
1.650723
1.662109
1.616355
1.61917
1.623051
1.628246
1.635117
1.644147
1.655022
1.667042
1.614148
1.616652
1.620108
1.624722
1.630773
1.638665
1.648082
1.65948
1.672266
1.612166
1.614417
1.617535
1.621688
1.62711
1.634115
1.642342
1.652182
1.664157
1.677819
1.610429
1.612473
1.615312
1.619092
1.624006
1.630315
1.637603
1.646178
1.656455
1.669011
1.683567
1.608947
1.610817
1.613422
1.616888
1.621379
1.627111
1.63365
1.641212
1.650116
1.660798
1.673865
1.68802
1.607661
1.609383
1.611788
1.614987
1.619118
1.624368
1.630288
1.637046
1.644863
1.654073
1.665121
1.677628
1.691115
1.606517
1.608112
1.610345
1.613312
1.617138
1.621978
1.627388
1.633491
1.640458
1.648519
1.658017
1.668507
1.680364
1.693032
1.605476
1.606961
1.609045
1.611814
1.615376
1.619869
1.62485
1.630419
1.6367
1.64387
1.652168
1.661116
1.671004
1.682162
1.693944
1.604516
1.605906
1.60786
1.610456
1.613791
1.617986
1.622606
1.627729
1.633454
1.639911
1.647281
1.655039
1.663405
1.67265
1.683076
1.603627
1.604933
1.606773
1.609218
1.612356
1.616293
1.620604
1.625353
1.630616
1.636496
1.643125
1.649968
1.657158
1.664902
1.673459
1.602807
1.604041
1.605781
1.608093
1.611056
1.614767
1.618811
1.62324
1.628115
1.633516
1.639547
1.645663
1.651952
1.658536
1.665608
1.602068
1.603237
1.604889
1.607083
1.609891
1.613402
1.617211
1.62136
1.625902
1.630899
1.636432
1.641963
1.647541
1.653241
1.659171
1.601427
1.60254
1.604113
1.606201
1.60887
1.612199
1.615797
1.6197
1.623949
1.628597
1.633707
1.638753
1.64376
1.648768
1.653837
1.600892
1.601957
1.603459
1.605451
1.607992
1.611155
1.614561
1.618241
1.62223
1.626571
1.631315
1.635952
1.640493
1.644953
1.64936
1.60042
1.60144
1.602878
1.604782
1.607207
1.610219
1.613451
1.616931
1.620689
1.624761
1.629189
1.63348
1.637637
1.641661
1.645561
1.599958
1.600938
1.602318
1.604142
1.60646
1.609335
1.612412
1.615714
1.619267
1.623103
1.627258
1.631256
1.635094
1.638766
1.642268
1.599474
1.600417
1.601743
1.603493
1.605715
1.608466
1.611403
1.614546
1.617919
1.621548
1.625465
1.629212
1.632782
1.636164
1.639345
1.598949
1.599857
1.601133
1.602816
1.604951
1.607591
1.610402
1.613403
1.616615
1.620062
1.623771
1.627301
1.630642
1.63378
1.636698
1.618902
1.62211
1.626528
1.632477
1.640382
1.650752
1.662041
1.616565
1.61938
1.623254
1.628433
1.63527
1.644242
1.655015
1.666827
1.614417
1.616922
1.620371
1.624965
1.630979
1.638808
1.648131
1.659374
1.671851
1.612441
1.614693
1.617802
1.621937
1.627322
1.634266
1.642408
1.652127
1.663913
1.677206
1.610647
1.61269
1.615522
1.619287
1.624172
1.630434
1.637656
1.646141
1.656297
1.668685
1.682925
1.609065
1.610934
1.613534
1.616991
1.621466
1.627172
1.633675
1.641187
1.650027
1.660634
1.673631
1.68772
1.607709
1.609431
1.611834
1.615029
1.619154
1.624392
1.630297
1.637033
1.644822
1.653997
1.665019
1.677551
1.691174
1.606531
1.608126
1.610359
1.613325
1.617149
1.621985
1.62739
1.633485
1.640441
1.648489
1.657973
1.668464
1.68038
1.693235
1.605478
1.606964
1.609047
1.611816
1.615378
1.619871
1.624851
1.630417
1.636695
1.643861
1.652154
1.661098
1.670992
1.682193
1.694099
1.604516
1.605906
1.60786
1.610456
1.613791
1.617986
1.622606
1.627729
1.633454
1.639911
1.647281
1.655039
1.663405
1.67265
1.683076
1.603625
1.604931
1.606771
1.609215
1.612352
1.616289
1.620601
1.62535
1.630614
1.636496
1.643129
1.649977
1.657172
1.664921
1.673472
1.602794
1.604027
1.605766
1.608078
1.61104
1.614751
1.618796
1.623226
1.628103
1.633508
1.639545
1.64567
1.651972
1.658572
1.665659
1.602025
1.603193
1.604844
1.607037
1.609846
1.613357
1.617168
1.62132
1.625867
1.630871
1.636414
1.641959
1.647555
1.65328
1.659242
1.60133
1.602441
1.604013
1.6061
1.60877
1.612103
1.615705
1.619614
1.623872
1.628532
1.633658
1.638724
1.643756
1.648794
1.653903
1.600727
1.601788
1.603288
1.60528
1.607824
1.610994
1.614409
1.618099
1.622101
1.626458
1.631224
1.635885
1.640452
1.644945
1.649391
1.600224
1.60124
1.602677
1.604582
1.60701
1.61003
1.613272
1.616763
1.620534
1.624622
1.629071
1.633384
1.637563
1.641613
1.645541
1.599778
1.600755
1.602134
1.603958
1.60628
1.609161
1.612246
1.615557
1.619121
1.622971
1.627141
1.631155
1.635009
1.638698
1.642216
1.599341
1.600282
1.601607
1.603358
1.605583
1.608338
1.611281
1.61443
1.61781
1.621448
1.625374
1.629132
1.632711
1.636102
1.639293
1.598881
1.599788
1.601063
1.602747
1.604882
1.607524
1.610338
1.613342
1.616558
1.620009
1.623722
1.627257
1.630602
1.633743
1.636665
1.598378
1.599253
1.600484
1.602105
1.60416
1.606699
1.609397
1.612271
1.61534
1.618625
1.62215
1.625491
1.628634
1.631563
1.634259
1.616678
1.619494
1.623365
1.628536
1.635356
1.644298
1.655018
1.666718
1.614622
1.617129
1.620573
1.625156
1.631145
1.63893
1.648187
1.659316
1.671554
1.612704
1.614958
1.618063
1.622183
1.627541
1.634437
1.642507
1.652123
1.663734
1.676668
1.610916
1.612962
1.615789
1.619539
1.624397
1.630611
1.637768
1.646159
1.656181
1.668354
1.682153
1.609278
1.611149
1.613745
1.61719
1.621644
1.627313
1.633765
1.641206
1.649948
1.66042
1.673221
1.686945
1.607826
1.609548
1.611949
1.615136
1.619249
1.624468
1.630345
1.637042
1.644778
1.653883
1.66482
1.677271
1.690798
1.606579
1.608175
1.610406
1.61337
1.617189
1.622018
1.627411
1.63349
1.640423
1.64844
1.657887
1.668349
1.680284
1.693261
1.605493
1.606978
1.609062
1.61183
1.615391
1.619882
1.624859
1.630419
1.636689
1.643844
1.652122
1.661051
1.670945
1.682202
1.694293
1.604519
1.605909
1.607863
1.610459
1.613794
1.617989
1.622609
1.627731
1.633453
1.639907
1.647272
1.655025
1.663386
1.672638
1.683105
1.603625
1.604931
1.606771
1.609215
1.612352
1.616289
1.620601
1.62535
1.630614
1.636496
1.643129
1.649977
1.657172
1.664921
1.673472
1.602792
1.604024
1.605764
1.608074
1.611037
1.614747
1.618792
1.623221
1.628099
1.633506
1.639545
1.645674
1.65198
1.658586
1.665678
1.602013
1.60318
1.60483
1.607023
1.60983
1.613341
1.617151
1.621304
1.625852
1.630859
1.636406
1.641958
1.647563
1.6533
1.659278
1.60129
1.602399
1.603969
1.606056
1.608725
1.612058
1.615662
1.619573
1.623834
1.628499
1.633633
1.638708
1.643753
1.64881
1.653943
1.600633
1.601691
1.603191
1.605182
1.607727
1.610899
1.614318
1.618013
1.622022
1.626389
1.631167
1.635843
1.640429
1.644945
1.64942
1.600063
1.601076
1.602511
1.604416
1.606847
1.609872
1.613122
1.616622
1.620404
1.624507
1.628973
1.633306
1.637506
1.64158
1.645537
1.599587
1.600561
1.601938
1.603763
1.606088
1.608977
1.61207
1.615391
1.618967
1.622831
1.627019
1.631052
1.634924
1.638632
1.642172
1.599166
1.600104
1.601428
1.603179
1.605407
1.608169
1.611118
1.614276
1.617666
1.621315
1.625256
1.629028
1.63262
1.636024
1.639228
1.598751
1.599656
1.600931
1.602615
1.604753
1.607399
1.610218
1.613228
1.61645
1.619909
1.623632
1.627175
1.630529
1.633677
1.636606
1.598311
1.599185
1.600415
1.602037
1.604093
1.606634
1.609334
1.612211
1.615283
1.618572
1.622102
1.625446
1.628593
1.631525
1.634224
1.597829
1.598674
1.599862
1.601427
1.603408
1.605854
1.608447
1.611204
1.614141
1.617278
1.620637
1.623807
1.626773
1.629518
1.632023
1.614732
1.61724
1.620683
1.625259
1.631237
1.639
1.648223
1.659293
1.671404
1.612903
1.61516
1.618263
1.622374
1.627713
1.634576
1.642598
1.652141
1.663625
1.676289
1.611172
1.613221
1.616046
1.619786
1.624622
1.630799
1.637902
1.646215
1.656123
1.668103
1.681493
1.609541
1.611414
1.614008
1.617443
1.621875
1.627507
1.633908
1.641278
1.649917
1.660243
1.672804
1.68605
1.608035
1.609759
1.612157
1.615337
1.619433
1.624623
1.630461
1.637103
1.644763
1.653763
1.664552
1.676796
1.689924
1.606694
1.60829
1.61052
1.61348
1.61729
1.622104
1.627476
1.633525
1.640416
1.648377
1.657748
1.668123