/*--------------------------------*- C++ -*----------------------------------*\
| =========                 |                                                 |
| \\      /  F ield         | OpenFOAM: The Open Source CFD Toolbox           |
|  \\    /   O peration     | Version:  2306                                  |
|   \\  /    A nd           | Website:  www.openfoam.com                      |
|    \\/     M anipulation  |                                                 |
\*---------------------------------------------------------------------------*/
FoamFile
{
    version     2.0;
    format      ascii;
    arch        "LSB;label=32;scalar=64";
    class       volScalarField;
    location    "1.5/phiI";
    object      T;
}
// * * * * * * * * * * * * * * * * * * * * * * * * * * * * * * * * * * * * * //

dimensions      [0 0 0 1 0 0 0];

internalField   nonuniform List<scalar> 
12000
(
1277.145
1276.957
1279.465
1277.235
1276.522
1279.458
1277.048
1281.534
1279.542
1277.307
1275.703
1279.44
1276.613
1281.573
1279.535
1277.12
1283.413
1281.599
1279.603
1277.361
1274.294
1279.404
1275.798
1281.663
1279.516
1276.687
1283.463
1281.638
1279.595
1277.175
1285.185
1283.468
1281.649
1279.647
1277.397
1272.164
1279.339
1274.402
1281.825
1279.479
1275.875
1283.579
1281.727
1279.576
1276.742
1285.237
1283.518
1281.688
1279.639
1277.21
1286.884
1285.232
1283.509
1281.684
1279.674
1277.411
1269.706
1279.211
1272.302
1282.091
1279.41
1274.492
1283.788
1281.887
1279.538
1275.935
1285.354
1283.633
1281.776
1279.619
1276.779
1286.934
1285.284
1283.56
1281.723
1279.666
1277.224
1288.519
1286.924
1285.266
1283.536
1281.703
1279.682
1277.423
1267.452
1278.927
1269.884
1282.457
1279.276
1272.421
1284.134
1282.148
1279.465
1274.562
1285.568
1283.841
1281.934
1279.579
1275.974
1287.046
1285.401
1283.674
1281.81
1279.645
1276.793
1288.566
1286.974
1285.318
1283.586
1281.742
1279.673
1277.237
1290.092
1288.554
1286.952
1285.287
1283.549
1281.705
1279.689
1277.435
1265.779
1278.557
1267.665
1282.751
1278.992
1270.04
1284.62
1282.502
1279.324
1272.519
1285.92
1284.181
1282.189
1279.502
1274.613
1287.25
1285.612
1283.879
1281.966
1279.602
1275.992
1288.671
1287.086
1285.434
1283.7
1281.828
1279.652
1276.806
1290.136
1288.6
1287.002
1285.338
1283.599
1281.744
1279.68
1277.249
1291.604
1290.122
1288.577
1286.968
1285.294
1283.546
1281.707
1279.695
1277.447
1264.897
1278.224
1266.017
1282.928
1278.627
1267.856
1285.067
1282.788
1279.039
1270.175
1286.416
1284.655
1282.531
1279.354
1272.596
1287.587
1285.959
1284.214
1282.214
1279.521
1274.64
1288.863
1287.288
1285.644
1283.903
1281.98
1279.607
1276.007
1290.235
1288.705
1287.113
1285.454
1283.711
1281.829
1279.657
1276.819
1291.645
1290.166
1288.623
1287.017
1285.345
1283.596
1281.745
1279.686
1277.261
1293.055
1291.63
1290.141
1288.588
1286.971
1285.288
1283.544
1281.709
1279.701
1277.459
1264.897
1278.029
1265.148
1283.014
1278.298
1266.233
1285.397
1282.962
1278.678
1268.025
1286.886
1285.092
1282.809
1279.069
1270.288
1288.061
1286.445
1284.676
1282.545
1279.366
1272.644
1289.179
1287.62
1285.985
1284.231
1282.223
1279.521
1274.663
1290.415
1288.896
1287.314
1285.661
1283.911
1281.979
1279.61
1276.023
1291.739
1290.265
1288.728
1287.128
1285.46
1283.707
1281.829
1279.662
1276.833
1293.094
1291.672
1290.185
1288.634
1287.019
1285.338
1283.593
1281.746
1279.692
1277.273
1294.444
1293.078
1291.646
1290.149
1288.587
1286.961
1285.282
1283.541
1281.71
1279.707
1277.471
1265.779
1278.029
1265.148
1283.045
1278.107
1265.377
1285.606
1283.047
1278.355
1266.427
1287.248
1285.418
1282.98
1278.712
1268.17
1288.516
1286.906
1285.103
1282.815
1279.08
1270.366
1289.624
1288.085
1286.46
1284.681
1282.541
1279.359
1272.686
1290.711
1289.208
1287.641
1285.997
1284.233
1282.215
1279.521
1274.687
1291.908
1290.444
1288.917
1287.327
1285.665
1283.905
1281.977
1279.614
1276.04
1293.182
1291.765
1290.283
1288.739
1287.129
1285.452
1283.703
1281.829
1279.667
1276.846
1294.481
1293.117
1291.687
1290.193
1288.633
1287.01
1285.332
1283.59
1281.747
1279.697
1277.286
1295.772
1294.464
1293.091
1291.651
1290.146
1288.576
1286.953
1285.276
1283.539
1281.711
1279.713
1277.488
1267.452
1278.224
1266.017
1283.045
1278.107
1265.377
1285.705
1283.078
1278.167
1265.583
1287.486
1285.624
1283.064
1278.394
1266.596
1288.871
1287.263
1285.424
1282.981
1278.726
1268.277
1290.052
1288.532
1286.913
1285.1
1282.803
1279.072
1270.433
1291.126
1289.644
1288.097
1286.461
1284.672
1282.523
1279.354
1272.728
1292.185
1290.736
1289.225
1287.649
1285.995
1284.221
1282.208
1279.52
1274.712
1293.341
1291.933
1290.461
1288.926
1287.326
1285.655
1283.899
1281.974
1279.617
1276.056
1294.564
1293.204
1291.78
1290.291
1288.737
1287.119
1285.445
1283.699
1281.829
1279.672
1276.86
1295.807
1294.501
1293.129
1291.692
1290.189
1288.621
1287.001
1285.326
1283.587
1281.747
1279.702
1277.303
1297.041
1295.79
1294.475
1293.094
1291.646
1290.132
1288.565
1286.944
1285.27
1283.535
1281.712
1279.724
1277.511
1269.706
1278.557
1267.665
1283.014
1278.298
1266.233
1285.705
1283.078
1278.167
1265.583
1287.602
1285.722
1283.095
1278.209
1265.764
1289.107
1287.498
1285.628
1283.064
1278.413
1266.723
1290.39
1288.883
1287.265
1285.415
1282.966
1278.721
1268.368
1291.528
1290.066
1288.536
1286.905
1285.081
1282.778
1279.065
1270.499
1292.574
1291.144
1289.653
1288.095
1286.449
1284.649
1282.507
1279.348
1272.77
1293.602
1292.207
1290.75
1289.23
1287.644
1285.981
1284.21
1282.2
1279.52
1274.737
1294.715
1293.363
1291.947
1290.467
1288.923
1287.314
1285.646
1283.893
1281.971
1279.62
1276.074
1295.887
1294.584
1293.217
1291.785
1290.286
1288.724
1287.11
1285.438
1283.695
1281.828
1279.676
1276.879
1297.074
1295.825
1294.512
1293.132
1291.686
1290.175
1288.611
1286.992
1285.32
1283.583
1281.747
1279.713
1277.327
1298.25
1297.057
1295.799
1294.476
1293.086
1291.631
1290.12
1288.555
1286.936
1285.264
1283.532
1281.717
1279.739
1277.539
1272.164
1278.927
1269.884
1282.928
1278.627
1267.856
1285.606
1283.047
1278.355
1266.427
1287.602
1285.722
1283.095
1278.209
1265.764
1289.224
1287.613
1285.725
1283.096
1278.231
1265.902
1290.615
1289.116
1287.497
1285.617
1283.049
1278.412
1266.831
1291.846
1290.4
1288.882
1287.252
1285.392
1282.938
1278.717
1268.457
1292.951
1291.54
1290.068
1288.527
1286.884
1285.051
1282.756
1279.058
1270.565
1293.968
1292.59
1291.151
1289.65
1288.081
1286.425
1284.63
1282.491
1279.342
1272.812
1294.962
1293.622
1292.218
1290.752
1289.222
1287.627
1285.967
1284.199
1282.192
1279.519
1274.763
1296.03
1294.735
1293.375
1291.951
1290.461
1288.909
1287.303
1285.637
1283.886
1281.968
1279.622
1276.097
1297.15
1295.905
1294.595
1293.22
1291.778
1290.272
1288.713
1287.1
1285.431
1283.69
1281.827
1279.686
1276.904
1298.282
1297.09
1295.834
1294.513
1293.125
1291.671
1290.163
1288.6
1286.983
1285.313
1283.579
1281.752
1279.728
1277.356
1299.401
1298.264
1297.064
1295.799
1294.467
1293.07
1291.617
1290.108
1288.544
1286.927
1285.257
1283.533
1281.727
1279.76
1277.572
1274.294
1279.211
1272.302
1282.751
1278.992
1270.04
1285.397
1282.962
1278.678
1268.025
1287.486
1285.624
1283.064
1278.394
1266.596
1289.224
1287.613
1285.725
1283.096
1278.231
1265.902
1290.727
1289.232
1287.611
1285.713
1283.08
1278.234
1266.019
1292.059
1290.623
1289.113
1287.482
1285.59
1283.019
1278.411
1266.938
1293.251
1291.854
1290.397
1288.868
1287.226
1285.356
1282.913
1278.712
1268.545
1294.323
1292.961
1291.541
1290.058
1288.505
1286.853
1285.025
1282.733
1279.051
1270.629
1295.307
1293.981
1292.594
1291.146
1289.634
1288.056
1286.403
1284.61
1282.475
1279.336
1272.853
1296.264
1294.979
1293.631
1292.219
1290.743
1289.204
1287.613
1285.954
1284.188
1282.184
1279.518
1274.794
1297.286
1296.047
1294.744
1293.376
1291.943
1290.445
1288.896
1287.292
1285.627
1283.879
1281.965
1279.63
1276.126
1298.354
1297.166
1295.913
1294.595
1293.212
1291.762
1290.259
1288.701
1287.09
1285.423
1283.685
1281.831
1279.7
1276.935
1299.432
1298.296
1297.097
1295.834
1294.504
1293.108
1291.658
1290.151
1288.589
1286.974
1285.305
1283.579
1281.762
1279.748
1277.39
1300.496
1299.414
1298.27
1297.062
1295.789
1294.45
1293.056
1291.604
1290.096
1288.533
1286.917
1285.254
1283.538
1281.741
1279.785
1275.703
1279.339
1274.402
1282.457
1279.276
1272.421
1285.067
1282.788
1279.039
1270.175
1287.248
1285.418
1282.98
1278.712
1268.17
1289.107
1287.498
1285.628
1283.064
1278.413
1266.723
1290.727
1289.232
1287.611
1285.713
1283.08
1278.234
1266.019
1292.165
1290.734
1289.227
1287.595
1285.686
1283.05
1278.235
1266.135
1293.452
1292.066
1290.619
1289.097
1287.453
1285.553
1282.993
1278.41
1267.042
1294.606
1293.258
1291.851
1290.383
1288.841
1287.19
1285.326
1282.888
1278.707
1268.632
1295.643
1294.332
1292.961
1291.53
1290.036
1288.473
1286.825
1284.998
1282.711
1279.044
1270.692
1296.591
1295.319
1293.985
1292.588
1291.129
1289.609
1288.034
1286.382
1284.59
1282.458
1279.33
1272.9
1297.509
1296.279
1294.986
1293.629
1292.208
1290.723
1289.188
1287.597
1285.94
1284.176
1282.175
1279.523
1274.832
1298.485
1297.302
1296.055
1294.744
1293.367
1291.926
1290.431
1288.883
1287.28
1285.618
1283.871
1281.966
1279.643
1276.162
1299.501
1298.369
1297.173
1295.912
1294.586
1293.195
1291.749
1290.246
1288.69
1287.08
1285.414
1283.684
1281.839
1279.72
1276.971
1300.525
1299.445
1298.302
1297.096
1295.824
1294.487
1293.094
1291.644
1290.138
1288.577
1286.964
1285.302
1283.584
1281.776
1279.773
1301.535
1300.508
1299.419
1298.268
1297.052
1295.772
1294.436
1293.042
1291.591
1290.083
1288.521
1286.911
1285.255
1283.547
1281.76
1276.522
1279.404
1275.798
1282.091
1279.41
1274.492
1284.62
1282.502
1279.324
1272.519
1286.886
1285.092
1282.809
1279.069
1270.288
1288.871
1287.263
1285.424
1282.981
1278.726
1268.277
1290.615
1289.116
1287.497
1285.617
1283.049
1278.412
1266.831
1292.165
1290.734
1289.227
1287.595
1285.686
1283.05
1278.235
1266.135
1293.552
1292.171
1290.729
1289.21
1287.565
1285.648
1283.024
1278.236
1266.248
1294.796
1293.457
1292.061
1290.602
1289.068
1287.414
1285.521
1282.967
1278.408
1267.145
1295.91
1294.612
1293.254
1291.837
1290.357
1288.806
1287.159
1285.296
1282.862
1278.702
1268.716
1296.909
1295.65
1294.331
1292.95
1291.507
1290.004
1288.445
1286.798
1284.971
1282.689
1279.036
1270.76
1297.82
1296.601
1295.321
1293.978
1292.571
1291.104
1289.586
1288.012
1286.361
1284.57
1282.441
1279.329
1272.953
1298.698
1297.523
1296.285
1294.983
1293.617
1292.188
1290.706
1289.172
1287.582
1285.925
1284.163
1282.171
1279.532
1274.877
1299.627
1298.499
1297.308
1296.054
1294.734
1293.349
1291.911
1290.417
1288.869
1287.268
1285.607
1283.868
1281.971
1279.661
1276.203
1300.592
1299.514
1298.374
1297.171
1295.902
1294.569
1293.18
1291.734
1290.233
1288.678
1287.069
1285.41
1283.687
1281.851
1279.744
1301.564
1300.537
1299.45
1298.3
1297.085
1295.806
1294.472
1293.08
1291.63
1290.125
1288.565
1286.957
1285.303
1283.593
1281.794
1302.521
1301.546
1300.512
1299.416
1298.257
1297.034
1295.757
1294.421
1293.028
1291.577
1290.07
1288.512
1286.909
1285.26
1283.561
1276.957
1279.44
1276.613
1281.825
1279.479
1275.875
1284.134
1282.148
1279.465
1274.562
1286.416
1284.655
1282.531
1279.354
1272.596
1288.516
1286.906
1285.103
1282.815
1279.08
1270.366
1290.39
1288.883
1287.265
1285.415
1282.966
1278.721
1268.368
1292.059
1290.623
1289.113
1287.482
1285.59
1283.019
1278.411
1266.938
1293.552
1292.171
1290.729
1289.21
1287.565
1285.648
1283.024
1278.236
1266.248
1294.891
1293.557
1292.165
1290.711
1289.18
1287.525
1285.615
1282.998
1278.236
1266.36
1296.091
1294.801
1293.452
1292.044
1290.574
1289.03
1287.381
1285.488
1282.941
1278.406
1267.246
1297.164
1295.916
1294.608
1293.24
1291.811
1290.322
1288.775
1287.127
1285.265
1282.837
1278.696
1268.805
1298.123
1296.916
1295.648
1294.319
1292.927
1291.477
1289.977
1288.418
1286.77
1284.945
1282.665
1279.034
1270.833
1298.994
1297.829
1296.602
1295.313
1293.96
1292.545
1291.081
1289.564
1287.99
1286.339
1284.549
1282.428
1279.334
1273.011
1299.83
1298.71
1297.527
1296.281
1294.971
1293.597
1292.17
1290.689
1289.155
1287.566
1285.91
1284.154
1282.171
1279.547
1274.927
1300.713
1299.639
1298.504
1297.306
1296.042
1294.715
1293.334
1291.895
1290.402
1288.856
1287.255
1285.6
1283.868
1281.981
1279.684
1301.628
1300.604
1299.519
1298.372
1297.16
1295.884
1294.554
1293.165
1291.72
1290.22
1288.664
1287.061
1285.409
1283.695
1281.869
1302.548
1301.575
1300.541
1299.447
1298.288
1297.067
1295.791
1294.457
1293.065
1291.617
1290.111
1288.556
1286.955
1285.307
1283.606
1303.454
1302.531
1301.55
1300.508
1299.404
1298.239
1297.019
1295.741
1294.406
1293.013
1291.562
1290.059
1288.508
1286.911
1285.27
1277.145
1279.458
1277.048
1281.663
1279.516
1276.687
1283.788
1281.887
1279.538
1275.935
1285.92
1284.181
1282.189
1279.502
1274.613
1288.061
1286.445
1284.676
1282.545
1279.366
1272.644
1290.052
1288.532
1286.913
1285.1
1282.803
1279.072
1270.433
1291.846
1290.4
1288.882
1287.252
1285.392
1282.938
1278.717
1268.457
1293.452
1292.066
1290.619
1289.097
1287.453
1285.553
1282.993
1278.41
1267.042
1294.891
1293.557
1292.165
1290.711
1289.18
1287.525
1285.615
1282.998
1278.236
1266.36
1296.182
1294.895
1293.551
1292.148
1290.682
1289.141
1287.491
1285.582
1282.972
1278.236
1266.468
1297.337
1296.095
1294.795
1293.436
1292.017
1290.537
1288.997
1287.348
1285.456
1282.915
1278.403
1267.35
1298.366
1297.169
1295.911
1294.593
1293.214
1291.777
1290.292
1288.744
1287.096
1285.235
1282.811
1278.696
1268.898
1299.284
1298.129
1296.914
1295.637
1294.297
1292.898
1291.45
1289.95
1288.39
1286.742
1284.917
1282.647
1279.036
1270.911
1300.114
1299.002
1297.83
1296.594
1295.295
1293.935
1292.523
1291.059
1289.542
1287.967
1286.316
1284.532
1282.421
1279.343
1273.075
1300.908
1299.841
1298.713
1297.523
1296.268
1294.95
1293.579
1292.152
1290.672
1289.138
1287.549
1285.898
1284.15
1282.176
1279.567
1301.744
1300.724
1299.644
1298.501
1297.294
1296.024
1294.699
1293.318
1291.88
1290.387
1288.841
1287.245
1285.597
1283.873
1281.996
1302.61
1301.639
1300.608
1299.516
1298.36
1297.142
1295.869
1294.538
1293.15
1291.706
1290.205
1288.655
1287.058
1285.413
1283.707
1303.48
1302.558
1301.578
1300.538
1299.435
1298.271
1297.052
1295.776
1294.442
1293.05
1291.601
1290.1
1288.551
1286.956
1285.317
1304.335
1303.463
1302.534
1301.545
1300.496
1299.387
1298.223
1297.003
1295.726
1294.391
1292.997
1291.55
1290.052
1288.507
1286.917
1279.465
1277.235
1281.573
1279.535
1277.12
1283.579
1281.727
1279.576
1276.742
1285.568
1283.841
1281.934
1279.579
1275.974
1287.587
1285.959
1284.214
1282.214
1279.521
1274.64
1289.624
1288.085
1286.46
1284.681
1282.541
1279.359
1272.686
1291.528
1290.066
1288.536
1286.905
1285.081
1282.778
1279.065
1270.499
1293.251
1291.854
1290.397
1288.868
1287.226
1285.356
1282.913
1278.712
1268.545
1294.796
1293.457
1292.061
1290.602
1289.068
1287.414
1285.521
1282.967
1278.408
1267.145
1296.182
1294.895
1293.551
1292.148
1290.682
1289.141
1287.491
1285.582
1282.972
1278.236
1266.468
1297.423
1296.185
1294.889
1293.534
1292.119
1290.644
1289.108
1287.457
1285.549
1282.946
1278.235
1266.581
1298.531
1297.34
1296.09
1294.78
1293.409
1291.981
1290.505
1288.964
1287.314
1285.423
1282.888
1278.405
1267.458
1299.517
1298.37
1297.164
1295.897
1294.569
1293.182
1291.748
1290.262
1288.713
1287.064
1285.203
1282.789
1278.7
1268.995
1300.392
1299.289
1298.126
1296.902
1295.615
1294.268
1292.872
1291.424
1289.923
1288.363
1286.713
1284.893
1282.633
1279.044
1270.994
1301.18
1300.121
1299.002
1297.821
1296.576
1295.27
1293.913
1292.501
1291.036
1289.519
1287.944
1286.297
1284.519
1282.418
1279.358
1301.932
1300.918
1299.844
1298.708
1297.509
1296.247
1294.932
1293.56
1292.134
1290.654
1289.119
1287.535
1285.891
1284.15
1282.186
1302.722
1301.755
1300.728
1299.639
1298.488
1297.275
1296.007
1294.683
1293.301
1291.864
1290.371
1288.829
1287.239
1285.598
1283.883
1303.54
1302.62
1301.642
1300.604
1299.504
1298.342
1297.126
1295.853
1294.522
1293.135
1291.69
1290.193
1288.649
1287.058
1285.421
1304.361
1303.489
1302.561
1301.574
1300.526
1299.417
1298.255
1297.036
1295.76
1294.426
1293.034
1291.589
1290.093
1288.55
1286.962
1305.166
1304.343
1303.465
1302.529
1301.533
1300.479
1299.371
1298.208
1296.988
1295.71
1294.374
1292.984
1291.542
1290.049
1288.51
1281.534
1279.542
1277.307
1283.463
1281.638
1279.595
1277.175
1285.354
1283.633
1281.776
1279.619
1276.779
1287.25
1285.612
1283.879
1281.966
1279.602
1275.992
1289.179
1287.62
1285.985
1284.231
1282.223
1279.521
1274.663
1291.126
1289.644
1288.097
1286.461
1284.672
1282.523
1279.354
1272.728
1292.951
1291.54
1290.068
1288.527
1286.884
1285.051
1282.756
1279.058
1270.565
1294.606
1293.258
1291.851
1290.383
1288.841
1287.19
1285.326
1282.888
1278.707
1268.632
1296.091
1294.801
1293.452
1292.044
1290.574
1289.03
1287.381
1285.488
1282.941
1278.406
1267.246
1297.423
1296.185
1294.889
1293.534
1292.119
1290.644
1289.108
1287.457
1285.549
1282.946
1278.235
1266.581
1298.613
1297.426
1296.179
1294.873
1293.506
1292.083
1290.612
1289.074
1287.423
1285.515
1282.918
1278.239
1266.697
1299.674
1298.534
1297.334
1296.074
1294.753
1293.375
1291.951
1290.474
1288.931
1287.281
1285.39
1282.865
1278.413
1267.57
1300.615
1299.52
1298.366
1297.15
1295.873
1294.537
1293.154
1291.719
1290.232
1288.682
1287.032
1285.175
1282.773
1278.71
1269.097
1301.447
1300.397
1299.286
1298.115
1296.881
1295.587
1294.243
1292.846
1291.397
1289.896
1288.334
1286.688
1284.874
1282.624
1279.057
1302.194
1301.187
1300.121
1298.993
1297.803
1296.552
1295.249
1293.891
1292.479
1291.014
1289.495
1287.923
1286.282
1284.511
1282.42
1302.904
1301.942
1300.92
1299.839
1298.694
1297.488
1296.229
1294.913
1293.542
1292.116
1290.634
1289.104
1287.525
1285.887
1284.154
1303.649
1302.732
1301.758
1300.723
1299.627
1298.469
1297.258
1295.991
1294.666
1293.285
1291.847
1290.358
1288.821
1287.238
1285.604
1304.419
1303.55
1302.623
1301.638
1300.592
1299.486
1298.326
1297.11
1295.837
1294.507
1293.118
1291.677
1290.185
1288.647
1287.063
1305.191
1304.369
1303.492
1302.556
1301.562
1300.508
1299.401
1298.239
1297.02
1295.744
1294.41
1293.021
1291.58
1290.09
1288.553
1305.948
1305.174
1304.345
1303.46
1302.517
1301.516
1300.463
1299.355
1298.192
1296.972
1295.693
1294.36
1292.974
1291.537
1290.05
1283.413
1281.599
1279.603
1277.361
1285.237
1283.518
1281.688
1279.639
1277.21
1287.046
1285.401
1283.674
1281.81
1279.645
1276.793
1288.863
1287.288
1285.644
1283.903
1281.98
1279.607
1276.007
1290.711
1289.208
1287.641
1285.997
1284.233
1282.215
1279.521
1274.687
1292.574
1291.144
1289.653
1288.095
1286.449
1284.649
1282.507
1279.348
1272.77
1294.323
1292.961
1291.541
1290.058
1288.505
1286.853
1285.025
1282.733
1279.051
1270.629
1295.91
1294.612
1293.254
1291.837
1290.357
1288.806
1287.159
1285.296
1282.862
1278.702
1268.716
1297.337
1296.095
1294.795
1293.436
1292.017
1290.537
1288.997
1287.348
1285.456
1282.915
1278.403
1267.35
1298.613
1297.426
1296.179
1294.873
1293.506
1292.083
1290.612
1289.074
1287.423
1285.515
1282.918
1278.239
1266.697
1299.753
1298.616
1297.419
1296.163
1294.846
1293.472
1292.052
1290.579
1289.041
1287.388
1285.481
1282.895
1278.248
1266.817
1300.767
1299.677
1298.528
1297.319
1296.049
1294.721
1293.346
1291.92
1290.442
1288.899
1287.246
1285.36
1282.847
1278.425
1267.687
1301.662
1300.618
1299.515
1298.352
1297.127
1295.843
1294.51
1293.125
1291.69
1290.202
1288.649
1287.002
1285.152
1282.761
1278.724
1302.451
1301.452
1300.393
1299.274
1298.094
1296.853
1295.562
1294.217
1292.82
1291.371
1289.867
1288.308
1286.667
1284.86
1282.62
1303.156
1302.2
1301.186
1300.112
1298.976
1297.779
1296.53
1295.227
1293.868
1292.456
1290.99
1289.474
1287.907
1286.272
1284.508
1303.824
1302.913
1301.943
1300.914
1299.824
1298.673
1297.47
1296.21
1294.895
1293.523
1292.096
1290.618
1289.092
1287.519
1285.888
1304.524
1303.658
1302.734
1301.753
1300.71
1299.608
1298.453
1297.242
1295.974
1294.649
1293.267
1291.832
1290.348
1288.817
1287.24
1305.247
1304.427
1303.552
1302.618
1301.626
1300.574
1299.47
1298.31
1297.094
1295.821
1294.489
1293.104
1291.667
1290.181
1288.648
1305.972
1305.199
1304.371
1303.487
1302.544
1301.544
1300.492
1299.386
1298.223
1297.004
1295.727
1294.395
1293.011
1291.575
1290.09
1306.681
1305.955
1305.175
1304.34
1303.448
1302.5
1301.5
1300.447
1299.34
1298.176
1296.955
1295.679
1294.35
1292.968
1291.536
1285.185
1283.468
1281.649
1279.647
1277.397
1286.934
1285.284
1283.56
1281.723
1279.666
1277.224
1288.671
1287.086
1285.434
1283.7
1281.828
1279.652
1276.806
1290.415
1288.896
1287.314
1285.661
1283.911
1281.979
1279.61
1276.023
1292.185
1290.736
1289.225
1287.649
1285.995
1284.221
1282.208
1279.52
1274.712
1293.968
1292.59
1291.151
1289.65
1288.081
1286.425
1284.63
1282.491
1279.342
1272.812
1295.643
1294.332
1292.961
1291.53
1290.036
1288.473
1286.825
1284.998
1282.711
1279.044
1270.692
1297.164
1295.916
1294.608
1293.24
1291.811
1290.322
1288.775
1287.127
1285.265
1282.837
1278.696
1268.805
1298.531
1297.34
1296.09
1294.78
1293.409
1291.981
1290.505
1288.964
1287.314
1285.423
1282.888
1278.405
1267.458
1299.753
1298.616
1297.419
1296.163
1294.846
1293.472
1292.052
1290.579
1289.041
1287.388
1285.481
1282.895
1278.248
1266.817
1300.843
1299.756
1298.61
1297.404
1296.137
1294.813
1293.442
1292.021
1290.547
1289.007
1287.352
1285.45
1282.877
1278.262
1266.941
1301.808
1300.769
1299.671
1298.514
1297.295
1296.017
1294.692
1293.316
1291.89
1290.41
1288.864
1287.214
1285.335
1282.834
1278.442
1302.658
1301.665
1300.613
1299.502
1298.329
1297.097
1295.816
1294.483
1293.097
1291.661
1290.17
1288.62
1286.977
1285.134
1282.754
1303.404
1302.455
1301.448
1300.382
1299.254
1298.067
1296.829
1295.537
1294.192
1292.794
1291.342
1289.841
1288.286
1286.651
1284.85
1304.068
1303.162
1302.199
1301.177
1300.094
1298.952
1297.758
1296.509
1295.205
1293.846
1292.432
1290.968
1289.457
1287.895
1286.266
1304.694
1303.832
1302.914
1301.937
1300.9
1299.804
1298.655
1297.451
1296.192
1294.876
1293.503
1292.078
1290.605
1289.085
1287.517
1305.349
1304.532
1303.659
1302.729
1301.74
1300.692
1299.591
1298.436
1297.225
1295.957
1294.631
1293.251
1291.821
1290.342
1288.817
1306.027
1305.255
1304.429
1303.547
1302.606
1301.608
1300.558
1299.453
1298.294
1297.077
1295.803
1294.474
1293.093
1291.661
1290.181
1306.705
1305.979
1305.2
1304.366
1303.475
1302.527
1301.528
1300.476
1299.37
1298.207
1296.987
1295.712
1294.384
1293.005
1291.574
1307.368
1306.688
1305.956
1305.17
1304.328
1303.431
1302.484
1301.485
1300.432
1299.324
1298.159
1296.939
1295.667
1294.342
1292.965
1286.884
1285.232
1283.509
1281.684
1279.674
1277.411
1288.566
1286.974
1285.318
1283.586
1281.742
1279.673
1277.237
1290.235
1288.705
1287.113
1285.454
1283.711
1281.829
1279.657
1276.819
1291.908
1290.444
1288.917
1287.327
1285.665
1283.905
1281.977
1279.614
1276.04
1293.602
1292.207
1290.75
1289.23
1287.644
1285.981
1284.21
1282.2
1279.52
1274.737
1295.307
1293.981
1292.594
1291.146
1289.634
1288.056
1286.403
1284.61
1282.475
1279.336
1272.853
1296.909
1295.65
1294.331
1292.95
1291.507
1290.004
1288.445
1286.798
1284.971
1282.689
1279.036
1270.76
1298.366
1297.169
1295.911
1294.593
1293.214
1291.777
1290.292
1288.744
1287.096
1285.235
1282.811
1278.696
1268.898
1299.674
1298.534
1297.334
1296.074
1294.753
1293.375
1291.951
1290.474
1288.931
1287.281
1285.39
1282.865
1278.413
1267.57
1300.843
1299.756
1298.61
1297.404
1296.137
1294.813
1293.442
1292.021
1290.547
1289.007
1287.352
1285.45
1282.877
1278.262
1266.941
1301.881
1300.845
1299.749
1298.595
1297.379
1296.105
1294.784
1293.412
1291.99
1290.515
1288.972
1287.32
1285.424
1282.864
1278.281
1302.799
1301.81
1300.763
1299.657
1298.49
1297.264
1295.99
1294.664
1293.287
1291.859
1290.377
1288.833
1287.187
1285.314
1282.826
1303.605
1302.661
1301.66
1300.6
1299.48
1298.301
1297.072
1295.79
1294.455
1293.069
1291.63
1290.141
1288.595
1286.957
1285.12
1304.308
1303.408
1302.452
1301.437
1300.361
1299.228
1298.043
1296.805
1295.513
1294.167
1292.766
1291.317
1289.82
1288.269
1286.639
1304.93
1304.073
1303.161
1302.19
1301.16
1300.071
1298.931
1297.737
1296.487
1295.183
1293.822
1292.41
1290.95
1289.444
1287.887
1305.514
1304.701
1303.833
1302.907
1301.923
1300.88
1299.786
1298.637
1297.433
1296.173
1294.855
1293.485
1292.064
1290.596
1289.081
1306.126
1305.357
1304.533
1303.654
1302.716
1301.721
1300.675
1299.575
1298.419
1297.207
1295.938
1294.615
1293.239
1291.814
1290.34
1306.758
1306.034
1305.257
1304.424
1303.534
1302.588
1301.592
1300.542
1299.437
1298.277
1297.059
1295.787
1294.463
1293.086
1291.659
1307.391
1306.712
1305.981
1305.195
1304.354
1303.457
1302.511
1301.513
1300.461
1299.354
1298.19
1296.971
1295.7
1294.377
1293.002
1308.009
1307.375
1306.689
1305.951
1305.158
1304.311
1303.416
1302.469
1301.469
1300.416
1299.306
1298.143
1296.927
1295.659
1294.338
1288.519
1286.924
1285.266
1283.536
1281.703
1279.682
1277.423
1290.136
1288.6
1287.002
1285.338
1283.599
1281.744
1279.68
1277.249
1291.739
1290.265
1288.728
1287.128
1285.46
1283.707
1281.829
1279.662
1276.833
1293.341
1291.933
1290.461
1288.926
1287.326
1285.655
1283.899
1281.974
1279.617
1276.056
1294.962
1293.622
1292.218
1290.752
1289.222
1287.627
1285.967
1284.199
1282.192
1279.519
1274.763
1296.591
1295.319
1293.985
1292.588
1291.129
1289.609
1288.034
1286.382
1284.59
1282.458
1279.33
1272.9
1298.123
1296.916
1295.648
1294.319
1292.927
1291.477
1289.977
1288.418
1286.77
1284.945
1282.665
1279.034
1270.833
1299.517
1298.37
1297.164
1295.897
1294.569
1293.182
1291.748
1290.262
1288.713
1287.064
1285.203
1282.789
1278.7
1268.995
1300.767
1299.677
1298.528
1297.319
1296.049
1294.721
1293.346
1291.92
1290.442
1288.899
1287.246
1285.36
1282.847
1278.425
1267.687
1301.881
1300.845
1299.749
1298.595
1297.379
1296.105
1294.784
1293.412
1291.99
1290.515
1288.972
1287.32
1285.424
1282.864
1278.281
1302.87
1301.883
1300.839
1299.735
1298.57
1297.348
1296.077
1294.755
1293.382
1291.959
1290.48
1288.939
1287.292
1285.403
1282.856
1303.741
1302.801
1301.805
1300.749
1299.634
1298.46
1297.238
1295.963
1294.636
1293.257
1291.827
1290.346
1288.805
1287.165
1285.299
1304.502
1303.607
1302.656
1301.647
1300.579
1299.452
1298.276
1297.046
1295.764
1294.428
1293.039
1291.601
1290.116
1288.574
1286.941
1305.162
1304.311
1303.404
1302.44
1301.417
1300.336
1299.205
1298.02
1296.781
1295.488
1294.14
1292.741
1291.295
1289.802
1288.256
1305.743
1304.935
1304.071
1303.151
1302.173
1301.137
1300.051
1298.911
1297.716
1296.466
1295.159
1293.8
1292.392
1290.937
1289.435
1306.286
1305.521
1304.702
1303.826
1302.893
1301.903
1300.862
1299.768
1298.619
1297.414
1296.152
1294.837
1293.47
1292.054
1290.591
1306.855
1306.133
1305.358
1304.528
1303.641
1302.698
1301.705
1300.659
1299.558
1298.402
1297.189
1295.921
1294.602
1293.231
1291.81
1307.443
1306.766
1306.035
1305.251
1304.412
1303.517
1302.573
1301.576
1300.526
1299.421
1298.259
1297.043
1295.775
1294.455
1293.083
1308.031
1307.398
1306.713
1305.975
1305.183
1304.337
1303.442
1302.496
1301.497
1300.445
1299.336
1298.174
1296.959
1295.692
1294.373
1308.604
1308.015
1307.375
1306.684
1305.939
1305.141
1304.296
1303.401
1302.453
1301.454
1300.398
1299.291
1298.131
1296.919
1295.654
1290.092
1288.554
1286.952
1285.287
1283.549
1281.705
1279.689
1277.435
1291.645
1290.166
1288.623
1287.017
1285.345
1283.596
1281.745
1279.686
1277.261
1293.182
1291.765
1290.283
1288.739
1287.129
1285.452
1283.703
1281.829
1279.667
1276.846
1294.715
1293.363
1291.947
1290.467
1288.923
1287.314
1285.646
1283.893
1281.971
1279.62
1276.074
1296.264
1294.979
1293.631
1292.219
1290.743
1289.204
1287.613
1285.954
1284.188
1282.184
1279.518
1274.794
1297.82
1296.601
1295.321
1293.978
1292.571
1291.104
1289.586
1288.012
1286.361
1284.57
1282.441
1279.329
1272.953
1299.284
1298.129
1296.914
1295.637
1294.297
1292.898
1291.45
1289.95
1288.39
1286.742
1284.917
1282.647
1279.036
1270.911
1300.615
1299.52
1298.366
1297.15
1295.873
1294.537
1293.154
1291.719
1290.232
1288.682
1287.032
1285.175
1282.773
1278.71
1269.097
1301.808
1300.769
1299.671
1298.514
1297.295
1296.017
1294.692
1293.316
1291.89
1290.41
1288.864
1287.214
1285.335
1282.834
1278.442
1302.87
1301.883
1300.839
1299.735
1298.57
1297.348
1296.077
1294.755
1293.382
1291.959
1290.48
1288.939
1287.292
1285.403
1282.856
1303.81
1302.872
1301.877
1300.824
1299.711
1298.541
1297.321
1296.05
1294.726
1293.352
1291.926
1290.449
1288.911
1287.269
1285.386
1304.634
1303.743
1302.796
1301.791
1300.727
1299.605
1298.435
1297.211
1295.935
1294.607
1293.226
1291.797
1290.319
1288.783
1287.147
1305.35
1304.504
1303.602
1302.644
1301.626
1300.552
1299.428
1298.251
1297.021
1295.737
1294.399
1293.011
1291.577
1290.095
1288.558
1305.969
1305.165
1304.307
1303.393
1302.421
1301.392
1300.314
1299.182
1297.997
1296.757
1295.462
1294.115
1292.719
1291.277
1289.789
1306.508
1305.748
1304.933
1304.062
1303.135
1302.151
1301.117
1300.031
1298.89
1297.694
1296.442
1295.137
1293.782
1292.378
1290.927
1307.011
1306.293
1305.521
1304.695
1303.812
1302.874
1301.886
1300.845
1299.75
1298.6
1297.393
1296.133
1294.822
1293.459
1292.048
1307.537
1306.862
1306.134
1305.352
1304.515
1303.623
1302.682
1301.689
1300.642
1299.541
1298.383
1297.172
1295.908
1294.592
1293.226
1308.082
1307.45
1306.766
1306.03
1305.239
1304.394
1303.501
1302.557
1301.56
1300.509
1299.403
1298.243
1297.031
1295.766
1294.45
1308.626
1308.037
1307.398
1306.708
1305.963
1305.166
1304.322
1303.427
1302.48
1301.481
1300.427
1299.32
1298.161
1296.95
1295.687
1309.155
1308.61
1308.016
1307.37
1306.672
1305.923
1305.127
1304.281
1303.385
1302.438
1301.436
1300.383
1299.278
1298.121
1296.913
1291.604
1290.122
1288.577
1286.968
1285.294
1283.546
1281.707
1279.695
1277.447
1293.094
1291.672
1290.185
1288.634
1287.019
1285.338
1283.593
1281.746
1279.692
1277.273
1294.564
1293.204
1291.78
1290.291
1288.737
1287.119
1285.445
1283.699
1281.829
1279.672
1276.86
1296.03
1294.735
1293.375
1291.951
1290.461
1288.909
1287.303
1285.637
1283.886
1281.968
1279.622
1276.097
1297.509
1296.279
1294.986
1293.629
1292.208
1290.723
1289.188
1287.597
1285.94
1284.176
1282.175
1279.523
1274.832
1298.994
1297.829
1296.603
1295.313
1293.96
1292.545
1291.081
1289.564
1287.99
1286.339
1284.549
1282.428