/*--------------------------------*- C++ -*----------------------------------*\
| =========                 |                                                 |
| \\      /  F ield         | OpenFOAM: The Open Source CFD Toolbox           |
|  \\    /   O peration     | Version:  2306                                  |
|   \\  /    A nd           | Website:  www.openfoam.com                      |
|    \\/     M anipulation  |                                                 |
\*---------------------------------------------------------------------------*/
FoamFile
{
    version     2.0;
    format      ascii;
    arch        "LSB;label=32;scalar=64";
    class       volVectorField;
    location    "0.3/phiEA";
    object      i;
}
// * * * * * * * * * * * * * * * * * * * * * * * * * * * * * * * * * * * * * //

dimensions      [0 -2 0 0 0 1 0];

internalField   nonuniform List<vector> 
20000
(
(-691.1309 2568.025 2232.271)
(-722.2645 8256.63 2270.675)
(-1410.447 2256.69 2020.781)
(-690.285 2566.489 6584.276)
(-790.1354 15620.02 2347.83)
(-1466.174 7266.585 2051.162)
(-721.3864 8252.008 6698.063)
(-1348.017 2010.75 1833.987)
(-1408.854 2255.474 5965.868)
(-688.6573 2563.474 10744.49)
(-905.9799 25452.47 2449.662)
(-1588.11 13782.87 2111.91)
(-789.1918 15612.86 6926.692)
(-1391.299 6479.992 1859.78)
(-1464.531 7262.94 6056.155)
(-719.6968 8242.933 10931.29)
(-1163.921 1823.864 1683.439)
(-1346.667 2009.719 5418.731)
(-1405.785 2253.078 9745.992)
(-686.291 2559.017 14776.27)
(-1082.755 36339.79 2498.995)
(-1797.376 22526.27 2189.819)
(-904.9405 25446.42 7228.014)
(-1486.602 12308 1911.303)
(-1586.364 13777.32 6236.744)
(-787.3756 15598.82 11306.74)
(-1197.39 5880.735 1706.153)
(-1389.919 6476.9 5495.502)
(-1461.364 7255.75 9894.75)
(-717.2402 8229.518 15034.63)
(-993.0965 1676.068 1559.283)
(-1162.822 1822.955 4977.201)
(-1344.062 2007.68 8860.798)
(-1401.319 2249.524 13414.63)
(-683.2107 2553.139 17335.01)
(-1315.372 41294.99 2336.927)
(-2118.647 32245.87 2215.348)
(-1081.621 36344.3 7370.726)
(-1651.651 20147.1 1976.565)
(-1795.484 22522.14 6468.164)
(-902.9405 25434.71 11800.83)
(-1271.305 11179.35 1751.515)
(-1485.16 12303.33 5648.915)
(-1582.999 13766.39 10192.44)
(-784.7346 15578.08 15554.1)
(-1020.038 5406.154 1579.721)
(-1196.269 5878.012 5044.876)
(-1387.254 6470.785 8987.524)
(-1456.756 7245.082 13620.95)
(-714.0421 8211.82 17639.56)
(-854.2628 1554.447 1453.944)
(-992.1786 1675.251 4612.706)
(-1160.697 1821.157 8145.397)
(-1340.265 2004.65 12205.79)
(-1395.503 2244.826 15746.78)
(-932.4864 3492.802 22765.19)
(-1542.437 37165.02 2243.71)
(-2543.631 36698.17 2048.026)
(-1314.216 41305.2 6878.209)
(-1907.531 28877.24 1993.015)
(-2116.624 32251.55 6542.052)
(-1079.441 36353.78 12028.62)
(-1399.857 18316.98 1808.541)
(-1650.125 20143.83 5843.14)
(-1791.836 22514.06 10573.68)
(-900.0319 25417.55 16237.32)
(-1079.646 10283.32 1620.542)
(-1270.142 11175.26 5180.085)
(-1482.375 12294.1 9240.908)
(-1578.101 13750.16 14034.08)
(-781.2955 15550.71 18252.24)
(-876.7257 5015.242 1472.595)
(-1019.104 5403.704 4673.645)
(-1194.102 5872.62 8257.245)
(-1383.369 6461.695 12381.81)
(-1450.753 7230.972 15990.43)
(-974.5971 11235.88 23193.77)
(-744.2074 1451.44 1362.689)
(-853.4764 1553.701 4303.186)
(-990.4005 1673.631 7554.101)
(-1157.596 1818.481 11227.77)
(-1335.315 2000.639 14335.71)
(-1905.355 3071.695 20683.51)
(-928.648 3484.305 21114.09)
(-1726.615 28186.35 2212.592)
(-2959.724 33052.59 1946.806)
(-1541.25 37169.99 6594.23)
(-2248.792 32884.22 1835.063)
(-2541.623 36708.91 6036.847)
(-1312.006 41326.05 11194.8)
(-1600.019 26274.46 1820.193)
(-1905.95 28882.9 5890.749)
(-2112.728 32263.13 10691.74)
(-1076.273 36368.54 16546.13)
(-1183.571 16859.96 1671.592)
(-1398.637 18314.23 5350.004)
(-1647.178 20137.43 9561.606)
(-1786.527 22502.16 14563.15)
(-896.2438 25395.03 19058.22)
(-926.4877 9544.03 1509.857)
(-1078.679 10279.65 4795.407)
(-1267.891 11167.15 8480.837)
(-1478.314 12280.37 12733.99)
(-1571.719 13728.7 16478.65)
(-1066.478 21286.4 24057.21)
(-763.4276 4683.905 1379.884)
(-875.9263 5013.005 4358.828)
(-1017.294 5398.846 7654.904)
(-1190.939 5864.595 11383.27)
(-1378.304 6449.657 14543.79)
(-1980.854 9895.964 21029.8)
(-970.6019 11210.24 21569.06)
(-656.7269 1362.245 1282.303)
(-743.5208 1450.752 4034.848)
(-851.9514 1552.221 7051.466)
(-987.8028 1671.218 10418.66)
(-1153.549 1814.937 13193.35)
(-1824.07 2737.819 18832.71)
(-1898.102 3064.767 19181.65)
(-924.7567 3474.603 21385.03)
(-1853.033 17318.19 2205.427)
(-3298.092 25080.39 1907.447)
(-1725.394 28187.88 6498.353)
(-2584.312 29620.41 1738.272)
(-2957.703 33058.21 5731.319)
(-1538.985 37180.21 10713.08)
(-1867.84 29930.36 1672.319)
(-2247.29 32894.41 5414.74)
(-2537.777 36730.6 9842.748)
(-1308.808 41357.82 15363.41)
(-1345.792 24197.42 1680.282)
(-1598.768 26279.91 5383.712)
(-1902.898 28894.38 9637.723)
(-2107.06 32280.78 14723.51)
(-1072.15 36388.74 19418.63)
(-1013.399 15655.52 1556.278)
(-1182.561 16857.57 4947.65)
(-1396.275 18308.83 8761.812)
(-1642.878 20127.96 13179.87)
(-1779.607 22486.48 17104.32)
(-1223.611 34794.37 25188.03)
(-806.0492 8916.587 1414.249)
(-925.6625 9540.683 4470.037)
(-1076.806 10272.36 7856.438)
(-1264.604 11155.08 11694.34)
(-1473.016 12262.17 14960.41)
(-2146.195 18796.26 21725.12)
(-1062.163 21246.92 22487.78)
(-673.4981 4396.823 1298.276)
(-762.7303 4681.843 4086.169)
(-874.3758 5008.568 7143.571)
(-1014.649 5391.61 10558.91)
(-1186.81 5853.957 13377.3)
(-1882.857 8827.485 19129.85)
(-1973.348 9875.098 19555.36)
(-966.5423 11180.93 21900.25)
(-586.1606 1283.727 1210.625)
(-656.1186 1361.606 3798.302)
(-742.1878 1449.387 6615.299)
(-849.7212 1550.017 9730.322)
(-984.4107 1668.021 12247.74)
(-1576.106 2483.826 17334.16)
(-1817.891 2731.848 17461.65)
(-1890.746 3056.747 19426.18)
(-920.8126 3463.696 21655.18)
(-1916.875 5820.602 2204.515)
(-3530.849 15415.58 1894.563)
(-1851.79 17318.51 6475.537)
(-2858.058 22475.11 1699.215)
(-3296.038 25082.48 5612.321)
(-1723.071 28191.1 10548.47)
(-2131.368 26959.93 1581.168)
(-2582.849 29625.84 5123.281)
(-2953.841 33069.57 9329.824)
(-1535.716 37195.85 14680.07)
(-1563.244 27570.73 1541.571)
(-1866.666 29939.92 4938.485)
(-2244.399 32914.92 8839.556)
(-2532.202 36763.39 13525.83)
(-1304.656 41400.69 17998.15)
(-1149.305 22477.72 1562.976)
(-1344.763 24202.62 4972.771)
(-1596.347 26290.92 8815.718)
(-1898.446 28911.79 13283.43)
(-2099.677 32304.62 17291.99)
(-1464.366 49935.01 25646.3)
(-880.5923 14631.79 1456.938)
(-1012.541 15653.39 4608.566)
(-1180.605 16852.87 8108.447)
(-1392.825 18300.84 12085.46)
(-1637.267 20115.45 15488.37)
(-2430.511 30815.49 22614.09)
(-1218.839 34763.9 23681.07)
(-710.7189 8372.383 1330.212)
(-805.3307 8913.504 4188.776)
(-924.0612 9534.041 7327.763)
(-1074.067 10261.51 10839.49)
(-1260.313 11139.06 13745.54)
(-2012.409 16789.83 19726.16)
(-2138.176 18764.56 20308.24)
(-1057.76 21201.92 22942.68)
(-601.0152 4143.985 1225.551)
(-672.8808 4394.907 3845.994)
(-761.3763 4677.748 6700.298)
(-872.1079 5001.953 9858.538)
(-1011.195 5382.013 12413.73)
(-1621.603 8012.581 17597.63)
(-1876.516 8809.507 17784.81)
(-1965.717 9850.9 19854.42)
(-962.4186 11147.94 22230.62)
(-528.3263 1213.699 1146.076)
(-585.6157 1283.13 3587.247)
(-654.9365 1360.337 6230.482)
(-740.2369 1447.352 9132.561)
(-846.807 1547.093 11442.83)
(-1345.098 2282.851 16093.7)
(-1571.054 2478.517 16069.31)
(-1811.621 2724.893 17680.88)
(-1883.286 3047.637 19670.03)
(-916.8161 3451.585 31951.18)
(-1916.875 -5820.602 2204.515)
(-3648.563 5182.185 1890.894)
(-1915.621 5820.639 6472.247)
(-3046.877 13813.48 1685.567)
(-3528.769 15416.24 5573.254)
(-1849.424 17319.23 10507.93)
(-2346.42 20454.74 1543.755)
(-2856.604 22477.22 5005.663)
(-3292.121 25086.71 9129.74)
(-1719.719 28196.09 14444.75)
(-1777.247 24834.6 1455.778)
(-2130.238 26965.07 4664.315)
(-2580.044 29636.77 8351.616)
(-2948.257 33086.73 12803.65)
(-1531.48 37216.96 17178.88)
(-1331.713 25615.81 1432.45)
(-1562.284 27579.71 4555.367)
(-1864.402 29959.14 8069.982)
(-2240.198 32945.85 12159.35)
(-2524.961 36807.39 15858.47)
(-1783.199 56842.17 23453.07)
(-997.3163 21014.29 1462.236)
(-1148.433 22482.68 4627.916)
(-1342.769 24213.11 8148.622)
(-1592.811 26307.58 12158.92)
(-1892.639 28935.2 15609.92)
(-2868.789 44339.13 22850.74)
(-1459.195 49973.96 24077.12)
(-775.8865 13742.85 1369.794)
(-879.8464 14629.87 4316.23)
(-1010.874 15649.2 7557.254)
(-1177.743 16845.89 11190.59)
(-1388.318 18290.25 14209.05)
(-2237.207 27568.43 20480.8)
(-2421.774 30793.58 21266.38)
(-1213.952 34730.79 24289.8)
(-634.0036 7892.703 1255.405)
(-710.0835 8369.523 3941.385)
(-803.9346 8907.384 6870.337)
(-921.7181 9524.135 10115.12)
(-1070.489 10247.1 12746.05)
(-1722.167 15252.76 18126.34)
(-2005.741 16762.66 18435.68)
(-2129.986 18727.82 20719.46)
(-1053.27 21151.34 23397.12)
(-541.6369 3918.393 1160.087)
(-600.4624 4142.194 3631.826)
(-671.6807 4391.1 6309.506)
(-759.3941 4671.641 9250.937)
(-869.1439 4993.176 11594.64)
(-1381.74 7366.873 16331.97)
(-1616.434 7996.596 16357.23)
(-1870.065 8788.524 18053.22)
(-1957.96 9823.366 20152.78)
(-958.2309 11111.25 32889.44)
(-480.144 1150.622 1087.469)
(-527.8337 1213.138 3397.071)
(-584.5556 1281.944 5886.865)
(-653.2049 1358.445 8604.81)
(-737.6858 1444.652 10743.48)
(-1157.08 2117.409 15037.8)
(-1340.863 2278.041 14917.33)
(-1565.929 2472.309 16268.35)
(-1805.26 2716.954 17899.52)
(-1875.723 3037.437 29019.65)
(-437.1517 1655.89 22202.37)
(-1853.033 -17318.19 2205.427)
(-3648.563 -5182.185 1890.894)
(-1915.621 -5820.638 6472.247)
(-3142.544 4643.463 1681.354)
(-3646.47 5182.332 5562.098)
(-1913.235 5820.734 10501.4)
(-2494.766 12570.72 1530.31)
(-3045.42 13814.19 4964.566)
(-3524.805 15417.59 9063.853)
(-1846.014 17320.39 14385.5)
(-1951.844 18841.12 1420.21)
(-2345.304 20456.77 4551.835)
(-2853.816 22481.46 8154.755)
(-3286.464 25093.12 12521.78)
(-1715.379 28202.88 16895.76)
(-1511.242 23073.93 1351.542)
(-1776.329 24839.46 4297.476)
(-2128.064 26975.4 7611.582)
(-2575.977 29653.23 11473.78)
(-2941.015 33109.73 14996.46)
(-2094.153 51071.92 22183.88)
(-1154.132 23951.36 1339.047)
(-1330.903 25624.27 4235.286)
(-1560.431 27597.74 7449.955)
(-1861.107 29988.09 11109.58)
(-2234.734 32987.31 14265.98)
(-3452.261 50544.29 20678.65)
(-1778.145 56916.59 21400.84)
(-878.0402 19742.32 1374.071)
(-996.5607 21019 4331.522)
(-1146.74 22492.65 7588.198)
(-1339.853 24228.96 11245.43)
(-1588.195 26329.95 14295.53)
(-2587.146 39717.51 20632.61)
(-2859.502 44380.9 21466.45)
(-1453.923 50026.22 24667.22)
(-691.8109 12958.58 1292.343)
(-775.2281 13741.09 4059.614)
(-878.3965 14626.08 7081.615)
(-1008.434 15642.98 10435.05)
(-1174.003 16836.63 13162.38)
(-1897.4 25068.12 18791.34)
(-2230.104 27550.64 19256.98)
(-2412.814 30769.16 21817.99)
(-1208.951 34694.92 24900.12)
(-571.2128 7464.426 1188.125)
(-633.4353 7890.031 3721.025)
(-708.8478 8363.839 6467.655)
(-801.8902 8898.252 9487.909)
(-918.6548 9510.98 11898.65)
(-1462.875 14031.86 16810.16)
(-1716.765 15228.68 16937.16)
(-1998.924 16730.94 18805.29)
(-2121.626 18686.01 21130.31)
(-1048.693 21095.14 34795.55)
(-492.1819 3715.121 1100.673)
(-541.1374 3916.711 3438.93)
(-599.3869 4138.634 5960.757)
(-669.9226 4385.42 8714.907)
(-756.8017 4663.534 10883.68)
(-1187.64 6834.817 15256.08)
(-1377.416 7352.388 15178.6)
(-1611.178 7977.867 16601.19)
(-1863.503 8764.53 18321.02)
(-1950.078 9792.489 29813.48)
(-456.796 5343.626 23002.58)
(-439.3655 1093.32 1033.897)
(-479.6953 1150.093 3224.308)
(-526.8746 1212.024 5577.012)
(-583.0018 1280.175 8133.257)
(-650.9392 1355.933 10125.73)
(-1007.957 1977.249 14120.32)
(-1153.442 2112.996 13937.18)
(-1336.57 2272.4 15100.18)
(-1560.731 2465.203 16466.85)
(-1798.808 2708.032 26402.14)
(-897.6195 1459.447 20161.94)
(-394.1825 1462.902 23917.97)
(-1726.615 -28186.35 2212.592)
(-3530.849 -15415.58 1894.563)
(-1851.79 -17318.51 6475.537)
(-3142.544 -4643.463 1681.354)
(-3646.47 -5182.332 5562.098)
(-1913.235 -5820.734 10501.4)
(-2569.931 4225.512 1526.027)
(-3141.085 4643.632 4951.889)
(-3642.481 5182.632 9044.978)
(-1909.795 5820.9 14375.32)
(-2072.249 11578.38 1407.222)
(-2493.653 12571.43 4511.451)
(-3042.63 13815.63 8085.988)
(-3519.081 15419.63 12428.79)
(-1841.598 17322.01 16823.65)
(-1657.679 17504.72 1317.779)
(-1950.94 18843.07 4190.639)
(-2343.16 20460.85 7423.688)
(-2849.779 22487.84 11197.4)
(-3279.132 25101.7 14660.17)
(-2346.208 38688.41 21733.81)
(-1308.485 21574.94 1262.577)
(-1510.469 23078.52 3992.18)
(-1774.559 24849.19 7019.098)
(-2124.908 26990.92 10466.16)
(-2570.694 29675.25 13448.78)
(-4022.861 45441.83 19376.84)
(-2089.087 51109.17 19843.45)
(-1015.388 22504.13 1257.509)
(-1153.432 23959.35 3961.065)
(-1329.335 25641.24 6931.293)
(-1557.73 27624.89 10262.84)
(-1856.816 30026.85 13041.7)
(-3056.82 45301.44 18608.2)
(-3443.424 50617.67 18884.57)
(-1773.134 57011.51 21342)
(-782.5046 18619.28 1295.856)
(-877.3747 19746.82 4071.946)
(-995.0924 21028.5 7106.065)
(-1144.263 22507.72 10477.37)
(-1336.043 24250.22 13227.15)
(-2171.356 36143 18898.28)
(-2579.81 39757.47 19381.97)
(-2850.008 44434.4 22005.54)
(-1448.548 50091.87 25263.29)
(-623.078 12257.84 1222.767)
(-691.2228 12956.96 3831.394)
(-773.9471 13737.62 6663.742)
(-876.2723 14620.44 9782.603)
(-1005.242 15634.71 12278.22)
(-1604.599 23076.54 17409.1)
(-1891.692 25052.9 17665.22)
(-2222.803 27530.58 19753.45)
(-2403.629 30742.14 22371.04)
(-1203.836 34656.15 37248.17)
(-518.9427 7078.292 1127.108)
(-570.6996 7461.919 3522.723)
(-632.329 7884.72 6108.696)
(-707.0369 8355.353 8935.388)
(-799.2157 8886.117 11164.55)
(-1255.395 13024.17 15694.3)
(-1458.371 14010.08 15704.96)
(-1711.244 15200.44 17273.57)
(-1991.958 16694.65 19174.58)
(-2113.096 18639.09 31425.19)
(-499.8596 10222.67 24649.55)
(-450.3398 3530.406 1046.38)
(-491.7271 3713.535 3263.764)
(-540.1647 3913.367 5646.419)
(-597.8101 4133.321 8236.236)
(-667.6219 4377.877 10256.16)
(-1034.112 6383.723 14322.19)
(-1183.93 6821.524 14177.18)
(-1373.02 7335.368 15402.94)
(-1605.833 7956.387 16844.6)
(-1856.832 8737.521 27097.89)
(-933.0067 4716.547 20849.04)
(-411.2354 4750.21 25026.82)
(-404.3037 1040.878 984.6612)
(-438.9542 1092.82 3066.303)
(-478.8209 1149.043 5295.338)
(-525.4676 1210.362 7707.785)
(-580.9675 1277.825 9573.507)
(-889.4057 1855.855 13309.83)
(-1004.772 1973.162 13085.84)
(-1149.754 2107.809 14106.68)
(-1332.217 2265.93 15282.54)
(-1555.461 2457.199 24284.52)
(-865.0597 1302.018 18335.08)
(-816.0951 1292.374 21715.96)
(-349.0712 1212.348 24958.34)
(-1542.437 -37165.02 2243.71)
(-3298.092 -25080.39 1907.448)
(-1725.394 -28187.88 6498.353)
(-3046.877 -13813.48 1685.567)
(-3528.769 -15416.24 5573.254)
(-1849.424 -17319.23 10507.93)
(-2569.931 -4225.512 1526.027)
(-3141.085 -4643.632 4951.889)
(-3642.481 -5182.632 9044.978)
(-1909.795 -5820.9 14375.32)
(-2133.246 3891.817 1403.013)
(-2568.817 4225.683 4498.607)
(-3138.29 4643.97 8064.796)
(-3636.723 5183.087 12402.1)
(-1905.342 5821.141 16810.87)
(-1758.64 10756.7 1305.323)
(-2071.349 11579.06 4151.676)
(-2491.514 12572.85 7356.312)
(-3038.59 13817.79 11100.9)
(-3511.666 15422.38 14549.14)
(-2519.199 23758.34 21611.63)
(-1434.364 16367.15 1230.522)
(-1656.92 17506.57 3890.819)
(-1949.2 18846.96 6840.818)
(-2340.049 20466.98 10202.76)
(-2844.54 22496.37 13119.74)
(-4486.436 34437.95 18867.21)
(-2341.053 38701.13 19271.93)
(-1150.586 20271.61 1185.079)
(-1307.819 21579.28 3731.355)
(-1508.977 23087.71 6525.335)
(-1771.984 24863.82 9658.44)
(-2120.803 27011.67 12275.26)
(-3517.84 40730.17 17383.16)
(-4014.19 45480.09 17342.89)
(-2084.151 51157.08 19404.93)
(-904.5184 21225.91 1185.313)
(-1014.773 22511.69 3721.483)
(-1152.077 23975.37 6486.456)
(-1327.049 25666.78 9553.844)
(-1554.208 27661.22 12053.52)
(-2540.239 41237.34 17015.34)
(-3050.125 45369.71 16995.67)
(-3434.64 50709.23 18847.31)
(-1768.166 57127.08 21280.97)
(-704.5072 17615.25 1225.692)
(-781.911 18623.56 3841.513)
(-876.0802 19755.85 6683.459)
(-992.9417 21042.81 9816.102)
(-1141.023 22527.9 12328.38)
(-1826.722 33289.12 17488.35)
(-2165.519 36180.69 17750.73)
(-2572.283 39807.96 19868.04)
(-2840.305 44499.72 22549.98)
(-1443.07 50170.99 37761.71)
(-565.9003 11625.63 1159.731)
(-622.5475 12256.33 3626.262)
(-690.0775 12953.76 6291.823)
(-772.0689 13732.46 9209.01)
(-873.4923 14612.95 11514.31)
(-1373.954 21429.65 16241.48)
(-1599.862 23063.11 16363.49)
(-1885.826 25035.58 18117.62)
(-2215.303 27508.13 20251.24)
(-2394.219 30712.38 33472.88)
(-574.4573 17108.43 26824.56)
(-474.7453 6727.243 1071.381)
(-518.4757 7075.93 3342.782)
(-569.6998 7456.933 5785.437)
(-630.7064 7876.788 8442.547)
(-704.6664 8344.074 10517.56)
(-1092.159 12168.72 14727.59)
(-1251.539 13004.21 14660.82)
(-1453.769 13984.46 16014.68)
(-1705.603 15168.02 17609.7)
(-1984.842 16653.74 28510.72)
(-1010.873 9046.052 22263.89)
(-448.9547 9284.607 27381.7)
(-414.3716 3361.322 996.4921)
(-449.9231 3528.907 3103.611)
(-490.8406 3710.382 5360.779)
(-538.7375 3908.374 7804.538)
(-595.7454 4126.263 9695.533)
(-912.2331 5992.796 13497.85)
(-1030.867 6371.413 13308.26)
(-1180.159 6805.871 14385.3)
(-1368.552 7315.808 15626.78)
(-1600.401 7932.153 24909.49)
(-892.8179 4211.092 18941.21)
(-846.9745 4202.488 22681.6)
(-362.987 3958.136 26338.99)
(-373.813 992.6408 939.2162)
(-403.925 1040.405 2921.017)
(-438.1523 1091.827 5037.559)
(-477.5375 1147.476 7320.784)
(-523.6247 1208.154 9075.026)
(-793.7814 1748.974 12585.25)
(-886.5764 1852.045 12334)
(-1001.544 1968.351 13244.02)
(-1146.017 2101.851 14275.72)
(-1327.805 2258.631 22534.86)
(-749.6832 1181.865 16857.66)
(-795.3329 1154.109 19735.94)
(-730.3383 1073.19 22659.78)
(-302.2404 910.6404 25781.48)
(-1315.372 -41294.99 2336.927)
(-2959.724 -33052.59 1946.806)
(-1541.25 -37169.99 6594.23)
(-2858.058 -22475.11 1699.215)
(-3296.038 -25082.48 5612.321)
(-1723.071 -28191.1 10548.47)
(-2494.766 -12570.72 1530.31)
(-3045.42 -13814.19 4964.566)
(-3524.805 -15417.59 9063.853)
(-1846.014 -17320.39 14385.5)
(-2133.246 -3891.817 1403.013)
(-2568.817 -4225.683 4498.607)
(-3138.29 -4643.97 8064.796)
(-3636.723 -5183.087 12402.1)
(-1905.342 -5821.141 16810.87)
(-1809.777 3615.548 1301.243)
(-2132.347 3891.985 4139.073)
(-2566.679 4226.026 7334.924)
(-3134.245 4644.479 11071.19)
(-3629.265 5183.699 14517.25)
(-2606.565 7983.649 21586.49)
(-1521.135 10057.4 1218.614)
(-1757.885 10757.36 3853.477)
(-2069.617 11580.44 6775.907)
(-2488.412 12574.98 10108.42)
(-3033.348 13820.68 13004.93)
(-4805.22 21154.77 18697.89)
(-2513.965 23761.79 19104.51)
(-1260.831 15378.21 1154.623)
(-1433.712 16368.91 3635.155)
(-1655.457 17510.27 6356.302)
(-1946.67 18852.79 9408.722)
(-2336.006 20475.16 11961.97)
(-3893.467 30864.82 16890.47)
(-4477.722 34452.35 16736.09)
(-2336.065 38717.97 18681.17)
(-1024.63 19120.5 1116.579)
(-1150.002 20275.73 3503.956)
(-1306.532 21587.98 6102.997)
(-1506.805 23101.52 8984.598)
(-1768.632 24883.36 11333.86)
(-2902.557 37075.35 15870.67)
(-3511.499 40766.19 15560.25)
(-4005.728 45527.77 16969.6)
(-2079.346 51215.61 18964.5)
(-814.1128 20082.87 1120.651)
(-903.971 21233.08 3509.203)
(-1013.58 22526.85 6097.432)
(-1150.097 23999.47 8945.24)
(-1324.065 25700.95 11225.59)
(-2126.352 37989.43 15729.26)
(-2534.975 41300.78 15540.87)
(-3043.445 45454.31 16963.95)
(-3425.911 50819.11 18807.99)
(-1763.242 57263.46 30846.76)
(-639.6694 16708.93 1162.2)
(-703.9726 17619.33 3634.68)
(-780.7555 18632.17 6308.003)
(-874.1825 19769.47 9236.08)
(-990.1273 21061.99 11554.17)
(-1560.097 30925.47 16302.15)
(-1821.903 33324.64 16424.83)
(-2159.527 36227.98 18193.98)
(-2564.563 39869.05 20358.93)
(-2830.391 44576.93 33726.91)
(-692.2182 25572.08 27317.35)
(-517.5908 11050.57 1102.208)
(-565.418 11624.23 3440.314)
(-621.5136 12253.36 5957.293)
(-688.397 12948.99 8698.176)
(-769.6094 13725.6 10842.41)
(-1193.868 20029.52 15232.63)
(-1369.912 21417.58 15264.39)
(-1594.995 23047.74 16780.38)
(-1879.8 25016.08 18571.24)
(-2207.603 27483.2 30296.33)
(-1146.518 15184.84 24119.13)
(-516.1683 16440.66 30761.58)
(-436.7682 6405.782 1020.198)
(-474.3177 6725.01 3178.359)
(-517.5652 7071.23 5491.909)
(-568.2325 7449.484 7998.457)
(-628.5812 7866.242 9940.182)
(-962.9341 11426.61 13875.55)
(-1088.792 12150.26 13756.61)
(-1247.602 12980.68 14948.41)
(-1449.07 13954.98 16324.15)
(-1699.842 15131.38 26178.86)
(-954.2799 8087.554 20189.98)
(-915.5361 8235.278 24735.73)
(-394.0208 7928.763 29406.85)
(-383.0947 3205.761 950.4549)
(-413.9879 3359.901 2956.383)
(-449.1103 3525.924 5099.453)
(-489.5392 3705.672 7412.031)
(-536.8678 3901.74 9189.698)
(-814.0035 5648.439 12761.3)
(-909.3522 5981.317 12541.51)
(-1027.57 6356.892 13502.61)
(-1176.328 6787.854 14592.96)
(-1364.013 7293.703 23105.29)
(-771.2209 3824.346 17404.24)
(-819.7497 3755.8 20593)
(-755.6538 3508.639 23871.43)
(-312.5329 2970.806 27385.16)
(-347.1208 948.0605 897.0892)
(-373.4627 992.1913 2786.856)
(-403.1859 1039.463 4800.387)
(-436.9744 1090.345 6966.423)
(-475.8555 1145.393 8621.427)
(-715.4185 1653.635 11931.1)
(-791.2406 1745.403 11661.99)
(-883.7103 1847.555 12482.4)
(-998.2744 1962.818 13401.79)
(-1142.231 2095.12 21048.08)
(-640.4337 1086.641 15638.23)
(-692.8042 1048.206 18135.22)
(-721.8303 959.1918 20584.82)
(-641.1545 807.7147 23409.39)
(-254.1876 570.8764 18001.25)
(-1082.755 -36339.79 2498.995)
(-2543.631 -36698.17 2048.026)
(-1314.216 -41305.2 6878.209)
(-2584.312 -29620.41 1738.272)
(-2957.703 -33058.21 5731.319)
(-1538.986 -37180.21 10713.08)
(-2346.42 -20454.74 1543.755)
(-2856.604 -22477.22 5005.663)
(-3292.121 -25086.71 9129.74)
(-1719.719 -28196.09 14444.75)
(-2072.249 -11578.38 1407.222)
(-2493.653 -12571.43 4511.451)
(-3042.63 -13815.63 8085.988)
(-3519.081 -15419.63 12428.79)
(-1841.598 -17322.01 16823.65)
(-1809.777 -3615.548 1301.243)
(-2132.347 -3891.985 4139.073)
(-2566.679 -4226.026 7334.924)
(-3134.245 -4644.479 11071.19)
(-3629.265 -5183.699 14517.25)
(-2606.565 -7983.649 21586.49)
(-1565.08 3380.446 1214.685)
(-1809.023 3615.711 3841.269)
(-2130.616 3892.321 6754.957)
(-2563.578 4226.539 10078.53)
(-3128.996 4645.159 12969.61)
(-4966.434 7109.983 18649)
(-2601.29 7984.284 19064.78)
(-1336.814 9449.547 1143.255)
(-1520.487 10058.03 3599.47)
(-1756.431 10758.68 6294.143)
(-2067.101 11582.5 9317.941)
(-2484.383 12577.82 11849.9)
(-4152.402 18958.35 16718.89)
(-4796.429 21159.42 16532.67)
(-2508.911 23766.62 18460.84)
(-1122.565 14504.86 1087.611)
(-1260.259 15379.88 3412.576)
(-1432.451 16372.42 5942.638)
(-1653.327 17515.81 8747.953)
(-1943.38 18860.58 11037.02)
(-3197.784 28092.34 15404.27)
(-3887.232 30878.74 14983.65)
(-4469.283 34470.36 16228.91)
(-2331.244 38738.89 18089.65)
(-922.0157 18091.15 1055.308)
(-1024.111 19124.41 3302.802)
(-1148.872 20283.97 5734.398)
(-1304.655 21601.03 8407.69)
(-1503.974 23119.95 10547.97)
(-2420.674 34154.72 14656.94)
(-2897.625 37109.02 14206.87)
(-3505.296 40810.65 15227.03)
(-3997.478 45584.83 16594.47)
(-2074.671 51284.73 26839.91)
(-739.0073 19050.82 1062.217)
(-813.6204 20089.68 3318.947)
(-902.9083 21247.46 5752.432)
(-1011.836 22549.65 8412.579)
(-1147.512 24031.71 10514.46)
(-1811.509 35297.82 14651.47)
(-2122.03 38048.65 14366.06)
(-2529.72 41379.1 15511.88)
(-3036.783 45555.35 16930.35)
(-3417.238 50947.45 27286.51)
(-855.9996 29458.08 20453.43)
(-584.9319 15884.18 1104.319)
(-639.1839 16712.83 3447.414)
(-702.9308 17627.54 5970.754)
(-779.0602 18645.13 8720.439)
(-871.6975 19787.71 10874.76)
(-1353.774 28913.56 15280.27)
(-1555.999 30959.01 15309.67)
(-1816.957 33369.01 16833.49)
(-2153.381 36284.92 18641.65)
(-2556.65 39940.79 30448.77)
(-1362.018 22756.65 24433.25)
(-630.157 27235.83 32168.9)
(-476.1031 10523.77 1049.407)
(-517.1495 11049.25 3270.541)
(-564.4774 11621.45 5653.845)
(-619.9956 12248.92 8238.425)
(-686.1951 12942.64 10243.76)
(-1051.867 18813.49 14345.24)
(-1190.347 20018.51 14315.11)
(-1365.76 21403.7 15651.78)
(-1589.999 23030.36 17198.4)
(-1873.615 24994.3 27778.19)
(-1062.333 13596.98 21822.65)
(-1038.426 14628.64 27680.43)
(-451.2114 15193.55 34432.35)
(-403.7489 6109.928 972.9836)
(-436.3746 6403.666 3027.271)
(-473.4832 6720.566 5223.526)
(-516.2281 7064.207 7594.988)
(-566.3096 7439.577 9419.696)
(-858.9462 10772.38 13115.13)
(-959.9498 11409.41 12959.92)
(-1085.355 12128.45 14025.39)
(-1243.582 12953.55 15235.78)
(-1444.274 13921.6 24264.17)
(-819.051 7350.903 18530.75)
(-874.3016 7370.091 22417.85)
(-812.3193 7046.518 26570.32)
(-335.4935 6047.264 31123.32)
(-355.716 3061.963 907.7869)
(-382.7399 3204.41 2820.458)
(-413.239 3357.072 4859.072)
(-447.9162 3521.468 7052.74)
(-487.8335 3699.413 8729.59)
(-733.5411 5341.148 12096.68)
(-811.4176 5637.679 11856.58)
(-906.4264 5967.759 12723.93)
(-1024.221 6340.158 13696.54)
(-1172.438 6767.469 21574.42)
(-657.803 3517.414 16138.48)
(-711.802 3412.802 18910.88)
(-741.989 3138.325 21663.81)
(-659.9673 2638.275 24822.89)
(-260.4962 1821.402 19182.23)
(-323.5674 906.6884 857.8801)
(-346.7954 947.6326 2662.437)
(-372.7787 991.2968 4581.251)
(-402.0997 1038.057 6640.222)
(-435.43 1088.375 8205.918)
(-650.1409 1567.747 11335.79)
(-713.116 1650.274 11055.42)
(-788.6671 1741.19 11801.79)
(-880.8075 1842.384 12630.42)
(-994.9628 1956.561 19758)
(-550.9817 1008.172 14603.06)
(-592.9204 964.1313 16815.89)
(-632.8814 871.6027 18907.24)
(-645.231 722.5126 21260.44)
(-549.4965 507.7902 16347.52)
(-1854.324 2823.192 57043.03)
(-905.9799 -25452.47 2449.662)
(-2118.647 -32245.87 2215.348)
(-1081.621 -36344.3 7370.726)
(-2248.792 -32884.22 1835.063)
(-2541.623 -36708.91 6036.847)
(-1312.006 -41326.05 11194.8)
(-2131.368 -26959.93 1581.168)
(-2582.849 -29625.84 5123.281)
(-2953.841 -33069.57 9329.824)
(-1535.717 -37195.85 14680.07)
(-1951.844 -18841.12 1420.21)
(-2345.304 -20456.77 4551.835)
(-2853.816 -22481.46 8154.755)
(-3286.464 -25093.12 12521.78)
(-1715.379 -28202.88 16895.76)
(-1758.64 -10756.7 1305.323)
(-2071.349 -11579.06 4151.676)
(-2491.514 -12572.85 7356.312)
(-3038.59 -13817.79 11100.9)
(-3511.666 -15422.38 14549.14)
(-2519.199 -23758.34 21611.63)
(-1565.08 -3380.446 1214.685)
(-1809.023 -3615.711 3841.269)
(-2130.616 -3892.321 6754.957)
(-2563.578 -4226.539 10078.53)
(-3128.996 -4645.159 12969.61)
(-4966.434 -7109.983 18649)
(-2601.29 -7984.284 19064.78)
(-1375.291 3176.105 1139.487)
(-1564.433 3380.603 3587.721)
(-1807.571 3616.037 6273.869)
(-2128.102 3892.823 9288.696)
(-2559.549 4227.222 11814.43)
(-4283.566 6371.509 16666.36)
(-4957.597 7111.029 16473.49)
(-2596.2 7985.239 18405.21)
(-1190.056 8912.797 1076.763)
(-1336.247 9450.152 3378.517)
(-1519.236 10059.3 5883.266)
(-1754.315 10760.66 8661.076)
(-2063.828 11585.24 10929.25)
(-3401.293 17253.78 15238.26)
(-4146.182 18963.04 14783.38)
(-4787.936 21165.27 15979.39)
(-2504.039 23772.83 17816.95)
(-1009.989 13723.95 1027.726)
(-1122.057 14506.45 3215.903)
(-1259.154 15383.23 5582.114)
(-1430.615 16377.69 8183.263)
(-1650.555 17523.21 10266.76)
(-2660.42 25877.46 14216.54)
(-3192.969 28105.52 13665.6)
(-3881.185 30895.89 14530.58)
(-4461.119 34491.96 15720.94)
(-2326.59 38763.87 25315.7)
(-836.8068 17161.74 1000.002)
(-921.5494 18094.86 3122.752)
(-1023.106 19132.24 5408.029)
(-1147.222 20296.34 7903.762)
(-1302.208 21618.46 9874.698)
(-2058.47 31734.68 13643.4)
(-2416.644 34186.25 13120.59)
(-2892.798 37150.37 13903.1)
(-3499.233 40863.53 14892.14)
(-3989.439 45651.25 23502.63)
(-1013.481 26060.69 16700.07)
(-675.6442 18111.49 1009.007)
(-738.5607 19057.31 3146.911)
(-812.6636 20103.35 5442.975)
(-901.3531 21269.08 7939.856)
(-1009.559 22580.14 9891.734)
(-1569.959 33005.69 13725.54)
(-1807.846 35353.37 13381.54)
(-2117.715 38121.6 14339.09)
(-2524.476 41472.41 15481.18)
(-3030.138 45672.98 24565.44)
(-1663.377 26245.45 18130.16)
(-809.6527 32202.54 20099.69)
(-537.9509 15128.4 1051.227)
(-584.488 15887.91 3276.605)
(-638.2371 16720.67 5665.2)
(-701.4014 17639.91 8256.993)
(-776.8391 18662.5 10270.48)
(-1191.837 27164.56 14383.41)
(-1350.214 28945.3 14349.23)
(-1551.795 31000.78 15689.55)
(-1811.885 33422.29 17246.22)
(-2147.077 36351.58 27877.32)
(-1235.743 20403.49 22056.34)
(-1248.264 24300.99 28829.5)
(-558.6423 29836.83 38587.26)
(-440.0372 10038.74 1000.726)
(-475.6971 10522.53 3114.632)
(-516.288 11046.64 5376.621)
(-563.0953 11617.3 7821.162)
(-618.0056 12243.02 9704.737)
(-937.8463 17740.49 13554.52)
(-1048.752 18803.36 13480.37)
(-1186.732 20005.81 14677.36)
(-1361.499 21387.93 16040.24)
(-1584.871 23010.86 25721.28)
(-903.492 12370.21 20001.02)
(-973.0067 13113.39 25032.71)
(-917.363 13547.33 31001)
(-378.9141 12768.5 38247.91)
(-374.8478 5836.357 929.2399)
(-403.385 6107.917 2887.836)
(-435.6061 6399.453 4976.763)
(-472.2571 6713.923 7225.885)
(-514.475 7054.865 8946.624)
(-773.8399 10188.18 12429.56)
(-856.2703 10756.26 12249.07)
(-956.9039 11389.06 13212.35)
(-1081.848 12103.27 14293.96)
(-1239.481 12922.79 22643.97)
(-696.4436 6764.844 17169.83)
(-754.3726 6702.708 20563.34)
(-787.3846 6311.671 24070.22)
(-702.0711 5383.453 28127.28)
(-274.1796 3583.664 22017.8)
(-331.5624 2928.49 868.0811)
(-355.3865 3060.677 2694.425)
(-382.0469 3201.721 4637.019)
(-412.1381 3352.846 6722.08)
(-446.3505 3515.545 8308.253)
(-666.5327 5064.225 11492.07)
(-731.199 5331.019 11238.65)
(-808.792 5624.956 12028.51)
(-903.4558 5952.119 12905.96)
(-1020.822 6321.206 20247.51)
(-565.4819 3264.246 15065.6)
(-608.2638 3140.116 17527.59)
(-648.6044 2853.096 19885.64)
(-660.318 2361.641 22521.55)
(-561.1096 1621.482 17390.43)
(-1884.455 8510.638 60736.76)
(-302.5302 868.1103 821.2685)
(-323.2641 906.2803 2546.587)
(-346.1597 946.7809 4377.916)
(-371.7728 989.9606 6338.684)
(-400.675 1036.189 7823.283)
(-594.9008 1489.716 10790.4)
(-648.039 1564.574 10503.49)
(-710.7844 1646.306 11187.57)
(-786.0612 1736.335 11941.23)
(-877.8681 1836.533 18619.65)
(-479.8757 941.6398 13705.58)
(-510.2823 894.7715 15697.49)
(-542.9245 801.9623 17525.83)
(-570.4446 656.8446 19522.23)
(-566.344 454.7458 14845.58)
(-4075.006 2521.878 51902.38)
(-1717.269 1892.478 33566.28)
(-790.1354 -15620.02 2347.83)
(-1797.376 -22526.27 2189.819)
(-904.9405 -25446.42 7228.014)
(-1907.531 -28877.24 1993.015)
(-2116.624 -32251.55 6542.052)
(-1079.441 -36353.78 12028.62)
(-1867.84 -29930.36 1672.319)
(-2247.29 -32894.41 5414.74)