/*--------------------------------*- C++ -*----------------------------------*\
| =========                 |                                                 |
| \\      /  F ield         | OpenFOAM: The Open Source CFD Toolbox           |
|  \\    /   O peration     | Version:  2306                                  |
|   \\  /    A nd           | Website:  www.openfoam.com                      |
|    \\/     M anipulation  |                                                 |
\*---------------------------------------------------------------------------*/
FoamFile
{
    version     2.0;
    format      ascii;
    arch        "LSB;label=32;scalar=64";
    class       volScalarField;
    location    "0.3/phiEA";
    object      T;
}
// * * * * * * * * * * * * * * * * * * * * * * * * * * * * * * * * * * * * * //

dimensions      [0 0 0 1 0 0 0];

internalField   nonuniform List<scalar> 
20000
(
1010.269
1010.191
1011.208
1010.268
1010.01
1011.202
1010.19
1012.098
1011.205
1010.272
1009.674
1011.185
1010.01
1012.113
1011.199
1010.195
1012.955
1012.094
1011.207
1010.281
1009.108
1011.15
1009.675
1012.144
1011.182
1010.015
1012.977
1012.108
1011.2
1010.203
1013.794
1012.949
1012.093
1011.213
1010.294
1008.28
1011.081
1009.112
1012.194
1011.146
1009.681
1013.024
1012.138
1011.183
1010.024
1013.818
1012.97
1012.107
1011.206
1010.217
1014.618
1013.786
1012.946
1012.097
1011.223
1010.312
1007.343
1010.958
1008.289
1012.267
1011.075
1009.121
1013.105
1012.187
1011.146
1009.692
1013.871
1013.016
1012.136
1011.188
1010.039
1014.643
1013.81
1012.967
1012.11
1011.216
1010.235
1015.425
1014.609
1013.782
1012.947
1012.104
1011.238
1010.331
1006.488
1010.777
1007.36
1012.348
1010.949
1008.303
1013.228
1012.257
1011.073
1009.135
1013.963
1013.096
1012.185
1011.15
1009.708
1014.697
1013.862
1013.013
1012.139
1011.198
1010.058
1015.45
1014.633
1013.806
1012.968
1012.117
1011.231
1010.255
1016.213
1015.415
1014.603
1013.782
1012.952
1012.116
1011.253
1010.35
1005.852
1010.577
1006.512
1012.401
1010.768
1007.381
1013.385
1012.336
1010.946
1008.322
1014.106
1013.217
1012.253
1011.077
1009.154
1014.793
1013.953
1013.091
1012.186
1011.16
1009.73
1015.504
1014.687
1013.857
1013.013
1012.146
1011.212
1010.078
1016.237
1015.439
1014.627
1013.805
1012.973
1012.129
1011.246
1010.274
1016.981
1016.202
1015.408
1014.601
1013.785
1012.962
1012.128
1011.268
1010.369
1005.517
1010.407
1005.882
1012.416
1010.569
1006.541
1013.525
1012.386
1010.764
1007.407
1014.291
1013.37
1012.327
1010.947
1008.346
1014.941
1014.093
1013.21
1012.252
1011.084
1009.179
1015.599
1014.782
1013.947
1013.091
1012.192
1011.173
1009.752
1016.291
1015.493
1014.681
1013.856
1013.018
1012.157
1011.227
1010.099
1017.004
1016.226
1015.432
1014.625
1013.807
1012.982
1012.141
1011.261
1010.294
1017.726
1016.969
1016.195
1015.405
1014.603
1013.791
1012.971
1012.14
1011.284
1010.388
1005.517
1010.311
1005.55
1012.411
1010.401
1005.917
1013.625
1012.401
1010.566
1006.574
1014.467
1013.507
1012.375
1010.765
1007.438
1015.137
1014.276
1013.359
1012.323
1010.952
1008.375
1015.748
1014.928
1014.085
1013.207
1012.255
1011.097
1009.205
1016.384
1015.587
1014.774
1013.944
1013.094
1012.202
1011.188
1009.774
1017.056
1016.279
1015.485
1014.678
1013.858
1013.026
1012.168
1011.242
1010.12
1017.749
1016.992
1016.218
1015.428
1014.626
1013.814
1012.991
1012.153
1011.276
1010.313
1018.449
1017.714
1016.961
1016.19
1015.405
1014.607
1013.799
1012.981
1012.153
1011.299
1010.485
1005.852
1010.311
1005.55
1012.402
1010.306
1005.587
1013.685
1012.395
1010.4
1005.955
1014.602
1013.606
1012.389
1010.568
1006.611
1015.326
1014.448
1013.494
1012.368
1010.77
1007.473
1015.945
1015.12
1014.264
1013.353
1012.323
1010.963
1008.405
1016.531
1015.734
1014.918
1014.08
1013.207
1012.263
1011.11
1009.231
1017.148
1016.371
1015.578
1014.77
1013.945
1013.101
1012.212
1011.202
1009.797
1017.8
1017.044
1016.27
1015.481
1014.678
1013.864
1013.035
1012.18
1011.257
1010.141
1018.471
1017.737
1016.984
1016.213
1015.428
1014.631
1013.821
1013
1012.165
1011.292
1010.412
1019.148
1018.436
1017.705
1016.955
1016.189
1015.408
1014.613
1013.806
1012.99
1012.165
1011.378
1010.668
1006.488
1010.407
1005.882
1012.402
1010.306
1005.587
1013.712
1012.387
1010.306
1005.629
1014.69
1013.666
1012.384
1010.403
1005.998
1015.475
1014.582
1013.591
1012.382
1010.574
1006.654
1016.137
1015.307
1014.434
1013.485
1012.366
1010.78
1007.509
1016.726
1015.928
1015.108
1014.255
1013.35
1012.328
1010.973
1008.435
1017.291
1016.516
1015.723
1014.912
1014.079
1013.212
1012.271
1011.123
1009.257
1017.889
1017.135
1016.362
1015.573
1014.769
1013.95
1013.108
1012.222
1011.217
1009.821
1018.521
1017.787
1017.035
1016.265
1015.48
1014.682
1013.87
1013.043
1012.191
1011.273
1010.246
1019.17
1018.459
1017.728
1016.978
1016.212
1015.431
1014.636
1013.828
1013.01
1012.177
1011.37
1010.604
1019.823
1019.135
1018.427
1017.699
1016.953
1016.191
1015.411
1014.618
1013.813
1013
1012.229
1011.521
1010.86
1007.343
1010.577
1006.512
1012.411
1010.401
1005.917
1013.712
1012.387
1010.306
1005.629
1014.732
1013.693
1012.376
1010.31
1005.674
1015.574
1014.669
1013.65
1012.376
1010.41
1006.046
1016.29
1015.454
1014.565
1013.58
1012.379
1010.584
1006.697
1016.917
1016.118
1015.291
1014.423
1013.479
1012.368
1010.79
1007.545
1017.483
1016.709
1015.915
1015.098
1014.251
1013.351
1012.332
1010.984
1008.465
1018.03
1017.277
1016.505
1015.716
1014.909
1014.081
1013.217
1012.279
1011.136
1009.284
1018.608
1017.876
1017.125
1016.356
1015.571
1014.772
1013.955
1013.115
1012.233
1011.231
1009.938
1019.218
1018.508
1017.778
1017.029
1016.263
1015.483
1014.687
1013.877
1013.052
1012.203
1011.35
1010.456
1019.844
1019.157
1018.449
1017.721
1016.975
1016.213
1015.434
1014.64
1013.835
1013.019
1012.24
1011.512
1010.807
1020.473
1019.81
1019.125
1018.42
1017.696
1016.954
1016.192
1015.415
1014.623
1013.82
1013.05
1012.341
1011.664
1011.058
1008.28
1010.777
1007.36
1012.416
1010.569
1006.541
1013.685
1012.395
1010.4
1005.955
1014.732
1013.693
1012.376
1010.31
1005.674
1015.623
1014.711
1013.677
1012.368
1010.318
1005.725
1016.394
1015.553
1014.652
1013.639
1012.373
1010.423
1006.094
1017.07
1016.27
1015.437
1014.553
1013.574
1012.38
1010.595
1006.739
1017.672
1016.898
1016.102
1015.28
1014.416
1013.478
1012.371
1010.8
1007.581
1018.218
1017.466
1016.695
1015.905
1015.093
1014.25
1013.353
1012.337
1010.995
1008.495
1018.746
1018.015
1017.265
1016.497
1015.712
1014.91
1014.084
1013.222
1012.287
1011.15
1009.418
1019.304
1018.595
1017.866
1017.118
1016.353
1015.573
1014.775
1013.96
1013.123
1012.243
1011.306
1010.18
1019.892
1019.205
1018.498
1017.771
1017.026
1016.264
1015.485
1014.691
1013.883
1013.061
1012.262
1011.492
1010.684
1020.494
1019.831
1019.147
1018.442
1017.718
1016.976
1016.215
1015.437
1014.645
1013.842
1013.067
1012.35
1011.657
1011.019
1021.099
1020.46
1019.8
1019.118
1018.416
1017.696
1016.954
1016.194
1015.418
1014.628
1013.858
1013.137
1012.452
1011.809
1011.262
1009.108
1010.958
1008.289
1012.401
1010.768
1007.381
1013.625
1012.401
1010.566
1006.574
1014.69
1013.666
1012.384
1010.403
1005.998
1015.623
1014.711
1013.677
1012.368
1010.318
1005.725
1016.445
1015.601
1014.693
1013.665
1012.366
1010.331
1005.776
1017.174
1016.372
1015.535
1014.638
1013.631
1012.375
1010.435
1006.141
1017.823
1017.05
1016.253
1015.424
1014.544
1013.571
1012.382
1010.606
1006.781
1018.403
1017.653
1016.882
1016.09
1015.272
1014.412
1013.476
1012.373
1010.81
1007.617
1018.931
1018.201
1017.453
1016.685
1015.899
1015.091
1014.25
1013.354
1012.342
1011.006
1008.644
1019.439
1018.731
1018.003
1017.257
1016.493
1015.712
1014.911
1014.086
1013.227
1012.296
1011.218
1009.697
1019.976
1019.29
1018.584
1017.858
1017.114
1016.353
1015.574
1014.778
1013.965
1013.13
1012.296
1011.447
1010.453
1020.541
1019.879
1019.195
1018.491
1017.767
1017.026
1016.265
1015.488
1014.695
1013.889
1013.105
1012.367
1011.638
1010.928
1021.12
1020.481
1019.821
1019.14
1018.438
1017.717
1016.976
1016.217
1015.441
1014.65
1013.878
1013.151
1012.458
1011.802
1011.237
1021.701
1021.086
1020.45
1019.792
1019.114
1018.415
1017.695
1016.955
1016.197
1015.422
1014.656
1013.924
1013.222
1012.562
1011.954
1011.377
1009.674
1011.081
1009.112
1012.348
1010.949
1008.303
1013.525
1012.386
1010.764
1007.407
1014.602
1013.606
1012.389
1010.568
1006.611
1015.574
1014.669
1013.65
1012.376
1010.41
1006.046
1016.445
1015.601
1014.693
1013.665
1012.366
1010.331
1005.776
1017.226
1016.423
1015.583
1014.68
1013.658
1012.367
1010.345
1005.826
1017.926
1017.153
1016.355
1015.521
1014.629
1013.628
1012.376
1010.447
1006.189
1018.553
1017.803
1017.033
1016.239
1015.415
1014.54
1013.568
1012.383
1010.617
1006.823
1019.113
1018.385
1017.637
1016.87
1016.082
1015.267
1014.409
1013.475
1012.376
1010.82
1007.79
1019.621
1018.914
1018.188
1017.442
1016.678
1015.896
1015.089
1014.249
1013.356
1012.347
1011.062
1008.92
1020.109
1019.424
1018.719
1017.994
1017.251
1016.491
1015.711
1014.912
1014.089
1013.232
1012.337
1011.352
1010.02
1020.624
1019.962
1019.279
1018.576
1017.853
1017.113
1016.353
1015.575
1014.781
1013.97
1013.168
1012.391
1011.595
1010.756
1021.166
1020.528
1019.868
1019.187
1018.486
1017.766
1017.026
1016.267
1015.49
1014.699
1013.922
1013.182
1012.47
1011.787
1011.183
1021.721
1021.107
1020.471
1019.813
1019.135
1018.437
1017.717
1016.977
1016.219
1015.444
1014.676
1013.94
1013.233
1012.566
1011.949
1011.361
1022.277
1021.688
1021.076
1020.443
1019.788
1019.112
1018.414
1017.695
1016.956
1016.199
1015.44
1014.702
1013.986
1013.305
1012.671
1012.036
1011.411
1010.01
1011.15
1009.675
1012.267
1011.075
1009.121
1013.385
1012.336
1010.946
1008.322
1014.467
1013.507
1012.375
1010.765
1007.438
1015.475
1014.582
1013.591
1012.382
1010.574
1006.654
1016.394
1015.553
1014.652
1013.639
1012.373
1010.423
1006.094
1017.226
1016.423
1015.583
1014.68
1013.658
1012.367
1010.345
1005.826
1017.978
1017.205
1016.405
1015.569
1014.67
1013.654
1012.368
1010.358
1005.876
1018.655
1017.906
1017.136
1016.34
1015.511
1014.623
1013.624
1012.377
1010.46
1006.235
1019.26
1018.533
1017.787
1017.02
1016.23
1015.409
1014.535
1013.565
1012.385
1010.628
1007.024
1019.8
1019.095
1018.369
1017.625
1016.861
1016.077
1015.263
1014.406
1013.474
1012.378
1010.872
1008.082
1020.288
1019.604
1018.9
1018.177
1017.435
1016.674
1015.892
1015.087
1014.249
1013.357
1012.372
1011.17
1009.201
1020.755
1020.094
1019.412
1018.71
1017.988
1017.249
1016.489
1015.711
1014.913
1014.092
1013.258
1012.414
1011.499
1010.401
1021.248
1020.61
1019.951
1019.271
1018.571
1017.852
1017.112
1016.353
1015.577
1014.784
1013.996
1013.232
1012.485
1011.753
1011.085
1021.767
1021.153
1020.517
1019.86
1019.182
1018.484
1017.765
1017.026
1016.268
1015.493
1014.722
1013.976
1013.255
1012.572
1011.939
1011.329
1022.298
1021.708
1021.096
1020.463
1019.808
1019.133
1018.435
1017.717
1016.978
1016.22
1015.461
1014.719
1013.999
1013.312
1012.672
1012.032
1011.398
1022.83
1022.265
1021.677
1021.068
1020.437
1019.785
1019.11
1018.413
1017.695
1016.957
1016.21
1015.471
1014.746
1014.047
1013.386
1012.732
1012.056
1011.452
1010.191
1011.185
1010.01
1012.194
1011.146
1009.681
1013.228
1012.257
1011.073
1009.135
1014.291
1013.37
1012.327
1010.947
1008.346
1015.326
1014.448
1013.494
1012.368
1010.77
1007.473
1016.29
1015.454
1014.565
1013.58
1012.379
1010.584
1006.697
1017.174
1016.372
1015.535
1014.638
1013.631
1012.375
1010.435
1006.141
1017.978
1017.205
1016.405
1015.569
1014.67
1013.654
1012.368
1010.358
1005.876
1018.706
1017.957
1017.187
1016.391
1015.558
1014.664
1013.65
1012.37
1010.371
1005.925
1019.361
1018.635
1017.889
1017.122
1016.33
1015.504
1014.618
1013.621
1012.379
1010.472
1006.459
1019.945
1019.241
1018.517
1017.773
1017.01
1016.223
1015.403
1014.53
1013.563
1012.386
1010.683
1007.347
1020.465
1019.782
1019.079
1018.357
1017.616
1016.855
1016.071
1015.258
1014.403
1013.473
1012.392
1010.967
1008.352
1020.932
1020.272
1019.591
1018.889
1018.169
1017.43
1016.67
1015.889
1015.085
1014.248
1013.366
1012.42
1011.282
1009.484
1021.377
1020.74
1020.082
1019.403
1018.704
1017.985
1017.246
1016.488
1015.71
1014.914
1014.106
1013.301
1012.493
1011.666
1010.869
1021.848
1021.234
1020.599
1019.943
1019.265
1018.568
1017.85
1017.111
1016.353
1015.578
1014.8
1014.036
1013.292
1012.579
1011.918
1011.28
1022.343
1021.753
1021.142
1020.509
1019.855
1019.18
1018.483
1017.764
1017.026
1016.269
1015.507
1014.757
1014.026
1013.326
1012.674
1012.024
1011.371
1022.85
1022.285
1021.698
1021.088
1020.458
1019.806
1019.131
1018.434
1017.716
1016.978
1016.23
1015.488
1014.759
1014.055
1013.389
1012.731
1012.053
1011.441
1023.358
1022.817
1022.254
1021.67
1021.063
1020.435
1019.783
1019.109
1018.412
1017.695
1016.962
1016.227
1015.499
1014.787
1014.105
1013.431
1012.744
1012.079
1011.498
1010.269
1011.202
1010.19
1012.144
1011.182
1010.015
1013.105
1012.187
1011.146
1009.692
1014.106
1013.217
1012.253
1011.077
1009.154
1015.137
1014.276
1013.359
1012.323
1010.952
1008.375
1016.137
1015.307
1014.434
1013.485
1012.366
1010.78
1007.509
1017.07
1016.27
1015.437
1014.553
1013.574
1012.38
1010.595
1006.739
1017.926
1017.153
1016.355
1015.521
1014.629
1013.628
1012.376
1010.447
1006.189
1018.706
1017.957
1017.187
1016.391
1015.558
1014.664
1013.65
1012.37
1010.371
1005.925
1019.411
1018.685
1017.94
1017.172
1016.38
1015.551
1014.658
1013.647
1012.372
1010.385
1006.161
1020.044
1019.341
1018.618
1017.875
1017.111
1016.322
1015.497
1014.612
1013.618
1012.381
1010.533
1006.811
1020.608
1019.926
1019.225
1018.504
1017.763
1017.003
1016.216
1015.397
1014.525
1013.56
1012.396
1010.78
1007.631
1021.106
1020.447
1019.767
1019.067
1018.348
1017.61
1016.85
1016.066
1015.254
1014.4
1013.469
1012.42
1011.061
1008.597
1021.551
1020.915
1020.258
1019.58
1018.881
1018.164
1017.426
1016.667
1015.887
1015.083
1014.246
1013.383
1012.468
1011.395
1009.757
1021.975
1021.363
1020.728
1020.072
1019.396
1018.7
1017.982
1017.244
1016.486
1015.71
1014.918
1014.126
1013.342
1012.576
1011.861
1011.213
1022.423
1021.834
1021.223
1020.59
1019.937
1019.262
1018.566
1017.848
1017.11
1016.353
1015.586
1014.822
1014.071
1013.349
1012.675
1012.013
1011.332
1022.894
1022.33
1021.743
1021.134
1020.503
1019.852
1019.178
1018.481
1017.763
1017.026
1016.276
1015.526
1014.788
1014.073
1013.396
1012.731
1012.047
1011.419
1023.378
1022.837
1022.274
1021.69
1021.083
1020.455
1019.803
1019.129
1018.433
1017.716
1016.982
1016.244
1015.512
1014.796
1014.109
1013.432
1012.744
1012.076
1011.489
1023.861
1023.345
1022.807
1022.246
1021.664
1021.06
1020.432
1019.781
1019.107
1018.411
1017.694
1016.967
1016.241
1015.524
1014.827
1014.138
1013.439
1012.757
1012.103
1011.547
1011.208
1010.268
1012.113
1011.199
1010.195
1013.024
1012.138
1011.183
1010.024
1013.963
1013.096
1012.185
1011.15
1009.708
1014.941
1014.093
1013.21
1012.252
1011.084
1009.179
1015.945
1015.12
1014.264
1013.353
1012.323
1010.963
1008.405
1016.917
1016.118
1015.291
1014.423
1013.479
1012.368
1010.79
1007.545
1017.823
1017.05
1016.253
1015.424
1014.544
1013.571
1012.382
1010.606
1006.781
1018.655
1017.906
1017.136
1016.34
1015.511
1014.623
1013.624
1012.377
1010.46
1006.235
1019.411
1018.685
1017.94
1017.172
1016.38
1015.551
1014.658
1013.647
1012.372
1010.385
1006.161
1020.094
1019.391
1018.668
1017.925
1017.161
1016.372
1015.544
1014.652
1013.644
1012.373
1010.45
1006.53
1020.705
1020.025
1019.324
1018.604
1017.864
1017.103
1016.315
1015.49
1014.607
1013.615
1012.389
1010.636
1007.115
1021.247
1020.589
1019.911
1019.212
1018.494
1017.756
1016.996
1016.21
1015.391
1014.521
1013.548
1012.414
1010.871
1007.877
1021.724
1021.088
1020.432
1019.755
1019.058
1018.342
1017.603
1016.844
1016.061
1015.25
1014.385
1013.465
1012.45
1011.152
1008.811
1022.147
1021.535
1020.902
1020.247
1019.571
1018.876
1018.159
1017.421
1016.663
1015.884
1015.074
1014.243
1013.399
1012.516
1011.504
1022.549
1021.961
1021.35
1020.718
1020.065
1019.392
1018.696
1017.979
1017.241
1016.485
1015.707
1014.921
1014.141
1013.38
1012.667
1011.996
1011.283
1022.974
1022.409
1021.822
1021.214
1020.584
1019.933
1019.259
1018.563
1017.846
1017.109
1016.354
1015.592
1014.838
1014.103
1013.405
1012.729
1012.038
1011.388
1023.422
1022.881
1022.319
1021.734
1021.128
1020.5
1019.849
1019.175
1018.479
1017.763
1017.026
1016.282
1015.541
1014.815
1014.117
1013.434
1012.743
1012.071
1011.471
1023.881
1023.365
1022.827
1022.266
1021.684
1021.08
1020.452
1019.801
1019.127
1018.432
1017.714
1016.984
1016.254
1015.533
1014.831
1014.139
1013.44
1012.757
1012.101
1011.539
1024.341
1023.849
1023.335
1022.799
1022.241
1021.661
1021.057
1020.429
1019.779
1019.105
1018.407
1017.691
1016.97
1016.253
1015.548
1014.849
1014.142
1013.447
1012.771
1012.13
1011.598
1012.098
1011.205
1010.272
1012.977
1012.108
1011.2
1010.203
1013.871
1013.016
1012.136
1011.188
1010.039
1014.793
1013.953
1013.091
1012.186
1011.16
1009.73
1015.748
1014.928
1014.085
1013.207
1012.255
1011.097
1009.205
1016.726
1015.928
1015.108
1014.255
1013.35
1012.328
1010.973
1008.435
1017.672
1016.898
1016.102
1015.28
1014.416
1013.478
1012.371
1010.8
1007.581
1018.553
1017.803
1017.033
1016.239
1015.415
1014.54
1013.568
1012.383
1010.617
1006.823
1019.361
1018.635
1017.889
1017.122
1016.33
1015.504
1014.618
1013.621
1012.379
1010.472
1006.459
1020.094
1019.391
1018.668
1017.925
1017.161
1016.372
1015.544
1014.652
1013.644
1012.373
1010.45
1006.53
1020.754
1020.074
1019.374
1018.654
1017.914
1017.153
1016.364
1015.537
1014.647
1013.64
1012.382
1010.558
1006.847
1021.344
1020.687
1020.009
1019.311
1018.593
1017.856
1017.095
1016.308
1015.484
1014.601
1013.6
1012.405
1010.731
1007.373
1021.863
1021.229
1020.574
1019.898
1019.202
1018.486
1017.749
1016.989
1016.203
1015.385
1014.498
1013.532
1012.435
1010.958
1008.082
1022.318
1021.706
1021.074
1020.42
1019.746
1019.051
1018.335
1017.597
1016.838
1016.056
1015.229
1014.363
1013.463
1012.479
1011.237
1022.719
1022.132
1021.522
1020.891
1020.239
1019.566
1018.871
1018.154
1017.417
1016.659
1015.869
1015.057
1014.239
1013.413
1012.559
1023.099
1022.535
1021.948
1021.34
1020.711
1020.061
1019.387
1018.692
1017.975
1017.239
1016.476
1015.696
1014.917
1014.15
1013.417
1012.726
1012.027
1011.349
1023.5
1022.96
1022.398
1021.813
1021.208
1020.58
1019.929
1019.256
1018.561
1017.844
1017.104
1016.348
1015.593
1014.849
1014.13
1013.435
1012.741
1012.065
1011.445
1023.925
1023.409
1022.871
1022.31
1021.728
1021.124
1020.497
1019.846
1019.173
1018.478
1017.758
1017.022
1016.284
1015.553
1014.84
1014.141
1013.441
1012.756
1012.098
1011.524
1024.36
1023.868
1023.355
1022.818
1022.26
1021.68
1021.076
1020.449
1019.799
1019.126
1018.426
1017.707
1016.984
1016.262
1015.552
1014.85
1014.143
1013.447
1012.77
1012.128
1011.592
1024.796
1024.329
1023.839
1023.327
1022.793
1022.237
1021.657
1021.053
1020.426
1019.776
1019.097
1018.395
1017.684
1016.971
1016.264
1015.561
1014.851
1014.146
1013.454
1012.784
1012.157
1011.65
1012.955
1012.094
1011.207
1010.281
1013.818
1012.97
1012.107
1011.206
1010.217
1014.697
1013.862
1013.013
1012.139
1011.198
1010.058
1015.599
1014.782
1013.947
1013.091
1012.192
1011.173
1009.752
1016.531
1015.734
1014.918
1014.08
1013.207
1012.263
1011.11
1009.231
1017.483
1016.709
1015.915
1015.098
1014.251
1013.351
1012.332
1010.984
1008.465
1018.403
1017.653
1016.882
1016.09
1015.272
1014.412
1013.476
1012.373
1010.81
1007.617
1019.26
1018.533
1017.787
1017.02
1016.23
1015.409
1014.535
1013.565
1012.385
1010.628
1007.024
1020.044
1019.341
1018.618
1017.875
1017.111
1016.322
1015.497
1014.612
1013.618
1012.381
1010.533
1006.811
1020.754
1020.074
1019.374
1018.654
1017.914
1017.153
1016.364
1015.537
1014.647
1013.64
1012.382
1010.558
1006.847
1021.392
1020.735
1020.058
1019.36
1018.643
1017.906
1017.145
1016.357
1015.53
1014.641
1013.624
1012.398
1010.657
1007.113
1021.959
1021.325
1020.671
1019.995
1019.3
1018.585
1017.848
1017.088
1016.3
1015.477
1014.574
1013.577
1012.422
1010.82
1007.585
1022.456
1021.846
1021.214
1020.561
1019.888
1019.194
1018.479
1017.741
1016.982
1016.197
1015.357
1014.463
1013.519
1012.455
1011.038
1022.888
1022.301
1021.692
1021.062
1020.411
1019.739
1019.045
1018.329
1017.591
1016.833
1016.031
1015.195
1014.344
1013.463
1012.506
1023.268
1022.704
1022.118
1021.511
1020.882
1020.233
1019.56
1018.865
1018.149
1017.412
1016.64
1015.842
1015.039
1014.234
1013.425
1023.624
1023.084
1022.522
1021.939
1021.333
1020.706
1020.056
1019.383
1018.688
1017.972
1017.225
1016.453
1015.677
1014.905
1014.153
1013.437
1012.739
1012.057
1011.412
1024.003
1023.487
1022.949
1022.389
1021.807
1021.203
1020.576
1019.926
1019.253
1018.558
1017.834
1017.088
1016.336
1015.588
1014.855
1014.145
1013.442
1012.755
1012.093
1011.502
1024.404
1023.912
1023.398
1022.862
1022.304
1021.724
1021.121
1020.493
1019.843
1019.171
1018.469
1017.744
1017.013
1016.282
1015.562
1014.853
1014.145
1013.447
1012.769
1012.125
1011.579
1024.815
1024.348
1023.858
1023.346
1022.812
1022.256
1021.677
1021.073
1020.446
1019.796
1019.116
1018.411
1017.697
1016.98
1016.268
1015.563
1014.853
1014.147
1013.454
1012.784
1012.156
1011.645
1025.227
1024.784
1024.318
1023.831
1023.321
1022.789
1022.233
1021.654
1021.05
1020.424
1019.765
1019.078
1018.38
1017.675
1016.971
1016.269
1015.562
1014.853
1014.15
1013.461
1012.798
1012.184
1011.701
1013.794
1012.949
1012.093
1011.213
1010.294
1014.643
1013.81
1012.967
1012.11
1011.216
1010.235
1015.504
1014.687
1013.857
1013.013
1012.146
1011.212
1010.078
1016.384
1015.587
1014.774
1013.944
1013.094
1012.202
1011.188
1009.774
1017.291
1016.516
1015.723
1014.912
1014.079
1013.212
1012.271
1011.123
1009.257
1018.218
1017.466
1016.695
1015.905
1015.093
1014.25
1013.353
1012.337
1010.995
1008.495
1019.113
1018.385
1017.637
1016.87
1016.082
1015.267
1014.409
1013.475
1012.376
1010.82
1007.79
1019.945
1019.241
1018.517
1017.773
1017.01
1016.223
1015.403
1014.53
1013.563
1012.386
1010.683
1007.347
1020.705
1020.025
1019.324
1018.604
1017.864
1017.103
1016.315
1015.49
1014.607
1013.615
1012.389
1010.636
1007.115
1021.392
1020.735
1020.058
1019.36
1018.643
1017.906
1017.145
1016.357
1015.53
1014.641
1013.624
1012.398
1010.657
1007.113
1022.007
1021.374
1020.719
1020.044
1019.35
1018.635
1017.898
1017.137
1016.349
1015.523
1014.612
1013.599
1012.415
1010.747
1007.332
1022.551
1021.941
1021.31
1020.658
1019.985
1019.292
1018.577
1017.84
1017.08
1016.293
1015.444
1014.532
1013.558
1012.439
1010.9
1023.026
1022.439
1021.831
1021.201
1020.551
1019.88
1019.187
1018.471
1017.734
1016.975
1016.165
1015.311
1014.433
1013.509
1012.475
1023.435
1022.872
1022.287
1021.68
1021.053
1020.404
1019.732
1019.038
1018.322
1017.586
1016.805
1015.989
1015.165
1014.327
1013.462
1023.792
1023.252
1022.691
1022.107
1021.503
1020.876
1020.227
1019.554
1018.86
1018.144
1017.39
1016.605
1015.814
1015.02
1014.227
1024.126
1023.61
1023.072
1022.513
1021.931
1021.328
1020.701
1020.051
1019.379
1018.684
1017.955
1017.193
1016.423
1015.65
1014.883
1014.149
1013.442
1012.753
1012.087
1011.474
1024.481
1023.989
1023.476
1022.94
1022.382
1021.802
1021.199
1020.572
1019.922
1019.25
1018.544
1017.809
1017.065
1016.317
1015.578
1014.858
1014.147
1013.448
1012.769
1012.122
1011.561
1024.859
1024.391
1023.901
1023.39
1022.856
1022.3
1021.72
1021.117
1020.49
1019.84
1019.158
1018.447
1017.726
1017
1016.277
1015.566
1014.855
1014.148
1013.454
1012.783
1012.154
1011.635
1025.247
1024.803
1024.338
1023.85
1023.34
1022.808
1022.252
1021.673
1021.07
1020.443
1019.783
1019.094
1018.393
1017.684
1016.975
1016.271
1015.563
1014.854
1014.15
1013.461
1012.798
1012.183
1011.697
1025.635
1025.216
1024.774
1024.31
1023.825
1023.317
1022.785
1022.229
1021.65
1021.047
1020.409
1019.74
1019.057
1018.364
1017.665
1016.97
1016.269
1015.562
1014.854
1014.153
1013.468
1012.812
1012.211
1011.751
1014.618
1013.786
1012.946
1012.097
1011.223
1010.312
1015.45
1014.633
1013.806
1012.968
1012.117
1011.231
1010.255
1016.291
1015.493
1014.681
1013.856
1013.018
1012.157
1011.227
1010.099
1017.148
1016.371
1015.578
1014.77
1013.945
1013.101
1012.212
1011.202
1009.797
1018.03
1017.277
1016.505
1015.716
1014.909
1014.081
1013.217
1012.279
1011.136
1009.284
1018.931
1018.201
1017.453
1016.685
1015.899
1015.091
1014.25
1013.354
1012.342
1011.006
1008.644
1019.8
1019.095
1018.369
1017.625
1016.861
1016.077
1015.263
1014.406
1013.474
1012.378
1010.872
1008.082
1020.608
1019.926
1019.225
1018.504
1017.763
1017.003
1016.216
1015.397
1014.525
1013.56
1012.396
1010.78
1007.631
1021.344
1020.687
1020.009
1019.311
1018.593
1017.856
1017.095
1016.308
1015.484
1014.601
1013.6
1012.405
1010.731
1007.373
1022.007
1021.374
1020.719
1020.044
1019.35
1018.635
1017.898
1017.137
1016.349
1015.523
1014.612
1013.599
1012.415
1010.747
1007.332
1022.599
1021.989
1021.358
1020.706
1020.034
1019.341
1018.627
1017.89
1017.13
1016.342
1015.488
1014.567
1013.578
1012.431
1010.83
1023.12
1022.533
1021.926
1021.297
1020.647
1019.977
1019.284
1018.569
1017.832
1017.073
1016.257
1015.392
1014.496
1013.543
1012.456
1023.571
1023.009
1022.424
1021.818
1021.191
1020.543
1019.872
1019.179
1018.464
1017.727
1016.941
1016.113
1015.271
1014.408
1013.502
1023.958
1023.419
1022.858
1022.275
1021.671
1021.046
1020.397
1019.725
1019.031
1018.316
1017.555
1016.758
1015.952
1015.138
1014.312
1024.292
1023.777
1023.239
1022.68
1022.099
1021.496
1020.87
1020.221
1019.549
1018.855
1018.119
1017.348
1016.569
1015.785
1015
1024.603
1024.112
1023.598
1023.063
1022.505
1021.926
1021.322
1020.696
1020.046
1019.374
1018.663
1017.915
1017.154
1016.383
1015.609
1014.863
1014.149
1013.448
1012.767
1012.117
1011.536
1024.935
1024.468
1023.978
1023.467
1022.933
1022.377
1021.798
1021.194
1020.568
1019.918
1019.232
1018.512
1017.778
1017.035
1016.294
1015.571
1014.857
1014.149
1013.455
1012.783
1012.151
1011.619
1025.29
1024.846
1024.381
1023.893
1023.383
1022.852
1022.296
1021.716
1021.113
1020.487
1019.825
1019.13
1018.421
1017.704
1016.984
1016.274
1015.565
1014.855
1014.151
1013.461
1012.797
1012.182
1011.69
1025.654
1025.235
1024.793
1024.329
1023.844
1023.336
1022.804
1022.249
1021.669
1021.066
1020.428
1019.756
1019.07
1018.372
1017.67
1016.972
1016.27
1015.562
1014.855
1014.153
1013.468
1012.812
1012.211
1011.749
1026.019
1025.623
1025.206
1024.766
1024.304
1023.82
1023.313
1022.781
1022.226
1021.647
1021.031
1020.381
1019.714
1019.034
1018.346
1017.66
1016.968
1016.267
1015.561
1014.855
1014.156
1013.475
1012.825
1012.237
1011.799
1015.425
1014.609
1013.782
1012.947
1012.104
1011.238
1010.331
1016.237
1015.439
1014.627
1013.805
1012.973
1012.129
1011.246
1010.274
1017.056
1016.279
1015.485
1014.678
1013.858
1013.026
1012.168
1011.242
1010.12
1017.889
1017.135
1016.362
1015.573
1014.769
1013.95
1013.108
1012.222
1011.217
1009.821
1018.746
1018.015
1017.265
1016.497
1015.712
1014.91
1014.084
1013.222
1012.287
1011.15
1009.418
1019.621
1018.914
1018.188
1017.442
1016.678
1015.896
1015.089
1014.249
1013.356
1012.347
1011.062
1008.92
1020.465
1019.782
1019.079
1018.357
1017.616
1016.855
1016.071
1015.258
1014.403
1013.473
1012.392
1010.967
1008.352
1021.247
1020.589
1019.911
1019.212
1018.494
1017.756
1016.996
1016.21
1015.391
1014.521
1013.548
1012.414
1010.871
1007.877
1021.959
1021.325
1020.671
1019.995
1019.3
1018.585
1017.848
1017.088
1016.3
1015.477
1014.574
1013.577
1012.422
1010.82
1007.585
1022.599
1021.989
1021.358
1020.706
1020.034
1019.341
1018.627
1017.89
1017.13
1016.342
1015.488
1014.567
1013.578
1012.431
1010.83
1023.167
1022.581
1021.974
1021.345
1020.696
1020.026
1019.333
1018.619
1017.882
1017.122
1016.304
1015.433
1014.528
1013.561
1012.447
1023.665
1023.103
1022.518
1021.913
1021.287
1020.639
1019.969
1019.276
1018.562
1017.825
1017.035
1016.199
1015.346
1014.465
1013.531
1024.094
1023.555
1022.994
1022.412
1021.809
1021.184
1020.536
1019.865
1019.172
1018.457
1017.691
1016.885
1016.067
1015.237
1014.386
1024.457
1023.942
1023.405
1022.846
1022.266
1021.664
1021.038
1020.39
1019.718
1019.025
1018.284
1017.504
1016.715
1015.918
1015.114
1024.769
1024.277
1023.764
1023.229
1022.672
1022.093
1021.49
1020.864
1020.215
1019.543
1018.827
1018.073
1017.307
1016.533
1015.757
1025.057
1024.59
1024.1
1023.588
1023.055
1022.499
1021.92
1021.317
1020.691
1020.042
1019.35
1018.618
1017.868
1017.103
1016.328
1015.576
1014.86
1014.151
1013.455
1012.782
1012.148
1011.598
1025.366
1024.923
1024.457
1023.969
1023.46
1022.928
1022.372
1021.793
1021.19
1020.564
1019.898
1019.194
1018.473
1017.739
1017.001
1016.279
1015.568
1014.857
1014.152
1013.461
1012.797
1012.18
1011.678
1025.697
1025.277
1024.836
1024.372
1023.886
1023.379
1022.847
1022.291
1021.712
1021.11
1020.469
1019.792
1019.098
1018.392
1017.679
1016.975
1016.272
1015.564
1014.855
1014.154
1013.468
1012.811
1012.21
1011.744
1026.037
1025.642
1025.225
1024.785
1024.323
1023.839
1023.332
1022.8
1022.245
1021.666
1021.049
1020.396
1019.726
1019.042
1018.35
1017.661
1016.969
1016.268
1015.561
1014.855
1014.156
1013.475
1012.825
1012.238
1011.798
1026.378
1026.007
1025.613
1025.198
1024.76
1024.3
1023.816
1023.309
1022.777
1022.222
1021.628
1020.998
1020.349
1019.685
1019.009
1018.336
1017.657
1016.966
1016.265
1015.56
1014.855
1014.159
1013.481
1012.838
1012.263
1011.866
1016.213
1015.415
1014.603
1013.782
1012.952
1012.116
1011.253
1010.35
1017.004
1016.226
1015.432
1014.625
1013.807
1012.982
1012.141
1011.261
1010.294
1017.8
1017.044
1016.27
1015.481
1014.678
1013.864
1013.035
1012.18
1011.257
1010.141
1018.608
1017.876
1017.125
1016.356
1015.571
1014.772
1013.955
1013.115
1012.233
1011.231
1009.938
1019.439
1018.731
1018.003
1017.257
1016.493
1015.712
1014.911
1014.086
1013.227
1012.296
1011.218
1009.697
1020.288
1019.604
1018.9
1018.177
1017.435
1016.674
1015.892
1015.087
1014.249
1013.357
1012.372
1011.17
1009.201
1021.106
1020.447
1019.767
1019.067
1018.348
1017.61
1016.85
1016.066
1015.254
1014.4
1013.469
1012.42
1011.061
1008.597
1021.863
1021.229
1020.574
1019.898
1019.202
1018.486
1017.749
1016.989
1016.203
1015.385
1014.498
1013.532
1012.435
1010.958
1008.082
1022.551
1021.941
1021.31
1020.658
1019.985
1019.292
1018.577
1017.84
1017.08
1016.293
1015.444
1014.532
1013.558
1012.439
1010.9
1023.167
1022.581
1021.974
1021.345