/*--------------------------------*- C++ -*----------------------------------*\
| =========                 |                                                 |
| \\      /  F ield         | OpenFOAM: The Open Source CFD Toolbox           |
|  \\    /   O peration     | Version:  2306                                  |
|   \\  /    A nd           | Website:  www.openfoam.com                      |
|    \\/     M anipulation  |                                                 |
\*---------------------------------------------------------------------------*/
FoamFile
{
    version     2.0;
    format      ascii;
    arch        "LSB;label=32;scalar=64";
    class       volVectorField;
    location    "0.6/phiEA";
    object      i;
}
// * * * * * * * * * * * * * * * * * * * * * * * * * * * * * * * * * * * * * //

dimensions      [0 -2 0 0 0 1 0];

internalField   nonuniform List<vector> 
20000
(
(-634.2173 2468.377 2099.196)
(-664.2823 7936.709 2135.956)
(-1283.932 2167.727 1911.07)
(-633.4648 2466.906 6208.002)
(-729.8602 15014.68 2210.107)
(-1336.685 6980.28 1940.115)
(-663.4989 7932.273 6317.09)
(-1215.427 1940.853 1746.772)
(-1282.523 2166.565 5656.362)
(-632.0107 2464.013 10163.89)
(-841.8209 24464.5 2308.435)
(-1452.126 13239.3 1998.334)
(-729.0132 15007.78 6537.162)
(-1255.063 6254.771 1771.584)
(-1335.227 6976.789 5742.792)
(-661.9851 7923.543 10343.32)
(-1048.662 1771.364 1614.024)
(-1214.238 1939.861 5173.894)
(-1279.796 2164.27 9270.043)
(-629.8894 2459.729 14017.27)
(-1012.674 34928.98 2357.522)
(-1650.195 21636.36 2073.068)
(-840.8794 24458.6 6828.607)
(-1342.314 11879.57 1821.243)
(-1450.571 13233.98 5916.078)
(-727.3759 14994.22 10705.39)
(-1078.996 5711.404 1636.037)
(-1253.846 6251.792 5247.831)
(-1332.408 6969.891 9412.672)
(-659.7763 7910.613 14265.83)
(-898.8164 1637.504 1503.687)
(-1047.689 1770.484 4783.648)
(-1211.936 1937.896 8486.982)
(-1275.815 2160.86 12794.65)
(-627.1203 2454.071 16480.11)
(-1237.586 39704.35 2205.403)
(-1954.149 30971.32 2097.749)
(-1011.635 34933.1 6971.313)
(-1493.324 19444.27 1884.163)
(-1648.498 21632.39 6138.374)
(-839.06 24447.13 11184.25)
(-1145.974 10856.68 1680.074)
(-1341.041 11875.07 5395.854)
(-1447.561 13223.47 9698.754)
(-724.9866 14974.15 14767.53)
(-923.2876 5281.649 1523.631)
(-1078.005 5708.762 4849.303)
(-1251.489 6245.892 8609.197)
(-1328.291 6959.641 12992.72)
(-656.8926 7893.533 16773.42)
(-778.7931 1526.653 1409.148)
(-897.9969 1636.706 4458.99)
(-1045.802 1768.738 7852.794)
(-1208.569 1934.972 11722.36)
(-1270.616 2156.347 15050.68)
(-856.0069 3357.252 21664.64)
(-1457.863 35756.95 2120.145)
(-2356.222 35252.46 1937.764)
(-1236.516 39713.84 6509.316)
(-1727.287 27868.71 1900.088)
(-1952.32 30976.73 6210.176)
(-1009.629 34941.75 11413.43)
(-1262.389 17786.63 1735.46)
(-1491.973 19441.11 5583.329)
(-1645.214 21624.6 10065.56)
(-836.4046 24430.28 15430.74)
(-977.4145 10045.65 1563.529)
(-1144.943 10852.71 4980.687)
(-1338.573 11866.15 8853.996)
(-1443.165 13207.86 13390.21)
(-721.8666 14947.63 17365.74)
(-799.3497 4925.424 1427.456)
(-922.4532 5279.255 4518.513)
(-1076.079 5703.523 7961.434)
(-1248.041 6237.111 11892.3)
(-1322.914 6946.069 15284.8)
(-896.6699 10800.26 22077.54)
(-684.0696 1431.938 1326.452)
(-778.0842 1525.921 4180.597)
(-896.4042 1635.123 7324.625)
(-1043.04 1766.138 10853.15)
(-1204.17 1931.098 13796.36)
(-1734.967 2950.622 19788.17)
(-852.5447 3349.067 20096.39)
(-1637.279 27138.21 2094.49)
(-2750.835 31760.02 1841.639)
(-1456.749 35761.39 6249.509)
(-2039.231 31737.5 1747.983)
(-2354.392 35262.7 5727.413)
(-1234.459 39733.22 10631.78)
(-1443.546 25512.25 1746.9)
(-1725.884 27874.16 5629.671)
(-1948.783 30987.76 10181.03)
(-1006.705 34955.2 15742.95)
(-1071.73 16468.54 1613.466)
(-1261.306 17783.96 5145.889)
(-1489.354 19434.91 9163.988)
(-1640.417 21613.1 13899.92)
(-832.9367 24408.12 18148.98)
(-844.8753 9372.265 1464.086)
(-976.5505 10042.06 4637.626)
(-1142.941 10844.82 8178.954)
(-1334.962 11852.88 12232.9)
(-1437.422 13187.18 15754.93)
(-985.4309 20460.51 22912.24)
(-701.8186 4620.827 1343.412)
(-798.6288 4923.226 4235.262)
(-920.8314 5274.503 7423.197)
(-1073.261 5695.716 11004.34)
(-1243.535 6225.471 13997.41)
(-1806.427 9506.017 20121.02)
(-893.0553 10775.51 20534.62)
(-608.7185 1349.164 1252.95)
(-683.4448 1431.26 3936.902)
(-776.7048 1524.467 6871.288)
(-894.0709 1632.764 10128.66)
(-1039.427 1762.691 12779.08)
(-1645.005 2642.647 18140.93)
(-1728.465 2943.962 18352.44)
(-849.0311 3339.723 20357.14)
(-1760.89 16684.13 2091.011)
(-3072.749 24107.95 1805.111)
(-1636.122 27139.38 6170.019)
(-2346.241 28591.68 1655.12)
(-2748.975 31765.33 5437.379)
(-1454.614 35770.52 10190.88)
(-1685.857 29062.92 1603.687)
(-2037.894 31747.3 5171.484)
(-2350.87 35283.37 9370.287)
(-1231.47 39762.75 14634.66)
(-1218.871 23634.03 1622.169)
(-1442.435 25517.52 5179.185)
(-1723.163 27885.19 9238.592)
(-1943.62 31004.54 14057.57)
(-1002.888 34973.59 18514.51)
(-924.3413 15372.07 1509.774)
(-1070.827 16466.19 4786.689)
(-1259.202 17778.69 8452.471)
(-1485.521 19425.73 12664.38)
(-1634.149 21597.91 16358.24)
(-1137.246 33441.37 24010.73)
(-741.1648 8795.735 1377.355)
(-844.1306 9368.972 4344.674)
(-974.8704 10034.92 7620.555)
(-1140.009 10833.07 11307.25)
(-1330.241 11835.27 14400.62)
(-1962.932 18054.75 20790.65)
(-981.5022 20422.27 21421.95)
(-624.3481 4354.472 1268.766)
(-701.1838 4618.791 3987.563)
(-797.2259 4918.86 6961.87)
(-918.455 5267.418 10265.93)
(-1069.574 5685.359 12958.06)
(-1698.836 8520.604 18428.1)
(-1799.684 9485.938 18711.64)
(-889.378 10747.24 20853.29)
(-547.6845 1275.643 1186.86)
(-608.1602 1348.531 3720.154)
(-682.2278 1429.912 6474.103)
(-774.6821 1522.298 9506.354)
(-891.017 1629.633 11930.77)
(-1420.221 2412.314 16805.12)
(-1639.5 2636.876 16820.65)
(-1721.864 2936.254 18587.46)
(-845.466 3329.221 20617.12)
(-1823.468 5609.338 2092.018)
(-3294.827 14822.24 1793.877)
(-1759.701 16684.22 6158.139)
(-2597.107 21698.3 1618.073)
(-3070.843 24109.86 5326.919)
(-1633.907 27141.87 10053.54)
(-1924.355 26181.26 1515.698)
(-2344.937 28596.87 4891.944)
(-2745.404 31776.04 8883.592)
(-1451.519 35784.52 14008.99)
(-1416.037 26929.41 1487.167)
(-1684.813 29072.17 4748.135)
(-2035.314 31767.01 8470.696)
(-2345.748 35314.6 12914.4)
(-1227.578 39802.58 17183.68)
(-1048.535 22069.18 1516.626)
(-1217.95 23639.09 4812.019)
(-1440.276 25528.16 8506.121)
(-1719.184 27901.89 12766.46)
(-1936.877 31027.18 16543.39)
(-1369.811 47991.51 24476.8)
(-809.9371 14431.94 1419.581)
(-923.5658 15369.97 4481.134)
(-1069.071 16461.56 7867.581)
(-1256.12 17770.87 11688.36)
(-1480.508 19413.57 14911.93)
(-2231.958 29597.57 21647.87)
(-1132.862 33411.41 22579.35)
(-659.0229 8291.08 1300.431)
(-740.5102 8792.688 4088.988)
(-842.6808 9362.43 7143.265)
(-972.4078 10024.28 10540.93)
(-1136.173 10817.46 13316.88)
(-1817.43 16205.21 19005.22)
(-1955.694 18024.21 19436.36)
(-977.4886 20378.72 21859.44)
(-561.6467 4117.783 1201.686)
(-623.7811 4352.572 3767.415)
(-699.9472 4614.743 6558.092)
(-795.1684 4912.347 9632.56)
(-915.3443 5258.012 12093.34)
(-1461.455 7781.765 17061.5)
(-1693.182 8503.217 17132.9)
(-1792.82 9462.661 18999.06)
(-885.6383 10715.42 21171.18)
(-497.3203 1209.542 1126.89)
(-547.1803 1275.05 3525.144)
(-607.0715 1347.273 6120.548)
(-680.4419 1427.901 8960.746)
(-772.0331 1519.418 11201.74)
(-1217.502 2230.301 15691.29)
(-1415.702 2407.149 15579.14)
(-1633.912 2630.157 17032.22)
(-1715.165 2927.498 18821.82)
(-841.8499 3317.561 30424.23)
(-1823.468 -5609.337 2092.018)
(-3407.358 4983.55 1791.023)
(-1822.264 5609.297 6160.513)
(-2770.4 13338.03 1605.483)
(-3292.884 14822.8 5292.781)
(-1757.428 16684.51 10030.97)
(-2119.094 19866.36 1479.91)
(-2595.806 21700.28 4780.384)
(-3067.19 24113.73 8697.812)
(-1630.699 27145.78 13811.72)
(-1610.074 24259.3 1403.957)
(-1923.35 26186.21 4483.529)
(-2342.425 28607.32 8002.876)
(-2740.222 31792.23 12229.35)
(-1447.496 35803.44 16433.3)
(-1215.159 25150.9 1389.034)
(-1415.178 26938.14 4405.877)
(-1682.794 29090.75 7784.406)
(-2031.551 31796.72 11685.41)
(-2339.073 35356.5 15175.5)
(-1677.857 54645.94 22414.97)
(-917.5631 20725.86 1425.112)
(-1047.747 22074.01 4501.077)
(-1216.159 23649.27 7908.43)
(-1437.114 25544.24 11761.93)
(-1713.981 27924.35 15032.19)
(-2646.433 42585.4 21881.96)
(-1365.009 48027.61 22983.56)
(-719.6942 13608.08 1339.745)
(-809.2569 14430.03 4215.167)
(-922.0552 15365.81 7369.565)
(-1066.495 16454.68 10885.4)
(-1252.086 17760.51 13768.85)
(-2023.081 26606.35 19736.05)
(-2224.02 29576.33 20359.72)
(-1128.367 33378.9 23164.56)
(-592.642 7842.273 1231.379)
(-658.439 8288.241 3862.066)
(-739.2344 8786.631 6726.328)
(-840.5537 9352.664 9885.447)
(-969.1832 10010.15 12419.25)
(-1552.572 14812.3 17576.62)
(-1811.474 16178.91 17762.49)
(-1948.294 17988.83 19831.46)
(-973.3903 20329.82 22296.48)
(-509.9298 3904.897 1140.844)
(-561.135 4116.003 3569.459)
(-622.6756 4348.795 6198.934)
(-698.132 4608.702 9077.812)
(-792.4735 4903.697 11351.26)
(-1250.781 7197.091 15924.65)
(-1456.83 7766.203 15859.21)
(-1687.426 8482.931 17391.94)
(-1785.838 9436.178 19285.8)
(-881.8365 10680.06 31327.49)
(-455.0205 1149.548 1072.076)
(-496.8611 1208.984 3348.091)
(-546.1963 1273.871 5802.208)
(-605.4726 1345.396 8474.747)
(-678.1014 1425.229 10562.25)
(-1054.914 2079.52 14734.11)
(-1213.682 2225.59 14544.61)
(-1411.116 2401.111 15772.36)
(-1628.24 2622.488 17243.22)
(-1708.368 2917.695 27770)
(-401.6728 1591.488 21148.71)
(-1760.89 -16684.13 2091.011)
(-3407.358 -4983.55 1791.023)
(-1822.264 -5609.297 6160.513)
(-2858.292 4484.019 1601.757)
(-3405.397 4983.664 5284.038)
(-1819.962 5609.243 10033.68)
(-2253.51 12210.38 1467.306)
(-2769.093 13338.68 4742.444)
(-3289.164 14823.95 8640.079)
(-1754.137 16685.02 13777.3)
(-1768.405 18406.74 1369.774)
(-2118.101 19868.29 4375.93)
(-2593.303 21704.28 7816.158)
(-3061.894 24119.6 11967.57)
(-1626.53 27151.14 16195.25)
(-1379.132 22657.58 1310.248)
(-1609.252 24264 4155.781)
(-1921.41 26196.15 7342.098)
(-2338.771 28623.06 11028.28)
(-2733.482 31813.91 14357.95)
(-1979.271 49130.13 21243.67)
(-1062.098 23623.45 1304.224)
(-1214.427 25159.15 4117.352)
(-1413.513 26955.66 7228.811)
(-1679.846 29118.73 10746.67)
(-2026.643 31836.53 13740.02)
(-3198.134 48551.34 19808.04)
(-1673.107 54715.72 20454.89)
(-814.7426 19547.58 1344.291)
(-916.8738 20730.47 4231.263)
(-1046.212 22083.73 7401.757)
(-1213.533 23664.64 10941.53)
(-1432.976 25565.83 13855.8)
(-2342.995 38329.74 19886.68)
(-2637.928 42625.15 20558.23)
(-1360.11 48076.49 23550.96)
(-646.9216 12874.74 1268.185)
(-719.0886 13606.33 3979.587)
(-807.9309 14426.25 6935.698)
(-919.8383 15359.63 10201.2)
(-1063.122 16445.54 12827.98)
(-1711.247 24341.92 18224.97)
(-2016.719 26589.07 18557.37)
(-2215.87 29552.69 20889.63)
(-1123.762 33343.74 23751.27)
(-537.9374 7438.33 1168.801)
(-592.1155 7839.613 3658.239)
(-657.2999 8282.593 6355.997)
(-737.3611 8777.584 9312.449)
(-837.7668 9339.684 11651.07)
(-1324.45 13707.29 16393.54)
(-1547.733 14788.84 16423.85)
(-1805.38 16148.23 18119.14)
(-1940.733 17948.58 20226.2)
(-969.2075 20275.52 33165.37)
(-466.5072 3711.612 1085.253)
(-509.4641 3903.22 3389.81)
(-560.1363 4112.46 5875.732)
(-621.0517 4343.154 8584.041)
(-695.7531 4600.675 10700.98)
(-1082.879 6712.284 14949.09)
(-1246.88 7182.898 14800.38)
(-1452.125 7747.977 16096.05)
(-1681.57 8459.74 17650.39)
(-1778.737 9406.485 28532.93)
(-420.6332 5135.743 21918.78)
(-418.9365 1094.675 1021.669)
(-454.5996 1149.02 3186.168)
(-495.9644 1207.873 5512.973)
(-544.75 1272.109 8036.882)
(-603.376 1342.902 9992.356)
(-926.5431 1950.653 13894.47)
(-1051.601 2075.175 13656.05)
(-1209.809 2220.07 14723.16)
(-1406.465 2394.202 15965.06)
(-1622.485 2613.87 25434.73)
(-817.9904 1401.884 19296.48)
(-362.5877 1405.809 22794.45)
(-1637.279 -27138.21 2094.49)
(-3294.827 -14822.24 1793.877)
(-1759.701 -16684.22 6158.139)
(-2858.292 -4484.019 1601.757)
(-3405.397 -4983.664 5284.038)
(-1819.962 -5609.243 10033.68)
(-2321.648 4104.626 1463.402)
(-2856.982 4484.168 4731.212)
(-3401.641 4983.9 8625.163)
(-1816.63 5609.189 13779.81)
(-1877.618 11312.49 1357.522)
(-2252.519 12211.04 4338.047)
(-2766.581 13340 7752.613)
(-3283.771 14825.71 11885.9)
(-1749.862 16685.78 16152.33)
(-1512.878 17190.92 1277.689)
(-1767.596 18408.6 4053.087)
(-2116.185 19872.18 7162.344)
(-2589.664 21710.29 10766.13)
(-3055.008 24127.47 14045.54)
(-2224.594 37243.91 20855.12)
(-1204.339 21282.11 1229.493)
(-1378.434 22662.03 3880.633)
(-1607.662 24273.41 6811.032)
(-1918.583 26211.1 10125.95)
(-2334.012 28644.09 12956.84)
(-3738.949 43662.75 18571.45)
(-1974.448 49164.25 19002.3)
(-942.4823 22283.14 1229.503)
(-1061.46 23631.27 3867.785)
(-1213.007 25175.71 6759.9)
(-1411.08 26982.04 9985.94)
(-1675.996 29156.19 12642.92)
(-2772.234 43720.78 17939.6)
(-3189.971 48621.34 18090.32)
(-1668.398 54805.19 20399.89)
(-732.0284 18497.98 1271.974)
(-814.13 19551.98 3992.818)
(-915.5301 20739.75 6961.704)
(-1043.96 22098.4 10245.54)
(-1210.093 23685.25 12894.57)
(-1959.173 35093.87 18332.89)
(-2336.406 38368.1 18681.79)
(-2629.226 42676.17 21076.26)
(-1355.111 48138.2 24124.06)
(-587.0196 12214.22 1203.41)
(-646.3763 12873.12 3768.297)
(-717.9068 13602.85 6551.091)
(-805.983 14420.62 9604.714)
(-916.9325 15351.41 12025.9)
(-1453.061 22540.34 16981.39)
(-1706.128 24327.02 17133.15)
(-2010.175 26569.58 19036.4)
(-2207.507 29526.54 21420.94)
(-1119.046 33305.8 35537.23)
(-492.0323 7071.375 1111.662)
(-537.4585 7435.828 3473.419)
(-591.0874 7834.32 6023.104)
(-655.6261 8274.154 8803.17)
(-734.9053 8765.555 10979.24)
(-1144.86 12789.5 15381.15)
(-1320.384 13685.93 15316.09)
(-1542.786 14761.34 16750.39)
(-1799.15 16113.13 18475.48)
(-1933.01 17903.42 30083.07)
(-462.2011 9824.02 23505.27)
(-429.4735 3534.779 1034.147)
(-466.0804 3710.029 3225.573)
(-508.5543 3899.884 5582.212)
(-558.6681 4107.167 8139.426)
(-618.9221 4335.658 10121.91)
(-950.6944 6297.63 14094.21)
(-1079.499 6699.188 13892.29)
(-1242.913 7166.232 15019.44)
(-1447.34 7727.082 16332.35)
(-1675.612 8433.64 26106.74)
(-851.468 4530.46 19956.76)
(-379.0346 4564.55 23861.03)
(-387.7143 1044.178 975.0791)
(-418.5486 1094.176 3037.192)
(-453.7769 1147.971 5248.278)
(-494.6454 1206.214 7638.812)
(-542.8525 1269.769 9478.67)
(-824.4182 1838.007 13146.15)
(-923.6158 1946.611 12876.88)
(-1048.243 2070.071 13822.43)
(-1205.882 2213.739 14901.24)
(-1401.748 2386.42 23544.93)
(-780.5933 1256.712 17664.27)
(-744.4196 1241.341 20788.14)
(-321.4204 1164.855 23795.36)
(-1457.863 -35756.95 2120.145)
(-3072.749 -24107.95 1805.111)
(-1636.122 -27139.38 6170.019)
(-2770.4 -13338.03 1605.483)
(-3292.884 -14822.8 5292.781)
(-1757.428 -16684.51 10030.97)
(-2321.648 -4104.626 1463.402)
(-2856.982 -4484.168 4731.212)
(-3401.641 -4983.9 8625.163)
(-1816.63 -5609.189 13779.81)
(-1932.954 3802.643 1353.648)
(-2320.656 4104.782 4326.321)
(-2854.461 4484.468 7733.789)
(-3396.198 4984.261 11864.67)
(-1812.302 5609.142 16154.41)
(-1605.095 10564.9 1265.903)
(-1876.812 11313.14 4016.308)
(-2250.606 12212.37 7099.087)
(-2762.929 13341.98 10676.88)
(-3276.762 14828.07 13947.89)
(-2393.581 22884.55 20771.56)
(-1320.335 16147.11 1198.492)
(-1512.193 17192.69 3782.864)
(-1766.033 18412.32 6639.633)
(-2113.395 19878.01 9873.933)
(-2584.928 21718.33 12644.71)
(-4179.692 33100.8 18095.67)
(-2219.632 37254.73 18492.22)
(-1068.204 20075.2 1158.492)
(-1203.732 21286.34 3643.306)
(-1377.082 22670.96 6364.634)
(-1605.342 24287.56 9399.946)
(-1914.897 26231.06 11903.59)
(-3193.994 39314.56 16764.61)
(-3730.858 43699.01 16622.24)
(-1969.75 49208.64 18582.23)
(-846.4765 21088.83 1162.768)
(-941.9165 22290.57 3647.74)
(-1060.219 23646.96 6353.884)
(-1210.928 25200.64 9343.327)
(-1407.9 27017.33 11753.34)
(-2292.89 40041.35 16510.81)
(-2766.207 43786.41 16385.17)
(-3181.856 48708.78 18055.41)
(-1663.73 54914.47 20342.8)
(-664.0313 17552.03 1206.604)
(-731.4776 18502.19 3779.326)
(-812.9348 19560.85 6572.489)
(-913.5567 20753.75 9640.623)
(-1041.009 22118.05 12078.68)
(-1654.524 32513.31 17063.28)
(-1953.931 35130.27 17219.9)
(-2329.642 38416.63 19150.8)
(-2620.327 42738.52 21599.42)
(-1350.011 48212.82 36065.46)
(-536.7914 11613.81 1144.321)
(-586.5242 12212.71 3576.936)
(-645.311 12869.9 6205.882)
(-716.1694 13597.67 9075.613)
(-803.4285 14413.12 11326.31)
(-1253.255 21041.17 15921.31)
(-1448.781 22527.1 15961.83)
(-1700.865 24310.08 17572.25)
(-2003.449 26547.8 19516.7)
(-2198.932 29497.76 32054.21)
(-534.1792 16438.24 25604.7)
(-452.8973 6735.488 1059.164)
(-491.5937 7069.013 3304.572)
(-536.5227 7430.845 5721.041)
(-589.5757 7826.407 8345.091)
(-653.4304 8262.93 10381.84)
(-1004.275 12003.53 14495.73)
(-1141.346 12769.82 14368.72)
(-1316.229 13660.83 15618.48)
(-1537.731 14729.79 17076.67)
(-1792.782 16073.58 27472.08)
(-925.1162 8688.56 21317)
(-415.4023 8920.086 26127.03)
(-397.435 3372.004 986.9219)
(-429.0802 3533.279 3074.512)
(-465.246 3706.876 5313.692)
(-507.2159 3894.897 7735.403)
(-556.7417 4100.131 9600.25)
(-845.6898 5934.96 13332.88)
(-947.7108 6285.447 13096.83)
(-1076.064 6683.777 14096.57)
(-1238.882 7147.086 15238.02)
(-1442.476 7703.513 24152.47)
(-806.0036 4064.486 18249.6)
(-773.6111 4036.404 21715.96)
(-334.8302 3802.715 25122.85)
(-360.3662 997.4689 931.8369)
(-387.355 1043.705 2899.427)
(-417.7896 1093.183 5004.59)
(-452.5661 1146.404 7274.31)
(-492.9141 1204.01 9011.469)
(-741.7048 1737.937 12471.58)
(-821.7956 1834.224 12182.67)
(-920.6496 1941.855 13032.87)
(-1044.84 2064.209 13988.37)
(-1201.902 2206.599 21973.04)
(-675.767 1147.78 16344.9)
(-718.256 1113.895 19015.47)
(-666.831 1030.757 21695.25)
(-278.5835 874.8109 24587.22)
(-1237.586 -39704.35 2205.403)
(-2750.835 -31760.02 1841.639)
(-1456.749 -35761.39 6249.509)
(-2597.107 -21698.3 1618.073)
(-3070.843 -24109.86 5326.919)
(-1633.907 -27141.87 10053.54)
(-2253.51 -12210.38 1467.306)
(-2769.093 -13338.68 4742.444)
(-3289.164 -14823.95 8640.079)
(-1754.137 -16685.02 13777.3)
(-1932.954 -3802.643 1353.648)
(-2320.656 -4104.782 4326.321)
(-2854.461 -4484.468 7733.789)
(-3396.198 -4984.261 11864.67)
(-1812.302 -5609.142 16154.41)
(-1651.806 3551.266 1262.133)
(-1932.149 3802.798 4004.69)
(-2318.742 4105.095 7079.525)
(-2850.799 4484.921 10650.44)
(-3389.124 4984.749 13922.41)
(-2479.134 7692.487 20765.82)
(-1400.294 9923.222 1187.199)
(-1604.414 10565.52 3747.503)
(-1875.256 11314.43 6578.306)
(-2247.821 12214.36 9785.303)
(-2758.178 13344.63 12538.47)
(-4483.633 20339.15 17944.59)
(-2388.504 22886.93 18361.19)
(-1170.717 15231.37 1128.957)
(-1319.74 16148.8 3550.242)
(-1510.867 17196.24 6201.545)
(-1763.753 18417.91 9159.824)
(-2109.76 19885.8 11603.82)
(-3538.145 29797.06 16296.17)
(-4171.49 33114.17 16051.67)
(-2214.832 37269.55 17924.83)
(-959.1262 18999.76 1095.178)
(-1067.667 20079.22 3434.471)
(-1202.554 21294.81 5979.165)
(-1375.107 22684.36 8789.1)
(-1602.315 24306.46 11055.63)
(-2620.77 36003.65 15405.78)
(-3188.268 39349.06 15006.54)
(-3722.966 43744.3 16264.66)
(-1965.178 49263.26 18160.35)
(-767.6457 20012.16 1102.533)
(-845.9686 21095.9 3451.074)
(-940.8154 22305.47 5995.562)
(-1058.402 23670.57 8786.455)
(-1208.209 25233.97 11001.46)
(-1926.191 37104.82 15352)
(-2288.159 40102.71 15080.04)
(-2760.193 43867.79 16354.75)
(-3173.79 48813.8 18018.53)
(-1659.101 55043.73 29488.96)
(-607.0615 16691.72 1147.037)
(-663.5315 17556.06 3586.23)
(-730.402 18510.67 6223.737)
(-811.1782 19574.21 9105.236)
(-910.9689 20772.48 11369.22)
(-1423.349 30362.57 15985.63)
(-1650.167 32547.8 16025.82)
(-1948.549 35176 17650.11)
(-2322.701 38475.37 19624.46)
(-2611.228 42812.27 32308.04)
(-647.6976 24566.5 26101.37)
(-493.9929 11063.93 1090.072)
(-536.338 11612.39 3402.278)
(-585.5556 12209.71 5893.013)
(-643.744 12865.1 8600.421)
(-713.8896 13590.77 10705.47)
(-1098.105 19755.45 14996.69)
(-1249.569 21029.18 14963.92)
(-1444.384 22511.95 16368.82)
(-1695.458 24291.03 18012.54)
(-1996.541 26523.62 29198.4)
(-1053.322 14583.28 23101.67)
(-480.1375 15790.09 29382.45)
(-419.051 6426.181 1010.674)
(-452.4934 6733.251 3149.358)
(-490.736 7064.307 5444.9)
(-535.1457 7423.396 7929.195)
(-587.5915 7815.88 9844.26)
(-892.9182 11315.4 13708.38)
(-1001.179 11985.23 13540.52)
(-1137.758 12746.64 14650.98)
(-1311.986 13631.95 15920.63)
(-1532.567 14694.13 25386.97)
(-862.2445 7805.483 19455.85)
(-838.3922 7909.056 23689.93)
(-364.7172 7615.454 28072.76)
(-369.3751 3221.412 943.0988)
(-397.0708 3370.581 2934.854)
(-428.3106 3530.292 5066.558)
(-464.0178 3702.164 7365.586)
(-505.4589 3888.268 9126.011)
(-760.7102 5612.631 12646.98)
(-843.0185 5923.557 12388.65)
(-944.6799 6271.085 13288.48)
(-1072.575 6666.046 14300.41)
(-1234.785 7125.456 22530.99)
(-695.282 3713.948 16876.07)
(-740.5987 3624.825 19842.93)
(-690.7439 3369.747 22859.28)
(-288.4914 2853.591 26128.71)
(-336.1672 954.0894 891.5552)
(-360.0321 997.0184 2771.504)
(-386.6516 1042.761 4779.105)
(-416.6719 1091.697 6938.557)
(-450.9759 1144.32 8583.487)
(-673.4601 1647.953 11857.98)
(-739.3308 1734.381 11557.01)
(-819.1387 1829.768 12329.6)
(-917.6445 1936.387 13188.45)
(-1041.392 2057.589 20624.9)
(-579.7761 1061.561 15249.03)
(-624.8071 1017.914 17584.6)
(-652.4516 925.7256 19834.67)
(-585.992 775.7311 22415.74)
(-234.5608 548.2601 17170.09)
(-1012.674 -34928.98 2357.522)
(-2356.222 -35252.46 1937.764)
(-1236.516 -39713.84 6509.316)
(-2346.241 -28591.68 1655.12)
(-2748.975 -31765.33 5437.379)
(-1454.614 -35770.52 10190.88)
(-2119.094 -19866.36 1479.91)
(-2595.806 -21700.28 4780.384)
(-3067.191 -24113.73 8697.812)
(-1630.699 -27145.78 13811.72)
(-1877.618 -11312.49 1357.522)
(-2252.519 -12211.04 4338.047)
(-2766.581 -13340 7752.613)
(-3283.771 -14825.71 11885.9)
(-1749.862 -16685.78 16152.33)
(-1651.806 -3551.266 1262.133)
(-1932.149 -3802.798 4004.69)
(-2318.742 -4105.095 7079.525)
(-2850.799 -4484.921 10650.44)
(-3389.124 -4984.749 13922.41)
(-2479.134 -7692.487 20765.82)
(-1440.789 3335.536 1183.563)
(-1651.125 3551.417 3736.208)
(-1930.593 3803.108 6558.959)
(-2315.956 4105.564 9757.916)
(-2846.034 4485.526 12506.99)
(-4637.634 6836.955 17904.23)
(-2473.996 7692.767 18339.19)
(-1241.371 9360.358 1118.154)
(-1399.703 9923.819 3516.375)
(-1603.095 10566.76 6142.626)
(-1872.986 11316.37 9073.99)
(-2244.194 12217.01 11498.47)
(-3775.723 18305.13 16136.42)
(-4475.305 20343.29 15866.44)
(-2383.602 22890.67 17741.89)
(-1050.974 14415.45 1067.015)
(-1170.191 15232.98 3345.828)
(-1318.587 16152.19 5823.98)
(-1508.931 17201.57 8560.723)
(-1760.78 18425.36 10770.16)
(-2888.087 27283.5 14958.64)
(-3532.496 29810.27 14456.36)
(-4163.548 33131.03 15565.2)
(-2210.194 37288.34 17356.72)
(-869.641 18030.23 1038.102)
(-958.6446 19003.59 3248.109)
(-1066.623 20087.28 5639.633)
(-1200.832 21307.53 8261.162)
(-1372.527 22702.26 10341.74)
(-2193.044 33362.59 14311.49)
(-2616.332 36036.11 13790.61)
(-3182.667 39391.71 14685.16)
(-3715.27 43798.61 15905.32)
(-1960.73 49328.08 25701.6)
(-701.6462 19032.73 1047.714)
(-767.1855 20018.9 3273.449)
(-844.9794 21110.08 5675.033)
(-939.2011 22327.88 8294.626)
(-1056.024 23702.14 10349.54)
(-1653 34656.16 14372.38)
(-1922.281 37162.4 14021.45)
(-2283.435 40178.53 15051.89)
(-2754.193 43965.04 16322.52)
(-3165.774 48936.54 26142.48)
(-805.4671 28306.41 19556.34)
(-558.5432 15903.48 1092.398)
(-606.6047 16695.58 3410.182)
(-662.5547 17564.17 5908.078)
(-728.82 18523.43 8625.207)
(-808.8732 19592.09 10741.01)
(-1245.54 28515.86 15048.49)
(-1419.61 30395.28 15012.71)
(-1645.696 32590.93 16424.76)
(-1943.027 35231.09 18084.59)
(-2315.582 38544.39 29351.11)
(-1256.779 21853.62 23410.17)
(-589.7005 26149.32 30756.51)
(-456.99 10557.35 1039.996)
(-493.5756 11062.6 3241.846)
(-535.451 11609.58 5607.265)
(-584.1297 12205.23 8169.497)
(-641.6865 12858.7 10147.64)
(-975.7093 18628.53 14176.1)
(-1094.864 19744.46 14093.89)
(-1245.783 21015.41 15344.1)
(-1439.868 22494.84 16776.93)
(-1689.906 24269.76 26943.02)
(-961.0444 13121.61 21033.36)
(-954.3663 14047.11 26520.5)
(-419.7011 14586.45 32905.92)
(-389.4138 6139.938 965.6937)
(-418.6771 6424.058 3005.928)
(-451.7028 6728.795 5190.897)
(-489.4732 7057.27 7548.777)
(-533.3375 7413.482 9355.975)
(-802.9333 10703.33 12999.8)
(-890.1495 11298.29 12804.28)
(-998.0177 11963.64 13805.52)
(-1134.094 12719.92 14933.03)
(-1307.655 13599.27 23664.94)
(-738.6055 7138.152 17971.04)
(-790.4912 7112.533 21604.89)
(-744.2307 6766.745 25452.11)
(-310.5764 5806.86 29721.36)
(-344.5488 3081.528 902.2838)
(-369.0365 3220.058 2805.198)
(-396.3577 3367.744 4837.942)
(-427.1772 3525.827 7025.042)
(-462.4045 3695.897 8691.743)
(-690.6266 5322.675 12023.36)
(-758.2934 5601.908 11750.78)
(-840.3055 5910.096 12569.25)
(-941.6016 6254.541 13479.71)
(-1069.031 6645.991 21142.49)
(-595.5477 3436.101 15738.13)
(-642.0156 3314.053 18338.14)
(-670.8907 3028.717 20876.23)
(-603.7462 2533.662 23773.54)
(-240.6231 1749.061 18305.09)
(-314.5793 913.6523 853.919)
(-335.8555 953.6602 2652.287)
(-359.3776 996.1211 4569.608)
(-385.6151 1041.351 6627.727)
(-415.2033 1089.723 8189.104)
(-616.1508 1566.272 11295.82)
(-671.2934 1644.598 10988)
(-736.9261 1730.187 11695.89)
(-816.4477 1824.638 12476.13)
(-914.6006 1930.205 19444.02)
(-502.3588 990.0638 14310.23)
(-536.8894 941.8101 16398.42)
(-571.0849 846.3664 18333.96)
(-583.8042 697.2686 20486.64)
(-502.8076 487.6371 15654.72)
(-1712.705 2710.166 54437.54)
(-841.8209 -24464.5 2308.435)
(-1954.149 -30971.32 2097.749)
(-1011.635 -34933.1 6971.313)
(-2039.231 -31737.5 1747.983)
(-2354.392 -35262.7 5727.413)
(-1234.459 -39733.22 10631.78)
(-1924.355 -26181.26 1515.698)
(-2344.937 -28596.87 4891.944)
(-2745.404 -31776.04 8883.592)
(-1451.519 -35784.52 14008.99)
(-1768.405 -18406.74 1369.774)
(-2118.101 -19868.29 4375.93)
(-2593.303 -21704.28 7816.158)
(-3061.894 -24119.6 11967.57)
(-1626.53 -27151.14 16195.25)
(-1605.095 -10564.9 1265.903)
(-1876.812 -11313.14 4016.308)
(-2250.606 -12212.37 7099.087)
(-2762.929 -13341.98 10676.88)
(-3276.762 -14828.07 13947.89)
(-2393.581 -22884.55 20771.56)
(-1440.789 -3335.536 1183.563)
(-1651.125 -3551.417 3736.208)
(-1930.593 -3803.108 6558.959)
(-2315.956 -4105.564 9757.916)
(-2846.034 -4485.526 12506.99)
(-4637.634 -6836.955 17904.23)
(-2473.996 -7692.767 18339.19)
(-1277.149 3146.316 1114.661)
(-1440.199 3335.681 3505.483)
(-1649.809 3551.718 6123.833)
(-1928.326 3803.572 9046.942)
(-2312.328 4106.19 11465.94)
(-3896.192 6152.476 16089.05)
(-4629.234 6837.841 15815.39)
(-2469.039 7693.367 17703.98)
(-1114.271 8858.9 1056.686)
(-1240.849 9360.929 3313.436)
(-1398.558 9925.013 5767.575)
(-1601.171 10568.63 8478.308)
(-1870.028 11318.95 10668.21)
(-3072.467 16758.68 14801.91)
(-3770.074 18309.49 14268.22)
(-4467.261 20348.6 15335.32)
(-2378.877 22895.76 17122.39)
(-952.7992 13679.92 1011.22)
(-1050.503 14416.99 3163.596)
(-1169.17 15236.21 5491.856)
(-1316.902 16157.27 8043.919)
(-1506.403 17208.67 10070.31)
(-2410.449 25280.1 13887.11)
(-2883.749 27296.11 13270.16)
(-3527.019 29826.6 14019.15)
(-4155.867 33151.35 15077.97)
(-2205.717 37311.07 24289.1)
(-794.7606 17148.22 986.2098)
(-869.2052 18033.88 3079.99)
(-957.7083 19011.26 5336.356)
(-1065.096 20099.37 7795.762)
(-1198.581 21324.51 9724.366)
(-1878.558 31161.07 13389.96)
(-2189.397 33393.17 12811.23)
(-2611.989 36076.04 13495.65)
(-3177.192 39442.49 14362.16)
(-3707.773 43861.92 22526.94)
(-957.6744 25057.76 15991.49)
(-645.4586 18135.17 997.4786)
(-701.226 19039.16 3111.697)
(-766.2882 20032.41 5385.306)
(-843.5276 21131.4 7854.36)
(-937.0871 22357.85 9773.456)
(-1444.787 32552.73 13522.82)
(-1649.655 34710.42 13126.62)
(-1918.377 37233.4 13995.09)
(-2278.72 40268.89 15022.08)
(-2748.207 44078.29 23683.75)
(-1541.073 25206.65 17372.06)
(-761.8841 30923.92 19223.18)
(-516.606 15177.06 1041.999)
(-558.1231 15907.18 3248.616)
(-605.711 16703.34 5620.094)
(-661.1169 17576.37 8190.471)
(-726.743 18540.51 10177.5)
(-1105.935 26895.75 14218.6)
(-1242.261 28546.93 14131.94)
(-1415.774 30436.06 15385.49)
(-1641.109 32642.75 16827.66)
(-1937.362 35295.61 27044.62)
(-1119.47 19688.99 21262.63)
(-1152.02 23331.86 27630.85)
(-522.6713 28630.2 36913.75)
(-424.5978 10088.38 993.5698)
(-456.604 10556.09 3093.686)
(-492.7586 11059.96 5344.63)
(-534.1445 11605.38 7775.712)
(-582.2567 12199.26 9641.559)
(-877.0126 17625.28 13438.73)
(-972.8168 18618.36 13321.98)
(-1091.537 19731.79 14451.01)
(-1241.897 20999.8 15725.32)
(-1435.235 22475.67 25091.48)
(-815.0445 12011.02 19400.53)
(-880.683 12653.81 24129.87)
(-843.2187 13006.91 29708.79)
(-352.2523 12253.69 36566.56)
(-363.1977 5873.954 923.8168)
(-389.0664 6137.919 2872.819)
(-417.9448 6419.827 4956.037)
(-450.5379 6722.129 7198.675)
(-487.814 7047.902 8909.163)
(-728.7844 10152.38 12356.14)
(-800.4309 10687.25 12141.87)
(-887.3236 11278.07 13054.15)
(-994.7917 11938.73 14070.32)
(-1130.356 12689.64 22194.65)
(-630.6234 6607.858 16746.67)
(-680.562 6508.213 19943.54)
(-712.3892 6090.706 23199.13)
(-643.4473 5169.252 26947.49)
(-253.7623 3440.317 21029.63)
(-322.4049 2951.107 864.1559)
(-344.233 3080.238 2684.39)
(-368.3732 3217.36 4625.578)
(-395.3069 3363.503 6709.856)
(-425.6877 3519.887 8291.692)
(-631.7904 5059.388 11452.24)
(-688.4219 5312.556 11170.93)
(-755.8393 5589.237 11921.56)
(-837.5509 5894.574 12749.46)
(-938.476 6235.811 19927.59)
(-515.624 3205.475 14764.87)
(-550.8179 3067.276 17093.96)
(-585.3232 2770.372 19284.27)
(-597.5984 2279.038 21703.89)
(-513.7512 1557.047 16656.47)
(-1741.577 8169.246 57986.49)
(-295.188 875.8335 818.6563)
(-314.2878 913.2429 2540.854)
(-335.2446 952.8053 4374.263)
(-358.4127 994.7796 6338.797)
(-384.2525 1039.476 7823.857)
(-567.2686 1491.557 10777.73)
(-614.1602 1563.097 10466.76)
(-669.0991 1640.636 11119.66)
(-734.491 1725.354 11834.41)
(-813.7225 1818.835 18392.76)
(-441.1174 928.9087 13488.62)
(-465.2825 878.6293 15383.9)
(-491.7481 783.343 17091.53)
(-515.0815 637.789 18930.85)
(-513.0561 438.824 14305.63)
(-3732.233 2421.447 49715.93)
(-1586.214 1816.459 32081.48)
(-729.8603 -15014.68 2210.107)
(-1650.195 -21636.36 2073.068)
(-840.8794 -24458.6 6828.607)
(-1727.287 -27868.71 1900.088)
(-1952.32 -30976.73 6210.176)
(-1009.629 -34941.75 11413.43)
(-1685.857 -29062.92 1603.687)
(-2037.894 -31747.3 5171.484)
(-2350.87 -35283.37 9370.287)