/*--------------------------------*- C++ -*----------------------------------*\
| =========                 |                                                 |
| \\      /  F ield         | OpenFOAM: The Open Source CFD Toolbox           |
|  \\    /   O peration     | Version:  2306                                  |
|   \\  /    A nd           | Website:  www.openfoam.com                      |
|    \\/     M anipulation  |                                                 |
\*---------------------------------------------------------------------------*/
FoamFile
{
    version     2.0;
    format      ascii;
    arch        "LSB;label=32;scalar=64";
    class       volScalarField;
    location    "0.6/phiEA";
    object      phi;
}
// * * * * * * * * * * * * * * * * * * * * * * * * * * * * * * * * * * * * * //

dimensions      [1 2 -3 0 0 -1 0];

internalField   nonuniform List<scalar> 
20000
(
-0.005079785
-0.005220835
-0.004717375
-0.005074987
-0.005533311
-0.004841245
-0.005215953
-0.004346109
-0.004713007
-0.005065595
-0.006078817
-0.005116248
-0.005528259
-0.004457015
-0.00483681
-0.005206396
-0.004022845
-0.004342116
-0.004704446
-0.005051755
-0.006931282
-0.005597776
-0.00607354
-0.004703525
-0.00511168
-0.005518369
-0.004124066
-0.004452966
-0.004828119
-0.005192311
-0.003746874
-0.004019156
-0.004334283
-0.004691818
-0.005033556
-0.008074758
-0.006352612
-0.006925894
-0.005135848
-0.005593038
-0.006063208
-0.004349211
-0.004699362
-0.005102726
-0.00550379
-0.003840446
-0.004120327
-0.00444502
-0.004815296
-0.005173788
-0.003509236
-0.003743437
-0.004011911
-0.004322718
-0.004675201
-0.005014086
-0.009200102
-0.007367566
-0.008069717
-0.005814626
-0.006347817
-0.006915348
-0.004744448
-0.005131541
-0.005583746
-0.006047976
-0.004048682
-0.004345371
-0.004691191
-0.005089512
-0.005484615
-0.003596473
-0.003836963
-0.004112982
-0.004433287
-0.004798421
-0.005153971
-0.003301849
-0.003506015
-0.003736682
-0.004001207
-0.004307489
-0.004657416
-0.004997448
-0.01011801
-0.008367038
-0.009195256
-0.006728346
-0.007363137
-0.00805988
-0.00536559
-0.005810282
-0.006338417
-0.006899806
-0.004414483
-0.004740481
-0.005123086
-0.005570031
-0.006027938
-0.003790689
-0.004045109
-0.004337827
-0.004679124
-0.005072119
-0.005464097
-0.003383674
-0.003593211
-0.003830118
-0.004102129
-0.004417838
-0.004780359
-0.005136992
-0.003118339
-0.003298817
-0.00349968
-0.003726695
-0.003987104
-0.004291183
-0.004642221
-0.004980592
-0.01075086
-0.009182424
-0.01011322
-0.007628197
-0.008362828
-0.009185818
-0.006202291
-0.00672435
-0.007354475
-0.008045416
-0.004989742
-0.005361598
-0.005801758
-0.006324546
-0.006879364
-0.004132031
-0.004410795
-0.004732686
-0.005110595
-0.005551974
-0.006006493
-0.003565896
-0.003787342
-0.004038082
-0.004326676
-0.00466323
-0.0050535
-0.005446427
-0.003195434
-0.003380604
-0.003586793
-0.003819996
-0.004087829
-0.004401293
-0.004764886
-0.005119747
-0.00295401
-0.003115475
-0.003292851
-0.003490309
-0.003713531
-0.003971998
-0.004277254
-0.004626829
-0.004963519
-0.01107139
-0.009744635
-0.01074608
-0.008362156
-0.009178298
-0.01010391
-0.007026329
-0.007624414
-0.00835461
-0.009171963
-0.005764999
-0.006198626
-0.006716525
-0.007341719
-0.008026429
-0.004669093
-0.004986034
-0.005353752
-0.005789166
-0.006306285
-0.006857487
-0.003886288
-0.00412858
-0.004403542
-0.004721162
-0.005094139
-0.00553264
-0.00598792
-0.003367166
-0.003562748
-0.003780758
-0.00402769
-0.004311982
-0.004646208
-0.005037468
-0.005428393
-0.003026904
-0.003192534
-0.00337456
-0.003577298
-0.003806653
-0.004072511
-0.004387124
-0.004749173
-0.005102237
-0.002805377
-0.002951297
-0.003109836
-0.003284019
-0.003477952
-0.003699425
-0.003959096
-0.004263149
-0.004611242
-0.00494623
-0.01107139
-0.01002941
-0.01106661
-0.008868099
-0.009740535
-0.01073678
-0.007698363
-0.008358457
-0.009170248
-0.01009025
-0.006528565
-0.007022864
-0.007617015
-0.008342523
-0.009153797
-0.005393127
-0.0057616
-0.006191438
-0.006704989
-0.007324956
-0.008006139
-0.004390579
-0.004665626
-0.004978743
-0.005342155
-0.005772577
-0.006286732
-0.006838569
-0.00366921
-0.003883043
-0.004121789
-0.004392812
-0.00470597
-0.00507651
-0.005515895
-0.005968861
-0.003189312
-0.003364194
-0.00355655
-0.003771015
-0.004013989
-0.004296238
-0.004631555
-0.005021107
-0.005409995
-0.002874493
-0.003024157
-0.003186823
-0.003365614
-0.003564775
-0.003792354
-0.004059393
-0.004372739
-0.004733221
-0.005084462
-0.002669827
-0.002802801
-0.002945953
-0.003101485
-0.003272369
-0.003464705
-0.003687379
-0.003946032
-0.004248867
-0.004595459
-0.004762431
-0.01075086
-0.01002941
-0.01106661
-0.009124329
-0.01002532
-0.01105731
-0.008161549
-0.00886443
-0.009732537
-0.01072315
-0.007151245
-0.007694981
-0.008351229
-0.009158417
-0.01007234
-0.006106287
-0.006525356
-0.007016081
-0.007606121
-0.008326657
-0.009134401
-0.005070622
-0.005389952
-0.005754928
-0.006180833
-0.006689816
-0.007307032
-0.007989071
-0.004144771
-0.004387321
-0.004658804
-0.004967958
-0.005326868
-0.005754806
-0.006269815
-0.006819181
-0.003475034
-0.003666148
-0.003876653
-0.004111736
-0.004378661
-0.00468969
-0.005061245
-0.005498708
-0.005949313
-0.003028513
-0.003186497
-0.003358338
-0.003547374
-0.003758163
-0.003999303
-0.004282687
-0.004616604
-0.005004416
-0.005391233
-0.002735516
-0.002871886
-0.003018745
-0.003178365
-0.003353811
-0.003551352
-0.003780111
-0.004046079
-0.004358137
-0.00471703
-0.004895055
-0.002545365
-0.002667377
-0.002797724
-0.002938035
-0.003090465
-0.003259877
-0.003453395
-0.003675184
-0.003932808
-0.00423441
-0.004427704
-0.004391654
-0.01011801
-0.009744635
-0.01074608
-0.009124329
-0.01002532
-0.01105731
-0.008396099
-0.009120668
-0.01001733
-0.01104368
-0.007580379
-0.008158195
-0.00885726
-0.009720786
-0.01070529
-0.006687846
-0.007148114
-0.007688361
-0.008340592
-0.009142894
-0.01005323
-0.00574049
-0.006103292
-0.006519067
-0.007006082
-0.007591808
-0.008309705
-0.009118391
-0.004786214
-0.005067641
-0.005383716
-0.005745077
-0.006166874
-0.006673583
-0.007291943
-0.007972047
-0.003925012
-0.004141698
-0.004380907
-0.004648708
-0.004953734
-0.005310485
-0.005739433
-0.006252469
-0.006799318
-0.003299541
-0.003472135
-0.003660114
-0.00386719
-0.004098472
-0.004363491
-0.004675595
-0.005045581
-0.005481078
-0.005929275
-0.002881919
-0.003025842
-0.00318095
-0.003349666
-0.003535265
-0.003744384
-0.003986666
-0.004268865
-0.004601356
-0.004987396
-0.00519041
-0.002607918
-0.002733035
-0.002866745
-0.003010727
-0.003167202
-0.003341154
-0.00353986
-0.003767686
-0.004032567
-0.004343321
-0.004544528
-0.004508805
-0.002430435
-0.00254303
-0.002662544
-0.0027902
-0.002927583
-0.003078646
-0.003249211
-0.003441945
-0.00366284
-0.003919424
-0.004080773
-0.004089498
-0.004002616
-0.009200102
-0.009182424
-0.01011322
-0.008868099
-0.009740535
-0.01073678
-0.008396099
-0.009120668
-0.01001733
-0.01104368
-0.007797673
-0.008392754
-0.009113515
-0.0100056
-0.01102581
-0.007088625
-0.007577276
-0.008151634
-0.008846709
-0.009705369
-0.01068623
-0.006286743
-0.006684926
-0.007141981
-0.00767861
-0.008326621
-0.009126313
-0.01003758
-0.005418093
-0.00573768
-0.006097417
-0.006509788
-0.006992936
-0.007576506
-0.008295704
-0.00910273
-0.004532061
-0.004783404
-0.005061782
-0.005374501
-0.005732103
-0.006151935
-0.006659916
-0.007276881
-0.007955071
-0.003726469
-0.003922104
-0.004135644
-0.004371409
-0.004635386
-0.004938484
-0.005296313
-0.00572367
-0.006234688
-0.006778974
-0.003139594
-0.00329679
-0.003466421
-0.003651174
-0.003854699
-0.004084248
-0.004350359
-0.004661135
-0.005029518
-0.005463006
-0.005713724
-0.002747352
-0.002879378
-0.003020574
-0.00317273
-0.003338217
-0.003522278
-0.003732528
-0.003973777
-0.00425477
-0.004585812
-0.004805242
-0.004772033
-0.002490102
-0.002605554
-0.002728143
-0.002859126
-0.003000141
-0.003155229
-0.00333032
-0.003528198
-0.003755079
-0.004018858
-0.004185499
-0.004192943
-0.004099687
-0.002323814
-0.002428206
-0.002538423
-0.002655381
-0.002780264
-0.00291637
-0.003068555
-0.003238416
-0.003430357
-0.003650348
-0.00377721
-0.003771304
-0.003734766
-0.003598475
-0.008074758
-0.008367038
-0.009195256
-0.008362156
-0.009178298
-0.01010391
-0.008161549
-0.00886443
-0.009732537
-0.01072315
-0.007797673
-0.008392754
-0.009113515
-0.0100056
-0.01102581
-0.007291554
-0.007794579
-0.008386211
-0.009102991
-0.009990212
-0.01100675
-0.006663182
-0.007085731
-0.007571199
-0.008141969
-0.008832855
-0.009688905
-0.01067067
-0.005933369
-0.006284003
-0.006679199
-0.007132938
-0.007665792
-0.00831169
-0.009112734
-0.01002241
-0.005130088
-0.005415445
-0.005732162
-0.006088744
-0.006497581
-0.006978874
-0.007563867
-0.008282001
-0.009087421
-0.004302514
-0.004529403
-0.004777877
-0.005053118
-0.00536236
-0.005718212
-0.006139356
-0.006646274
-0.00726185
-0.007938143
-0.003545565
-0.003723711
-0.003916373
-0.004126675
-0.004358872
-0.004621099
-0.004925295
-0.005281785
-0.005707515
-0.00621647
-0.006560263
-0.002992803
-0.003136979
-0.003291365
-0.00345795
-0.00363937
-0.003841301
-0.004071936
-0.004336888
-0.004646308
-0.005013054
-0.005268574
-0.005252145
-0.002623121
-0.002744931
-0.002874366
-0.003012765
-0.003161876
-0.003325936
-0.003511105
-0.003720436
-0.003960635
-0.004240404
-0.00441948
-0.004425865
-0.004319509
-0.002380812
-0.002487846
-0.00260089
-0.002720889
-0.002849064
-0.002988784
-0.003144981
-0.003319326
-0.003516366
-0.00374229
-0.003872858
-0.003864129
-0.003820662
-0.003671376
-0.002224511
-0.002321684
-0.002423807
-0.00253159
-0.002645917
-0.002769602
-0.002906797
-0.003058341
-0.00322749
-0.003418631
-0.003517633
-0.003490951
-0.003446924
-0.003366323
-0.003183042
-0.006931282
-0.007367566
-0.008069717
-0.007628197
-0.008362828
-0.009185818
-0.007698363
-0.008358457
-0.009170248
-0.01009025
-0.007580379
-0.008158195
-0.00885726
-0.009720786
-0.01070529
-0.007291554
-0.007794579
-0.008386211
-0.009102991
-0.009990212
-0.01100675
-0.006853784
-0.007288669
-0.007788519
-0.008376573
-0.009089171
-0.009973778
-0.0109912
-0.006288457
-0.006660468
-0.007080059
-0.00756224
-0.008129267
-0.00881805
-0.009675462
-0.01065563
-0.005617762
-0.005930788
-0.006278628
-0.006670751
-0.007121044
-0.007652086
-0.008299461
-0.009099561
-0.01000771
-0.004870021
-0.005127584
-0.005410243
-0.005724013
-0.006077327
-0.006484518
-0.006967259
-0.007551495
-0.008268597
-0.009072463
-0.004093407
-0.004299993
-0.004524173
-0.0047697
-0.005041699
-0.005349355
-0.005706517
-0.006126801
-0.006632658
-0.007246851
-0.007760932
-0.003379577
-0.003542943
-0.003718272
-0.003907879
-0.004114832
-0.004345422
-0.004608743
-0.004911775
-0.005266896
-0.005690963
-0.006020515
-0.006087874
-0.002857312
-0.002990311
-0.003131817
-0.00328332
-0.003446763
-0.003626704
-0.003829705
-0.004059308
-0.004323077
-0.004631114
-0.004835956
-0.004852031
-0.004734309
-0.002507894
-0.002620811
-0.002740154
-0.002866933
-0.00300245
-0.003150229
-0.00331537
-0.003499711
-0.003708109
-0.003947242
-0.004086705
-0.004073373
-0.004015578
-0.003836275
-0.002279031
-0.002378656
-0.002483394
-0.002593973
-0.002711307
-0.002838267
-0.002979063
-0.003134582
-0.003308173
-0.003504364
-0.003606097
-0.003575777
-0.003524068
-0.003430967
-0.00322873
-0.002131718
-0.002222473
-0.002317479
-0.002417282
-0.002522563
-0.002635761
-0.0027605
-0.002897108
-0.003048005
-0.003216435
-0.003294063
-0.003250632
-0.003191056
-0.003110149
-0.002987575
-0.002908462
-0.006078817
-0.006352612
-0.006925894
-0.006728346
-0.007363137
-0.00805988
-0.007026329
-0.007624414
-0.00835461
-0.009171963
-0.007151245
-0.007694981
-0.008351229
-0.009158417
-0.01007234
-0.007088625
-0.007577276
-0.008151634
-0.008846709
-0.009705369
-0.01068623
-0.006853784
-0.007288669
-0.007788519
-0.008376573
-0.009089171
-0.009973778
-0.0109912
-0.006468246
-0.006851079
-0.007283014
-0.007779587
-0.008363907
-0.009074403
-0.009960372
-0.01097619
-0.005953827
-0.006285901
-0.006655145
-0.007071691
-0.007550458
-0.008115687
-0.008805961
-0.009662461
-0.0106411
-0.005332812
-0.005615323
-0.005925721
-0.006270691
-0.006659632
-0.00710832
-0.007640861
-0.008287596
-0.009086792
-0.00999348
-0.00463315
-0.004867648
-0.005122663
-0.005402554
-0.00571328
-0.006065106
-0.006473728
-0.00695589
-0.007539391
-0.008255492
-0.008919131
-0.003901573
-0.004091012
-0.004295031
-0.004516432
-0.004758918
-0.005029462
-0.005338406
-0.005694843
-0.00611427
-0.00661907
-0.007089709
-0.007431256
-0.003226398
-0.00337708
-0.003537771
-0.003710207
-0.003896658
-0.004102124
-0.004333791
-0.004596078
-0.00489792
-0.005251644
-0.005512947
-0.005596457
-0.005535046
-0.002731666
-0.002854935
-0.002985393
-0.003124162
-0.003272692
-0.003434756
-0.003615743
-0.003817811
-0.004046363
-0.004308926
-0.004467704
-0.00445684
-0.004384558
-0.004155281
-0.002400599
-0.002505687
-0.00261625
-0.002733066
-0.002857112
-0.00299138
-0.003140209
-0.003304595
-0.003488096
-0.003695548
-0.003803975
-0.003767122
-0.003699317
-0.003577461
-0.003328797
-0.002183927
-0.002276968
-0.0023744
-0.002476788
-0.002584833
-0.002701023
-0.002829025
-0.002969199
-0.003124032
-0.00329686
-0.003376568
-0.003329116
-0.003261587
-0.003168255
-0.003028211
-0.002935564
-0.002044752
-0.002129766
-0.002218449
-0.002311239
-0.002408658
-0.002512873
-0.002627091
-0.002751289
-0.002887303
-0.003037548
-0.003099001
-0.003043543
-0.00297102
-0.002879819
-0.002764036
-0.002737192
-0.002756344
-0.005533311
-0.005597776
-0.00607354
-0.005814626
-0.006347817
-0.006915348
-0.006202291
-0.00672435
-0.007354475
-0.008045416
-0.006528565
-0.007022864
-0.007617015
-0.008342523
-0.009153797
-0.006687846
-0.007148114
-0.007688361
-0.008340592
-0.009142894
-0.01005323
-0.006663182
-0.007085731
-0.007571199
-0.008141969
-0.008832855
-0.009688905
-0.01067067
-0.006468246
-0.006851079
-0.007283014
-0.007779587
-0.008363907
-0.009074403
-0.009960372
-0.01097619
-0.006123985
-0.006465698
-0.006845772
-0.007274672
-0.007767841
-0.008350365
-0.009062356
-0.009947419
-0.0109617
-0.005651731
-0.005951412
-0.006280883
-0.006647285
-0.00706068
-0.007537856
-0.008104598
-0.00879427
-0.009649903
-0.01062709
-0.005073305
-0.005330501
-0.005610531
-0.005918235
-0.006260242
-0.006647733
-0.007097899
-0.00762997
-0.008276095
-0.009074431
-0.009849078
-0.004415872
-0.004630896
-0.004862981
-0.005115387
-0.005392424
-0.005701786
-0.006055011
-0.006463166
-0.006944767
-0.007527558
-0.008121069
-0.008664867
-0.003724573
-0.003899293
-0.004086294
-0.004287684
-0.00450622
-0.004747361
-0.00501916
-0.005327477
-0.005683192
-0.006101764
-0.006476704
-0.006796352
-0.007120159
-0.003084373
-0.003224016
-0.003372151
-0.003530098
-0.003699551
-0.003884616
-0.004091135
-0.004321869
-0.004583101
-0.004883729
-0.005087623
-0.005127857
-0.005099487
-0.004857416
-0.002614685
-0.002729395
-0.002850241
-0.002978095
-0.003114044
-0.003261282
-0.003424365
-0.003604501
-0.00380562
-0.004033099
-0.004156752
-0.004118128
-0.004031626
-0.003861738
-0.003515423
-0.002300353
-0.002398487
-0.002501328
-0.002609483
-0.0027237
-0.002846569
-0.002981857
-0.003129993
-0.003293613
-0.00347626
-0.003561186
-0.003506238
-0.00342192
-0.003300069
-0.003117329
-0.002990154
-0.002094799
-0.002181952
-0.002272895
-0.002368084
-0.002468057
-0.002575021
-0.00269222
-0.002819649
-0.002959193
-0.003113332
-0.00317641
-0.003116762
-0.003036298
-0.002932968
-0.002800604
-0.002761406
-0.002774508
-0.001963039
-0.00204288
-0.002125911
-0.002212475
-0.00230299
-0.002399399
-0.0025046
-0.002618317
-0.002741968
-0.002877384
-0.002926465
-0.002862896
-0.002781266
-0.002680914
-0.002560028
-0.002535239
-0.002597722
-0.002587647
-0.005220835
-0.005116248
-0.005528259
-0.005135848
-0.005593038
-0.006063208
-0.00536559
-0.005810282
-0.006338417
-0.006899806
-0.005764999
-0.006198626
-0.006716525
-0.007341719
-0.008026429
-0.006106287
-0.006525356
-0.007016081
-0.007606121
-0.008326657
-0.009134401
-0.006286743
-0.006684926
-0.007141981
-0.00767861
-0.008326621
-0.009126313
-0.01003758
-0.006288457
-0.006660468
-0.007080059
-0.00756224
-0.008129267
-0.00881805
-0.009675462
-0.01065563
-0.006123985
-0.006465698
-0.006845772
-0.007274672
-0.007767841
-0.008350365
-0.009062356
-0.009947419
-0.0109617
-0.005813205
-0.006121577
-0.006460697
-0.006837937
-0.007263695
-0.007755276
-0.008339317
-0.009050716
-0.00993492
-0.01094774
-0.005376625
-0.005649442
-0.005946667
-0.006273471
-0.006636939
-0.007048897
-0.007527565
-0.008093873
-0.008782976
-0.009637788
-0.0104854
-0.004835283
-0.00507111
-0.005325957
-0.005603447
-0.005908375
-0.006249054
-0.006637987
-0.007087787
-0.007619412
-0.00826496
-0.008948907
-0.009622448
-0.00421542
-0.004413726
-0.004626459
-0.004856077
-0.005105795
-0.005381572
-0.005692292
-0.006045129
-0.006452833
-0.006933891
-0.007406158
-0.007897455
-0.008455996
-0.003560487
-0.003722399
-0.003894799
-0.004079306
-0.004277989
-0.004495272
-0.004737631
-0.005008878
-0.00531657
-0.005671564
-0.005970743
-0.006210849
-0.006518723
-0.006849908
-0.002952166
-0.003082098
-0.003219313
-0.003364838
-0.003519957
-0.003688111
-0.003874202
-0.004079871
-0.004309654
-0.004569808
-0.004731126
-0.004732982
-0.004676732
-0.004489807
-0.003973916
-0.002505406
-0.002612513
-0.002724908
-0.002843274
-0.002968447
-0.003103182
-0.003251409
-0.003413708
-0.003592978
-0.00379313
-0.003890481
-0.003831369
-0.003726254
-0.003556289
-0.00328393
-0.003071482
-0.002206415
-0.002298331
-0.002394315
-0.002494858
-0.002600536
-0.002713643
-0.0028375
-0.002972146
-0.003119579
-0.003282422
-0.003349673
-0.00328206
-0.003184761
-0.003053615
-0.002880866
-0.00281021
-0.00280892
-0.00201106
-0.002092906
-0.002178049
-0.002266848
-0.002359733
-0.002458682
-0.002566623
-0.002683289
-0.002810137
-0.002949046
-0.002999416
-0.002931608
-0.00284218
-0.002730121
-0.002593498
-0.002557066
-0.002613977
-0.002598811
-0.001886088
-0.001961244
-0.002039183
-0.002120186
-0.002204576
-0.002294132
-0.002391495
-0.002496228
-0.002609438
-0.002732537
-0.002772021
-0.002703178
-0.002615764
-0.002509204
-0.002382892
-0.002348655
-0.002407659
-0.002442313
-0.00240924
-0.005079785
-0.004841245
-0.005215953
-0.004703525
-0.00511168
-0.005518369
-0.004744448
-0.005131541
-0.005583746
-0.006047976
-0.004989742
-0.005361598
-0.005801758
-0.006324546
-0.006879364
-0.005393127
-0.0057616
-0.006191438
-0.006704989
-0.007324956
-0.008006139
-0.00574049
-0.006103292
-0.006519067
-0.007006082
-0.007591808
-0.008309705
-0.009118391
-0.005933369
-0.006284003
-0.006679199
-0.007132938
-0.007665792
-0.00831169
-0.009112734
-0.01002241
-0.005953827
-0.006285901
-0.006655145
-0.007071691
-0.007550458
-0.008115687
-0.008805961
-0.009662461
-0.0106411
-0.005813205
-0.006121577
-0.006460697
-0.006837937
-0.007263695
-0.007755276
-0.008339317
-0.009050716
-0.00993492
-0.01094774
-0.005530201
-0.005810924
-0.006116847
-0.006453309
-0.006827624
-0.007251949
-0.007745026
-0.008328643
-0.009039484
-0.009922875
-0.01080672
-0.005124308
-0.005374451
-0.005644943
-0.005939655
-0.006263709
-0.006625862
-0.007039275
-0.007517612
-0.008083513
-0.00877208
-0.009515233
-0.01026748
-0.00461571
-0.004833194
-0.005066791
-0.005319237
-0.005594113
-0.005897815
-0.006239891
-0.00662853
-0.007077986
-0.00760919
-0.008151885
-0.008751492
-0.009447219
-0.004029611
-0.004213374
-0.004409502
-0.004619894
-0.004846972
-0.005095518
-0.005372608
-0.005682998
-0.00603546
-0.006442729
-0.006822316
-0.007204105
-0.007713254
-0.008303451
-0.003407762
-0.00355841
-0.003718112
-0.003888141
-0.004070081
-0.004267591
-0.004486055
-0.004727919
-0.004998615
-0.005305685
-0.005549747
-0.005726091
-0.00595919
-0.00627698
-0.006666807
-0.002828679
-0.00294999
-0.003077605
-0.003212333
-0.003355171
-0.003509067
-0.003678218
-0.003863528
-0.00406833
-0.004297142
-0.004426882
-0.004401292
-0.004317718
-0.00412353
-0.003694669
-0.003167554
-0.002403015
-0.002503326
-0.00260822
-0.002718248
-0.002834061
-0.002958087
-0.003093781
-0.003241283
-0.003402786
-0.003581173
-0.003658832
-0.003585633
-0.003466753
-0.003288365
-0.003031129
-0.002882987
-0.002853728
-0.002118163
-0.002204476
-0.002294335
-0.002388122
-0.002486302
-0.002590929
-0.002704992
-0.002828253
-0.002962249
-0.003108969
-0.00316274
-0.003086773
-0.002980764
-0.002841866
-0.002666997
-0.002601081
-0.002644782
-0.002618931
-0.001932203
-0.002009243
-0.002089163
-0.002172255
-0.002258852
-0.002350765
-0.002450659
-0.002558103
-0.00267423
-0.002800491
-0.002841011
-0.002767944
-0.002672939
-0.002555131
-0.002413893
-0.002368651
-0.002422318
-0.00245231
-0.002415623
-0.001813474
-0.001884363
-0.001957695
-0.002033691
-0.002112614
-0.002196093
-0.002286571
-0.002383497
-0.002487758
-0.002600455
-0.002632374
-0.002560268
-0.002469501
-0.002359453
-0.002229758
-0.002185929
-0.002230863
-0.002265287
-0.002277223
-0.00222577
-0.004717375
-0.005074987
-0.004457015
-0.00483681
-0.005206396
-0.004349211
-0.004699362
-0.005102726
-0.00550379
-0.004414483
-0.004740481
-0.005123086
-0.005570031
-0.006027938
-0.004669093
-0.004986034
-0.005353752
-0.005789166
-0.006306285
-0.006857487
-0.005070622
-0.005389952
-0.005754928
-0.006180833
-0.006689816
-0.007307032
-0.007989071
-0.005418093
-0.00573768
-0.006097417
-0.006509788
-0.006992936
-0.007576506
-0.008295704
-0.00910273
-0.005617762
-0.005930788
-0.006278628
-0.006670751
-0.007121044
-0.007652086
-0.008299461
-0.009099561
-0.01000771
-0.005651731
-0.005951412
-0.006280883
-0.006647285
-0.00706068
-0.007537856
-0.008104598
-0.00879427
-0.009649903
-0.01062709
-0.005530201
-0.005810924
-0.006116847
-0.006453309
-0.006827624
-0.007251949
-0.007745026
-0.008328643
-0.009039484
-0.009922875
-0.01080672
-0.005270648
-0.005528034
-0.005806439
-0.006109858
-0.006443578
-0.006816583
-0.007242366
-0.007735122
-0.008318343
-0.009028659
-0.009801172
-0.01059115
-0.004891561
-0.00512224
-0.005370175
-0.00563829
-0.005930414
-0.006253255
-0.006616818
-0.007029969
-0.007507997
-0.008073517
-0.008661855
-0.009326471
-0.01010248
-0.004412192
-0.004613718
-0.004829081
-0.005060401
-0.005310378
-0.005584114
-0.005889165
-0.006231
-0.006619364
-0.007068496
-0.007505384
-0.007973984
-0.008598577
-0.009327101
-0.003856683
-0.004027658
-0.004209345
-0.004403247
-0.004611233
-0.004837214
-0.005087028
-0.005363833
-0.005673905
-0.006026007
-0.006339073
-0.006636593
-0.007037592
-0.007578418
-0.00822085
-0.003265127
-0.003405777
-0.003554315
-0.003711758
-0.003879349
-0.004060187
-0.004258838
-0.004476854
-0.004718227
-0.004988374
-0.005191645
-0.0053223
-0.005494526
-0.005740029
-0.006112897
-0.002712989
-0.002826596
-0.002945691
-0.003070933
-0.003203102
-0.003344788
-0.003499651
-0.003668079
-0.003852592
-0.00405651
-0.00416262
-0.004118039
-0.004015208
-0.003808709
-0.003402363
-0.002969064
-0.002893444
-0.002306831
-0.002401021
-0.002499214
-0.002601846
-0.002709439
-0.002824166
-0.002949122
-0.003084141
-0.003230905
-0.003391596
-0.003454251
-0.003371843
-0.003244122
-0.003059444
-0.002804719
-0.002666766
-0.002684914
-0.002642753
-0.002035062
-0.002116303
-0.002200645
-0.0022884
-0.002379931
-0.002477113
-0.002582665
-0.002696171
-0.002818828
-0.002952165
-0.002995494
-0.002914232
-0.002803051
-0.002659462
-0.002481991
-0.002408985
-0.002450108
-0.002470332
-0.002426726
-0.001857793
-0.001930458
-0.002005651
-0.002083605
-0.002164591
-0.002250264
-0.00234309
-0.002442519
-0.00254946
-0.002665043
-0.002697799
-0.002621527
-0.002523401
-0.002402569
-0.002258702
-0.002204461
-0.002244296
-0.002274303
-0.002282934
-0.002229043
-0.001744829
-0.001811817
-0.001880954
-0.001952423
-0.002026427
-0.002104481
-0.002188851
-0.002278919
-0.002375403
-0.002479188
-0.002505053
-0.002431098
-0.002338692
-0.002227175
-0.002096216
-0.002045088
-0.002076272
-0.002099417
-0.002113787
-0.002106735
-0.002040216
-0.004346109
-0.004713007
-0.005065595
-0.004124066
-0.004452966
-0.004828119
-0.005192311
-0.004048682
-0.004345371
-0.004691191
-0.005089512
-0.005484615
-0.004132031
-0.004410795
-0.004732686
-0.005110595
-0.005551974
-0.006006493
-0.004390579
-0.004665626
-0.004978743
-0.005342155
-0.005772577
-0.006286732
-0.006838569
-0.004786214
-0.005067641
-0.005383716
-0.005745077
-0.006166874
-0.006673583
-0.007291943
-0.007972047
-0.005130088
-0.005415445
-0.005732162
-0.006088744
-0.006497581
-0.006978874
-0.007563867
-0.008282001
-0.009087421
-0.005332812
-0.005615323
-0.005925721
-0.006270691
-0.006659632
-0.00710832
-0.007640861
-0.008287596
-0.009086792
-0.00999348
-0.005376625
-0.005649442
-0.005946667
-0.006273471
-0.006636939
-0.007048897
-0.007527565
-0.008093873
-0.008782976
-0.009637788
-0.0104854
-0.005270648
-0.005528034
-0.005806439
-0.006109858
-0.006443578
-0.006816583
-0.007242366
-0.007735122
-0.008318343
-0.009028659
-0.009801172
-0.01059115
-0.00503123
-0.005268586
-0.005523773
-0.005799809
-0.006100648
-0.006433158
-0.006807575
-0.007233107
-0.007725564
-0.008308416
-0.00891928
-0.009614907
-0.01042892
-0.00467584
-0.004889589
-0.005118169
-0.00536385
-0.005629521
-0.005920516
-0.006244719
-0.00660807
-0.00702098
-0.007498721
-0.0079724
-0.008492046
-0.009183385
-0.00999156
-0.004222793
-0.00441029
-0.004609797
-0.004822995
-0.005051975
-0.005300885
-0.005575923
-0.005880772
-0.006222382
-0.006610488
-0.006972119
-0.007342045
-0.007836141
-0.008493606
-0.009265788
-0.003695192
-0.003854816
-0.004023809
-0.004203377
-0.004394994
-0.004601949
-0.004829153
-0.005078717
-0.005355248
-0.005665014
-0.005929021
-0.00616652
-0.006483521
-0.00691566
-0.007505282
-0.003131508
-0.003263227
-0.00340186
-0.003548243
-0.003703365
-0.003869916
-0.004051857
-0.004250101
-0.004467672
-0.004708554
-0.004881078
-0.004978733
-0.005107042
-0.005292887
-0.005591262
-0.002604323
-0.002710993
-0.002822479
-0.002939307
-0.003062108
-0.003193187
-0.003335809
-0.00349
-0.003657692
-0.003841392
-0.003929425
-0.003871992
-0.003756611
-0.003542112
-0.003145409
-0.002744531
-0.002720507
-0.002660778
-0.002216269
-0.002304918
-0.002397079
-0.002493107
-0.002593413
-0.002699976
-0.002815603
-0.002939929
-0.003074261
-0.003220274
-0.003271296
-0.003183075
-0.003050401
-0.002862704
-0.00260967
-0.002469208
-0.002486331
-0.002491677
-0.002439087
-0.001956653
-0.002033276
-0.002112626
-0.002194953
-0.002280549
-0.002371131
-0.002469208
-0.002574239
-0.002687182
-0.002809226
-0.002844326
-0.002759916
-0.002646087
-0.002500537
-0.002322297
-0.00224185
-0.002269766
-0.00229056
-0.002292871
-0.002234601
-0.001787452
-0.001856116
-0.001927008
-0.002000316
-0.002076253
-0.002156357
-0.002242914
-0.002335303
-0.002434263
-0.002540696
-0.002567242
-0.002489199
-0.002389679
-0.002267827
-0.002123394
-0.002062398
-0.002088723
-0.002107678
-0.002118933
-0.002109646
-0.002041372
-0.001679817
-0.001743235
-0.00180854
-0.001875889
-0.001945448
-0.002018623
-0.002097539
-0.002181523
-0.002271177
-0.002367216
-0.002388171
-0.002313366
-0.002220508
-0.002108938
-0.001978323
-0.001922269
-0.001942365
-0.001953957
-0.001959504
-0.001957049
-0.001933642
-0.001854573
-0.004022845
-0.004342116
-0.004704446
-0.005051755
-0.003840446
-0.004120327
-0.00444502
-0.004815296
-0.005173788
-0.003790689
-0.004045109
-0.004337827
-0.004679124
-0.005072119
-0.005464097
-0.003886288
-0.00412858
-0.004403542
-0.004721162
-0.005094139
-0.00553264
-0.00598792
-0.004144771
-0.004387321
-0.004658804
-0.004967958
-0.005326868
-0.005754806
-0.006269815
-0.006819181
-0.004532061
-0.004783404
-0.005061782
-0.005374501
-0.005732103
-0.006151935
-0.006659916
-0.007276881
-0.007955071
-0.004870021
-0.005127584
-0.005410243
-0.005724013
-0.006077327
-0.006484518
-0.006967259
-0.007551495
-0.008268597
-0.009072463
-0.005073305
-0.005330501
-0.005610531
-0.005918235
-0.006260242
-0.006647733
-0.007097899
-0.00762997
-0.008276095
-0.009074431
-0.009849078
-0.005124308
-0.005374451
-0.005644943
-0.005939655
-0.006263709
-0.006625862
-0.007039275
-0.007517612
-0.008083513
-0.00877208
-0.009515233
-0.01026748
-0.00503123
-0.005268586
-0.005523773
-0.005799809
-0.006100648
-0.006433158
-0.006807575
-0.007233107
-0.007725564
-0.008308416
-0.00891928
-0.009614907
-0.01042892
-0.004809331
-0.005029264
-0.005264528
-0.005517469
-0.005791069
-0.006090782
-0.006424657
-0.006798872
-0.007224172
-0.007716354
-0.008208109
-0.008751854
-0.009474612
-0.01032045
-0.004475092
-0.004673957
-0.004885707
-0.005112144
-0.005355511
-0.005620125
-0.005912433
-0.006236462
-0.00659962
-0.007012307
-0.00740488
-0.007816609
-0.008363304
-0.009087113
-0.009935778
-0.004045928
-0.004220975
-0.004406544
-0.00460399
-0.004814966
-0.005042944
-0.005293109
-0.005567976
-0.005872637
-0.006214037
-0.006520352
-0.00682046
-0.007215471
-0.007741493
-0.008439973
-0.003543917
-0.003693405
-0.003851135
-0.004018106
-0.004195499
-0.004386144
-0.004594279
-0.004821262
-0.005070586
-0.005346853
-0.005573798
-0.005767564
-0.006024299
-0.006371425
-0.006849507
-0.003006013
-0.003129688
-0.003259476
-0.00339605
-0.00354022
-0.003694359
-0.003861975
-0.004043542
-0.00424138
-0.004458509
-0.004607217
-0.004680764
-0.004777245
-0.004919625
-0.005156034
-0.002502018
-0.002602408
-0.002707045
-0.002816363
-0.00293086
-0.003052628
-0.003184614
-0.003326608
-0.003480113
-0.003647053
-0.003720974
-0.003654898
-0.003531937
-0.003313825
-0.002925779
-0.002540552
-0.002518476
-0.002507833
-0.002447667
-0.002130828
-0.002214433
-0.002301135
-0.002391222
-0.002485026
-0.002584352
-0.002691787
-0.002806823
-0.002930506
-0.00306414
-0.003105978
-0.003014306
-0.00287939
-0.002691454
-0.002441583
-0.002297692
-0.002302975
-0.002309821
-0.002303937
-0.002240554
-0.001882535
-0.001954937
-0.002029744
-0.002107162
-0.002187422
-0.002272115
-0.002363562
-0.00246115
-0.002565652
-0.002678023
-0.00270654
-0.002620476
-0.002505753
-0.002360215
-0.002183122
-0.002097326
-0.002112335
-0.002122577
-0.002127889
-0.002114591
-0.00204328
-0.001720836
-0.00178584
-0.0018528
-0.001921881
-0.001993256
-0.002068353
-0.002149312
-0.002235457
-0.002327406
-0.00242589
-0.002447399
-0.002368599
-0.002268873
-0.002147397
-0.002003953
-0.001938529
-0.001953997
-0.001961616
-0.001964218
-0.001959662
-0.001934631
-0.001854016
-0.001618167
-0.001678283
-0.001740083
-0.00180367