/*--------------------------------*- C++ -*----------------------------------*\
| =========                 |                                                 |
| \\      /  F ield         | OpenFOAM: The Open Source CFD Toolbox           |
|  \\    /   O peration     | Version:  2306                                  |
|   \\  /    A nd           | Website:  www.openfoam.com                      |
|    \\/     M anipulation  |                                                 |
\*---------------------------------------------------------------------------*/
FoamFile
{
    version     2.0;
    format      ascii;
    arch        "LSB;label=32;scalar=64";
    class       volScalarField;
    location    "0.6/phiEA";
    object      T;
}
// * * * * * * * * * * * * * * * * * * * * * * * * * * * * * * * * * * * * * //

dimensions      [0 0 0 1 0 0 0];

internalField   nonuniform List<scalar> 
20000
(
1167.068
1166.921
1168.814
1167.079
1166.581
1168.802
1166.932
1170.408
1168.82
1167.096
1165.953
1168.774
1166.594
1170.434
1168.808
1166.949
1171.891
1170.41
1168.831
1167.117
1164.904
1168.716
1165.969
1170.491
1168.779
1166.613
1171.927
1170.436
1168.819
1166.972
1173.314
1171.89
1170.417
1168.847
1167.144
1163.373
1168.605
1164.926
1170.587
1168.72
1165.991
1172.008
1170.492
1168.79
1166.636
1173.352
1171.926
1170.442
1168.835
1166.999
1174.695
1173.31
1171.893
1170.428
1168.868
1167.176
1161.644
1168.413
1163.406
1170.732
1168.607
1164.953
1172.149
1170.586
1168.729
1166.018
1173.438
1172.005
1170.497
1168.805
1166.665
1174.732
1173.348
1171.928
1170.453
1168.856
1167.032
1176.037
1174.688
1173.309
1171.9
1170.444
1168.894
1167.209
1160.065
1168.131
1161.693
1170.907
1168.411
1163.445
1172.368
1170.727
1168.614
1164.987
1173.589
1172.144
1170.59
1168.743
1166.05
1174.817
1173.432
1172.007
1170.507
1168.825
1166.7
1176.074
1174.725
1173.347
1171.935
1170.468
1168.881
1167.065
1177.342
1176.029
1174.685
1173.313
1171.911
1170.464
1168.92
1167.242
1158.892
1167.815
1160.13
1171.044
1168.127
1161.747
1172.653
1170.896
1168.414
1163.489
1173.824
1172.359
1170.726
1168.625
1165.027
1174.965
1173.581
1172.144
1170.598
1168.762
1166.089
1176.154
1174.809
1173.431
1172.013
1170.521
1168.85
1166.736
1177.376
1176.065
1174.722
1173.35
1171.946
1170.488
1168.907
1167.1
1178.605
1177.331
1176.024
1174.686
1173.321
1171.927
1170.485
1168.946
1167.275
1158.272
1167.548
1158.968
1171.12
1167.814
1160.199
1172.921
1171.028
1168.129
1161.806
1174.138
1172.638
1170.889
1168.421
1163.539
1175.199
1173.813
1172.354
1170.73
1168.642
1165.072
1176.297
1174.956
1173.578
1172.147
1170.61
1168.786
1166.129
1177.453
1176.145
1174.805
1173.433
1172.022
1170.54
1168.876
1166.772
1178.638
1177.365
1176.059
1174.723
1173.358
1171.961
1170.509
1168.933
1167.134
1179.828
1178.594
1177.325
1176.022
1174.691
1173.333
1171.943
1170.506
1168.973
1167.309
1158.272
1167.395
1158.355
1171.151
1167.549
1159.049
1173.123
1171.102
1167.817
1160.273
1174.441
1172.9
1171.017
1168.136
1161.87
1175.511
1174.12
1172.627
1170.887
1168.434
1163.595
1176.522
1175.186
1173.806
1172.354
1170.738
1168.663
1165.119
1177.589
1176.286
1174.95
1173.578
1172.155
1170.627
1168.811
1166.17
1178.712
1177.442
1176.139
1174.805
1173.44
1172.037
1170.56
1168.901
1166.809
1179.859
1178.627
1177.358
1176.058
1174.727
1173.37
1171.977
1170.529
1168.96
1167.168
1181.008
1179.815
1178.586
1177.321
1176.025
1174.7
1173.345
1171.959
1170.527
1168.999
1167.473
1158.892
1167.395
1158.355
1171.159
1167.398
1158.441
1173.253
1171.132
1167.554
1159.134
1174.681
1173.1
1171.089
1167.825
1160.351
1175.817
1174.419
1172.884
1171.01
1168.147
1161.939
1176.824
1175.493
1174.107
1172.621
1170.889
1168.452
1163.651
1177.804
1176.508
1175.177
1173.803
1172.358
1170.751
1168.686
1165.167
1178.842
1177.577
1176.278
1174.948
1173.583
1172.168
1170.644
1168.835
1166.211
1179.93
1178.699
1177.434
1176.136
1174.808
1173.45
1172.052
1170.579
1168.927
1166.846
1181.038
1179.847
1178.618
1177.355
1176.06
1174.736
1173.382
1171.993
1170.55
1168.986
1167.338
1182.144
1180.994
1179.806
1178.581
1177.322
1176.031
1174.709
1173.358
1171.976
1170.548
1169.13
1167.787
1160.065
1167.548
1158.968
1171.159
1167.398
1158.441
1173.315
1171.14
1167.405
1158.532
1174.841
1173.228
1171.118
1167.565
1159.223
1176.063
1174.656
1173.081
1171.08
1167.838
1160.434
1177.121
1175.794
1174.401
1172.873
1171.008
1168.164
1162.009
1178.093
1176.805
1175.478
1174.099
1172.618
1170.896
1168.47
1163.707
1179.047
1177.789
1176.497
1175.171
1173.804
1172.366
1170.765
1168.708
1165.216
1180.054
1178.828
1177.568
1176.274
1174.95
1173.591
1172.18
1170.662
1168.86
1166.253
1181.105
1179.916
1178.69
1177.43
1176.137
1174.816
1173.461
1172.066
1170.599
1168.953
1167.027
1182.173
1181.024
1179.837
1178.613
1177.355
1176.066
1174.745
1173.393
1172.009
1170.57
1169.116
1167.667
1183.237
1182.13
1180.985
1179.801
1178.58
1177.326
1176.038
1174.718
1173.37
1171.992
1170.652
1169.367
1168.116
1161.644
1167.815
1160.13
1171.151
1167.549
1159.049
1173.315
1171.14
1167.405
1158.532
1174.92
1173.289
1171.126
1167.418
1158.627
1176.229
1174.814
1173.207
1171.109
1167.58
1159.317
1177.361
1176.037
1174.635
1173.066
1171.076
1167.856
1160.518
1178.379
1177.098
1175.776
1174.387
1172.866
1171.011
1168.181
1162.078
1179.324
1178.074
1176.79
1175.468
1174.094
1172.621
1170.904
1168.489
1163.764
1180.251
1179.031
1177.777
1176.49
1175.17
1173.809
1172.374
1170.778
1168.731
1165.265
1181.225
1180.04
1178.818
1177.562
1176.274
1174.956
1173.6
1172.193
1170.679
1168.885
1166.458
1182.238
1181.091
1179.906
1178.685
1177.429
1176.143
1174.824
1173.472
1172.081
1170.618
1169.081
1167.392
1183.265
1182.159
1181.014
1179.831
1178.612
1177.359
1176.072
1174.753
1173.405
1172.024
1170.672
1169.353
1168.017
1184.286
1183.223
1182.12
1180.978
1179.798
1178.582
1177.33
1176.044
1174.727
1173.383
1172.074
1170.837
1169.606
1168.459
1163.373
1168.131
1161.693
1171.12
1167.814
1160.199
1173.253
1171.132
1167.554
1159.134
1174.92
1173.289
1171.126
1167.418
1158.627
1176.312
1174.893
1173.268
1171.117
1167.434
1158.727
1177.525
1176.202
1174.792
1173.192
1171.105
1167.601
1159.411
1178.61
1177.336
1176.016
1174.619
1173.056
1171.077
1167.875
1160.6
1179.597
1178.356
1177.079
1175.761
1174.378
1172.863
1171.014
1168.198
1162.147
1180.516
1179.304
1178.058
1176.778
1175.462
1174.093
1172.623
1170.911
1168.507
1163.821
1181.414
1180.234
1179.019
1177.769
1176.487
1175.172
1173.814
1172.383
1170.792
1168.754
1165.504
1182.353
1181.21
1180.029
1178.811
1177.56
1176.277
1174.961
1173.609
1172.205
1170.697
1169.009
1166.883
1183.328
1182.224
1181.081
1179.9
1178.683
1177.432
1176.148
1174.831
1173.483
1172.096
1170.715
1169.318
1167.789
1184.313
1183.25
1182.148
1181.007
1179.828
1178.614
1177.363
1176.078
1174.762
1173.417
1172.104
1170.853
1169.593
1168.384
1185.291
1184.271
1183.212
1182.112
1180.974
1179.799
1178.585
1177.334
1176.05
1174.736
1173.446
1172.217
1171.019
1169.847
1168.811
1164.904
1168.413
1163.406
1171.044
1168.127
1161.747
1173.123
1171.102
1167.817
1160.273
1174.841
1173.228
1171.118
1167.565
1159.223
1176.312
1174.893
1173.268
1171.117
1167.434
1158.727
1177.607
1176.284
1174.87
1173.252
1171.112
1167.456
1158.827
1178.768
1177.498
1176.179
1174.774
1173.18
1171.105
1167.621
1159.504
1179.82
1178.586
1177.315
1175.999
1174.606
1173.051
1171.078
1167.893
1160.682
1180.779
1179.575
1178.337
1177.065
1175.751
1174.373
1172.86
1171.017
1168.215
1162.216
1181.669
1180.496
1179.288
1178.046
1176.771
1175.459
1174.093
1172.625
1170.919
1168.526
1164.095
1182.536
1181.397
1180.221
1179.01
1177.765
1176.488
1175.175
1173.819
1172.391
1170.805
1168.867
1166.003
1183.439
1182.338
1181.198
1180.021
1178.808
1177.562
1176.281
1174.967
1173.618
1172.217
1170.783
1169.243
1167.364
1184.374
1183.313
1182.212
1181.073
1179.896
1178.684
1177.435
1176.153
1174.839
1173.494
1172.169
1170.886
1169.561
1168.216
1185.318
1184.298
1183.239
1182.141
1181.003
1179.829
1178.616
1177.367
1176.084
1174.771
1173.478
1172.242
1171.03
1169.836
1168.764
1186.253
1185.277
1184.26
1183.204
1182.108
1180.974
1179.8
1178.587
1177.339
1176.057
1174.783
1173.554
1172.356
1171.199
1170.09
1169.012
1165.953
1168.605
1164.926
1170.907
1168.411
1163.445
1172.921
1171.028
1168.129
1161.806
1174.681
1173.1
1171.089
1167.825
1160.351
1176.229
1174.814
1173.207
1171.109
1167.58
1159.317
1177.607
1176.284
1174.87
1173.252
1171.112
1167.456
1158.827
1178.848
1177.58
1176.261
1174.851
1173.24
1171.112
1167.479
1158.925
1179.972
1178.742
1177.476
1176.161
1174.76
1173.173
1171.105
1167.642
1159.596
1180.993
1179.796
1178.565
1177.298
1175.986
1174.598
1173.045
1171.079
1167.912
1160.763
1181.922
1180.757
1179.556
1178.322
1177.054
1175.744
1174.368
1172.858
1171.02
1168.233
1162.542
1182.782
1181.649
1180.48
1179.276
1178.038
1176.767
1175.457
1174.092
1172.628
1170.926
1168.619
1164.603
1183.615
1182.518
1181.383
1180.211
1179.004
1177.763
1176.488
1175.177
1173.823
1172.4
1170.872
1169.089
1166.579
1184.482
1183.423
1182.326
1181.19
1180.016
1178.808
1177.563
1176.284
1174.973
1173.626
1172.279
1170.935
1169.49
1167.898
1185.377
1184.359
1183.301
1182.204
1181.069
1179.896
1178.685
1177.438
1176.158
1174.847
1173.549
1172.295
1171.053
1169.81
1168.663
1186.279
1185.303
1184.287
1183.231
1182.136
1181.003
1179.829
1178.618
1177.37
1176.09
1174.815
1173.581
1172.375
1171.206
1170.082
1168.982
1187.173
1186.239
1185.265
1184.252
1183.199
1182.106
1180.973
1179.8
1178.589
1177.343
1176.09
1174.863
1173.659
1172.493
1171.378
1170.227
1169.075
1166.581
1168.716
1165.969
1170.732
1168.607
1164.953
1172.653
1170.896
1168.414
1163.489
1174.441
1172.9
1171.017
1168.136
1161.87
1176.063
1174.656
1173.081
1171.08
1167.838
1160.434
1177.525
1176.202
1174.792
1173.192
1171.105
1167.601
1159.411
1178.848
1177.58
1176.261
1174.851
1173.24
1171.112
1167.479
1158.925
1180.049
1178.821
1177.557
1176.242
1174.837
1173.232
1171.113
1167.501
1159.023
1181.139
1179.947
1178.72
1177.457
1176.146
1174.75
1173.166
1171.105
1167.662
1159.687
1182.128
1180.969
1179.775
1178.547
1177.284
1175.977
1174.59
1173.04
1171.08
1167.93
1161.147
1183.026
1181.9
1180.738
1179.541
1178.311
1177.046
1175.738
1174.363
1172.856
1171.023
1168.318
1163.093
1183.853
1182.762
1181.633
1180.468
1179.267
1178.033
1176.764
1175.455
1174.092
1172.63
1170.964
1168.798
1165.121
1184.653
1183.598
1182.505
1181.373
1180.205
1179.002
1177.762
1176.488
1175.18
1173.828
1172.441
1170.993
1169.334
1167.258
1185.481
1184.466
1183.411
1182.316
1181.184
1180.015
1178.808
1177.564
1176.288
1174.979
1173.67
1172.383
1171.086
1169.752
1168.481
1186.336
1185.362
1184.347
1183.292
1182.199
1181.067
1179.896
1178.687
1177.441
1176.163
1174.886
1173.639
1172.415
1171.219
1170.063
1168.921
1187.198
1186.264
1185.291
1184.278
1183.226
1182.134
1181.002
1179.83
1178.62
1177.374
1176.121
1174.889
1173.679
1172.505
1171.38
1170.221
1169.05
1188.049
1187.158
1186.227
1185.256
1184.246
1183.196
1182.105
1180.973
1179.801
1178.592
1177.364
1176.145
1174.938
1173.759
1172.627
1171.478
1170.263
1169.152
1166.921
1168.774
1166.594
1170.587
1168.72
1165.991
1172.368
1170.727
1168.614
1164.987
1174.138
1172.638
1170.889
1168.421
1163.539
1175.817
1174.419
1172.884
1171.01
1168.147
1161.939
1177.361
1176.037
1174.635
1173.066
1171.076
1167.856
1160.518
1178.768
1177.498
1176.179
1174.774
1173.18
1171.105
1167.621
1159.504
1180.049
1178.821
1177.557
1176.242
1174.837
1173.232
1171.113
1167.501
1159.023
1181.213
1180.023
1178.799
1177.537
1176.226
1174.826
1173.225
1171.113
1167.523
1159.119
1182.27
1181.115
1179.925
1178.702
1177.443
1176.135
1174.741
1173.159
1171.106
1167.683
1160.117
1183.226
1182.105
1180.949
1179.758
1178.534
1177.275
1175.967
1174.582
1173.034
1171.081
1168.02
1161.764
1184.09
1183.005
1181.882
1180.723
1179.53
1178.303
1177.039
1175.731
1174.358
1172.853
1171.04
1168.475
1163.605
1184.884
1183.834
1182.746
1181.62
1180.458
1179.262
1178.029
1176.76
1175.452
1174.092
1172.643
1171.036
1168.985
1165.641
1185.648
1184.636
1183.584
1182.494
1181.366
1180.201
1178.999
1177.761
1176.489
1175.182
1173.852
1172.509
1171.116
1169.61
1168.089
1186.439
1185.466
1184.453
1183.401
1182.31
1181.182
1180.014
1178.807
1177.566
1176.291
1175.007
1173.738
1172.48
1171.237
1170.027
1168.827
1187.254
1186.321
1185.349
1184.338
1183.287
1182.197
1181.066
1179.896
1178.688
1177.444
1176.189
1174.948
1173.723
1172.53
1171.384
1170.207
1169
1188.074
1187.183
1186.252
1185.282
1184.272
1183.223
1182.133
1181.001
1179.83
1178.622
1177.394
1176.171
1174.959
1173.773
1172.632
1171.478
1170.257
1169.132
1188.884
1188.035
1187.146
1186.218
1185.25
1184.243
1183.194
1182.103
1180.972
1179.802
1178.604
1177.399
1176.196
1175.01
1173.858
1172.701
1171.499
1170.304
1169.238
1167.068
1168.802
1166.932
1170.491
1168.779
1166.613
1172.149
1170.586
1168.729
1166.018
1173.824
1172.359
1170.726
1168.625
1165.027
1175.511
1174.12
1172.627
1170.887
1168.434
1163.595
1177.121
1175.794
1174.401
1172.873
1171.008
1168.164
1162.009
1178.61
1177.336
1176.016
1174.619
1173.056
1171.077
1167.875
1160.6
1179.972
1178.742
1177.476
1176.161
1174.76
1173.173
1171.105
1167.642
1159.596
1181.213
1180.023
1178.799
1177.537
1176.226
1174.826
1173.225
1171.113
1167.523
1159.119
1182.341
1181.188
1180.001
1178.78
1177.522
1176.215
1174.816
1173.217
1171.113
1167.544
1159.573
1183.362
1182.246
1181.093
1179.907
1178.687
1177.431
1176.125
1174.731
1173.152
1171.106
1167.782
1160.794
1184.284
1183.203
1182.085
1180.932
1179.745
1178.524
1177.265
1175.958
1174.574
1173.029
1171.087
1168.177
1162.313
1185.114
1184.069
1182.986
1181.867
1180.711
1179.521
1178.295
1177.032
1175.725
1174.353
1172.842
1171.076
1168.632
1164.072
1185.873
1184.865
1183.818
1182.733
1181.611
1180.452
1179.256
1178.024
1176.756
1175.45
1174.089
1172.666
1171.109
1169.175
1166.148
1186.601
1185.631
1184.621
1183.573
1182.486
1181.362
1180.198
1178.997
1177.76
1176.489
1175.193
1173.887
1172.572
1171.244
1169.933
1168.701
1187.353
1186.423
1185.453
1184.443
1183.394
1182.307
1181.179
1180.012
1178.807
1177.567
1176.307
1175.048
1173.798
1172.572
1171.389
1170.186
1168.927
1188.128
1187.239
1186.309
1185.34
1184.331
1183.284
1182.194
1181.065
1179.896
1178.689
1177.459
1176.228
1175.003
1173.802
1172.643
1171.477
1170.247
1169.091
1188.908
1188.059
1187.171
1186.243
1185.276
1184.269
1183.221
1182.131
1181
1179.831
1178.632
1177.423
1176.216
1175.024
1173.864
1172.702
1171.499
1170.299
1169.221
1189.677
1188.87
1188.023
1187.137
1186.212
1185.247
1184.24
1183.192
1182.102
1180.972
1179.806
1178.621
1177.429
1176.243
1175.079
1173.912
1172.714
1171.521
1170.348
1169.329
1168.814
1167.079
1170.434
1168.808
1166.949
1172.008
1170.492
1168.79
1166.636
1173.589
1172.144
1170.59
1168.743
1166.05
1175.199
1173.813
1172.354
1170.73
1168.642
1165.072
1176.824
1175.493
1174.107
1172.621
1170.889
1168.452
1163.651
1178.379
1177.098
1175.776
1174.387
1172.866
1171.011
1168.181
1162.078
1179.82
1178.586
1177.315
1175.999
1174.606
1173.051
1171.078
1167.893
1160.682
1181.139
1179.947
1178.72
1177.457
1176.146
1174.75
1173.166
1171.105
1167.662
1159.687
1182.341
1181.188
1180.001
1178.78
1177.522
1176.215
1174.816
1173.217
1171.113
1167.544
1159.573
1183.431
1182.316
1181.166
1179.982
1178.765
1177.51
1176.204
1174.805
1173.21
1171.113
1167.65
1160.286
1184.416
1183.339
1182.225
1181.076
1179.893
1178.676
1177.42
1176.114
1174.721
1173.145
1171.108
1167.949
1161.385
1185.302
1184.261
1183.183
1182.069
1180.919
1179.735
1178.514
1177.255
1175.949
1174.566
1173.004
1171.104
1168.33
1162.792
1186.097
1185.093
1184.051
1182.972
1181.855
1180.703
1179.513
1178.287
1177.024
1175.719
1174.329
1172.829
1171.115
1168.785
1164.484
1186.82
1185.854
1184.849
1183.805
1182.723
1181.604
1180.446
1179.25
1178.019
1176.752
1175.438
1174.085
1172.688
1171.179
1169.358
1187.512
1186.584
1185.617
1184.61
1183.565
1182.481
1181.357
1180.194
1178.994
1177.758
1176.489
1175.203
1173.913
1172.63
1171.382
1170.157
1168.834
1188.226
1187.338
1186.41
1185.443
1184.436
1183.39
1182.304
1181.177
1180.01
1178.807
1177.573
1176.326
1175.08
1173.851
1172.66
1171.475
1170.231
1169.032
1188.962
1188.114
1187.226
1186.3
1185.333
1184.328
1183.28
1182.192
1181.063
1179.895
1178.695
1177.478
1176.26
1175.053
1173.878
1172.705
1171.498
1170.291
1169.188
1189.701
1188.893
1188.047
1187.162
1186.237
1185.272
1184.266
1183.218
1182.129
1181
1179.833
1178.645
1177.448
1176.257
1175.086
1173.914
1172.715
1171.521
1170.345
1169.315
1190.429
1189.663
1188.858
1188.014
1187.13
1186.208
1185.243
1184.237
1183.189
1182.1
1180.969
1179.809
1178.634
1177.456
1176.289
1175.117
1173.921
1172.727
1171.544
1170.395
1169.424
1170.408
1168.82
1167.096
1171.927
1170.436
1168.819
1166.972
1173.438
1172.005
1170.497
1168.805
1166.665
1174.965
1173.581
1172.144
1170.598
1168.762
1166.089
1176.522
1175.186
1173.806
1172.354
1170.738
1168.663
1165.119
1178.093
1176.805
1175.478
1174.099
1172.618
1170.896
1168.47
1163.707
1179.597
1178.356
1177.079
1175.761
1174.378
1172.863
1171.014
1168.198
1162.147
1180.993
1179.796
1178.565
1177.298
1175.986
1174.598
1173.045
1171.079
1167.912
1160.763
1182.27
1181.115
1179.925
1178.702
1177.443
1176.135
1174.741
1173.159
1171.106
1167.683
1160.117
1183.431
1182.316
1181.166
1179.982
1178.765
1177.51
1176.204
1174.805
1173.21
1171.113
1167.65
1160.286
1184.483
1183.407
1182.295
1181.148
1179.967
1178.753
1177.499
1176.192
1174.795
1173.202
1171.115
1167.825
1160.903
1185.431
1184.394
1183.319
1182.208
1181.062
1179.882
1178.665
1177.409
1176.103
1174.712
1173.112
1171.117
1168.107
1161.892
1186.28
1185.28
1184.243
1183.167
1182.056
1180.909
1179.725
1178.504
1177.245
1175.94
1174.527
1172.967
1171.124
1168.474
1163.199
1187.038
1186.076
1185.076
1184.037
1182.96
1181.846
1180.694
1179.505
1178.279
1177.017
1175.687
1174.291
1172.82
1171.154
1168.929
1187.726
1186.801
1185.838
1184.836
1183.795
1182.716
1181.597
1180.44
1179.245
1178.014
1176.733
1175.416
1174.079
1172.707
1171.244
1188.381
1187.495
1186.57
1185.605
1184.602
1183.559
1182.476
1181.353
1180.19
1178.991
1177.75
1176.48
1175.203
1173.93
1172.684
1171.471
1170.211
1168.959
1189.057
1188.21
1187.325
1186.4
1185.435
1184.432
1183.386
1182.3
1181.174
1180.009
1178.804
1177.574
1176.336
1175.105
1173.899
1172.709
1171.496
1170.279
1169.139
1189.753
1188.947
1188.101
1187.217
1186.293
1185.329
1184.324
1183.277
1182.19
1181.062
1179.893
1178.697
1177.491
1176.286
1175.1
1173.919
1172.717
1171.52
1170.338
1169.288
1190.452
1189.686
1188.881
1188.038
1187.155
1186.233
1185.268
1184.263
1183.215
1182.127
1180.995
1179.832
1178.653
1177.469
1176.295
1175.12
1173.922
1172.727
1171.544
1170.393
1169.413
1191.141
1190.415
1189.651
1188.849
1188.007
1187.126
1186.204
1185.24
1184.234
1183.187
1182.092
1180.96
1179.808
1178.645
1177.482
1176.313
1175.122
1173.928
1172.739
1171.567
1170.444
1169.52
1171.891
1170.41
1168.831
1167.117
1173.352
1171.926
1170.442
1168.835
1166.999
1174.817
1173.432
1172.007
1170.507
1168.825
1166.7
1176.297
1174.956
1173.578
1172.147
1170.61
1168.786
1166.129
1177.804
1176.508
1175.177
1173.803
1172.358
1170.751
1168.686
1165.167
1179.324
1178.074
1176.79
1175.468
1174.094
1172.621
1170.904
1168.489
1163.764
1180.779
1179.575
1178.337
1177.065
1175.751
1174.373
1172.86
1171.017
1168.215
1162.216
1182.128
1180.969
1179.775
1178.547
1177.284
1175.977
1174.59
1173.04
1171.08
1167.93
1161.147
1183.362
1182.246
1181.093
1179.907
1178.687
1177.431
1176.125
1174.731
1173.152
1171.106
1167.782
1160.794
1184.483
1183.407
1182.295
1181.148
1179.967
1178.753
1177.499
1176.192
1174.795
1173.202
1171.115
1167.825
1160.903
1185.496
1184.46
1183.387
1182.278
1181.134
1179.956
1178.741
1177.487
1176.181
1174.785
1173.166
1171.122
1167.988
1161.429
1186.406
1185.409
1184.374
1183.302
1182.194
1181.051
1179.87
1178.654
1177.398
1176.093
1174.665
1173.062
1171.13
1168.254
1162.318
1187.217
1186.259
1185.262
1184.227
1183.155
1182.046
1180.899
1179.714
1178.494
1177.236
1175.895
1174.467
1172.937
1171.147
1168.609
1187.939
1187.019
1186.059
1185.061
1184.025
1182.951
1181.838
1180.686
1179.497
1178.272
1176.981
1175.636
1174.259
1172.813
1171.192
1188.59
1187.708
1186.786
1185.825
1184.826
1183.788
1182.709
1181.59
1180.433
1179.239
1177.989
1176.698
1175.392
1174.071
1172.721
1189.209
1188.364
1187.481
1186.558
1185.596
1184.596
1183.554
1182.471
1181.348
1180.187
1178.976
1177.726
1176.461
1175.192
1173.936
1172.713
1171.493
1170.265
1169.078
1189.847
1189.042
1188.198
1187.314
1186.392
1185.43
1184.427
1183.382
1182.297
1181.171
1179.999
1178.79
1177.565
1176.338
1175.123
1173.925
1172.719
1171.518
1170.33
1169.248
1190.504
1189.739
1188.934
1188.091
1187.209
1186.288
1185.325
1184.32
1183.274
1182.187
1181.053
1179.883
1178.694
1177.498
1176.309
1175.124
1173.925
1172.728
1171.543
1170.388
1169.39
1191.164
1190.438
1189.674
1188.872
1188.031
1187.15
1186.228
1185.265
1184.259
1183.213
1182.117
1180.982
1179.826
1178.657
1177.488
1176.316
1175.124
1173.929
1172.739
1171.567
1170.442
1169.511
1191.813
1191.127
1190.404
1189.642
1188.842
1188.002
1187.122
1186.2
1185.236
1184.231
1183.174
1182.073
1180.947
1179.804
1178.653
1177.495
1176.316
1175.126
1173.934
1172.751
1171.591
1170.493
1169.616
1173.314
1171.89
1170.417
1168.847
1167.144
1174.732
1173.348
1171.928
1170.453
1168.856
1167.032
1176.154
1174.809
1173.431
1172.013
1170.521
1168.85
1166.736
1177.589
1176.286
1174.95
1173.578
1172.155
1170.627
1168.811
1166.17
1179.047
1177.789
1176.497
1175.171
1173.804
1172.366
1170.765
1168.708
1165.216
1180.516
1179.304
1178.058
1176.778
1175.462
1174.093
1172.623
1170.911
1168.507
1163.821
1181.922
1180.757
1179.556
1178.322
1177.054
1175.744
1174.368
1172.858
1171.02
1168.233
1162.542
1183.226
1182.105
1180.949
1179.758
1178.534
1177.275
1175.967
1174.582
1173.034
1171.081
1168.02
1161.764
1184.416
1183.339
1182.225
1181.076
1179.893
1178.676
1177.42
1176.114
1174.721
1173.145
1171.108
1167.949
1161.385
1185.496
1184.46
1183.387
1182.278
1181.134
1179.956
1178.741
1177.487
1176.181
1174.785
1173.166
1171.122
1167.988
1161.429
1186.469
1185.474
1184.44
1183.37
1182.264
1181.123
1179.944
1178.729
1177.475
1176.17
1174.734
1173.111
1171.132
1168.139
1161.869
1187.34
1186.384
1185.39
1184.358
1183.289
1182.183
1181.04
1179.859
1178.643
1177.387
1176.04
1174.591
1173.021
1171.145
1168.39
1188.114
1187.197
1186.241
1185.246
1184.214
1183.145
1182.036
1180.888
1179.705
1178.484
1177.188
1175.824
1174.415
1172.913
1171.171
1188.8
1187.92
1187.002
1186.045
1185.05
1184.016
1182.942
1181.829
1180.677
1179.489
1178.232
1176.922
1175.591
1174.23
1172.807
1189.414
1188.573
1187.692
1186.773
1185.815
1184.818
1183.78
1182.702
1181.584
1180.427
1179.21
1177.944
1176.661
1175.366
1174.059
1189.996
1189.192
1188.35
1187.469
1186.549
1185.59
1184.59
1183.548
1182.465
1181.343
1180.166
1178.939
1177.69
1176.428
1175.166
1173.932
1172.721
1171.516
1170.319
1169.195
1190.596
1189.832
1189.029
1188.187
1187.306
1186.387
1185.425
1184.422
1183.378
1182.293
1181.156
1179.972
1178.767
1177.549
1176.333
1175.131
1173.929
1172.73
1171.541
1170.381
1169.356
1191.214
1190.49
1189.726
1188.925
1188.084
1187.205
1186.283
1185.321
1184.316
1183.271
1182.174
1181.031
1179.865
1178.685
1177.501
1176.321
1175.127
1173.931
1172.74
1171.566
1170.439
1169.493
1191.835
1191.15
1190.426
1189.665
1188.865
1188.026
1187.146
1186.224
1185.261
1184.256
1183.198
1182.094
1180.965
1179.816
1178.659
1177.497
1176.317
1175.127
1173.934
1172.751
1171.591
1170.492
1169.609
1192.445
1191.799
1191.116
1190.394
1189.635
1188.837
1187.998
1187.117
1186.196
1185.232
1184.214
1183.147
1182.051
1180.932
1179.798
1178.657
1177.495
1176.316
1175.128
1173.939
1172.762
1171.614
1170.542
1169.708
1174.695
1173.31
1171.893
1170.428
1168.868
1167.176
1176.074
1174.725
1173.347
1171.935
1170.468
1168.881
1167.065
1177.453
1176.145
1174.805
1173.433
1172.022
1170.54
1168.876
1166.772
1178.842
1177.577
1176.278
1174.948
1173.583
1172.168
1170.644
1168.835
1166.211
1180.251
1179.031
1177.777
1176.49
1175.17
1173.809
1172.374
1170.778
1168.731
1165.265
1181.669
1180.496
1179.288
1178.046
1176.771
1175.459
1174.093
1172.625
1170.919
1168.526
1164.095
1183.026
1181.9
1180.738
1179.541
1178.311
1177.046
1175.738
1174.363
1172.856
1171.023
1168.318
1163.093
1184.284
1183.203
1182.085
1180.932
1179.745
1178.524
1177.265
1175.958
1174.574
1173.029
1171.087
1168.177
1162.313
1185.431
1184.394
1183.319
1182.208
1181.062
1179.882
1178.665
1177.409
1176.103
1174.712
1173.112
1171.117
1168.107
1161.892
1186.469
1185.474
1184.44
1183.37
1182.264
1181.123
1179.944
1178.729
1177.475
1176.17
1174.734
1173.111
1171.132
1168.139
1161.869
1187.402
1186.447
1185.454
1184.424
1183.356
1182.253
1181.111
1179.933
1178.718
1177.464
1176.113
1174.654
1173.064
1171.144
1168.277
1188.235
1187.319
1186.365
1185.374
1184.344
1183.278
1182.172
1181.029
1179.848
1178.632
1177.332
1175.956
1174.527
1172.986
1171.162
1188.971
1188.094
1187.179
1186.225
1185.234
1184.204
1183.134
1182.025
1180.878
1179.695
1178.435
1177.111
1175.761
1174.371
1172.893
1189.62
1188.781
1187.903
1186.988
1186.034
1185.041
1184.007
1182.933
1181.82
1180.669
1179.447
1178.167
1176.868
1175.55
1174.204
1190.198
1189.397
1188.557
1187.679
1186.763
1185.807
1184.81
1183.773
1182.695
1181.577
1180.394
1179.156
1177.897
1176.623
1175.338
1190.742
1189.98
1189.179
1188.339
1187.46
1186.543
1185.584
1184.583
1183.542
1182.46
1181.318
1180.119
1178.891
1177.641
1176.379
1175.14
1173.933
1172.731
1171.54
1170.374
1169.312
1191.305
1190.581
1189.819
1189.018
1188.179
1187.301
1186.381
1185.42
1184.417
1183.373
1182.273
1181.119
1179.937
1178.735
1177.525
1176.328
1175.132
1173.933
1172.741
1171.565
1170.434
1169.466
1191.885
1191.2
1190.478
1189.717
1188.917
1188.079
1187.199
1186.279
1185.316
1184.312
1183.253
1182.142
1181.003
1179.843
1178.672
1177.502
1176.321
1175.129
1173.936
1172.751
1171.59
1170.49
1169.595
1192.466
1191.821
1191.138
1190.417
1189.658
1188.86
1188.021
1187.141
1186.22
1185.257
1184.238
1183.168
1182.067
1180.944
1179.804
1178.659
1177.497
1176.317
1175.129
1173.94
1172.762
1171.614
1170.541
1169.704
1193.037
1192.431
1191.788
1191.106
1190.387
1189.63
1188.832
1187.993
1187.113
1186.192
1185.213
1184.18
1183.116
1182.026
1180.914
1179.795
1178.655
1177.494
1176.316
1175.13
1173.944
1172.773
1171.637
1170.589
1169.796
1176.037
1174.688
1173.309
1171.9
1170.444
1168.894
1167.209
1177.376
1176.065
1174.722
1173.35
1171.946
1170.488
1168.907
1167.1
1178.712
1177.442
1176.139
1174.805
1173.44
1172.037
1170.56
1168.901
1166.809
1180.054
1178.828
1177.568
1176.274
1174.95
1173.591
1172.18
1170.662
1168.86
1166.253
1181.414
1180.234
1179.019
1177.769
1176.487
1175.172
1173.814
1172.383
1170.792
1168.754
1165.504
1182.782
1181.649
1180.48
1179.276
1178.038
1176.767
1175.457
1174.092
1172.628
1170.926
1168.619
1164.603
1184.09
1183.005
1181.882
1180.723
1179.53
1178.303
1177.039
1175.731
1174.358
1172.853
1171.04
1168.475
1163.605
1185.302
1184.261
1183.183
1182.069
1180.919
1179.735
1178.514
1177.255
1175.949
1174.566
1173.004
1171.104
1168.33
1162.792
1186.406
1185.409
1184.374
1183.302
1182.194
1181.051
1179.87
1178.654
1177.398
1176.093
1174.665
1173.062
1171.13
1168.254
1162.318
1187.402
1186.447
1185.454
1184.424
1183.356
1182.253
1181.111
1179.933
1178.718
1177.464
1176.113
1174.654
1173.064
1171.144
1168.277
1188.296
1187.381
1186.428
1185.438
1184.41
1183.345
1182.241
1181.099
1179.921
1178.706
1177.406
1176.024
1174.585
1173.024
1171.158
1189.089
1188.214
1187.301
1186.35
1185.361
1184.334
1183.267
1182.161
1181.018
1179.837
1178.576
1177.244
1175.883
1174.472
1172.958
1189.788
1188.952
1188.077
1187.164
1186.213
1185.224
1184.194
1183.124
1182.015
1180.869
1179.644
1178.354
1177.042
1175.707
1174.333
1190.399
1189.601
1188.764
1187.89
1186.976
1186.025
1185.032
1183.998
1182.925
1181.812
1180.625
1179.377
1178.107
1176.819
1175.513
1190.941
1190.18
1189.382
1188.545
1187.669
1186.755
1185.799
1184.803
1183.765
1182.687
1181.541
1180.334
1179.102
1177.849
1176.584
1191.449
1190.727
1189.966
1189.167
1188.33
1187.454
1186.536
1185.577
1184.577
1183.536
1182.431
1181.262
1180.06
1178.828
1177.573
1176.337
1175.137
1173.936
1172.741
1171.564
1170.428
1169.428
1191.974
1191.29
1190.568
1189.808
1189.01
1188.173
1187.295
1186.375
1185.414
1184.412
1183.35
1182.227
1181.073
1179.892
1178.696
1177.51
1176.325
1175.132
1173.937
1172.752
1171.59
1170.487
1169.575
1192.516
1191.871
1191.188
1190.468
1189.709
1188.912
1188.074
1187.194
1186.274
1185.312
1184.291
1183.214
1182.105
1180.97
1179.817
1178.664
1177.5
1176.32
1175.13
1173.94
1172.762
1171.614
1170.541
1169.695
1193.059
1192.453
1191.81
1191.128
1190.41
1189.653
1188.855
1188.016
1187.136
1186.215
1185.236
1184.201
1183.133
1182.037
1180.92
1179.797
1178.657
1177.495
1176.317
1175.13
1173.945
1172.773
1171.638
1170.589
1169.795
1193.591
1193.024
1192.42
1191.778
1191.099
1190.382
1189.625
1188.827
1187.988
1187.108
1186.169
1185.173
1184.143
1183.083
1181.999
1180.904
1179.792
1178.652
1177.491
1176.315
1175.131
1173.949
1172.784
1171.66
1170.634
1169.919
1177.342
1176.029
1174.685
1173.313
1171.911
1170.464
1168.92
1167.242
1178.638
1177.365
1176.059
1174.723
1173.358
1171.961
1170.509
1168.933
1167.134
1179.93
1178.699
1177.434
1176.136
1174.808
1173.45
1172.052
1170.579
1168.927
1166.846
1181.225
1180.04
1178.818
1177.562
1176.274
1174.956
1173.6
1172.193
1170.679
1168.885
1166.458
1182.536
1181.397
1180.221
1179.01
1177.765
1176.488
1175.175
1173.819
1172.391
1170.805
1168.867
1166.003
1183.853
1182.762
1181.633
1180.468
1179.267
1178.033
1176.764
1175.455
1174.092
1172.63
1170.964
1168.798
1165.121
1185.114
1184.069
1182.986
1181.867
1180.711
1179.521
1178.295
1177.032
1175.725
1174.353
1172.842
1171.076
1168.632
1164.072
1186.28
1185.28
1184.243
1183.167
1182.056
1180.909
1179.725
1178.504
1177.245
1175.94
1174.527
1172.967
1171.124
1168.474
1163.199
1187.34
1186.384
1185.39
1184.358
1183.289
1182.183
1181.04
1179.859
1178.643
1177.387
1176.04
1174.591
1173.021
1171.145
1168.39
1188.296
1187.381