/*--------------------------------*- C++ -*----------------------------------*\
| =========                 |                                                 |
| \\      /  F ield         | OpenFOAM: The Open Source CFD Toolbox           |
|  \\    /   O peration     | Version:  2306                                  |
|   \\  /    A nd           | Website:  www.openfoam.com                      |
|    \\/     M anipulation  |                                                 |
\*---------------------------------------------------------------------------*/
FoamFile
{
    version     2.0;
    format      ascii;
    arch        "LSB;label=32;scalar=64";
    class       volScalarField;
    location    "1.2/fuel";
    object      diffSp.H2;
}
// * * * * * * * * * * * * * * * * * * * * * * * * * * * * * * * * * * * * * //

dimensions      [0 2 -1 0 0 0 0];

internalField   nonuniform List<scalar> 
16000
(
0.0001061224
0.000106109
0.0001064044
0.0001061366
0.0001060755
0.000106408
0.0001061234
0.0001066525
0.0001064159
0.0001061662
0.0001060129
0.0001064137
0.0001060904
0.0001066602
0.0001064195
0.0001061535
0.0001068727
0.0001066617
0.0001064403
0.0001062008
0.0001058975
0.0001064224
0.0001060289
0.0001066757
0.0001064254
0.0001061216
0.0001068812
0.0001066694
0.0001064441
0.0001061886
0.0001070751
0.0001068802
0.0001066818
0.0001064688
0.0001062706
0.0001057371
0.0001064257
0.000105915
0.000106702
0.0001064343
0.0001060617
0.0001068986
0.000106685
0.0001064504
0.0001061579
0.0001070833
0.0001068886
0.0001066897
0.0001064729
0.0001062594
0.0001072653
0.0001070812
0.000106897
0.0001067055
0.0001065268
0.0001594307
0.0001055286
0.0001064314
0.0001057569
0.0001067354
0.0001064376
0.0001059504
0.0001069287
0.0001067113
0.0001064599
0.0001060999
0.0001071005
0.0001069061
0.0001067054
0.0001064798
0.0001062309
0.000107273
0.0001070895
0.0001069056
0.0001067135
0.0001065314
0.0001594145
0.0001074455
0.0001072703
0.0001070956
0.000106917
0.0001067538
0.0001598107
0.0001594427
0.0001053375
0.0001064062
0.0001055511
0.0001067833
0.0001064433
0.0001057956
0.0001069695
0.0001067445
0.0001064638
0.0001059914
0.0001071303
0.0001069361
0.0001067319
0.0001064899
0.0001061765
0.0001072893
0.0001071067
0.0001069231
0.0001067295
0.0001065394
0.0001593727
0.0001074528
0.0001072781
0.0001071039
0.0001069256
0.0001067621
0.0001598179
0.0001594267
0.0001076172
0.0001074497
0.0001072827
0.0001071126
0.000106958
0.0001601476
0.0001598205
0.000159459
0.0001051929
0.0001063746
0.0001053624
0.0001068098
0.0001064183
0.000105593
0.0001070275
0.0001067918
0.00010647
0.0001058402
0.0001071715
0.0001069765
0.0001067652
0.0001064946
0.000106073
0.0001073175
0.0001071363
0.0001069532
0.0001067564
0.0001065512
0.0001592927
0.000107468
0.0001072943
0.0001071211
0.0001069434
0.0001067788
0.00015983
0.0001593855
0.000107624
0.000107457
0.0001072905
0.000107121
0.0001069669
0.0001601602
0.0001598276
0.0001594433
0.000107781
0.0001076207
0.0001074605
0.0001072975
0.0001071482
0.0001604513
0.0001601556
0.0001598338
0.0001594735
0.0001051164
0.0001063445
0.0001052194
0.0001068266
0.0001063871
0.0001054071
0.0001070691
0.000106818
0.0001064456
0.0001056411
0.00010723
0.000107034
0.0001068125
0.0001065015
0.0001059277
0.0001073571
0.0001071772
0.0001069936
0.0001067899
0.0001065578
0.0001591398
0.0001074944
0.0001073224
0.0001071508
0.0001069736
0.0001068067
0.000159848
0.0001593066
0.0001076382
0.0001074722
0.0001073068
0.0001071384
0.0001069852
0.0001601853
0.0001598398
0.0001594028
0.0001077873
0.0001076275
0.0001074677
0.0001073053
0.0001071567
0.0001604647
0.0001601682
0.000159841
0.0001594582
0.0001079373
0.0001077839
0.0001076301
0.0001074734
0.0001073286
0.0001607344
0.0001604579
0.0001601665
0.0001598456
0.0001594902
0.0001051164
0.0001063271
0.0001051438
0.0001068336
0.0001063574
0.000105266
0.0001071007
0.0001068346
0.000106415
0.000105458
0.000107275
0.0001070751
0.0001068385
0.0001064777
0.0001057337
0.000107413
0.0001072351
0.0001070507
0.0001068371
0.0001065667
0.0001589251
0.0001075317
0.0001073617
0.0001071916
0.000107014
0.0001068412
0.0001598582
0.0001591555
0.0001076629
0.0001074985
0.0001073349
0.0001071681
0.000107016
0.000160227
0.0001598578
0.0001593252
0.0001078007
0.0001076417
0.000107483
0.0001073217
0.0001071744
0.000160492
0.0001601931
0.0001598532
0.0001594183
0.0001079432
0.0001077902
0.0001076369
0.0001074807
0.0001073366
0.0001607472
0.0001604712
0.000160179
0.0001598529
0.0001594752
0.0001080864
0.0001079397
0.0001077922
0.0001076416
0.000107501
0.0001610033
0.0001607397
0.0001604669
0.0001601762
0.0001598592
0.0003884613
0.0001051929
0.0001063271
0.0001051438
0.0001068362
0.0001063403
0.0001051914
0.0001071196
0.0001068416
0.0001063858
0.0001053189
0.0001073103
0.0001071063
0.0001068551
0.0001064478
0.0001055545
0.0001074573
0.0001072795
0.0001070915
0.000106863
0.0001065443
0.0001586378
0.0001075843
0.000107417
0.0001072491
0.0001070709
0.0001068893
0.0001598715
0.000158943
0.0001076979
0.0001075355
0.000107374
0.0001072088
0.000107057
0.0001602785
0.0001598677
0.0001591761
0.0001078238
0.0001076663
0.0001075093
0.0001073498
0.0001072046
0.0001605381
0.0001602346
0.0001598713
0.0001593421
0.0001079558
0.0001078035
0.0001076511
0.000107496
0.0001073532
0.0001607737
0.0001604983
0.000160204
0.0001598652
0.0001594362
0.000108092
0.0001079456
0.0001077985
0.0001076484
0.0001075084
0.0001610153
0.0001607525
0.0001604801
0.0001601887
0.0001598665
0.0003884279
0.0001082286
0.0001080884
0.0001079471
0.0001078024
0.0001076663
0.0001612605
0.0001610077
0.0001607473
0.0001604749
0.0001601873
0.0003893337
0.0003885824
0.0001053375
0.0001063445
0.0001052194
0.0001068362
0.0001063403
0.0001051914
0.0001071287
0.0001068442
0.000106369
0.0001052452
0.0001073326
0.0001071251
0.0001068621
0.0001064192
0.0001054179
0.0001074925
0.0001073145
0.0001071225
0.0001068796
0.0001065156
0.0001583722
0.0001076266
0.0001074609
0.0001072931
0.0001071113
0.0001069156
0.0001598382
0.0001586585
0.0001077472
0.0001075876
0.0001074289
0.0001072661
0.0001071143
0.0001603499
0.0001598806
0.0001589661
0.0001078567
0.000107701
0.0001075461
0.0001073888
0.0001072457
0.0001605991
0.0001602854
0.0001598812
0.0001591948
0.0001079775
0.0001078266
0.0001076757
0.0001075223
0.0001073817
0.0001608188
0.0001605441
0.0001602452
0.0001598834
0.0001593613
0.0001081038
0.0001079581
0.0001078119
0.0001076627
0.0001075239
0.0001610402
0.0001607789
0.0001605072
0.0001602135
0.000159879
0.0003883406
0.0001082339
0.000108094
0.000107953
0.0001078088
0.0001076731
0.0001612716
0.0001610196
0.00016076
0.0001604881
0.0001601998
0.0003893517
0.0003885558
0.0001083642
0.0001082303
0.000108095
0.0001079562
0.0001078246
0.0001615072
0.0001612642
0.0001610141
0.0001607539
0.0001604841
0.0003901121
0.0003894232
0.0003887514
0.0001055286
0.0001063746
0.0001053624
0.0001068336
0.0001063574
0.000105266
0.0001071287
0.0001068442
0.000106369
0.0001052452
0.0001073436
0.0001071341
0.0001068648
0.0001064026
0.0001053454
0.0001075152
0.0001073366
0.0001071412
0.0001068868
0.0001064878
0.0001581697
0.0001076605
0.0001074958
0.0001073278
0.0001071422
0.0001069326
0.0001597956
0.0001583957
0.0001077873
0.0001076295
0.0001074724
0.0001073097
0.0001071548
0.0001603889
0.0001598471
0.0001586846
0.0001079029
0.0001077499
0.0001075978
0.0001074435
0.0001073031
0.0001606842
0.0001603559
0.0001598937
0.0001589873
0.0001080085
0.0001078593
0.0001077103
0.0001075591
0.0001074209
0.0001608799
0.0001606045
0.0001602955
0.0001598931
0.0001592162
0.0001081243
0.0001079798
0.0001078349
0.0001076872
0.0001075505
0.0001610826
0.0001608236
0.0001605527
0.0001602545
0.0001598973
0.0003881719
0.0001082451
0.0001081058
0.0001079655
0.0001078221
0.0001076876
0.0001612948
0.0001610444
0.0001607862
0.000160515
0.0001602246
0.0003893823
0.0003884841
0.0001083692
0.0001082356
0.0001081006
0.0001079622
0.0001078311
0.0001615175
0.0001612752
0.0001610259
0.0001607666
0.0001604973
0.0003901419
0.000389441
0.0003887346
0.0001084932
0.0001083656
0.0001082362
0.0001081032
0.0001079764
0.0001617438
0.0001615102
0.0001612695
0.0001610196
0.0001607616
0.0003908184
0.0003901808
0.0003895475
0.0003889064
0.0001057371
0.0001064062
0.0001055511
0.0001068266
0.0001063871
0.0001054071
0.0001071196
0.0001068416
0.0001063858
0.0001053189
0.0001073436
0.0001071341
0.0001068648
0.0001064026
0.0001053454
0.0001075265
0.0001073476
0.0001071502
0.0001068895
0.0001064717
0.0001580623
0.0001076825
0.0001075183
0.0001073498
0.0001071608
0.0001069399
0.0001597544
0.0001581953
0.0001078195
0.0001076631
0.000107507
0.0001073442
0.0001071857
0.0001604141
0.0001598049
0.0001584246
0.000107941
0.0001077896
0.0001076394
0.0001074866
0.0001073467
0.0001607443
0.0001603942
0.0001598603
0.0001587085
0.0001080521
0.0001079051
0.0001077588
0.0001076105
0.0001074757
0.0001609652
0.0001606885
0.0001603652
0.0001599053
0.0001590112
0.0001081537
0.0001080106
0.0001078674
0.0001077217
0.0001075874
0.000161141
0.0001608841
0.0001606125
0.0001603043
0.000159907
0.0003878386
0.0001082645
0.0001081262
0.0001079872
0.0001078451
0.0001077123
0.0001613344
0.0001610866
0.0001608307
0.0001605602
0.0001602654
0.0003894265
0.0003883439
0.0001083798
0.0001082467
0.0001081124
0.0001079747
0.0001078445
0.0001615391
0.0001612983
0.0001610506
0.0001607927
0.0001605241
0.0003902006
0.0003894713
0.0003886856
0.000108498
0.0001083706
0.0001082415
0.0001081088
0.0001079824
0.0001617534
0.0001615205
0.0001612805
0.0001610314
0.0001607743
0.0003908496
0.0003902086
0.000389566
0.0003889011
0.0001086161
0.0001084944
0.0001083709
0.0001082437
0.0001081216
0.0001619706
0.0001617463
0.0001615147
0.0001612742
0.0001610261
0.0003914808
0.0003908707
0.0003902765
0.000389656
0.000389066
0.0001058975
0.0001064314
0.0001057569
0.0001068098
0.0001064183
0.000105593
0.0001071007
0.0001068346
0.000106415
0.000105458
0.0001073326
0.0001071251
0.0001068621
0.0001064192
0.0001054179
0.0001075265
0.0001073476
0.0001071502
0.0001068895
0.0001064717
0.0001580623
0.0001076935
0.0001075295
0.0001073607
0.0001071698
0.0001069427
0.0001597306
0.0001580891
0.0001078406
0.0001076849
0.0001075294
0.0001073661
0.0001072043
0.0001604252
0.0001597642
0.0001582264
0.0001079715
0.0001078216
0.0001076728
0.000107521
0.0001073811
0.0001607901
0.000160419
0.0001598184
0.0001584512
0.0001080882
0.0001079428
0.0001077983
0.0001076518
0.0001075187
0.0001610299
0.0001607477
0.0001604027
0.0001598718
0.0001587351
0.0001081949
0.0001080539
0.000107913
0.00010777
0.0001076389
0.0001612225
0.0001609685
0.0001606956
0.0001603732
0.0001599191
0.0003873598
0.0001082924
0.0001081554
0.0001080179
0.0001078775
0.0001077469
0.0001613893
0.0001611444
0.0001608906
0.0001606194
0.0001603147
0.0003894476
0.0003880441
0.0001083983
0.0001082661
0.0001081328
0.0001079963
0.0001078677
0.000161576
0.0001613376
0.0001610924
0.0001608368
0.000160569
0.0003902963
0.0003895149
0.0003885865
0.0001085081
0.0001083812
0.0001082527
0.0001081206
0.000107995
0.0001617735
0.0001615419
0.0001613034
0.0001610559
0.0001608002
0.0003909127
0.0003902626
0.000389598
0.000388879
0.0001086206
0.0001084992
0.0001083759
0.000108249
0.0001081273
0.0001619796
0.0001617558
0.000161525
0.0001612851
0.0001610379
0.0003915106
0.0003908994
0.0003903024
0.0003896756
0.0003890737
0.0001087329
0.000108617
0.0001084993
0.0001083777
0.0001082605
0.0001621878
0.0001619726
0.0001617501
0.0001615186
0.0001612796
0.0003921137
0.0003915193
0.0003909452
0.0003903574
0.0003897656
0.0001060129
0.0001064257
0.000105915
0.0001067833
0.0001064433
0.0001057956
0.0001070691
0.000106818
0.0001064456
0.0001056411
0.0001073103
0.0001071063
0.0001068551
0.0001064478
0.0001055545
0.0001075152
0.0001073366
0.0001071412
0.0001068868
0.0001064878
0.0001581697
0.0001076935
0.0001075295
0.0001073607
0.0001071698
0.0001069427
0.0001597306
0.0001580891
0.0001078511
0.0001076959
0.0001075406
0.0001073769
0.0001072133
0.0001604294
0.0001597407
0.0001581213
0.0001079915
0.0001078425
0.0001076945
0.0001075433
0.0001074029
0.0001608179
0.0001604299
0.0001597782
0.0001582551
0.0001081172
0.0001079731
0.00010783
0.0001076849
0.000107553
0.000161081
0.000160793
0.0001604272
0.0001598302
0.0001584805
0.0001082292
0.0001080896
0.0001079504
0.0001078092
0.00010768
0.0001612863
0.0001610324
0.000160754
0.00016041
0.0001598855
0.0003867156
0.0001083315
0.0001081963
0.0001080609
0.0001079229
0.0001077952
0.000161466
0.000161225
0.0001609741
0.0001607016
0.0001603829
0.0003894701
0.0003875818
0.0001084248
0.0001082938
0.0001081619
0.0001080269
0.0001079002
0.0001616276
0.000161392
0.0001611497
0.0001608961
0.0001606276
0.0003904089
0.0003895308
0.0003883339
0.0001085257
0.0001083995
0.000108272
0.000108141
0.0001080167
0.0001618081
0.0001615786
0.0001613425
0.0001610975
0.0001608441
0.0003910176
0.0003903505
0.0003896461
0.0003888314
0.0001086303
0.0001085093
0.0001083865
0.0001082601
0.0001081392
0.0001619985
0.0001617759
0.0001615463
0.0001613079
0.0001610622
0.0003915716
0.0003909568
0.0003903524
0.0003897103
0.0003890823
0.0001087372
0.0001086216
0.000108504
0.0001083827
0.0001082658
0.0001621962
0.0001619816
0.0001617596
0.0001615288
0.0001612906
0.0003921415
0.0003915466
0.0003909713
0.0003903813
0.0003897865
0.0001088438
0.0001087336
0.0001086215
0.0001085054
0.0001083932
0.0001623955
0.0001621894
0.0001619759
0.0001617534
0.0001615233
0.0003927219
0.0003921406
0.0003915768
0.0003910064
0.0003904381
0.0001060755
0.0001064224
0.0001060289
0.0001067354
0.0001064376
0.0001059504
0.0001070275
0.0001067918
0.00010647
0.0001058402
0.000107275
0.0001070751
0.0001068385
0.0001064777
0.0001057337
0.0001074925
0.0001073145
0.0001071225
0.0001068796
0.0001065156
0.0001583722
0.0001076825
0.0001075183
0.0001073498
0.0001071608
0.0001069399
0.0001597544
0.0001581953
0.0001078511
0.0001076959
0.0001075406
0.0001073769
0.0001072133
0.0001604294
0.0001597407
0.0001581213
0.0001080015
0.0001078529
0.0001077054
0.0001075543
0.0001074137
0.0001608312
0.0001604341
0.000159755
0.000158151
0.0001081362
0.000107993
0.0001078508
0.0001077065
0.0001075751
0.0001611135
0.0001608205
0.0001604381
0.0001597905
0.0001582864
0.0001082568
0.0001081185
0.0001079806
0.0001078407
0.000107713
0.0001613373
0.0001610829
0.0001607988
0.0001604341
0.0001598443
0.0003861245
0.0001083642
0.0001082304
0.0001080964
0.0001079601
0.0001078342
0.0001615271
0.000161288
0.0001610372
0.0001607591
0.0001604191
0.0003893865
0.0003869549
0.000108462
0.0001083326
0.0001082025
0.0001080697
0.0001079456
0.0001616994
0.0001614679
0.0001612296
0.0001609788
0.0001607091
0.0003905631
0.0003895432
0.0003878781
0.0001085511
0.000108426
0.0001082996
0.00010817
0.0001080474
0.0001618565
0.0001616297
0.0001613964
0.0001611542
0.0001609028
0.0003911519
0.000390449
0.0003896632
0.0003886467
0.0001086471
0.0001085268
0.0001084049
0.0001082794
0.0001081596
0.0001620309
0.0001618102
0.0001615827
0.0001613467
0.0001611035
0.0003916739
0.0003910521
0.0003904343
0.0003897659
0.0003890991
0.0001087465
0.0001086312
0.0001085141
0.0001083933
0.0001082771
0.000162214
0.0001620003
0.0001617796
0.00016155
0.0001613132
0.0003921987
0.0003916019
0.000391023
0.000390427
0.000389825
0.0001088479
0.000108738
0.000108626
0.0001085102
0.0001083982
0.0001624035
0.0001621978
0.0001619848
0.0001617629
0.0001615334
0.0003927477
0.000392166
0.0003916014
0.0003910296
0.00039046
0.0001089489
0.0001088444
0.0001087377
0.0001086271
0.0001085197
0.000162594
0.0001623968
0.0001621922
0.0001619787
0.0001617574
0.0003933076
0.0003927391
0.0003921841
0.0003916225
0.000391067
0.000106109
0.0001064137
0.0001060904
0.000106702
0.0001064343
0.0001060617
0.0001069695
0.0001067445
0.0001064638
0.0001059914
0.00010723
0.000107034
0.0001068125
0.0001065015
0.0001059277
0.0001074573
0.0001072795
0.0001070915
0.000106863
0.0001065443
0.0001586378
0.0001076605
0.0001074958
0.0001073278
0.0001071422
0.0001069326
0.0001597956
0.0001583957
0.0001078406
0.0001076849
0.0001075294
0.0001073661
0.0001072043
0.0001604252
0.0001597642
0.0001582264
0.0001080015
0.0001078529
0.0001077054
0.0001075543
0.0001074137
0.0001608312
0.0001604341
0.000159755
0.000158151
0.0001081458
0.000108003
0.0001078612
0.0001077173
0.0001075861
0.0001611295
0.0001608337
0.0001604423
0.0001597676
0.0001581835
0.000108275
0.0001081374
0.0001080003
0.0001078613
0.0001077345
0.0001613702
0.000161115
0.000160826
0.0001604449
0.0001598049
0.0003856743
0.0001083906
0.0001082578
0.000108125
0.00010799
0.0001078656
0.0001615761
0.0001613385
0.0001610872
0.0001608034
0.0001604428
0.0003892893
0.0003863925
0.0001084933
0.0001083651
0.0001082364
0.000108105
0.0001079826
0.0001617575
0.0001615283
0.0001612919
0.0001610411
0.0001607658
0.0003906425
0.0003894474
0.0003872434
0.0001085866
0.0001084629
0.0001083382
0.0001082105
0.0001080902
0.0001619241
0.0001617009
0.0001614717
0.0001612334
0.0001609848
0.0003913381
0.0003905888
0.0003896745
0.0003881555
0.0001086715
0.0001085521
0.0001084312
0.000108307
0.0001081887
0.0001620766
0.0001618582
0.0001616334
0.0001614001
0.0001611597
0.0003918089
0.0003911707
0.0003905219
0.0003897911
0.0003890288
0.0001087626
0.000108648
0.0001085316
0.0001084116
0.0001082964
0.0001622446
0.0001620326
0.0001618137
0.0001615862
0.0001613518
0.000392295
0.0003916945
0.0003911094
0.0003905035
0.0003898925
0.0001088568
0.0001087472
0.0001086356
0.0001085203
0.0001084089
0.0001624203
0.0001622155
0.0001620035
0.0001617827
0.0001615545
0.0003928008
0.0003922177
0.0003916506
0.000391075
0.0003905015
0.0001089529
0.0001088485
0.000108742
0.0001086317
0.0001085245
0.0001626016
0.0001624048
0.0001622006
0.0001619875
0.0001617668
0.0003933315
0.0003927626
0.0003922068
0.000391644
0.0003910872
0.0001090485
0.0001089494
0.0001088481
0.0001087429
0.0001086404
0.0001627834
0.0001625951
0.0001623993
0.0001621946
0.0001619821
0.0003938712
0.0003933166
0.0003927709
0.000392217
0.0003916673
0.0001061224
0.000106408
0.0001061234
0.0001066757
0.0001064254
0.0001061216
0.0001069287
0.0001067113
0.0001064599
0.0001060999
0.0001071715
0.0001069765
0.0001067652
0.0001064946
0.000106073
0.000107413
0.0001072351
0.0001070507
0.0001068371
0.0001065667
0.0001589251
0.0001076266
0.0001074609
0.0001072931
0.0001071113
0.0001069156
0.0001598382
0.0001586585
0.0001078195
0.0001076631
0.000107507
0.0001073442
0.0001071857
0.0001604141
0.0001598049
0.0001584246
0.0001079915
0.0001078425
0.0001076945
0.0001075433
0.0001074029
0.0001608179
0.0001604299
0.0001597782
0.0001582551
0.0001081458
0.000108003
0.0001078612
0.0001077173
0.0001075861
0.0001611295
0.0001608337
0.0001604423
0.0001597676
0.0001581835
0.0001082842
0.0001081469
0.0001080103
0.0001078717
0.0001077452
0.0001613867
0.0001611309
0.0001608391
0.0001604491
0.0001597823
0.0003854356
0.000108408
0.0001082759
0.0001081439
0.0001080097
0.0001078862
0.0001616081
0.0001613712
0.000161119
0.0001608303
0.0001604535
0.0003891982
0.0003859688
0.0001085186
0.0001083914
0.0001082637
0.0001081335
0.0001080124
0.0001618042
0.000161577
0.0001613419
0.0001610906
0.0001608095
0.0003906961
0.0003893485
0.0003866935
0.0001086167
0.0001084941
0.0001083705
0.0001082441
0.0001081254
0.0001619792
0.0001617584
0.0001615315
0.000161295
0.0001610463
0.0003914662
0.0003906497
0.0003895598
0.0003874895
0.0001087054
0.0001085873
0.000108468
0.0001083454
0.0001082291
0.0001621403
0.0001619252
0.0001617041
0.0001614747
0.0001612382
0.0003919973
0.0003913429
0.0003906593
0.0003897914
0.0003884959
0.0001087859
0.0001086722
0.0001085568
0.0001084379
0.000108324
0.0001622878
0.0001620779
0.0001618613
0.0001616364
0.0001614047
0.0003924245
0.0003918145
0.000391214
0.0003905819
0.0003899404
0.0001088723
0.0001087633
0.0001086523
0.0001085378
0.0001084273
0.0001624492
0.0001622459
0.0001620355
0.0001618166
0.0001615905
0.0003928907
0.0003923049
0.0003917337
0.000391152
0.0003905739
0.0001089615
0.0001088574
0.0001087512
0.0001086413
0.0001085347
0.0001626175
0.0001624215
0.0001622182
0.0001620061
0.0001617865
0.0003933809
0.0003928106
0.0003922526
0.0003916865
0.000391126
0.0001090524
0.0001089534
0.0001088522
0.0001087472
0.000108645
0.0001627906
0.0001626026
0.0001624072
0.0001622029
0.0001619909
0.0003938934
0.0003933383
0.0003927918
0.0003922367
0.0003916856
0.0001091427
0.0001090489
0.0001089528
0.0001088529
0.0001087552
0.000162964
0.0001627843
0.0001625972
0.0001624012
0.0001621975
0.0003944129
0.0003938733
0.0003933386
0.0003927931
0.000392249
0.0001064044
0.0001061366
0.0001066602
0.0001064195
0.0001061535
0.0001068986
0.000106685
0.0001064504
0.0001061579
0.0001071303
0.0001069361
0.0001067319
0.0001064899
0.0001061765
0.0001073571
0.0001071772
0.0001069936
0.0001067899
0.0001065578
0.0001591398
0.0001075843
0.000107417
0.0001072491
0.0001070709
0.0001068893
0.0001598715
0.000158943
0.0001077873
0.0001076295
0.0001074724
0.0001073097
0.0001071548
0.0001603889
0.0001598471
0.0001586846
0.0001079715
0.0001078216
0.0001076728
0.000107521
0.0001073811
0.0001607901
0.000160419
0.0001598184
0.0001584512
0.0001081362
0.000107993
0.0001078508
0.0001077065
0.0001075751
0.0001611135
0.0001608205
0.0001604381
0.0001597905
0.0001582864
0.0001082842
0.0001081469
0.0001080103
0.0001078717
0.0001077452
0.0001613867
0.0001611309
0.0001608391
0.0001604491
0.0001597823
0.0003854356
0.0001084168
0.000108285
0.0001081534
0.0001080196
0.0001078965
0.0001616241
0.0001613875
0.0001611348
0.0001608434
0.0001604576
0.0003891463
0.0003857454
0.0001085354
0.0001084087
0.0001082817
0.0001081523
0.000108032
0.0001618349
0.0001616087
0.0001613743
0.0001611221
0.0001608362
0.0003907205
0.0003892607
0.0003862872
0.000108641
0.0001085192
0.0001083967
0.0001082713
0.0001081537
0.0001620236
0.0001618047
0.0001615797
0.0001613444
0.0001610952
0.0003915664
0.0003906929
0.0003894543
0.0003869394
0.0001087343
0.0001086172
0.0001084989
0.0001083776
0.0001082627
0.0001621927
0.0001619798
0.000161761
0.0001615339
0.0001612991
0.0003921374
0.0003914526
0.0003907001
0.0003896535
0.0003877566
0.0001088185
0.000108706
0.0001085919
0.0001084745
0.0001083625
0.0001623482
0.0001621412
0.0001619279
0.0001617066
0.0001614788
0.0003926057
0.0003919907
0.0003913846
0.0003907162
0.0003899605
0.001069942
0.0001088948
0.0001087865
0.0001086765
0.0001085628
0.0001084535
0.0001624903
0.0001622888
0.0001620805
0.0001618638
0.0001616403
0.0003930131
0.0003924206
0.0003918396
0.0003912423
0.0003906468
0.0001089764
0.0001088728
0.0001087672
0.000108658
0.0001085522
0.000162645
0.0001624502
0.0001622484
0.0001620379
0.0001618202
0.0003934649
0.000392892
0.0003923305
0.0003917591
0.0003911937
0.0001090606
0.0001089619
0.0001088611
0.0001087564
0.0001086546
0.0001628058
0.0001626184
0.0001624238
0.0001622204
0.0001620094
0.0003939396
0.000393383
0.0003928343
0.0003922758
0.0003917209
0.0001091464
0.0001090528
0.0001089568
0.000108857
0.0001087596
0.0001629709
0.0001627914
0.0001626046
0.0001624091
0.0001622058
0.0003944337
0.0003938935
0.000393358
0.0003928112
0.0003922655
0.0001092316
0.000109143
0.000109052
0.0001089573
0.0001088644
0.000163136
0.0001629647
0.0001627861
0.0001625988
0.0001624037
0.000394933
0.0003944094
0.0003938873
0.000393352
0.0003928145
0.0001066525
0.0001064159
0.0001061662
0.0001068812
0.0001066694
0.0001064441
0.0001061886
0.0001071005
0.0001069061
0.0001067054
0.0001064798
0.0001062309
0.0001073175
0.0001071363
0.0001069532
0.0001067564
0.0001065512
0.0001592927
0.0001075317
0.0001073617
0.0001071916
0.000107014
0.0001068412
0.0001598582
0.0001591555
0.0001077472
0.0001075876
0.0001074289
0.0001072661
0.0001071143
0.0001603499
0.0001598806
0.0001589661
0.000107941
0.0001077896
0.0001076394
0.0001074866
0.0001073467
0.0001607443
0.0001603942
0.0001598603
0.0001587085
0.0001081172
0.0001079731
0.00010783
0.0001076849
0.000107553
0.000161081
0.000160793
0.0001604272
0.0001598302
0.0001584805
0.000108275
0.0001081374
0.0001080003
0.0001078613
0.0001077345
0.0001613702
0.000161115
0.000160826
0.0001604449
0.0001598049
0.0003856743
0.0001084168
0.000108285
0.0001081534
0.0001080196
0.0001078965
0.0001616241
0.0001613875
0.0001611348
0.0001608434
0.0001604576
0.0003891463
0.0003857454
0.0001085438
0.0001084174
0.0001082908
0.0001081617
0.0001080418
0.0001618502
0.0001616246
0.0001613904
0.0001611378
0.0001608491
0.0003907305
0.0003892119
0.0003860749
0.0001086571
0.0001085359
0.0001084139
0.0001082893
0.0001081724
0.0001620528
0.0001618351
0.0001616112
0.0001613765
0.0001611264
0.0003916279
0.0003907127
0.0003893669
0.0003865435
0.0001087577
0.0001086414
0.000108524
0.0001084036
0.0001082897
0.000162235
0.0001620239
0.000161807
0.0001615817
0.0001613481
0.0003922501
0.0003915406
0.0003907312
0.000389539
0.0003871829
0.0001088464
0.0001087347
0.0001086216
0.0001085053
0.0001083945
0.0001623981
0.0001621931
0.000161982
0.0001617629
0.0001615373
0.0003927454
0.0003921143
0.0003914759
0.0003907371
0.000389779
0.001066688
0.0001089261
0.0001088189
0.0001087101
0.0001085979
0.0001084902
0.0001625477
0.0001623488
0.0001621434
0.0001619299
0.0001617099
0.0003931848
0.0003925919
0.0003920156
0.0003914142
0.0003908151
0.001074555
0.001070928
0.000108998
0.0001088952
0.0001087904
0.000108682
0.0001085773
0.0001626841
0.0001624911
0.000162291
0.0001620826
0.000161867
0.0003935801
0.000393002
0.0003924328
0.0003918495
0.0003912691
0.000109075
0.0001089768
0.0001088765
0.0001087724
0.0001086714
0.0001628319
0.0001626458
0.0001624524
0.0001622504
0.000162041
0.0003940182
0.0003934591
0.0003929068
0.0003923431
0.0003917825
0.0001091544
0.000109061
0.0001089653
0.0001088659
0.0001087689
0.0001629853
0.0001628065
0.0001626204
0.0001624256
0.0001622232
0.000394477
0.0003939353
0.0003933974
0.0003928472
0.0003922975
0.0001092352
0.0001091467
0.0001090559
0.0001089613
0.0001088686
0.0001631425
0.0001629715
0.0001627932
0.0001626063
0.0001624116
0.0003949525
0.0003944283
0.0003939052
0.0003933686
0.0003928295
0.0001093154
0.0001092318
0.0001091459
0.0001090562
0.000108968
0.0001632994
0.0001631365
0.0001629663
0.0001627875
0.000162601
0.0003954314
0.0003949248
0.0003944166
0.0003938932
0.0003933645
0.0001068727
0.0001066617
0.0001064403
0.0001062008
0.0001070833
0.0001068886
0.0001066897
0.0001064729
0.0001062594
0.0001072893
0.0001071067
0.0001069231
0.0001067295
0.0001065394
0.0001593727
0.0001074944
0.0001073224
0.0001071508
0.0001069736
0.0001068067
0.000159848
0.0001593066
0.0001076979
0.0001075355
0.000107374
0.0001072088
0.000107057
0.0001602785
0.0001598677
0.0001591761
0.0001079029
0.0001077499
0.0001075978
0.0001074435
0.0001073031
0.0001606842
0.0001603559
0.0001598937
0.0001589873
0.0001080882
0.0001079428
0.0001077983
0.0001076518
0.0001075187
0.0001610299
0.0001607477
0.0001604027
0.0001598718
0.0001587351
0.0001082568
0.0001081185
0.0001079806
0.0001078407
0.000107713
0.0001613373
0.0001610829
0.0001607988
0.0001604341
0.0001598443
0.0003861245
0.000108408
0.0001082759
0.0001081439
0.0001080097
0.0001078862
0.0001616081
0.0001613712
0.000161119
0.0001608303
0.0001604535
0.0003891982
0.0003859688
0.0001085438
0.0001084174
0.0001082908
0.0001081617
0.0001080418
0.0001618502
0.0001616246
0.0001613904
0.0001611378
0.0001608491
0.0003907305
0.0003892119
0.0003860749
0.0001086652
0.0001085442
0.0001084226
0.0001082983
0.0001081818
0.0001620675
0.0001618504
0.0001616269
0.0001613926
0.000161142
0.0003916581
0.0003907212
0.0003893194
0.0003863388
0.0001087733
0.0001086574
0.0001085406
0.0001084207
0.0001083076
0.0001622629
0.0001620529
0.0001618371
0.0001616129
0.0001613799
0.0003923225
0.0003915953
0.0003907454
0.00038945
0.0003867888
0.000108869
0.000108758
0.0001086457
0.0001085302
0.0001084204
0.0001624385
0.0001622351
0.0001620257
0.0001618085
0.0001615847
0.0003928587
0.0003922154
0.0003915512
0.0003907562
0.0003896422
0.001064441
0.000108953
0.0001088467
0.0001087387
0.0001086275
0.0001085209
0.0001625954
0.0001623984
0.0001621949
0.0001619835
0.0001617658
0.0003933199
0.0003927174
0.0003921235
0.0003914889
0.0003908023
0.00107373
0.001068018
0.0001090282
0.0001089264
0.0001088227
0.0001087156
0.0001086123
0.0001627388
0.0001625481
0.0001623506
0.000162145
0.0001619327
0.0003937424
0.0003931659
0.0003926056
0.0003920301
0.0003914791
0.001077444
0.001074926
0.001071496
0.0001090959
0.0001089983
0.0001088988
0.0001087955
0.0001086954
0.0001628694
0.0001626847
0.0001624929
0.0001622927
0.0001620853
0.000394127
0.0003935633
0.0003930044
0.0003924303
0.0003918548
0.0001091682
0.0001090753
0.0001089801
0.0001088812
0.0001087849
0.0001630103
0.0001628325
0.0001626476
0.000162454
0.000162253
0.0003945509
0.0003940066
0.000393465
0.0003929095
0.0003923534
0.0001092429
0.0001091546
0.0001090641
0.0001089698
0.0001088775
0.0001631563
0.0001629859
0.0001628082
0.0001626219
0.000162428
0.0003949933
0.0003944675
0.0003939419
0.0003934019
0.0003928586
0.0001093189
0.0001092354
0.0001091496
0.00010906
0.000108972
0.0001633057
0.000163143
0.000162973
0.0001627946
0.0001626084
0.0003954498
0.0003949426
0.0003944334
0.0003939086
0.0003933782
0.0001093941
0.0001093155
0.0001092345
0.0001091497
0.0001090663
0.0001634546
0.0001632998
0.0001631378
0.0001629674
0.0001627894
0.0003959085
0.0003954195
0.0003949264
0.0003944165
0.0003938985
0.0001070751
0.0001068802
0.0001066818
0.0001064688
0.0001062706
0.000107273
0.0001070895
0.0001069056
0.0001067135
0.0001065314
0.0001594145
0.000107468
0.0001072943
0.0001071211
0.0001069434
0.0001067788
0.00015983
0.0001593855
0.0001076629
0.0001074985
0.0001073349
0.0001071681
0.000107016
0.000160227
0.0001598578
0.0001593252
0.0001078567
0.000107701
0.0001075461
0.0001073888
0.0001072457
0.0001605991
0.0001602854
0.0001598812
0.0001591948
0.0001080521
0.0001079051
0.0001077588
0.0001076105
0.0001074757
0.0001609652
0.0001606885
0.0001603652
0.0001599053
0.0001590112
0.0001082292
0.0001080896
0.0001079504
0.0001078092
0.00010768
0.0001612863
0.0001610324
0.000160754
0.00016041
0.0001598855
0.0003867156
0.0001083906
0.0001082578
0.000108125
0.00010799
0.0001078656
0.0001615761
0.0001613385
0.0001610872
0.0001608034
0.0001604428
0.0003892893
0.0003863925
0.0001085354
0.0001084087
0.0001082817
0.0001081523
0.000108032
0.0001618349
0.0001616087
0.0001613743
0.0001611221
0.0001608362