/*--------------------------------*- C++ -*----------------------------------*\
| =========                 |                                                 |
| \\      /  F ield         | OpenFOAM: The Open Source CFD Toolbox           |
|  \\    /   O peration     | Version:  2306                                  |
|   \\  /    A nd           | Website:  www.openfoam.com                      |
|    \\/     M anipulation  |                                                 |
\*---------------------------------------------------------------------------*/
FoamFile
{
    version     2.0;
    format      ascii;
    arch        "LSB;label=32;scalar=64";
    class       volScalarField;
    location    "1.2/fuel";
    object      eta.fuel;
}
// * * * * * * * * * * * * * * * * * * * * * * * * * * * * * * * * * * * * * //

dimensions      [1 2 -3 0 0 -1 0];

internalField   nonuniform List<scalar> 
16000
(
0.114767
0.1153511
0.1094965
0.1111714
0.1165105
0.1099027
0.1117264
0.1050821
0.1061877
0.1085882
0.1182141
0.1106914
0.1128276
0.1054075
0.1065746
0.1091238
0.1015816
0.1020206
0.103794
0.1069855
0.1203371
0.1118067
0.1144449
0.1060325
0.1073255
0.1101868
0.1018577
0.1023311
0.1041676
0.1075112
0.09869144
0.09872094
0.09979475
0.1022879
0.1063442
0.1225127
0.1131148
0.1164596
0.1068997
0.1083867
0.1117486
0.1023842
0.102927
0.1048925
0.108555
0.0989334
0.09898476
0.1000948
0.102654
0.1068691
0.09620737
0.09599945
0.09663428
0.09838095
0.1016527
0
0.1239829
0.1143475
0.1185234
0.1078841
0.1096301
0.1136958
0.1031049
0.1037534
0.105917
0.1100907
0.09939208
0.09948737
0.1006704
0.1033644
0.1079125
0.09642373
0.09623086
0.09688933
0.0986747
0.1020168
0
0.09401815
0.09366149
0.0940311
0.09530058
0.09776428
0
0
0.1247977
0.1151027
0.1199107
0.1087653
0.1108003
0.1156936
0.1039041
0.1046902
0.1071169
0.1120095
0.1000136
0.1001749
0.1014682
0.1043686
0.1094506
0.09683207
0.09666923
0.09737502
0.09923832
0.1027237
0
0.09421464
0.09386864
0.09425495
0.09555027
0.09805592
0
0
0.09204835
0.09160136
0.09179657
0.09276753
0.09470659
0
0
0
0.1251962
0.1154719
0.1206746
0.1092634
0.1115133
0.1170323
0.104591
0.1055272
0.108246
0.113985
0.1006899
0.1009359
0.102372
0.1055455
0.1113794
0.09738071
0.09726264
0.09803902
0.1000194
0.1037239
0
0.09458412
0.09425928
0.0946788
0.09602568
0.09861556
0
0
0.09222882
0.09178965
0.09199708
0.0929867
0.09495426
0
0
0
0.09025002
0.08974732
0.08982841
0.09059554
0.09219681
0
0
0
0
0.1253551
0.1156259
0.1210453
0.1094727
0.1118596
0.1177674
0.1049524
0.1059972
0.1089309
0.1153082
0.1012515
0.1015884
0.1031784
0.1066539
0.1133757
0.09796832
0.09790704
0.09877311
0.1009041
0.1048977
0
0.09507703
0.09478358
0.09525213
0.09667542
0.09939141
0
0
0.09256718
0.09214346
0.092375
0.09340157
0.09542582
0
0
0
0.09041731
0.08992044
0.09001079
0.0907919
0.0924141
0
0
0
0
0.08858772
0.08805391
0.08805729
0.08868377
0.09004755
0
0
0
0
0
0.1253551
0.1156783
0.1211921
0.1095369
0.1120026
0.1181231
0.1050796
0.1061928
0.1092621
0.1160354
0.1015275
0.1019288
0.1036285
0.1073241
0.1147155
0.09844156
0.09844032
0.09940104
0.1016929
0.1060051
0
0.0955978
0.09534381
0.09587375
0.09739326
0.1002705
0
0
0.09301581
0.0926149
0.0928818
0.09396253
0.09607035
0
0
0
0.09073016
0.09024475
0.09035329
0.09116188
0.0928254
0
0
0
0
0.08874391
0.08821454
0.08822509
0.08886243
0.09024218
0
0
0
0
0
0.08703617
0.08648752
0.08643935
0.08696403
0.08815752
0
0
0
0
0
0
0.1251962
0.1156783
0.1211921
0.1095491
0.1120507
0.1182635
0.105099
0.1062514
0.1093983
0.1163881
0.1016054
0.1020466
0.1038143
0.1076478
0.1154555
0.09865912
0.09869973
0.09972609
0.1021309
0.1066738
0
0.09600579
0.09579309
0.09638661
0.09800627
0.1010545
0
0
0.09348413
0.09311171
0.09342234
0.09457009
0.09678234
0
0
0
0.09114276
0.0906742
0.09080925
0.09165777
0.09338147
0
0
0
0
0.08903541
0.08851468
0.08853923
0.08919783
0.09060888
0
0
0
0
0
0.0871829
0.08663764
0.08659514
0.08712847
0.08833461
0
0
0
0
0
0
0.0855759
0.08502425
0.08494218
0.08539323
0.08645843
0
0
0
0
0
0
0
0.1247977
0.1156259
0.1210453
0.1095491
0.1120507
0.1182635
0.1050914
0.1062617
0.1094439
0.1165278
0.1015988
0.1020627
0.1038689
0.1077809
0.1158171
0.0987044
0.09877066
0.09983676
0.1023106
0.1069973
0
0.09618131
0.09599701
0.09663358
0.09832124
0.101488
0
0
0.09384187
0.09349899
0.09385418
0.0950701
0.09738978
0
0
0
0.09156888
0.09112125
0.09128873
0.09218598
0.09398346
0
0
0
0
0.08941802
0.08890997
0.08895481
0.08964405
0.09110028
0
0
0
0
0
0.08745626
0.08691755
0.08688606
0.08743619
0.08866699
0
0
0
0
0
0
0.08571446
0.0851654
0.08508788
0.08554596
0.08662142
0
0
0
0
0
0
0
0.0841919
0.08364566
0.08354279
0.0839396
0.08490717
0
0
0
0
0
0
0
0
0.1239829
0.1154719
0.1206746
0.1095369
0.1120026
0.1181231
0.1050914
0.1062617
0.1094439
0.1165278
0.1015801
0.1020543
0.103878
0.1078256
0.1159614
0.09868145
0.09876213
0.09985036
0.1023629
0.1071312
0
0.096204
0.09603695
0.09669906
0.098427
0.1016652
0
0
0.09398581
0.09366302
0.09404773
0.09530858
0.09769982
0
0
0
0.09188689
0.09146082
0.09166085
0.09260663
0.09447801
0
0
0
0
0.08980939
0.08931701
0.08938645
0.0901126
0.09162335
0
0
0
0
0
0.08781353
0.08728442
0.08726881
0.08784301
0.08910911
0
0
0
0
0
0
0.08597219
0.08542812
0.08535937
0.08583104
0.08692639
0
0
0
0
0
0
0
0.0843233
0.08377906
0.08367988
0.08408249
0.08505856
0
0
0
0
0
0
0
0
0.08287247
0.08233759
0.08222347
0.0825806
0.08347201
0
0
0
0
0
0
0
0
0
0.1225127
0.1151027
0.1199107
0.1094727
0.1118596
0.1177674
0.105099
0.1062514
0.1093983
0.1163881
0.1015801
0.1020543
0.103878
0.1078256
0.1159614
0.09865587
0.09874307
0.09984128
0.1023712
0.1071766
0
0.09617013
0.09601274
0.09668883
0.09843877
0.1017166
0
0
0.09399211
0.09368148
0.09408338
0.09537006
0.09780277
0
0
0
0.09200646
0.0915949
0.09181606
0.09279294
0.09471184
0
0
0
0
0.09009523
0.08961889
0.08971265
0.09047487
0.09203892
0
0
0
0
0
0.08817584
0.08765853
0.087662
0.08826486
0.08957296
0
0
0
0
0
0
0.08630776
0.08577099
0.08571482
0.08620585
0.08732944
0
0
0
0
0
0
0
0.08456744
0.08402699
0.08393487
0.08434863
0.08534111
0
0
0
0
0
0
0
0
0.08299755
0.08246421
0.08235311
0.0827151
0.08361367
0
0
0
0
0
0
0
0
0
0.08160825
0.08108902
0.08097061
0.08129892
0.08213048
0
0
0
0
0
0
0
0
0
0
0.1203371
0.1143475
0.1185234
0.1092634
0.1115133
0.1170323
0.1050796
0.1061928
0.1092621
0.1160354
0.1015988
0.1020627
0.1038689
0.1077809
0.1158171
0.09865587
0.09874307
0.09984128
0.1023712
0.1071766
0
0.09614018
0.09598716
0.09666947
0.0984292
0.1017248
0
0
0.09395068
0.09364685
0.09405802
0.09535843
0.09781339
0
0
0
0.09200057
0.09159778
0.09183105
0.09282529
0.09477068
0
0
0
0
0.09019551
0.08972987
0.08983911
0.09062383
0.092221
0
0
0
0
0
0.08843519
0.0879299
0.08795197
0.08858232
0.08993057
0
0
0
0
0
0
0.08664538
0.08611756
0.08607637
0.0865902
0.08774701
0
0
0
0
0
0
0
0.08488421
0.0843493
0.08426727
0.08469683
0.08571246
0
0
0
0
0
0
0
0
0.08322974
0.08269926
0.0825939
0.08296517
0.08387747
0
0
0
0
0
0
0
0
0
0.08172773
0.08120965
0.08109375
0.08142617
0.08226383
0
0
0
0
0
0
0
0
0
0
0.08039182
0.07989115
0.07977366
0.08008127
0.08086533
0
0
0
0
0
0
0
0
0
0
0.1182141
0.1131148
0.1164596
0.1087653
0.1108003
0.1156936
0.1049524
0.1059972
0.1089309
0.1153082
0.1016054
0.1020466
0.1038143
0.1076478
0.1154555
0.09868145
0.09876213
0.09985036
0.1023629
0.1071312
0
0.09614018
0.09598716
0.09666947
0.0984292
0.1017248
0
0
0.09391782
0.09361708
0.09403234
0.09533874
0.09780347
0
0
0
0.0919538
0.09155593
0.09179565
0.09279886
0.09475793
0
0
0
0
0.09018033
0.08972118
0.08983915
0.09063607
0.092251
0
0
0
0
0
0.08851996
0.08802262
0.08805629
0.08870331
0.09007574
0
0
0
0
0
0
0.08688257
0.08636384
0.08633704
0.08687233
0.08806021
0
0
0
0
0
0
0
0.08520064
0.08467249
0.08460238
0.08505035
0.08609289
0
0
0
0
0
0
0
0
0.08353009
0.08300378
0.08290657
0.08329091
0.08422248
0
0
0
0
0
0
0
0
0
0.08194937
0.08143339
0.08132218
0.08166241
0.08251173
0
0
0
0
0
0
0
0
0
0
0.0805063
0.08000647
0.07989104
0.08020218
0.0809915
0
0
0
0
0
0
0
0
0
0
0.07921698
0.07873701
0.07862419
0.07891734
0.07966332
0
0
0
0
0
0
0
0
0
0
0.1165105
0.1118067
0.1144449
0.1078841
0.1096301
0.1136958
0.104591
0.1055272
0.108246
0.113985
0.1015275
0.1019288
0.1036285
0.1073241
0.1147155
0.0987044
0.09877066
0.09983676
0.1023106
0.1069973
0
0.09617013
0.09601274
0.09668883
0.09843877
0.1017166
0
0
0.09391782
0.09361708
0.09403234
0.09533874
0.09780347
0
0
0
0.091919
0.09152338
0.09176592
0.09277298
0.09473789
0
0
0
0
0.09012972
0.08967423
0.08979679
0.09059985
0.09222359
0
0
0
0
0
0.08849761
0.08800511
0.08804522
0.08870102
0.09008591
0
0
0
0
0
0
0.08695467
0.08644189
0.08642387
0.08697183
0.08817781
0
0
0
0
0
0
0
0.08541915
0.08489779
0.08483897
0.08530394
0.08637115
0
0
0
0
0
0
0
0
0.0838282
0.08330692
0.08321925
0.08361868
0.08457241
0
0
0
0
0
0
0
0
0
0.0822353
0.08172236
0.08161776
0.08196893
0.08283453
0
0
0
0
0
0
0
0
0
0
0.08071855
0.08022022
0.08010862
0.08042638
0.08122572
0
0
0
0
0
0
0
0
0
0
0.07932697
0.07884759
0.07873648
0.07903264
0.07978323
0
0
0
0
0
0
0
0
0
0
0.07807873
0.0776208
0.07751557
0.07779893
0.07851423
0
0
0
0
0
0
0
0
0
0
0.1153511
0.1106914
0.1128276
0.1068997
0.1083867
0.1117486
0.1039041
0.1046902
0.1071169
0.1120095
0.1012515
0.1015884
0.1031784
0.1066539
0.1133757
0.09865912
0.09869973
0.09972609
0.1021309
0.1066738
0
0.096204
0.09603695
0.09669906
0.098427
0.1016652
0
0
0.09395068
0.09364685
0.09405802
0.09535843
0.09781339
0
0
0
0.091919
0.09152338
0.09176592
0.09277298
0.09473789
0
0
0
0
0.09009362
0.08963982
0.08976437
0.09057001
0.09219739
0
0
0
0
0
0.08844424
0.08795451
0.08799796
0.08865805
0.09004884
0
0
0
0
0
0
0.08692674
0.08641759
0.08640437
0.08695879
0.08817372
0
0
0
0
0
0
0
0.08548086
0.08496387
0.08491177
0.08538649
0.08646761
0
0
0
0
0
0
0
0
0.08403081
0.08351453
0.08343571
0.08384884
0.08482247
0
0
0
0
0
0
0
0
0
0.08251745
0.08200816
0.0819112
0.08227486
0.083159
0
0
0
0
0
0
0
0
0
0
0.08099172
0.08049554
0.08038929
0.08071627
0.08152952
0
0
0
0
0
0
0
0
0
0
0.07953084
0.07905246
0.07894448
0.07924628
0.08000555
0
0
0
0
0
0
0
0
0
0
0.07818465
0.07772713
0.07762331
0.07790928
0.0786286
0
0
0
0
0
0
0
0
0
0
0.07697281
0.07653785
0.07644226
0.07671958
0.0774099
0
0
0
0
0
0
0
0
0
0
0.114767
0.1099027
0.1117264
0.1060325
0.1073255
0.1101868
0.1031049
0.1037534
0.105917
0.1100907
0.1006899
0.1009359
0.102372
0.1055455
0.1113794
0.09844156
0.09844032
0.09940104
0.1016929
0.1060051
0
0.09618131
0.09599701
0.09663358
0.09832124
0.101488
0
0
0.09399211
0.09368148
0.09408338
0.09537006
0.09780277
0
0
0
0.0919538
0.09155593
0.09179565
0.09279886
0.09475793
0
0
0
0
0.09009362
0.08963982
0.08976437
0.09057001
0.09219739
0
0
0
0
0
0.08840729
0.08791884
0.08796374
0.08862559
0.09001874
0
0
0
0
0
0
0.0868714
0.08636435
0.08635359
0.08691106
0.08813002
0
0
0
0
0
0
0
0.08544859
0.08493428
0.08488577
0.08536529
0.08645297
0
0
0
0
0
0
0
0
0.08408394
0.08357081
0.08349708
0.08391781
0.08490228
0
0
0
0
0
0
0
0
0
0.08270642
0.08220075
0.08211073
0.08248546
0.08338593
0
0
0
0
0
0
0
0
0
0
0.08125985
0.08076625
0.08066611
0.08100348
0.0818324
0
0
0
0
0
0
0
0
0
0
0.07979264
0.0793157
0.07921206
0.07952165
0.08029291
0
0
0
0
0
0
0
0
0
0
0.07838098
0.07792407
0.07782279
0.07811359
0.07884048
0
0
0
0
0
0
0
0
0
0
0.07707504
0.07664033
0.07654592
0.0768255
0.07751938
0
0
0
0
0
0
0
0
0
0
0.07589571
0.07548419
0.07539983
0.07567393
0.07634394
0
0
0
0
0
0
0
0
0
0
0.1094965
0.1111714
0.1054075
0.1065746
0.1091238
0.1023842
0.102927
0.1048925
0.108555
0.1000136
0.1001749
0.1014682
0.1043686
0.1094506
0.09796832
0.09790704
0.09877311
0.1009041
0.1048977
0
0.09600579
0.09579309
0.09638661
0.09800627
0.1010545
0
0
0.09398581
0.09366302
0.09404773
0.09530858
0.09769982
0
0
0
0.09200057
0.09159778
0.09183105
0.09282529
0.09477068
0
0
0
0
0.09012972
0.08967423
0.08979679
0.09059985
0.09222359
0
0
0
0
0
0.08840729
0.08791884
0.08796374
0.08862559
0.09001874
0
0
0
0
0
0
0.08683393
0.08632786
0.08631816
0.08687685
0.08809735
0
0
0
0
0
0
0
0.08539192
0.08487918
0.08483247
0.08531417
0.08640463
0
0
0
0
0
0
0
0
0.08404831
0.08353714
0.08346603
0.08389034
0.08487967
0
0
0
0
0
0
0
0
0
0.08275241
0.08224894
0.08216274
0.08254336
0.08345241
0
0
0
0
0
0
0
0
0
0
0.08143707
0.08094597
0.08085125
0.08119762
0.08204003
0
0
0
0
0
0
0
0
0
0
0
0.08004841
0.07957317
0.07947441
0.0797927
0.0805773
0
0
0
0
0
0
0
0
0
0
0.07863259
0.07817656
0.07807879
0.07837622
0.07911349
0
0
0
0
0
0
0
0
0
0
0.07726454
0.07683013
0.07673779
0.07702153
0.07772204
0
0
0
0
0
0
0
0
0
0
0.07599457
0.07558318
0.07549979
0.07577587
0.07644904
0
0
0
0
0
0
0
0
0
0
0.07484455
0.07445657
0.07438449
0.07465767
0.07531102
0
0
0
0
0
0
0
0
0
0
0.1050821
0.1061877
0.1085882
0.1018577
0.1023311
0.1041676
0.1075112
0.09939208
0.09948737
0.1006704
0.1033644
0.1079125
0.09738071
0.09726264
0.09803902
0.1000194
0.1037239
0
0.0955978
0.09534381
0.09587375
0.09739326
0.1002705
0
0
0.09384187
0.09349899
0.09385418
0.0950701
0.09738978
0
0
0
0.09200646
0.0915949
0.09181606
0.09279294
0.09471184
0
0
0
0
0.09018033
0.08972118
0.08983915
0.09063607
0.092251
0
0
0
0
0
0.08844424
0.08795451
0.08799796
0.08865805
0.09004884
0
0
0
0
0
0
0.08683393
0.08632786
0.08631816
0.08687685
0.08809735
0
0
0
0
0
0
0
0.08535419
0.08484219
0.08479626
0.0852788
0.08637026
0
0
0
0
0
0
0
0
0.08399078
0.08348076
0.08341096
0.08383679
0.08482803
0
0
0
0
0
0
0
0
0
0.08271421
0.08221211
0.08212781
0.08251104
0.0834237
0
0
0
0
0
0
0
0
0
0
0.0814771
0.08098745
0.08089556
0.0812465
0.08209569
0
0
0
0
0
0
0
0
0
0
0
0.0802154
0.07974179
0.07964724
0.07997288
0.08076871
0
0
0
0
0
0
0
0
0
0
0
0
0.07887735
0.07842235
0.07832846
0.07863321
0.07938192
0
0
0
0
0
0
0
0
0
0
0.07750697
0.07707299
0.07698349
0.0772729
0.07798247
0
0
0
0
0
0
0
0
0
0
0.07617788
0.07576652
0.07568482
0.0759645
0.07664351
0
0
0
0
0
0
0
0
0
0
0.07494033
0.07455236
0.0744811
0.07475602
0.07541218
0
0
0
0
0
0
0
0
0
0
0.07381642
0.07345232
0.07339319
0.07366714
0.07430687
0
0
0
0
0
0
0
0
0
0
0.1015816
0.1020206
0.103794
0.1069855
0.0989334
0.09898476
0.1000948
0.102654
0.1068691
0.09683207
0.09666923
0.09737502
0.09923832
0.1027237
0
0.09507703
0.09478358
0.09525213
0.09667542
0.09939141
0
0
0.09348413
0.09311171
0.09342234
0.09457009
0.09678234
0
0
0
0.09188689
0.09146082
0.09166085
0.09260663
0.09447801
0
0
0
0
0.09019551
0.08972987
0.08983911
0.09062383
0.092221
0
0
0
0
0
0.08849761
0.08800511
0.08804522
0.08870102
0.09008591
0
0
0
0
0
0
0.0868714
0.08636435
0.08635359
0.08691106
0.08813002
0
0
0
0
0
0
0
0.08535419
0.08484219
0.08479626
0.0852788
0.08637026
0
0
0
0
0
0
0
0
0.08395297
0.08344352
0.08337426
0.08380065
0.08479252
0
0
0
0
0
0
0
0
0
0.08265619
0.08215493
0.08207153
0.08245578
0.0833697
0
0
0
0
0
0
0
0
0
0
0.08143693
0.0809482
0.08085763
0.08121044
0.08206225
0
0
0
0
0
0
0
0
0
0
0
0.08025041
0.07977768
0.07968517
0.08001432
0.08081553
0
0
0
0
0
0
0
0
0
0
0
0
0.07903541
0.07858133
0.07849068
0.07880144
0.07955957
0
0
0
0
0
0
0
0
0
0
0
0
0
0.07774193
0.07730839
0.07722198
0.07751756
0.07823701
0
0
0
0
0
0
0
0
0
0
0.07641205
0.0760007
0.07592129
0.07620586
0.07689281
0
0
0
0
0
0
0
0
0
0
0.07511798
0.07472985
0.07465994
0.07493799
0.07559935
0
0
0
0
0
0
0
0
0
0
0.07390934
0.07354519
0.07348674
0.07376222
0.07440448
0
0
0
0
0
0
0
0
0
0
0.07280934
0.07246872
0.0724234
0.07269938
0.07332788
0
0
0
0
0
0
0
0
0
0
0.09869144
0.09872094
0.09979475
0.1022879
0.1063442
0.09642373
0.09623086
0.09688933
0.0986747
0.1020168
0
0.09458412
0.09425928
0.0946788
0.09602568
0.09861556
0
0
0.09301581
0.0926149
0.0928818
0.09396253
0.09607035
0
0
0
0.09156888
0.09112125
0.09128873
0.09218598
0.09398346
0
0
0
0
0.09009523
0.08961889
0.08971265
0.09047487
0.09203892
0
0
0
0
0
0.08851996
0.08802262
0.08805629
0.08870331
0.09007574
0
0
0
0
0
0
0.08692674
0.08641759
0.08640437
0.08695879
0.08817372
0
0
0
0
0
0
0
0.08539192
0.08487918
0.08483247
0.08531417
0.08640463
0
0
0
0
0
0
0
0
0.08395297
0.08344352
0.08337426
0.08380065
0.08479252
0
0
0
0
0
0
0
0
0
0.08261846
0.08211761
0.08203458
0.08241918
0.08333346
0
0
0
0
0
0
0
0
0
0
0.0813787
0.08089057
0.08080059
0.08115403
0.08200661
0
0
0
0
0
0
0
0
0
0
0
0.08020876
0.07973661
0.07964497
0.0799754
0.08077847
0
0
0
0
0
0
0
0
0
0
0
0
0.07906625
0.07861253
0.07852331
0.07883674
0.07959913
0
0
0
0
0
0
0
0
0
0
0
0
0
0.07789221
0.07745897
0.077375
0.07767551
0.0784029
0
0
0
0
0
0
0
0
0
0
0
0
0
0
0.07663826
0.07622685
0.07614983
0.07643965
0.07713519
0
0
0
0
0
0
0
0
0
0
0.07534462
0.07495622
0.0748881
0.07517036
0.07583876
0
0
0
0
0
0
0
0
0
0
0.07408179
0.07371732
0.07365996
0.07393817
0.07458508
0
0
0
0
0
0
0
0
0
0
0.07289968
0.07255887
0.07251414
0.07279148
0.07342227
0
0
0
0
0
0
0
0
0
0
0.07182177
0.07150396
0.07147255
0.07175196
0.07237113
0
0
0
0
0
0
0
0
0
0
0.09620737
0.09599945
0.09663428
0.09838095
0.1016527
0
0.09421464
0.09386864
0.09425495
0.09555027
0.09805592
0
0
0.09256718
0.09214346
0.092375
0.09340157
0.09542582
0
0
0
0.09114276
0.0906742
0.09080925
0.09165777
0.09338147
0
0
0
0
0.08980939
0.08931701
0.08938645
0.0901126
0.09162335
0
0
0
0
0
0.08843519
0.0879299
0.08795197
0.08858232
0.08993057
0
0
0
0
0
0
0.08695467
0.08644189
0.08642387
0.08697183
0.08817781
0
0
0
0
0
0
0
0.08544859
0.08493428
0.08488577
0.08536529
0.08645297
0
0
0
0
0
0
0
0
0.08399078
0.08348076
0.08341096
0.08383679
0.08482803
0
0
0
0
0
0
0
0
0
0.08261846
0.08211761
0.08203458
0.08241918
0.08333346
0
0
0
0
0
0
0
0
0
0
0.08134116
0.08085333
0.08076358
0.08111721
0.08196993
0
0
0
0
0
0
0
0
0
0
0
0.08015055
0.0796788
0.0795875
0.07991828
0.08072173
0
0
0
0
0
0
0
0
0
0
0
0
0.07902357
0.07857008
0.07848139
0.07879565
0.0795593
0
0
0
0
0
0
0
0
0
0
0
0
0
0.07791959
0.07748627
0.07740319
0.07770572
0.07843646
0
0
0
0
0
0
0
0
0
0
0
0
0
0
0.07678172
0.07637011
0.07629483
0.07658868
0.07729096
0
0
0
0
0
0
0
0
0
0
0
0
0
0
0
0.07556294
0.07517413
0.0751078
0.0753945
0.07607041
0
0
0
0
0
0
0
0
0
0
0.07430161
0.07393659
0.07388064
0.07416247
0.07481562
0
0
0
0
0
0
0
0
0
0
0.07306748
0.0727261
0.07268224
0.07296197
0.07359692
0
0
0
0
0
0
0
0
0
0
0.07190974
0.07159168
0.07156068
0.07184133
0.07246258
0
0
0
0
0
0
0
0
0
0
0.07085296
0.07055667
0.07053895
0.0708224
0.07143422
0
0
0
0
0
0
0
0
0
0
0.09401815
0.09366149
0.0940311
0.09530058
0.09776428
0
0
0.09222882
0.09178965
0.09199708
0.0929867
0.09495426
0
0
0
0.09073016
0.09024475
0.09035329
0.09116188
0.0928254
0
0
0
0
0.08941802
0.08890997
0.08895481
0.08964405
0.09110028
0
0
0
0
0
0.08817584
0.08765853
0.087662
0.08826486
0.08957296
0
0
0
0
0
0
0.08688257
0.08636384
0.08633704
0.08687233
0.08806021
0
0
0
0
0
0
0
0.08548086
0.08496387
0.08491177
0.08538649
0.08646761
0
0
0
0
0
0
0
0
0.08404831
0.08353714
0.08346603
0.08389034
0.08487967
0
0
0
0
0
0
0
0
0
0.08265619
0.08215493
0.08207153
0.08245578
0.0833697
0
0
0
0
0
0
0
0
0
0
0.08134116
0.08085333
0.08076358
0.08111721
0.08196993
0
0
0
0
0
0
0
0
0
0
0
0.08011327
0.07964174
0.07955058
0.0798814
0.08068484
0
0
0
0
0
0
0
0
0
0
0
0
0.07896561
0.07851231
0.07842378
0.07873815
0.07950189
0
0
0
0
0
0
0
0
0
0
0
0
0
0.07787625
0.0774429
0.07735999
0.077663
0.07839455
0
0
0
0
0
0
0
0
0
0
0
0
0
0
0.07680622
0.07639421
0.07631935
0.07661463
0.07731956
0
0
0
0
0
0
0
0
0
0
0
0
0
0
0
0.07570037
0.07531099
0.07524583
0.07553578
0.07621741
0
0
0
0
0
0
0
0
0
0
0
0
0
0
0
0
0.07451286
0.07414705
0.07409246
0.07437802
0.07503775
0
0
0
0
0
0
0
0
0
0
0.07328118
0.07293892
0.07289611
0.073179
0.07381948
0
0
0
0
0
0
0
0
0
0
0.07207329
0.07175451
0.07172408
0.07200683
0.07263183
0
0
0
0
0
0
0
0
0
0
0.07093875
0.07064214
0.07062474
0.07090923
0.07152297
0
0
0
0
0
0
0
0
0
0
0.0699012
0.06962621
0.06962131
0.06990907
0.07051469
0
0
0
0
0
0
0
0
0
0
0.09204835
0.09160136
0.09179657
0.09276753
0.09470659
0
0
0
0.09041731
0.08992044
0.09001079
0.0907919
0.0924141
0
0
0
0
0.08903541
0.08851468
0.08853923
0.08919783
0.09060888
0
0
0
0
0
0.08781353
0.08728442
0.08726881
0.08784301
0.08910911
0
0
0
0
0
0
0.08664538
0.08611756
0.08607637
0.0865902
0.08774701
0
0
0
0
0
0
0
0.08541915
0.08489779
0.08483897
0.08530394
0.08637115
0
0
0
0
0
0
0
0
0.08408394
0.08357081
0.08349708
0.08391781
0.08490228
0
0
0
0
0
0
0
0
0
0.08271421
0.08221211
0.08212781
0.08251104
0.0834237
0
0
0
0
0
0
0
0
0
0
0.0813787
0.08089057
0.08080059
0.08115403
0.08200661
0
0
0
0
0
0
0
0
0
0
0
0.08011327
0.07964174
0.07955058
0.0798814
0.08068484
0
0
0
0
0
0
0
0
0
0
0
0
0.0789287
0.07847551
0.07838703
0.07870136
0.07946496
0
0
0
0
0
0
0
0
0
0
0
0
0
0.07781869
0.07738537
0.07730243
0.07760538
0.07833679
0
0
0
0
0
0
0
0
0
0
0
0
0
0
0.07676248
0.07635026
0.0762753
0.07657072
0.07727609
0
0
0
0
0
0
0
0
0
0
0
0
0
0
0
0.07572246
0.07533242
0.07526733
0.07555821
0.07624186
0
0
0
0
0
0
0
0
0
0
0
0
0
0
0
0
0.07464506
0.07427826
0.07422441
0.07451256
0.07517712
0
0
0
0
0
0
0
0
0
0
0
0
0
0
0
0
0
0.07348617
0.07314273
0.07310082
0.0733869
0.07403314
0
0
0
0
0
0
0
0
0
0
0.07228144
0.07196156
0.07193178
0.07221725
0.07284722
0
0
0
0
0
0
0
0
0
0
0.07109839
0.07080095
0.07078392
0.07107016
0.0716873
0
0
0
0
0
0
0
0
0
0
0.06998497
0.06970962
0.06970495
0.06999362
0.07060093
0
0
0
0
0
0
0
0
0
0
0.06896556
0.06871101
0.06871912
0.06901076
0.06961096
0
0
0
0
0
0
0
0
0
0
0.09025002
0.08974732
0.08982841
0.09059554
0.09219681
0
0
0
0
0.08874391
0.08821454
0.08822509
0.08886243
0.09024218
0
0
0
0
0
0.08745626
0.08691755
0.08688606
0.08743619
0.08866699
0
0
0
0
0
0
0.08630776
0.08577099
0.08571482
0.08620585
0.08732945
0
0
0
0
0
0
0
0.08520064
0.08467249
0.08460238
0.08505035
0.08609289
0
0
0
0
0
0
0
0
0.08403081
0.08351453
0.08343571
0.08384884
0.08482247
0
0
0
0
0
0
0
0
0
0.08275241
0.08224894
0.08216274
0.08254336
0.08345241
0
0
0
0
0
0
0
0
0
0
0.08143693
0.0809482
0.08085763
0.08121044
0.08206225
0
0
0
0
0
0
0
0
0
0
0
0.08015055
0.0796788
0.0795875
0.07991828
0.08072173
0
0
0
0
0
0
0
0
0
0
0
0
0.0789287
0.07847551
0.07838703
0.07870136
0.07946496
0
0
0
0
0
0
0
0
0
0
0
0
0
0.0777822
0.07734893
0.07726594
0.07756877
0.07829996
0
0
0
0
0
0
0
0
0
0
0
0
0
0
0.07670543
0.07629314
0.07621801
0.07651317
0.07721824
0
0
0
0
0
0
0
0
0
0
0
0
0
0
0
0.07567857
0.07528814
0.07522278
0.07551351
0.07619726
0
0
0
0
0
0
0
0
0
0
0
0
0
0
0
0
0.07466525
0.07429748
0.07424341
0.07453211
0.07519815
0
0
0
0
0
0
0
0
0
0
0
0
0
0
0
0
0
0.07361384
0.07326906
0.0732274
0.07351557
0.07416589
0
0
0
0
0
0
0
0
0
0
0
0
0
0
0
0
0
0
0.0724808
0.07215948
0.07213014
0.07241825
0.07305334
0
0
0
0
0
0
0
0
0
0
0.07130148
0.07100278
0.07098611
0.07127458
0.07189616
0
0
0
0
0
0
0
0
0
0
0.07014101
0.06986475
0.06986029
0.07015046
0.07076074
0
0
0
0
0
0
0
0
0
0
0.06904746
0.0687925
0.06880078
0.06909322
0.06969494
0
0
0
0
0
0
0
0
0
0
0.0680449
0.06781024
0.06783088
0.06812701
0.06872182
0
0
0
0
0
0
0
0
0
0
0.08858772
0.08805391
0.08805729
0.08868377
0.09004755
0
0
0
0
0
0.0871829
0.08663764
0.08659514
0.08712847
0.08833461
0
0
0
0
0
0
0.08597219
0.08542812
0.08535937
0.08583104
0.08692639
0
0
0
0
0
0
0
0.08488421
0.0843493
0.08426727
0.08469683
0.08571246
0
0
0
0
0
0
0
0
0.0838282
0.08330692
0.08321925
0.08361868
0.08457241
0
0
0
0
0
0
0
0
0
0.08270642
0.08220075
0.08211073
0.08248546
0.08338593
0
0
0
0
0
0
0
0
0
0
0.0814771
0.08098745
0.08089556
0.0812465
0.08209569
0
0
0
0
0
0
0
0
0
0
0
0.08020876
0.07973661
0.07964497
0.0799754
0.08077847
0
0
0
0
0
0
0
0
0
0
0
0
0.07896561
0.07851231
0.07842378
0.07873815
0.07950189
0
0
0
0
0
0
0
0
0
0
0
0
0
0.0777822
0.07734893
0.07726594
0.07756877
0.07829996
0
0
0
0
0
0
0
0
0
0
0
0
0
0
0.0766694
0.0762571
0.07618187
0.07647682
0.07718161
0
0
0
0
0
0
0
0
0
0
0
0
0
0
0
0.07562215
0.07523154
0.0751659
0.07545625
0.07613951
0
0
0
0
0
0
0
0
0
0
0
0
0
0
0
0
0.07462149
0.07425311
0.07419859
0.07448696
0.07515282
0
0
0
0
0
0
0
0
0
0
0
0
0
0
0
0
0
0.07363255
0.07328655
0.07324434
0.07353275
0.07418414
0
0
0
0
0
0
0
0
0
0
0
0
0
0
0
0
0
0
0.07260452
0.07228159
0.07225208
0.07254174
0.07318032
0
0
0
0
0
0
0
0
0
0
0
0
0
0
0
0
0
0
0
0.07149575
0.07119542
0.07117886
0.07146943
0.07209547
0
0
0
0
0
0
0
0
0
0
0.07033945
0.07006179
0.07005748
0.07034953
0.07096369
0
0
0
0
0
0
0
0
0
0
0.06920021
0.06894423
0.06895259
0.06924633
0.06985072
0
0
0
0
0
0
0
0
0
0
0.06812506
0.06788996
0.0679107
0.06820754
0.06880374
0
0
0
0
0
0
0
0
0
0
0.06713987
0.06692286
0.06695584
0.06725637
0.06784684
0
0
0
0
0
0
0
0
0
0
0.08703617
0.08648752
0.08643935
0.08696403
0.08815752
0
0
0
0
0
0
0.08571446
0.0851654
0.08508788
0.08554596
0.08662142
0
0
0
0
0
0
0
0.08456744
0.08402699
0.08393487
0.08434863
0.08534111
0
0
0
0
0
0
0
0
0.08353009
0.08300378
0.08290657
0.08329091
0.08422248
0
0
0
0
0
0
0
0
0
0.08251745
0.08200816
0.0819112
0.08227486
0.083159
0
0
0
0
0
0
0
0
0
0
0.08143707
0.08094597
0.08085125
0.08119762
0.08204003
0
0
0
0
0
0
0
0
0
0
0
0.08025041
0.07977768
0.07968517
0.08001432
0.08081553
0
0
0
0
0
0
0
0
0
0
0
0
0.07902357
0.07857008
0.07848139
0.07879565
0.0795593
0
0
0
0
0
0
0
0
0
0
0
0
0
0.07781869
0.07738537
0.07730243
0.07760538
0.07833679
0
0
0
0
0
0
0
0
0
0
0
0
0
0
0.0766694
0.0762571
0.07618187
0.07647682
0.07718161
0
0
0
0
0
0
0
0
0
0
0
0
0
0
0
0.07558661
0.07519595
0.07513016
0.07542025
0.07610315
0
0
0
0
0
0
0
0
0
0
0
0
0
0
0
0
0.07456581
0.07419713
0.07414223
0.07443013
0.07509538
0
0
0
0
0
0
0
0
0
0
0
0
0
0
0
0
0
0.07358913
0.07324235
0.07319948
0.07348738
0.0741384
0
0
0
0
0
0
0
0
0
0
0
0
0
0
0
0
0
0
0.07262211
0.07229777
0.07226744
0.07255697
0.07319627
0
0
0
0
0
0
0
0
0
0
0
0
0
0
0
0
0
0
0
0.07161602
0.07131386
0.07129682
0.07158845
0.07221737
0
0
0
0
0
0
0
0
0
0
0
0
0
0
0
0
0
0
0
0
0.07052912
0.07024968
0.07024521
0.07053894
0.07115694
0
0
0
0
0
0
0
0
0
0
0.06939443
0.06913691
0.06914522
0.06944055
0.07004838
0
0
0
0
0
0
0
0
0
0
0.06827478
0.06803858
0.06805926
0.06835722
0.06895583
0
0
0
0
0
0
0
0
0
0
0.06721843
0.06700094
0.06703395
0.0673351
0.06792685
0
0
0
0
0
0
0
0
0
0
0.06624937
0.06604959
0.06609302
0.06639813
0.0669846
0
0
0
0
0
0
0
0
0
0
0.0855759
0.08502425
0.08494218
0.08539323
0.08645843
0
0
0
0
0
0
0
0.0843233
0.08377906
0.08367988
0.08408249
0.08505856
0
0
0
0
0
0
0
0
0.08322974
0.08269926
0.0825939
0.08296517
0.08387747
0
0
0
0
0
0
0
0
0
0.0822353
0.08172236
0.08161776
0.08196893
0.08283453
0
0
0
0
0
0
0
0
0
0
0.08125985
0.08076625
0.08066611
0.08100348
0.0818324
0
0
0
0
0
0
0
0
0
0
0.0802154
0.07974179
0.07964724
0.07997288
0.08076871
0
0
0
0
0
0
0
0
0
0
0
0
0.07906625
0.07861253
0.07852331
0.07883674
0.07959913
0
0
0
0
0
0
0
0
0
0
0
0
0
0.07787625
0.0774429
0.07735999
0.077663
0.07839455
0
0
0
0
0
0
0
0
0
0
0
0
0
0
0.07670543
0.07629314
0.07621801
0.07651317
0.07721824
0
0
0
0
0
0
0
0
0
0
0
0
0
0
0
0.07558661
0.07519595
0.07513016
0.07542025
0.07610315
0
0
0
0
0
0
0
0
0
0
0
0
0
0
0
0
0.07453082
0.07416202
0.07410693
0.07439453
0.07505937
0
0
0
0
0
0
0
0
0
0
0
0
0
0
0
0
0
0.07353429
0.07318711
0.07314374
0.07343107
0.0740814
0
0
0
0
0
0
0
0
0
0
0
0
0
0
0
0
0
0
0.07257919
0.07225395
0.07222279
0.0725116
0.07315035
0
0
0
0
0
0
0
0
0
0
0
0
0
0
0
0
0
0
0
0.07163277
0.07132906
0.07131098
0.07160219
0.07223145
0
0
0
0
0
0
0
0
0
0
0
0
0
0
0
0
0
0
0
0
0.07064635
0.07036492
0.07035971
0.07065413
0.07127445
0
0
0
0
0
0
0
0
0
0
0
0
0
0
0
0
0
0
0
0
0.06957997
0.06932048
0.06932842
0.0696251
0.07023627
0
0
0
0
0
0
0
0
0
0
0.06846514
0.06822729
0.06824772
0.06854701
0.06914871
0
0
0
0
0
0
0
0
0
0
0.06736537
0.06714671
0.06717955
0.06748163
0.06807556
0
0
0
0
0
0
0
0
0
0
0.06632642
0.06612616
0.06616957
0.06647522
0.06706284
0
0
0
0
0
0
0
0
0
0
0.0653745
0.06518944
0.06524323
0.06555139
0.06613441
0
0
0
0
0
0
0
0
0
0
0.0841919
0.08364566
0.08354279
0.0839396
0.08490717
0
0
0
0
0
0
0
0
0.08299755
0.08246421
0.08235311
0.0827151
0.08361367
0
0
0
0
0
0
0
0
0
0.08194937
0.08143339
0.08132218
0.08166241
0.08251173
0
0
0
0
0
0
0
0
0
0
0.08099172
0.08049554
0.08038929
0.08071627
0.08152952
0
0
0
0
0
0
0
0
0
0
0.08004841
0.07957317
0.07947441
0.0797927
0.0805773
0
0
0
0
0
0
0
0
0
0
0.07903541
0.07858133
0.07849068
0.07880144
0.07955957
0
0
0
0
0
0
0
0
0
0
0
0
0
0.07791959
0.07748627
0.07740319
0.07770572
0.07843646
0
0
0
0
0
0
0
0
0
0
0
0
0
0
0.07676248
0.07635026
0.0762753
0.07657072
0.07727609
0
0
0
0
0
0
0
0
0
0
0
0
0
0
0
0.07562215
0.07523154
0.0751659
0.07545625
0.07613951
0
0
0
0
0
0
0
0
0
0
0
0
0
0
0
0
0.07453082
0.07416202
0.07410693
0.07439453
0.07505937
0
0
0
0
0
0
0
0
0
0
0
0
0
0
0
0
0
0.07349988
0.07315253
0.07310892
0.07339591
0.0740458
0
0
0
0
0
0
0
0
0
0
0
0
0
0
0
0
0
0
0.07252526
0.07219954
0.07216779
0.07245592
0.0730939
0
0
0
0
0
0
0
0
0
0
0
0
0
0
0
0
0
0
0
0.07159048
0.07128577
0.07126674
0.07155707
0.07218556
0
0
0
0
0
0
0
0
0
0
0
0
0
0
0
0
0
0
0
0
0.07066251
0.07037941
0.070373
0.07066677
0.0712871
0
0
0
0
0
0
0
0
0
0
0
0
0
0
0
0
0
0
0
0
0.06969459
0.06943293
0.06943992
0.06973697
0.07035003
0
0
0
0
0
0
0
0
0
0
0
0
0
0
0
0
0
0
0
0
0.06864697
0.06840701
0.06842682
0.06872718
0.06933181
0
0
0
0
0
0
0
0
0
0
0.06755222
0.06733179
0.06736422
0.06766738
0.06826408
0
0
0
0
0
0
0
0
0
0
0.06647076
0.06626931
0.06631244
0.06661887
0.06720844
0
0
0
0
0
0
0
0
0
0
0.06545019
0.06526457
0.06531832
0.06562695
0.06621102
0
0
0
0
0
0
0
0
0
0
0.06451406
0.06434352
0.06440549
0.06471696
0.06529537
0
0
0
0
0
0
0
0
0
0
0.08287247
0.08233759
0.08222347
0.0825806
0.08347201
0
0
0
0
0
0
0
0
0
0.08172773
0.08120965
0.08109375
0.08142617
0.08226383
0
0
0
0
0
0
0
0
0
0
0.08071855
0.08022022
0.08010862
0.08042638
0.08122572
0
0
0
0
0
0
0
0
0
0
0.07979264
0.0793157
0.07921206
0.07952165
0.08029291
0
0
0
0
0
0
0
0
0
0
0.07887735
0.07842235
0.07832846
0.07863321
0.07938192
0
0
0
0
0
0
0
0
0
0
0.07789221
0.07745897
0.077375
0.07767551
0.0784029
0
0
0
0
0
0
0
0
0
0
0
0
0
0
0.07680622
0.07639421
0.07631935
0.07661463
0.07731956
0
0
0
0
0
0
0
0
0
0
0
0
0
0
0
0.07567857
0.07528814
0.07522278
0.07551351
0.07619726
0
0
0
0
0
0
0
0
0
0
0
0
0
0
0
0
0.07456581
0.07419713
0.07414223
0.07443013
0.07509538
0
0
0
0
0
0
0
0
0
0
0
0
0
0
0
0
0
0.07349988
0.07315253
0.07310892
0.07339591
0.0740458
0
0
0
0
0
0
0
0
0
0
0
0
0
0
0
0
0
0
0.07249145
0.07216553
0.07213349
0.07242124
0.07305873
0
0
0
0
0
0
0
0
0
0
0
0
0
0
0
0
0
0
0
0.07153751
0.07123226
0.07121257
0.07150214
0.07212975
0
0
0
0
0
0
0
0
0
0
0
0
0
0
0
0
0
0
0
0
0.07062096
0.07033678
0.07032933
0.07062209
0.0712415
0
0
0
0
0
0
0
0
0
0
0
0
0
0
0
0
0
0
0
0
0.06971041
0.06944693
0.06945259
0.06974881
0.07036164
0
0
0
0
0
0
0
0
0
0
0
0
0
0
0
0
0