/*--------------------------------*- C++ -*----------------------------------*\
| =========                 |                                                 |
| \\      /  F ield         | OpenFOAM: The Open Source CFD Toolbox           |
|  \\    /   O peration     | Version:  2306                                  |
|   \\  /    A nd           | Website:  www.openfoam.com                      |
|    \\/     M anipulation  |                                                 |
\*---------------------------------------------------------------------------*/
FoamFile
{
    version     2.0;
    format      ascii;
    arch        "LSB;label=32;scalar=64";
    class       volScalarField;
    location    "1.2/fuel";
    object      H2;
}
// * * * * * * * * * * * * * * * * * * * * * * * * * * * * * * * * * * * * * //

dimensions      [0 0 0 0 0 0 0];

internalField   nonuniform List<scalar> 
16000
(
0.6045243
0.6093046
0.5354655
0.6047954
0.6190188
0.5385178
0.6095816
0.4720342
0.5356685
0.6053265
0.633767
0.5446799
0.6193086
0.4742688
0.5387239
0.6101244
0.4209805
0.4721867
0.5360665
0.6061104
0.6530077
0.5539404
0.6340779
0.4787698
0.5448926
0.6198762
0.4227217
0.4744232
0.5391281
0.6109255
0.3797512
0.4210991
0.472486
0.5366545
0.6071439
0.6739004
0.5658692
0.6533506
0.4855111
0.5541636
0.6346866
0.4262221
0.4789282
0.5453096
0.6207138
0.3811537
0.4228415
0.4747262
0.539725
0.6119815
0.345853
0.3798461
0.4213319
0.4729284
0.5374297
0.6081699
0.6898987
0.5786728
0.6742849
0.4941558
0.5661081
0.6540221
0.4314498
0.485676
0.5546013
0.6355849
0.383969
0.4263447
0.4792391
0.5459254
0.621818
0.3470093
0.3812496
0.4230769
0.4751741
0.5405121
0.6130299
0.3174899
0.3459308
0.3800327
0.4216762
0.4735118
0.5381993
0.6090205
0.7002038
0.58848
0.6903092
0.5033871
0.5789315
0.6750382
0.4381277
0.4943303
0.5665766
0.655013
0.3881636
0.4315767
0.4859996
0.5552477
0.6367691
0.3493274
0.3840667
0.4265853
0.4796986
0.5467374
0.6229143
0.3184608
0.3470878
0.3814379
0.423425
0.4757649
0.5412935
0.6138992
0.2933985
0.3175549
0.3460838
0.3803087
0.4221305
0.474091
0.538837
0.6098666
0.7061073
0.594856
0.7006287
0.5104301
0.5887496
0.6911132
0.4452281
0.5035737
0.5794391
0.6761503
0.3935054
0.4382611
0.4946727
0.5672685
0.6563196
0.3527748
0.3882644
0.4318258
0.4864777
0.5561
0.6379448
0.320405
0.3494073
0.3842588
0.4269412
0.4803046
0.5475435
0.6238238
0.2942258
0.3185263
0.3472422
0.3817166
0.4238842
0.4763513
0.5419411
0.614764
0.2726717
0.2934536
0.3176829
0.3463104
0.380673
0.4225815
0.4745708
0.5394711
0.6107081
0.7087711
0.5985572
0.70654
0.5150028
0.595131
0.7014605
0.4506269
0.5106228
0.5892785
0.6923
0.3991658
0.4453698
0.5039402
0.580189
0.6776176
0.3571543
0.3936109
0.438523
0.4951788
0.5681809
0.6576173
0.323292
0.352857
0.3884626
0.4321943
0.4871083
0.5569461
0.6389222
0.2958811
0.3204716
0.3495645
0.3845431
0.4274106
0.4809061
0.5482118
0.624729
0.2733855
0.2942813
0.3186552
0.3474707
0.3820844
0.4243401
0.4768372
0.5425849
0.6156241
0.2546439
0.2727191
0.2935622
0.3178723
0.3466094
0.3810347
0.422955
0.4750477
0.5401015
0.6115449
0.7087711
0.6002457
0.7092073
0.5176584
0.5988348
0.7073869
0.4541258
0.515198
0.5956701
0.7026882
0.4034579
0.4507724
0.5110011
0.5900599
0.6938658
0.3617824
0.3992773
0.4456482
0.504482
0.5811783
0.6790757
0.3269523
0.3572401
0.3938183
0.4389104
0.4958463
0.5690868
0.6587018
0.2983361
0.3233604
0.3530187
0.3887559
0.4326803
0.4877344
0.5576487
0.6398967
0.2748126
0.2959375
0.3206027
0.3497971
0.3849182
0.4278767
0.4814047
0.5488766
0.6256298
0.2552662
0.2734332
0.2943907
0.3188462
0.3477723
0.3824496
0.4247177
0.4773201
0.5432251
0.6164794
0.2388153
0.2546851
0.2728125
0.2937231
0.3181225
0.3469064
0.3813342
0.4233262
0.4755216
0.5407281
0.6155926
0.7061073
0.6002457
0.7092073
0.5188711
0.6005244
0.7100609
0.4561567
0.5178547
0.599379
0.7086365
0.4062353
0.4542727
0.5155813
0.5964666
0.7043075
0.3652838
0.403572
0.4510583
0.5115604
0.5910907
0.6954219
0.3308118
0.3618727
0.3994968
0.4460601
0.5051969
0.582161
0.6803057
0.3014435
0.3270234
0.3574087
0.3941253
0.4394216
0.4965091
0.5698425
0.6597889
0.2769271
0.2983939
0.323495
0.3532581
0.3891429
0.4331629
0.488254
0.5583487
0.6408684
0.2565099
0.274861
0.2960486
0.3207968
0.3501042
0.3852906
0.4282628
0.4819005
0.5495378
0.6265261
0.2393629
0.2553077
0.2735272
0.2945528
0.3190983
0.3480719
0.382752
0.4250928
0.4778
0.5438614
0.6206174
0.2248035
0.2388514
0.2547663
0.2729509
0.2939356
0.3183709
0.3471522
0.3816317
0.4236949
0.4759925
0.543758
0.6183754
0.7002038
0.5985572
0.70654
0.5188711
0.6005244
0.7100609
0.4570841
0.5190679
0.6010709
0.7113204
0.4078464
0.4563041
0.5182402
0.6001829
0.7102846
0.3675466
0.4063503
0.4545613
0.5161478
0.5975171
0.7059168
0.3337264
0.365376
0.4037965
0.4514812
0.5122984
0.5921147
0.6967348
0.304714
0.3308865
0.3620505
0.3998216
0.4466038
0.505907
0.5829872
0.6815502
0.2795997
0.3015035
0.3271634
0.3576584
0.3945304
0.4399291
0.4970616
0.5705987
0.6608788
0.2583508
0.2769766
0.2985077
0.3236942
0.353574
0.3895271
0.4335633
0.4887715
0.559046
0.6418372
0.2404567
0.2565519
0.2749564
0.2962131
0.3210531
0.3504091
0.3855992
0.4286467
0.4823934
0.5501954
0.6308647
0.2252892
0.2393993
0.2553894
0.2736666
0.2947669
0.3193488
0.3483199
0.3830525
0.4254656
0.4782769
0.5469387
0.6234753
0.2123107
0.2248355
0.2389227
0.2548867
0.2731338
0.2941467
0.3185766
0.3473964
0.3819273
0.4240612
0.4782687
0.5458344
0.620484
0.6898987
0.594856
0.7006287
0.5176584
0.5988348
0.7073869
0.4570841
0.5190679
0.6010709
0.7113204
0.4085819
0.4572317
0.5194542
0.601878
0.7129814
0.3688583
0.4079616
0.4565937
0.5188099
0.6012431
0.7119225
0.3356078
0.3676393
0.4065764
0.4549882
0.5168953
0.5985605
0.7072718
0.30718
0.3338025
0.3655574
0.4041288
0.4520394
0.5130314
0.5929758
0.6980635
0.2824083
0.3047769
0.3310336
0.3623137
0.4002504
0.4471438
0.5065037
0.5838207
0.6828096
0.260675
0.279651
0.3016216
0.3273707
0.357988
0.3949327
0.4403521
0.4976142
0.5713553
0.6619712
0.2420744
0.2583937
0.2770742
0.2986763
0.3239573
0.3538877
0.3898459
0.433962
0.4892868
0.5597405
0.6465354
0.2262588
0.2404935
0.2566347
0.2750978
0.2964304
0.3213076
0.3506616
0.3859058
0.4290283
0.4828834
0.5533767
0.633912
0.2127445
0.2253213
0.239471
0.2555106
0.2738507
0.2949795
0.3195561
0.3485662
0.3833509
0.425836
0.4805824
0.5490551
0.6256515
0.2011015
0.2123392
0.2248985
0.2390284
0.2550458
0.2733155
0.2943214
0.3187808
0.3476389
0.3822208
0.4258313
0.4798252
0.5474047
0.6219008
0.6739004
0.58848
0.6903092
0.5150028
0.595131
0.7014605
0.4561567
0.5178547
0.599379
0.7086365
0.4085819
0.4572317
0.5194542
0.601878
0.7129814
0.369457
0.4086972
0.4575217
0.5200252
0.6029424
0.714632
0.3366979
0.3689511
0.4081882
0.4570221
0.5195615
0.6022962
0.7132995
0.3087704
0.3356842
0.3678216
0.4069109
0.4555515
0.5176377
0.5994365
0.7086406
0.2845233
0.3072439
0.3339523
0.3658259
0.4045675
0.4525938
0.5136475
0.5938446
0.6994083
0.2631141
0.2824619
0.3049008
0.3312516
0.3626614
0.4006764
0.4475975
0.5071053
0.5846615
0.6840841
0.2441147
0.2607194
0.2797521
0.3017966
0.3276444
0.3583153
0.3952679
0.4407751
0.4981669
0.5721124
0.6672978
0.2276919
0.242112
0.2584784
0.2772188
0.298899
0.3242186
0.354148
0.3901632
0.4343589
0.4897998
0.5631057
0.6500197
0.21361
0.2262913
0.2405661
0.2567575
0.2752845
0.2966463
0.3215184
0.3509126
0.3862106
0.4294076
0.4852533
0.5555942
0.6362763
0.2014912
0.2127731
0.2253848
0.2395773
0.2556707
0.2740336
0.2951555
0.319762
0.3488109
0.3836474
0.427626
0.4821642
0.5506618
0.6271203
0.1909869
0.201127
0.2123954
0.2249921
0.2391681
0.2552038
0.2734658
0.2944949
0.3189836
0.3478798
0.3836391
0.4270398
0.4810009
0.5484583
0.6226126
0.6530077
0.5786728
0.6742849
0.5104301
0.5887496
0.6911132
0.4541258
0.515198
0.5956701
0.7026882
0.4078464
0.4563041
0.5182402
0.6001829
0.7102846
0.369457
0.4086972
0.4575217
0.5200252
0.6029424
0.714632
0.3371953
0.3695498
0.408924
0.4579506
0.5207786
0.6039996
0.7160188
0.3096913
0.3367743
0.3691336
0.4085234
0.4575874
0.5203079
0.6031791
0.7146884
0.2858861
0.3088345
0.3358346
0.3680915
0.4073526
0.456111
0.5182606
0.6003189
0.7100231
0.2649489
0.2845777
0.3073699
0.3341742
0.3661806
0.4050032
0.4530597
0.5142688
0.5947213
0.7007693
0.2462536
0.2631605
0.2825678
0.3050844
0.3315396
0.3630068
0.4010342
0.4480547
0.5077118
0.5855097
0.6903579
0.2294978
0.2441535
0.2608069
0.279902
0.3020278
0.3279164
0.358588
0.3956031
0.4411981
0.4987197
0.5757972
0.6718482
0.2148886
0.2277251
0.2421861
0.2586039
0.2774099
0.2991203
0.3244354
0.354407
0.390479
0.4347539
0.4922848
0.5655589
0.6528988
0.2022687
0.213639
0.2263555
0.2406738
0.2569198
0.27547
0.2968251
0.3217279
0.351162
0.3865134
0.4312413
0.4869004
0.5573035
0.6379019
0.1913391
0.2015169
0.2128296
0.2254789
0.2397179
0.2558298
0.274185
0.2953303
0.3199664
0.3490539
0.3850799
0.428852
0.4833636
0.5517438
0.6278609
0.181814
0.19101
0.2011774
0.2124788
0.2251158
0.239307
0.2553346
0.2736151
0.2946672
0.319185
0.3490433
0.3846062
0.4279519
0.4817891
0.5489871
0.633767
0.5658692
0.6533506
0.5033871
0.5789315
0.6750382
0.4506269
0.5106228
0.5892785
0.6923
0.4062353
0.4542727
0.5155813
0.5964666
0.7043075
0.3688583
0.4079616
0.4565937
0.5188099
0.6012431
0.7119225
0.3371953
0.3695498
0.408924
0.4579506
0.5207786
0.6039996
0.7160188
0.3101115
0.3372717
0.3697324
0.4092595
0.4585166
0.5215266
0.6048855
0.7174165
0.2866749
0.3097554
0.3369247
0.3694038
0.408966
0.4581488
0.5209334
0.6040672
0.7160891
0.2661304
0.2859407
0.3089607
0.3360573
0.368448
0.4077913
0.4565804
0.5188877
0.6012076
0.7114195
0.2478609
0.264996
0.2846852
0.3075565
0.3344673
0.3665329
0.4053693
0.4535294
0.5148953
0.5956057
0.7074689
0.2313891
0.2462941
0.263252
0.2827247
0.3053271
0.3318257
0.3632968
0.4013948
0.4485156
0.5083233
0.5896727
0.69706
0.2164986
0.2295321
0.2442301
0.2609367
0.2801
0.3022575
0.3281429
0.3588606
0.3959381
0.4416209
0.501409
0.5788311
0.6762728
0.2034166
0.2149182
0.2277906
0.242296
0.2587697
0.2775997
0.2993037
0.3246511
0.3546647
0.3907934
0.436667
0.4940892
0.5675528
0.6550157
0.1920413
0.2022946
0.2136962
0.2264507
0.2408161
0.257081
0.2756236
0.2970027
0.321936
0.3514098
0.3879775
0.4325137
0.488168
0.558472
0.6387333
0.1821337
0.1913622
0.2015676
0.2129135
0.2256033
0.2398575
0.2559614
0.2743354
0.2955039
0.3201695
0.3502281
0.3860599
0.4297809
0.4841704
0.5522883
0.1734572
0.1818349
0.1910554
0.2012522
0.2125891
0.2252387
0.2394218
0.2554645
0.2737633
0.2948383
0.3201579
0.349836
0.3853358
0.4285631
0.4821845
0.6190188
0.5539404
0.6340779
0.4941558
0.5661081
0.6540221
0.4452281
0.5035737
0.5794391
0.6761503
0.4034579
0.4507724
0.5110011
0.5900599
0.6938658
0.3675466
0.4063503
0.4545613
0.5161478
0.5975171
0.7059168
0.3366979
0.3689511
0.4081882
0.4570221
0.5195615
0.6022962
0.7132995
0.3101115
0.3372717
0.3697324
0.4092595
0.4585166
0.5215266
0.6048855
0.7174165
0.2870348
0.3101755
0.3374221
0.3700027
0.4097023
0.4590787
0.5221531
0.605776
0.7188251
0.2668139
0.2867295
0.3098816
0.3371475
0.3697606
0.4094055
0.4586191
0.5215623
0.6049605
0.7175017
0.2488953
0.2661775
0.2860483
0.3091479
0.3363515
0.368802
0.4081592
0.4570528
0.5195189
0.6021027
0.7182798
0.2328092
0.247902
0.2650887
0.2848444
0.3078031
0.3347585
0.3668289
0.4057384
0.4540029
0.515527
0.5999467
0.7145234
0.2181831
0.2314248
0.246374
0.2633878
0.2829321
0.3055682
0.3320659
0.3635891
0.4017583
0.4489802
0.5113229
0.5938749
0.7054933
0.2048609
0.216529
0.2295996
0.2443437
0.2611083
0.2802967
0.3024489
0.3283693
0.3591332
0.3962731
0.4436779
0.5036107
0.5816845
0.6802245
0.1930775
0.203443
0.2149764
0.2278877
0.2424413
0.2589344
0.2777572
0.2994863
0.3248657
0.3549213
0.3923154
0.4380537
0.4955518
0.5689963
0.6561666
0.1827711
0.1920646
0.2023459
0.213781
0.2265766
0.2409575
0.2572144
0.2757762
0.2971791
0.3221428
0.3526076
0.3889921
0.433492
0.4890333
0.559067
0.1737487
0.1821547
0.1914079
0.2016428
0.2130244
0.2257269
0.2399731
0.2560922
0.2744846
0.2956763
0.3211505
0.3510306
0.3868019
0.4304054
0.4845762
0.1658124
0.1734762
0.1818761
0.1911229
0.2013512
0.2126988
0.2253405
0.2395359
0.2555935
0.2739105
0.2956644
0.3208202
0.3504337
0.3858243
0.4288695
0.6093046
0.5446799
0.6193086
0.4855111
0.5541636
0.6346866
0.4381277
0.4943303
0.5665766
0.655013
0.3991658
0.4453698
0.5039402
0.580189
0.6776176
0.3652838
0.403572
0.4510583
0.5115604
0.5910907
0.6954219
0.3356078
0.3676393
0.4065764
0.4549882
0.5168953
0.5985605
0.7072718
0.3096913
0.3367743
0.3691336
0.4085234
0.4575874
0.5203079
0.6031791
0.7146884
0.2870348
0.3101755
0.3374221
0.3700027
0.4097023
0.4590787
0.5221531
0.605776
0.7188251
0.2671257
0.2870893
0.3103017
0.3376449
0.3703595
0.4101421
0.4595493
0.5227826
0.6066712
0.7202448
0.2494936
0.266861
0.286837
0.3100687
0.3374418
0.370115
0.4097737
0.4590918
0.5221946
0.6058591
0.7244315
0.2337225
0.2489364
0.2662703
0.2862079
0.3093951
0.3366438
0.3690989
0.4085295
0.4575282
0.5201544
0.6064883
0.7251704
0.2194471
0.2328453
0.2479829
0.2652263
0.2850549
0.3080481
0.3350031
0.3671272
0.4061104
0.4544803
0.5186262
0.6042799
0.7230649
0.206371
0.2182148
0.2314952
0.2464926
0.2635672
0.2831383
0.3057707
0.332308
0.3638837
0.4021246
0.4512588
0.5143309
0.5989386
0.7164184
0.1943806
0.2048881
0.216589
0.2296998
0.2444938
0.2612787
0.2804605
0.3026401
0.3285956
0.3594056
0.3979022
0.4453589
0.5056725
0.5841573
0.6829576
0.1837112
0.1931013
0.2034951
0.2150628
0.2280161
0.2425857
0.259071
0.2779138
0.299668
0.3250793
0.3561631
0.3934172
0.4391766
0.4966082
0.5697718
0.1743298
0.1827922
0.1921108
0.2024219
0.2138931
0.2267017
0.2410746
0.257347
0.2759278
0.2973544
0.3231421
0.3534369
0.3897717
0.4341594
0.4894736
0.1660793
0.1737678
0.1821961
0.1914757
0.2017423
0.2131346
0.2258292
0.2400879
0.256222
0.2746329
0.2965088
0.3218206
0.351638
0.3873006
0.4307194
0.1587928
0.1658297
0.1735137
0.1819373
0.1912123
0.2014496
0.2127895
0.2254415
0.2396491
0.2557215
0.2746213
0.2962265
0.3213193
0.3508338
0.3860693
0.6045243
0.5385178
0.6095816
0.4787698
0.5448926
0.6198762
0.4314498
0.485676
0.5546013
0.6355849
0.3935054
0.4382611
0.4946727
0.5672685
0.6563196
0.3617824
0.3992773
0.4456482
0.504482
0.5811783
0.6790757
0.3337264
0.365376
0.4037965
0.4514812
0.5122984
0.5921147
0.6967348
0.3087704
0.3356842
0.3678216
0.4069109
0.4555515
0.5176377
0.5994365
0.7086406
0.2866749
0.3097554
0.3369247
0.3694038
0.408966
0.4581488
0.5209334
0.6040672
0.7160891
0.2671257
0.2870893
0.3103017
0.3376449
0.3703595
0.4101421
0.4595493
0.5227826
0.6066712
0.7202448
0.2497664
0.2671727
0.2871968
0.3104887
0.3379391
0.370714
0.4105103
0.460022
0.5234151
0.6075711
0.727204
0.2342506
0.2495346
0.2669537
0.2869964
0.3103158
0.3377341
0.3704118
0.4101437
0.4595669
0.5228302
0.6102559
0.7311618
0.2202596
0.2337586
0.2490173
0.266408
0.2864187
0.3096407
0.3368889
0.3693977
0.408902
0.4580067
0.5232666
0.6106822
0.7331473
0.2075034
0.2194791
0.2329165
0.248103
0.2654081
0.2852641
0.3082539
0.3352497
0.3674279
0.4064853
0.4568217
0.5217039
0.6093185
0.7332637
0.1957422
0.2063993
0.2182774
0.2315997
0.2466494
0.2637455
0.2833114
0.3059747
0.332552
0.3641806
0.4039208
0.453541
0.5179371
0.6052714
0.7313195
0.1848928
0.1944051
0.2049418
0.2166781
0.2298323
0.244643
0.2614207
0.2806243
0.3028312
0.3288218
0.3607303
0.3992323
0.4469316
0.5074523
0.5858247
0.1751866
0.1837328
0.1931483
0.2035726
0.2151771
0.2281437
0.2427054
0.259207
0.2780696
0.2998487
0.3261132
0.3570614
0.394309
0.439987
0.4971748
0.1666112
0.174349
0.1828341
0.1921794
0.2025224
0.2140046
0.2268053
0.2411909
0.2574787
0.2760784
0.2982015
0.3238334
0.3540739
0.3903033
0.4344988
0.1590381
0.1660967
0.1738055
0.1822576
0.1915655
0.2018412
0.2132258
0.2259308
0.2402019
0.2563509
0.2753488
0.2970772
0.3223274
0.352046
0.3875513
0.1523253
0.1588087
0.1658641
0.1735694
0.1820183
0.1913011
0.201531
0.2128796
0.2255417
0.2397615
0.2563397
0.2751045
0.29665
0.3216534
0.3510344
0.5354655
0.6047954
0.4742688
0.5387239
0.6101244
0.4262221
0.4789282
0.5453096
0.6207138
0.3881636
0.4315767
0.4859996
0.5552477
0.6367691
0.3571543
0.3936109
0.438523
0.4951788
0.5681809
0.6576173
0.3308118
0.3618727
0.3994968
0.4460601
0.5051969
0.582161
0.6803057
0.30718
0.3338025
0.3655574
0.4041288
0.4520394
0.5130314
0.5929758
0.6980635
0.2858861
0.3088345
0.3358346
0.3680915
0.4073526
0.456111
0.5182606
0.6003189
0.7100231
0.2668139
0.2867295
0.3098816
0.3371475
0.3697606
0.4094055
0.4586191
0.5215623
0.6049605
0.7175017
0.2497664
0.2671727
0.2871968
0.3104887
0.3379391
0.370714
0.4105103
0.460022
0.5234151
0.6075711
0.727204
0.2344914
0.2498073
0.2672654
0.2873561
0.3107357
0.3382313
0.3710106
0.41088
0.4604969
0.5240506
0.6119715
0.7338579
0.2207293
0.2342867
0.2496154
0.2670913
0.2872071
0.3105613
0.3379789
0.3707101
0.4105155
0.4600445
0.5259391
0.6143335
0.7387383
0.208231
0.2202916
0.2338299
0.2491374
0.26659
0.2866282
0.3098467
0.3371354
0.3696983
0.409277
0.4603494
0.5262309
0.6153504
0.7422209
0.1967625
0.207532
0.2195423
0.2330223
0.2482617
0.2655889
0.2854398
0.3084613
0.3354982
0.3677309
0.4083242
0.4591451
0.5252689
0.6151356
0.7452604
0.1861267
0.1957676
0.2064553
0.2183702
0.231738
0.2468053
0.2638953
0.2834858
0.3061802
0.3327978
0.3656361
0.4057194
0.4562744
0.5224238
0.6136652
0.7565959
0.1762629
0.184915
0.1944535
0.2050216
0.216796
0.229964
0.2447673
0.2615626
0.280788
0.3030223
0.3299218
0.3618113
0.4004763
0.4482879
0.5086487
0.1673952
0.1752062
0.1837753
0.1932181
0.203675
0.2152907
0.2282495
0.2428245
0.2593422
0.2782247
0.3007236
0.3268605
0.3577881
0.3949525
0.4404216
0.1595267
0.1666288
0.1743871
0.1828962
0.19227
0.2026224
0.2140969
0.2269082
0.2413065
0.2576096
0.2768061
0.2987873
0.3243643
0.3545082
0.3905737
0.1525514
0.1590541
0.1661312
0.1738615
0.182339
0.1916547
0.201923
0.2133164
0.2260317
0.240315
0.2569733
0.2758372
0.297507
0.3226679
0.3522511
0.1463477
0.1523399
0.1588402
0.165915
0.1736432
0.1820989
0.1913745
0.2016118
0.2129689
0.2256412
0.2403044
0.2567599
0.2754686
0.2969334
0.3218209
0.4720342
0.5356685
0.6053265
0.4227217
0.4744232
0.5391281
0.6109255
0.383969
0.4263447
0.4792391
0.5459254
0.621818
0.3527748
0.3882644
0.4318258
0.4864777
0.5561
0.6379448
0.3269523
0.3572401
0.3938183
0.4389104
0.4958463
0.5690868
0.6587018
0.304714
0.3308865
0.3620505
0.3998216
0.4466038
0.505907
0.5829872
0.6815502
0.2845233
0.3072439
0.3339523
0.3658259
0.4045675
0.4525938
0.5136475
0.5938446
0.6994083
0.2661304
0.2859407
0.3089607
0.3360573
0.368448
0.4077913
0.4565804
0.5188877
0.6012076
0.7114195
0.2494936
0.266861
0.286837
0.3100687
0.3374418
0.370115
0.4097737
0.4590918
0.5221946
0.6058591
0.7244315
0.2344914
0.2498073
0.2672654
0.2873561
0.3107357
0.3382313
0.3710106
0.41088
0.4604969
0.5240506
0.6119715
0.7338579
0.2209434
0.2345274
0.2498881
0.2674028
0.2875666
0.3109811
0.3384759
0.3713086
0.4112514
0.4609739
0.5271568
0.6159947
0.7412544
0.2086515
0.2207613
0.2343578
0.2497353
0.267273
0.2874164
0.3107669
0.3382248
0.3710098
0.4108892
0.4623797
0.5288128
0.6187502
0.7471542
0.1974178
0.2082596
0.2203548
0.2339356
0.2492963
0.266771
0.2868038
0.3100539
0.3373835
0.3700008
0.4111123
0.4625795
0.5295212
0.6204816
0.7523549
0.1870508
0.1967882
0.2075885
0.2196362
0.2331621
0.2484196
0.2657407
0.2856168
0.3086703
0.3357486
0.3692169
0.4101488
0.4618349
0.5293693
0.6217791
0.7611757
0.1773862
0.1861497
0.1958179
0.2065383
0.218493
0.2318754
0.2469362
0.2640461
0.2836615
0.3063874
0.3340031
0.3670936
0.4078731
0.45967
0.5283389
0.6275946
0.7706786
0.1683796
0.176283
0.1849587
0.1945253
0.2051271
0.2169131
0.2300737
0.2448914
0.2617044
0.2809516
0.303951
0.3308189
0.3628221
0.4015489
0.4491993
0.1602468
0.1674131
0.1752449
0.1838385
0.1933103
0.2037768
0.2153849
0.2283547
0.242943
0.2594767
0.2789751
0.3013556
0.327465
0.3583124
0.3952975
0.1530018
0.1595429
0.1666636
0.1744436
0.1829784
0.1923602
0.2027052
0.2141886
0.2270104
0.2414212
0.2582417
0.277309
0.2992369
0.3247261
0.3547289
0.1465568
0.1525661
0.1590857
0.1661824
0.1739356
0.1824199
0.1917286
0.2020042
0.2134063
0.2261318
0.2408613
0.2573978
0.2762065
0.2977956
0.322839
0.1408071
0.1463612
0.1523689
0.158887
0.1659825
0.1737166
0.1821655
0.1914474
0.201692
0.2130577
0.2261218
0.2406732
0.2570764
0.2757122
0.2970754
0.4209805
0.4721867
0.5360665
0.6061104
0.3811537
0.4228415
0.4747262
0.539725
0.6119815
0.3493274
0.3840667
0.4265853
0.4796986
0.5467374
0.6229143
0.323292
0.352857
0.3884626
0.4321943
0.4871083
0.5569461
0.6389222
0.3014435
0.3270234
0.3574087
0.3941253
0.4394216
0.4965091
0.5698425
0.6597889
0.2824083
0.3047769
0.3310336
0.3623137
0.4002504
0.4471438
0.5065037
0.5838207
0.6828096
0.2649489
0.2845777
0.3073699
0.3341742
0.3661806
0.4050032
0.4530597
0.5142688
0.5947213
0.7007693
0.2488953
0.2661775
0.2860483
0.3091479
0.3363515
0.368802
0.4081592
0.4570528
0.5195189
0.6021027
0.7182798
0.2342506
0.2495346
0.2669537
0.2869964
0.3103158
0.3377341
0.3704118
0.4101437
0.4595669
0.5228302
0.6102559
0.7311618
0.2209434
0.2345274
0.2498881
0.2674028
0.2875666
0.3109811
0.3384759
0.3713086
0.4112514
0.4609739
0.5271568
0.6159947
0.7412544
0.2088432
0.2209753
0.2345985
0.2500079
0.2675844
0.2877757
0.3111865
0.3387215
0.3716077
0.4116244
0.4633048
0.5299883
0.6202995
0.7493899
0.1977965
0.20868
0.2208243
0.2344633
0.2498939
0.2674537
0.2875916
0.3109734
0.3384719
0.3713109
0.412716
0.4645372
0.5319189
0.6234886
0.7563788
0.1876442
0.1974435
0.208316
0.2204486
0.2340754
0.2494541
0.2669226
0.2869805
0.3102623
0.3376331
0.3714812
0.4128592
0.4650541
0.5331278
0.6260352
0.7652352
0.1782271
0.187074
0.1968389
0.2076723
0.2197603
0.2333012
0.2485521
0.2658937
0.2857952
0.3088809
0.3369764
0.3706914
0.4122608
0.4649251
0.5340344
0.6303553
0.7726723
0.1694065
0.1774071
0.1861951
0.1958926
0.2066481
0.2186151
0.2319908
0.247068
0.2641981
0.2838385
0.3074029
0.33521
0.3688386
0.4105463
0.4641364
0.538101
0.6357756
0.78136
0.1611506
0.168398
0.1763228
0.1850237
0.1946202
0.2052319
0.2170107
0.2301833
0.2450155
0.2618461
0.2817468
0.3047083
0.3316577
0.3636935
0.4022695
0.1536654
0.1602632
0.1674484
0.1753023
0.1839221
0.1934021
0.2038612
0.2154786
0.2284594
0.2430609
0.2601278
0.279517
0.3018668
0.3279009
0.3585935
0.1469733
0.1530167
0.1595748
0.1667153
0.1745185
0.1830601
0.1924348
0.2027874
0.2142796
0.2271119
0.2419756
0.2586784
0.277695
0.2995433
0.3249101
0.141001
0.1465704
0.1525952
0.1591327
0.1662502
0.1740093
0.1824868
0.1918019
0.2020849
0.2134955
0.2266153
0.2412338
0.2577187
0.2764545
0.2979406
0.1356579
0.1408196
0.146388
0.152412
0.158949
0.1660497
0.1737773
0.1822316
0.1915198
0.2017717
0.2134861
0.2264481
0.2409509
0.2572881
0.2758343
0.3797512
0.4210991
0.472486
0.5366545
0.6071439
0.3470093
0.3812496
0.4230769
0.4751741
0.5405121
0.6130299
0.320405
0.3494073
0.3842588
0.4269412
0.4803046
0.5475435
0.6238238
0.2983361
0.3233604
0.3530187
0.3887559
0.4326803
0.4877344
0.5576487
0.6398967
0.2795997
0.3015035
0.3271634
0.3576584
0.3945304
0.4399291
0.4970616
0.5705987
0.6608788
0.2631141
0.2824619
0.3049008
0.3312516
0.3626614
0.4006764
0.4475975
0.5071053
0.5846615
0.6840841
0.2478609
0.264996
0.2846852
0.3075565
0.3344673
0.3665329
0.4053693
0.4535294
0.5148953
0.5956057
0.7074689
0.2337225
0.2489364
0.2662703
0.2862079
0.3093951
0.3366438
0.3690989
0.4085295
0.4575282
0.5201544
0.6064883
0.7251704
0.2207293
0.2342867
0.2496154
0.2670913
0.2872071
0.3105613
0.3379789
0.3707101
0.4105155
0.4600445
0.5259391
0.6143335
0.7387383
0.2088432
0.2209753
0.2345985
0.2500079
0.2675844
0.2877757
0.3111865
0.3387215
0.3716077
0.4116244
0.4633048
0.5299883
0.6202995
0.7493899
0.1979691
0.2088716
0.2210383
0.2347039
0.2501663
0.2677649
0.2879507
0.3113926
0.3389681
0.3719081
0.4134466
0.4654284
0.5330125
0.6248716
0.7582458
0.187987
0.1978221
0.2087363
0.2209179
0.2346029
0.2500515
0.267605
0.2877677
0.3111809
0.3387202
0.3727829
0.4144035
0.4668688
0.5352443
0.6285159
0.7679863
0.1787669
0.1876674
0.1974942
0.2083998
0.2205727
0.2342144
0.2495865
0.2670752
0.2871583
0.310472
0.3388545
0.3728903
0.4147978
0.4677648
0.5370211
0.6328823
0.7749974
0.1701749
0.1782481
0.1871199
0.1969143
0.2077833
0.2198838
0.2334179
0.2486857
0.2660478
0.285975
0.3099136
0.3381948
0.3723983
0.414686
0.4684354
0.5400356
0.6370952
0.7823636
0.1620929
0.1694256
0.1774484
0.1862627
0.1959914
0.2067574
0.2187177
0.2321071
0.2472009
0.2643513
0.2847065
0.3084197
0.3366549
0.3710035
0.4140575
0.4714852
0.5438026
0.6423912
0.7897296
0.1544979
0.1611674
0.1684343
0.1763819
0.1851097
0.1947147
0.2053193
0.2171082
0.2302929
0.2451395
0.2625351
0.282395
0.3054163
0.3323808
0.364279
0.1475867
0.1536805
0.1602956
0.167501
0.1753784
0.1840052
0.1934782
0.2039452
0.2155719
0.2285636
0.2436314
0.2605978
0.2799552
0.3022354
0.3281347
0.1413872
0.146987
0.153046
0.1596222
0.1667837
0.1745929
0.1831277
0.192509
0.202869
0.21437
0.2276022
0.2423585
0.2590135
0.2779579
0.299699
0.1358383
0.1410136
0.1465973
0.1526385
0.1591949
0.1663176
0.1740703
0.1825533
0.1918746
0.2021649
0.2139265
0.2269448
0.2415153
0.2579341
0.276579
0.1308608
0.1356696
0.1408445
0.1464279
0.1524691
0.1590106
0.1661052
0.1738376
0.1822973
0.1915917
0.2021561
0.213777
0.2266939
0.2411366
0.2573941
0.345853
0.3798461
0.4213319
0.4729284
0.5374297
0.6081699
0.3184608
0.3470878
0.3814379
0.423425
0.4757649
0.5412935
0.6138992
0.2958811
0.3204716
0.3495645
0.3845431
0.4274106
0.4809061
0.5482118
0.624729
0.2769271
0.2983939
0.323495
0.3532581
0.3891429
0.4331629
0.488254
0.5583487
0.6408684
0.260675
0.279651
0.3016216
0.3273707
0.357988
0.3949327
0.4403521
0.4976142
0.5713553
0.6619712
0.2462536
0.2631605
0.2825678
0.3050844
0.3315396
0.3630068
0.4010342
0.4480547
0.5077118
0.5855097
0.6903579
0.2328092
0.247902
0.2650887
0.2848444
0.3078031
0.3347585
0.3668289
0.4057384
0.4540029
0.515527
0.5999467
0.7145234
0.2202596
0.2337586
0.2490173
0.266408
0.2864187
0.3096407
0.3368889
0.3693977
0.408902
0.4580067
0.5232666
0.6106822
0.7331473
0.2086515
0.2207613
0.2343578
0.2497353
0.267273
0.2874164
0.3107669
0.3382248
0.3710098
0.4108892
0.4623797
0.5288128
0.6187502
0.7471542
0.1979691
0.2088716
0.2210383
0.2347039
0.2501663
0.2677649
0.2879507
0.3113926
0.3389681
0.3719081
0.4134466
0.4654284
0.5330125
0.6248716
0.7582458
0.1881432
0.1979946
0.2089278
0.2211318
0.2348433
0.2503237
0.267916
0.2881264
0.3115997
0.3392157
0.3733758
0.4151066
0.4676966
0.5362189
0.629687
0.7693539
0.1790786
0.1880101
0.1978727
0.2088199
0.2210417
0.2347416
0.2501834
0.2677569
0.2879445
0.3113894
0.3399338
0.3741426
0.4162276
0.4693641
0.5387657
0.6346434
0.7768036
0.170668
0.1787879
0.1877132
0.1975695
0.2085106
0.220696
0.2343309
0.2497196
0.2672286
0.2873371
0.3114982
0.3400172
0.3744542
0.4169207
0.4706881
0.5418101
0.6386628
0.7837125
0.1627977
0.1701941
0.1782898
0.1871881
0.1970141
0.2078937
0.2199875
0.2335356
0.2488203
0.2662031
0.2868563
0.3109385
0.3396052
0.3743574
0.417438
0.4729423
0.544739
0.643173
0.7903173
0.1553656
0.1621103
0.1694633
0.1775097
0.1863521
0.1960897
0.2068491
0.218821
0.2322242
0.2473347
0.2651021
0.2855756
0.3096372
0.3384467
0.373844
0.4198225
0.4757555
0.548409
0.6478752
0.7963216
0.148356
0.1545134
0.1612007
0.1684883
0.1764601
0.1851952
0.1947933
0.2054066
0.2172056
0.2304023
0.2457424
0.2630965
0.2830011
0.3060266
0.3328667
0.1419558
0.1476006
0.1537103
0.1603438
0.1675705
0.1754541
0.1840741
0.1935538
0.2040287
0.2156646
0.2290677
0.244043
0.2609778
0.2802712
0.302433
0.1361972
0.1413999
0.1470141
0.1530897
0.159685
0.1668517
0.1746545
0.1831949
0.1925826
0.2029501
0.2148069
0.2279407
0.2426523
0.2592417
0.2780916
0.1310289
0.1358499
0.1410386
0.1466373
0.1526959
0.1592568
0.1663734
0.1741309
0.1826193
0.1919468
0.2025515
0.2142201
0.2271938
0.2417042
0.2580423
0.1263815
0.1308716
0.1356926
0.1408814
0.1464806
0.1525259
0.1590616
0.1661603
0.1738974
0.1823624
0.1919385
0.2024171
0.213996
0.2268582
0.2412297
0.3174899
0.3459308
0.3800327
0.4216762
0.4735118
0.5381993
0.6090205
0.2942258
0.3185263
0.3472422
0.3817166
0.4238842
0.4763513
0.5419411
0.614764
0.2748126
0.2959375
0.3206027
0.3497971
0.3849182
0.4278767
0.4814047
0.5488766
0.6256298
0.2583508
0.2769766
0.2985077
0.3236942
0.353574
0.3895271
0.4335633
0.4887715
0.559046
0.6418372
0.2441147
0.2607194
0.2797521
0.3017966
0.3276444
0.3583153
0.3952679
0.4407751
0.4981669
0.5721124
0.6672978
0.2313891
0.2462941
0.263252
0.2827247
0.3053271
0.3318257
0.3632968
0.4013948
0.4485156
0.5083233
0.5896727
0.69706
0.2194471
0.2328453
0.2479829
0.2652263
0.2850549
0.3080481
0.3350031
0.3671272
0.4061104
0.4544803
0.5186262
0.6042799
0.7230649
0.208231
0.2202916
0.2338299
0.2491374
0.26659
0.2866282
0.3098467
0.3371354
0.3696983
0.409277
0.4603494
0.5262309
0.6153504
0.7422209
0.1977965
0.20868
0.2208243
0.2344633
0.2498939
0.2674537
0.2875916
0.3109734
0.3384719
0.3713109
0.412716
0.4645372
0.5319189
0.6234886
0.7563788
0.1881432
0.1979946
0.2089278
0.2211318
0.2348433
0.2503237
0.267916
0.2881264
0.3115997
0.3392157
0.3733758
0.4151066
0.4676966
0.5362189
0.629687
0.7693539
0.1792207
0.1881663
0.1980451
0.2090113
0.2212554
0.2349818
0.2504554
0.2680676
0.2883028
0.3118075
0.3404253
0.3747126
0.4168798
0.4701008
0.5395907
0.6355345
0.7777612
0.1709528
0.1790996
0.1880558
0.1979478
0.2089304
0.2211648
0.2348577
0.2503159
0.2679095
0.2881222
0.3124083
0.3410547
0.3756125
0.4181793
0.4720048
0.5430504
0.6399051
0.7848605
0.1632499
0.1706872
0.1788295
0.1877812
0.1976691
0.2086208
0.2207994
0.2344481
0.2498535
0.267383
0.2882121
0.312475
0.3413077
0.3761663
0.4192087
0.4742795
0.5458522
0.6442136
0.7911512
0.1560144
0.1628153
0.1702321
0.1783517
0.1872783
0.1971134
0.2079863
0.2200919
0.2336541
0.2489559
0.2669646
0.287731
0.3121249
0.3412237
0.3765791
0.4209668
0.4764647
0.5489779
0.6484373
0.7967201
0.1491575
0.1553816
0.1621448
0.1695193
0.177591
0.186441
0.1961722
0.2069415
0.218925
0.2323422
0.2479908
0.2658539
0.2866161
0.3111464
0.3407958
0.3785001
0.4231604
0.4791966
0.5522245
0.6523861
0.8014401
0.1426688
0.1483703
0.154544
0.1612501
0.1685597
0.1765378
0.1852664
0.1948719
0.2054938
0.2173029
0.2309344
0.2462336
0.2636214
0.2835234
0.3064366
0.1367257
0.1419687
0.1476281
0.1537546
0.1604075
0.1676396
0.1755168
0.1841427
0.1936291
0.2041118
0.2161133