/*--------------------------------*- C++ -*----------------------------------*\
| =========                 |                                                 |
| \\      /  F ield         | OpenFOAM: The Open Source CFD Toolbox           |
|  \\    /   O peration     | Version:  2306                                  |
|   \\  /    A nd           | Website:  www.openfoam.com                      |
|    \\/     M anipulation  |                                                 |
\*---------------------------------------------------------------------------*/
FoamFile
{
    version     2.0;
    format      ascii;
    arch        "LSB;label=32;scalar=64";
    class       volScalarField;
    location    "1.2/fuel";
    object      iDmdtfuel.H2;
}
// * * * * * * * * * * * * * * * * * * * * * * * * * * * * * * * * * * * * * //

dimensions      [1 -3 -1 0 0 0 0];

internalField   nonuniform List<scalar> 
16000
(
-9.840397
-9.92523
-8.987578
-9.421472
-10.09658
-9.041621
-9.500343
-8.262229
-8.626981
-9.125543
-10.35501
-9.14787
-9.659552
-8.30309
-8.677476
-9.200438
-7.679297
-7.948697
-8.370164
-8.943704
-10.69148
-9.30066
-9.899436
-8.382437
-8.776701
-9.35159
-7.712582
-7.987036
-8.418235
-9.016393
-7.194225
-7.40185
-7.724071
-8.210159
-8.86554
-11.05465
-9.48555
-10.21143
-8.494067
-8.919296
-9.579299
-7.77674
-8.061452
-8.512676
-9.163131
-7.222421
-7.433186
-7.760661
-8.256815
-8.937555
-6.777093
-6.945563
-7.202252
-7.582792
-8.138834
-0
-11.32943
-9.665522
-10.54773
-8.624329
-9.091714
-9.875489
-7.865828
-8.166086
-8.648364
-9.384333
-7.276505
-7.493564
-7.831665
-8.348482
-9.083037
-6.801557
-6.972185
-7.232224
-7.618331
-8.184954
-0
-6.410827
-6.552229
-6.766119
-7.075931
-7.518428
-0
-0
-11.50337
-9.786922
-10.80126
-8.743978
-9.259385
-10.19487
-7.967463
-8.288097
-8.81241
-9.672453
-7.35095
-7.577356
-7.931473
-8.480214
-9.302644
-6.848318
-7.023229
-7.289959
-7.687294
-8.275597
-0
-6.432422
-6.575386
-6.791632
-7.105071
-7.55353
-0
-0
-6.08397
-6.206095
-6.389563
-6.652055
-7.017651
-0
-0
-0
-11.60227
-9.854436
-10.96123
-8.817919
-9.372172
-10.43501
-8.057368
-8.400058
-8.971917
-9.983764
-7.434576
-7.672879
-8.047824
-8.639569
-9.589409
-6.912276
-7.093451
-7.370059
-7.784238
-8.405939
-0
-6.47359
-6.61963
-6.840537
-7.161198
-7.621656
-0
-0
-6.103272
-6.226582
-6.411795
-6.676884
-7.046429
-0
-0
-0
-5.78894
-5.896571
-6.057696
-6.285824
-6.599011
-0
-0
-0
-0
-11.64672
-9.888593
-11.05197
-8.853585
-9.434746
-10.58623
-8.109575
-8.469066
-9.078935
-10.21747
-7.506619
-7.757283
-8.15454
-8.794633
-9.900354
-6.983305
-7.172271
-7.461335
-7.897272
-8.563804
-0
-6.529628
-6.680112
-6.907794
-7.239062
-7.717453
-0
-0
-6.139995
-6.265623
-6.454259
-6.724474
-7.101864
-0
-0
-0
-5.806364
-5.914921
-6.077397
-6.307481
-6.623536
-0
-0
-0
-0
-5.520149
-5.616653
-5.760508
-5.962814
-6.237324
-0
-0
-0
-0
-0
-11.64672
-9.902716
-11.0927
-8.868419
-9.46635
-10.67191
-8.131791
-8.50226
-9.138202
-10.36455
-7.546585
-7.806158
-8.220122
-8.898426
-10.1337
-7.043295
-7.240088
-7.541923
-8.000954
-8.717648
-0
-6.591313
-6.747225
-6.983247
-7.327789
-7.829222
-0
-0
-6.189789
-6.318735
-6.512288
-6.789913
-7.17878
-0
-0
-0
-5.83946
-5.949818
-6.114928
-6.348843
-6.670544
-0
-0
-0
-0
-5.536001
-5.633249
-5.778179
-5.982023
-6.258722
-0
-0
-0
-0
-0
-5.273487
-5.361174
-5.491383
-5.673334
-5.918288
-0
-0
-0
-0
-0
-0
-11.60227
-9.902716
-11.0927
-8.873409
-9.479404
-10.71035
-8.138984
-8.516026
-9.168114
-10.4479
-7.561844
-7.826878
-8.251584
-8.955846
-10.28065
-7.075409
-7.277593
-7.588432
-8.064472
-8.820417
-0
-6.642607
-6.803827
-7.048101
-7.406095
-7.931795
-0
-0
-6.244209
-6.377148
-6.576643
-6.863316
-7.266456
-0
-0
-0
-5.884193
-5.997108
-6.165966
-6.405357
-6.73519
-0
-0
-0
-0
-5.566072
-5.664758
-5.811776
-6.018614
-6.29959
-0
-0
-0
-0
-0
-5.288002
-5.376298
-5.507386
-5.69058
-5.937274
-0
-0
-0
-0
-0
-0
-5.045757
-5.126332
-5.245437
-5.410987
-5.632315
-0
-0
-0
-0
-0
-0
-0
-11.50337
-9.888593
-11.05197
-8.873409
-9.479404
-10.71035
-8.140512
-8.520644
-9.18047
-10.4853
-7.565411
-7.833541
-8.264602
-8.98484
-10.36404
-7.086537
-7.291838
-7.608065
-8.09487
-8.87725
-0
-6.669285
-6.834025
-7.083831
-7.451114
-7.994429
-0
-0
-6.28889
-6.425646
-6.630851
-6.92636
-7.343824
-0
-0
-0
-5.932792
-6.048746
-6.222066
-6.468016
-6.807714
-0
-0
-0
-0
-5.606607
-5.707323
-5.857288
-6.068366
-6.355432
-0
-0
-0
-0
-0
-5.315509
-5.404977
-5.537764
-5.723364
-5.97344
-0
-0
-0
-0
-0
-0
-5.059121
-5.140203
-5.260041
-5.426619
-5.649367
-0
-0
-0
-0
-0
-0
-0
-4.834445
-4.90917
-5.019083
-5.171056
-5.373084
-0
-0
-0
-0
-0
-0
-0
-0
-11.32943
-9.854436
-10.96123
-8.868419
-9.46635
-10.67191
-8.140512
-8.520644
-9.18047
-10.4853
-7.5654
-7.834934
-8.268961
-8.99683
-10.40152
-7.088145
-7.295115
-7.614335
-8.10743
-8.905993
-0
-6.677743
-6.844416
-7.09732
-7.470034
-8.024333
-0
-0
-6.311566
-6.450777
-6.659652
-6.960943
-7.388117
-0
-0
-0
-5.97227
-6.091072
-6.268577
-6.520744
-6.86997
-0
-0
-0
-0
-5.65042
-5.753522
-5.906951
-6.123033
-6.417347
-0
-0
-0
-0
-0
-5.352503
-5.443614
-5.578784
-5.767767
-6.022615
-0
-0
-0
-0
-0
-0
-5.084426
-5.16648
-5.287725
-5.456287
-5.681782
-0
-0
-0
-0
-0
-0
-0
-4.846806
-4.92196
-5.032493
-5.185332
-5.388545
-0
-0
-0
-0
-0
-0
-0
-0
-4.637535
-4.707358
-4.809525
-4.950075
-5.135938
-0
-0
-0
-0
-0
-0
-0
-0
-0
-11.05465
-9.786922
-10.80126
-8.853585
-9.434746
-10.58623
-8.138984
-8.516026
-9.168114
-10.4479
-7.5654
-7.834934
-8.268961
-8.99683
-10.40152
-7.08737
-7.295064
-7.615624
-8.111634
-8.917903
-0
-6.678204
-6.845856
-7.100367
-7.476036
-8.036683
-0
-0
-6.318171
-6.458673
-6.669482
-6.973912
-7.406643
-0
-0
-0
-5.991883
-6.112468
-6.292572
-6.548625
-6.903954
-0
-0
-0
-0
-5.685689
-5.790986
-5.947598
-6.168306
-6.469409
-0
-0
-0
-0
-0
-5.392313
-5.485337
-5.623276
-5.816203
-6.076647
-0
-0
-0
-0
-0
-0
-5.118389
-5.201799
-5.325008
-5.496341
-5.725685
-0
-0
-0
-0
-0
-0
-0
-4.870197
-4.946169
-5.057889
-5.212391
-5.417889
-0
-0
-0
-0
-0
-0
-0
-0
-4.649014
-4.719205
-4.821904
-4.963194
-5.150063
-0
-0
-0
-0
-0
-0
-0
-0
-0
-4.45338
-4.51903
-4.614563
-4.745345
-4.91746
-0
-0
-0
-0
-0
-0
-0
-0
-0
-0
-10.69148
-9.665522
-10.54773
-8.817919
-9.372172
-10.43501
-8.131791
-8.50226
-9.138202
-10.36455
-7.565411
-7.833541
-8.264602
-8.98484
-10.36404
-7.08737
-7.295064
-7.615624
-8.111634
-8.917903
-0
-6.677026
-6.845086
-7.100279
-7.477252
-8.04082
-0
-0
-6.317911
-6.459034
-6.670779
-6.976787
-7.412482
-0
-0
-0
-5.997145
-6.11863
-6.300033
-6.558057
-6.916606
-0
-0
-0
-0
-5.70288
-5.809519
-5.968048
-6.191543
-6.496791
-0
-0
-0
-0
-0
-5.424106
-5.518861
-5.659299
-5.855796
-6.121352
-0
-0
-0
-0
-0
-0
-5.154795
-5.23977
-5.36524
-5.539769
-5.773574
-0
-0
-0
-0
-0
-0
-0
-4.901535
-4.978644
-5.09201
-5.248825
-5.457507
-0
-0
-0
-0
-0
-0
-0
-0
-4.670726
-4.741615
-4.845328
-4.988035
-5.176837
-0
-0
-0
-0
-0
-0
-0
-0
-0
-4.464078
-4.530047
-4.626041
-4.757464
-4.930444
-0
-0
-0
-0
-0
-0
-0
-0
-0
-0
-4.28062
-4.342661
-4.432435
-4.554744
-4.71499
-0
-0
-0
-0
-0
-0
-0
-0
-0
-0
-10.35501
-9.48555
-10.21143
-8.743978
-9.259385
-10.19487
-8.109575
-8.469066
-9.078935
-10.21747
-7.561844
-7.826878
-8.251584
-8.955846
-10.28065
-7.088145
-7.295115
-7.614335
-8.10743
-8.905993
-0
-6.677026
-6.845086
-7.100279
-7.477252
-8.04082
-0
-0
-6.316513
-6.457883
-6.670002
-6.976663
-7.413647
-0
-0
-0
-5.996416
-6.118312
-6.300303
-6.559237
-6.919354
-0
-0
-0
-0
-5.707131
-5.814424
-5.973863
-6.198688
-6.505964
-0
-0
-0
-0
-0
-5.439341
-5.535129
-5.677031
-5.87561
-6.144168
-0
-0
-0
-0
-0
-0
-5.183669
-5.270038
-5.397512
-5.574884
-5.812677
-0
-0
-0
-0
-0
-0
-0
-4.935015
-5.013421
-5.128668
-5.288125
-5.500458
-0
-0
-0
-0
-0
-0
-0
-0
-4.699771
-4.771623
-4.876737
-5.021404
-5.212886
-0
-0
-0
-0
-0
-0
-0
-0
-0
-4.484308
-4.550877
-4.647748
-4.780393
-4.955032
-0
-0
-0
-0
-0
-0
-0
-0
-0
-0
-4.290623
-4.352941
-4.443119
-4.565988
-4.726989
-0
-0
-0
-0
-0
-0
-0
-0
-0
-0
-4.118106
-4.176989
-4.261698
-4.376571
-4.526438
-0
-0
-0
-0
-0
-0
-0
-0
-0
-0
-10.09658
-9.30066
-9.899436
-8.624329
-9.091714
-9.875489
-8.057368
-8.400058
-8.971917
-9.983764
-7.546585
-7.806158
-8.220122
-8.898426
-10.1337
-7.086537
-7.291838
-7.608065
-8.09487
-8.87725
-0
-6.678204
-6.845856
-7.100367
-7.476036
-8.036683
-0
-0
-6.316513
-6.457883
-6.670002
-6.976663
-7.413647
-0
-0
-0
-5.994898
-6.116951
-6.299161
-6.558444
-6.919193
-0
-0
-0
-0
-5.706086
-5.813663
-5.973486
-6.198874
-6.507044
-0
-0
-0
-0
-0
-5.442814
-5.539086
-5.681652
-5.881168
-6.151099
-0
-0
-0
-0
-0
-0
-5.197291
-5.284473
-5.413093
-5.592074
-5.832132
-0
-0
-0
-0
-0
-0
-0
-4.961407
-5.040949
-5.157839
-5.319607
-5.535148
-0
-0
-0
-0
-0
-0
-0
-0
-4.730708
-4.80365
-4.910349
-5.05724
-5.251768
-0
-0
-0
-0
-0
-0
-0
-0
-0
-4.511334
-4.578726
-4.676802
-4.811131
-4.988061
-0
-0
-0
-0
-0
-0
-0
-0
-0
-0
-4.309534
-4.372373
-4.463314
-4.58725
-4.749691
-0
-0
-0
-0
-0
-0
-0
-0
-0
-0
-4.127485
-4.186612
-4.271677
-4.387044
-4.537575
-0
-0
-0
-0
-0
-0
-0
-0
-0
-0
-3.964868
-4.020949
-4.101161
-4.209434
-4.35013
-0
-0
-0
-0
-0
-0
-0
-0
-0
-0
-9.92523
-9.14787
-9.659552
-8.494067
-8.919296
-9.579299
-7.967463
-8.288097
-8.81241
-9.672453
-7.506619
-7.757283
-8.15454
-8.794633
-9.900354
-7.075409
-7.277593
-7.588432
-8.064472
-8.820417
-0
-6.677743
-6.844416
-7.09732
-7.470034
-8.024333
-0
-0
-6.317911
-6.459034
-6.670779
-6.976787
-7.412482
-0
-0
-0
-5.994898
-6.116951
-6.299161
-6.558444
-6.919193
-0
-0
-0
-0
-5.704508
-5.812187
-5.972142
-6.197727
-6.506224
-0
-0
-0
-0
-0
-5.441556
-5.538027
-5.680852
-5.88073
-6.151205
-0
-0
-0
-0
-0
-0
-5.200152
-5.2877
-5.416814
-5.596481
-5.837509
-0
-0
-0
-0
-0
-0
-0
-4.973684
-5.053873
-5.171678
-5.334719
-5.552028
-0
-0
-0
-0
-0
-0
-0
-0
-4.754967
-4.828846
-4.936908
-5.085717
-5.282879
-0
-0
-0
-0
-0
-0
-0
-0
-0
-4.540043
-4.60836
-4.707788
-4.844013
-5.023527
-0
-0
-0
-0
-0
-0
-0
-0
-0
-0
-4.334768
-4.398319
-4.490305
-4.615704
-4.780126
-0
-0
-0
-0
-0
-0
-0
-0
-0
-0
-4.145217
-4.2048
-4.290535
-4.406838
-4.558633
-0
-0
-0
-0
-0
-0
-0
-0
-0
-0
-3.973684
-4.029982
-4.11051
-4.219222
-4.360505
-0
-0
-0
-0
-0
-0
-0
-0
-0
-0
-3.820066
-3.87364
-3.949817
-4.052185
-4.184695
-0
-0
-0
-0
-0
-0
-0
-0
-0
-0
-9.840397
-9.041621
-9.500343
-8.382437
-8.776701
-9.35159
-7.865828
-8.166086
-8.648364
-9.384333
-7.434576
-7.672879
-8.047824
-8.639569
-9.589409
-7.043295
-7.240088
-7.541923
-8.000954
-8.717648
-0
-6.669285
-6.834025
-7.083831
-7.451114
-7.994429
-0
-0
-6.318171
-6.458673
-6.669482
-6.973912
-7.406643
-0
-0
-0
-5.996416
-6.118312
-6.300303
-6.559237
-6.919354
-0
-0
-0
-0
-5.704508
-5.812187
-5.972142
-6.197727
-6.506224
-0
-0
-0
-0
-0
-5.439954
-5.536492
-5.679398
-5.879387
-6.150037
-0
-0
-0
-0
-0
-0
-5.198751
-5.28644
-5.415731
-5.595636
-5.837006
-0
-0
-0
-0
-0
-0
-0
-4.976061
-5.056525
-5.174705
-5.33826
-5.556282
-0
-0
-0
-0
-0
-0
-0
-0
-4.76611
-4.840509
-4.949309
-5.099147
-5.297721
-0
-0
-0
-0
-0
-0
-0
-0
-0
-4.56245
-4.631551
-4.732123
-4.869958
-5.051677
-0
-0
-0
-0
-0
-0
-0
-0
-0
-0
-4.361511
-4.425855
-4.519005
-4.646037
-4.81268
-0
-0
-0
-0
-0
-0
-0
-0
-0
-0
-4.168851
-4.229055
-4.315706
-4.433288
-4.586815
-0
-0
-0
-0
-0
-0
-0
-0
-0
-0
-3.990353
-4.047055
-4.128177
-4.237717
-4.380116
-0
-0
-0
-0
-0
-0
-0
-0
-0
-0
-3.828373
-3.88214
-3.958601
-4.061361
-4.194394
-0
-0
-0
-0
-0
-0
-0
-0
-0
-0
-3.68298
-3.734283
-3.806815
-3.903853
-4.029004
-0
-0
-0
-0
-0
-0
-0
-0
-0
-0
-8.987578
-9.421472
-8.30309
-8.677476
-9.200438
-7.77674
-8.061452
-8.512676
-9.163131
-7.35095
-7.577356
-7.931473
-8.480214
-9.302644
-6.983305
-7.172271
-7.461335
-7.897272
-8.563804
-0
-6.642607
-6.803827
-7.048101
-7.406095
-7.931795
-0
-0
-6.311566
-6.450777
-6.659652
-6.960943
-7.388117
-0
-0
-0
-5.997145
-6.11863
-6.300033
-6.558057
-6.916606
-0
-0
-0
-0
-5.706086
-5.813663
-5.973486
-6.198874
-6.507044
-0
-0
-0
-0
-0
-5.439954
-5.536492
-5.679398
-5.879387
-6.150037
-0
-0
-0
-0
-0
-0
-5.197151
-5.284881
-5.41422
-5.594187
-5.835649
-0
-0
-0
-0
-0
-0
-0
-4.97457
-5.055131
-5.17343
-5.337143
-5.555384
-0
-0
-0
-0
-0
-0
-0
-0
-4.768099
-4.842707
-4.951791
-5.102021
-5.301131
-0
-0
-0
-0
-0
-0
-0
-0
-0
-4.572627
-4.642148
-4.743324
-4.881999
-5.064871
-0
-0
-0
-0
-0
-0
-0
-0
-0
-0
-4.382297
-4.447302
-4.541425
-4.669825
-4.838336
-0
-0
-0
-0
-0
-0
-0
-0
-0
-0
-0
-4.193845
-4.254735
-4.342399
-4.461402
-4.616855
-0
-0
-0
-0
-0
-0
-0
-0
-0
-0
-4.01255
-4.069798
-4.151728
-4.262398
-4.406321
-0
-0
-0
-0
-0
-0
-0
-0
-0
-0
-3.84408
-3.898208
-3.975199
-4.078698
-4.212724
-0
-0
-0
-0
-0
-0
-0
-0
-0
-0
-3.690823
-3.7423
-3.815087
-3.912479
-4.038099
-0
-0
-0
-0
-0
-0
-0
-0
-0
-0
-3.552984
-3.602209
-3.671417
-3.763616
-3.882101
-0
-0
-0
-0
-0
-0
-0
-0
-0
-0
-8.262229
-8.626981
-9.125543
-7.712582
-7.987036
-8.418235
-9.016393
-7.276505
-7.493564
-7.831665
-8.348482
-9.083037
-6.912276
-7.093451
-7.370059
-7.784238
-8.405939
-0
-6.591313
-6.747225
-6.983247
-7.327789
-7.829222
-0
-0
-6.28889
-6.425646
-6.630851
-6.92636
-7.343824
-0
-0
-0
-5.991883
-6.112468
-6.292572
-6.548625
-6.903954
-0
-0
-0
-0
-5.707131
-5.814424
-5.973863
-6.198688
-6.505964
-0
-0
-0
-0
-0
-5.441556
-5.538027
-5.680852
-5.88073
-6.151205
-0
-0
-0
-0
-0
-0
-5.197151
-5.284881
-5.41422
-5.594187
-5.835649
-0
-0
-0
-0
-0
-0
-0
-4.972987
-5.053572
-5.171898
-5.33564
-5.553924
-0
-0
-0
-0
-0
-0
-0
-0
-4.766554
-4.841226
-4.950389
-5.10072
-5.299969
-0
-0
-0
-0
-0
-0
-0
-0
-0
-4.574301
-4.643982
-4.745375
-4.884349
-5.067631
-0
-0
-0
-0
-0
-0
-0
-0
-0
-0
-4.39164
-4.456991
-4.551612
-4.680707
-4.850168
-0
-0
-0
-0
-0
-0
-0
-0
-0
-0
-0
-4.213201
-4.274654
-4.363153
-4.483332
-4.640386
-0
-0
-0
-0
-0
-0
-0
-0
-0
-0
-0
-0
-4.035978
-4.093827
-4.176645
-4.288562
-4.434172
-0
-0
-0
-0
-0
-0
-0
-0
-0
-0
-3.864978
-3.919591
-3.997301
-4.101804
-4.237183
-0
-0
-0
-0
-0
-0
-0
-0
-0
-0
-3.705657
-3.757456
-3.83072
-3.928775
-4.055285
-0
-0
-0
-0
-0
-0
-0
-0
-0
-0
-3.560403
-3.609786
-3.679225
-3.771744
-3.890654
-0
-0
-0
-0
-0
-0
-0
-0
-0
-0
-3.429503
-3.476835
-3.54299
-3.630764
-3.743179
-0
-0
-0
-0
-0
-0
-0
-0
-0
-0
-7.679297
-7.948697
-8.370164
-8.943704
-7.222421
-7.433186
-7.760661
-8.256815
-8.937555
-6.848318
-7.023229
-7.289959
-7.687294
-8.275597
-0
-6.529628
-6.680112
-6.907794
-7.239062
-7.717453
-0
-0
-6.244209
-6.377148
-6.576643
-6.863316
-7.266456
-0
-0
-0
-5.97227
-6.091072
-6.268577
-6.520744
-6.86997
-0
-0
-0
-0
-5.70288
-5.809519
-5.968048
-6.191543
-6.496791
-0
-0
-0
-0
-0
-5.442814
-5.539086
-5.681652
-5.881168
-6.151099
-0
-0
-0
-0
-0
-0
-5.198751
-5.28644
-5.415731
-5.595636
-5.837006
-0
-0
-0
-0
-0
-0
-0
-4.972987
-5.053572
-5.171898
-5.33564
-5.553924
-0
-0
-0
-0
-0
-0
-0
-0
-4.764999
-4.839684
-4.948856
-5.099196
-5.298458
-0
-0
-0
-0
-0
-0
-0
-0
-0
-4.57273
-4.642451
-4.743892
-4.882927
-5.066293
-0
-0
-0
-0
-0
-0
-0
-0
-0
-0
-4.393059
-4.45853
-4.553318
-4.682643
-4.852419
-0
-0
-0
-0
-0
-0
-0
-0
-0
-0
-0
-4.221819
-4.28356
-4.372474
-4.493235
-4.651083
-0
-0
-0
-0
-0
-0
-0
-0
-0
-0
-0
-0
-4.054063
-4.112397
-4.195938
-4.308875
-4.455873
-0
-0
-0
-0
-0
-0
-0
-0
-0
-0
-0
-0
-0
-3.886999
-3.942139
-4.020636
-4.126241
-4.26311
-0
-0
-0
-0
-0
-0
-0
-0
-0
-0
-3.725379
-3.77761
-3.851518
-3.950473
-4.078191
-0
-0
-0
-0
-0
-0
-0
-0
-0
-0
-3.57444
-3.624113
-3.693983
-3.787101
-3.906812
-0
-0
-0
-0
-0
-0
-0
-0
-0
-0
-3.436532
-3.484009
-3.550375
-3.638439
-3.75124
-0
-0
-0
-0
-0
-0
-0
-0
-0
-0
-3.312057
-3.357625
-3.420983
-3.504685
-3.611539
-0
-0
-0
-0
-0
-0
-0
-0
-0
-0
-7.194225
-7.40185
-7.724071
-8.210159
-8.86554
-6.801557
-6.972185
-7.232224
-7.618331
-8.184954
-0
-6.47359
-6.61963
-6.840537
-7.161198
-7.621656
-0
-0
-6.189789
-6.318735
-6.512288
-6.789913
-7.17878
-0
-0
-0
-5.932792
-6.048746
-6.222066
-6.468016
-6.807714
-0
-0
-0
-0
-5.685689
-5.790986
-5.947598
-6.168306
-6.469409
-0
-0
-0
-0
-0
-5.439341
-5.535129
-5.677031
-5.87561
-6.144168
-0
-0
-0
-0
-0
-0
-5.200152
-5.2877
-5.416814
-5.596481
-5.837509
-0
-0
-0
-0
-0
-0
-0
-4.97457
-5.055131
-5.17343
-5.337143
-5.555384
-0
-0
-0
-0
-0
-0
-0
-0
-4.764999
-4.839684
-4.948856
-5.099196
-5.298458
-0
-0
-0
-0
-0
-0
-0
-0
-0
-4.571211
-4.640935
-4.742374
-4.881404
-5.064762
-0
-0
-0
-0
-0
-0
-0
-0
-0
-0
-4.39148
-4.456974
-4.551788
-4.681145
-4.850965
-0
-0
-0
-0
-0
-0
-0
-0
-0
-0
-0
-4.223026
-4.284859
-4.373901
-4.494839
-4.65293
-0
-0
-0
-0
-0
-0
-0
-0
-0
-0
-0
-0
-4.06205
-4.12062
-4.204513
-4.317942
-4.465609
-0
-0
-0
-0
-0
-0
-0
-0
-0
-0
-0
-0
-0
-3.903951
-3.959509
-4.038637
-4.145136
-4.283217
-0
-0
-0
-0
-0
-0
-0
-0
-0
-0
-0
-0
-0
-0
-3.74613
-3.798825
-3.873432
-3.973371
-4.102414
-0
-0
-0
-0
-0
-0
-0
-0
-0
-0
-3.59309
-3.643152
-3.7136
-3.807529
-3.928327
-0
-0
-0
-0
-0
-0
-0
-0
-0
-0
-3.449838
-3.497579
-3.564336
-3.652944
-3.766471
-0
-0
-0
-0
-0
-0
-0
-0
-0
-0
-3.318731
-3.364428
-3.42798
-3.511947
-3.619153
-0
-0
-0
-0
-0
-0
-0
-0
-0
-0
-3.200228
-3.244133
-3.304888
-3.384848
-3.486579
-0
-0
-0
-0
-0
-0
-0
-0
-0
-0
-6.777093
-6.945563
-7.202252
-7.582792
-8.138834
-0
-6.432422
-6.575386
-6.791632
-7.105071
-7.55353
-0
-0
-6.139995
-6.265623
-6.454259
-6.724474
-7.101864
-0
-0
-0
-5.884193
-5.997108
-6.165966
-6.405357
-6.73519
-0
-0
-0
-0
-5.65042
-5.753522
-5.906951
-6.123033
-6.417347
-0
-0
-0
-0
-0
-5.424106
-5.518861
-5.659299
-5.855796
-6.121352
-0
-0
-0
-0
-0
-0
-5.197291
-5.284473
-5.413093
-5.592074
-5.832132
-0
-0
-0
-0
-0
-0
-0
-4.976061
-5.056525
-5.174705
-5.33826
-5.556282
-0
-0
-0
-0
-0
-0
-0
-0
-4.766554
-4.841226
-4.950389
-5.10072
-5.299969
-0
-0
-0
-0
-0
-0
-0
-0
-0
-4.571211
-4.640935
-4.742374
-4.881404
-5.064762
-0
-0
-0
-0
-0
-0
-0
-0
-0
-0
-4.390002
-4.455492
-4.550296
-4.679637
-4.849436
-0
-0
-0
-0
-0
-0
-0
-0
-0
-0
-0
-4.221453
-4.283297
-4.372348
-4.493297
-4.651404
-0
-0
-0
-0
-0
-0
-0
-0
-0
-0
-0
-0
-4.063085
-4.121721
-4.205713
-4.319278
-4.467135
-0
-0
-0
-0
-0
-0
-0
-0
-0
-0
-0
-0
-0
-3.911385
-3.967137
-4.046561
-4.153481
-4.292134
-0
-0
-0
-0
-0
-0
-0
-0
-0
-0
-0
-0
-0
-0
-3.762066
-3.815124
-3.890285
-3.991011
-4.121123
-0
-0
-0
-0
-0
-0
-0
-0
-0
-0
-0
-0
-0
-0
-0
-3.612685
-3.663163
-3.734235
-3.829045
-3.951031
-0
-0
-0
-0
-0
-0
-0
-0
-0
-0
-3.467508
-3.515599
-3.582881
-3.672222
-3.786732
-0
-0
-0
-0
-0
-0
-0
-0
-0
-0
-3.331371
-3.377303
-3.441213
-3.525676
-3.633542
-0
-0
-0
-0
-0
-0
-0
-0
-0
-0
-3.206575
-3.250598
-3.311527
-3.391732
-3.493785
-0
-0
-0
-0
-0
-0
-0
-0
-0
-0
-3.093666
-3.13597
-3.194281
-3.270761
-3.367776
-0
-0
-0
-0
-0
-0
-0
-0
-0
-0
-6.410827
-6.552229
-6.766119
-7.075931
-7.518428
-0
-0
-6.103272
-6.226582
-6.411795
-6.676884
-7.046429
-0
-0
-0
-5.83946
-5.949818
-6.114928
-6.348843
-6.670544
-0
-0
-0
-0
-5.606607
-5.707323
-5.857288
-6.068366
-6.355432
-0
-0
-0
-0
-0
-5.392313
-5.485337
-5.623276
-5.816203
-6.076647
-0
-0
-0
-0
-0
-0
-5.183669
-5.270038
-5.397512
-5.574884
-5.812677
-0
-0
-0
-0
-0
-0
-0
-4.973684
-5.053873
-5.171678
-5.334719
-5.552028
-0
-0
-0
-0
-0
-0
-0
-0
-4.768099
-4.842707
-4.951791
-5.102021
-5.301131
-0
-0
-0
-0
-0
-0
-0
-0
-0
-4.57273
-4.642451
-4.743892
-4.882927
-5.066293
-0
-0
-0
-0
-0
-0
-0
-0
-0
-0
-4.390002
-4.455492
-4.550296
-4.679637
-4.849436
-0
-0
-0
-0
-0
-0
-0
-0
-0
-0
-0
-4.220018
-4.281854
-4.370889
-4.491815
-4.649893
-0
-0
-0
-0
-0
-0
-0
-0
-0
-0
-0
-0
-4.061531
-4.120165
-4.204155
-4.317716
-4.465569
-0
-0
-0
-0
-0
-0
-0
-0
-0
-0
-0
-0
-0
-3.912279
-3.968077
-4.047573
-4.154601
-4.293401
-0
-0
-0
-0
-0
-0
-0
-0
-0
-0
-0
-0
-0
-0
-3.769009
-3.822231
-3.897641
-3.998727
-4.129333
-0
-0
-0
-0
-0
-0
-0
-0
-0
-0
-0
-0
-0
-0
-0
-3.627703
-3.678501
-3.750061
-3.845568
-3.968502
-0
-0
-0
-0
-0
-0
-0
-0
-0
-0
-0
-0
-0
-0
-0
-0
-3.486055
-3.534515
-3.602361
-3.692493
-3.808071
-0
-0
-0
-0
-0
-0
-0
-0
-0
-0
-3.34815
-3.394392
-3.458778
-3.543909
-3.652667
-0
-0
-0
-0
-0
-0
-0
-0
-0
-0
-3.218603
-3.26284
-3.324091
-3.40475
-3.507407
-0
-0
-0
-0
-0
-0
-0
-0
-0
-0
-3.099712
-3.142123
-3.200595
-3.277296
-3.374608
-0
-0
-0
-0
-0
-0
-0
-0
-0
-0
-2.992006
-3.032812
-3.088795
-3.162017
-3.254648
-0
-0
-0
-0
-0
-0
-0
-0
-0
-0
-6.08397
-6.206095
-6.389563
-6.652055
-7.017651
-0
-0
-0
-5.806364
-5.914921
-6.077397
-6.307481
-6.623536
-0
-0
-0
-0
-5.566072
-5.664758
-5.811776
-6.018614
-6.29959
-0
-0
-0
-0
-0
-5.352503
-5.443614
-5.578784
-5.767767
-6.022615
-0
-0
-0
-0
-0
-0
-5.154795
-5.23977
-5.36524
-5.539769
-5.773574
-0
-0
-0
-0
-0
-0
-0
-4.961407
-5.040949
-5.157839
-5.319607
-5.535148
-0
-0
-0
-0
-0
-0
-0
-0
-4.76611
-4.840509
-4.949309
-5.099147
-5.297721
-0
-0
-0
-0
-0
-0
-0
-0
-0
-4.574301
-4.643982
-4.745375
-4.884349
-5.067631
-0
-0
-0
-0
-0
-0
-0
-0
-0
-0
-4.39148
-4.456974
-4.551788
-4.681145
-4.850965
-0
-0
-0
-0
-0
-0
-0
-0
-0
-0
-0
-4.220018
-4.281854
-4.370889
-4.491815
-4.649893
-0
-0
-0
-0
-0
-0
-0
-0
-0
-0
-0
-0
-4.060142
-4.118763
-4.202733
-4.316267
-4.464084
-0
-0
-0
-0
-0
-0
-0
-0
-0
-0
-0
-0
-0
-3.910752
-3.966541
-4.046023
-4.153036
-4.291818
-0
-0
-0
-0
-0
-0
-0
-0
-0
-0
-0
-0
-0
-0
-3.769785
-3.823039
-3.898501
-3.999667
-4.130389
-0
-0
-0
-0
-0
-0
-0
-0
-0
-0
-0
-0
-0
-0
-0
-3.634209
-3.685145
-3.75692
-3.852735
-3.976096
-0
-0
-0
-0
-0
-0
-0
-0
-0
-0
-0
-0
-0
-0
-0
-0
-3.500245
-3.548983
-3.617264
-3.708017
-3.824441
-0
-0
-0
-0
-0
-0
-0
-0
-0
-0
-0
-0
-0
-0
-0
-0
-0
-3.365743
-3.412312
-3.477204
-3.563054
-3.672776
-0
-0
-0
-0
-0
-0
-0
-0
-0
-0
-3.234563
-3.279081
-3.34076
-3.422028
-3.5255
-0
-0
-0
-0
-0
-0
-0
-0
-0
-0
-3.111176
-3.153782
-3.212547
-3.289661
-3.387529
-0
-0
-0
-0
-0
-0
-0
-0
-0
-0
-2.997772
-3.038677
-3.094807
-3.168233
-3.261136
-0
-0
-0
-0
-0
-0
-0
-0
-0
-0
-2.894945
-2.934316
-2.988124
-3.058259
-3.146794
-0
-0
-0
-0
-0
-0
-0
-0
-0
-0
-5.78894
-5.896571
-6.057696
-6.285824
-6.599011
-0
-0
-0
-0
-5.536001
-5.633249
-5.778179
-5.982023
-6.258722
-0
-0
-0
-0
-0
-5.315509
-5.404977
-5.537764
-5.723364
-5.97344
-0
-0
-0
-0
-0
-0
-5.118389
-5.201799
-5.325008
-5.496341
-5.725685
-0
-0
-0
-0
-0
-0
-0
-4.935015
-5.013421
-5.128668
-5.288125
-5.500458
-0
-0
-0
-0
-0
-0
-0
-0
-4.754967
-4.828846
-4.936908
-5.085717
-5.282879
-0
-0
-0
-0
-0
-0
-0
-0
-0
-4.572627
-4.642148
-4.743324
-4.881999
-5.064871
-0
-0
-0
-0
-0
-0
-0
-0
-0
-0
-4.393059
-4.45853
-4.553318
-4.682643
-4.852419
-0
-0
-0
-0
-0
-0
-0
-0
-0
-0
-0
-4.221453
-4.283297
-4.372348
-4.493297
-4.651404
-0
-0
-0
-0
-0
-0
-0
-0
-0
-0
-0
-0
-4.060142
-4.118763
-4.202733
-4.316267
-4.464084
-0
-0
-0
-0
-0
-0
-0
-0
-0
-0
-0
-0
-0
-3.909409
-3.965182
-4.044641
-4.151624
-4.290366
-0
-0
-0
-0
-0
-0
-0
-0
-0
-0
-0
-0
-0
-0
-3.768291
-3.82153
-3.896971
-3.998111
-4.128805
-0
-0
-0
-0
-0
-0
-0
-0
-0
-0
-0
-0
-0
-0
-0
-3.634887
-3.685843
-3.757656
-3.85353
-3.976978
-0
-0
-0
-0
-0
-0
-0
-0
-0
-0
-0
-0
-0
-0
-0
-0
-3.506365
-3.555214
-3.623681
-3.714703
-3.831496
-0
-0
-0
-0
-0
-0
-0
-0
-0
-0
-0
-0
-0
-0
-0
-0
-0
-3.379186
-3.425995
-3.491273
-3.577681
-3.688161
-0
-0
-0
-0
-0
-0
-0
-0
-0
-0
-0
-0
-0
-0
-0
-0
-0
-0
-3.251284
-3.296094
-3.358227
-3.440146
-3.544497
-0
-0
-0
-0
-0
-0
-0
-0
-0
-0
-3.126382
-3.169243
-3.2284
-3.306065
-3.404678
-0
-0
-0
-0
-0
-0
-0
-0
-0
-0
-3.008714
-3.049798
-3.106198
-3.180003
-3.27341
-0
-0
-0
-0
-0
-0
-0
-0
-0
-0
-2.900452
-2.939914
-2.993858
-3.064182
-3.152966
-0
-0
-0
-0
-0
-0
-0
-0
-0
-0
-2.802196
-2.840199
-2.891941
-2.959196
-3.043863
-0
-0
-0
-0
-0
-0
-0
-0
-0
-0
-5.520149
-5.616653
-5.760508
-5.962814
-6.237324
-0
-0
-0
-0
-0
-5.288002
-5.376298
-5.507386
-5.69058
-5.937274
-0
-0
-0
-0
-0
-0
-5.084426
-5.16648
-5.287725
-5.456287
-5.681782
-0
-0
-0
-0
-0
-0
-0
-4.901535
-4.978644
-5.09201
-5.248825
-5.457507
-0
-0
-0
-0
-0
-0
-0
-0
-4.730708
-4.80365
-4.910349
-5.05724
-5.251768
-0
-0
-0
-0
-0
-0
-0
-0
-0
-4.56245
-4.631551
-4.732123
-4.869958
-5.051677
-0
-0
-0
-0
-0
-0
-0
-0
-0
-0
-4.39164
-4.456991
-4.551612
-4.680707
-4.850168
-0
-0
-0
-0
-0
-0
-0
-0
-0
-0
-0
-4.223026
-4.284859
-4.373901
-4.494839
-4.65293
-0
-0
-0
-0
-0
-0
-0
-0
-0
-0
-0
-0
-4.061531
-4.120165
-4.204155
-4.317716
-4.465569
-0
-0
-0
-0
-0
-0
-0
-0
-0
-0
-0
-0
-0
-3.909409
-3.965182
-4.044641
-4.151624
-4.290366
-0
-0
-0
-0
-0
-0
-0
-0
-0
-0
-0
-0
-0
-0
-3.766994
-3.820216
-3.895632
-3.996738
-4.127391
-0
-0
-0
-0
-0
-0
-0
-0
-0
-0
-0
-0
-0
-0
-0
-3.63343
-3.684366
-3.756153
-3.851995
-3.975406
-0
-0
-0
-0
-0
-0
-0
-0
-0
-0
-0
-0
-0
-0
-0
-0
-3.506965
-3.555822
-3.624315
-3.71538
-3.832239
-0
-0
-0
-0
-0
-0
-0
-0
-0
-0
-0
-0
-0
-0
-0
-0
-0
-3.384963
-3.431863
-3.497297
-3.58394
-3.694745
-0
-0
-0
-0
-0
-0
-0
-0
-0
-0
-0
-0
-0
-0
-0
-0
-0
-0
-3.264047
-3.309068
-3.371543
-3.453961
-3.558996
-0
-0
-0
-0
-0
-0
-0
-0
-0
-0
-0
-0
-0
-0
-0
-0
-0
-0
-0
-3.142301
-3.185427
-3.244995
-3.323248
-3.422659
-0
-0
-0
-0
-0
-0
-0
-0
-0
-0
-3.023223
-3.064541
-3.121299
-3.195609
-3.289695
-0
-0
-0
-0
-0
-0
-0
-0
-0
-0
-2.910911
-2.950536
-3.00473
-3.075402
-3.164652
-0
-0
-0
-0
-0
-0
-0
-0
-0
-0
-2.807463
-2.84555
-2.897417
-2.964847
-3.049745
-0
-0
-0
-0
-0
-0
-0
-0
-0
-0
-2.713581
-2.750195
-2.799979
-2.864509
-2.945569
-0
-0
-0
-0
-0
-0
-0
-0
-0
-0
-5.273487
-5.361174
-5.491383
-5.673334
-5.918288
-0
-0
-0
-0
-0
-0
-5.059121
-5.140203
-5.260041
-5.426619
-5.649367
-0
-0
-0
-0
-0
-0
-0
-4.870197
-4.946169
-5.057889
-5.212391
-5.417889
-0
-0
-0
-0
-0
-0
-0
-0
-4.699771
-4.771623
-4.876737
-5.021404
-5.212886
-0
-0
-0
-0
-0
-0
-0
-0
-0
-4.540043
-4.60836
-4.707788
-4.844013
-5.023527
-0
-0
-0
-0
-0
-0
-0
-0
-0
-0
-4.382297
-4.447302
-4.541425
-4.669825
-4.838336
-0
-0
-0
-0
-0
-0
-0
-0
-0
-0
-0
-4.221819
-4.28356
-4.372474
-4.493235
-4.651083
-0
-0
-0
-0
-0
-0
-0
-0
-0
-0
-0
-0
-4.063085
-4.121721
-4.205713
-4.319278
-4.467135
-0
-0
-0
-0
-0
-0
-0
-0
-0
-0
-0
-0
-0
-3.910752
-3.966541
-4.046023
-4.153036
-4.291818
-0
-0
-0
-0
-0
-0
-0
-0
-0
-0
-0
-0
-0
-0
-3.766994
-3.820216
-3.895632
-3.996738
-4.127391
-0
-0
-0
-0
-0
-0
-0
-0
-0
-0
-0
-0
-0
-0
-0
-3.632179
-3.683096
-3.754857
-3.850664
-3.974031
-0
-0
-0
-0
-0
-0
-0
-0
-0
-0
-0
-0
-0
-0
-0
-0
-3.50555
-3.554381
-3.622844
-3.713873
-3.830689
-0
-0
-0
-0
-0
-0
-0
-0
-0
-0
-0
-0
-0
-0
-0
-0
-0
-3.385501
-3.432399
-3.497845
-3.584519
-3.695374
-0
-0
-0
-0
-0
-0
-0
-0
-0
-0
-0
-0
-0
-0
-0
-0
-0
-0
-3.269517
-3.314612
-3.377219
-3.459839
-3.565161
-0
-0
-0
-0
-0
-0
-0
-0
-0
-0
-0
-0
-0
-0
-0
-0
-0
-0
-0
-3.154443
-3.197756
-3.25763
-3.33633
-3.436357
-0
-0
-0
-0
-0
-0
-0
-0
-0
-0
-0
-0
-0
-0
-0
-0
-0
-0
-0
-0
-3.038404
-3.079961
-3.137095
-3.211941
-3.306753
-0
-0
-0
-0
-0
-0
-0
-0
-0
-0
-2.924777
-2.964614
-3.019138
-3.090275
-3.180148
-0
-0
-0
-0
-0
-0
-0
-0
-0
-0
-2.817474
-2.855711
-2.907807
-2.97556
-3.060888
-0
-0
-0
-0
-0
-0
-0
-0
-0
-0
-2.718624
-2.755316
-2.805217
-2.869908
-2.951181
-0
-0
-0
-0
-0
-0
-0
-0
-0
-0
-2.628862
-2.664139
-2.711984
-2.773942
-2.851598
-0
-0
-0
-0
-0
-0
-0
-0
-0
-0
-5.045757
-5.126332
-5.245437
-5.410987
-5.632315
-0
-0
-0
-0
-0
-0
-0
-4.846806
-4.92196
-5.032493
-5.185332
-5.388545
-0
-0
-0
-0
-0
-0
-0
-0
-4.670726
-4.741615
-4.845328
-4.988035
-5.176837
-0
-0
-0
-0
-0
-0
-0
-0
-0
-4.511334
-4.578726
-4.676802
-4.811131
-4.988061
-0
-0
-0
-0
-0
-0
-0
-0
-0
-0
-4.361511
-4.425855
-4.519005
-4.646037
-4.81268
-0
-0
-0
-0
-0
-0
-0
-0
-0
-0
-4.213201
-4.274654
-4.363153
-4.483332
-4.640386
-0
-0
-0
-0
-0
-0
-0
-0
-0
-0
-0
-0
-4.06205
-4.12062
-4.204513
-4.317942
-4.465609
-0
-0
-0
-0
-0
-0
-0
-0
-0
-0
-0
-0
-0
-3.912279
-3.968077
-4.047573
-4.154601
-4.293401
-0
-0
-0
-0
-0
-0
-0
-0
-0
-0
-0
-0
-0
-0
-3.768291
-3.82153
-3.896971
-3.998111
-4.128805
-0
-0
-0
-0
-0
-0
-0
-0
-0
-0
-0
-0
-0
-0
-0
-3.632179
-3.683096
-3.754857
-3.850664
-3.974031
-0
-0
-0
-0
-0
-0
-0
-0
-0
-0
-0
-0
-0
-0
-0
-0
-3.504346
-3.553155
-3.621591
-3.712586
-3.829357
-0
-0
-0
-0
-0
-0
-0
-0
-0
-0
-0
-0
-0
-0
-0
-0
-0
-3.38413
-3.430999
-3.49641
-3.583045
-3.693853
-0
-0
-0
-0
-0
-0
-0
-0
-0
-0
-0
-0
-0
-0
-0
-0
-0
-0
-3.270005
-3.315091
-3.3777
-3.460337
-3.565696
-0
-0
-0
-0
-0
-0
-0
-0
-0
-0
-0
-0
-0
-0
-0
-0
-0
-0
-0
-3.159636
-3.20301
-3.262996
-3.341871
-3.442149
-0
-0
-0
-0
-0
-0
-0
-0
-0
-0
-0
-0
-0
-0
-0
-0
-0
-0
-0
-0
-3.049976
-3.0917
-3.149109
-3.224359
-3.319727
-0
-0
-0
-0
-0
-0
-0
-0
-0
-0
-0
-0
-0
-0
-0
-0
-0
-0
-0
-0
-2.939278
-2.979331
-3.034198
-3.105827
-3.196364
-0
-0
-0
-0
-0
-0
-0
-0
-0
-0
-2.830744
-2.869175
-2.921574
-2.989756
-3.075659
-0
-0
-0
-0
-0
-0
-0
-0
-0
-0
-2.72822
-2.765048
-2.815161
-2.88015
-2.961822
-0
-0
-0
-0
-0
-0
-0
-0
-0
-0
-2.633696
-2.669045
-2.716999
-2.779107
-2.856961
-0
-0
-0
-0
-0
-0
-0
-0
-0
-0
-2.547928
-2.581807
-2.627802
-2.687248
-2.761698
-0
-0
-0
-0
-0
-0
-0
-0
-0
-0
-4.834445
-4.90917
-5.019083
-5.171056
-5.373084
-0
-0
-0
-0
-0
-0
-0
-0
-4.649014
-4.719205
-4.821904
-4.963194
-5.150063
-0
-0
-0
-0
-0
-0
-0
-0
-0
-4.484308
-4.550877
-4.647748
-4.780393
-4.955032
-0
-0
-0
-0
-0
-0
-0
-0
-0
-0
-4.334768
-4.398319
-4.490305
-4.615704
-4.780126
-0
-0
-0
-0
-0
-0
-0
-0
-0
-0
-4.193845
-4.254735
-4.342399
-4.461402
-4.616855
-0
-0
-0
-0
-0
-0
-0
-0
-0
-0
-4.054063
-4.112397
-4.195938
-4.308875
-4.455873
-0
-0
-0
-0
-0
-0
-0
-0
-0
-0
-0
-0
-0
-3.911385
-3.967137
-4.046561
-4.153481
-4.292134
-0
-0
-0
-0
-0
-0
-0
-0
-0
-0
-0
-0
-0
-0
-3.769785
-3.823039
-3.898501
-3.999667
-4.130389
-0
-0
-0
-0
-0
-0
-0
-0
-0
-0
-0
-0
-0
-0
-0
-3.63343
-3.684366
-3.756153
-3.851995
-3.975406
-0
-0
-0
-0
-0
-0
-0
-0
-0
-0
-0
-0
-0
-0
-0
-0
-3.504346
-3.553155
-3.621591
-3.712586
-3.829357
-0
-0
-0
-0
-0
-0
-0
-0
-0
-0
-0
-0
-0
-0
-0
-0
-0
-3.382972
-3.429818
-3.4952
-3.581799
-3.692564
-0
-0
-0
-0
-0
-0
-0
-0
-0
-0
-0
-0
-0
-0
-0
-0
-0
-0
-3.268681
-3.313735
-3.376306
-3.458899
-3.564209
-0
-0
-0
-0
-0
-0
-0
-0
-0
-0
-0
-0
-0
-0
-0
-0
-0
-0
-0
-3.160084
-3.203443
-3.263424
-3.342306
-3.442607
-0
-0
-0
-0
-0
-0
-0
-0
-0
-0
-0
-0
-0
-0
-0
-0
-0
-0
-0
-0
-3.054918
-3.096693
-3.154199
-3.229601
-3.325188
-0
-0
-0
-0
-0
-0
-0
-0
-0
-0
-0
-0
-0
-0
-0
-0
-0
-0
-0
-0
-2.950327
-2.990528
-3.045645
-3.117641
-3.208684
-0
-0
-0
-0
-0
-0
-0
-0
-0
-0
-0
-0
-0
-0
-0
-0
-0
-0
-0
-0
-2.844616
-2.883243
-2.935955
-3.004589
-3.091103
-0
-0
-0
-0
-0
-0
-0
-0
-0
-0
-2.740937
-2.777943
-2.828334
-2.893719
-2.975923
-0
-0
-0
-0
-0
-0
-0
-0
-0
-0
-2.642902
-2.67838
-2.726529
-2.788913
-2.867137
-0
-0
-0
-0
-0
-0
-0
-0
-0
-0
-2.552569
-2.586513
-2.632609
-2.692195
-2.76683
-0
-0
-0
-0
-0
-0
-0
-0
-0
-0
-2.4706