/*--------------------------------*- C++ -*----------------------------------*\
| =========                 |                                                 |
| \\      /  F ield         | OpenFOAM: The Open Source CFD Toolbox           |
|  \\    /   O peration     | Version:  2306                                  |
|   \\  /    A nd           | Website:  www.openfoam.com                      |
|    \\/     M anipulation  |                                                 |
\*---------------------------------------------------------------------------*/
FoamFile
{
    version     2.0;
    format      ascii;
    arch        "LSB;label=32;scalar=64";
    class       volScalarField;
    location    "1.2/fuel";
    object      j;
}
// * * * * * * * * * * * * * * * * * * * * * * * * * * * * * * * * * * * * * //

dimensions      [0 -3 0 0 0 1 0];

internalField   nonuniform List<scalar> 
16000
(
9.419488e+08
9.500692e+08
8.603147e+08
9.018482e+08
9.664715e+08
8.654879e+08
9.09398e+08
7.908824e+08
8.257974e+08
8.735211e+08
9.912085e+08
8.756583e+08
9.246378e+08
7.947937e+08
8.306309e+08
8.806903e+08
7.350826e+08
7.608703e+08
8.012142e+08
8.56115e+08
1.023417e+09
8.902837e+08
9.476002e+08
8.02389e+08
8.40129e+08
8.951589e+08
7.382687e+08
7.645402e+08
8.058157e+08
8.630729e+08
6.886502e+08
7.085247e+08
7.393685e+08
7.858981e+08
8.486329e+08
1.05818e+09
9.079819e+08
9.774646e+08
8.130745e+08
8.537786e+08
9.169558e+08
7.444101e+08
7.716635e+08
8.148558e+08
8.771191e+08
6.913492e+08
7.115242e+08
7.42871e+08
7.903641e+08
8.555264e+08
6.487212e+08
6.648476e+08
6.894186e+08
7.258449e+08
7.790707e+08
0
1.084483e+09
9.252093e+08
1.009657e+09
8.255436e+08
8.702829e+08
9.453079e+08
7.529378e+08
7.816794e+08
8.278442e+08
8.982931e+08
6.965263e+08
7.173038e+08
7.496676e+08
7.991387e+08
8.694523e+08
6.51063e+08
6.67396e+08
6.922876e+08
7.292468e+08
7.834854e+08
0
6.136613e+08
6.271967e+08
6.476708e+08
6.773268e+08
7.196838e+08
0
0
1.101133e+09
9.3683e+08
1.033925e+09
8.369967e+08
8.863328e+08
9.758801e+08
7.626666e+08
7.933585e+08
8.435472e+08
9.258727e+08
7.036523e+08
7.253245e+08
7.592216e+08
8.117485e+08
8.904737e+08
6.555391e+08
6.722821e+08
6.978142e+08
7.358481e+08
7.92162e+08
0
6.157284e+08
6.294133e+08
6.50113e+08
6.801162e+08
7.230438e+08
0
0
5.823737e+08
5.940638e+08
6.116259e+08
6.367523e+08
6.717481e+08
0
0
0
1.1106e+09
9.432927e+08
1.049238e+09
8.440745e+08
8.971291e+08
9.988666e+08
7.712725e+08
8.040758e+08
8.588156e+08
9.556722e+08
7.116572e+08
7.344682e+08
7.70359e+08
8.270024e+08
9.179236e+08
6.616613e+08
6.790038e+08
7.054815e+08
7.451278e+08
8.046387e+08
0
6.196692e+08
6.336485e+08
6.547943e+08
6.854888e+08
7.29565e+08
0
0
5.842214e+08
5.960249e+08
6.137539e+08
6.39129e+08
6.745028e+08
0
0
0
5.541326e+08
5.644354e+08
5.798587e+08
6.016957e+08
6.316747e+08
0
0
0
0
1.114854e+09
9.465623e+08
1.057924e+09
8.474886e+08
9.031188e+08
1.013342e+09
7.762699e+08
8.106813e+08
8.690597e+08
9.780437e+08
7.185534e+08
7.425477e+08
7.805741e+08
8.418455e+08
9.47688e+08
6.684604e+08
6.865487e+08
7.142187e+08
7.559477e+08
8.197499e+08
0
6.250332e+08
6.39438e+08
6.612323e+08
6.929421e+08
7.38735e+08
0
0
5.877366e+08
5.99762e+08
6.178187e+08
6.436844e+08
6.798092e+08
0
0
0
5.558005e+08
5.661919e+08
5.817445e+08
6.037688e+08
6.340224e+08
0
0
0
0
5.284032e+08
5.376409e+08
5.514111e+08
5.707763e+08
5.970531e+08
0
0
0
0
0
1.114854e+09
9.479141e+08
1.061823e+09
8.489085e+08
9.06144e+08
1.021543e+09
7.783965e+08
8.138588e+08
8.747328e+08
9.921221e+08
7.22379e+08
7.472261e+08
7.868518e+08
8.517809e+08
9.700249e+08
6.742028e+08
6.930404e+08
7.219328e+08
7.658724e+08
8.344763e+08
0
6.309379e+08
6.458622e+08
6.684549e+08
7.014353e+08
7.494338e+08
0
0
5.925029e+08
6.04846e+08
6.233734e+08
6.499484e+08
6.871718e+08
0
0
0
5.589686e+08
5.695323e+08
5.85337e+08
6.077281e+08
6.385221e+08
0
0
0
0
5.299206e+08
5.392294e+08
5.531026e+08
5.726151e+08
5.991014e+08
0
0
0
0
0
5.047921e+08
5.131857e+08
5.256496e+08
5.430665e+08
5.665142e+08
0
0
0
0
0
0
1.1106e+09
9.479141e+08
1.061823e+09
8.493862e+08
9.073936e+08
1.025223e+09
7.790851e+08
8.151765e+08
8.775961e+08
1.0001e+09
7.238396e+08
7.492095e+08
7.898634e+08
8.572772e+08
9.840909e+08
6.772768e+08
6.966304e+08
7.263847e+08
7.719526e+08
8.443137e+08
0
6.358479e+08
6.512803e+08
6.746628e+08
7.089309e+08
7.592524e+08
0
0
5.977122e+08
6.104375e+08
6.295336e+08
6.569747e+08
6.955644e+08
0
0
0
5.632505e+08
5.74059e+08
5.902226e+08
6.131377e+08
6.447102e+08
0
0
0
0
5.327991e+08
5.422456e+08
5.563186e+08
5.761176e+08
6.030134e+08
0
0
0
0
0
5.061815e+08
5.146335e+08
5.271815e+08
5.447173e+08
5.683316e+08
0
0
0
0
0
0
4.829932e+08
4.907061e+08
5.021071e+08
5.17954e+08
5.391401e+08
0
0
0
0
0
0
0
1.101133e+09
9.465623e+08
1.057924e+09
8.493862e+08
9.073936e+08
1.025223e+09
7.792313e+08
8.156186e+08
8.787789e+08
1.003681e+09
7.241811e+08
7.498473e+08
7.911096e+08
8.600527e+08
9.920735e+08
6.78342e+08
6.97994e+08
7.282641e+08
7.748623e+08
8.497538e+08
0
6.384015e+08
6.541709e+08
6.78083e+08
7.132403e+08
7.652479e+08
0
0
6.019891e+08
6.150798e+08
6.347226e+08
6.630095e+08
7.029703e+08
0
0
0
5.679025e+08
5.790019e+08
5.955925e+08
6.191356e+08
6.516524e+08
0
0
0
0
5.366792e+08
5.4632e+08
5.606751e+08
5.8088e+08
6.083587e+08
0
0
0
0
0
5.088146e+08
5.173787e+08
5.300894e+08
5.478555e+08
5.717935e+08
0
0
0
0
0
0
4.842724e+08
4.920338e+08
5.03505e+08
5.194503e+08
5.407723e+08
0
0
0
0
0
0
0
4.627658e+08
4.699187e+08
4.804399e+08
4.949872e+08
5.143258e+08
0
0
0
0
0
0
0
0
1.084483e+09
9.432927e+08
1.049238e+09
8.489085e+08
9.06144e+08
1.021543e+09
7.792313e+08
8.156186e+08
8.787789e+08
1.003681e+09
7.2418e+08
7.499805e+08
7.915268e+08
8.612003e+08
9.956606e+08
6.78496e+08
6.983076e+08
7.288643e+08
7.760646e+08
8.525052e+08
0
6.392112e+08
6.551656e+08
6.793742e+08
7.150514e+08
7.681104e+08
0
0
6.041597e+08
6.174854e+08
6.374795e+08
6.663199e+08
7.072101e+08
0
0
0
5.716815e+08
5.830535e+08
6.000448e+08
6.241828e+08
6.576117e+08
0
0
0
0
5.408732e+08
5.507423e+08
5.65429e+08
5.861129e+08
6.142854e+08
0
0
0
0
0
5.123557e+08
5.210772e+08
5.340159e+08
5.521059e+08
5.765006e+08
0
0
0
0
0
0
4.866947e+08
4.945491e+08
5.06155e+08
5.222902e+08
5.438752e+08
0
0
0
0
0
0
0
4.639491e+08
4.71143e+08
4.817235e+08
4.963537e+08
5.158058e+08
0
0
0
0
0
0
0
0
4.439171e+08
4.506007e+08
4.603804e+08
4.738343e+08
4.916256e+08
0
0
0
0
0
0
0
0
0
1.05818e+09
9.3683e+08
1.033925e+09
8.474886e+08
9.031188e+08
1.013342e+09
7.790851e+08
8.151765e+08
8.775961e+08
1.0001e+09
7.2418e+08
7.499805e+08
7.915268e+08
8.612003e+08
9.956606e+08
6.784217e+08
6.983028e+08
7.289876e+08
7.764671e+08
8.536452e+08
0
6.392553e+08
6.553034e+08
6.796659e+08
7.15626e+08
7.692926e+08
0
0
6.047921e+08
6.182412e+08
6.384204e+08
6.675613e+08
7.089834e+08
0
0
0
5.735589e+08
5.851015e+08
6.023416e+08
6.268517e+08
6.608647e+08
0
0
0
0
5.442491e+08
5.543285e+08
5.693198e+08
5.904465e+08
6.192689e+08
0
0
0
0
0
5.161665e+08
5.250709e+08
5.382748e+08
5.567424e+08
5.816727e+08
0
0
0
0
0
0
4.899457e+08
4.9793e+08
5.097238e+08
5.261243e+08
5.480777e+08
0
0
0
0
0
0
0
4.661881e+08
4.734604e+08
4.841545e+08
4.989439e+08
5.186147e+08
0
0
0
0
0
0
0
0
4.450159e+08
4.517348e+08
4.615654e+08
4.7509e+08
4.929776e+08
0
0
0
0
0
0
0
0
0
4.262893e+08
4.325735e+08
4.417182e+08
4.54237e+08
4.707122e+08
0
0
0
0
0
0
0
0
0
0
1.023417e+09
9.252093e+08
1.009657e+09
8.440745e+08
8.971291e+08
9.988666e+08
7.783965e+08
8.138588e+08
8.747328e+08
9.921221e+08
7.241811e+08
7.498473e+08
7.911096e+08
8.600527e+08
9.920735e+08
6.784217e+08
6.983028e+08
7.289876e+08
7.764671e+08
8.536452e+08
0
6.391426e+08
6.552297e+08
6.796574e+08
7.157423e+08
7.696886e+08
0
0
6.047672e+08
6.182758e+08
6.385446e+08
6.678365e+08
7.095424e+08
0
0
0
5.740626e+08
5.856914e+08
6.030558e+08
6.277545e+08
6.620758e+08
0
0
0
0
5.458947e+08
5.561025e+08
5.712773e+08
5.926709e+08
6.2189e+08
0
0
0
0
0
5.192098e+08
5.282799e+08
5.41723e+08
5.605323e+08
5.859519e+08
0
0
0
0
0
0
4.934306e+08
5.015647e+08
5.135749e+08
5.302814e+08
5.526617e+08
0
0
0
0
0
0
0
4.691879e+08
4.76569e+08
4.874207e+08
5.024314e+08
5.22407e+08
0
0
0
0
0
0
0
0
4.470942e+08
4.5388e+08
4.638076e+08
4.774679e+08
4.955405e+08
0
0
0
0
0
0
0
0
0
4.273134e+08
4.33628e+08
4.428169e+08
4.55397e+08
4.719552e+08
0
0
0
0
0
0
0
0
0
0
4.097523e+08
4.15691e+08
4.242844e+08
4.359921e+08
4.513313e+08
0
0
0
0
0
0
0
0
0
0
9.912085e+08
9.079819e+08
9.774646e+08
8.369967e+08
8.863328e+08
9.758801e+08
7.762699e+08
8.106813e+08
8.690597e+08
9.780437e+08
7.238396e+08
7.492095e+08
7.898634e+08
8.572772e+08
9.840909e+08
6.78496e+08
6.983076e+08
7.288643e+08
7.760646e+08
8.525052e+08
0
6.391426e+08
6.552297e+08
6.796574e+08
7.157423e+08
7.696886e+08
0
0
6.046333e+08
6.181656e+08
6.384703e+08
6.678246e+08
7.096539e+08
0
0
0
5.739927e+08
5.85661e+08
6.030816e+08
6.278675e+08
6.623388e+08
0
0
0
0
5.463017e+08
5.56572e+08
5.718339e+08
5.933548e+08
6.227681e+08
0
0
0
0
0
5.206681e+08
5.298372e+08
5.434204e+08
5.624289e+08
5.88136e+08
0
0
0
0
0
0
4.961945e+08
5.044619e+08
5.166642e+08
5.336426e+08
5.564048e+08
0
0
0
0
0
0
0
4.723927e+08
4.798979e+08
4.909297e+08
5.061933e+08
5.265184e+08
0
0
0
0
0
0
0
0
4.498745e+08
4.567524e+08
4.668141e+08
4.806621e+08
4.989912e+08
0
0
0
0
0
0
0
0
0
4.292498e+08
4.356219e+08
4.448947e+08
4.575918e+08
4.743087e+08
0
0
0
0
0
0
0
0
0
0
4.107098e+08
4.16675e+08
4.253071e+08
4.370685e+08
4.524798e+08
0
0
0
0
0
0
0
0
0
0
3.94196e+08
3.998324e+08
4.07941e+08
4.189369e+08
4.332826e+08
0
0
0
0
0
0
0
0
0
0
9.664715e+08
8.902837e+08
9.476002e+08
8.255436e+08
8.702829e+08
9.453079e+08
7.712725e+08
8.040758e+08
8.588156e+08
9.556722e+08
7.22379e+08
7.472261e+08
7.868518e+08
8.517809e+08
9.700249e+08
6.78342e+08
6.97994e+08
7.282641e+08
7.748623e+08
8.497538e+08
0
6.392553e+08
6.553034e+08
6.796659e+08
7.15626e+08
7.692926e+08
0
0
6.046333e+08
6.181656e+08
6.384703e+08
6.678246e+08
7.096539e+08
0
0
0
5.738475e+08
5.855307e+08
6.029723e+08
6.277915e+08
6.623234e+08
0
0
0
0
5.462017e+08
5.564992e+08
5.717978e+08
5.933726e+08
6.228715e+08
0
0
0
0
0
5.210005e+08
5.302159e+08
5.438627e+08
5.629609e+08
5.887994e+08
0
0
0
0
0
0
4.974984e+08
5.058437e+08
5.181555e+08
5.352881e+08
5.58267e+08
0
0
0
0
0
0
0
4.749189e+08
4.82533e+08
4.93722e+08
5.092068e+08
5.29839e+08
0
0
0
0
0
0
0
0
4.528359e+08
4.59818e+08
4.700315e+08
4.840924e+08
5.027131e+08
0
0
0
0
0
0
0
0
0
4.318368e+08
4.382877e+08
4.476758e+08
4.605342e+08
4.774703e+08
0
0
0
0
0
0
0
0
0
0
4.1252e+08
4.185351e+08
4.272402e+08
4.391037e+08
4.54653e+08
0
0
0
0
0
0
0
0
0
0
3.950938e+08
4.007535e+08
4.088962e+08
4.199394e+08
4.343486e+08
0
0
0
0
0
0
0
0
0
0
3.795276e+08
3.848958e+08
3.92574e+08
4.029381e+08
4.164059e+08
0
0
0
0
0
0
0
0
0
0
9.500692e+08
8.756583e+08
9.246378e+08
8.130745e+08
8.537786e+08
9.169558e+08
7.626666e+08
7.933585e+08
8.435472e+08
9.258727e+08
7.185534e+08
7.425477e+08
7.805741e+08
8.418455e+08
9.47688e+08
6.772768e+08
6.966304e+08
7.263847e+08
7.719526e+08
8.443137e+08
0
6.392112e+08
6.551656e+08
6.793742e+08
7.150514e+08
7.681104e+08
0
0
6.047672e+08
6.182758e+08
6.385446e+08
6.678365e+08
7.095424e+08
0
0
0
5.738475e+08
5.855307e+08
6.029723e+08
6.277915e+08
6.623234e+08
0
0
0
0
5.460506e+08
5.563579e+08
5.716692e+08
5.932628e+08
6.227929e+08
0
0
0
0
0
5.208801e+08
5.301146e+08
5.437862e+08
5.62919e+08
5.888096e+08
0
0
0
0
0
0
4.977723e+08
5.061526e+08
5.185117e+08
5.357099e+08
5.587818e+08
0
0
0
0
0
0
0
4.760942e+08
4.837701e+08
4.950466e+08
5.106534e+08
5.314548e+08
0
0
0
0
0
0
0
0
4.55158e+08
4.622299e+08
4.725739e+08
4.868182e+08
5.056911e+08
0
0
0
0
0
0
0
0
0
4.345849e+08
4.411244e+08
4.506419e+08
4.636817e+08
4.808653e+08
0
0
0
0
0
0
0
0
0
0
4.149354e+08
4.210187e+08
4.298239e+08
4.418274e+08
4.575663e+08
0
0
0
0
0
0
0
0
0
0
3.967911e+08
4.024945e+08
4.107014e+08
4.218342e+08
4.363644e+08
0
0
0
0
0
0
0
0
0
0
3.803716e+08
3.857605e+08
3.934689e+08
4.03875e+08
4.173991e+08
0
0
0
0
0
0
0
0
0
0
3.656668e+08
3.70795e+08
3.780869e+08
3.878859e+08
4.0057e+08
0
0
0
0
0
0
0
0
0
0
9.419488e+08
8.654879e+08
9.09398e+08
8.02389e+08
8.40129e+08
8.951589e+08
7.529378e+08
7.816794e+08
8.278442e+08
8.982931e+08
7.116572e+08
7.344682e+08
7.70359e+08
8.270024e+08
9.179236e+08
6.742028e+08
6.930404e+08
7.219328e+08
7.658724e+08
8.344763e+08
0
6.384015e+08
6.541709e+08
6.78083e+08
7.132403e+08
7.652479e+08
0
0
6.047921e+08
6.182412e+08
6.384204e+08
6.675613e+08
7.089834e+08
0
0
0
5.739927e+08
5.85661e+08
6.030816e+08
6.278675e+08
6.623388e+08
0
0
0
0
5.460506e+08
5.563579e+08
5.716692e+08
5.932628e+08
6.227929e+08
0
0
0
0
0
5.207268e+08
5.299677e+08
5.43647e+08
5.627905e+08
5.886978e+08
0
0
0
0
0
0
4.976382e+08
5.06032e+08
5.18408e+08
5.35629e+08
5.587337e+08
0
0
0
0
0
0
0
4.763217e+08
4.840239e+08
4.953365e+08
5.109924e+08
5.31862e+08
0
0
0
0
0
0
0
0
4.562247e+08
4.633463e+08
4.737609e+08
4.881038e+08
5.071119e+08
0
0
0
0
0
0
0
0
0
4.367298e+08
4.433443e+08
4.529713e+08
4.661652e+08
4.835599e+08
0
0
0
0
0
0
0
0
0
0
4.174953e+08
4.236545e+08
4.325711e+08
4.447309e+08
4.606824e+08
0
0
0
0
0
0
0
0
0
0
3.990534e+08
4.048163e+08
4.131107e+08
4.243661e+08
4.39062e+08
0
0
0
0
0
0
0
0
0
0
3.819672e+08
3.873948e+08
3.9516e+08
4.056455e+08
4.192763e+08
0
0
0
0
0
0
0
0
0
0
3.66462e+08
3.716087e+08
3.789277e+08
3.887642e+08
4.014985e+08
0
0
0
0
0
0
0
0
0
0
3.525446e+08
3.574554e+08
3.643984e+08
3.736871e+08
3.856669e+08
0
0
0
0
0
0
0
0
0
0
8.603147e+08
9.018482e+08
7.947937e+08
8.306309e+08
8.806903e+08
7.444101e+08
7.716635e+08
8.148558e+08
8.771191e+08
7.036523e+08
7.253245e+08
7.592216e+08
8.117485e+08
8.904737e+08
6.684604e+08
6.865487e+08
7.142187e+08
7.559477e+08
8.197499e+08
0
6.358479e+08
6.512803e+08
6.746628e+08
7.089309e+08
7.592524e+08
0
0
6.041597e+08
6.174854e+08
6.374795e+08
6.663199e+08
7.072101e+08
0
0
0
5.740626e+08
5.856914e+08
6.030558e+08
6.277545e+08
6.620758e+08
0
0
0
0
5.462017e+08
5.564992e+08
5.717978e+08
5.933726e+08
6.228715e+08
0
0
0
0
0
5.207268e+08
5.299677e+08
5.43647e+08
5.627905e+08
5.886978e+08
0
0
0
0
0
0
4.97485e+08
5.058828e+08
5.182635e+08
5.354904e+08
5.586037e+08
0
0
0
0
0
0
0
4.76179e+08
4.838904e+08
4.952144e+08
5.108854e+08
5.317761e+08
0
0
0
0
0
0
0
0
4.56415e+08
4.635567e+08
4.739986e+08
4.883789e+08
5.074383e+08
0
0
0
0
0
0
0
0
0
4.377039e+08
4.443587e+08
4.540435e+08
4.673179e+08
4.848228e+08
0
0
0
0
0
0
0
0
0
0
4.19485e+08
4.257075e+08
4.347172e+08
4.47008e+08
4.631383e+08
0
0
0
0
0
0
0
0
0
0
0
4.014459e+08
4.072745e+08
4.156659e+08
4.270572e+08
4.419375e+08
0
0
0
0
0
0
0
0
0
0
3.840919e+08
3.895718e+08
3.974144e+08
4.08008e+08
4.217847e+08
0
0
0
0
0
0
0
0
0
0
3.679655e+08
3.731467e+08
3.805165e+08
3.904237e+08
4.03253e+08
0
0
0
0
0
0
0
0
0
0
3.532953e+08
3.582229e+08
3.651902e+08
3.745128e+08
3.865376e+08
0
0
0
0
0
0
0
0
0
0
3.40101e+08
3.448129e+08
3.514377e+08
3.602633e+08
3.71605e+08
0
0
0
0
0
0
0
0
0
0
7.908824e+08
8.257974e+08
8.735211e+08
7.382687e+08
7.645402e+08
8.058157e+08
8.630729e+08
6.965263e+08
7.173038e+08
7.496676e+08
7.991387e+08
8.694523e+08
6.616613e+08
6.790038e+08
7.054815e+08
7.451278e+08
8.046387e+08
0
6.309379e+08
6.458622e+08
6.684549e+08
7.014353e+08
7.494338e+08
0
0
6.019891e+08
6.150798e+08
6.347226e+08
6.630095e+08
7.029703e+08
0
0
0
5.735589e+08
5.851015e+08
6.023416e+08
6.268517e+08
6.608647e+08
0
0
0
0
5.463017e+08
5.56572e+08
5.718339e+08
5.933548e+08
6.227681e+08
0
0
0
0
0
5.208801e+08
5.301146e+08
5.437862e+08
5.62919e+08
5.888096e+08
0
0
0
0
0
0
4.97485e+08
5.058828e+08
5.182635e+08
5.354904e+08
5.586037e+08
0
0
0
0
0
0
0
4.760274e+08
4.837413e+08
4.950677e+08
5.107416e+08
5.316363e+08
0
0
0
0
0
0
0
0
4.562672e+08
4.63415e+08
4.738643e+08
4.882544e+08
5.073271e+08
0
0
0
0
0
0
0
0
0
4.378642e+08
4.445342e+08
4.542398e+08
4.675428e+08
4.85087e+08
0
0
0
0
0
0
0
0
0
0
4.203794e+08
4.266349e+08
4.356923e+08
4.480497e+08
4.642709e+08
0
0
0
0
0
0
0
0
0
0
0
4.032987e+08
4.091812e+08
4.176525e+08
4.291564e+08
4.4419e+08
0
0
0
0
0
0
0
0
0
0
0
0
3.863345e+08
3.918719e+08
3.997995e+08
4.105125e+08
4.244507e+08
0
0
0
0
0
0
0
0
0
0
3.699659e+08
3.751936e+08
3.826322e+08
3.926355e+08
4.055944e+08
0
0
0
0
0
0
0
0
0
0
3.547153e+08
3.596737e+08
3.666866e+08
3.760727e+08
3.881826e+08
0
0
0
0
0
0
0
0
0
0
3.408112e+08
3.455382e+08
3.521852e+08
3.610413e+08
3.724236e+08
0
0
0
0
0
0
0
0
0
0
3.282811e+08
3.328118e+08
3.391444e+08
3.475463e+08
3.58307e+08
0
0
0
0
0
0
0
0
0
0
7.350826e+08
7.608703e+08
8.012142e+08
8.56115e+08
6.913492e+08
7.115242e+08
7.42871e+08
7.903641e+08
8.555264e+08
6.555391e+08
6.722821e+08
6.978142e+08
7.358481e+08
7.92162e+08
0
6.250332e+08
6.39438e+08
6.612323e+08
6.929421e+08
7.38735e+08
0
0
5.977122e+08
6.104375e+08
6.295336e+08
6.569747e+08
6.955644e+08
0
0
0
5.716815e+08
5.830535e+08
6.000448e+08
6.241828e+08
6.576117e+08
0
0
0
0
5.458947e+08
5.561025e+08
5.712773e+08
5.926709e+08
6.2189e+08
0
0
0
0
0
5.210005e+08
5.302159e+08
5.438627e+08
5.629609e+08
5.887994e+08
0
0
0
0
0
0
4.976382e+08
5.06032e+08
5.18408e+08
5.35629e+08
5.587337e+08
0
0
0
0
0
0
0
4.760274e+08
4.837413e+08
4.950677e+08
5.107416e+08
5.316363e+08
0
0
0
0
0
0
0
0
4.561183e+08
4.632673e+08
4.737176e+08
4.881085e+08
5.071824e+08
0
0
0
0
0
0
0
0
0
4.377138e+08
4.443877e+08
4.540979e+08
4.674067e+08
4.849589e+08
0
0
0
0
0
0
0
0
0
0
4.205152e+08
4.267823e+08
4.358556e+08
4.48235e+08
4.644863e+08
0
0
0
0
0
0
0
0
0
0
0
4.041237e+08
4.100337e+08
4.185447e+08
4.301043e+08
4.452139e+08
0
0
0
0
0
0
0
0
0
0
0
0
3.880656e+08
3.936495e+08
4.016463e+08
4.124569e+08
4.265279e+08
0
0
0
0
0
0
0
0
0
0
0
0
0
3.720739e+08
3.773519e+08
3.848659e+08
3.949747e+08
4.080762e+08
0
0
0
0
0
0
0
0
0
0
3.566031e+08
3.616028e+08
3.686774e+08
3.781497e+08
3.903752e+08
0
0
0
0
0
0
0
0
0
0
3.421548e+08
3.469097e+08
3.535978e+08
3.625113e+08
3.739704e+08
0
0
0
0
0
0
0
0
0
0
3.289539e+08
3.334985e+08
3.398513e+08
3.48281e+08
3.590786e+08
0
0
0
0
0
0
0
0
0
0
3.170389e+08
3.214007e+08
3.274656e+08
3.354777e+08
3.45706e+08
0
0
0
0
0
0
0
0
0
0
6.886502e+08
7.085247e+08
7.393685e+08
7.858981e+08
8.486329e+08
6.51063e+08
6.67396e+08
6.922876e+08
7.292468e+08
7.834854e+08
0
6.196692e+08
6.336485e+08
6.547943e+08
6.854888e+08
7.29565e+08
0
0
5.925029e+08
6.04846e+08
6.233734e+08
6.499484e+08
6.871718e+08
0
0
0
5.679025e+08
5.790019e+08
5.955925e+08
6.191356e+08
6.516524e+08
0
0
0
0
5.442491e+08
5.543285e+08
5.693198e+08
5.904465e+08
6.192689e+08
0
0
0
0
0
5.206681e+08
5.298372e+08
5.434204e+08
5.624289e+08
5.88136e+08
0
0
0
0
0
0
4.977723e+08
5.061526e+08
5.185117e+08
5.357099e+08
5.587818e+08
0
0
0
0
0
0
0
4.76179e+08
4.838904e+08
4.952144e+08
5.108854e+08
5.317761e+08
0
0
0
0
0
0
0
0
4.561183e+08
4.632673e+08
4.737176e+08
4.881085e+08
5.071824e+08
0
0
0
0
0
0
0
0
0
4.375684e+08
4.442426e+08
4.539526e+08
4.672609e+08
4.848124e+08
0
0
0
0
0
0
0
0
0
0
4.203641e+08
4.266333e+08
4.357091e+08
4.480915e+08
4.643471e+08
0
0
0
0
0
0
0
0
0
0
0
4.042392e+08
4.10158e+08
4.186813e+08
4.302579e+08
4.453908e+08
0
0
0
0
0
0
0
0
0
0
0
0
3.888302e+08
3.944366e+08
4.024671e+08
4.133248e+08
4.274599e+08
0
0
0
0
0
0
0
0
0
0
0
0
0
3.736965e+08
3.790146e+08
3.86589e+08
3.967834e+08
4.100009e+08
0
0
0
0
0
0
0
0
0
0
0
0
0
0
3.585895e+08
3.636336e+08
3.707752e+08
3.803415e+08
3.926939e+08
0
0
0
0
0
0
0
0
0
0
3.4394e+08
3.487321e+08
3.554756e+08
3.644667e+08
3.760299e+08
0
0
0
0
0
0
0
0
0
0
3.302276e+08
3.347975e+08
3.411877e+08
3.496695e+08
3.605366e+08
0
0
0
0
0
0
0
0
0
0
3.176777e+08
3.22052e+08
3.281353e+08
3.361729e+08
3.464349e+08
0
0
0
0
0
0
0
0
0
0
3.063342e+08
3.10537e+08
3.163526e+08
3.240066e+08
3.337445e+08
0
0
0
0
0
0
0
0
0
0
6.487212e+08
6.648476e+08
6.894186e+08
7.258449e+08
7.790707e+08
0
6.157284e+08
6.294133e+08
6.50113e+08
6.801162e+08
7.230438e+08
0
0
5.877366e+08
5.99762e+08
6.178187e+08
6.436844e+08
6.798092e+08
0
0
0
5.632505e+08
5.74059e+08
5.902226e+08
6.131377e+08
6.447102e+08
0
0
0
0
5.408732e+08
5.507423e+08
5.65429e+08
5.861129e+08
6.142854e+08
0
0
0
0
0
5.192098e+08
5.282799e+08
5.41723e+08
5.605323e+08
5.859519e+08
0
0
0
0
0
0
4.974984e+08
5.058437e+08
5.181555e+08
5.352881e+08
5.58267e+08
0
0
0
0
0
0
0
4.763217e+08
4.840239e+08
4.953365e+08
5.109924e+08
5.31862e+08
0
0
0
0
0
0
0
0
4.562672e+08
4.63415e+08
4.738643e+08
4.882544e+08
5.073271e+08
0
0
0
0
0
0
0
0
0
4.375684e+08
4.442426e+08
4.539526e+08
4.672609e+08
4.848124e+08
0
0
0
0
0
0
0
0
0
0
4.202225e+08
4.264915e+08
4.355664e+08
4.479473e+08
4.642008e+08
0
0
0
0
0
0
0
0
0
0
0
4.040887e+08
4.100085e+08
4.185327e+08
4.301103e+08
4.452447e+08
0
0
0
0
0
0
0
0
0
0
0
0
3.889292e+08
3.94542e+08
4.025819e+08
4.134527e+08
4.27606e+08
0
0
0
0
0
0
0
0
0
0
0
0
0
3.744081e+08
3.797448e+08
3.873475e+08
3.975822e+08
4.108544e+08
0
0
0
0
0
0
0
0
0
0
0
0
0
0
3.601149e+08
3.651938e+08
3.723883e+08
3.820301e+08
3.944847e+08
0
0
0
0
0
0
0
0
0
0
0
0
0
0
0
3.458158e+08
3.506477e+08
3.574509e+08
3.665263e+08
3.782031e+08
0
0
0
0
0
0
0
0
0
0
3.31919e+08
3.365224e+08
3.429628e+08
3.515147e+08
3.62476e+08
0
0
0
0
0
0
0
0
0
0
3.188877e+08
3.232844e+08
3.29402e+08
3.37487e+08
3.478123e+08
0
0
0
0
0
0
0
0
0
0
3.069418e+08
3.111559e+08
3.169881e+08
3.246655e+08
3.344343e+08
0
0
0
0
0
0
0
0
0
0
2.961339e+08
3.001833e+08
3.057651e+08
3.130859e+08
3.223725e+08
0
0
0
0
0
0
0
0
0
0
6.136613e+08
6.271967e+08
6.476708e+08
6.773268e+08
7.196838e+08
0
0
5.842214e+08
5.960249e+08
6.137539e+08
6.39129e+08
6.745028e+08
0
0
0
5.589686e+08
5.695323e+08
5.85337e+08
6.077281e+08
6.385221e+08
0
0
0
0
5.366792e+08
5.4632e+08
5.606751e+08
5.8088e+08
6.083587e+08
0
0
0
0
0
5.161665e+08
5.250709e+08
5.382748e+08
5.567424e+08
5.816727e+08
0
0
0
0
0
0
4.961945e+08
5.044619e+08
5.166642e+08
5.336426e+08
5.564048e+08
0
0
0
0
0
0
0
4.760942e+08
4.837701e+08
4.950466e+08
5.106534e+08
5.314548e+08
0
0
0
0
0
0
0
0
4.56415e+08
4.635567e+08
4.739986e+08
4.883789e+08
5.074383e+08
0
0
0
0
0
0
0
0
0
4.377138e+08
4.443877e+08
4.540979e+08
4.674067e+08
4.849589e+08
0
0
0
0
0
0
0
0
0
0
4.202225e+08
4.264915e+08
4.355664e+08
4.479473e+08
4.642008e+08
0
0
0
0
0
0
0
0
0
0
0
4.039513e+08
4.098703e+08
4.18393e+08
4.299684e+08
4.451e+08
0
0
0
0
0
0
0
0
0
0
0
0
3.887805e+08
3.943931e+08
4.024328e+08
4.133032e+08
4.274561e+08
0
0
0
0
0
0
0
0
0
0
0
0
0
3.744936e+08
3.798348e+08
3.874444e+08
3.976894e+08
4.109757e+08
0
0
0
0
0
0
0
0
0
0
0
0
0
0
3.607795e+08
3.65874e+08
3.730925e+08
3.827687e+08
3.952706e+08
0
0
0
0
0
0
0
0
0
0
0
0
0
0
0
3.472533e+08
3.521158e+08
3.589658e+08
3.681079e+08
3.798755e+08
0
0
0
0
0
0
0
0
0
0
0
0
0
0
0
0
3.336944e+08
3.383331e+08
3.448275e+08
3.534551e+08
3.645187e+08
0
0
0
0
0
0
0
0
0
0
3.204937e+08
3.249202e+08
3.310834e+08
3.392323e+08
3.496429e+08
0
0
0
0
0
0
0
0
0
0
3.080932e+08
3.123277e+08
3.181907e+08
3.259117e+08
3.357383e+08
0
0
0
0
0
0
0
0
0
0
2.967126e+08
3.007723e+08
3.063694e+08
3.137114e+08
3.230264e+08
0
0
0
0
0
0
0
0
0
0
2.864027e+08
2.903088e+08
2.956676e+08
3.026766e+08
3.115435e+08
0
0
0
0
0
0
0
0
0
0
5.823737e+08
5.940638e+08
6.116259e+08
6.367523e+08
6.717481e+08
0
0
0
5.558005e+08
5.661919e+08
5.817445e+08
6.037688e+08
6.340224e+08
0
0
0
0
5.327991e+08
5.422456e+08
5.563186e+08
5.761176e+08
6.030134e+08
0
0
0
0
0
5.123557e+08
5.210772e+08
5.340159e+08
5.521059e+08
5.765006e+08
0
0
0
0
0
0
4.934306e+08
5.015647e+08
5.135749e+08
5.302814e+08
5.526617e+08
0
0
0
0
0
0
0
4.749189e+08
4.82533e+08
4.93722e+08
5.092068e+08
5.29839e+08
0
0
0
0
0
0
0
0
4.562247e+08
4.633463e+08
4.737609e+08
4.881038e+08
5.071119e+08
0
0
0
0
0
0
0
0
0
4.378642e+08
4.445342e+08
4.542398e+08
4.675428e+08
4.85087e+08
0
0
0
0
0
0
0
0
0
0
4.203641e+08
4.266333e+08
4.357091e+08
4.480915e+08
4.643471e+08
0
0
0
0
0
0
0
0
0
0
0
4.039513e+08
4.098703e+08
4.18393e+08
4.299684e+08
4.451e+08
0
0
0
0
0
0
0
0
0
0
0
0
3.886475e+08
3.942589e+08
4.022967e+08
4.131645e+08
4.273139e+08
0
0
0
0
0
0
0
0
0
0
0
0
0
3.743475e+08
3.796878e+08
3.87296e+08
3.975396e+08
4.108241e+08
0
0
0
0
0
0
0
0
0
0
0
0
0
0
3.608537e+08
3.659514e+08
3.731749e+08
3.828587e+08
3.953717e+08
0
0
0
0
0
0
0
0
0
0
0
0
0
0
0
3.478761e+08
3.527518e+08
3.596223e+08
3.68794e+08
3.806024e+08
0
0
0
0
0
0
0
0
0
0
0
0
0
0
0
0
3.350527e+08
3.39718e+08
3.462541e+08
3.549412e+08
3.660856e+08
0
0
0
0
0
0
0
0
0
0
0
0
0
0
0
0
0
3.221778e+08
3.266355e+08
3.328472e+08
3.410649e+08
3.515678e+08
0
0
0
0
0
0
0
0
0
0
3.096209e+08
3.138823e+08
3.197864e+08
3.275655e+08
3.374702e+08
0
0
0
0
0
0
0
0
0
0
2.9781e+08
3.018883e+08
3.075135e+08
3.14895e+08
3.242632e+08
0
0
0
0
0
0
0
0
0
0
2.869546e+08
2.908702e+08
2.962431e+08
3.032717e+08
3.121645e+08
0
0
0
0
0
0
0
0
0
0
2.771118e+08
2.808804e+08
2.860311e+08
2.927446e+08
3.012194e+08
0
0
0
0
0
0
0
0
0
0
5.541326e+08
5.644354e+08
5.798587e+08
6.016957e+08
6.316747e+08
0
0
0
0
5.299206e+08
5.392294e+08
5.531026e+08
5.726151e+08
5.991014e+08
0
0
0
0
0
5.088146e+08
5.173787e+08
5.300894e+08
5.478555e+08
5.717935e+08
0
0
0
0
0
0
4.899457e+08
4.9793e+08
5.097238e+08
5.261243e+08
5.480777e+08
0
0
0
0
0
0
0
4.723927e+08
4.798979e+08
4.909297e+08
5.061933e+08
5.265184e+08
0
0
0
0
0
0
0
0
4.55158e+08
4.622299e+08
4.725739e+08
4.868182e+08
5.056911e+08
0
0
0
0
0
0
0
0
0
4.377039e+08
4.443587e+08
4.540435e+08
4.673179e+08
4.848228e+08
0
0
0
0
0
0
0
0
0
0
4.205152e+08
4.267823e+08
4.358556e+08
4.48235e+08
4.644863e+08
0
0
0
0
0
0
0
0
0
0
0
4.040887e+08
4.100085e+08
4.185327e+08
4.301103e+08
4.452447e+08
0
0
0
0
0
0
0
0
0
0
0
0
3.886475e+08
3.942589e+08
4.022967e+08
4.131645e+08
4.273139e+08
0
0
0
0
0
0
0
0
0
0
0
0
0
3.74219e+08
3.795577e+08
3.871638e+08
3.974044e+08
4.106852e+08
0
0
0
0
0
0
0
0
0
0
0
0
0
0
3.607107e+08
3.65807e+08
3.730284e+08
3.827097e+08
3.952201e+08
0
0
0
0
0
0
0
0
0
0
0
0
0
0
0
3.47941e+08
3.528187e+08
3.596928e+08
3.688701e+08
3.806869e+08
0
0
0
0
0
0
0
0
0
0
0
0
0
0
0
0
3.356385e+08
3.403145e+08
3.468683e+08
3.555812e+08
3.667609e+08
0
0
0
0
0
0
0
0
0
0
0
0
0
0
0
0
0
3.234646e+08
3.279453e+08
3.341939e+08
3.424651e+08
3.530405e+08
0
0
0
0
0
0
0
0
0
0
0
0
0
0
0
0
0
0
3.112215e+08
3.155108e+08
3.214584e+08
3.292998e+08
3.392886e+08
0
0
0
0
0
0
0
0
0
0
2.992655e+08
3.033683e+08
3.090309e+08
3.164653e+08
3.259047e+08
0
0
0
0
0
0
0
0
0
0
2.88002e+08
2.919347e+08
2.973335e+08
3.043982e+08
3.133395e+08
0
0
0
0
0
0
0
0
0
0
2.776389e+08
2.814163e+08
2.8658e+08
2.933116e+08
3.018103e+08
0
0
0
0
0
0
0
0
0
0
2.682336e+08
2.718714e+08
2.768242e+08
2.83262e+08
2.913666e+08
0
0
0
0
0
0
0
0
0
0
5.284032e+08
5.376409e+08
5.514111e+08
5.707763e+08
5.970531e+08
0
0
0
0
0
5.061815e+08
5.146335e+08
5.271815e+08
5.447173e+08
5.683316e+08
0
0
0
0
0
0
4.866947e+08
4.945491e+08
5.06155e+08
5.222902e+08
5.438752e+08
0
0
0
0
0
0
0
4.691879e+08
4.76569e+08
4.874207e+08
5.024314e+08
5.22407e+08
0
0
0
0
0
0
0
0
4.528359e+08
4.59818e+08
4.700315e+08
4.840924e+08
5.027131e+08
0
0
0
0
0
0
0
0
0
4.367298e+08
4.433443e+08
4.529713e+08
4.661652e+08
4.835599e+08
0
0
0
0
0
0
0
0
0
0
4.203794e+08
4.266349e+08
4.356923e+08
4.480497e+08
4.642709e+08
0
0
0
0
0
0
0
0
0
0
0
4.042392e+08
4.10158e+08
4.186813e+08
4.302579e+08
4.453908e+08
0
0
0
0
0
0
0
0
0
0
0
0
3.887805e+08
3.943931e+08
4.024328e+08
4.133032e+08
4.274561e+08
0
0
0
0
0
0
0
0
0
0
0
0
0
3.74219e+08
3.795577e+08
3.871638e+08
3.974044e+08
4.106852e+08
0
0
0
0
0
0
0
0
0
0
0
0
0
0
3.605866e+08
3.656812e+08
3.729001e+08
3.825783e+08
3.950847e+08
0
0
0
0
0
0
0
0
0
0
0
0
0
0
0
3.478015e+08
3.526772e+08
3.595489e+08
3.687231e+08
3.805363e+08
0
0
0
0
0
0
0
0
0
0
0
0
0
0
0
0
3.35696e+08
3.403727e+08
3.46929e+08
3.55646e+08
3.668321e+08
0
0
0
0
0
0
0
0
0
0
0
0
0
0
0
0
0
3.240176e+08
3.28507e+08
3.347705e+08
3.430642e+08
3.536707e+08
0
0
0
0
0
0
0
0
0
0
0
0
0
0
0
0
0
0
3.124432e+08
3.167528e+08
3.22733e+08
3.306223e+08
3.406765e+08
0
0
0
0
0
0
0
0
0
0
0
0
0
0
0
0
0
0
0
3.007894e+08
3.049175e+08
3.106195e+08
3.181101e+08
3.27626e+08
0
0
0
0
0
0
0
0
0
0
2.893909e+08
2.933459e+08
2.98779e+08
3.058921e+08
3.148983e+08
0
0
0
0
0
0
0
0
0
0
2.786401e+08
2.824331e+08
2.876207e+08
2.943856e+08
3.029288e+08
0
0
0
0
0
0
0
0
0
0
2.687378e+08
2.723836e+08
2.773485e+08
2.83803e+08
2.919296e+08
0
0
0
0
0
0
0
0
0
0
2.597512e+08
2.632559e+08
2.680214e+08
2.741984e+08
2.819576e+08
0
0
0
0
0
0
0
0
0
0
5.047921e+08
5.131857e+08
5.256496e+08
5.430665e+08
5.665142e+08
0
0
0
0
0
0
4.842724e+08
4.920338e+08
5.03505e+08
5.194503e+08
5.407723e+08
0
0
0
0
0
0
0
4.661881e+08
4.734604e+08
4.841545e+08
4.989439e+08
5.186147e+08
0
0
0
0
0
0
0
0
4.498745e+08
4.567524e+08
4.668141e+08
4.806621e+08
4.989912e+08
0
0
0
0
0
0
0
0
0
4.345849e+08
4.411244e+08
4.506419e+08
4.636817e+08
4.808653e+08
0
0
0
0
0
0
0
0
0
0
4.19485e+08
4.257075e+08
4.347172e+08
4.47008e+08
4.631383e+08
0
0
0
0
0
0
0
0
0
0
0
4.041237e+08
4.100337e+08
4.185447e+08
4.301043e+08
4.452139e+08
0
0
0
0
0
0
0
0
0
0
0
0
3.889292e+08
3.94542e+08
4.025819e+08
4.134527e+08
4.27606e+08
0
0
0
0
0
0
0
0
0
0
0
0
0
3.743475e+08
3.796878e+08
3.87296e+08
3.975396e+08
4.108241e+08
0
0
0
0
0
0
0
0
0
0
0
0
0
0
3.605866e+08
3.656812e+08
3.729001e+08
3.825783e+08
3.950847e+08
0
0
0
0
0
0
0
0
0
0
0
0
0
0
0
3.476818e+08
3.525557e+08
3.594249e+08
3.685957e+08
3.804048e+08
0
0
0
0
0
0
0
0
0
0
0
0
0
0
0
0
3.355605e+08
3.402347e+08
3.467882e+08
3.555018e+08
3.666837e+08
0
0
0
0
0
0
0
0
0
0
0
0
0
0
0
0
0
3.240691e+08
3.285583e+08
3.348229e+08
3.431196e+08
3.53731e+08
0
0
0
0
0
0
0
0
0
0
0
0
0
0
0
0
0
0
3.129668e+08
3.172834e+08
3.232763e+08
3.311849e+08
3.412666e+08
0
0
0
0
0
0
0
0
0
0
0
0
0
0
0
0
0
0
0
3.019516e+08
3.060976e+08
3.118289e+08
3.193623e+08
3.289372e+08
0
0
0
0
0
0
0
0
0
0
0
0
0
0
0
0
0
0
0
0
2.908441e+08
2.94822e+08
3.00291e+08
3.074555e+08
3.165311e+08
0
0
0
0
0
0
0
0
0
0
2.799674e+08
2.837807e+08
2.889998e+08
2.958093e+08
3.044122e+08
0
0
0
0
0
0
0
0
0
0
2.69696e+08
2.733562e+08
2.78343e+08
2.848284e+08
2.929963e+08
0
0
0
0
0
0
0
0
0
0
2.602339e+08
2.637461e+08
2.685227e+08
2.747152e+08
2.824949e+08
0
0
0
0
0
0
0
0
0
0
2.516416e+08
2.550184e+08
2.595983e+08
2.655291e+08
2.729625e+08
0
0
0
0
0
0
0
0
0
0
4.829932e+08
4.907061e+08
5.021071e+08
5.17954e+08
5.391401e+08
0
0
0
0
0
0
0
4.639491e+08
4.71143e+08
4.817235e+08
4.963537e+08
5.158058e+08
0
0
0
0
0
0
0
0
4.470942e+08
4.5388e+08
4.638076e+08
4.774679e+08
4.955405e+08
0
0
0
0
0
0
0
0
0
4.318368e+08
4.382877e+08
4.476758e+08
4.605342e+08
4.774703e+08
0
0
0
0
0
0
0
0
0
0
4.174953e+08
4.236545e+08
4.325711e+08
4.447309e+08
4.606824e+08
0
0
0
0
0
0
0
0
0
0