/*--------------------------------*- C++ -*----------------------------------*\
| =========                 |                                                 |
| \\      /  F ield         | OpenFOAM: The Open Source CFD Toolbox           |
|  \\    /   O peration     | Version:  2306                                  |
|   \\  /    A nd           | Website:  www.openfoam.com                      |
|    \\/     M anipulation  |                                                 |
\*---------------------------------------------------------------------------*/
FoamFile
{
    version     2.0;
    format      ascii;
    arch        "LSB;label=32;scalar=64";
    class       volScalarField;
    location    "1.2/fuel";
    object      nernst;
}
// * * * * * * * * * * * * * * * * * * * * * * * * * * * * * * * * * * * * * //

dimensions      [1 2 -3 0 0 -1 0];

internalField   nonuniform List<scalar> 
16000
(
-1.781497
-1.782466
-1.767658
-1.781563
-1.784426
-1.768295
-1.782534
-1.755163
-1.767705
-1.781688
-1.787382
-1.769581
-1.784498
-1.755647
-1.768343
-1.782662
-1.745051
-1.755197
-1.767795
-1.781872
-1.791194
-1.771512
-1.787461
-1.756623
-1.76963
-1.784635
-1.745444
-1.755681
-1.768434
-1.78285
-1.736712
-1.745077
-1.755264
-1.767927
-1.782112
-1.795243
-1.773994
-1.791286
-1.758091
-1.771563
-1.78761
-1.746238
-1.756658
-1.769724
-1.784833
-1.737044
-1.74547
-1.755749
-1.768568
-1.783097
-1.729649
-1.736732
-1.745129
-1.755363
-1.768101
-1.782354
-1.798138
-1.77664
-1.795354
-1.759984
-1.774047
-1.791457
-1.747431
-1.758126
-1.771661
-1.787828
-1.737713
-1.746264
-1.756726
-1.769862
-1.785094
-1.729936
-1.737063
-1.745523
-1.755848
-1.768745
-1.783345
-1.723531
-1.729664
-1.736774
-1.745207
-1.755494
-1.768276
-1.782557
-1.799796
-1.778612
-1.798266
-1.762019
-1.776695
-1.795555
-1.748972
-1.760019
-1.774151
-1.791704
-1.738719
-1.747457
-1.758196
-1.771805
-1.788112
-1.730514
-1.737732
-1.746317
-1.756828
-1.770044
-1.785356
-1.723784
-1.729951
-1.737106
-1.745601
-1.75598
-1.768922
-1.783554
-1.718137
-1.723544
-1.729699
-1.736837
-1.74531
-1.755625
-1.768424
-1.78276
-1.800617
-1.779834
-1.799939
-1.763577
-1.77867
-1.798493
-1.750634
-1.762053
-1.776806
-1.795844
-1.740017
-1.748997
-1.760091
-1.774305
-1.792027
-1.731384
-1.738738
-1.74751
-1.758301
-1.771996
-1.788399
-1.724294
-1.73053
-1.737775
-1.746396
-1.756963
-1.770227
-1.785577
-1.718364
-1.723797
-1.729986
-1.73717
-1.745705
-1.756113
-1.769072
-1.783763
-1.713313
-1.718147
-1.723573
-1.729753
-1.736922
-1.745415
-1.755736
-1.768571
-1.782962
-1.800941
-1.780502
-1.800769
-1.764585
-1.779894
-1.800185
-1.751923
-1.76361
-1.778785
-1.798815
-1.74142
-1.750657
-1.762127
-1.776972
-1.796221
-1.732505
-1.740036
-1.749051
-1.760199
-1.774508
-1.792352
-1.72506
-1.731399
-1.738781
-1.747591
-1.758439
-1.772187
-1.788641
-1.71882
-1.724306
-1.730565
-1.73784
-1.746502
-1.757098
-1.770381
-1.785797
-1.713517
-1.718373
-1.723826
-1.73004
-1.737255
-1.745811
-1.756225
-1.769221
-1.78397
-1.708946
-1.71332
-1.718172
-1.723619
-1.729824
-1.737009
-1.745503
-1.755847
-1.768717
-1.783164
-1.800941
-1.780792
-1.801099
-1.765164
-1.780564
-1.801027
-1.752774
-1.764617
-1.780013
-1.800531
-1.742515
-1.751944
-1.763684
-1.778958
-1.799234
-1.733718
-1.741437
-1.750712
-1.76224
-1.777191
-1.796599
-1.726047
-1.73252
-1.740078
-1.749134
-1.760344
-1.774712
-1.792629
-1.719504
-1.725071
-1.731434
-1.738846
-1.747699
-1.758579
-1.772349
-1.788883
-1.71393
-1.718829
-1.724336
-1.730619
-1.737926
-1.746609
-1.757212
-1.770534
-1.786017
-1.709133
-1.713525
-1.718399
-1.723872
-1.730112
-1.737342
-1.745899
-1.756337
-1.769369
-1.784177
-1.704955
-1.708952
-1.713342
-1.718212
-1.723681
-1.729898
-1.737081
-1.745591
-1.755957
-1.768862
-1.784141
-1.800617
-1.780792
-1.801099
-1.765426
-1.780855
-1.801363
-1.753274
-1.765196
-1.780686
-1.801389
-1.743245
-1.752794
-1.764691
-1.78019
-1.800978
-1.734668
-1.74253
-1.751997
-1.763798
-1.779187
-1.799654
-1.727115
-1.733731
-1.741479
-1.750796
-1.762391
-1.777411
-1.796924
-1.720386
-1.726058
-1.732554
-1.740145
-1.749244
-1.760489
-1.774885
-1.792907
-1.714549
-1.719513
-1.725101
-1.731488
-1.738934
-1.747808
-1.758696
-1.77251
-1.789125
-1.70951
-1.713938
-1.718854
-1.724382
-1.730692
-1.738014
-1.746699
-1.757326
-1.770687
-1.786237
-1.705128
-1.70914
-1.713547
-1.718438
-1.723934
-1.730186
-1.737415
-1.745988
-1.756448
-1.769517
-1.785181
-1.701278
-1.704961
-1.708971
-1.713377
-1.718266
-1.723744
-1.729959
-1.737153
-1.745678
-1.756066
-1.769566
-1.784917
-1.799796
-1.780502
-1.800769
-1.765426
-1.780855
-1.801363
-1.753504
-1.765458
-1.780978
-1.801732
-1.743679
-1.753293
-1.76527
-1.780867
-1.801854
-1.735304
-1.743258
-1.752846
-1.764805
-1.780426
-1.801427
-1.727952
-1.734678
-1.742571
-1.752081
-1.763952
-1.779417
-1.800015
-1.72134
-1.727124
-1.733765
-1.741546
-1.750911
-1.762543
-1.777598
-1.797253
-1.715347
-1.720395
-1.726087
-1.732609
-1.740234
-1.749356
-1.760611
-1.775057
-1.793186
-1.710076
-1.714557
-1.719538
-1.725147
-1.731562
-1.739023
-1.7479
-1.758813
-1.77267
-1.789367
-1.705475
-1.709517
-1.71396
-1.718894
-1.724444
-1.730766
-1.738087
-1.746788
-1.757439
-1.770839
-1.787302
-1.701439
-1.705133
-1.709159
-1.713582
-1.718493
-1.723998
-1.730247
-1.737487
-1.746075
-1.756558
-1.770231
-1.785986
-1.697866
-1.701283
-1.704977
-1.709003
-1.713425
-1.718322
-1.723797
-1.73002
-1.737225
-1.745764
-1.756595
-1.770122
-1.785555
-1.798138
-1.779834
-1.799939
-1.765164
-1.780564
-1.801027
-1.753504
-1.765458
-1.780978
-1.801732
-1.74388
-1.753523
-1.765533
-1.781161
-1.802206
-1.735684
-1.743691
-1.753345
-1.765385
-1.781106
-1.802321
-1.728515
-1.735313
-1.743298
-1.752929
-1.76496
-1.780662
-1.801813
-1.722089
-1.72796
-1.734711
-1.742637
-1.752196
-1.764107
-1.779612
-1.800381
-1.71621
-1.721348
-1.727153
-1.73382
-1.741638
-1.751026
-1.762672
-1.777787
-1.797587
-1.710805
-1.715354
-1.720419
-1.726134
-1.732684
-1.740325
-1.74945
-1.760734
-1.77523
-1.793467
-1.705996
-1.710082
-1.714578
-1.719578
-1.72521
-1.731637
-1.739098
-1.747991
-1.75893
-1.77283
-1.790545
-1.701761
-1.70548
-1.709536
-1.713995
-1.718949
-1.724508
-1.730828
-1.738161
-1.746877
-1.757551
-1.771576
-1.788176
-1.698016
-1.701443
-1.70515
-1.70919
-1.713631
-1.718549
-1.724051
-1.730308
-1.737559
-1.746162
-1.757092
-1.770796
-1.786653
-1.694681
-1.69787
-1.701297
-1.705005
-1.709046
-1.713475
-1.718368
-1.723849
-1.73008
-1.737296
-1.746183
-1.757011
-1.770573
-1.786047
-1.795243
-1.778612
-1.798266
-1.764585
-1.779894
-1.800185
-1.753274
-1.765196
-1.780686
-1.801389
-1.74388
-1.753523
-1.765533
-1.781161
-1.802206
-1.735861
-1.743892
-1.753574
-1.765648
-1.781402
-1.802681
-1.728853
-1.735693
-1.74373
-1.753427
-1.765541
-1.781346
-1.802722
-1.722594
-1.728522
-1.735344
-1.743363
-1.753043
-1.765116
-1.780862
-1.802203
-1.716888
-1.722095
-1.727987
-1.734765
-1.742728
-1.752312
-1.764237
-1.779809
-1.800751
-1.711593
-1.716216
-1.721372
-1.727199
-1.733896
-1.741731
-1.751123
-1.762801
-1.777977
-1.797925
-1.706668
-1.71081
-1.715375
-1.72046
-1.726198
-1.73276
-1.740401
-1.749544
-1.760856
-1.775404
-1.794841
-1.702244
-1.706001
-1.710101
-1.714613
-1.719634
-1.725275
-1.731699
-1.739172
-1.748082
-1.759046
-1.773607
-1.791566
-1.698316
-1.701765
-1.705497
-1.709567
-1.714043
-1.719005
-1.724562
-1.730889
-1.738233
-1.746965
-1.758096
-1.772164
-1.788917
-1.694821
-1.698019
-1.701458
-1.705178
-1.709233
-1.71368
-1.718595
-1.724103
-1.730369
-1.737631
-1.746584
-1.757511
-1.771255
-1.787172
-1.691692
-1.694684
-1.697883
-1.701323
-1.705045
-1.70909
-1.713516
-1.718414
-1.723901
-1.73014
-1.737641
-1.74651
-1.757345
-1.770915
-1.786388
-1.791194
-1.77664
-1.795354
-1.763577
-1.77867
-1.798493
-1.752774
-1.764617
-1.780013
-1.800531
-1.743679
-1.753293
-1.76527
-1.780867
-1.801854
-1.735861
-1.743892
-1.753574
-1.765648
-1.781402
-1.802681
-1.72901
-1.735869
-1.743931
-1.753657
-1.765804
-1.781644
-1.80309
-1.722897
-1.728858
-1.735723
-1.743794
-1.753541
-1.765697
-1.781549
-1.803127
-1.717346
-1.722599
-1.728547
-1.735397
-1.743453
-1.753158
-1.765247
-1.781063
-1.802597
-1.712213
-1.716893
-1.722118
-1.728033
-1.73484
-1.74282
-1.752409
-1.764368
-1.780008
-1.801126
-1.707394
-1.711598
-1.716237
-1.721412
-1.727265
-1.733974
-1.741809
-1.751221
-1.762932
-1.77817
-1.799594
-1.702867
-1.706672
-1.710829
-1.715411
-1.720516
-1.726263
-1.732824
-1.740477
-1.749638
-1.760978
-1.776249
-1.79618
-1.698767
-1.702248
-1.706018
-1.710132
-1.714662
-1.71969
-1.725329
-1.731762
-1.739246
-1.748172
-1.759609
-1.774246
-1.792483
-1.695103
-1.69832
-1.70178
-1.705525
-1.709611
-1.714093
-1.719052
-1.724615
-1.730951
-1.738305
-1.747392
-1.758523
-1.772648
-1.789508
-1.691824
-1.694824
-1.698032
-1.701483
-1.705217
-1.709278
-1.713721
-1.718641
-1.724156
-1.730429
-1.737977
-1.746912
-1.757848
-1.771605
-1.787535
-1.688873
-1.691694
-1.694696
-1.697906
-1.701359
-1.705085
-1.709127
-1.713557
-1.71846
-1.723953
-1.730432
-1.737906
-1.746771
-1.757598
-1.771148
-1.787382
-1.773994
-1.791286
-1.762019
-1.776695
-1.795555
-1.751923
-1.76361
-1.778785
-1.798815
-1.743245
-1.752794
-1.764691
-1.78019
-1.800978
-1.735684
-1.743691
-1.753345
-1.765385
-1.781106
-1.802321
-1.72901
-1.735869
-1.743931
-1.753657
-1.765804
-1.781644
-1.80309
-1.723039
-1.729016
-1.7359
-1.743995
-1.75377
-1.76596
-1.78185
-1.803502
-1.717621
-1.722901
-1.728884
-1.735776
-1.743884
-1.753656
-1.765828
-1.781754
-1.803535
-1.712632
-1.717349
-1.72262
-1.728592
-1.735472
-1.743544
-1.753254
-1.765378
-1.781266
-1.802995
-1.707965
-1.712217
-1.716912
-1.722157
-1.728097
-1.734917
-1.742897
-1.752507
-1.764501
-1.780209
-1.802979
-1.70354
-1.707397
-1.711616
-1.716272
-1.721469
-1.727331
-1.734038
-1.741887
-1.75132
-1.763064
-1.779115
-1.801514
-1.699348
-1.70287
-1.706688
-1.71086
-1.71546
-1.720573
-1.726317
-1.732887
-1.740553
-1.749732
-1.761574
-1.77701
-1.79754
-1.695525
-1.69877
-1.702262
-1.706046
-1.710176
-1.714712
-1.719737
-1.725382
-1.731824
-1.739319
-1.748609
-1.76006
-1.774795
-1.793254
-1.692089
-1.695105
-1.698333
-1.701805
-1.705565
-1.709655
-1.714134
-1.719098
-1.724667
-1.731011
-1.738655
-1.747723
-1.75887
-1.77302
-1.789931
-1.688998
-1.691826
-1.694836
-1.698056
-1.701519
-1.705258
-1.709315
-1.713762
-1.718687
-1.724207
-1.730721
-1.738242
-1.747173
-1.758102
-1.771843
-1.686205
-1.688875
-1.691705
-1.694717
-1.697939
-1.701396
-1.705118
-1.709164
-1.713597
-1.718505
-1.724204
-1.730651
-1.738116
-1.746966
-1.757767
-1.784426
-1.771512
-1.787461
-1.759984
-1.774047
-1.791457
-1.750634
-1.762053
-1.776806
-1.795844
-1.742515
-1.751944
-1.763684
-1.778958
-1.799234
-1.735304
-1.743258
-1.752846
-1.764805
-1.780426
-1.801427
-1.728853
-1.735693
-1.74373
-1.753427
-1.765541
-1.781346
-1.802722
-1.723039
-1.729016
-1.7359
-1.743995
-1.75377
-1.76596
-1.78185
-1.803502
-1.71775
-1.723043
-1.729041
-1.735952
-1.744084
-1.753885
-1.766092
-1.782056
-1.803918
-1.712885
-1.717624
-1.722923
-1.728928
-1.735849
-1.743974
-1.753751
-1.76596
-1.78196
-1.803948
-1.708352
-1.712634
-1.717368
-1.722659
-1.728655
-1.735547
-1.74362
-1.753351
-1.765511
-1.781471
-1.804956
-1.704071
-1.707968
-1.712234
-1.716947
-1.722213
-1.728162
-1.734981
-1.742975
-1.752606
-1.764635
-1.781196
-1.805069
-1.699976
-1.703543
-1.707413
-1.711647
-1.716322
-1.721526
-1.727386
-1.734104
-1.741966
-1.751419
-1.76371
-1.780114
-1.803896
-1.69607
-1.69935
-1.702884
-1.706717
-1.710905
-1.71551
-1.72062
-1.726371
-1.73295
-1.740628
-1.750189
-1.762092
-1.777746
-1.79885
-1.692487
-1.695528
-1.698783
-1.702288
-1.706086
-1.710221
-1.714754
-1.719783
-1.725435
-1.731885
-1.739675
-1.748953
-1.760438
-1.775233
-1.793829
-1.689249
-1.692091
-1.695117
-1.698356
-1.701841
-1.705605
-1.709692
-1.714175
-1.719144
-1.724719
-1.731305
-1.738921
-1.747988
-1.759131
-1.773272
-1.686323
-1.689
-1.691837
-1.694857
-1.698089
-1.701556
-1.705291
-1.709351
-1.713803
-1.718732
-1.724459
-1.730941
-1.738452
-1.747368
-1.758271
-1.68367
-1.686206
-1.688885
-1.691725
-1.694748
-1.697973
-1.701426
-1.705151
-1.7092
-1.713637
-1.718724
-1.724389
-1.730824
-1.738271
-1.747095
-1.782466
-1.769581
-1.784498
-1.758091
-1.771563
-1.78761
-1.748972
-1.760019
-1.774151
-1.791704
-1.74142
-1.750657
-1.762127
-1.776972
-1.796221
-1.734668
-1.74253
-1.751997
-1.763798
-1.779187
-1.799654
-1.728515
-1.735313
-1.743298
-1.752929
-1.76496
-1.780662
-1.801813
-1.722897
-1.728858
-1.735723
-1.743794
-1.753541
-1.765697
-1.781549
-1.803127
-1.71775
-1.723043
-1.729041
-1.735952
-1.744084
-1.753885
-1.766092
-1.782056
-1.803918
-1.713003
-1.717753
-1.723064
-1.729084
-1.736025
-1.744174
-1.75398
-1.766223
-1.782263
-1.804337
-1.708585
-1.712886
-1.717642
-1.72296
-1.72899
-1.735924
-1.744049
-1.753848
-1.766092
-1.782167
-1.805975
-1.70443
-1.708354
-1.712651
-1.717402
-1.722714
-1.728719
-1.73561
-1.743696
-1.753449
-1.765645
-1.782475
-1.807083
-1.700471
-1.704072
-1.707983
-1.712264
-1.716996
-1.72227
-1.728216
-1.735045
-1.743053
-1.752705
-1.765292
-1.78222
-1.807553
-1.696659
-1.699978
-1.703557
-1.707442
-1.711692
-1.716373
-1.721574
-1.727442
-1.734169
-1.742046
-1.751907
-1.764374
-1.781309
-1.806955
-1.692999
-1.696072
-1.699363
-1.70291
-1.706757
-1.71095
-1.715552
-1.720667
-1.726426
-1.733013
-1.740996
-1.750576
-1.762582
-1.778416
-1.799955
-1.689624
-1.692488
-1.69554
-1.698806
-1.702324
-1.706126
-1.710258
-1.714795
-1.71983
-1.725488
-1.732183
-1.739948
-1.749236
-1.760731
-1.775536
-1.686561
-1.68925
-1.692102
-1.695139
-1.698389
-1.701878
-1.705639
-1.709729
-1.714216
-1.71919
-1.724972
-1.731524
-1.739131
-1.748184
-1.759302
-1.683782
-1.686324
-1.68901
-1.691856
-1.694888
-1.698123
-1.701586
-1.705324
-1.709387
-1.713843
-1.718952
-1.724643
-1.731112
-1.738605
-1.747494
-1.681253
-1.683671
-1.686216
-1.688903
-1.691753
-1.694779
-1.698001
-1.701456
-1.705184
-1.709236
-1.713831
-1.718882
-1.724532
-1.730948
-1.738371
-1.781497
-1.768295
-1.782534
-1.756623
-1.76963
-1.784635
-1.747431
-1.758126
-1.771661
-1.787828
-1.740017
-1.748997
-1.760091
-1.774305
-1.792027
-1.733718
-1.741437
-1.750712
-1.76224
-1.777191
-1.796599
-1.727952
-1.734678
-1.742571
-1.752081
-1.763952
-1.779417
-1.800015
-1.722594
-1.728522
-1.735344
-1.743363
-1.753043
-1.765116
-1.780862
-1.802203
-1.717621
-1.722901
-1.728884
-1.735776
-1.743884
-1.753656
-1.765828
-1.781754
-1.803535
-1.713003
-1.717753
-1.723064
-1.729084
-1.736025
-1.744174
-1.75398
-1.766223
-1.782263
-1.804337
-1.708694
-1.713004
-1.717771
-1.723101
-1.729146
-1.736099
-1.744248
-1.754076
-1.766356
-1.782471
-1.806396
-1.704646
-1.708586
-1.712902
-1.717675
-1.723015
-1.729053
-1.735985
-1.744125
-1.753944
-1.766226
-1.783181
-1.808118
-1.700807
-1.704431
-1.708368
-1.712681
-1.71745
-1.72277
-1.728772
-1.735673
-1.743773
-1.753547
-1.766299
-1.783475
-1.80949
-1.697124
-1.700473
-1.704086
-1.708011
-1.712309
-1.717047
-1.722317
-1.728271
-1.73511
-1.743132
-1.753193
-1.765952
-1.783405
-1.810497
-1.693554
-1.696661
-1.699991
-1.703582
-1.707482
-1.711738
-1.716416
-1.721623
-1.727498
-1.734235
-1.742436
-1.752399
-1.765163
-1.782789
-1.811127
-1.690109
-1.693001
-1.696084
-1.699387
-1.702946
-1.706797
-1.710987
-1.715594
-1.720714
-1.72648
-1.73332
-1.741302
-1.750937
-1.763014
-1.778937
-1.686917
-1.689626
-1.692499
-1.695561
-1.69884
-1.702361
-1.70616
-1.710295
-1.714836
-1.719876
-1.725743
-1.732407
-1.74017
-1.749451
-1.760922
-1.684008
-1.686562
-1.68926
-1.692121
-1.695169
-1.698423
-1.701908
-1.705672
-1.709765
-1.714256
-1.71941
-1.725155
-1.731695
-1.739284
-1.748309
-1.68136
-1.683783
-1.686334
-1.689028
-1.691885
-1.694919
-1.69815
-1.701616
-1.705357
-1.709423
-1.714037
-1.719108
-1.724785
-1.731235
-1.738702
-1.678942
-1.681254
-1.683679
-1.686233
-1.68893
-1.691782
-1.694805
-1.698028
-1.701486
-1.705216
-1.709409
-1.713967
-1.719002
-1.724634
-1.731026
-1.767658
-1.781563
-1.755647
-1.768343
-1.782662
-1.746238
-1.756658
-1.769724
-1.784833
-1.738719
-1.747457
-1.758196
-1.771805
-1.788112
-1.732505
-1.740036
-1.749051
-1.760199
-1.774508
-1.792352
-1.727115
-1.733731
-1.741479
-1.750796
-1.762391
-1.777411
-1.796924
-1.722089
-1.72796
-1.734711
-1.742637
-1.752196
-1.764107
-1.779612
-1.800381
-1.717346
-1.722599
-1.728547
-1.735397
-1.743453
-1.753158
-1.765247
-1.781063
-1.802597
-1.712885
-1.717624
-1.722923
-1.728928
-1.735849
-1.743974
-1.753751
-1.76596
-1.78196
-1.803948
-1.708694
-1.713004
-1.717771
-1.723101
-1.729146
-1.736099
-1.744248
-1.754076
-1.766356
-1.782471
-1.806396
-1.704748
-1.708695
-1.71302
-1.717803
-1.723155
-1.729209
-1.73616
-1.744323
-1.754172
-1.766489
-1.783491
-1.80855
-1.70101
-1.704647
-1.7086
-1.712932
-1.717723
-1.72307
-1.729106
-1.736047
-1.7442
-1.754041
-1.766878
-1.784164
-1.810471
-1.697439
-1.700808
-1.704443
-1.708395
-1.712724
-1.717499
-1.722816
-1.728826
-1.735736
-1.74385
-1.754027
-1.766926
-1.784582
-1.812199
-1.693992
-1.697125
-1.700485
-1.704111
-1.70805
-1.712354
-1.717088
-1.722365
-1.728326
-1.735175
-1.743519
-1.753675
-1.766718
-1.784765
-1.813973
-1.690634
-1.693555
-1.696672
-1.700014
-1.703619
-1.707524
-1.711776
-1.716458
-1.721672
-1.727554
-1.734559
-1.742823
-1.752985
-1.766138
-1.784729
-1.818591
-1.687377
-1.69011
-1.693011
-1.696105
-1.69942
-1.702984
-1.706831
-1.711024
-1.715635
-1.720761
-1.726741
-1.733569
-1.741584
-1.751249
-1.763329
-1.684347
-1.686918
-1.689636
-1.692519
-1.695592
-1.698874
-1.702391
-1.706193
-1.710331
-1.714876
-1.720098
-1.725929
-1.732586
-1.740335
-1.749583
-1.681575
-1.684009
-1.686571
-1.689278
-1.69215
-1.695201
-1.698451
-1.701938
-1.705704
-1.709801
-1.714451
-1.719565
-1.725297
-1.731817
-1.739378
-1.679045
-1.681361
-1.683792
-1.686351
-1.689054
-1.691914
-1.694945
-1.698178
-1.701646
-1.705389
-1.709597
-1.714171
-1.719228
-1.724885
-1.73131
-1.676728
-1.678943
-1.681262
-1.683695
-1.686257
-1.688957
-1.691806
-1.69483
-1.698056
-1.701515
-1.705373
-1.709527
-1.714069
-1.719086
-1.724694
-1.755163
-1.767705
-1.781688
-1.745444
-1.755681
-1.768434
-1.78285
-1.737713
-1.746264
-1.756726
-1.769862
-1.785094
-1.731384
-1.738738
-1.74751
-1.758301
-1.771996
-1.788399
-1.726047
-1.73252
-1.740078
-1.749134
-1.760344
-1.774712
-1.792629
-1.72134
-1.727124
-1.733765
-1.741546
-1.750911
-1.762543
-1.777598
-1.797253
-1.716888
-1.722095
-1.727987
-1.734765
-1.742728
-1.752312
-1.764237
-1.779809
-1.800751
-1.712632
-1.717349
-1.72262
-1.728592
-1.735472
-1.743544
-1.753254
-1.765378
-1.781266
-1.802995
-1.708585
-1.712886
-1.717642
-1.72296
-1.72899
-1.735924
-1.744049
-1.753848
-1.766092
-1.782167
-1.805975
-1.704748
-1.708695
-1.71302
-1.717803
-1.723155
-1.729209
-1.73616
-1.744323
-1.754172
-1.766489
-1.783491
-1.80855
-1.701105
-1.704749
-1.708709
-1.713049
-1.717851
-1.72321
-1.729261
-1.736222
-1.744398
-1.754269
-1.76714
-1.784468
-1.810882
-1.69763
-1.70101
-1.70466
-1.708627
-1.712974
-1.717772
-1.723115
-1.729158
-1.736109
-1.744276
-1.754516
-1.767482
-1.785221
-1.813048
-1.694289
-1.697439
-1.700819
-1.704468
-1.708434
-1.712768
-1.71754
-1.722862
-1.72888
-1.7358
-1.744229
-1.754476
-1.767625
-1.785792
-1.815223
-1.691048
-1.693993
-1.697135
-1.700508
-1.704147
-1.708091
-1.712391
-1.71713
-1.722413
-1.728382
-1.735495
-1.743895
-1.754235
-1.767597
-1.786312
-1.818842
-1.687874
-1.690634
-1.693566
-1.696694
-1.700048
-1.703657
-1.707558
-1.711814
-1.716501
-1.721721
-1.72783
-1.734877
-1.743287
-1.753709
-1.767412
-1.788009
-1.822991
-1.684784
-1.687377
-1.69012
-1.693031
-1.696136
-1.699454
-1.703014
-1.706865
-1.711061
-1.715677
-1.720989
-1.726949
-1.733797
-1.741823
-1.751464
-1.681899
-1.684348
-1.686927
-1.689654
-1.692547
-1.695623
-1.698902
-1.702422
-1.706226
-1.710367
-1.715072
-1.720256
-1.726077
-1.732716
-1.740431
-1.679251
-1.681576
-1.684017
-1.686588
-1.689305
-1.692179
-1.695226
-1.698479
-1.701968
-1.705737
-1.709975
-1.714584
-1.719684
-1.725395
-1.731888
-1.676826
-1.679045
-1.681369
-1.683808
-1.686375
-1.689082
-1.691938
-1.69497
-1.698205
-1.701675
-1.705546
-1.709714
-1.714272
-1.719309
-1.724943
-1.674599
-1.676728
-1.67895
-1.681277
-1.683719
-1.686283
-1.688979
-1.691829
-1.694855
-1.698083
-1.701657
-1.705476
-1.709614
-1.714138
-1.719132
-1.745051
-1.755197
-1.767795
-1.781872
-1.737044
-1.74547
-1.755749
-1.768568
-1.783097
-1.730514
-1.737732
-1.746317
-1.756828
-1.770044
-1.785356
-1.72506
-1.731399
-1.738781
-1.747591
-1.758439
-1.772187
-1.788641
-1.720386
-1.726058
-1.732554
-1.740145
-1.749244
-1.760489
-1.774885
-1.792907
-1.71621
-1.721348
-1.727153
-1.73382
-1.741638
-1.751026
-1.762672
-1.777787
-1.797587
-1.712213
-1.716893
-1.722118
-1.728033
-1.73484
-1.74282
-1.752409
-1.764368
-1.780008
-1.801126
-1.708352
-1.712634
-1.717368
-1.722659
-1.728655
-1.735547
-1.74362
-1.753351
-1.765511
-1.781471
-1.804956
-1.704646
-1.708586
-1.712902
-1.717675
-1.723015
-1.729053
-1.735985
-1.744125
-1.753944
-1.766226
-1.783181
-1.808118
-1.701105
-1.704749
-1.708709
-1.713049
-1.717851
-1.72321
-1.729261
-1.736222
-1.744398
-1.754269
-1.76714
-1.784468
-1.810882
-1.697719
-1.701105
-1.704761
-1.708735
-1.713092
-1.717899
-1.723255
-1.729313
-1.736283
-1.744474
-1.754741
-1.767735
-1.785505
-1.813407
-1.694469
-1.69763
-1.701021
-1.704683
-1.708665
-1.713018
-1.717812
-1.72316
-1.729211
-1.736172
-1.744648
-1.754943
-1.768138
-1.78635
-1.815861
-1.691329
-1.694289
-1.69745
-1.700841
-1.704504
-1.708474
-1.712805
-1.717581
-1.722909
-1.728934
-1.736111
-1.744575
-1.75498
-1.768393
-1.787099
-1.819282
-1.688267
-1.691048
-1.694003
-1.697157
-1.700541
-1.704184
-1.708125
-1.712428
-1.717173
-1.722461
-1.728654
-1.735801
-1.744335
-1.754881
-1.768595
-1.788376
-1.822632
-1.685257
-1.687875
-1.690644
-1.693586
-1.696725
-1.700083
-1.703689
-1.707592
-1.711853
-1.716545
-1.721961
-1.728097
-1.735258
-1.743861
-1.754657
-1.769521
-1.789966
-1.82639
-1.682315
-1.684784
-1.687386
-1.690138
-1.69306
-1.696168
-1.699482
-1.703045
-1.706898
-1.711098
-1.715878
-1.721165
-1.727138
-1.733988
-1.74198
-1.679559
-1.681899
-1.684356
-1.686944
-1.68968
-1.692577
-1.695649
-1.698929
-1.702452
-1.706258
-1.710542
-1.715208
-1.720379
-1.726181
-1.732786
-1.677023
-1.679251
-1.681584
-1.684033
-1.686613
-1.689332
-1.692203
-1.695252
-1.698506
-1.701998
-1.705893
-1.71009
-1.714684
-1.719763
-1.725448
-1.674693
-1.676826
-1.679053
-1.681384
-1.683831
-1.686401
-1.689104
-1.691961
-1.694995
-1.698232
-1.701818
-1.705648
-1.7098
-1.714339
-1.719354
-1.67255
-1.6746
-1.676735
-1.678965
-1.681299
-1.683743
-1.686304
-1.689001
-1.691853
-1.69488
-1.698213
-1.701748
-1.705551
-1.709671
-1.714173
-1.736712
-1.745077
-1.755264
-1.767927
-1.782112
-1.729936
-1.737063
-1.745523
-1.755848
-1.768745
-1.783345
-1.724294
-1.73053
-1.737775
-1.746396
-1.756963
-1.770227
-1.785577
-1.719504
-1.725071
-1.731434
-1.738846
-1.747699
-1.758579
-1.772349
-1.788883
-1.715347
-1.720395
-1.726087
-1.732609
-1.740234
-1.749356
-1.760611
-1.775057
-1.793186
-1.711593
-1.716216
-1.721372
-1.727199
-1.733896
-1.741731
-1.751123
-1.762801
-1.777977
-1.797925
-1.707965
-1.712217
-1.716912
-1.722157
-1.728097
-1.734917
-1.742897
-1.752507
-1.764501
-1.780209
-1.802979
-1.70443
-1.708354
-1.712651
-1.717402
-1.722714
-1.728719
-1.73561
-1.743696
-1.753449
-1.765645
-1.782475
-1.807083
-1.70101
-1.704647
-1.7086
-1.712932
-1.717723
-1.72307
-1.729106
-1.736047
-1.7442
-1.754041
-1.766878
-1.784164
-1.810471
-1.697719
-1.701105
-1.704761
-1.708735
-1.713092
-1.717899
-1.723255
-1.729313
-1.736283
-1.744474
-1.754741
-1.767735
-1.785505
-1.813407
-1.694554
-1.697719
-1.701116
-1.704785
-1.708774
-1.713135
-1.717939
-1.7233
-1.729365
-1.736345
-1.744843
-1.755157
-1.768373
-1.7866
-1.816138
-1.6915
-1.694469
-1.69764
-1.701043
-1.704719
-1.708705
-1.713054
-1.717852
-1.723206
-1.729264
-1.736477
-1.744975
-1.75541
-1.768843
-1.787543
-1.819604
-1.688535
-1.691329
-1.694299
-1.69747
-1.700874
-1.70454
-1.708507
-1.712841
-1.717622
-1.722956
-1.729198
-1.736392
-1.744967
-1.755537
-1.769222
-1.788774
-1.822641
-1.685632
-1.688267
-1.691057
-1.694022
-1.697188
-1.700575
-1.704215
-1.708159
-1.712466
-1.717215
-1.722697
-1.728911
-1.736162
-1.744844
-1.755617
-1.769894
-1.790053
-1.825871
-1.682767
-1.685257
-1.687884
-1.690662
-1.693615
-1.696757
-1.700112
-1.70372
-1.707627
-1.711891
-1.716756
-1.72219
-1.72842
-1.735733
-1.744615
-1.756207
-1.770757
-1.791537
-1.829129
-1.679958
-1.682315
-1.684793
-1.687403
-1.690165
-1.693089
-1.696193
-1.69951
-1.703075
-1.706932
-1.711277
-1.716029
-1.721324
-1.727293
-1.734105
-1.677318
-1.67956
-1.681907
-1.684372
-1.686969
-1.689708
-1.6926
-1.695674
-1.698957
-1.702481
-1.706416
-1.710659
-1.715311
-1.720462
-1.726233
-1.674882
-1.677023
-1.679258
-1.681599
-1.684057
-1.686639
-1.689354
-1.692226
-1.695277
-1.698533
-1.70214
-1.705994
-1.710175
-1.714749
-1.719803
-1.67264
-1.674694
-1.676833
-1.679067
-1.681406
-1.683855
-1.686422
-1.689126
-1.691985
-1.69502
-1.698362
-1.701908
-1.705722
-1.709855
-1.714373
-1.670572
-1.67255
-1.674606
-1.676748
-1.678985
-1.681322
-1.683762
-1.686324
-1.689023
-1.691876
-1.695
-1.698294
-1.701813
-1.705598
-1.709697
-1.729649
-1.736732
-1.745129
-1.755363
-1.768101
-1.782354
-1.723784
-1.729951
-1.737106
-1.745601
-1.75598
-1.768922
-1.783554
-1.71882
-1.724306
-1.730565
-1.73784
-1.746502
-1.757098
-1.770381
-1.785797
-1.714549
-1.719513
-1.725101
-1.731488
-1.738934
-1.747808
-1.758696
-1.77251
-1.789125
-1.710805
-1.715354
-1.720419
-1.726134
-1.732684
-1.740325
-1.74945
-1.760734
-1.77523
-1.793467
-1.707394
-1.711598
-1.716237
-1.721412
-1.727265
-1.733974
-1.741809
-1.751221
-1.762932
-1.77817
-1.799594
-1.704071
-1.707968
-1.712234
-1.716947
-1.722213
-1.728162
-1.734981
-1.742975
-1.752606
-1.764635
-1.781196
-1.805069
-1.700807
-1.704431
-1.708368
-1.712681
-1.71745
-1.72277
-1.728772
-1.735673
-1.743773
-1.753547
-1.766299
-1.783475
-1.80949
-1.69763
-1.70101
-1.70466
-1.708627
-1.712974
-1.717772
-1.723115
-1.729158
-1.736109
-1.744276
-1.754516
-1.767482
-1.785221
-1.813048
-1.694554
-1.697719
-1.701116
-1.704785
-1.708774
-1.713135
-1.717939
-1.7233
-1.729365
-1.736345
-1.744843
-1.755157
-1.768373
-1.7866
-1.816138
-1.69158
-1.694553
-1.697729
-1.701138
-1.70482
-1.708813
-1.713171
-1.717979
-1.723345
-1.729418
-1.736647
-1.74516
-1.755609
-1.769051
-1.787748
-1.819765
-1.688697
-1.691499
-1.694478
-1.69766
-1.701076
-1.704755
-1.708737
-1.71309
-1.717892
-1.723252
-1.729522
-1.73674
-1.745336
-1.755916
-1.769591
-1.789061
-1.822736
-1.685886
-1.688534
-1.691338
-1.694318
-1.697501
-1.700908
-1.70457
-1.70854
-1.712878
-1.717664
-1.723184
-1.729433
-1.736711
-1.745402
-1.756141
-1.770254
-1.790254
-1.825672
-1.683124
-1.685631
-1.688276
-1.691075
-1.694051
-1.697219
-1.700604
-1.704246
-1.708193
-1.712505
-1.717423
-1.722918
-1.729216
-1.736581
-1.745425
-1.756554
-1.770922
-1.791549
-1.828591
-1.680389
-1.682767
-1.685266
-1.687901
-1.69069
-1.693645
-1.696784
-1.700141
-1.703752
-1.707662
-1.71208
-1.716956
-1.722468
-1.728822
-1.736357
-1.745836
-1.757105
-1.771751
-1.792845
-1.831352
-1.6777
-1.679958
-1.682323
-1.684809
-1.687428
-1.690192
-1.693113
-1.696219
-1.699538
-1.703106
-1.707093
-1.711409
-1.716164
-1.721451
-1.727382
-1.675166
-1.677318
-1.679567
-1.681922
-1.684395
-1.686995
-1.68973
-1.692624
-1.6957
-1.698984
-1.702624
-1.706518
-1.710747
-1.715379
-1.7205
-1.672822
-1.674883
-1.67703
-1.679273
-1.681621
-1.684081
-1.686659
-1.689376
-1.69225
-1.695302
-1.698663
-1.702229
-1.706067
-1.710228
-1.714778
-1.670659
-1.67264
-1.6747
-1.676846
-1.679088
-1.681429
-1.683875
-1.686442
-1.689148
-1.692008
-1.69514
-1.698442
-1.701971
-1.705767
-1.709879
-1.66866
-1.670572
-1.672556
-1.674619
-1.676768
-1.679007
-1.68134
-1.683782
-1.686345
-1.689045
-1.691987
-1.695072
-1.69835
-1.701852
-1.705617
-1.723531
-1.729664
-1.736774
-1.745207
-1.755494
-1.768276
-1.782557
-1.718364
-1.723797
-1.729986
-1.73717
-1.745705
-1.756113
-1.769072
-1.783763
-1.71393
-1.718829
-1.724336
-1.730619
-1.737926
-1.746609
-1.757212
-1.770534
-1.786017
-1.710076
-1.714557
-1.719538
-1.725147
-1.731562
-1.739023
-1.7479
-1.758813
-1.77267
-1.789367
-1.706668
-1.71081
-1.715375
-1.72046
-1.726198
-1.73276
-1.740401
-1.749544
-1.760856
-1.775404
-1.794841
-1.70354
-1.707397
-1.711616
-1.716272
-1.721469
-1.727331
-1.734038
-1.741887
-1.75132
-1.763064
-1.779115
-1.801514
-1.700471
-1.704072
-1.707983
-1.712264
-1.716996
-1.72227
-1.728216
-1.735045
-1.743053
-1.752705
-1.765292
-1.78222
-1.807553
-1.697439
-1.700808
-1.704443
-1.708395
-1.712724
-1.717499
-1.722816
-1.728826
-1.735736
-1.74385
-1.754027
-1.766926
-1.784582
-1.812199
-1.694469
-1.69763
-1.701021
-1.704683
-1.708665
-1.713018
-1.717812
-1.72316
-1.729211
-1.736172
-1.744648
-1.754943
-1.768138
-1.78635
-1.815861
-1.69158
-1.694553
-1.697729
-1.701138
-1.70482
-1.708813
-1.713171
-1.717979
-1.723345
-1.729418
-1.736647
-1.74516
-1.755609
-1.769051
-1.787748
-1.819765
-1.688773
-1.691579
-1.694563
-1.697749
-1.70117
-1.704856
-1.708845
-1.713206
-1.718019
-1.723391
-1.729674
-1.736902
-1.745507
-1.756093
-1.769766
-1.789206
-1.822802
-1.686041
-1.688696
-1.691508
-1.694497
-1.69769
-1.701109
-1.704784
-1.70877
-1.713126
-1.717933
-1.723476
-1.729742
-1.737033
-1.745728
-1.756455
-1.77051
-1.790434
-1.825621
-1.683367
-1.685886
-1.688542
-1.691355
-1.694346
-1.697532
-1.700936
-1.7046
-1.708573
-1.712915
-1.717865
-1.723386
-1.729701
-1.737067
-1.745876
-1.756873
-1.771137
-1.791656
-1.828312
-1.680731
-1.683124
-1.685639
-1.688293
-1.691102
-1.69408
-1.697245
-1.700632
-1.704277
-1.708228
-1.71269
-1.717616
-1.723181
-1.729571
-1.737061
-1.746154
-1.757281
-1.771844
-1.792843
-1.830847
-1.678114
-1.680389
-1.682774
-1.685282
-1.687926
-1.690718
-1.693669
-1.69681
-1.70017
-1.703784
-1.707833
-1.712257
-1.7172
-1.722817
-1.729355
-1.737361
-1.746538
-1.757829
-1.772576
-1.79393
-1.833136
-1.675532
-1.6777
-1.679965
-1.682338
-1.684832
-1.687454
-1.690215
-1.693137
-1.696245
-1.699566
-1.703252
-1.707208
-1.711525
-1.716271
-1.72152
-1.673094
-1.675166
-1.677325
-1.679581
-1.681944
-1.68442
-1.687016
-1.689752
-1.692648
-1.695725
-1.699114
-1.702714