/*--------------------------------*- C++ -*----------------------------------*\
| =========                 |                                                 |
| \\      /  F ield         | OpenFOAM: The Open Source CFD Toolbox           |
|  \\    /   O peration     | Version:  2306                                  |
|   \\  /    A nd           | Website:  www.openfoam.com                      |
|    \\/     M anipulation  |                                                 |
\*---------------------------------------------------------------------------*/
FoamFile
{
    version     2.0;
    format      ascii;
    arch        "LSB;label=32;scalar=64";
    class       volScalarField;
    location    "1.2/fuel";
    object      p_rgh;
}
// * * * * * * * * * * * * * * * * * * * * * * * * * * * * * * * * * * * * * //

dimensions      [1 -1 -2 0 0 0 0];

internalField   nonuniform List<scalar> 
16000
(
100609.6
100602.1
100507.9
100589.7
100588.6
100500.3
100581.9
100427.1
100491.4
100546.3
100564.9
100486.2
100567.8
100420.3
100483.6
100537.8
100366.4
100413.4
100455.3
100495.8
100542.7
100462.3
100543.2
100407.6
100469.2
100522.4
100360.3
100406.4
100447.1
100486.6
100320.4
100354.7
100383.3
100413.4
100390.8
100498.1
100437.9
100519.7
100386.2
100444.7
100495.7
100349.1
100393.5
100431.9
100469.7
100315.1
100348.5
100376
100404.7
100380
100284.3
100310.3
100329
100348.3
100326
100370.7
100490.3
100394.7
100473.7
100363.9
100419.6
100469.5
100330.2
100371.7
100406.3
100440.6
100305
100337.1
100362.6
100388.7
100359.8
100279.5
100304.8
100322.6
100340.7
100316.4
100359.6
100255.2
100275.3
100287.9
100299.1
100275.2
100309.3
100364.3
100484
100382.8
100464.9
100326.1
100375.7
100420.4
100310.5
100349
100379.8
100411.3
100288.3
100318
100340
100361.7
100325.9
100270.5
100294.7
100310.8
100326.6
100298.5
100338.8
100250.9
100270.5
100282.3
100292.5
100267.1
100299.5
100353.1
100231.2
100247.3
100255.6
100261.9
100236.7
100261.3
100303.9
100353.5
100483.4
100373.9
100457.9
100314.6
100363.3
100409.4
100277.6
100310.8
100334.3
100358.7
100270.7
100297.9
100316.4
100333.5
100290.1
100255.6
100277.8
100291.2
100303.2
100268.8
100303.9
100242.7
100261.4
100271.9
100280.3
100251.7
100281.3
100332.2
100227.3
100242.9
100250.7
100256.2
100229.7
100253
100294.2
100342.2
100211.1
100224.1
100229.7
100232.7
100207.7
100224.8
100256.8
100295
100344.5
100483.1
100371.2
100456.9
100306.2
100354.2
100401
100267.2
100299
100320.8
100345.1
100241.9
100264.8
100277.1
100286.2
100230.1
100239.7
100259.9
100270.4
100278.4
100237.1
100267
100229.3
100246.3
100254.6
100259.9
100226.4
100251
100296.9
100219.9
100234.6
100241.3
100245.4
100216.5
100237.4
100275.8
100320.9
100207.5
100220.1
100225.2
100227.6
100201.6
100217.7
100248.5
100285.1
100333
100193.9
100204.6
100208.3
100209.3
100184.9
100197.3
100221
100249.3
100287.5
100333.3
100483.1
100370
100456.5
100303.3
100351.4
100399.3
100259.7
100290.4
100311.1
100335.1
100232.5
100254.1
100264.6
100271.5
100211.2
100214.1
100230.8
100236.5
100238
100185.9
100205.5
100215
100230.3
100236.2
100238.4
100199.4
100218.6
100259.6
100207.6
100221.1
100225.9
100227.6
100194.8
100211.8
100245.4
100285.1
100200.7
100212.6
100216.8
100218
100190.1
100204.3
100232.8
100266.5
100311.5
100190.6
100200.9
100204.2
100204.6
100179.5
100191.1
100213.9
100240.9
100277.5
100321.6
100179
100188
100190.3
100189.9
100166.6
100175.7
100194
100214.6
100243.1
100278.2
100304.8
100483.4
100370
100456.5
100302
100350
100398.4
100256.9
100287.4
100307.8
100332.5
100225.7
100246.5
100255.7
100261
100197.9
100205.6
100221.3
100225.4
100224.8
100168.7
100185.6
100192
100204.5
100206.5
100203.6
100156.4
100166.8
100197.6
100194.6
100206.6
100209.5
100208.6
100171.6
100184.2
100212.8
100247.1
100189.5
100200.3
100202.9
100202.2
100171.2
100182.4
100207.1
100235.8
100275.3
100184.3
100194.1
100196.5
100196
100169.3
100179.5
100200.4
100225.2
100258.8
100299.7
100176
100184.6
100186.5
100185.7
100161.7
100170.2
100187.8
100207.4
100234.6
100268.1
100292.8
100166
100173.6
100174.9
100173.6
100151.4
100158.4
100172.8
100188.5
100209.3
100235.3
100254.5
100311.5
100484
100371.2
100456.9
100302
100350
100398.4
100255.7
100286
100306.4
100331.2
100223.2
100243.7
100252.5
100257.4
100193.3
100199.5
100214.4
100217.5
100215.4
100156.7
100171.6
100184.3
100195.9
100196.7
100192
100141.7
100149.1
100177.3
100173.8
100183.5
100183.2
100178.3
100135.1
100140.8
100160.6
100184.3
100177.6
100187.1
100188.1
100185.3
100150.9
100158.8
100179.4
100202.9
100236.7
100174
100182.8
100184
100181.8
100152.6
100160.4
100178.4
100199.2
100227.8
100263
100170.2
100178.3
100179.6
100177.9
100152.6
100159.9
100176.1
100193.9
100218.7
100249.2
100270
100163.2
100170.5
100171.5
100169.8
100147
100153.5
100167.3
100182.2
100202
100226.8
100244.3
100299.5
100154.6
100161
100161.6
100159.7
100138.7
100144
100155.8
100167.9
100183.8
100202.6
100215.6
100260.1
100300.6
100490.3
100373.9
100457.9
100303.3
100351.4
100399.3
100255.7
100286
100306.4
100331.2
100222.1
100242.4
100251
100255.8
100191.3
100197.2
100211.9
100214.5
100212
100152.3
100166.7
100178.8
100189.7
100189.6
100183.8
100131.4
100136.8
100163.2
100166.8
100175.7
100174.4
100168
100122.4
100125.8
100142.8
100163.5
100158.7
100166.2
100164.6
100158.5
100119.3
100122
100135.8
100150.2
100173.1
100163.1
100170.8
100170.6
100166.6
100134.7
100139.9
100154.8
100171.3
100194.6
100223.7
100160.7
100168
100168.1
100165
100137.7
100143.1
100157
100171.7
100192.6
100217.9
100232
100157.8
100164.7
100165.1
100162.6
100138.8
100144.3
100157
100170.4
100188.4
100210.8
100224.8
100276.8
100151.9
100158.2
100158.4
100156.2
100134.7
100139.6
100150.9
100162.4
100177.5
100195.3
100206.9
100249.8
100288.4
100144.4
100150
100150
100147.6
100127.8
100132
100141.7
100151.4
100163.8
100178
100185.8
100220.2
100251
100298.3
100498.1
100382.8
100464.9
100306.2
100354.2
100401
100256.9
100287.4
100307.8
100332.5
100222.1
100242.4
100251
100255.8
100191.3
100196.2
100210.7
100213.2
100210.4
100150.3
100164.5
100176.7
100187.4
100187
100180.7
100127.5
100132.1
100158.2
100161.8
100170.1
100168.1
100160.8
100113.6
100115.3
100130.4
100149
100152.2
100159.1
100156.7
100149.4
100108.3
100109.1
100120.7
100132.2
100151.9
100145.8
100151.8
100149.4
100142.8
100106.9
100108
100117.8
100127.4
100141.5
100159
100150.6
100156.9
100155.8
100151.3
100121.8
100125.1
100136.4
100147.9
100164.5
100184.2
100190.9
100149
100155.1
100154.5
100150.9
100125.4
100129.3
100140.1
100151.2
100166.1
100184.4
100192.8
100238.5
100146.9
100152.8
100152.5
100149.6
100127.2
100131.3
100141.6
100152
100165.7
100181.6
100190.6
100230.4
100265.2
100141.9
100147.3
100147.1
100144.4
100124.2
100128
100137.3
100146.5
100158.3
100171.7
100178.4
100211.6
100240.6
100286
100135.2
100140.1
100139.7
100137.1
100118.4
100121.7
100129.9
100137.8
100147.7
100158.7
100163.4
100189.7
100212.7
100249.1
100295.8
100542.7
100394.7
100473.7
100314.6
100363.3
100409.4
100259.7
100290.4
100311.1
100335.1
100223.2
100243.7
100252.5
100257.4
100193.3
100196.2
100210.7
100213.2
100210.4
100150.3
100164.5
100175.7
100186.3
100185.8
100179.3
100125.7
100130.1
100155.9
100159.9
100168
100165.7
100158
100110.2
100111.3
100125.7
100143.8
100147.6
100154
100151
100142.9
100100.6
100100.1
100110.2
100119.6
100137.1
100139.8
100145.3
100142.1
100134.5
100097.2
100096.8
100104.8
100112.1
100123.3
100137.3
100134.6
100139.5
100136.6
100129.8
100097
100097.1
100104.4
100110.6
100120.3
100130.6
100124.4
100139.7
100144.9
100143.3
100138.4
100111
100113.2
100122
100130.5
100142.2
100156
100158.3
100197.3
100138.8
100143.9
100142.8
100138.9
100115.1
100117.8
100126.6
100135
100146.3
100159.2
100163.7
100198.1
100225.3
100137.2
100142.3
100141.6
100138.4
100117.3
100120.5
100129
100137.2
100147.8
100159.8
100164.4
100195.2
100220.9
100262.6
100132.9
100137.6
100137
100134.1
100115
100118
100125.9
100133.3
100142.8
100153.1
100157
100182.4
100203.9
100238.6
100283.3
100127
100131.2
100130.6
100127.8
100110.1
100112.8
100119.7
100126.3
100134.5
100143.2
100145.8
100166.8
100183.3
100211.1
100247.1
100564.9
100437.9
100519.7
100326.1
100375.7
100420.4
100267.2
100299
100320.8
100345.1
100225.7
100246.5
100255.7
100261
100197.9
100197.2
100211.9
100214.5
100212
100152.3
100166.7
100175.7
100186.3
100185.8
100179.3
100125.7
100130.1
100155.9
100159
100167
100164.6
100156.8
100108.7
100109.5
100123.6
100141.5
100145.8
100152.1
100148.8
100140.5
100097.6
100096.7
100106.1
100114.9
100131.8
100135.6
100140.6
100137
100128.8
100090.4
100089.1
100095.8
100101.5
100110.6
100122.2
100129.1
100133.5
100129.9
100122.3
100088.3
100087.2
100093.2
100097.6
100104.9
100112.1
100101.2
100124.9
100128.9
100125.7
100118.9
100088.8
100088.3
100093.9
100098.3
100104.7
100111.4
100103.7
100126.4
100130
100134.5
100132.5
100127.4
100102
100103.3
100110.4
100116.8
100125.5
100135
100134.8
100163.3
100182.4
100129.6
100134
100132.6
100128.5
100106.2
100108.2
100115.4
100122.1
100130.8
100140.3
100141.7
100168.1
100187.4
100221.3
100128.5
100132.9
100131.9
100128.5
100108.7
100111.1
100118.3
100125
100133.5
100142.6
100144.9
100168.4
100187.3
100218.8
100259.7
100124.8
100128.9
100128
100125
100107
100109.4
100116.1
100122.3
100130
100138.2
100140.2
100160.4
100175.8
100202.3
100236.5
100119.4
100123.2
100122.3
100119.5
100102.8
100104.9
100111
100116.5
100123.3
100130.4
100131.7
100148.8
100161.3
100182
100209.4
100588.6
100462.3
100543.2
100363.9
100419.6
100469.5
100277.6
100310.8
100334.3
100358.7
100232.5
100254.1
100264.6
100271.5
100211.2
100199.5
100214.4
100217.5
100215.4
100156.7
100171.6
100176.7
100187.4
100187
100180.7
100127.5
100132.1
100158.2
100159
100167
100164.6
100156.8
100108.7
100109.5
100123.6
100141.5
100145
100151.2
100147.8
100139.4
100096.3
100095.2
100104.3
100112.8
100129.4
100133.9
100138.9
100135
100126.5
100087.8
100086.1
100092.4
100097.4
100105.8
100116.7
100125.2
100129.3
100125.3
100117.1
100082.3
100080.4
100085.4
100088.6
100094.2
100099.3
100085.2
100119.8
100123.4
100119.6
100112.1
100081
100079.5
100084
100087
100091.6
100095.9
100084.5
100104.7
100116.4
100119.7
100116.3
100109.6
100081.9
100081
100085.5
100088.6
100093.2
100097.2
100089.6
100105.1
100098.3
100121.4
100125.2
100123
100118
100094.3
100095
100100.9
100105.8
100112.5
100119.4
100117.1
100138.9
100151.5
100177.3
100121.4
100125.2
100123.6
100119.4
100098.5
100100
100106
100111.4
100118.3
100125.5
100125.2
100145.4
100159.3
100184.2
100216.8
100120.7
100124.5
100123.3
100119.8
100101.2
100103.1
100109.2
100114.7
100121.6
100128.9
100129.5
100148.3
100161.7
100185.5
100216.4
100117.4
100121
100120
100116.9
100099.9
100101.8
100107.6
100112.8
100119.3
100125.9
100126.7
100143.2
100154.8
100174.4
100200.5
100112.6
100115.9
100114.9
100112
100096.2
100098
100103.3
100108
100113.8
100119.6
100120
100134.4
100143.9
100160.1
100180.5
100602.1
100486.2
100567.8
100386.2
100444.7
100495.7
100310.5
100349
100379.8
100411.3
100241.9
100264.8
100277.1
100286.2
100230.1
100205.6
100221.3
100225.4
100224.8
100168.7
100185.6
100178.8
100189.7
100189.6
100183.8
100131.4
100136.8
100163.2
100159.9
100168
100165.7
100158
100110.2
100111.3
100125.7
100143.8
100145
100151.2
100147.8
100139.4
100096.3
100095.2
100104.3
100112.8
100129.4
100133.2
100138.1
100134.1
100125.5
100086.6
100084.7
100090.9
100095.6
100103.7
100114.2
100123.7
100127.6
100123.4
100115.1
100080
100077.7
100082.4
100085.1
100090.1
100094.4
100079.1
100116.2
100119.5
100115.3
100107.3
100075.6
100073.4
100077.2
100079.2
100082.5
100085.1
100071.3
100089.9
100111.6
100114.5
100110.7
100103.4
100074.8
100073.1
100076.7
100078.6
100081.8
100084
100073.6
100087.1
100079.6
100108.7
100111.5
100108
100101.6
100075.9
100074.8
100078.5
100080.7
100084.1
100086.7
100078.9
100090.6
100083
100079.1
100113.8
100117
100114.6
100109.6
100087.6
100087.9
100092.8
100096.7
100102
100107.1
100103.9
100120.6
100129.2
100147.3
100171.3
100114
100117.3
100115.5
100111.4
100091.8
100092.8
100098
100102.4
100108
100113.6
100112.2
100128.4
100137.9
100156.6
100180.6
100113.5
100116.9
100115.5
100112
100094.5
100096
100101.3
100105.9
100111.7
100117.5
100117.2
100132.5
100142.5
100160.2
100183.6
100110.6
100113.9
100112.7
100109.6
100093.5
100095.1
100100.2
100104.6
100110.1
100115.5
100115.5
100129.4
100138.2
100153.6
100172.9
100106.3
100109.3
100108.2
100105.2
100090.3
100091.8
100096.4
100100.5
100105.5
100110.4
100110.2
100122.4
100130
100142.9
100158.8
100609.6
100500.3
100581.9
100407.6
100469.2
100522.4
100330.2
100371.7
100406.3
100440.6
100270.7
100297.9
100316.4
100333.5
100290.1
100214.1
100230.8
100236.5
100238
100185.9
100205.5
100184.3
100195.9
100196.7
100192
100141.7
100149.1
100177.3
100161.8
100170.1
100168.1
100160.8
100113.6
100115.3
100130.4
100149
100145.8
100152.1
100148.8
100140.5
100097.6
100096.7
100106.1
100114.9
100131.8
100133.2
100138.1
100134.1
100125.5
100086.6
100084.7
100090.9
100095.6
100103.7
100114.2
100123
100126.9
100122.6
100114.2
100078.9
100076.6
100081.1
100083.6
100088.3
100092.3
100076.4
100114.8
100117.9
100113.6
100105.5
100073.5
100071.1
100074.5
100076.2
100079.1
100081
100066.2
100084.5
100108.2
100110.9
100106.7
100099
100069.9
100067.6
100070.6
100071.8
100074
100074.9
100062.6
100074.8
100067
100104.3
100106.7
100102.8
100095.8
100069.5
100067.7
100070.6
100071.9
100074.1
100075.4
100065.4
100075.6
100067.6
100064.2
100101.9
100104.2
100100.8
100094.5
100070.8
100069.5
100072.5
100074.2
100076.8
100078.4
100071
100079.8
100072.6
100067.7
100030.1
100106.8
100109.6
100107.2
100102.3
100081.7
100081.8
100085.9
100089.1
100093.3
100097.2
100093.5
100106.9
100112.4
100125.8
100142.6
100107.2
100110.2
100108.3
100104.2
100085.8
100086.5
100091
100094.6
100099.3
100103.7
100101.8
100115
100121.9
100135.7
100153.7
100107
100110
100108.5
100105.1
100088.5
100089.7
100094.3
100098.2
100103.1
100107.9
100107
100119.9
100127.4
100141.2
100158.5
100104.4
100107.3
100106.1
100103
100087.8
100089.1
100093.6
100097.4
100102.1
100106.7
100106.1
100117.9
100124.9
100137.1
100152.2
100100.5
100103.2
100102
100099.1
100085
100086.1
100090.3
100093.9
100098.2
100102.4
100101.8
100112.4
100118.5
100129.1
100141.8
100507.9
100589.7
100420.3
100483.6
100537.8
100349.1
100393.5
100431.9
100469.7
100288.3
100318
100340
100361.7
100325.9
100239.7
100259.9
100270.4
100278.4
100237.1
100267
100192
100204.5
100206.5
100203.6
100156.4
100166.8
100197.6
100166.8
100175.7
100174.4
100168
100122.4
100125.8
100142.8
100163.5
100147.6
100154
100151
100142.9
100100.6
100100.1
100110.2
100119.6
100137.1
100133.9
100138.9
100135
100126.5
100087.8
100086.1
100092.4
100097.4
100105.8
100116.7
100123
100126.9
100122.6
100114.2
100078.9
100076.6
100081.1
100083.6
100088.3
100092.3
100076.4
100114.1
100117.2
100112.9
100104.7
100072.5
100070
100073.3
100074.8
100077.5
100079.2
100063.9
100082.1
100106.9
100109.5
100105.1
100097.3
100068
100065.5
100068.2
100069.1
100071
100071.4
100058.3
100070.2
100062.6
100101.1
100103.3
100099.2
100091.8
100065
100062.7
100065.1
100065.8
100067.2
100067.5
100056.1
100065.4
100057.2
100054.4
100097.7
100099.8
100095.9
100089.2
100064.8
100063
100065.4
100066.3
100067.9
100068.4
100059.4
100067.1
100059.9
100055.6
100029.3
100095.7
100097.7
100094.3
100088.3
100066.2
100064.9
100067.4
100068.7
100070.7
100071.8
100064.7
100071.8
100064.7
100060.1
100029
100029.1
100100.5
100103
100100.5
100095.7
100076.4
100076.3
100079.9
100082.5
100086
100089
100085.1
100096.1
100099.8
100109.5
100121.9
100101.1
100103.7
100101.7
100097.7
100080.4
100080.9
100084.8
100087.9
100091.8
100095.5
100093.1
100104.3
100109.3
100120
100133.2
100101
100103.7
100102.1
100098.7
100083.2
100084
100088.1
100091.5
100095.7
100099.7
100098.4
100109.4
100115.3
100126.3
100139.8
100098.7
100101.3
100100
100097
100082.6
100083.6
100087.7
100091
100095.1
100098.9
100098
100108.3
100113.9
100124
100136
100095.1
100097.5
100096.3
100093.4
100080.1
100081.1
100084.8
100088
100091.7
100095.3
100094.5
100103.8
100108.8
100117.7
100128.1
100427.1
100491.4
100546.3
100360.3
100406.4
100447.1
100486.6
100305
100337.1
100362.6
100388.7
100359.8
100255.6
100277.8
100291.2
100303.2
100268.8
100303.9
100215
100230.3
100236.2
100238.4
100199.4
100218.6
100259.6
100173.8
100183.5
100183.2
100178.3
100135.1
100140.8
100160.6
100184.3
100152.2
100159.1
100156.7
100149.4
100108.3
100109.1
100120.7
100132.2
100151.9
100135.6
100140.6
100137
100128.8
100090.4
100089.1
100095.8
100101.5
100110.6
100122.2
100123.7
100127.6
100123.4
100115.1
100080
100077.7
100082.4
100085.1
100090.1
100094.4
100079.1
100114.1
100117.2
100112.9
100104.7
100072.5
100070
100073.3
100074.8
100077.5
100079.2
100063.9
100082.1
100106.3
100108.8
100104.4
100096.5
100067.1
100064.5
100067.2
100067.9
100069.6
100069.9
100056.4
100068.2
100060.7
100099.9
100102
100097.7
100090.2
100063.2
100060.8
100063
100063.4
100064.6
100064.5
100052.5
100061.6
100053.6
100051.4
100094.8
100096.6
100092.5
100085.5
100060.7
100058.5
100060.4
100060.8
100061.8
100061.6
100051.4
100058.4
100051.3
100047.6
100029
100091.8
100093.5
100089.8
100083.3
100060.7
100058.9
100060.9
100061.5
100062.7
100062.9
100054.5
100060.9
100053.9
100050.1
100028.4
100029
100090.1
100091.8
100088.4
100082.7
100062.1
100060.7
100063
100063.9
100065.5
100066.2
100059.6
100065.3
100058.8
100054.2
100028.5
100028.2
100029.1
100094.7
100096.9
100094.4
100089.8
100071.7
100071.5
100074.6
100076.8
100079.7
100082.1
100078.2
100087.5
100089.9
100097.4
100106.2
100095.4
100097.7
100095.7
100091.8
100075.6
100075.9
100079.3
100082
100085.3
100088.3
100085.8
100095.4
100099.2
100107.6
100117.8
100095.5
100097.9
100096.3
100093
100078.2
100078.9
100082.6
100085.5
100089.2
100092.5
100091
100100.6
100105.3
100114.3
100125
100093.4
100095.8
100094.4
100091.5
100077.9
100078.7
100082.3
100085.3
100088.8
100092.2
100091
100100.1
100104.7
100113.1
100122.9
100090.1
100092.3
100091
100088.3
100075.6
100076.4
100079.8
100082.6
100086
100089.1
100088.1
100096.3
100100.5
100108.1
100116.8
100366.4
100413.4
100455.3
100495.8
100315.1
100348.5
100376
100404.7
100380
100270.5
100294.7
100310.8
100326.6
100298.5
100338.8
100229.3
100246.3
100254.6
100259.9
100226.4
100251
100296.9
100194.6
100206.6
100209.5
100208.6
100171.6
100184.2
100212.8
100247.1
100158.7
100166.2
100164.6
100158.5
100119.3
100122
100135.8
100150.2
100173.1
100139.8
100145.3
100142.1
100134.5
100097.2
100096.8
100104.8
100112.1
100123.3
100137.3
100125.2
100129.3
100125.3
100117.1
100082.3
100080.4
100085.4
100088.6
100094.2
100099.3
100085.2
100114.8
100117.9
100113.6
100105.5
100073.5
100071.1
100074.5
100076.2
100079.1
100081
100066.2
100084.5
100106.3
100108.8
100104.4
100096.5
100067.1
100064.5
100067.2
100067.9
100069.6
100069.9
100056.4
100068.2
100060.7
100099.3
100101.4
100097.1
100089.5
100062.4
100059.9
100062
100062.4
100063.4
100063.1
100050.9
100059.8
100052
100050.1
100093.6
100095.4
100091.2
100084
100059.1
100056.7
100058.5
100058.7
100059.4
100058.9
100048.3
100055.2
100048.3
100045.1
100029
100089
100090.6
100086.6
100079.9
100056.9
100054.7
100056.4
100056.6
100057.2
100056.8
100047.5
100053.4
100046.7
100043.4
100028.2
100028.9
100086.4
100087.9
100084.2
100078.1
100057
100055.2
100057
100057.4
100058.3
100058.2
100050.6
100055.8
100049.5
100045.7
100028
100028.1
100029
100084.9
100086.4
100083.1
100077.6
100058.4
100057.1
100059
100059.8
100061
100061.5
100055.3
100060.2
100054
100049.8
100027.7
100027.8
100028.2
100029
100089.4
100091.3
100088.9
100084.4
100067.4
100067.1
100069.9
100071.7
100074.2
100076.1
100072.3
100080.3
100082
100087.8
100094.5
100090.2
100092.3
100090.3
100086.5
100071.2
100071.3
100074.4
100076.7
100079.6
100082.1
100079.5
100087.9
100090.8
100097.7
100105.7
100090.4
100092.5
100090.9
100087.7
100073.8
100074.3
100077.6
100080.2
100083.4
100086.3
100084.6
100093
100096.8
100104.4
100113.2
100088.5
100090.7
100089.3
100086.4
100073.5
100074.2
100077.5
100080.1
100083.3
100086.2
100084.9
100092.9
100096.7
100103.9
100112.1
100085.4
100087.5
100086.2
100083.5
100071.4
100072.1
100075.2
100077.7
100080.7
100083.5
100082.3
100089.8
100093.3
100099.8
100107.3
100320.4
100354.7
100383.3
100413.4
100390.8
100279.5
100304.8
100322.6
100340.7
100316.4
100359.6
100242.7
100261.4
100271.9
100280.3
100251.7
100281.3
100332.2
100207.6
100221.1
100225.9
100227.6
100194.8
100211.8
100245.4
100285.1
100177.6
100187.1
100188.1
100185.3
100150.9
100158.8
100179.4
100202.9
100236.7
100145.8
100151.8
100149.4
100142.8
100106.9
100108
100117.8
100127.4
100141.5
100159
100129.1
100133.5
100129.9
100122.3
100088.3
100087.2
100093.2
100097.6
100104.9
100112.1
100101.2
100116.2
100119.5
100115.3
100107.3
100075.6
100073.4
100077.2
100079.2
100082.5
100085.1
100071.3
100089.9
100106.9
100109.5
100105.1
100097.3
100068
100065.5
100068.2
100069.1
100071
100071.4
100058.3
100070.2
100062.6
100099.3
100101.4
100097.1
100089.5
100062.4
100059.9
100062
100062.4
100063.4
100063.1
100050.9
100059.8
100052
100050.1
100093.1
100094.8
100090.6
100083.4
100058.4
100055.9
100057.6
100057.7
100058.4
100057.7
100046.9
100053.8
100046.9
100044
100029
100087.9
100089.4
100085.3
100078.5
100055.4
100053.1
100054.6
100054.6
100055.1
100054.4
100044.8
100050.6
100044.1
100041.4
100028.2
100028.9
100083.8
100085.1
100081.2
100074.9
100053.5
100051.4
100052.8
100052.9
100053.3
100052.7
100044.3
100049.2
100043.3
100040.1
100027.8
100028.1
100029
100081.4
100082.7
100079.2
100073.4
100053.7
100051.9
100053.5
100053.8
100054.5
100054.3
100047.2
100051.7
100045.9
100042.5
100027.2
100027.8
100028.2
100029
100080.1
100081.5
100078.3
100073.1
100055
100053.7
100055.5
100056.1
100057.1
100057.3
100051.6
100055.8
100050.1
100046.1
100027
100027.1
100027.8
100028.2
100029
100084.5
100086.2
100083.8
100079.5
100063.5
100063.2
100065.6
100067.2
100069.3
100070.9
100067.2
100074.2
100075.4
100080.1
100085.3
100085.3
100087.2
100085.3
100081.6
100067.1
100067.2
100070
100072
100074.5
100076.7
100074.1
100081.4
100083.8
100089.5
100096.1
100085.6
100087.6
100086
100082.8
100069.6
100070.1
100073.1
100075.4
100078.2
100080.7
100078.9
100086.4
100089.6
100096
100103.4
100083.9
100085.9
100084.5
100081.7
100069.5
100070.1
100073
100075.4
100078.2
100080.8
100079.4
100086.6
100089.9
100096
100103.1
100081
100082.9
100081.6
100079
100067.6
100068.2
100071
100073.3
100076
100078.4
100077.2
100083.9
100087
100092.7
100099.1
100284.3
100310.3
100329
100348.3
100326
100370.7
100250.9
100270.5
100282.3
100292.5
100267.1
100299.5
100353.1
100219.9
100234.6
100241.3
100245.4
100216.5
100237.4
100275.8
100320.9
100189.5
100200.3
100202.9
100202.2
100171.2
100182.4
100207.1
100235.8
100275.3
100163.1
100170.8
100170.6
100166.6
100134.7
100139.9
100154.8
100171.3
100194.6
100223.7
100134.6
100139.5
100136.6
100129.8
100097
100097.1
100104.4
100110.6
100120.3
100130.6
100124.4
100119.8
100123.4
100119.6
100112.1
100081
100079.5
100084
100087
100091.6
100095.9
100084.5
100104.7
100108.2
100110.9
100106.7
100099
100069.9
100067.6
100070.6
100071.8
100074
100074.9
100062.6
100074.8
100067
100099.9
100102
100097.7
100090.2
100063.2
100060.8
100063
100063.4
100064.6
100064.5
100052.5
100061.6
100053.6
100051.4
100093.1
100094.8
100090.6
100083.4
100058.4
100055.9
100057.6
100057.7
100058.4
100057.7
100046.9
100053.8
100046.9
100044
100029
100087.4
100088.9
100084.8
100077.9
100054.7
100052.4
100053.8
100053.8
100054.1
100053.3
100043.6
100049.3
100043
100040.5
100028.2
100028.9
100082.8
100084
100080.1
100073.6
100052.1
100049.9
100051.2
100051.1
100051.4
100050.6
100041.9
100046.8
100041.1
100038.4
100027.8
100028.1
100028.9
100079
100080.1
100076.4
100070.4
100050.4
100048.4
100049.7
100049.6
100049.9
100049.3
100041.6
100045.9
100040.4
100037.7
100027.1
100027.7
100028.2
100029
100076.9
100078
100074.6
100069
100050.6
100049
100050.3
100050.5
100051.1
100050.8
100044.3
100048.2
100043
100039.8
100026.7
100027.1
100027.8
100028.2
100029
100075.8
100076.9
100073.9
100068.9
100051.9
100050.7
100052.2
100052.7
100053.6
100053.7
100048.4
100052.1
100046.8
100043.1
100026.3
100026.6
100027.1
100027.8
100028.2
100029
100080
100081.5
100079.2
100075.1
100060
100059.5
100061.8
100063.2
100065
100066.3
100062.8
100069
100069.7
100073.6
100077.9
100080.8
100082.5
100080.6
100077.1
100063.4
100063.4
100065.9
100067.7
100070
100071.8
100069.2
100075.8
100077.7
100082.6
100088
100081.1
100083
100081.4
100078.3
100065.8
100066.2
100068.9
100071
100073.5
100075.7
100073.9
100080.6
100083.3
100088.8
100095.1
100079.6
100081.4
100080.1
100077.3
100065.7
100066.2
100069
100071.1
100073.6
100075.9
100074.5
100081
100083.8
100089.2
100095.3
100076.9
100078.7
100077.4
100074.9
100064
100064.5
100067.2
100069.2
100071.7
100073.8
100072.6
100078.7
100081.4
100086.4
100092
100255.2
100275.3
100287.9
100299.1
100275.2
100309.3
100364.3
100227.3
100242.9
100250.7
100256.2
100229.7
100253
100294.2
100342.2
100200.7
100212.6
100216.8
100218
100190.1
100204.3
100232.8
100266.5
100311.5
100174
100182.8
100184
100181.8
100152.6
100160.4
100178.4
100199.2
100227.8
100263
100150.6
100156.9
100155.8
100151.3
100121.8
100125.1
100136.4
100147.9
100164.5
100184.2
100190.9
100124.9
100128.9
100125.7
100118.9
100088.8
100088.3
100093.9
100098.3
100104.7
100111.4
100103.7
100126.4
100111.6
100114.5
100110.7
100103.4
100074.8
100073.1
100076.7
100078.6
100081.8
100084
100073.6
100087.1
100079.6
100101.1
100103.3
100099.2
100091.8
100065
100062.7
100065.1
100065.8
100067.2
100067.5
100056.1
100065.4
100057.2
100054.4
100093.6
100095.4
100091.2
100084
100059.1
100056.7
100058.5
100058.7
100059.4
100058.9
100048.3
100055.2
100048.3
100045.1
100029
100087.4
100088.9
100084.8
100077.9
100054.7
100052.4
100053.8
100053.8
100054.1
100053.3
100043.6
100049.3
100043
100040.5
100028.2
100028.9
100082.3
100083.5
100079.5
100073.1
100051.5
100049.2
100050.5
100050.3
100050.5
100049.6
100040.9
100045.7
100040.1
100037.6
100027.8
100028.1
100028.9
100078
100079.1
100075.3
100069.2
100049.1
100047
100048.2
100048
100048.2
100047.4
100039.5
100043.7
100038.5
100036.2
100027.1
100027.7
100028.1
100028.9
100074.6
100075.5
100072
100066.2
100047.6
100045.7
100046.8
100046.7
100046.9
100046.2
100039.3
100043
100038.1
100035.6
100026.6
100027
100027.8
100028.2
100028.9
100072.7
100073.6
100070.4
100065.1
100047.8
100046.3
100047.5
100047.6
100048.1
100047.7
100041.7
100045.2
100040.4
100037.5
100026
100026.5
100027.1
100027.8
100028.1
100028.9
100071.7
100072.7
100069.8
100065
100049.1
100047.9
100049.3
100049.7
100050.5
100050.5
100045.5
100048.8
100044
100040.6
100025.6
100025.9
100026.6
100027.1
100027.8
100028.1
100029
100075.7
100077.1
100074.8
100070.9
100056.7
100056.2
100058.3
100059.5
100061.1
100062.2
100058.8
100064.4
100064.9
100068.2
100071.7
100076.6
100078.2
100076.3
100072.9
100059.9
100059.9
100062.2
100063.8
100065.8
100067.4
100064.9
100070.8
100072.4
100076.6
100081.2
100077
100078.6
100077.1
100074.2
100062.3
100062.6
100065.1
100066.9
100069.2
100071.2
100069.4
100075.5
100077.7
100082.6
100088
100075.6
100077.2
100075.9
100073.3
100062.2
100062.7
100065.2
100067.1
100069.5
100071.5
100070.1
100076
100078.4
100083.2
100088.5
100073
100074.7
100073.4
100071
100060.6
100061.1
100063.5
100065.4
100067.7
100069.6
100068.4
100074
100076.3
100080.8
100085.8
100231.2
100247.3
100255.6
100261.9
100236.7
100261.3
100303.9
100353.5
100207.5
100220.1
100225.2
100227.6
100201.6
100217.7
100248.5
100285.1
100333
100184.3
100194.1
100196.5
100196
100169.3
100179.5
100200.4
100225.2
100258.8
100299.7
100160.7
100168
100168.1
100165
100137.7
100143.1
100157
100171.7
100192.6
100217.9
100232
100139.7
100144.9
100143.3
100138.4
100111
100113.2
100122
100130.5
100142.2
100156
100158.3
100197.3
100116.4
100119.7
100116.3
100109.6
100081.9
100081
100085.5
100088.6
100093.2
100097.2
100089.6
100105.1
100098.3
100104.3
100106.7
100102.8
100095.8
100069.5
100067.7
100070.6
100071.9
100074.1
100075.4
100065.4
100075.6
100067.6
100064.2
100094.8
100096.6
100092.5
100085.5
100060.7
100058.5
100060.4
100060.8
100061.8
100061.6
100051.4
100058.4
100051.3
100047.6
100029
100087.9
100089.4
100085.3
100078.5
100055.4
100053.1
100054.6
100054.6
100055.1
100054.4
100044.8
100050.6
100044.1
100041.4
100028.2
100028.9
100082.3
100083.5
100079.5
100073.1
100051.5
100049.2
100050.5
100050.3
100050.5
100049.6
100040.9
100045.7
100040.1
100037.6
100027.8
100028.1
100028.9
100077.6
100078.6
100074.8
100068.6
100048.5
100046.4
100047.5
100047.3
100047.4
100046.5
100038.5
100042.7
100037.7
100035.5
100027.1
100027.7
100028.1
100028.9
100073.7
100074.6
100070.9
100065.1
100046.4
100044.4
100045.4
100045.2
100045.3
100044.5
100037.3
100041
100036.4
100034.3
100026.6
100027
100027.8
100028.1
100028.9
100070.5
100071.3
100067.9
100062.5
100045
100043.2
100044.2
100044.1
100044.2
100043.6
100037.1
100040.5
100036
100033.8
100025.9
100026.5
100027.1
100027.8
100028.1
100028.9
100068.7
100069.6
100066.5
100061.5
100045.2
100043.7
100044.9
100045
100045.3
100045
100039.4
100042.6
100038.2
100035.5
100025.3
100025.8
100026.5
100027.1
100027.8
100028.1
100028.9
100067.9
100068.8
100066
100061.5
100046.4
100045.3
100046.6
100047
100047.6
100047.6
100043
100045.9
100041.4
100038.3
100024.9
100025.2
100025.9
100026.5
100027.1
100027.8
100028.1
100029
100071.8
100073.1
100070.8
100067.1
100053.6
100053.1
100055
100056.1
100057.6
100058.5
100055.3
100060.3
100060.7
100063.5
100066.4
100072.7
100074.1
100072.3
100069
100056.7
100056.7
100058.8
100060.2
100062
100063.5
100061.1
100066.4
100067.7
100071.4
100075.3
100073
100074.6
100073.1
100070.2
100059
100059.2
100061.5
100063.2
100065.3
100067
100065.3
100070.8
100072.8
100077.1
100081.9
100071.7
100073.3
100072
100069.4
100059
100059.3
100061.7
100063.5
100065.6
100067.4
100066
100071.4
100073.6
100077.8
100082.5
100069.4
100070.9
100069.7
100067.3
100057.5
100057.9
100060.2
100061.9
100064
100065.8
100064.5
100069.7
100071.7
100075.8
100080.2
100211.1
100224.1
100229.7
100232.7
100207.7
100224.8
100256.8
100295
100344.5
100190.6
100200.9
100204.2
100204.6
100179.5
100191.1
100213.9
100240.9