/*--------------------------------*- C++ -*----------------------------------*\
| =========                 |                                                 |
| \\      /  F ield         | OpenFOAM: The Open Source CFD Toolbox           |
|  \\    /   O peration     | Version:  2306                                  |
|   \\  /    A nd           | Website:  www.openfoam.com                      |
|    \\/     M anipulation  |                                                 |
\*---------------------------------------------------------------------------*/
FoamFile
{
    version     2.0;
    format      ascii;
    arch        "LSB;label=32;scalar=64";
    class       volScalarField;
    location    "1.2/fuel";
    object      T;
}
// * * * * * * * * * * * * * * * * * * * * * * * * * * * * * * * * * * * * * //

dimensions      [0 0 0 1 0 0 0];

internalField   nonuniform List<scalar> 
16000
(
1212.904
1212.737
1214.897
1212.919
1212.353
1214.885
1212.752
1216.7
1214.906
1212.939
1211.643
1214.857
1212.37
1216.731
1214.894
1212.773
1218.362
1216.704
1214.92
1212.964
1210.458
1214.798
1211.663
1216.798
1214.865
1212.392
1218.404
1216.735
1214.908
1212.799
1219.947
1218.362
1216.713
1214.939
1212.994
1208.732
1214.686
1210.486
1216.915
1214.805
1211.689
1218.499
1216.801
1214.878
1212.419
1219.991
1218.404
1216.743
1214.927
1212.829
1221.476
1219.944
1218.367
1216.727
1214.962
1213.029
1206.779
1214.488
1208.773
1217.092
1214.69
1210.519
1218.664
1216.916
1214.816
1211.72
1220.09
1218.497
1216.809
1214.896
1212.452
1221.519
1219.988
1218.408
1216.756
1214.95
1212.866
1222.956
1221.47
1219.945
1218.376
1216.744
1214.99
1213.065
1204.995
1214.188
1206.838
1217.31
1214.487
1208.819
1218.922
1217.088
1214.698
1210.558
1220.265
1218.661
1216.921
1214.832
1211.757
1221.616
1220.086
1218.501
1216.821
1214.918
1212.49
1222.997
1221.513
1219.988
1218.417
1216.773
1214.978
1212.903
1224.387
1222.948
1221.468
1219.95
1218.389
1216.767
1215.019
1213.102
1203.667
1213.848
1205.072
1217.486
1214.186
1206.902
1219.262
1217.299
1214.491
1208.87
1220.54
1218.914
1217.088
1214.712
1210.603
1221.787
1220.258
1218.661
1216.93
1214.854
1211.801
1223.089
1221.609
1220.085
1218.508
1216.837
1214.946
1212.53
1224.426
1222.989
1221.511
1219.993
1218.429
1216.795
1215.006
1212.94
1225.768
1224.377
1222.944
1221.47
1219.959
1218.406
1216.789
1215.048
1213.138
1202.966
1213.557
1203.758
1217.59
1213.848
1205.153
1219.582
1217.469
1214.189
1206.971
1220.907
1219.246
1217.292
1214.5
1208.927
1222.057
1220.529
1218.91
1217.093
1214.73
1210.654
1223.252
1221.778
1220.256
1218.666
1216.944
1214.88
1211.845
1224.513
1223.08
1221.605
1220.089
1218.519
1216.858
1214.974
1212.57
1225.804
1224.416
1222.984
1221.512
1220.001
1218.446
1216.818
1215.035
1212.978
1227.097
1225.756
1224.371
1222.943
1221.476
1219.972
1218.424
1216.812
1215.077
1213.175
1202.966
1213.39
1203.063
1217.638
1213.56
1203.852
1219.827
1217.571
1213.853
1205.239
1221.263
1219.56
1217.457
1214.197
1207.044
1222.418
1220.889
1219.235
1217.29
1214.514
1208.99
1223.51
1222.044
1220.522
1218.91
1217.102
1214.754
1210.707
1224.667
1223.241
1221.772
1220.257
1218.675
1216.963
1214.907
1211.89
1225.887
1224.502
1223.074
1221.606
1220.096
1218.535
1216.879
1215.002
1212.61
1227.132
1225.793
1224.409
1222.983
1221.518
1220.014
1218.463
1216.84
1215.063
1213.016
1228.374
1227.084
1225.748
1224.368
1222.946
1221.486
1219.986
1218.442
1216.835
1215.106
1213.354
1203.667
1213.39
1203.063
1217.654
1213.395
1203.165
1219.984
1217.618
1213.567
1203.951
1221.547
1219.802
1217.557
1213.863
1205.329
1222.774
1221.24
1219.543
1217.45
1214.21
1207.123
1223.856
1222.399
1220.875
1219.228
1217.292
1214.534
1209.053
1224.911
1223.495
1222.034
1220.519
1218.915
1217.116
1214.778
1210.76
1226.033
1224.655
1223.234
1221.771
1220.262
1218.688
1216.982
1214.934
1211.936
1227.21
1225.874
1224.494
1223.072
1221.61
1220.108
1218.551
1216.9
1215.03
1212.651
1228.407
1227.119
1225.785
1224.406
1222.986
1221.527
1220.027
1218.481
1216.862
1215.092
1213.201
1229.599
1228.361
1227.075
1225.744
1224.369
1222.953
1221.496
1219.999
1218.459
1216.858
1215.247
1213.696
1204.995
1213.557
1203.758
1217.654
1213.395
1203.165
1220.06
1217.634
1213.405
1203.271
1221.736
1219.957
1217.603
1213.58
1204.054
1223.061
1221.519
1219.781
1217.547
1213.877
1205.424
1224.199
1222.75
1221.22
1219.531
1217.447
1214.228
1207.202
1225.241
1223.837
1222.384
1220.865
1219.225
1217.299
1214.553
1209.117
1226.264
1224.896
1223.485
1222.029
1220.52
1218.923
1217.131
1214.802
1210.814
1227.349
1226.019
1224.646
1223.23
1221.773
1220.271
1218.702
1217
1214.961
1211.982
1228.482
1227.197
1225.866
1224.491
1223.074
1221.619
1220.12
1218.567
1216.921
1215.058
1212.85
1229.631
1228.394
1227.11
1225.78
1224.406
1222.992
1221.537
1220.04
1218.498
1216.884
1215.233
1213.56
1230.772
1229.585
1228.351
1227.07
1225.743
1224.374
1222.96
1221.506
1220.013
1218.477
1216.97
1215.504
1214.056
1206.779
1213.848
1205.072
1217.638
1213.56
1203.852
1220.06
1217.634
1213.405
1203.271
1221.83
1220.033
1217.619
1213.419
1203.38
1223.255
1221.707
1219.935
1217.593
1213.597
1204.162
1224.476
1223.033
1221.497
1219.765
1217.542
1213.897
1205.519
1225.567
1224.175
1222.73
1221.205
1219.522
1217.449
1214.246
1207.281
1226.577
1225.22
1223.821
1222.373
1220.86
1219.227
1217.307
1214.573
1209.181
1227.568
1226.248
1224.884
1223.478
1222.028
1220.525
1218.932
1217.145
1214.827
1210.869
1228.614
1227.334
1226.009
1224.64
1223.23
1221.78
1220.281
1218.715
1217.019
1214.988
1212.207
1229.702
1228.468
1227.187
1225.86
1224.49
1223.08
1221.627
1220.132
1218.583
1216.942
1215.197
1213.249
1230.802
1229.617
1228.383
1227.104
1225.779
1224.411
1222.999
1221.546
1220.053
1218.515
1216.995
1215.489
1213.943
1231.893
1230.758
1229.575
1228.344
1227.067
1225.746
1224.378
1222.967
1221.516
1220.026
1218.566
1217.169
1215.762
1214.431
1208.732
1214.188
1206.838
1217.59
1213.848
1205.153
1219.984
1217.618
1213.567
1203.951
1221.83
1220.033
1217.619
1213.419
1203.38
1223.352
1221.8
1220.01
1217.608
1213.438
1203.495
1224.666
1223.226
1221.683
1219.917
1217.587
1213.619
1204.269
1225.832
1224.449
1223.01
1221.478
1219.753
1217.542
1213.916
1205.613
1226.887
1225.543
1224.154
1222.714
1221.195
1219.518
1217.452
1214.264
1207.359
1227.865
1226.556
1225.204
1223.809
1222.366
1220.859
1219.229
1217.314
1214.593
1209.245
1228.823
1227.552
1226.235
1224.876
1223.474
1222.03
1220.53
1218.941
1217.159
1214.852
1211.134
1229.828
1228.599
1227.323
1226.002
1224.638
1223.234
1221.786
1220.29
1218.729
1217.038
1215.121
1212.675
1230.87
1229.687
1228.457
1227.18
1225.858
1224.494
1223.086
1221.636
1220.143
1218.598
1217.046
1215.452
1213.686
1231.922
1230.788
1229.606
1228.377
1227.101
1225.781
1224.415
1223.006
1221.556
1220.066
1218.601
1217.188
1215.748
1214.346
1232.963
1231.879
1230.747
1229.567
1228.341
1227.068
1225.748
1224.383
1222.974
1221.526
1220.094
1218.719
1217.365
1216.023
1214.816
1210.458
1214.488
1208.773
1217.486
1214.186
1206.902
1219.827
1217.571
1213.853
1205.239
1221.736
1219.957
1217.603
1213.58
1204.054
1223.352
1221.8
1220.01
1217.608
1213.438
1203.495
1224.76
1223.322
1221.775
1219.991
1217.603
1213.462
1203.609
1226.013
1224.637
1223.201
1221.662
1219.904
1217.586
1213.641
1204.375
1227.139
1225.805
1224.426
1222.991
1221.464
1219.746
1217.542
1213.936
1205.707
1228.16
1226.863
1225.522
1224.138
1222.702
1221.188
1219.514
1217.454
1214.283
1207.437
1229.106
1227.845
1226.539
1225.191
1223.801
1222.363
1220.858
1219.231
1217.321
1214.614
1209.551
1230.028
1228.806
1227.538
1226.226
1224.871
1223.475
1222.033
1220.535
1218.949
1217.173
1214.973
1211.686
1230.991
1229.812
1228.587
1227.315
1225.999
1224.64
1223.238
1221.792
1220.3
1218.742
1217.13
1215.373
1213.206
1231.988
1230.855
1229.676
1228.449
1227.177
1225.86
1224.497
1223.091
1221.644
1220.155
1218.677
1217.229
1215.714
1214.155
1232.991
1231.908
1230.776
1229.598
1228.373
1227.102
1225.783
1224.419
1223.012
1221.565
1220.131
1218.748
1217.379
1216.011
1214.763
1233.983
1232.949
1231.867
1230.738
1229.563
1228.34
1227.069
1225.751
1224.387
1222.981
1221.576
1220.21
1218.869
1217.558
1216.285
1211.643
1214.686
1210.486
1217.31
1214.487
1208.819
1219.582
1217.469
1214.189
1206.971
1221.547
1219.802
1217.557
1213.863
1205.329
1223.255
1221.707
1219.935
1217.593
1213.597
1204.162
1224.76
1223.322
1221.775
1219.991
1217.603
1213.462
1203.609
1226.104
1224.731
1223.297
1221.754
1219.977
1217.601
1213.486
1203.721
1227.312
1225.985
1224.612
1223.18
1221.647
1219.895
1217.585
1213.664
1204.48
1228.401
1227.113
1225.783
1224.407
1222.976
1221.454
1219.738
1217.541
1213.956
1205.799
1229.388
1228.137
1226.843
1225.506
1224.126
1222.695
1221.182
1219.511
1217.456
1214.301
1207.804
1230.299
1229.086
1227.828
1226.526
1225.182
1223.796
1222.36
1220.856
1219.233
1217.329
1214.712
1210.118
1231.183
1230.011
1228.792
1227.528
1226.22
1224.869
1223.475
1222.035
1220.54
1218.958
1217.243
1215.211
1212.325
1232.104
1230.975
1229.8
1228.578
1227.31
1225.999
1224.642
1223.241
1221.798
1220.309
1218.807
1217.291
1215.64
1213.796
1233.054
1231.972
1230.843
1229.667
1228.445
1227.177
1225.861
1224.5
1223.097
1221.652
1220.213
1218.811
1217.407
1215.982
1214.648
1234.01
1232.976
1231.896
1230.768
1229.593
1228.372
1227.102
1225.785
1224.423
1223.019
1221.613
1220.241
1218.89
1217.567
1216.276
1234.954
1233.968
1232.937
1231.858
1230.733
1229.561
1228.34
1227.07
1225.754
1224.392
1223.017
1221.661
1220.322
1219.014
1217.75
1212.353
1214.798
1211.663
1217.092
1214.69
1210.519
1219.262
1217.299
1214.491
1208.87
1221.263
1219.56
1217.457
1214.197
1207.044
1223.061
1221.519
1219.781
1217.547
1213.877
1205.424
1224.666
1223.226
1221.683
1219.917
1217.587
1213.619
1204.269
1226.104
1224.731
1223.297
1221.754
1219.977
1217.601
1213.486
1203.721
1227.399
1226.075
1224.706
1223.275
1221.737
1219.967
1217.6
1213.51
1203.833
1228.566
1227.285
1225.961
1224.592
1223.164
1221.635
1219.885
1217.584
1213.686
1204.584
1229.618
1228.376
1227.091
1225.764
1224.392
1222.965
1221.444
1219.731
1217.541
1213.976
1206.233
1230.568
1229.365
1228.117
1226.826
1225.493
1224.117
1222.687
1221.175
1219.507
1217.459
1214.392
1208.423
1231.443
1230.279
1229.069
1227.814
1226.517
1225.177
1223.791
1222.357
1220.855
1219.235
1217.366
1214.903
1210.697
1232.288
1231.165
1229.996
1228.781
1227.521
1226.217
1224.868
1223.475
1222.037
1220.545
1219
1217.368
1215.473
1213.078
1233.166
1232.088
1230.962
1229.79
1228.572
1227.309
1225.999
1224.643
1223.245
1221.804
1220.354
1218.915
1217.449
1215.921
1214.441
1234.071
1233.039
1231.96
1230.834
1229.662
1228.444
1227.177
1225.863
1224.504
1223.102
1221.694
1220.309
1218.937
1217.584
1216.256
1234.98
1233.995
1232.964
1231.887
1230.763
1229.592
1228.372
1227.103
1225.788
1224.427
1223.052
1221.692
1220.346
1219.028
1217.753
1235.876
1234.939
1233.956
1232.928
1231.853
1230.731
1229.56
1228.34
1227.071
1225.756
1224.415
1223.075
1221.741
1220.429
1219.157
1212.737
1214.857
1212.37
1216.915
1214.805
1211.689
1218.922
1217.088
1214.698
1210.558
1220.907
1219.246
1217.292
1214.5
1208.927
1222.774
1221.24
1219.543
1217.45
1214.21
1207.123
1224.476
1223.033
1221.497
1219.765
1217.542
1213.897
1205.519
1226.013
1224.637
1223.201
1221.662
1219.904
1217.586
1213.641
1204.375
1227.399
1226.075
1224.706
1223.275
1221.737
1219.967
1217.6
1213.51
1203.833
1228.649
1227.371
1226.051
1224.685
1223.258
1221.725
1219.957
1217.599
1213.534
1203.943
1229.776
1228.54
1227.261
1225.941
1224.575
1223.151
1221.623
1219.876
1217.583
1213.708
1205.071
1230.789
1229.593
1228.354
1227.072
1225.749
1224.381
1222.954
1221.434
1219.724
1217.541
1214.071
1206.93
1231.702
1230.546
1229.345
1228.101
1226.814
1225.484
1224.109
1222.679
1221.169
1219.503
1217.472
1214.559
1209
1232.538
1231.423
1230.262
1229.055
1227.804
1226.51
1225.171
1223.787
1222.354
1220.854
1219.244
1217.436
1215.103
1211.279
1233.344
1232.271
1231.151
1229.985
1228.773
1227.517
1226.214
1224.866
1223.475
1222.039
1220.568
1219.068
1217.494
1215.77
1214.001
1234.179
1233.15
1232.074
1230.952
1229.784
1228.57
1227.307
1225.998
1224.644
1223.248
1221.834
1220.425
1219.015
1217.607
1216.217
1235.038
1234.056
1233.026
1231.951
1230.829
1229.66
1228.442
1227.176
1225.864
1224.507
1223.129
1221.759
1220.397
1219.059
1217.759
1235.901
1234.965
1233.983
1232.955
1231.881
1230.76
1229.59
1228.371
1227.104
1225.79
1224.448
1223.105
1221.765
1220.445
1219.164
1236.75
1235.861
1234.927
1233.947
1232.922
1231.85
1230.729
1229.558
1228.339
1227.072
1225.769
1224.452
1223.129
1221.818
1220.534
1212.904
1214.885
1212.752
1216.798
1214.865
1212.392
1218.664
1216.916
1214.816
1211.72
1220.54
1218.914
1217.088
1214.712
1210.603
1222.418
1220.889
1219.235
1217.29
1214.514
1208.99
1224.199
1222.75
1221.22
1219.531
1217.447
1214.228
1207.202
1225.832
1224.449
1223.01
1221.478
1219.753
1217.542
1213.916
1205.613
1227.312
1225.985
1224.612
1223.18
1221.647
1219.895
1217.585
1213.664
1204.48
1228.649
1227.371
1226.051
1224.685
1223.258
1221.725
1219.957
1217.599
1213.534
1203.943
1229.855
1228.622
1227.347
1226.03
1224.667
1223.244
1221.712
1219.948
1217.598
1213.557
1204.458
1230.94
1229.75
1228.517
1227.242
1225.925
1224.562
1223.138
1221.611
1219.868
1217.582
1213.814
1205.839
1231.913
1230.765
1229.572
1228.336
1227.058
1225.737
1224.369
1222.943
1221.424
1219.717
1217.542
1214.24
1207.551
1232.787
1231.679
1230.527
1229.329
1228.088
1226.804
1225.475
1224.1
1222.671
1221.162
1219.486
1217.502
1214.727
1209.527
1233.585
1232.518
1231.406
1230.248
1229.045
1227.798
1226.504
1225.166
1223.782
1222.35
1220.848
1219.261
1217.508
1215.307
1211.847
1234.35
1233.326
1232.256
1231.139
1229.977
1228.769
1227.513
1226.211
1224.865
1223.475
1222.049
1220.6
1219.128
1217.624
1216.116
1235.143
1234.163
1233.137
1232.064
1230.946
1229.781
1228.567
1227.306
1225.998
1224.646
1223.264
1221.875
1220.485
1219.109
1217.766
1235.958
1235.023
1234.043
1233.017
1231.944
1230.826
1229.657
1228.441
1227.176
1225.865
1224.522
1223.17
1221.817
1220.479
1219.177
1236.774
1235.886
1234.953
1233.974
1232.949
1231.878
1230.758
1229.588
1228.37
1227.104
1225.801
1224.48
1223.152
1221.833
1220.542
1237.578
1236.735
1235.849
1234.917
1233.941
1232.918
1231.847
1230.726
1229.557
1228.339
1227.076
1225.787
1224.484
1223.18
1221.891
1214.897
1212.919
1216.731
1214.894
1212.773
1218.499
1216.801
1214.878
1212.419
1220.265
1218.661
1216.921
1214.832
1211.757
1222.057
1220.529
1218.91
1217.093
1214.73
1210.654
1223.856
1222.399
1220.875
1219.228
1217.292
1214.534
1209.053
1225.567
1224.175
1222.73
1221.205
1219.522
1217.449
1214.246
1207.281
1227.139
1225.805
1224.426
1222.991
1221.464
1219.746
1217.542
1213.936
1205.707
1228.566
1227.285
1225.961
1224.592
1223.164
1221.635
1219.885
1217.584
1213.686
1204.584
1229.855
1228.622
1227.347
1226.03
1224.667
1223.244
1221.712
1219.948
1217.598
1213.557
1204.458
1231.016
1229.829
1228.599
1227.327
1226.013
1224.654
1223.23
1221.699
1219.938
1217.597
1213.67
1205.266
1232.059
1230.915
1229.728
1228.498
1227.226
1225.912
1224.549
1223.125
1221.599
1219.859
1217.578
1213.993
1206.509
1232.991
1231.89
1230.744
1229.554
1228.321
1227.046
1225.726
1224.358
1222.932
1221.415
1219.682
1217.55
1214.403
1208.093
1233.825
1232.765
1231.661
1230.511
1229.317
1228.079
1226.795
1225.466
1224.091
1222.663
1221.131
1219.462
1217.536
1214.892
1209.992
1234.583
1233.565
1232.501
1231.392
1230.237
1229.038
1227.791
1226.498
1225.16
1223.778
1222.334
1220.836
1219.277
1217.578
1215.506
1212.91
1235.309
1234.333
1233.311
1232.244
1231.131
1229.972
1228.764
1227.509
1226.208
1224.863
1223.474
1222.054
1220.621
1219.183
1217.764
1236.059
1235.127
1234.149
1233.126
1232.057
1230.941
1229.777
1228.564
1227.304
1225.997
1224.651
1223.282
1221.906
1220.537
1219.199
1236.83
1235.942
1235.01
1234.033
1233.01
1231.941
1230.822
1229.655
1228.439
1227.176
1225.871
1224.542
1223.202
1221.868
1220.557
1237.601
1236.76
1235.874
1234.943
1233.967
1232.945
1231.874
1230.755
1229.586
1228.369
1227.106
1225.814
1224.506
1223.195
1221.899
1238.359
1237.563
1236.723
1235.839
1234.911
1233.937
1232.915
1231.844
1230.724
1229.555
1228.336
1227.079
1225.801
1224.512
1223.227
1216.7
1214.906
1212.939
1218.404
1216.735
1214.908
1212.799
1220.09
1218.497
1216.809
1214.896
1212.452
1221.787
1220.258
1218.661
1216.93
1214.854
1211.801
1223.51
1222.044
1220.522
1218.91
1217.102
1214.754
1210.707
1225.241
1223.837
1222.384
1220.865
1219.225
1217.299
1214.553
1209.117
1226.887
1225.543
1224.154
1222.714
1221.195
1219.518
1217.452
1214.264
1207.359
1228.401
1227.113
1225.783
1224.407
1222.976
1221.454
1219.738
1217.541
1213.956
1205.799
1229.776
1228.54
1227.261
1225.941
1224.575
1223.151
1221.623
1219.876
1217.583
1213.708
1205.071
1231.016
1229.829
1228.599
1227.327
1226.013
1224.654
1223.23
1221.699
1219.938
1217.597
1213.67
1205.266
1232.132
1230.991
1229.806
1228.579
1227.31
1226
1224.64
1223.217
1221.686
1219.928
1217.592
1213.859
1205.967
1233.131
1232.034
1230.894
1229.709
1228.482
1227.213
1225.899
1224.536
1223.112
1221.587
1219.816
1217.577
1214.163
1207.085
1234.021
1232.968
1231.87
1230.727
1229.54
1228.31
1227.035
1225.714
1224.347
1222.921
1221.366
1219.631
1217.564
1214.558
1208.556
1234.815
1233.804
1232.747
1231.645
1230.498
1229.307
1228.069
1226.785
1225.457
1224.083
1222.624
1221.082
1219.443
1217.572
1215.047
1210.8
1235.534
1234.564
1233.548
1232.488
1231.381
1230.23
1229.03
1227.784
1226.491
1225.154
1223.754
1222.304
1220.822
1219.29
1217.641
1215.889
1213.548
1236.22
1235.292
1234.318
1233.3
1232.235
1231.125
1229.966
1228.759
1227.505
1226.205
1224.853
1223.46
1222.049
1220.632
1219.23
1236.928
1236.043
1235.113
1234.139
1233.118
1232.052
1230.937
1229.773
1228.561
1227.302
1225.994
1224.65
1223.29
1221.928
1220.584
1237.655
1236.814
1235.93
1235
1234.026
1233.006
1231.937
1230.819
1229.653
1228.438
1227.174
1225.873
1224.554
1223.229
1221.915
1238.382
1237.587
1236.747
1235.864
1234.936
1233.963
1232.941
1231.871
1230.752
1229.584
1228.365
1227.105
1225.822
1224.527
1223.235
1239.096
1238.345
1237.551
1236.714
1235.832
1234.906
1233.933
1232.911
1231.841
1230.721
1229.547
1228.326
1227.078
1225.812
1224.539
1218.362
1216.704
1214.92
1212.964
1219.991
1218.404
1216.743
1214.927
1212.829
1221.616
1220.086
1218.501
1216.821
1214.918
1212.49
1223.252
1221.778
1220.256
1218.666
1216.944
1214.88
1211.845
1224.911
1223.495
1222.034
1220.519
1218.915
1217.116
1214.778
1210.76
1226.577
1225.22
1223.821
1222.373
1220.86
1219.227
1217.307
1214.573
1209.181
1228.16
1226.863
1225.522
1224.138
1222.702
1221.188
1219.514
1217.454
1214.283
1207.437
1229.618
1228.376
1227.091
1225.764
1224.392
1222.965
1221.444
1219.731
1217.541
1213.976
1206.233
1230.94
1229.75
1228.517
1227.242
1225.925
1224.562
1223.138
1221.611
1219.868
1217.582
1213.814
1205.839
1232.132
1230.991
1229.806
1228.579
1227.31
1226
1224.64
1223.217
1221.686
1219.928
1217.592
1213.859
1205.967
1233.201
1232.107
1230.969
1229.787
1228.563
1227.297
1225.986
1224.626
1223.203
1221.674
1219.882
1217.589
1214.035
1206.565
1234.157
1233.107
1232.014
1230.876
1229.694
1228.47
1227.2
1225.886
1224.523
1223.1
1221.529
1219.749
1217.582
1214.321
1207.57
1235.006
1233.999
1232.948
1231.853
1230.713
1229.529
1228.299
1227.023
1225.703
1224.335
1222.867
1221.291
1219.589
1217.581
1214.704
1209.341
1235.759
1234.795
1233.786
1232.732
1231.633
1230.489
1229.297
1228.059
1226.776
1225.448
1224.04
1222.562
1221.039
1219.428
1217.606
1215.355
1211.662
1236.438
1235.515
1234.548
1233.535
1232.477
1231.374
1230.222
1229.023
1227.777
1226.485
1225.125
1223.71
1222.271
1220.806
1219.298
1217.754
1216.129
1213.916
1237.084
1236.203
1235.277
1234.306
1233.291
1232.229
1231.119
1229.96
1228.754
1227.501
1226.188
1224.823
1223.433
1222.03
1220.629
1237.75
1236.912
1236.03
1235.103
1234.131
1233.113
1232.047
1230.933
1229.77
1228.558
1227.292
1225.977
1224.639
1223.288
1221.942
1238.435
1237.64
1236.802
1235.92
1234.993
1234.021
1233.001
1231.933
1230.816
1229.65
1228.429
1227.162
1225.868
1224.56
1223.251
1239.119
1238.368
1237.574
1236.738
1235.857
1234.932
1233.959
1232.937
1231.868
1230.749
1229.574
1228.351
1227.098
1225.826
1224.546
1239.789
1239.082
1238.333
1237.541
1236.707
1235.828
1234.902
1233.929
1232.907
1231.837
1230.708
1229.527
1228.313
1227.074
1225.82
1219.947
1218.362
1216.713
1214.939
1212.994
1221.519
1219.988
1218.408
1216.756
1214.95
1212.866
1223.089
1221.609
1220.085
1218.508
1216.837
1214.946
1212.53
1224.667
1223.241
1221.772
1220.257
1218.675
1216.963
1214.907
1211.89
1226.264
1224.896
1223.485
1222.029
1220.52
1218.923
1217.131
1214.802
1210.814
1227.865
1226.556
1225.204
1223.809
1222.366
1220.859
1219.229
1217.314
1214.593
1209.245
1229.388
1228.137
1226.843
1225.506
1224.126
1222.695
1221.182
1219.511
1217.456
1214.301
1207.804
1230.789
1229.593
1228.354
1227.072
1225.749
1224.381
1222.954
1221.434
1219.724
1217.541
1214.071
1206.93
1232.059
1230.915
1229.728
1228.498
1227.226
1225.912
1224.549
1223.125
1221.599
1219.859
1217.578
1213.993
1206.509
1233.201
1232.107
1230.969
1229.787
1228.563
1227.297
1225.986
1224.626
1223.203
1221.674
1219.882
1217.589
1214.035
1206.565
1234.225
1233.178
1232.086
1230.951
1229.772
1228.551
1227.284
1225.972
1224.612
1223.19
1221.612
1219.809
1217.59
1214.197
1207.067
1235.136
1234.134
1233.087
1231.996
1230.861
1229.682
1228.457
1227.187
1225.873
1224.51
1223.037
1221.439
1219.694
1217.59
1214.468
1208.387
1235.943
1234.984
1233.98
1232.932
1231.839
1230.702
1229.518
1228.287
1227.012
1225.691
1224.279
1222.781
1221.226
1219.554
1217.6
1214.996
1210.304
1236.656
1235.739
1234.777
1233.77
1232.719
1231.623
1230.479
1229.288
1228.05
1226.767
1225.402
1223.969
1222.505
1221
1219.415
1217.676
1215.685
1212.282
1237.296
1236.42
1235.499
1234.534
1233.524
1232.469
1231.366
1230.214
1229.015
1227.769
1226.451
1225.071
1223.665
1222.237
1220.786
1219.297
1217.822
1216.272
1214.191
1237.902
1237.067
1236.188
1235.265
1234.297
1233.284
1232.223
1231.113
1229.955
1228.749
1227.478
1226.145
1224.781
1223.393
1221.993
1238.528
1237.735
1236.899
1236.019
1235.095
1234.125
1233.108
1232.042
1230.928
1229.766
1228.542
1227.262
1225.95
1224.617
1223.278
1239.17
1238.42
1237.627
1236.792
1235.912
1234.988
1234.017
1232.997
1231.929
1230.812
1229.636
1228.405
1227.142
1225.857
1224.561
1239.811
1239.104
1238.356
1237.565
1236.73
1235.852
1234.927
1233.954
1232.933
1231.864
1230.734
1229.55
1228.332
1227.087
1225.827
1240.438
1239.775
1239.07
1238.323
1237.534
1236.702
1235.823
1234.897
1233.924
1232.903
1231.82
1230.68
1229.503
1228.296
1227.067
1221.476
1219.944
1218.367
1216.727
1214.962
1213.029
1222.997
1221.513
1219.988
1218.417
1216.773
1214.978
1212.903
1224.513
1223.08
1221.605
1220.089
1218.519
1216.858
1214.974
1212.57
1226.033
1224.655
1223.234
1221.771
1220.262
1218.688
1216.982
1214.934
1211.936
1227.568
1226.248
1224.884
1223.478
1222.028
1220.525
1218.932
1217.145
1214.827
1210.869
1229.106
1227.845
1226.539
1225.191
1223.801
1222.363
1220.858
1219.231
1217.321
1214.614
1209.551
1230.568
1229.365
1228.117
1226.826
1225.493
1224.117
1222.687
1221.175
1219.507
1217.459
1214.392
1208.423
1231.913
1230.765
1229.572
1228.336
1227.058
1225.737
1224.369
1222.943
1221.424
1219.717
1217.542
1214.24
1207.551
1233.131
1232.034
1230.894
1229.709
1228.482
1227.213
1225.899
1224.536
1223.112
1221.587
1219.816
1217.577
1214.163
1207.085
1234.225
1233.178
1232.086
1230.951
1229.772
1228.551
1227.284
1225.972
1224.612
1223.19
1221.612
1219.809
1217.59
1214.197
1207.067
1235.203
1234.202
1233.157
1232.068
1230.936
1229.76
1228.537
1227.271
1225.959
1224.599
1223.123
1221.514
1219.747
1217.594
1214.347
1207.911
1236.07
1235.114
1234.114
1233.07
1231.982
1230.849
1229.67
1228.445
1227.175
1225.86
1224.445
1222.936
1221.359
1219.647
1217.601
1214.763
1209.418
1236.836
1235.922
1234.965
1233.964
1232.919
1231.828
1230.691
1229.506
1228.276
1227
1225.633
1224.187
1222.706
1221.169
1219.526
1217.643
1215.36
1211.07
1237.508
1236.637
1235.721
1234.762
1233.758
1232.71
1231.613
1230.469
1229.278
1228.04
1226.719
1225.326
1223.904
1222.454
1220.965
1219.386
1217.75
1215.923
1212.768
1238.109
1237.278
1236.404
1235.486
1234.524
1233.516
1232.461
1231.358
1230.206
1229.008
1227.733
1226.39
1225.016
1223.618
1222.2
1220.726
1219.292
1217.864
1216.383
1214.431
1238.676
1237.886
1237.053
1236.177
1235.256
1234.291
1233.277
1232.216
1231.107
1229.949
1228.721
1227.425
1226.09
1224.723
1223.332
1239.26
1238.512
1237.722
1236.888
1236.011
1235.089
1234.12
1233.103
1232.037
1230.924
1229.744
1228.502
1227.222
1225.913
1224.588
1239.861
1239.155
1238.407
1237.617
1236.784
1235.907
1234.983
1234.012
1232.992
1231.925
1230.794
1229.602
1228.374
1227.118
1225.842
1240.46
1239.797
1239.093
1238.346
1237.557
1236.726
1235.847
1234.922
1233.95
1232.929
1231.846
1230.702
1229.521
1228.309
1227.074
1241.045
1240.425
1239.763
1239.061
1238.316
1237.529
1236.697
1235.818
1234.893
1233.92
1232.883
1231.785
1230.648
1229.477
1228.278
1222.956
1221.47
1219.945
1218.376
1216.744
1214.99
1213.065
1224.426
1222.989
1221.511
1219.993
1218.429
1216.795
1215.006
1212.94
1225.887
1224.502
1223.074
1221.606
1220.096
1218.535
1216.879
1215.002
1212.61
1227.349
1226.019
1224.646
1223.23
1221.773
1220.271
1218.702
1217
1214.961
1211.982
1228.823
1227.552
1226.235
1224.876
1223.474
1222.03
1220.53
1218.941
1217.159
1214.852
1211.134
1230.299
1229.086
1227.828
1226.526
1225.182
1223.796
1222.36
1220.856
1219.233
1217.329
1214.712
1210.118
1231.702
1230.546
1229.345
1228.101
1226.814
1225.484
1224.109
1222.679
1221.169
1219.503
1217.472
1214.559
1209
1232.991
1231.89
1230.744
1229.554
1228.321
1227.046
1225.726
1224.358
1222.932
1221.415
1219.682
1217.55
1214.403
1208.093
1234.157
1233.107
1232.014
1230.876
1229.694
1228.47
1227.2
1225.886
1224.523
1223.1
1221.529
1219.749
1217.582
1214.321
1207.57
1235.203
1234.202
1233.157
1232.068
1230.936
1229.76
1228.537
1227.271
1225.959
1224.599
1223.123
1221.514
1219.747
1217.594
1214.347
1207.911
1236.134
1235.18
1234.182
1233.14
1232.054
1230.924
1229.747
1228.524
1227.257
1225.946
1224.53
1223.015
1221.428
1219.695
1217.602
1214.646
1208.978
1236.959
1236.049
1235.095
1234.098
1233.056
1231.97
1230.837
1229.657
1228.432
1227.162
1225.795
1224.342
1222.848
1221.291
1219.608
1217.63
1215.146
1210.27
1237.683
1236.815
1235.904
1234.95
1233.951
1232.908
1231.817
1230.68
1229.495
1228.265
1226.942
1225.54
1224.107
1222.639
1221.121
1219.469
1217.706
1215.65
1211.702
1238.315
1237.489
1236.62
1235.707
1234.75
1233.749
1232.7
1231.603
1230.459
1229.268
1227.991
1226.639
1225.256
1223.846
1222.408
1220.889
1219.352
1217.804
1216.109
1213.186
1238.877
1238.091
1237.263
1236.391
1235.475
1234.516
1233.508
1232.453
1231.349
1230.199
1228.968
1227.665
1226.327
1224.96
1223.571
1222.106
1220.685
1219.291
1217.898
1216.479
1214.658
1239.405
1238.659
1237.872
1237.041
1236.167
1235.249
1234.284
1233.27
1232.209
1231.1
1229.917
1228.66
1227.359
1226.019
1224.643
1239.949
1239.245
1238.499
1237.711
1236.88
1236.005
1235.083
1234.114
1233.097
1232.032
1230.898
1229.696
1228.451
1227.172
1225.868
1240.509
1239.846
1239.143
1238.397
1237.61
1236.779
1235.902
1234.978
1234.007
1232.988
1231.903
1230.753
1229.562
1228.338
1227.089
1241.067
1240.446
1239.785
1239.083
1238.339
1237.552
1236.72
1235.842
1234.918
1233.945
1232.908
1231.807
1230.665
1229.489
1228.284
1241.611
1241.032
1240.413
1239.754
1239.054
1238.311
1237.524
1236.692
1235.814
1234.888
1233.898
1232.843
1231.746
1230.613
1229.448
1224.387
1222.948
1221.468
1219.95
1218.389
1216.767
1215.019
1213.102
1225.804
1224.416
1222.984
1221.512
1220.001
1218.446
1216.818
1215.035
1212.978
1227.21
1225.874
1224.494
1223.072
1221.61
1220.108
1218.551
1216.9
1215.03
1212.651
1228.614
1227.334
1226.009
1224.64
1223.23
1221.78
1220.281
1218.715
1217.019
1214.988
1212.207
1230.028
1228.806
1227.538
1226.226
1224.871
1223.475
1222.033
1220.535
1218.949
1217.173
1214.973
1211.686
1231.443
1230.279
1229.069
1227.814
1226.517
1225.177
1223.791
1222.357
1220.855
1219.235
1217.366
1214.903
1210.697
1232.787
1231.679
1230.527
1229.329
1228.088
1226.804
1225.475
1224.1
1222.671
1221.162
1219.486
1217.502
1214.727
1209.527
1234.021
1232.968
1231.87
1230.727
1229.54
1228.31
1227.035
1225.714
1224.347
1222.921
1221.366
1219.631
1217.564
1214.558
1208.556
1235.136
1234.134
1233.087
1231.996
1230.861
1229.682
1228.457
1227.187
1225.873
1224.51
1223.037
1221.439
1219.694
1217.59
1214.468
1208.387
1236.134
1235.18
1234.182
1233.14
1232.054
1230.924
1229.747
1228.524
1227.257
1225.946
1224.53
1223.015
1221.428
1219.695
1217.602
1214.646
1208.978
1237.021
1236.113
1235.161
1234.165
1233.126
1232.042
1230.911
1229.734
1228.512
1227.244
1225.877
1224.42
1222.921
1221.354
1219.651
1217.624
1215.039
1209.873
1237.803
1236.938
1236.03
1235.079
1234.084
1233.045
1231.958
1230.825
1229.645
1228.42
1227.098
1225.69
1224.25
1222.771
1221.233
1219.531
1217.681
1215.465
1210.994
1238.485
1237.663
1236.797
1235.889
1234.937
1233.941
1232.897
1231.806
1230.669
1229.484
1228.206
1226.847
1225.457
1224.036
1222.582
1221.018
1219.406
1217.761
1215.888
1212.257
1239.078
1238.297
1237.473
1236.606
1235.695
1234.741
1233.739
1232.69
1231.594
1230.45
1229.218
1227.909
1226.565
1225.192
1223.793
1222.304
1220.802
1219.329
1217.849
1216.266
1213.58
1239.601
1238.86
1238.076
1237.25
1236.381
1235.467
1234.507
1233.5
1232.444
1231.341
1230.157
1228.896
1227.597
1226.264
1224.905
1223.452
1222.042
1220.663
1219.293
1217.93
1216.569
1214.889
1240.09
1239.389
1238.646
1237.86
1237.032
1236.16
1235.242
1234.276
1233.263
1232.203
1231.066
1229.85
1228.586
1227.277
1225.924
1240.595
1239.934
1239.232
1238.489
1237.703
1236.874
1235.999
1235.077
1234.108
1233.091
1232.004
1230.843
1229.637
1228.391
1227.115
1241.114
1240.494
1239.834
1239.133
1238.39
1237.604
1236.773
1235.896
1234.973
1234.002
1232.963
1231.855
1230.705
1229.517
1228.298
1241.631
1241.053
1240.435
1239.776
1239.076
1238.334
1237.547
1236.715
1235.837
1234.913
1233.921
1232.863
1231.763
1230.625
1229.454
1242.135
1241.597
1241.021