/*--------------------------------*- C++ -*----------------------------------*\
| =========                 |                                                 |
| \\      /  F ield         | OpenFOAM: The Open Source CFD Toolbox           |
|  \\    /   O peration     | Version:  2306                                  |
|   \\  /    A nd           | Website:  www.openfoam.com                      |
|    \\/     M anipulation  |                                                 |
\*---------------------------------------------------------------------------*/
FoamFile
{
    version     2.0;
    format      ascii;
    arch        "LSB;label=32;scalar=64";
    class       volVectorField;
    location    "1.2/fuel";
    object      U;
}
// * * * * * * * * * * * * * * * * * * * * * * * * * * * * * * * * * * * * * //

dimensions      [0 1 -1 0 0 0 0];

internalField   nonuniform List<vector> 
16000
(
(9.852353e-05 7.41484e-05 -0.004870469)
(9.862321e-05 0.0002033038 -0.004944833)
(0.0001763141 7.472148e-05 -0.004034995)
(9.649746e-05 7.895896e-05 -0.01549175)
(9.918566e-05 0.0003598511 -0.005096629)
(0.000175659 0.0002093338 -0.004078566)
(9.647771e-05 0.0002148239 -0.01572638)
(0.0001366164 6.701104e-05 -0.00335879)
(0.0001724581 7.81636e-05 -0.01285079)
(8.936983e-05 8.585358e-05 -0.02303106)
(9.946432e-05 0.0004443891 -0.005330804)
(0.0001749117 0.0003671298 -0.004165711)
(9.679392e-05 0.0003796582 -0.01620511)
(0.0001350946 0.0001888065 -0.003388541)
(0.0001716183 0.0002171541 -0.01298854)
(8.908964e-05 0.0002341957 -0.02337771)
(0.0001029357 5.906456e-05 -0.002859124)
(0.0001336103 6.96797e-05 -0.01070954)
(0.0001594576 8.236464e-05 -0.0191228)
(8.084105e-05 9.150354e-05 -0.03793065)
(0.0001016922 0.0006476273 -0.005640484)
(0.0001726959 0.0004675718 -0.004295943)
(9.666965e-05 0.0004714781 -0.01694361)
(0.0001323989 0.0003293525 -0.00344751)
(0.0001704947 0.000380374 -0.01326394)
(8.886002e-05 0.000412682 -0.02408494)
(0.0001015104 0.0001668591 -0.002881089)
(0.0001319838 0.0001947 -0.01080374)
(0.0001582394 0.0002284529 -0.0193266)
(8.025445e-05 0.0002568046 -0.03849949)
(7.910728e-05 5.242482e-05 -0.002479626)
(0.0001006992 6.122887e-05 -0.009125281)
(0.0001234745 7.26292e-05 -0.01594985)
(0.0001443311 8.528391e-05 -0.03151309)
(6.700253e-05 0.0001143672 -0.03088268)
(0.0001003767 0.0005083222 -0.005993636)
(0.0001727785 0.0006536586 -0.004459769)
(9.835624e-05 0.0006818654 -0.01791999)
(0.0001274477 0.000421728 -0.003534478)
(0.0001676711 0.0004851254 -0.0136756)
(8.786025e-05 0.0005178931 -0.02517578)
(9.891253e-05 0.0002901664 -0.002924365)
(0.0001290803 0.0003392861 -0.0109904)
(0.0001563303 0.0003991722 -0.01973408)
(7.938289e-05 0.0004512277 -0.03965969)
(7.792219e-05 0.0001483422 -0.002496597)
(9.920533e-05 0.0001715418 -0.009194925)
(0.0001216633 0.00020241 -0.0160894)
(0.0001426727 0.0002416739 -0.03184773)
(6.572803e-05 0.0003192559 -0.03134475)
(6.278523e-05 4.694969e-05 -0.002181752)
(7.73828e-05 5.423478e-05 -0.00792083)
(9.311053e-05 6.345604e-05 -0.01360003)
(0.0001116713 7.441748e-05 -0.02630016)
(0.0001187967 0.0001008913 -0.02566183)
(0.0005723637 0.001045723 -0.06161758)
(0.0001044785 0.0001364787 -0.006253401)
(0.0001661695 0.0005324893 -0.004638438)
(9.63466e-05 0.0005387254 -0.01903517)
(0.0001229408 0.0005799743 -0.00364143)
(0.0001669587 0.0006754424 -0.01419354)
(8.832281e-05 0.0007383153 -0.02661774)
(9.435016e-05 0.0003723409 -0.002987651)
(0.0001238022 0.0004347364 -0.01126579)
(0.0001522644 0.0005105475 -0.0203432)
(7.735396e-05 0.0005720477 -0.04145027)
(7.574098e-05 0.000257383 -0.002529885)
(9.647288e-05 0.0002980397 -0.009332084)
(0.0001183854 0.0003519841 -0.01636591)
(0.0001398494 0.0004211761 -0.0325165)
(6.343166e-05 0.0005584252 -0.03228832)
(6.180274e-05 0.0001329979 -0.002195279)
(7.61494e-05 0.0001521951 -0.0079747)
(9.150686e-05 0.0001772305 -0.01370329)
(0.0001096449 0.0002114491 -0.02652945)
(0.0001160955 0.0002829016 -0.02593352)
(0.000559818 0.002965149 -0.06254222)
(5.106623e-05 4.238399e-05 -0.001941848)
(6.141683e-05 4.849703e-05 -0.006974647)
(7.153042e-05 5.599048e-05 -0.01181222)
(8.426819e-05 6.464419e-05 -0.022438)
(9.169424e-05 8.619991e-05 -0.02142097)
(0.001016064 0.0009152203 -0.05119766)
(0.0005874841 0.001078817 -0.04345602)
(0.0001070521 6.739174e-05 -0.006419588)
(0.0001697738 0.0002003539 -0.004759109)
(9.996257e-05 0.0001547669 -0.01985202)
(0.0001129322 0.0004756479 -0.003756123)
(0.0001593375 0.0005510275 -0.01475998)
(8.485391e-05 0.0005905459 -0.02826478)
(8.984533e-05 0.0005074645 -0.003064318)
(0.0001188944 0.0005960603 -0.01160457)
(0.0001498492 0.0007051003 -0.02110961)
(7.63792e-05 0.0008041622 -0.04381871)
(7.197115e-05 0.0003306109 -0.00257827)
(9.170037e-05 0.0003825799 -0.009532755)
(0.0001125363 0.0004516241 -0.01677391)
(0.000134338 0.0005402977 -0.03351688)
(5.908284e-05 0.0007195921 -0.03374441)
(5.998466e-05 0.0002303445 -0.002221717)
(7.387397e-05 0.000263852 -0.008080317)
(8.855394e-05 0.0003073471 -0.01390666)
(0.0001059303 0.0003668789 -0.02698351)
(0.0001111365 0.0004907793 -0.02647734)
(0.0005366867 0.005183033 -0.06442684)
(5.02425e-05 0.0001201614 -0.001952891)
(6.039853e-05 0.0001362477 -0.007017627)
(7.022428e-05 0.0001565881 -0.01189215)
(8.25363e-05 0.0001839101 -0.02260777)
(8.909569e-05 0.0002420192 -0.02160707)
(0.0009902202 0.002602262 -0.05174154)
(0.0005739007 0.00314017 -0.04411209)
(4.244726e-05 3.853206e-05 -0.001744497)
(4.995448e-05 4.372935e-05 -0.006212033)
(5.6767e-05 4.992276e-05 -0.01040688)
(6.470775e-05 5.681285e-05 -0.01949845)
(6.933032e-05 7.40222e-05 -0.01827896)
(0.00078379 0.0007794448 -0.04273754)
(0.001047486 0.0009427819 -0.0360938)
(0.0005737528 0.001116041 -0.04823883)
(0.0001091309 9.27507e-06 -0.006513631)
(0.0001718474 0.0001116217 -0.00483246)
(0.0001022132 7.824878e-05 -0.02037383)
(0.000111498 0.000191858 -0.003829245)
(0.0001622662 0.0002105478 -0.0151407)
(8.732164e-05 0.0001902593 -0.02946941)
(8.119359e-05 0.0004171128 -0.003145796)
(0.0001083785 0.0004890898 -0.01196916)
(0.0001402342 0.000576876 -0.02194815)
(7.119749e-05 0.0006509593 -0.04653179)
(6.814721e-05 0.0004477615 -0.002636225)
(8.69448e-05 0.0005201163 -0.009775956)
(0.000106887 0.0006154351 -0.0172759)
(0.0001299423 0.000739807 -0.03477618)
(5.495683e-05 0.000989595 -0.03567223)
(5.687248e-05 0.0002960323 -0.002259967)
(6.995759e-05 0.0003389843 -0.00823391)
(8.345016e-05 0.0003948217 -0.01420425)
(9.941536e-05 0.0004714302 -0.02765397)
(0.0001021907 0.0006329556 -0.0272905)
(0.0004935871 0.006696054 -0.06734329)
(4.871287e-05 0.0002078042 -0.00197441)
(5.851094e-05 0.0002357965 -0.007101589)
(6.780379e-05 0.000271005 -0.01204887)
(7.932584e-05 0.0003182829 -0.02294191)
(8.423962e-05 0.0004182078 -0.02197629)
(0.0009420705 0.004511125 -0.05282711)
(0.0005487404 0.005488497 -0.04544915)
(4.1748e-05 0.0001093082 -0.001753683)
(4.910324e-05 0.0001229551 -0.006247152)
(5.569748e-05 0.0001397479 -0.0104707)
(6.331657e-05 0.0001617535 -0.01962995)
(6.723083e-05 0.0002079289 -0.01841672)
(0.0007596687 0.00221781 -0.04311025)
(0.001019822 0.002747576 -0.03647989)
(0.0005595286 0.003195926 -0.04896939)
(3.587572e-05 3.523837e-05 -0.001579387)
(4.152758e-05 3.971746e-05 -0.005584262)
(4.617122e-05 4.491385e-05 -0.009273578)
(5.134398e-05 5.050495e-05 -0.01718696)
(5.316245e-05 6.453863e-05 -0.01588738)
(0.0005929303 0.0006680645 -0.03647132)
(0.0008078755 0.0008024016 -0.03012046)
(0.001019168 0.000970157 -0.04005971)
(0.0005599229 0.001123391 -0.04897648)
(0.0001100809 2.951671e-06 -0.006555642)
(0.0001740488 3.819579e-05 -0.004872392)
(0.0001041128 1.457465e-05 -0.02066893)
(0.0001102683 0.0001090682 -0.003871791)
(0.0001638947 0.0001174805 -0.01537193)
(8.881563e-05 9.964315e-05 -0.03023821)
(7.916576e-05 0.0001733511 -0.003195545)
(0.0001066488 0.0001988893 -0.01220031)
(0.0001416279 0.0002271474 -0.02251119)
(7.232049e-05 0.0002315948 -0.04850761)
(6.117563e-05 0.0003683539 -0.00269751)
(7.797389e-05 0.0004275742 -0.01003546)
(9.554454e-05 0.0005055079 -0.01781641)
(0.0001180082 0.0006071193 -0.03615906)
(4.579921e-05 0.0008165717 -0.0378766)
(5.366955e-05 0.0003989973 -0.002305364)
(6.596157e-05 0.0004581125 -0.00841797)
(7.827428e-05 0.0005340182 -0.01456498)
(9.290158e-05 0.00063816 -0.02847926)
(9.324592e-05 0.0008537945 -0.028315)
(0.0004509277 0.009174642 -0.07120416)
(4.611274e-05 0.0002671299 -0.002005426)
(5.529089e-05 0.0003030652 -0.007223128)
(6.367157e-05 0.0003483145 -0.01227682)
(7.383498e-05 0.0004092038 -0.02343121)
(7.593906e-05 0.0005388704 -0.02252119)
(0.0008559683 0.005823278 -0.05445628)
(0.0005020852 0.007096383 -0.04754544)
(4.044632e-05 0.0001887993 -0.001771537)
(4.752039e-05 0.0002124886 -0.00631555)
(5.370827e-05 0.0002414743 -0.01059537)
(6.072643e-05 0.0002794218 -0.01988758)
(6.329485e-05 0.0003584932 -0.01868845)
(0.0007142202 0.003829797 -0.04384714)
(0.0009681422 0.004762494 -0.03725064)
(0.0005330306 0.00558503 -0.05045791)
(3.527508e-05 0.0001000126 -0.001587147)
(4.080657e-05 0.0001117458 -0.005613497)
(4.528241e-05 0.0001258117 -0.00932575)
(5.021452e-05 0.0001438685 -0.01729201)
(5.151506e-05 0.0001813369 -0.01599408)
(0.0005736043 0.001901409 -0.03674738)
(0.0007822987 0.002338875 -0.03038516)
(0.0009905105 0.002782731 -0.04048978)
(0.0005450457 0.003254183 -0.04972439)
(3.077459e-05 3.239418e-05 -0.001439269)
(3.510318e-05 3.629412e-05 -0.005058714)
(3.83894e-05 4.071935e-05 -0.008340192)
(4.175724e-05 4.533138e-05 -0.01532223)
(4.215955e-05 5.702698e-05 -0.01400663)
(0.0004544978 0.0005816892 -0.0317025)
(0.0006112653 0.0006873733 -0.02569798)
(0.0007857768 0.0008239557 -0.03342605)
(0.0009962154 0.0009731652 -0.04066121)
(0.0005871491 0.001256834 -0.04140472)
(0.0001100809 -2.951671e-06 -0.006555642)
(0.0001750567 1.197843e-05 -0.004889814)
(0.000104982 4.578268e-06 -0.02080069)
(0.0001102841 4.082866e-05 -0.003893943)
(0.0001658531 4.09221e-05 -0.01549786)
(9.027956e-05 2.562568e-05 -0.03067273)
(7.759419e-05 9.924166e-05 -0.003223551)
(0.0001052281 0.000113022 -0.0123347)
(0.0001422557 0.000127112 -0.02285307)
(7.292955e-05 0.0001245436 -0.04976708)
(5.93064e-05 0.0001557545 -0.002733593)
(7.577438e-05 0.0001786483 -0.01019292)
(9.321949e-05 0.0002089483 -0.01815885)
(0.0001176187 0.00024656 -0.03708216)
(4.407526e-05 0.0003335246 -0.03948695)
(4.800626e-05 0.000328337 -0.002353244)
(5.876982e-05 0.0003768522 -0.008613473)
(6.884397e-05 0.0004391277 -0.01495009)
(8.059492e-05 0.0005247657 -0.0293717)
(7.561658e-05 0.0007044541 -0.02943603)
(0.0003618678 0.007593715 -0.0756923)
(4.341184e-05 0.0003586544 -0.002041955)
(5.196273e-05 0.0004076997 -0.007367453)
(5.940598e-05 0.0004686348 -0.01255005)
(6.816815e-05 0.0005503529 -0.02402458)
(6.72051e-05 0.0007207331 -0.02319248)
(0.0007678486 0.007833116 -0.05650737)
(0.0004553411 0.00971738 -0.05030054)
(3.824584e-05 0.0002427239 -0.001797192)
(4.483779e-05 0.0002731569 -0.006414192)
(5.033809e-05 0.0003104219 -0.01077587)
(5.634165e-05 0.0003592924 -0.02026259)
(5.667846e-05 0.000461625 -0.0190861)
(0.0006368391 0.004937191 -0.04493937)
(0.0008759469 0.006149642 -0.03842967)
(0.0004841909 0.007230688 -0.05280147)
(3.415493e-05 0.0001725602 -0.001602196)
(3.946294e-05 0.0001928854 -0.005670294)
(4.362532e-05 0.0002171084 -0.009427375)
(4.810633e-05 0.0002481641 -0.01749705)
(4.842252e-05 0.0003121491 -0.01620361)
(0.0005371246 0.00327619 -0.03728968)
(0.0007340531 0.004038463 -0.0309087)
(0.0009367841 0.004822406 -0.04134807)
(0.0005171843 0.005686391 -0.0512447)
(3.025346e-05 9.197571e-05 -0.001445908)
(3.448495e-05 0.0001021653 -0.005083429)
(3.763994e-05 0.0001141217 -0.008383649)
(4.082442e-05 0.0001291786 -0.01540817)
(4.084184e-05 0.000160258 -0.01409186)
(0.0004393892 0.001655808 -0.03191642)
(0.0005908282 0.002003869 -0.02589412)
(0.000759681 0.002364215 -0.03372101)
(0.0009666 0.002821372 -0.04110231)
(0.0005702152 0.00360699 -0.04203171)
(2.671696e-05 2.99132e-05 -0.001318933)
(3.011757e-05 3.334286e-05 -0.004612449)
(3.245879e-05 3.715409e-05 -0.007558434)
(3.472683e-05 4.102003e-05 -0.01378591)
(3.427726e-05 5.094116e-05 -0.01248925)
(0.0003603804 0.0005134543 -0.02795258)
(0.0004684992 0.0005982561 -0.02233347)
(0.0005947382 0.0007050781 -0.02851583)
(0.0007678532 0.000825333 -0.03392083)
(0.00104162 0.001082491 -0.03436612)
(0.004870956 0.01170222 -0.1086281)
(0.0001091309 -9.27507e-06 -0.006513631)
(0.0001750567 -1.197843e-05 -0.004889814)
(0.000104982 -4.578268e-06 -0.02080069)
(0.0001102972 1.283804e-05 -0.003903278)
(0.0001667519 1.280836e-05 -0.01555281)
(9.095247e-05 7.96561e-06 -0.03086666)
(7.720796e-05 3.839478e-05 -0.003237603)
(0.0001051447 4.260088e-05 -0.01240475)
(0.000143641 4.576916e-05 -0.02303929)
(7.388454e-05 3.847737e-05 -0.05047864)
(5.789107e-05 8.944806e-05 -0.002753359)
(7.409373e-05 0.0001021807 -0.01028148)
(9.142223e-05 0.0001186481 -0.01835796)
(0.0001170847 0.000138375 -0.03764208)
(4.280672e-05 0.0001851285 -0.0405128)
(4.638071e-05 0.0001404435 -0.002380524)
(5.678799e-05 0.0001599546 -0.008727774)
(6.632901e-05 0.0001854739 -0.01518363)
(7.757614e-05 0.0002207466 -0.02993311)
(7.131564e-05 0.0003014106 -0.03018851)
(0.0003412189 0.003165643 -0.07889383)
(3.873806e-05 0.0002951487 -0.002080439)
(4.613834e-05 0.0003354445 -0.007520405)
(5.192328e-05 0.000385465 -0.01284041)
(5.820086e-05 0.0004527062 -0.02466111)
(5.215355e-05 0.0005938661 -0.02391494)
(0.0006001459 0.006469346 -0.05880749)
(0.0003594299 0.008049441 -0.05380186)
(3.594536e-05 0.0003248526 -0.001827204)
(4.204197e-05 0.0003661212 -0.006530429)
(4.682464e-05 0.0004159554 -0.01099026)
(5.176075e-05 0.0004810175 -0.02071226)
(4.964987e-05 0.0006144452 -0.01956872)
(0.0005547928 0.006587931 -0.04628357)
(0.0007809675 0.008269193 -0.03990148)
(0.0004344461 0.009892559 -0.05587825)
(3.226987e-05 0.0002218506 -0.001623764)
(3.719749e-05 0.0002479703 -0.005751951)
(4.083365e-05 0.0002791094 -0.009573959)
(4.456028e-05 0.0003190896 -0.01779417)
(4.32621e-05 0.0004017295 -0.01650838)
(0.0004759772 0.004219895 -0.03808721)
(0.0006519943 0.005207112 -0.03170322)
(0.0008412916 0.006230172 -0.04266891)
(0.0004661039 0.0073705 -0.05366936)
(2.928027e-05 0.0001585478 -0.00145876)
(3.333096e-05 0.0001761681 -0.005131337)
(3.624028e-05 0.000196718 -0.008468082)
(3.908033e-05 0.0002225584 -0.01557538)
(3.836628e-05 0.0002755238 -0.01425866)
(0.0004108477 0.002848589 -0.03233463)
(0.0005522199 0.003452438 -0.02627964)
(0.0007103923 0.004081451 -0.03430419)
(0.000910892 0.00488876 -0.04197991)
(0.0005381043 0.006302667 -0.04331768)
(2.62607e-05 8.495813e-05 -0.001324675)
(2.958196e-05 9.389561e-05 -0.004633611)
(3.181847e-05 0.0001041722 -0.00759519)
(3.394402e-05 0.0001169249 -0.01385753)
(3.320091e-05 0.0001431716 -0.01255896)
(0.0003483247 0.0014617 -0.02812356)
(0.0004525408 0.001744224 -0.02248554)
(0.0005739774 0.002023383 -0.02873446)
(0.0007412314 0.00239296 -0.0342238)
(0.001008289 0.003109044 -0.03473418)
(0.004711099 0.03375633 -0.1104632)
(2.344665e-05 2.77321e-05 -0.001214516)
(2.615211e-05 3.077205e-05 -0.004228969)
(2.78596e-05 3.409004e-05 -0.006894322)
(2.937161e-05 3.736981e-05 -0.01249872)
(2.852182e-05 4.59166e-05 -0.01123895)
(0.0002929791 0.000458281 -0.02492723)
(0.0003714669 0.0005279091 -0.01968857)
(0.0004557427 0.0006132156 -0.02478092)
(0.0005813572 0.0007056375 -0.02893333)
(0.0008025108 0.0009158921 -0.02866359)
(0.00862813 0.009976495 -0.09011761)
(0.005013221 0.01163612 -0.01111669)
(0.0001070521 -6.739175e-05 -0.006419588)
(0.0001740488 -3.819579e-05 -0.004872392)
(0.0001041128 -1.457465e-05 -0.02066893)
(0.0001102972 -1.283804e-05 -0.003903278)
(0.0001667519 -1.280836e-05 -0.01555281)
(9.095247e-05 -7.96561e-06 -0.03086666)
(7.703096e-05 1.207768e-05 -0.00324334)
(0.0001051136 1.337221e-05 -0.01243427)
(0.0001442821 1.427503e-05 -0.02312056)
(7.432835e-05 1.190419e-05 -0.05079618)
(5.746176e-05 3.520811e-05 -0.002762959)
(7.365362e-05 3.96782e-05 -0.01032597)
(9.112626e-05 4.533916e-05 -0.01846178)
(0.0001178054 5.143406e-05 -0.0379471)
(4.271372e-05 6.841581e-05 -0.04109225)
(4.516587e-05 8.078721e-05 -0.002395108)
(5.530184e-05 9.175724e-05 -0.008790318)
(6.445542e-05 0.0001058874 -0.01531501)
(7.534006e-05 0.0001252494 -0.03025915)
(6.822276e-05 0.0001699375 -0.03064473)
(0.0003264462 0.00176425 -0.08093086)
(3.733765e-05 0.0001272913 -0.002101706)
(4.443348e-05 0.0001438889 -0.007606878)
(4.974842e-05 0.0001648857 -0.01301009)
(5.531747e-05 0.0001934985 -0.02504398)
(4.746931e-05 0.0002576962 -0.02437283)
(0.0005546389 0.002793756 -0.06029259)
(0.0003359515 0.003371583 -0.055975)
(3.202897e-05 0.0002673084 -0.001858821)
(3.724536e-05 0.0003012228 -0.00665352)
(4.080195e-05 0.0003421162 -0.01121757)
(4.393746e-05 0.0003956047 -0.02119263)
(3.799323e-05 0.0005056977 -0.02008346)
(0.0004154173 0.005430585 -0.04777536)
(0.000601854 0.006830684 -0.04179025)
(0.0003346486 0.00820517 -0.0599115)
(3.028983e-05 0.0002961279 -0.001648843)
(3.482277e-05 0.0003313609 -0.00584753)
(3.790449e-05 0.0003727769 -0.009746731)
(4.082984e-05 0.0004256844 -0.01814718)
(3.775822e-05 0.0005329062 -0.01687412)
(0.0004107143 0.00560514 -0.03905398)
(0.0005647943 0.00694651 -0.03267188)
(0.0007418946 0.008373187 -0.04431608)
(0.0004133367 0.01007935 -0.05683583)
(2.764867e-05 0.0002038295 -0.001477136)
(3.139351e-05 0.0002264753 -0.005200037)
(3.389287e-05 0.0002528849 -0.008589493)
(3.616075e-05 0.0002861318 -0.01581679)
(3.425472e-05 0.0003544256 -0.01450011)
(0.0003633389 0.003666685 -0.03294626)
(0.0004875511 0.004447422 -0.02686226)
(0.0006266978 0.005264111 -0.03519572)
(0.0008121758 0.006318876 -0.04335555)
(0.0004796244 0.00818272 -0.04535646)
(2.540772e-05 0.0001463336 -0.001335774)
(2.858094e-05 0.0001617655 -0.004674552)
(3.06211e-05 0.0001793985 -0.007666446)
(3.247864e-05 0.0002012445 -0.01399653)
(3.117774e-05 0.0002459013 -0.01269501)
(0.0003255396 0.002511636 -0.0284565)
(0.0004223738 0.003000474 -0.02278303)
(0.0005347254 0.00348547 -0.02916402)
(0.0006908783 0.004130645 -0.03482064)
(0.0009450283 0.005386671 -0.03547559)
(0.004387415 0.05894414 -0.1140211)
(2.304408e-05 7.87839e-05 -0.001219531)
(2.568374e-05 8.668474e-05 -0.004247287)
(2.730647e-05 9.561287e-05 -0.006925808)
(2.870537e-05 0.0001065426 -0.01255932)
(2.762632e-05 0.0001290605 -0.01129705)
(0.0002831496 0.001304701 -0.02506717)
(0.0003587431 0.001539206 -0.01981017)
(0.0004395629 0.001759873 -0.02495047)
(0.0005602583 0.002046023 -0.02915818)
(0.000773044 0.002630771 -0.02891553)
(0.008318187 0.02877115 -0.09123774)
(0.004855082 0.03392489 -0.01159161)
(2.076506e-05 2.579991e-05 -0.001123103)
(2.295664e-05 2.851461e-05 -0.003896043)
(2.420235e-05 3.142797e-05 -0.006323412)
(2.522281e-05 3.42427e-05 -0.01140485)
(2.414442e-05 4.169495e-05 -0.01019127)
(0.0002438185 0.0004127991 -0.02243439)
(0.0003019857 0.0004710623 -0.01755523)
(0.0003613262 0.0005408071 -0.02184522)
(0.00044541 0.000613315 -0.02514067)
(0.0006078947 0.0007820747 -0.02444546)
(0.006641578 0.008405299 -0.0751339)
(0.008906652 0.009947211 -0.009178621)
(0.004842555 0.01196175 -0.03200793)
(0.0001044785 -0.0001364787 -0.006253401)
(0.0001718474 -0.0001116217 -0.00483246)
(0.0001022132 -7.824878e-05 -0.02037383)
(0.0001102841 -4.082866e-05 -0.003893943)
(0.0001658531 -4.09221e-05 -0.01549786)
(9.027956e-05 -2.562568e-05 -0.03067273)
(7.703096e-05 -1.207768e-05 -0.00324334)
(0.0001051136 -1.337221e-05 -0.01243427)
(0.0001442821 -1.427503e-05 -0.02312056)
(7.432835e-05 -1.190419e-05 -0.05079618)
(5.726349e-05 1.107214e-05 -0.002766764)
(7.345292e-05 1.246196e-05 -0.01034414)
(9.099985e-05 1.418397e-05 -0.01850557)
(0.0001181479 1.598946e-05 -0.03808026)
(4.268668e-05 2.108576e-05 -0.04135083)
(4.476559e-05 3.214327e-05 -0.002401976)
(5.483877e-05 3.619668e-05 -0.008820735)
(6.390959e-05 4.143036e-05 -0.01538105)
(7.479648e-05 4.855066e-05 -0.03042918)
(6.753302e-05 6.63778e-05 -0.03089329)
(0.0003236936 0.0006656991 -0.08208178)
(3.630061e-05 7.328712e-05 -0.002112817)
(4.316906e-05 8.266884e-05 -0.007653038)
(4.814718e-05 9.436737e-05 -0.01310295)
(5.321843e-05 0.0001102484 -0.02525905)
(4.416403e-05 0.0001459954 -0.02463868)
(0.0005223832 0.001576241 -0.06119044)
(0.0003192617 0.001881129 -0.05735154)
(3.082012e-05 0.0001160054 -0.001875789)
(3.578637e-05 0.000130189 -0.006720967)
(3.896914e-05 0.0001476 -0.01134603)
(4.153677e-05 0.0001706953 -0.02147081)
(3.416037e-05 0.0002208446 -0.02039593)
(0.0003705364 0.002370725 -0.04867436)
(0.0005518972 0.002954192 -0.0427641)
(0.00030845 0.00346242 -0.06229143)
(2.696259e-05 0.0002436346 -0.001675282)
(3.080977e-05 0.000272586 -0.005948771)
(3.296602e-05 0.0003065416 -0.009929761)
(3.457474e-05 0.0003499828 -0.01852359)
(2.878582e-05 0.0004381495 -0.01726223)
(0.0003035571 0.004613883 -0.04012275)
(0.0004171724 0.005726158 -0.033942)
(0.0005570862 0.006918394 -0.04652678)
(0.0003094578 0.008368849 -0.0613186)
(2.592871e-05 0.0002714578 -0.001498389)
(2.935395e-05 0.0003018726 -0.005279969)
(3.141877e-05 0.000336841 -0.008731637)
(3.307529e-05 0.0003806304 -0.01610142)
(2.985938e-05 0.0004689255 -0.01478725)
(0.0003124906 0.004854723 -0.03367926)
(0.0004184357 0.005906443 -0.02756145)
(0.000537438 0.007020346 -0.03628163)
(0.0007085374 0.008491179 -0.04506049)
(0.0004181441 0.01118815 -0.04803147)
(2.398226e-05 0.0001881159 -0.001351611)
(2.690627e-05 0.0002079484 -0.004733127)
(2.862044e-05 0.0002306002 -0.007768642)
(3.003505e-05 0.0002586897 -0.01419658)
(2.782932e-05 0.0003161871 -0.0128912)
(0.0002877807 0.003231178 -0.02894141)
(0.0003721895 0.003862494 -0.02323162)
(0.0004690551 0.004490858 -0.02981867)
(0.0006054918 0.005329097 -0.03575373)
(0.0008333616 0.006967345 -0.0366279)
(0.003806566 0.0767568 -0.1205047)
(2.229079e-05 0.0001356034 -0.001229207)
(2.480752e-05 0.0001492274 -0.004282664)
(2.627115e-05 0.0001645245 -0.006986731)
(2.745708e-05 0.0001832182 -0.01267668)
(2.59425e-05 0.0002214801 -0.01141015)
(0.000264566 0.002239688 -0.02533878)
(0.0003346808 0.002644646 -0.02004717)
(0.0004089585 0.003026939 -0.02528205)
(0.0005203275 0.003524161 -0.02959816)
(0.00071698 0.004540795 -0.02941934)
(0.007698663 0.04981 -0.09333054)
(0.004534482 0.05970978 -0.01255555)
(2.040735e-05 7.331062e-05 -0.001127517)
(2.254379e-05 8.034772e-05 -0.003912047)
(2.371984e-05 8.817036e-05 -0.006350678)
(2.464912e-05 9.764312e-05 -0.01145679)
(2.338763e-05 0.0001172013 -0.01024044)
(0.0002356526 0.001175258 -0.02255109)
(0.0002916175 0.001373497 -0.0176548)
(0.0003484421 0.001552117 -0.02198085)
(0.0004289945 0.001778374 -0.02531526)
(0.0005846579 0.002246386 -0.02463191)
(0.006375012 0.02423427 -0.07592243)
(0.00859865 0.02899185 -0.009524978)
(0.00467624 0.034635 -0.03293404)
(1.854278e-05 2.407755e-05 -0.001042447)
(2.033655e-05 2.651678e-05 -0.003604423)
(2.125663e-05 2.909552e-05 -0.00582757)
(2.19249e-05 3.15331e-05 -0.01046417)
(2.076338e-05 3.810078e-05 -0.009300836)
(0.0002064429 0.0003746335 -0.02034546)
(0.000251327 0.0004242241 -0.01579774)
(0.0002937308 0.0004823567 -0.01947756)
(0.0003531124 0.0005406321 -0.02216021)
(0.0004656234 0.0006791563 -0.02123869)
(0.005036821 0.007159889 -0.06405814)
(0.006858023 0.008390102 -0.00762854)
(0.008581954 0.0101777 -0.02650364)
(0.004798318 0.01203761 -0.01180836)
(0.0001003767 -0.0005083222 -0.005993636)
(0.0001697738 -0.0002003539 -0.004759109)
(9.996257e-05 -0.0001547669 -0.01985202)
(0.0001102683 -0.0001090682 -0.003871791)
(0.0001638947 -0.0001174805 -0.01537193)
(8.881563e-05 -9.964315e-05 -0.03023821)
(7.720796e-05 -3.839478e-05 -0.003237603)
(0.0001051447 -4.260088e-05 -0.01240475)
(0.000143641 -4.576916e-05 -0.02303929)
(7.388454e-05 -3.847737e-05 -0.05047864)
(5.726349e-05 -1.107214e-05 -0.002766764)
(7.345292e-05 -1.246196e-05 -0.01034414)
(9.099985e-05 -1.418397e-05 -0.01850557)
(0.0001181479 -1.598945e-05 -0.03808026)
(4.268668e-05 -2.108576e-05 -0.04135083)
(4.458055e-05 1.010372e-05 -0.002404618)
(5.462582e-05 1.136679e-05 -0.008832796)
(6.366251e-05 1.297154e-05 -0.01540805)
(7.455916e-05 1.513646e-05 -0.03050092)
(6.724267e-05 2.053509e-05 -0.03100183)
(0.0003225901 0.0002050766 -0.0825955)
(3.594307e-05 2.937334e-05 -0.002117893)
(4.274577e-05 3.293602e-05 -0.007674806)
(4.762262e-05 3.739772e-05 -0.01314815)
(5.254913e-05 4.349119e-05 -0.02536718)
(4.305396e-05 5.800742e-05 -0.02477738)
(0.0005136753 0.0006204947 -0.06167947)
(0.0003156903 0.0007139078 -0.05813066)
(2.993115e-05 6.682445e-05 -0.001884461)
(3.471283e-05 7.486153e-05 -0.006756143)
(3.762995e-05 8.458678e-05 -0.01141462)
(3.980077e-05 9.744593e-05 -0.0216228)
(3.146369e-05 0.0001253564 -0.02057145)
(0.0003390648 0.00134275 -0.04919384)
(0.0005166144 0.001666964 -0.04334416)
(0.0002899666 0.001935172 -0.06379288)
(2.591258e-05 0.0001062468 -0.001689077)
(2.955604e-05 0.0001184894 -0.006002611)
(3.141768e-05 0.0001330681 -0.01003002)
(3.259203e-05 0.0001519811 -0.01873419)
(2.577092e-05 0.0001920586 -0.01748941)
(0.0002675772 0.002023966 -0.04073362)
(0.0003692383 0.002501051 -0.034514)
(0.000503343 0.002998825 -0.04757818)
(0.0002806149 0.003551122 -0.06364167)
(2.306905e-05 0.0002232975 -0.001520822)
(2.594883e-05 0.0002482811 -0.005364719)
(2.730046e-05 0.0002769216 -0.008882249)
(2.797036e-05 0.0003128223 -0.01640478)
(2.277271e-05 0.0003852168 -0.01509111)
(0.0002302797 0.003991578 -0.03448927)
(0.0003052 0.004861497 -0.02849805)
(0.0003871481 0.005786874 -0.03778428)
(0.0005179998 0.007016923 -0.04761014)
(0.0002999428 0.009301655 -0.05174618)
(2.247537e-05 0.0002500425 -0.001369836)
(2.513763e-05 0.000276581 -0.004800913)
(2.650475e-05 0.0003064628 -0.007887576)
(2.744433e-05 0.0003433152 -0.01443085)
(2.424435e-05 0.000417453 -0.01312272)
(0.000247303 0.004267557 -0.02951719)
(0.0003184238 0.005113466 -0.02376356)
(0.0003987124 0.005962968 -0.03060366)
(0.0005141444 0.007107179 -0.03688261)
(0.0007148019 0.009364534 -0.0380649)
(0.003174833 0.1043877 -0.1285445)
(2.103542e-05 0.0001743091 -0.00124299)
(2.334608e-05 0.000191816 -0.004333179)
(2.454667e-05 0.0002114581 -0.007073908)
(2.538217e-05 0.0002354781 -0.01284515)
(2.316359e-05 0.00028468 -0.01157274)
(0.0002338721 0.002879953 -0.02573306)
(0.0002948266 0.003402477 -0.02040418)
(0.0003580966 0.003897095 -0.02578676)
(0.0004535842 0.00454162 -0.03028609)
(0.0006220762 0.005860907 -0.03019889)
(0.006615114 0.06450483 -0.09726017)
(0.003949108 0.07791371 -0.01730813)
(1.973751e-05 0.0001261039 -0.001136023)
(2.177084e-05 0.0001382245 -0.003942909)
(2.281603e-05 0.0001516104 -0.006403344)
(2.357351e-05 0.0001677902 -0.01155717)
(2.196425e-05 0.0002009866 -0.01033594)
(0.0002202107 0.002015853 -0.02277693)
(0.0002720048 0.002357656 -0.01784827)
(0.0003240648 0.002666472 -0.02224509)
(0.0003979189 0.003058537 -0.02565515)
(0.0005404518 0.003869057 -0.02500308)
(0.005845501 0.04179976 -0.07736529)
(0.007982109 0.05057459 -0.01023248)
(0.004339277 0.06177313 -0.03472624)
(1.822295e-05 6.842893e-05 -0.001046361)
(1.997003e-05 7.473563e-05 -0.00361852)
(2.083221e-05 8.164512e-05 -0.005851402)
(2.14258e-05 8.992842e-05 -0.01050917)
(2.011553e-05 0.0001071031 -0.009342971)
(0.0001995502 0.001066622 -0.02044428)
(0.0002427175 0.001236944 -0.01588081)
(0.000283242 0.001384382 -0.01958867)
(0.000340055 0.001567632 -0.02230004)
(0.0004475852 0.001950719 -0.0213831)
(0.004828439 0.02063995 -0.06465513)
(0.006591081 0.02444684 -0.007900183)
(0.00826137 0.02945901 -0.02714463)
(0.004628957 0.03496957 -0.01238264)
(1.667761e-05 2.253281e-05 -0.0009707926)
(1.816548e-05 2.473743e-05 -0.003346993)
(1.884176e-05 2.703521e-05 -0.005393086)
(1.927043e-05 2.916438e-05 -0.009646905)
(1.807872e-05 3.500304e-05 -0.008535001)
(0.0001775967 0.0003421747 -0.01856997)
(0.0002128171 0.0003849355 -0.01432526)
(0.0002444787 0.000434236 -0.01752719)
(0.000287045 0.0004820139 -0.01975686)
(0.0003691059 0.0005982691 -0.01871915)
(0.003855924 0.006207057 -0.05564238)
(0.005199643 0.007151095 -0.006487878)
(0.006606296 0.008568087 -0.02207277)
(0.00850869 0.01023112 -0.009759576)
(0.00469992 0.01202071 -0.006046938)
(0.0001016922 -0.0006476273 -0.005640484)
(0.0001661695 -0.0005324893 -0.004638438)
(9.63466e-05 -0.0005387254 -0.01903517)
(0.000111498 -0.000191858 -0.003829245)
(0.0001622662 -0.0002105478 -0.0151407)
(8.732164e-05 -0.0001902593 -0.02946941)
(7.759419e-05 -9.924166e-05 -0.003223551)
(0.0001052281 -0.000113022 -0.0123347)
(0.0001422557 -0.000127112 -0.02285307)
(7.292955e-05 -0.0001245436 -0.04976708)
(5.746176e-05 -3.520811e-05 -0.002762959)
(7.365362e-05 -3.96782e-05 -0.01032597)
(9.112626e-05 -4.533916e-05 -0.01846178)
(0.0001178054 -5.143406e-05 -0.0379471)
(4.271372e-05 -6.841581e-05 -0.04109225)
(4.458055e-05 -1.010372e-05 -0.002404618)
(5.462582e-05 -1.136679e-05 -0.008832796)
(6.366251e-05 -1.297154e-05 -0.01540805)
(7.455916e-05 -1.513646e-05 -0.03050092)
(6.724267e-05 -2.053509e-05 -0.03100183)
(0.0003225901 -0.0002050766 -0.0825955)
(3.577789e-05 9.22867e-06 -0.002119785)
(4.255081e-05 1.033923e-05 -0.007683182)
(4.73832e-05 1.170967e-05 -0.01316609)
(5.224788e-05 1.357135e-05 -0.0254114)
(4.25631e-05 1.797962e-05 -0.02483593)
(0.0005099398 0.0001918139 -0.06189297)
(0.0003142248 0.0002199033 -0.05847835)
(2.961579e-05 2.692669e-05 -0.001888299)
(3.433871e-05 3.002786e-05 -0.00677223)
(3.716754e-05 3.379551e-05 -0.01144699)
(3.920424e-05 3.881411e-05 -0.02169677)
(3.049172e-05 5.018704e-05 -0.02065974)
(0.0003281195 0.0005357829 -0.04946443)
(0.0005066558 0.0006575701 -0.04365956)
(0.0002853775 0.000741111 -0.06464446)
(2.514468e-05 6.122152e-05 -0.001695974)
(2.863917e-05 6.816856e-05 -0.006030061)
(3.029283e-05 7.631542e-05 -0.01008231)
(3.116517e-05 8.685448e-05 -0.01884641)
(2.365321e-05 0.0001091126 -0.01761355)
(0.000242394 0.001148089 -0.04107445)
(0.0003356853 0.001416313 -0.03483534)
(0.0004655918 0.001692403 -0.04819794)
(0.000260391 0.001987536 -0.06509492)
(2.215106e-05 9.776002e-05 -0.001532212)
(2.486347e-05 0.0001084086 -0.00540851)
(2.598186e-05 0.0001207752 -0.008962327)
(2.631724e-05 0.0001364735 -0.01656914)
(2.036247e-05 0.0001692818 -0.01526322)
(0.0002022164 0.001755827 -0.03493167)
(0.0002670069 0.002132687 -0.0288761)