/*--------------------------------*- C++ -*----------------------------------*\
| =========                 |                                                 |
| \\      /  F ield         | OpenFOAM: The Open Source CFD Toolbox           |
|  \\    /   O peration     | Version:  2306                                  |
|   \\  /    A nd           | Website:  www.openfoam.com                      |
|    \\/     M anipulation  |                                                 |
\*---------------------------------------------------------------------------*/
FoamFile
{
    version     2.0;
    format      ascii;
    arch        "LSB;label=32;scalar=64";
    class       volScalarField;
    location    "1.2/fuel";
    object      X.H2O;
}
// * * * * * * * * * * * * * * * * * * * * * * * * * * * * * * * * * * * * * //

dimensions      [0 0 0 0 0 0 0];

internalField   nonuniform List<scalar> 
16000
(
0.06821474
0.06695209
0.08849179
0.06814269
0.0644361
0.08750654
0.06687941
0.1112425
0.08842599
0.0680017
0.06073929
0.08554479
0.06436205
0.1103594
0.08744034
0.06673719
0.1333864
0.1111821
0.08829707
0.06779395
0.05612682
0.08266354
0.06066292
0.1086002
0.08547773
0.06421718
0.1325633
0.1102986
0.08731063
0.06652766
0.154532
0.1333302
0.1110635
0.08810693
0.06752076
0.05136963
0.07906573
0.05604669
0.1060138
0.08259505
0.06051354
0.1309243
0.1085388
0.08534636
0.06400379
0.1537562
0.1325069
0.1101794
0.08711935
0.06625215
0.1746857
0.1544794
0.1332199
0.1108884
0.08785673
0.06725032
0.04789157
0.07533963
0.0512844
0.1027796
0.07899494
0.05588998
0.1285148
0.1059513
0.08246089
0.06029353
0.1522118
0.1308673
0.1084183
0.08515264
0.06372323
0.1739506
0.1537033
0.132396
0.1100034
0.08686766
0.06597941
0.1939158
0.1746361
0.154376
0.1330569
0.1106578
0.08760894
0.06702665
0.04572254
0.07257586
0.04780411
0.09942391
0.07526572
0.05111769
0.1255019
0.1027152
0.07885627
0.05565918
0.149942
0.1284569
0.1058287
0.08226308
0.0600043
0.1724878
0.1521585
0.1307554
0.1082404
0.08489777
0.06344551
0.193217
0.1739009
0.1535995
0.1322323
0.1097717
0.0866184
0.06575383
0.2122927
0.1938689
0.1745387
0.1542231
0.1328422
0.1104294
0.08740401
0.06680471
0.04450415
0.07081935
0.04563426
0.09692918
0.07250093
0.0476331
0.1223756
0.09935709
0.07512091
0.05087211
0.1471046
0.1254424
0.102589
0.07865181
0.05535577
0.1703384
0.1498879
0.1283432
0.1056477
0.08200285
0.05971803
0.1918267
0.1724376
0.1520537
0.1305902
0.1080063
0.08464538
0.06321571
0.2116267
0.19317
0.173803
0.153446
0.1320167
0.1095422
0.08641225
0.06552998
0.2298803
0.2122482
0.1937767
0.1743945
0.1540216
0.1326294
0.1102405
0.08720067
0.06658448
0.04396004
0.06981392
0.04441553
0.09533882
0.0707443
0.04546172
0.12005
0.09686171
0.07235415
0.04738126
0.1441609
0.122314
0.09922599
0.07490734
0.05054917
0.1676523
0.1470491
0.1253257
0.1024028
0.07838281
0.05505544
0.1897844
0.1702876
0.1497816
0.1281754
0.1054094
0.08174515
0.05948073
0.2103019
0.1917793
0.172339
0.1518989
0.1303725
0.1077744
0.08443656
0.06298755
0.2292442
0.211582
0.1930774
0.1736583
0.1532437
0.1318029
0.1093523
0.08620769
0.06530785
0.2467351
0.2298379
0.2121606
0.1936402
0.1742044
0.1538219
0.1324534
0.1100531
0.0869989
0.06636597
0.04396004
0.06935864
0.04387128
0.09442559
0.06973893
0.04424236
0.118566
0.09527142
0.07059731
0.0452077
0.1419707
0.119988
0.09672935
0.07213769
0.04705013
0.164866
0.1441035
0.1221931
0.09903244
0.07462627
0.0502294
0.1872325
0.1676002
0.1469401
0.1251534
0.1021576
0.07811642
0.05480521
0.2083562
0.1897364
0.1701876
0.1496245
0.1279542
0.1051734
0.08153163
0.0592447
0.2279793
0.2102569
0.191686
0.1721931
0.1516949
0.1301568
0.1075825
0.08422926
0.06276105
0.2461266
0.2292018
0.2114942
0.1929404
0.1734675
0.1530431
0.1316262
0.1091639
0.08600469
0.06508744
0.2629071
0.2466947
0.2297546
0.212031
0.1934602
0.1740159
0.1536567
0.1322788
0.1098671
0.08679871
0.06531597
0.04450415
0.06935864
0.04387128
0.09401106
0.06928368
0.04369783
0.1177128
0.09435837
0.06959206
0.04398746
0.1405723
0.1185041
0.09513924
0.07038058
0.04487379
0.1627929
0.141913
0.1198661
0.09653395
0.07185286
0.0467223
0.184586
0.1648122
0.1439907
0.1220143
0.09877754
0.07434785
0.04996056
0.2059255
0.1871833
0.1674977
0.1467791
0.1249263
0.1019147
0.07789475
0.05455505
0.2261217
0.2083107
0.1896418
0.1700396
0.1494174
0.127735
0.1049778
0.08131935
0.05900997
0.2449167
0.2279365
0.2101684
0.191548
0.1720008
0.1514926
0.1299783
0.107392
0.08402347
0.0625362
0.2623241
0.2460862
0.2291182
0.2113641
0.1927598
0.1732783
0.1528773
0.1314508
0.108977
0.08580328
0.06402833
0.2784405
0.2628686
0.2466153
0.2296312
0.2118599
0.1932816
0.17386
0.1534928
0.1321056
0.1096826
0.08583601
0.06460072
0.04572254
0.06981392
0.04441553
0.09401106
0.06928368
0.04369783
0.1173251
0.09394393
0.0691369
0.04344258
0.1397678
0.1176511
0.09422652
0.06937554
0.04365245
0.1614689
0.1405147
0.1183825
0.09494413
0.07009543
0.04454324
0.1826169
0.1627388
0.1417994
0.119686
0.09627664
0.07157074
0.04644666
0.203405
0.1845352
0.1647063
0.1438239
0.1217788
0.09852494
0.07411435
0.04968937
0.2238014
0.2058789
0.1870866
0.1673462
0.1465668
0.1247013
0.1017126
0.07767342
0.05430497
0.2431401
0.2260784
0.208221
0.189502
0.1698446
0.1492122
0.1275535
0.1047834
0.08110832
0.05877653
0.2611651
0.244876
0.2278523
0.2100374
0.191366
0.1718101
0.1513252
0.1298011
0.1072029
0.08381922
0.0614554
0.2778814
0.2622855
0.2460064
0.2289943
0.2111925
0.1925805
0.1731218
0.1527127
0.1312767
0.1087916
0.0848347
0.06330368
0.293375
0.2784037
0.2627926
0.2464975
0.2294682
0.2116902
0.1931339
0.1737053
0.1533301
0.1319337
0.1087947
0.08518126
0.0640623
0.04789157
0.07081935
0.04563426
0.09442559
0.06973893
0.04424236
0.1173251
0.09394393
0.0691369
0.04344258
0.1394021
0.1172636
0.09381227
0.06892052
0.0431071
0.1607069
0.1397105
0.11753
0.09403194
0.06909068
0.04332083
0.181359
0.1614149
0.1404016
0.118203
0.09468723
0.06981303
0.04426589
0.2015297
0.1825658
0.1626322
0.1416316
0.1194488
0.09602167
0.0713341
0.04616859
0.2213958
0.203357
0.1844353
0.1645495
0.143604
0.1215454
0.09831312
0.07387937
0.0494158
0.2409213
0.2237572
0.2057872
0.1869434
0.1671465
0.1463563
0.124514
0.1015108
0.07745242
0.05405499
0.2594635
0.2430989
0.2259932
0.2080883
0.1893175
0.1696512
0.1490421
0.1273729
0.1045901
0.08089855
0.05765278
0.2767697
0.2611262
0.2447957
0.2277276
0.2098645
0.1911854
0.1716522
0.1511591
0.1296253
0.1070152
0.08283667
0.06070368
0.292838
0.2778444
0.2622093
0.2458883
0.2288309
0.2110221
0.1924323
0.1729665
0.1525494
0.1311041
0.1078991
0.08417368
0.0627556
0.307746
0.2933397
0.278331
0.26268
0.2463419
0.2293065
0.2115498
0.1929873
0.1735519
0.1531688
0.1311062
0.1081915
0.08468879
0.06370224
0.05136963
0.07257586
0.04780411
0.09533882
0.0707443
0.04546172
0.1177128
0.09435837
0.06959206
0.04398746
0.1394021
0.1172636
0.09381227
0.06892052
0.0431071
0.1603604
0.1393449
0.1171427
0.09361798
0.06863587
0.04277504
0.1806349
0.1606531
0.1395978
0.117351
0.09377574
0.0688086
0.04304301
0.2003316
0.1813082
0.1613088
0.1402343
0.1179664
0.09443269
0.06957656
0.04398666
0.219606
0.2014814
0.1824654
0.1624746
0.1414103
0.1192136
0.09580781
0.07109591
0.04588808
0.2386213
0.2213502
0.2032622
0.1842873
0.1643428
0.143386
0.1213496
0.09809998
0.07364288
0.04913981
0.2573385
0.2408792
0.22367
0.2056514
0.1867546
0.1669483
0.1461811
0.1243271
0.1013093
0.07723178
0.05284597
0.2751377
0.2594241
0.2430176
0.2258669
0.2079132
0.1891344
0.169491
0.148873
0.1271935
0.1043979
0.07988813
0.05682814
0.2917705
0.2767325
0.2610495
0.2446767
0.227563
0.209693
0.1910359
0.1714956
0.1509942
0.1294507
0.1061117
0.08215723
0.06012457
0.3072298
0.2928026
0.2777715
0.2620964
0.2457323
0.2286686
0.2108813
0.1922852
0.1728125
0.1523873
0.1302728
0.1072908
0.08367459
0.06238744
0.3215858
0.3077122
0.29327
0.2782232
0.2625313
0.2461875
0.2291728
0.2114105
0.1928419
0.1733996
0.1523919
0.1305444
0.1077378
0.08435966
0.06352184
0.05612682
0.07533963
0.0512844
0.09692918
0.07250093
0.0476331
0.118566
0.09527142
0.07059731
0.0452077
0.1397678
0.1176511
0.09422652
0.06937554
0.04365245
0.1603604
0.1393449
0.1171427
0.09361798
0.06863587
0.04277504
0.1803056
0.1603068
0.1392324
0.1169641
0.09336217
0.06835398
0.04249706
0.1996419
0.1805843
0.1605475
0.1394312
0.1171153
0.09352192
0.06857271
0.04276374
0.2184625
0.2002835
0.1812081
0.1611518
0.1400139
0.1177319
0.09421956
0.06933896
0.04370555
0.23691
0.2195602
0.2013863
0.1823166
0.1622668
0.1411909
0.1190163
0.09559258
0.07085617
0.04560512
0.2551359
0.2385778
0.2212602
0.203122
0.184092
0.1641378
0.1432031
0.1211526
0.09788549
0.07340487
0.04779379
0.2730999
0.2572983
0.2407962
0.2235409
0.2054723
0.1865672
0.1667835
0.1460062
0.1241404
0.1011082
0.07616465
0.05182591
0.2902035
0.2751
0.2593465
0.2428972
0.2257002
0.2077394
0.1889828
0.1693317
0.1487049
0.1270151
0.1034719
0.07915775
0.05615233
0.3062038
0.2917349
0.2766591
0.2609359
0.2445197
0.2273997
0.2095511
0.1908876
0.1713401
0.1508305
0.12861
0.1054879
0.08163649
0.05972847
0.3210891
0.3071959
0.2927327
0.2776634
0.2619472
0.2455774
0.2285344
0.2107415
0.1921393
0.1726596
0.151607
0.1297065
0.1068316
0.08333986
0.06220238
0.3349236
0.3215533
0.3076453
0.2931667
0.2780808
0.2623836
0.2460599
0.2290401
0.2112723
0.1926977
0.1726663
0.1518646
0.130122
0.1074347
0.08419484
0.06073929
0.07906573
0.05604669
0.09942391
0.07526572
0.05111769
0.12005
0.09686171
0.07235415
0.04738126
0.1405723
0.1185041
0.09513924
0.07038058
0.04487379
0.1607069
0.1397105
0.11753
0.09403194
0.06909068
0.04332083
0.1803056
0.1603068
0.1392324
0.1169641
0.09336217
0.06835398
0.04249706
0.1993281
0.1802551
0.1602013
0.1390662
0.1167288
0.09310874
0.06811841
0.04221782
0.217804
0.199594
0.1804847
0.1603912
0.1392116
0.1168816
0.09330966
0.068336
0.04248302
0.2358166
0.2184168
0.2001888
0.18106
0.1609448
0.1397952
0.1175355
0.09400541
0.06910023
0.04342256
0.2534973
0.2368664
0.2194698
0.2012453
0.1821203
0.1620605
0.1410068
0.1188177
0.09537596
0.07061488
0.04422569
0.2709879
0.2550945
0.2384921
0.2211269
0.2029368
0.1838982
0.1639657
0.143019
0.1209543
0.09766965
0.07224492
0.04637857
0.2882471
0.2730615
0.257219
0.2406731
0.2233705
0.2052945
0.1864113
0.1666188
0.1458316
0.123954
0.1001347
0.07529441
0.05084515
0.3046977
0.2901675
0.2750258
0.2592315
0.2427383
0.2255348
0.2075954
0.188832
0.1691733
0.1485378
0.1261548
0.1028041
0.07856794
0.05565859
0.320102
0.3061696
0.2916646
0.2765503
0.2607858
0.2443638
0.2272645
0.2094102
0.1907404
0.1711858
0.150042
0.12803
0.1050101
0.08128202
0.05952654
0.3344453
0.3210565
0.3071288
0.2926291
0.2775206
0.2617991
0.2454493
0.2284013
0.2106029
0.1919945
0.1719232
0.1510757
0.1292791
0.1065237
0.08317179
0.347786
0.3348923
0.3214891
0.3075462
0.2930302
0.2779394
0.2622615
0.2459332
0.2289084
0.2111353
0.1920027
0.1721687
0.1514681
0.1298397
0.107283
0.0644361
0.08266354
0.06066292
0.1027796
0.07899494
0.05588998
0.1223756
0.09935709
0.07512091
0.05087211
0.1419707
0.119988
0.09672935
0.07213769
0.04705013
0.1614689
0.1405147
0.1183825
0.09494413
0.07009543
0.04454324
0.1806349
0.1606531
0.1395978
0.117351
0.09377574
0.0688086
0.04304301
0.1993281
0.1802551
0.1602013
0.1390662
0.1167288
0.09310874
0.06811841
0.04221782
0.2175045
0.1992803
0.1801557
0.1600454
0.138847
0.1164956
0.09289695
0.06788218
0.04193733
0.2351869
0.2177586
0.1994997
0.1803372
0.160185
0.1389938
0.1166863
0.09309667
0.06809849
0.04220084
0.2524502
0.2357731
0.2183269
0.2000485
0.1808646
0.1607395
0.1396122
0.1173382
0.09379025
0.06886037
0.04204585
0.2694167
0.2534557
0.2367803
0.2193359
0.2010593
0.1819256
0.1618875
0.1408215
0.1186178
0.09515795
0.06943913
0.04279693
0.2862197
0.2709483
0.2550127
0.238365
0.2209508
0.202753
0.1837357
0.1637926
0.1428337
0.1207547
0.09661689
0.07108765
0.04463019
0.3028175
0.2882104
0.2729857
0.2571015
0.2405106
0.2232013
0.2051466
0.1862556
0.1664544
0.1456573
0.1230515
0.09934385
0.07448276
0.04997832
0.3186532
0.3046632
0.2900964
0.2749158
0.2590796
0.2425804
0.2253977
0.2074523
0.1886822
0.1690158
0.1477316
0.1255349
0.1022657
0.07814302
0.05539128
0.3334949
0.3200692
0.3061022
0.2915603
0.2764066
0.2606367
0.2442348
0.2271303
0.2092703
0.1905942
0.170442
0.1494981
0.1275858
0.1046851
0.08110196
0.3473252
0.334414
0.3209922
0.3070294
0.2924922
0.2773787
0.2616767
0.2453222
0.2282692
0.2104653
0.1912968
0.171422
0.1506748
0.1289926
0.1063691
0.3601977
0.347756
0.3348306
0.3213938
0.3074151
0.2928945
0.2778224
0.2621404
0.2458075
0.2287778
0.2104747
0.1915314
0.1717947
0.1512032
0.1296984
0.06695209
0.08554479
0.06436205
0.1060138
0.08259505
0.06051354
0.1255019
0.1027152
0.07885627
0.05565918
0.1441609
0.122314
0.09922599
0.07490734
0.05054917
0.1627929
0.141913
0.1198661
0.09653395
0.07185286
0.0467223
0.181359
0.1614149
0.1404016
0.118203
0.09468723
0.06981303
0.04426589
0.1996419
0.1805843
0.1605475
0.1394312
0.1171153
0.09352192
0.06857271
0.04276374
0.2175045
0.1992803
0.1801557
0.1600454
0.138847
0.1164956
0.09289695
0.06788218
0.04193733
0.2349005
0.2174592
0.1991863
0.1800086
0.1598397
0.1386298
0.1163007
0.09268455
0.06764528
0.04165559
0.2518472
0.2351437
0.217669
0.19936
0.1801427
0.1599806
0.1388117
0.1164902
0.09288296
0.06786017
0.04083021
0.2684127
0.2524088
0.2356875
0.2181936
0.1998634
0.1806708
0.1605675
0.1394282
0.11714
0.09357407
0.06769367
0.04068539
0.2847114
0.2693769
0.2533735
0.2366527
0.219159
0.2008747
0.1817622
0.1617134
0.1406349
0.1184166
0.09409467
0.06827943
0.0410988
0.3008692
0.2861817
0.2708701
0.2548914
0.2381972
0.220776
0.2025989
0.183572
0.1636184
0.1426473
0.1197807
0.0955711
0.06971094
0.04241725
0.3168447
0.3027823
0.2881378
0.2728733
0.2569463
0.2403493
0.2230605
0.2049988
0.1861002
0.1662903
0.1448125
0.1223187
0.09860831
0.07378465
0.04938375
0.3321001
0.3186201
0.304595
0.289991
0.2747704
0.2589288
0.2424497
0.2252615
0.20731
0.1885332
0.168256
0.1471509
0.1250351
0.1018784
0.0779155
0.3464095
0.3334634
0.3200045
0.3060021
0.2914226
0.2762638
0.2605133
0.2441067
0.2269971
0.2091315
0.1898898
0.1699292
0.1490817
0.1272837
0.1045201
0.3597534
0.3472951
0.3343522
0.3208967
0.306898
0.2923562
0.2772614
0.2615551
0.2451961
0.2281381
0.2098022
0.190822
0.1710438
0.150406
0.1288487
0.3721811
0.3601687
0.3476966
0.334739
0.3212679
0.3072849
0.2927823
0.2777064
0.2620202
0.2456828
0.2281484
0.2100268
0.191177
0.1715448
0.1510706
0.06821474
0.08750654
0.06687941
0.1086002
0.08547773
0.06421718
0.1285148
0.1059513
0.08246089
0.06029353
0.1471046
0.1254424
0.102589
0.07865181
0.05535577
0.164866
0.1441035
0.1221931
0.09903244
0.07462627
0.0502294
0.1826169
0.1627388
0.1417994
0.119686
0.09627664
0.07157074
0.04644666
0.2003316
0.1813082
0.1613088
0.1402343
0.1179664
0.09443269
0.06957656
0.04398666
0.217804
0.199594
0.1804847
0.1603912
0.1392116
0.1168816
0.09330966
0.068336
0.04248302
0.2349005
0.2174592
0.1991863
0.1800086
0.1598397
0.1386298
0.1163007
0.09268455
0.06764528
0.04165559
0.2515729
0.2348574
0.2173698
0.199047
0.1798145
0.1596357
0.1384482
0.1161052
0.09247156
0.06740772
0.04028806
0.2678345
0.251806
0.2350585
0.2175364
0.1991758
0.1799497
0.1598096
0.138629
0.1162934
0.09266851
0.06670244
0.03952025
0.2837476
0.2683731
0.2523271
0.2355606
0.2180177
0.1996797
0.1805084
0.1603947
0.1392433
0.1169407
0.09252156
0.06659093
0.03913772
0.2994199
0.2846733
0.2692984
0.2532518
0.2364842
0.2189835
0.2007198
0.1815977
0.1615381
0.1404471
0.1174347
0.0930488
0.06694814
0.03911538
0.3149707
0.3008329
0.2861069
0.2707541
0.2547311
0.2380306
0.2206293
0.2024437
0.1834074
0.163443
0.1417367
0.1188128
0.09433023
0.06801603
0.03948987
0.330359
0.3168108
0.3027127
0.2880301
0.2727247
0.2567921
0.240215
0.22292
0.2048513
0.1859449
0.1654948
0.1441267
0.1216371
0.09797723
0.07331666
0.3450656
0.3320682
0.3185546
0.3044938
0.2898516
0.274626
0.2588038
0.2423197
0.225126
0.2071685
0.1878139
0.1677088
0.1466827
0.1246756
0.1016712
0.3588704
0.3463792
0.3334012
0.3199084
0.3058699
0.2912857
0.2761458
0.2603909
0.2439796
0.2268649
0.2084622
0.1894043
0.1695365
0.1487984
0.1271302
0.3717524
0.3597244
0.3472356
0.3342603
0.3207704
0.3067674
0.2922437
0.277145
0.2614345
0.245071
0.2275064
0.2093511
0.1904638
0.1707903
0.150271
0.383757
0.3721532
0.3601116
0.3476084
0.3346179
0.3211427
0.3071772
0.2926711
0.2775912
0.2619009
0.2450818
0.2277217
0.2096901
0.1909403
0.1714197
0.08849179
0.06814269
0.1103594
0.08744034
0.06673719
0.1309243
0.1085388
0.08534636
0.06400379
0.149942
0.1284569
0.1058287
0.08226308
0.0600043
0.1676523
0.1470491
0.1253257
0.1024028
0.07838281
0.05505544
0.184586
0.1648122
0.1439907
0.1220143
0.09877754
0.07434785
0.04996056
0.2015297
0.1825658
0.1626322
0.1416316
0.1194488
0.09602167
0.0713341
0.04616859
0.2184625
0.2002835
0.1812081
0.1611518
0.1400139
0.1177319
0.09421956
0.06933896
0.04370555
0.2351869
0.2177586
0.1994997
0.1803372
0.160185
0.1389938
0.1166863
0.09309667
0.06809849
0.04220084
0.2515729
0.2348574
0.2173698
0.199047
0.1798145
0.1596357
0.1384482
0.1161052
0.09247156
0.06740772
0.04028806
0.2675714
0.2515318
0.2347723
0.2172375
0.1988631
0.179622
0.1594652
0.138266
0.1159092
0.09225797
0.06625442
0.03900123
0.2831925
0.2677951
0.2517247
0.2349321
0.2173613
0.1989929
0.1797883
0.159638
0.1384456
0.1160959
0.09162573
0.06564104
0.03806997
0.2984937
0.2837097
0.268295
0.2522059
0.2353929
0.217843
0.1995258
0.1803452
0.160221
0.1390575
0.1159701
0.09152837
0.06537816
0.03741186
0.3135767
0.2993834
0.2845982
0.269182
0.2530909
0.2363169
0.2188362
0.2005638
0.1814321
0.1613616
0.1395302
0.1164681
0.0918497
0.06543363
0.03684176
0.328555
0.3149358
0.3007611
0.2859958
0.2706007
0.2545719
0.2378907
0.2204817
0.2022875
0.1832416
0.162586
0.140831
0.1176635
0.09280562
0.06581422
0.03475025
0.3433882
0.3303265
0.316744
0.3026094
0.2878878
0.2725772
0.2566638
0.2400809
0.2227796
0.204704
0.1851924
0.1648488
0.1434884
0.1210522
0.09755496
0.3575747
0.3450349
0.3320053
0.3184575
0.3043601
0.2897132
0.2745063
0.2586795
0.2421904
0.2249913
0.2064855
0.187296
0.1672676
0.1463459
0.1244833
0.3709005
0.3588413
0.3463193
0.3333088
0.3197814
0.3057385
0.2911725
0.2760285
0.2602694
0.2438534
0.2262274
0.208001
0.1890325
0.1692695
0.1486546
0.3833432
0.3717244
0.359667
0.3471472
0.3341388
0.3206449
0.3066594
0.292132
0.2770295
0.2613149
0.2444679
0.2270767
0.2090108
0.1902237
0.170663
0.3949448
0.3837301
0.3720981
0.3600267
0.3474918
0.3344974
0.3210392
0.3070703
0.2925606
0.277477
0.2613261
0.2446744
0.2274009
0.2094651
0.1908218
0.1112425
0.08842599
0.0680017
0.1325633
0.1102986
0.08731063
0.06652766
0.1522118
0.1308673
0.1084183
0.08515264
0.06372323
0.1703384
0.1498879
0.1283432
0.1056477
0.08200285
0.05971803
0.1872325
0.1676002
0.1469401
0.1251534
0.1021576
0.07811642
0.05480521
0.203405
0.1845352
0.1647063
0.1438239
0.1217788
0.09852494
0.07411435
0.04968937
0.219606
0.2014814
0.1824654
0.1624746
0.1414103
0.1192136
0.09580781
0.07109591
0.04588808
0.2358166
0.2184168
0.2001888
0.18106
0.1609448
0.1397952
0.1175355
0.09400541
0.06910023
0.04342256
0.2518472
0.2351437
0.217669
0.19936
0.1801427
0.1599806
0.1388117
0.1164902
0.09288296
0.06786017
0.04083021
0.2675714
0.2515318
0.2347723
0.2172375
0.1988631
0.179622
0.1594652
0.138266
0.1159092
0.09225797
0.06625442
0.03900123
0.28294
0.2675322
0.2514506
0.2346463
0.2170628
0.1986807
0.179461
0.1592942
0.1380834
0.1157126
0.09121997
0.06521196
0.03759394
0.2979604
0.2831549
0.2677174
0.2516041
0.2347653
0.2171874
0.1988399
0.1796263
0.1594657
0.1382615
0.1151351
0.09067063
0.06450447
0.03648853
0.312686
0.2984575
0.283635
0.2681792
0.2520459
0.2352265
0.2176967
0.1993711
0.1801812
0.1600465
0.1381518
0.1150532
0.09043648
0.06406261
0.03552642
0.3272132
0.3135417
0.2993114
0.2844867
0.2690281
0.2529311
0.2361765
0.2186879
0.2004068
0.1812653
0.1604993
0.1386265
0.1153586
0.09048667
0.06373283
0.03392037
0.3416503
0.3285215
0.3148669
0.3006545
0.2858489
0.2704484
0.2544383
0.23775
0.2203331
0.2021302
0.1824313
0.161733
0.1397545
0.1162508
0.09082758
0.06226859
0.03222547
0.3559576
0.3433569
0.3302623
0.3166449
0.3024729
0.2877464
0.2724544
0.2565357
0.239947
0.2226394
0.2039896
0.1845812
0.1642473
0.1429405
0.1206607
0.3696506
0.3575453
0.3449744
0.3319119
0.318329
0.3042273
0.2895985
0.2743873
0.2585559
0.2420619
0.2243409
0.2059937
0.1868784
0.1669501
0.1461657
0.3825209
0.3708725
0.3587836
0.3462304
0.3331866
0.3196551
0.3056298
0.29106
0.2759121
0.2601487
0.2432449
0.2257882
0.2076479
0.1887796
0.1691338
0.3945451
0.3833162
0.3716692
0.3595819
0.3470303
0.3340181
0.3205411
0.3065522
0.2920213
0.2769149
0.2607381
0.2440577
0.2267525
0.2087826
0.1901031
0.4057624
0.3949189
0.383677
0.3720163
0.3599143
0.3473759
0.3343979
0.3209365
0.3069643
0.2924511
0.2769264
0.2609365
0.2443682
0.2271866
0.2093525
0.1333864
0.1111821
0.08829707
0.06779395
0.1537562
0.1325069
0.1101794
0.08711935
0.06625215
0.1724878
0.1521585
0.1307554
0.1082404
0.08489777
0.06344551
0.1897844
0.1702876
0.1497816
0.1281754
0.1054094
0.08174515
0.05948073
0.2059255
0.1871833
0.1674977
0.1467791
0.1249263
0.1019147
0.07789475
0.05455505
0.2213958
0.203357
0.1844353
0.1645495
0.143604
0.1215454
0.09831312
0.07387937
0.0494158
0.23691
0.2195602
0.2013863
0.1823166
0.1622668
0.1411909
0.1190163
0.09559258
0.07085617
0.04560512
0.2524502
0.2357731
0.2183269
0.2000485
0.1808646
0.1607395
0.1396122
0.1173382
0.09379025
0.06886037
0.04204585
0.2678345
0.251806
0.2350585
0.2175364
0.1991758
0.1799497
0.1598096
0.138629
0.1162934
0.09266851
0.06670244
0.03952025
0.28294
0.2675322
0.2514506
0.2346463
0.2170628
0.1986807
0.179461
0.1592942
0.1380834
0.1157126
0.09121997
0.06521196
0.03759394
0.2977177
0.2829024
0.2674546
0.2513304
0.2344799
0.2168894
0.1985282
0.1792996
0.1591227
0.1379002
0.1147565
0.09028234
0.06410898
0.03607352
0.3121729
0.2979242
0.2830805
0.2676021
0.2514448
0.2345996
0.217042
0.1986864
0.1794637
0.1592929
0.1373654
0.1142541
0.08964766
0.06330004
0.03478977
0.3263558
0.3126511
0.2983858
0.2835241
0.2680262
0.2518869
0.235087
0.2175496
0.1992156
0.1800164
0.1591952
0.1372954
0.114044
0.08925214
0.062659
0.03319191
0.3403577
0.3271796
0.3134726
0.2992045
0.2843393
0.2688752
0.252797
0.2360351
0.2185385
0.2002487
0.1804505
0.1596487
0.1375881
0.1140964
0.0889565
0.06158138
0.03187442
0.3542823
0.3416181
0.3284553
0.3147646
0.3005136
0.2857029
0.2703206
0.2543039
0.2376083
0.2201835
0.2013613
0.1816242
0.1607183
0.1384304
0.1144173
0.08764014
0.0602466
0.03036275
0.3680906
0.3559276
0.3432952
0.330167
0.3165137
0.3023372
0.2876287
0.2723318
0.2564078
0.2398133
0.2219594
0.2034094
0.1840119
0.1637308
0.1425736
0.3813143
0.3696222
0.357487
0.3448846
0.3317884
0.3182014
0.3041172
0.2894844
0.2742691
0.2584331
0.2414413
0.2238727
0.2055971
0.1865779
0.1667802
0.393751
0.3824938
0.3708169
0.358698
0.3461128
0.3330652
0.3195507
0.3055219
0.2909485
0.2757966
0.2595669
0.2428258
0.2254519
0.2074077
0.1886512
0.4053762
0.3945192
0.383263
0.3715872
0.3594693
0.346914
0.3339183
0.3204381
0.3064459
0.2919114
0.2763625
0.2603458
0.2437482
0.2265352
0.2086681
0.4162265
0.4057374
0.3948677
0.3835981
0.371908
0.3598026
0.34728
0.3342991
0.3208346
0.3068591
0.291923
0.2765533
0.2606437
0.2441637
0.2270793
0.154532
0.1333302
0.1110635
0.08810693
0.06752076
0.1739506
0.1537033
0.132396
0.1100034
0.08686766
0.06597941
0.1918267
0.1724376
0.1520537
0.1305902
0.1080063
0.08464538
0.06321571
0.2083562
0.1897364
0.1701876
0.1496245
0.1279542
0.1051734
0.08153163
0.0592447
0.2238014
0.2058789
0.1870866
0.1673462
0.1465668
0.1247013
0.1017126
0.07767342
0.05430497
0.2386213
0.2213502
0.2032622
0.1842873
0.1643428
0.143386
0.1213496
0.09809998
0.07364288
0.04913981
0.2534973
0.2368664
0.2194698
0.2012453
0.1821203
0.1620605
0.1410068
0.1188177
0.09537596
0.07061488
0.04422569
0.2684127
0.2524088
0.2356875
0.2181936
0.1998634
0.1806708
0.1605675
0.1394282
0.11714
0.09357407
0.06769367
0.04068539
0.2831925
0.2677951
0.2517247
0.2349321
0.2173613
0.1989929
0.1797883
0.159638
0.1384456
0.1160959
0.09162573
0.06564104
0.03806997
0.2977177
0.2829024
0.2674546
0.2513304
0.2344799
0.2168894
0.1985282
0.1792996
0.1591227
0.1379002
0.1147565
0.09028234
0.06410898
0.03607352
0.3119395
0.2976816
0.2828282
0.2673396
0.2511715
0.2343146
0.2167444
0.1983752
0.1791377
0.1589507
0.1370087
0.113892
0.08928979
0.06295135
0.03445026
0.3258619
0.3121383
0.2978529
0.2829701
0.2674498
0.2512867
0.2344611
0.216896
0.1985322
0.1793005
0.1584509
0.1365429
0.1133092
0.08856314
0.0620387
0.032702
0.3395317
0.3263223
0.3125824
0.2982795
0.2833775
0.2678741
0.2517538
0.2349469
0.2174018
0.1990594
0.1792123
0.1583897
0.1363515
0.1129481
0.08798814
0.06095671
0.03146699
0.3530362
0.3403254
0.3271132
0.31337
0.2990631
0.2841928
0.268747
0.252662
0.2358928
0.2183882
0.1994758
0.1796461
0.1586704
0.1364058
0.1126785
0.08701958
0.05992452
0.03018998
0.3664746
0.3542513
0.3415545
0.328357
0.3146293
0.3003736
0.2855805
0.270192
0.2541685
0.2374656
0.2194519
0.2005951
0.1806634
0.1594694
0.1367112
0.1114601
0.08582148
0.05864299
0.02893352
0.3798086
0.3680617
0.3558681
0.3432035
0.3300409
0.3163834
0.3022243
0.2875112
0.2722093
0.25628
0.2391647
0.2214071
0.2028688
0.1835229
0.1633848
0.3925857
0.381287
0.3695661
0.3574005
0.3447657
0.3316657
0.3180956
0.3040077
0.2893711
0.2741515
0.2578398
0.2409945
0.2234951
0.2053116
0.186417
0.4046088
0.3937249
0.3824403
0.3707344
0.3585848
0.3459959
0.3329648
0.319447
0.3054148
0.2908377
0.2752394
0.2591661
0.2425048
0.2252231
0.2072857
0.4158531
0.4053511
0.3944678
0.3831839
0.3714786
0.3593573
0.3468179
0.3338192
0.3203359
0.3063404
0.2913816
0.2759868
0.2600499
0.2435408
0.2264261
0.4263526
0.4162024
0.405688
0.3947915
0.3834936
0.3718003
0.3597103
0.3471849
0.3342011
0.3207335
0.3063521
0.2915652
0.2762728
0.260448
0.2440612
0.1746857
0.1544794
0.1332199
0.1108884
0.08785673
0.06725032
0.193217
0.1739009
0.1535995
0.1322323
0.1097717
0.0866184
0.06575383
0.2103019
0.1917793
0.172339
0.1518989
0.1303725
0.1077744
0.08443656
0.06298755
0.2261217
0.2083107
0.1896418
0.1700396
0.1494174
0.127735
0.1049778
0.08131935
0.05900997
0.2409213
0.2237572
0.2057872
0.1869434
0.1671465
0.1463563
0.124514
0.1015108
0.07745242
0.05405499
0.2551359
0.2385778
0.2212602
0.203122
0.184092
0.1641378
0.1432031
0.1211526
0.09788549
0.07340487
0.04779379
0.2694167
0.2534557
0.2367803
0.2193359
0.2010593
0.1819256
0.1618875
0.1408215
0.1186178
0.09515795
0.06943913
0.04279693
0.2837476
0.2683731
0.2523271
0.2355606
0.2180177
0.1996797
0.1805084
0.1603947
0.1392433
0.1169407
0.09252156
0.06659093
0.03913772
0.2979604
0.2831549
0.2677174
0.2516041
0.2347653
0.2171874
0.1988399
0.1796263
0.1594657
0.1382615
0.1151351
0.09067063
0.06450447
0.03648853
0.3119395
0.2976816
0.2828282
0.2673396
0.2511715
0.2343146
0.2167444
0.1983752
0.1791377
0.1589507
0.1370087
0.113892
0.08928979
0.06295135
0.03445026
0.3256372
0.311905
0.2976105
0.2827181
0.2671877
0.2510137
0.2341765
0.216599
0.1982217
0.1789753
0.1581132
0.1362018
0.1129755
0.08824734
0.06174726
0.03245957
0.339056
0.3258287
0.3120699
0.2977471
0.2828242
0.2672985
0.2511543
0.234322
0.2167495
0.1983776
0.1785053
0.1576776
0.1356597
0.1123062
0.08742652
0.06052383
0.03115194
0.35224
0.3394996
0.3262563
0.3124803
0.2981389
0.2832318
0.2677468
0.25162
0.234806
0.2172533
0.1982969
0.1784508
0.157501
0.1353257
0.1117774
0.08645352
0.05954333
0.02995836
0.3652726
0.3530052
0.3402616
0.3270146
0.3132342
0.2989226
0.2840699
0.2686178
0.252526
0.2357495
0.217653
0.1987124
0.1787202
0.1575558
0.1350769
0.1108824
0.08552575
0.05845531
0.02883415
0.3782489
0.3664447
0.3541901
0.3414599
0.328227
0.3144949
0.3002561
0.2854572
0.2700624
0.2540322
0.2367679
0.2187224
0.1996824
0.1794803
0.1578471
0.1339363
0.109775
0.0843746
0.05733448
0.02782613
0.3911316
0.3797807
0.3680044
0.3557799
0.3430822
0.3299156
0.3162749
0.3021115
0.2873938
0.272087
0.2556601
0.2386377
0.2208923
0.2024042
0.1831952
0.4034828
0.3925593
0.3812329
0.3694827
0.357286
0.3446476
0.331564
0.3179905
0.3038989
0.2892583
0.2735834
0.2574128
0.2406342
0.2232233
0.2051588
0.4151112
0.4045836
0.3936732
0.3823607
0.3706253
0.3584721
0.3458992
0.332865
0.319344
0.3053085
0.2903034
0.2748557
0.2588593
0.2422864
0.2251069
0.4259915
0.4158289
0.4053015
0.3943914
0.3830792
0.3713706
0.3592647
0.3467225
0.3337209
0.3202345
0.3058317
0.2910214
0.2757035
0.2598516
0.2434367
0.4361553
0.4263293
0.4161546
0.4056144
0.3946907
0.3833898
0.3717112
0.3596186
0.3470906
0.3341039
0.3202462
0.3060085
0.2912962
0.2760855
0.2603501
0.1939158
0.1746361
0.154376
0.1330569
0.1106578
0.08760894
0.06702665
0.2116267
0.19317
0.173803
0.153446
0.1320167
0.1095422
0.08641225
0.06552998
0.2279793
0.2102569
0.191686
0.1721931
0.1516949
0.1301568
0.1075825
0.08422926
0.06276105
0.2431401
0.2260784
0.208221
0.189502
0.1698446
0.1492122
0.1275535
0.1047834
0.08110832
0.05877653
0.2573385
0.2408792
0.22367
0.2056514
0.1867546
0.1669483
0.1461811
0.1243271
0.1013093
0.07723178
0.05284597
0.2709879
0.2550945
0.2384921
0.2211269
0.2029368
0.1838982
0.1639657
0.143019
0.1209543
0.09766965
0.07224492
0.04637857
0.2847114
0.2693769
0.2533735
0.2366527
0.219159
0.2008747
0.1817622
0.1617134
0.1406349
0.1184166
0.09409467
0.06827943
0.0410988
0.2984937
0.2837097
0.268295
0.2522059
0.2353929
0.217843
0.1995258
0.1803452
0.160221
0.1390575
0.1159701
0.09152837
0.06537816
0.03741186
0.3121729
0.2979242
0.2830805
0.2676021
0.2514448
0.2345996
0.217042
0.1986864
0.1794637
0.1592929
0.1373654
0.1142541
0.08964766
0.06330004
0.03478977
0.3256372
0.311905
0.2976105
0.2827181
0.2671877
0.2510137
0.2341765
0.216599
0.1982217
0.1789753
0.1581132
0.1362018
0.1129755
0.08824734
0.06174726
0.03245957
0.3388396
0.325604
0.3118367
0.297505
0.2825726
0.2670368
0.2508818
0.2340379
0.2164531
0.1980678
0.1781844
0.1573546
0.1353454
0.1120116
0.08716197
0.06030556
0.03098541
0.3517815
0.3390241
0.3257629
0.3119683
0.2976073
0.2826793
0.267172
0.2510215
0.2341824
0.2166025
0.1976237
0.1777745
0.1568463
0.1347213
0.1112538
0.08605963
0.05924238
0.0297618
0.3645046
0.3522091
0.3394361
0.3261582
0.3123454
0.2979992
0.2831098
0.2676187
0.2514854
0.2346645
0.2165282
0.1975745
0.17761
0.1565343
0.134229
0.1103547
0.08517524
0.05820609