/*--------------------------------*- C++ -*----------------------------------*\
| =========                 |                                                 |
| \\      /  F ield         | OpenFOAM: The Open Source CFD Toolbox           |
|  \\    /   O peration     | Version:  2306                                  |
|   \\  /    A nd           | Website:  www.openfoam.com                      |
|    \\/     M anipulation  |                                                 |
\*---------------------------------------------------------------------------*/
FoamFile
{
    version     2.0;
    format      ascii;
    arch        "LSB;label=32;scalar=64";
    class       volScalarField;
    location    "1.2/fuel";
    object      X.H2;
}
// * * * * * * * * * * * * * * * * * * * * * * * * * * * * * * * * * * * * * //

dimensions      [0 0 0 0 0 0 0];

internalField   nonuniform List<scalar> 
16000
(
0.9317853
0.9330479
0.9115082
0.9318573
0.9355639
0.9124935
0.9331206
0.8887575
0.911574
0.9319983
0.9392607
0.9144552
0.935638
0.8896406
0.9125597
0.9332628
0.8666136
0.8888179
0.9117029
0.932206
0.9438732
0.9173365
0.9393371
0.8913998
0.9145223
0.9357828
0.8674367
0.8897014
0.9126894
0.9334723
0.845468
0.8666698
0.8889365
0.9118931
0.9324792
0.9486304
0.9209343
0.9439533
0.8939862
0.917405
0.9394865
0.8690757
0.8914612
0.9146536
0.9359962
0.8462438
0.8674931
0.8898206
0.9128806
0.9337479
0.8253143
0.8455206
0.8667801
0.8891116
0.9121433
0.9327497
0.9521084
0.9246604
0.9487156
0.8972204
0.9210051
0.94411
0.8714852
0.8940487
0.9175391
0.9397065
0.8477882
0.8691327
0.8915817
0.9148474
0.9362768
0.8260494
0.8462967
0.867604
0.8899966
0.9131323
0.9340206
0.8060842
0.8253639
0.845624
0.8669431
0.8893422
0.9123911
0.9329733
0.9542775
0.9274241
0.9521959
0.9005761
0.9247343
0.9488823
0.8744981
0.8972848
0.9211437
0.9443408
0.850058
0.8715431
0.8941713
0.9177369
0.9399957
0.8275122
0.8478415
0.8692446
0.8917596
0.9151022
0.9365545
0.806783
0.8260991
0.8464005
0.8677677
0.8902283
0.9133816
0.9342462
0.7877073
0.8061311
0.8254613
0.8457769
0.8671578
0.8895706
0.912596
0.9331953
0.9554958
0.9291807
0.9543657
0.9030708
0.9274991
0.9523669
0.8776244
0.9006429
0.9248791
0.9491279
0.8528954
0.8745576
0.897411
0.9213482
0.9446442
0.8296616
0.8501121
0.8716568
0.8943523
0.9179972
0.940282
0.8081733
0.8275624
0.8479463
0.8694098
0.8919937
0.9153546
0.9367843
0.7883733
0.80683
0.826197
0.846554
0.8679833
0.8904578
0.9135877
0.93447
0.7701197
0.7877518
0.8062233
0.8256055
0.8459784
0.8673706
0.8897595
0.9127993
0.9334155
0.95604
0.9301861
0.9555845
0.9046612
0.9292557
0.9545383
0.87995
0.9031383
0.9276458
0.9526187
0.8558391
0.877686
0.900774
0.9250927
0.9494508
0.8323477
0.8529509
0.8746743
0.8975972
0.9216172
0.9449446
0.8102156
0.8297124
0.8502184
0.8718246
0.8945906
0.9182549
0.9405193
0.7896981
0.8082207
0.827661
0.8481011
0.8696275
0.8922256
0.9155634
0.9370124
0.7707558
0.788418
0.8069226
0.8263417
0.8467563
0.8681971
0.8906477
0.9137923
0.9346922
0.7532649
0.7701621
0.7878394
0.8063598
0.8257956
0.8461781
0.8675466
0.8899469
0.9130011
0.933634
0.95604
0.9306414
0.9561287
0.9055744
0.9302611
0.9557576
0.881434
0.9047286
0.9294027
0.9547923
0.8580293
0.880012
0.9032707
0.9278623
0.9529499
0.835134
0.8558965
0.8778069
0.9009676
0.9253737
0.9497706
0.8127675
0.8323998
0.8530599
0.8748466
0.8978424
0.9218836
0.9451948
0.7916438
0.8102636
0.8298124
0.8503755
0.8720458
0.8948266
0.9184684
0.9407553
0.7720207
0.7897431
0.808314
0.8278069
0.8483051
0.8698432
0.8924175
0.9157707
0.937239
0.7538734
0.7707982
0.7885058
0.8070596
0.8265325
0.8469569
0.8683738
0.8908361
0.9139953
0.9349126
0.7370929
0.7533053
0.7702454
0.787969
0.8065398
0.8259841
0.8463433
0.8677212
0.8901329
0.9132013
0.934684
0.9554958
0.9306414
0.9561287
0.9059889
0.9307163
0.9563022
0.8822872
0.9056416
0.9304079
0.9560125
0.8594277
0.8814959
0.9048608
0.9296194
0.9551262
0.8372071
0.858087
0.8801339
0.903466
0.9281471
0.9532777
0.815414
0.8351878
0.8560093
0.8779857
0.9012225
0.9256521
0.9500394
0.7940745
0.8128167
0.8325023
0.8532209
0.8750737
0.8980853
0.9221052
0.9454449
0.7738783
0.7916893
0.8103582
0.8299604
0.8505826
0.872265
0.8950222
0.9186806
0.94099
0.7550833
0.7720635
0.7898316
0.808452
0.8279992
0.8485074
0.8700217
0.892608
0.9159765
0.9374638
0.7376759
0.7539138
0.7708818
0.7886359
0.8072402
0.8267217
0.8471227
0.8685492
0.891023
0.9141967
0.9359717
0.7215595
0.7371314
0.7533847
0.7703688
0.7881401
0.8067184
0.82614
0.8465072
0.8678944
0.8903174
0.914164
0.9353993
0.9542775
0.9301861
0.9555845
0.9059889
0.9307163
0.9563022
0.8826749
0.9060561
0.9308631
0.9565574
0.8602322
0.8823489
0.9057735
0.9306245
0.9563476
0.8385311
0.8594853
0.8816175
0.9050559
0.9299046
0.9554568
0.8173831
0.8372612
0.8582006
0.880314
0.9037234
0.9284293
0.9535533
0.796595
0.8154648
0.8352937
0.8561761
0.8782212
0.9014751
0.9258856
0.9503106
0.7761986
0.7941211
0.8129134
0.8326538
0.8534332
0.8752987
0.8982874
0.9223266
0.945695
0.7568599
0.7739216
0.791779
0.810498
0.8301554
0.8507878
0.8724465
0.8952166
0.9188917
0.9412235
0.7388349
0.755124
0.7721477
0.7899626
0.808634
0.8281899
0.8486748
0.8701989
0.8927971
0.9161808
0.9385446
0.7221186
0.7377145
0.7539936
0.7710057
0.7888075
0.8074195
0.8268782
0.8472873
0.8687233
0.8912084
0.9151653
0.9366963
0.706625
0.7215963
0.7372074
0.7535025
0.7705318
0.7883098
0.8068661
0.8262947
0.8466699
0.8680663
0.8912053
0.9148187
0.9359377
0.9521084
0.9291807
0.9543657
0.9055744
0.9302611
0.9557576
0.8826749
0.9060561
0.9308631
0.9565574
0.8605979
0.8827364
0.9061877
0.9310795
0.9568929
0.8392931
0.8602895
0.88247
0.9059681
0.9309093
0.9566792
0.818641
0.8385851
0.8595984
0.881797
0.9053128
0.930187
0.9557341
0.7984703
0.8174342
0.8373678
0.8583684
0.8805512
0.9039783
0.9286659
0.9538314
0.7786042
0.796643
0.8155647
0.8354505
0.856396
0.8784546
0.9016869
0.9261206
0.9505842
0.7590787
0.7762428
0.7942128
0.8130566
0.8328535
0.8536437
0.875486
0.8984892
0.9225476
0.945945
0.7405365
0.7569011
0.7740068
0.7919117
0.8106825
0.8303488
0.8509579
0.8726271
0.8954099
0.9191015
0.9423472
0.7232303
0.7388738
0.7552043
0.7722724
0.7901355
0.8088146
0.8283478
0.8488409
0.8703747
0.8929848
0.9171633
0.9392963
0.707162
0.7221556
0.7377907
0.7541117
0.7711691
0.7889779
0.8075677
0.8270335
0.8474506
0.8688959
0.8921009
0.9158263
0.9372444
0.692254
0.7066603
0.721669
0.73732
0.7536581
0.7706935
0.7884502
0.8070127
0.8264481
0.8468312
0.8688938
0.8918085
0.9153112
0.9362978
0.9486304
0.9274241
0.9521959
0.9046612
0.9292557
0.9545383
0.8822872
0.9056416
0.9304079
0.9560125
0.8605979
0.8827364
0.9061877
0.9310795
0.9568929
0.8396396
0.8606551
0.8828573
0.906382
0.9313641
0.957225
0.8193651
0.8393469
0.8604022
0.882649
0.9062243
0.9311914
0.956957
0.7996684
0.8186918
0.8386912
0.8597657
0.8820336
0.9055673
0.9304234
0.9560133
0.780394
0.7985186
0.8175346
0.8375254
0.8585897
0.8807864
0.9041922
0.9289041
0.9541119
0.7613787
0.7786498
0.7967378
0.8157127
0.8356572
0.856614
0.8786504
0.9019
0.9263571
0.9508602
0.7426615
0.7591208
0.77633
0.7943486
0.8132454
0.8330517
0.8538189
0.8756729
0.8986907
0.9227682
0.947154
0.7248623
0.7405759
0.7569824
0.7741331
0.7920868
0.8108656
0.830509
0.851127
0.8728065
0.8956021
0.9201119
0.9431719
0.7082295
0.7232675
0.7389505
0.7553233
0.772437
0.790307
0.8089641
0.8285044
0.8490058
0.8705493
0.8938883
0.9178428
0.9398754
0.6927702
0.7071974
0.7222285
0.7379036
0.7542677
0.7713314
0.7891187
0.8077148
0.8271875
0.8476127
0.8697272
0.8927092
0.9163254
0.9376126
0.6784142
0.6922878
0.70673
0.7217768
0.7374687
0.7538125
0.7708272
0.7885895
0.8071581
0.8266004
0.8476081
0.8694556
0.8922622
0.9156403
0.9364782
0.9438732
0.9246604
0.9487156
0.9030708
0.9274991
0.9523669
0.881434
0.9047286
0.9294027
0.9547923
0.8602322
0.8823489
0.9057735
0.9306245
0.9563476
0.8396396
0.8606551
0.8828573
0.906382
0.9313641
0.957225
0.8196944
0.8396932
0.8607676
0.8830359
0.9066378
0.931646
0.9575029
0.8003581
0.8194157
0.8394525
0.8605688
0.8828847
0.9064781
0.9314273
0.9572363
0.7815375
0.7997165
0.8187919
0.8388482
0.8599861
0.8822681
0.9057804
0.930661
0.9562944
0.76309
0.7804398
0.7986137
0.8176834
0.8377332
0.8588091
0.8809837
0.9044074
0.9291438
0.9543949
0.7448641
0.7614222
0.7787398
0.796878
0.815908
0.8358622
0.8567969
0.8788474
0.9021145
0.9265951
0.9522062
0.7269001
0.7427017
0.7592038
0.7764591
0.7945277
0.8134328
0.8332165
0.8539938
0.8758596
0.8988918
0.9238353
0.9481741
0.7097965
0.7249
0.7406535
0.7571028
0.7742998
0.7922606
0.8110172
0.8306683
0.8512951
0.8729849
0.8965281
0.9208422
0.9438477
0.6937962
0.7082651
0.7233409
0.7390641
0.7554803
0.7726003
0.7904489
0.8091124
0.8286599
0.8491695
0.87139
0.8945121
0.9183635
0.9402715
0.6789109
0.6928041
0.7072673
0.7223366
0.7380528
0.7544226
0.7714656
0.7892585
0.8078607
0.8273404
0.848393
0.8702935
0.8931684
0.9166601
0.9377976
0.6650764
0.6784467
0.6923547
0.7068333
0.7219192
0.7376164
0.7539401
0.7709599
0.7887277
0.8073023
0.8273337
0.8481354
0.869878
0.8925653
0.9158052
0.9392607
0.9209343
0.9439533
0.9005761
0.9247343
0.9488823
0.87995
0.9031383
0.9276458
0.9526187
0.8594277
0.8814959
0.9048608
0.9296194
0.9551262
0.8392931
0.8602895
0.88247
0.9059681
0.9309093
0.9566792
0.8196944
0.8396932
0.8607676
0.8830359
0.9066378
0.931646
0.9575029
0.8006719
0.8197449
0.8397987
0.8609338
0.8832712
0.9068913
0.9318816
0.9577822
0.782196
0.800406
0.8195153
0.8396088
0.8607884
0.8831184
0.9066903
0.931664
0.957517
0.7641834
0.7815832
0.7998112
0.81894
0.8390552
0.8602048
0.8824645
0.9059946
0.9308998
0.9565774
0.7465027
0.7631336
0.7805302
0.7987547
0.8178797
0.8379395
0.8589932
0.8811823
0.904624
0.9293851
0.9557743
0.7290121
0.7449055
0.7615079
0.7788731
0.7970632
0.8161018
0.8360343
0.856981
0.8790457
0.9023303
0.9277551
0.9536214
0.7117529
0.7269385
0.742781
0.7593269
0.7766295
0.7947055
0.8135887
0.8333812
0.8541684
0.876046
0.8998653
0.9247056
0.9491548
0.6953023
0.7098325
0.7249742
0.7407685
0.7572617
0.7744652
0.7924046
0.811168
0.8308267
0.8514622
0.8738452
0.8971959
0.9214321
0.9443414
0.679898
0.6938304
0.7083354
0.7234497
0.7392142
0.7556362
0.7727355
0.7905898
0.8092596
0.8288142
0.849958
0.87197
0.8949899
0.918718
0.9404735
0.6655547
0.6789435
0.6928712
0.7073709
0.7224794
0.7382009
0.7545507
0.7715987
0.7893971
0.8080055
0.8280768
0.8489243
0.8707209
0.8934763
0.9168282
0.652214
0.6651077
0.6785109
0.6924538
0.7069698
0.7220606
0.7377385
0.7540668
0.7710916
0.7888647
0.8079973
0.8278313
0.8485319
0.8701603
0.892717
0.9355639
0.9173365
0.9393371
0.8972204
0.9210051
0.94411
0.8776244
0.9006429
0.9248791
0.9491279
0.8580293
0.880012
0.9032707
0.9278623
0.9529499
0.8385311
0.8594853
0.8816175
0.9050559
0.9299046
0.9554568
0.8193651
0.8393469
0.8604022
0.882649
0.9062243
0.9311914
0.956957
0.8006719
0.8197449
0.8397987
0.8609338
0.8832712
0.9068913
0.9318816
0.9577822
0.7824955
0.8007197
0.8198443
0.8399546
0.861153
0.8835044
0.9071031
0.9321178
0.9580627
0.7648131
0.7822414
0.8005003
0.8196628
0.839815
0.8610062
0.8833137
0.9069033
0.9319015
0.9577992
0.7475498
0.7642269
0.7816731
0.7999515
0.8191354
0.8392605
0.8603878
0.8826618
0.9062098
0.9311396
0.9579542
0.7305833
0.7465443
0.7632197
0.7806641
0.7989407
0.8180744
0.8381125
0.8591785
0.8813822
0.9048421
0.9305609
0.9572031
0.7137803
0.7290517
0.7449873
0.761635
0.7790492
0.797247
0.8162643
0.8362074
0.8571663
0.8792453
0.9033831
0.9289123
0.9553698
0.6971825
0.7117896
0.7270143
0.7428985
0.7594894
0.7767987
0.7948534
0.8137444
0.8335456
0.8543427
0.8769485
0.9006561
0.9255172
0.9500217
0.6813468
0.6953368
0.7099036
0.7250842
0.7409204
0.7574196
0.7746023
0.7925477
0.8113178
0.8309842
0.8522684
0.8744651
0.8977343
0.921857
0.9446087
0.6665051
0.6799308
0.6938978
0.7084397
0.7235934
0.7393633
0.7557652
0.7728697
0.7907297
0.8094058
0.829558
0.8505019
0.8724142
0.8953149
0.918898
0.6526748
0.665586
0.6790078
0.6929706
0.7075078
0.7226213
0.7383233
0.7546778
0.7717308
0.7895347
0.8087032
0.828578
0.8493252
0.8710074
0.8936309
0.6398023
0.652244
0.6651694
0.6786062
0.6925849
0.7071055
0.7221776
0.7378596
0.7541925
0.7712222
0.7895253
0.8084686
0.8282053
0.8487968
0.8703016
0.9330479
0.9144552
0.935638
0.8939862
0.917405
0.9394865
0.8744981
0.8972848
0.9211437
0.9443408
0.8558391
0.877686
0.900774
0.9250927
0.9494508
0.8372071
0.858087
0.8801339
0.903466
0.9281471
0.9532777
0.818641
0.8385851
0.8595984
0.881797
0.9053128
0.930187
0.9557341
0.8003581
0.8194157
0.8394525
0.8605688
0.8828847
0.9064781
0.9314273
0.9572363
0.7824955
0.8007197
0.8198443
0.8399546
0.861153
0.8835044
0.9071031
0.9321178
0.9580627
0.7650995
0.7825408
0.8008137
0.8199914
0.8401603
0.8613702
0.8836993
0.9073154
0.9323547
0.9583444
0.7481528
0.7648563
0.782331
0.80064
0.8198573
0.8400194
0.8611883
0.8835098
0.907117
0.9321398
0.9591698
0.7315873
0.7475912
0.7643125
0.7818064
0.8001366
0.8193292
0.8394325
0.8605718
0.88286
0.9064259
0.9323063
0.9593146
0.7152886
0.7306231
0.7466265
0.7633473
0.780841
0.7991253
0.8182378
0.8382866
0.8593651
0.8815834
0.9059053
0.9317206
0.9589012
0.6991308
0.7138183
0.7291299
0.7451086
0.7618028
0.779224
0.7974011
0.816428
0.8363816
0.8573527
0.8802193
0.9044289
0.9302891
0.9575827
0.6831553
0.6972177
0.7118622
0.7271267
0.7430537
0.7596507
0.7769395
0.7950012
0.8138998
0.8337097
0.8551875
0.8776813
0.9013917
0.9262154
0.9506163
0.6678999
0.6813799
0.695405
0.710009
0.7252296
0.7410712
0.7575503
0.7747385
0.79269
0.8114668
0.831744
0.8528491
0.8749649
0.8981216
0.9220845
0.6535905
0.6665366
0.6799955
0.6939979
0.7085774
0.7237362
0.7394867
0.7558933
0.7730029
0.7908685
0.8101102
0.8300708
0.8509183
0.8727163
0.8954799
0.6402466
0.6527049
0.6656478
0.6791033
0.693102
0.7076438
0.7227386
0.7384449
0.7548039
0.7718619
0.7901978
0.809178
0.8289562
0.849594
0.8711513
0.6278189
0.6398313
0.6523034
0.665261
0.6787321
0.6927151
0.7072177
0.7222936
0.7379798
0.7543172
0.7718516
0.7899732
0.808823
0.8284552
0.8489294
0.9317853
0.9124935
0.9331206
0.8913998
0.9145223
0.9357828
0.8714852
0.8940487
0.9175391
0.9397065
0.8528954
0.8745576
0.897411
0.9213482
0.9446442
0.835134
0.8558965
0.8778069
0.9009676
0.9253737
0.9497706
0.8173831
0.8372612
0.8582006
0.880314
0.9037234
0.9284293
0.9535533
0.7996684
0.8186918
0.8386912
0.8597657
0.8820336
0.9055673
0.9304234
0.9560133
0.782196
0.800406
0.8195153
0.8396088
0.8607884
0.8831184
0.9066903
0.931664
0.957517
0.7650995
0.7825408
0.8008137
0.8199914
0.8401603
0.8613702
0.8836993
0.9073154
0.9323547
0.9583444
0.7484271
0.7651426
0.7826302
0.800953
0.8201855
0.8403643
0.8615518
0.8838948
0.9075284
0.9325923
0.9597119
0.7321655
0.748194
0.7649415
0.7824636
0.8008242
0.8200503
0.8401904
0.861371
0.8837066
0.9073315
0.9332976
0.9604797
0.7162524
0.7316269
0.7476729
0.7644394
0.7819823
0.8003203
0.8194916
0.8396053
0.8607567
0.8830593
0.9074784
0.9334091
0.9608623
0.7005801
0.7153267
0.7307016
0.7467482
0.7635158
0.7810165
0.7992802
0.8184023
0.8384619
0.8595529
0.8825653
0.9069512
0.9330519
0.9608846
0.6850293
0.6991671
0.7138931
0.7292459
0.7452689
0.7619694
0.7793707
0.7975563
0.8165926
0.836557
0.8582633
0.8811872
0.9056698
0.931984
0.9605101
0.669641
0.6831892
0.6972873
0.7119699
0.7272753
0.7432079
0.759785
0.77708
0.7951487
0.8140551
0.8345052
0.8558733
0.8783629
0.9020228
0.9266833
0.6549344
0.6679318
0.6814454
0.6955062
0.7101484
0.725374
0.7411962
0.7576803
0.774874
0.7928315
0.8121861
0.8322912
0.8533173
0.8753244
0.8983288
0.6411296
0.6536208
0.6665988
0.6800916
0.6941301
0.7087143
0.7238542
0.7396091
0.7560204
0.7731351
0.7915378
0.8105957
0.8304635
0.8512016
0.8728698
0.6282476
0.6402756
0.6527644
0.6657397
0.6792296
0.6932326
0.7077563
0.722855
0.7385655
0.754929
0.7724936
0.7906489
0.8095362
0.8292097
0.849729
0.616243
0.6278468
0.6398884
0.6523916
0.6653821
0.6788573
0.6928228
0.7073289
0.7224088
0.7380991
0.7549182
0.7722783
0.7903099
0.8090597
0.8285803
0.9115082
0.9318573
0.8896406
0.9125597
0.9332628
0.8690757
0.8914612
0.9146536
0.9359962
0.850058
0.8715431
0.8941713
0.9177369
0.9399957
0.8323477
0.8529509
0.8746743
0.8975972
0.9216172
0.9449446
0.815414
0.8351878
0.8560093
0.8779857
0.9012225
0.9256521
0.9500394
0.7984703
0.8174342
0.8373678
0.8583684
0.8805512
0.9039783
0.9286659
0.9538314
0.7815375
0.7997165
0.8187919
0.8388482
0.8599861
0.8822681
0.9057804
0.930661
0.9562944
0.7648131
0.7822414
0.8005003
0.8196628
0.839815
0.8610062
0.8833137
0.9069033
0.9319015
0.9577992
0.7484271
0.7651426
0.7826302
0.800953
0.8201855
0.8403643
0.8615518
0.8838948
0.9075284
0.9325923
0.9597119
0.7324286
0.7484682
0.7652277
0.7827625
0.8011369
0.820378
0.8405348
0.861734
0.8840908
0.907742
0.9337456
0.9609988
0.7168075
0.7322049
0.7482753
0.7650679
0.7826387
0.8010071
0.8202117
0.840362
0.8615544
0.8839041
0.9083743
0.934359
0.96193
0.7015063
0.7162903
0.731705
0.7477941
0.7646071
0.782157
0.8004742
0.8196548
0.839779
0.8609425
0.8840299
0.9084716
0.9346218
0.9625881
0.6864233
0.7006166
0.7154018
0.730818
0.7469091
0.7636831
0.7811638
0.7994362
0.8185679
0.8386384
0.8604698
0.8835319
0.9081503
0.9345664
0.9631582
0.671445
0.6850642
0.6992389
0.7140042
0.7293993
0.7454281
0.7621093
0.7795183
0.7977125
0.8167584
0.837414
0.859169
0.8823365
0.9071944
0.9341858
0.9652497
0.6566118
0.6696735
0.683256
0.6973906
0.7121122
0.7274228
0.7433362
0.7599191
0.7772204
0.795296
0.8148076
0.8351512
0.8565116
0.8789478
0.902445
0.6424253
0.6549651
0.6679947
0.6815425
0.6956399
0.7102868
0.7254937
0.7413205
0.7578096
0.7750087
0.7935145
0.812704
0.8327324
0.8536541
0.8755167
0.6290995
0.6411587
0.6536807
0.6666912
0.6802186
0.6942615
0.7088275
0.7239715
0.7397306
0.7561466
0.7737726
0.791999
0.8109675
0.8307305
0.8513454
0.6166568
0.6282756
0.640333
0.6528528
0.6658612
0.6793551
0.6933406
0.707868
0.7229705
0.7386851
0.7555321
0.7729233
0.7909892
0.8097763
0.829337
0.6050552
0.6162699
0.6279019
0.6399733
0.6525082
0.6655026
0.6789608
0.6929297
0.7074394
0.722523
0.7386739
0.7553256
0.7725991
0.7905349
0.8091782
0.8887575
0.911574
0.9319983
0.8674367
0.8897014
0.9126894
0.9334723
0.8477882
0.8691327
0.8915817
0.9148474
0.9362768
0.8296616
0.8501121
0.8716568
0.8943523
0.9179972
0.940282
0.8127675
0.8323998
0.8530599
0.8748466
0.8978424
0.9218836
0.9451948
0.796595
0.8154648
0.8352937
0.8561761
0.8782212
0.9014751
0.9258856
0.9503106
0.780394
0.7985186
0.8175346
0.8375254
0.8585897
0.8807864
0.9041922
0.9289041
0.9541119
0.7641834
0.7815832
0.7998112
0.81894
0.8390552
0.8602048
0.8824645
0.9059946
0.9308998
0.9565774
0.7481528
0.7648563
0.782331
0.80064
0.8198573
0.8400194
0.8611883
0.8835098
0.907117
0.9321398
0.9591698
0.7324286
0.7484682
0.7652277
0.7827625
0.8011369
0.820378
0.8405348
0.861734
0.8840908
0.907742
0.9337456
0.9609988
0.71706
0.7324678
0.7485494
0.7653537
0.7829372
0.8013193
0.820539
0.8407058
0.8619166
0.8842874
0.90878
0.934788
0.9624061
0.7020396
0.7168451
0.7322826
0.7483959
0.7652347
0.7828126
0.8011601
0.8203737
0.8405343
0.8617385
0.8848649
0.9093294
0.9354955
0.9635115
0.687314
0.7015425
0.716365
0.7318208
0.7479541
0.7647735
0.7823033
0.8006289
0.8198188
0.8399535
0.8618482
0.8849468
0.9095635
0.9359374
0.9644736
0.6727868
0.6864583
0.7006886
0.7155133
0.7309719
0.7470689
0.7638235
0.7813121
0.7995932
0.8187347
0.8395007
0.8613735
0.8846414
0.9095133
0.9362672
0.9660796
0.6583497
0.6714785
0.6851331
0.6993455
0.7141511
0.7295516
0.7455617
0.76225
0.7796669
0.7978698
0.8175687
0.838267
0.8602455
0.8837492
0.9091724
0.9377314
0.9677745
0.6440424
0.6566431
0.6697377
0.6833551
0.6975271
0.7122536
0.7275456
0.7434643
0.760053
0.7773606
0.7960104
0.8154188
0.8357527
0.8570595
0.8793393
0.6303494
0.6424547
0.6550256
0.6680881
0.681671
0.6957727
0.7104015
0.7256127
0.7414441
0.7579381
0.7756591
0.7940063
0.8131216
0.8330499
0.8538343
0.6174791
0.6291275
0.6412164
0.6537696
0.6668134
0.6803449
0.6943702
0.70894
0.7240879
0.7398513
0.7567551
0.7742118
0.7923521
0.8112204
0.8308662
0.6054549
0.6166838
0.6283308
0.6404181
0.6529697
0.6659819
0.6794589
0.6934478
0.7079787
0.7230851
0.7392619
0.7559423
0.7732475
0.7912174
0.8098969
0.5942376
0.6050811
0.616323
0.6279837
0.6400857
0.6526241
0.6656021
0.6790635
0.6930357
0.7075489
0.7230736
0.7390635
0.7556318
0.7728134
0.7906475
0.8666136
0.8888179
0.9117029
0.932206
0.8462438
0.8674931
0.8898206
0.9128806
0.9337479
0.8275122
0.8478415
0.8692446
0.8917596
0.9151022
0.9365545
0.8102156
0.8297124
0.8502184
0.8718246
0.8945906
0.9182549
0.9405193
0.7940745
0.8128167
0.8325023
0.8532209
0.8750737
0.8980853
0.9221052
0.9454449
0.7786042
0.796643
0.8155647
0.8354505
0.856396
0.8784546
0.9016869
0.9261206
0.9505842
0.76309
0.7804398
0.7986137
0.8176834
0.8377332
0.8588091
0.8809837
0.9044074
0.9291438
0.9543949
0.7475498
0.7642269
0.7816731
0.7999515
0.8191354
0.8392605
0.8603878
0.8826618
0.9062098
0.9311396
0.9579542
0.7321655
0.748194
0.7649415
0.7824636
0.8008242
0.8200503
0.8401904
0.861371
0.8837066
0.9073315
0.9332976
0.9604797
0.71706
0.7324678
0.7485494
0.7653537
0.7829372
0.8013193
0.820539
0.8407058
0.8619166
0.8842874
0.90878
0.934788
0.9624061
0.7022823
0.7170976
0.7325454
0.7486696
0.7655201
0.7831106
0.8014718
0.8207004
0.8408773
0.8620998
0.8852435
0.9097177
0.935891
0.9639265
0.6878271
0.7020758
0.7169195
0.7323979
0.7485552
0.7654004
0.782958
0.8013136
0.8205363
0.8407071
0.8626346
0.8857459
0.9103523
0.9367
0.9652102
0.6736442
0.6873489
0.7016142
0.7164759
0.7319738
0.7481131
0.764913
0.7824504
0.8007844
0.8199836
0.8408048
0.8627046
0.885956
0.9107479
0.937341
0.9668081
0.6596423
0.6728204
0.6865274
0.7007955
0.7156607
0.7311248
0.747203
0.7639649
0.7814615
0.7997513
0.8195495
0.8403513
0.8624119
0.8859036
0.9110435
0.9384186
0.9681256
0.6457177
0.6583819
0.6715447
0.6852354
0.6994864
0.7142971
0.7296794
0.7456961
0.7623917
0.7798165
0.7986387
0.8183758
0.8392817
0.8615696
0.8855827
0.9123599
0.9397534
0.9696373
0.6319094
0.6440724
0.6567048
0.669833
0.6834863
0.6976628
0.7123713
0.7276682
0.7435922
0.7601867
0.7780406
0.7965906
0.8159881
0.8362692
0.8574264
0.6186857
0.6303778
0.642513
0.6551154
0.6682116
0.6817986
0.6958828
0.7105156
0.7257309
0.7415669
0.7585587
0.7761273
0.7944029
0.8134221
0.8332198
0.606249
0.6175062
0.6291831
0.641302
0.6538872
0.6669348
0.6804493
0.6944781
0.7090515
0.7242034
0.7404331
0.7571742
0.7745481
0.7925923
0.8113488
0.5946238
0.6054808
0.616737
0.6284128
0.6405307
0.653086
0.6660817
0.6795619
0.6935541
0.7080886
0.7236375
0.7396542
0.7562518
0.7734648
0.7913319
0.5837735
0.5942626
0.6051323
0.6164019
0.628092
0.6401974
0.65272
0.6657009
0.6791654
0.6931409
0.708077
0.7234467
0.7393563
0.7558363
0.7729207
0.845468
0.8666698
0.8889365
0.9118931
0.9324792
0.8260494
0.8462967
0.867604
0.8899966
0.9131323
0.9340206
0.8081733
0.8275624
0.8479463
0.8694098
0.8919937
0.9153546
0.9367843
0.7916438
0.8102636
0.8298124
0.8503755
0.8720458
0.8948266
0.9184684
0.9407553
0.7761986
0.7941211
0.8129134
0.8326538
0.8534332
0.8752987
0.8982874
0.9223266
0.945695
0.7613787
0.7786498
0.7967378
0.8157127
0.8356572
0.856614
0.8786504
0.9019
0.9263571
0.9508602
0.7465027
0.7631336
0.7805302
0.7987547
0.8178797
0.8379395
0.8589932
0.8811823
0.904624
0.9293851
0.9557743
0.7315873
0.7475912
0.7643125
0.7818064
0.8001366
0.8193292
0.8394325
0.8605718
0.88286
0.9064259
0.9323063
0.9593146
0.7168075
0.7322049
0.7482753
0.7650679
0.7826387
0.8010071
0.8202117
0.840362
0.8615544
0.8839041
0.9083743
0.934359
0.96193
0.7022823
0.7170976
0.7325454
0.7486696
0.7655201
0.7831106
0.8014718
0.8207004
0.8408773
0.8620998
0.8852435
0.9097177
0.935891
0.9639265
0.6880605
0.7023184
0.7171718
0.7326604
0.7488285
0.7656854
0.7832556
0.8016248
0.8208623
0.8410493
0.8629913
0.886108
0.9107102
0.9370487
0.9655497
0.6741381
0.6878617
0.7021471
0.7170299
0.7325502
0.7487133
0.7655389
0.783104
0.8014678
0.8206995
0.8415491
0.8634571
0.8866908
0.9114369
0.9379613
0.967298
0.6604683
0.6736777
0.6874176
0.7017205
0.7166225
0.7321259
0.7482462
0.7650531
0.7825982
0.8009406
0.8207877
0.8416103
0.8636485
0.8870519
0.9120119
0.9390433
0.968533
0.6469638
0.6596746
0.6728868
0.68663
0.7009369
0.7158072
0.731253
0.747338
0.7641072
0.7816118
0.8005242
0.8203539
0.8413296
0.8635942
0.8873215
0.9129804
0.9400755
0.96981
0.6335254
0.6457487
0.6584455
0.671643
0.6853707
0.6996264
0.7144195
0.729808
0.7458315
0.7625344
0.7805481
0.7994049
0.8193366
0.8405306
0.8632888
0.8885399
0.9141785
0.941357
0.9710665
0.6201914
0.6319383
0.6441319
0.6567965
0.6699591
0.6836166
0.6977757
0.7124888
0.7277907
0.74372
0.7608353
0.7785929
0.7971312
0.8164771
0.8366152
0.6074143
0.618713
0.6304339
0.6425995
0.6552343
0.6683343
0.6819044
0.6959923
0.7106289
0.7258485
0.7421602
0.7590055
0.7765049
0.7946884
0.813583
0.5953912
0.6062751
0.6175597
0.6292656
0.6414152
0.6540041
0.6670352
0.680553
0.6945852
0.7091623
0.7247606
0.7408339
0.7574952
0.7747769
0.7927143
0.5841469
0.5946489
0.6055322
0.6168161
0.6285214
0.6406427
0.6531821
0.6661808
0.6796641
0.6936596
0.7086184
0.7240132
0.7399501
0.7564592
0.7735739
0.5736474
0.5837976
0.594312
0.6052085
0.6165064
0.6281997
0.6402897
0.6528151
0.6657989
0.6792665
0.6936479
0.7084348
0.7237272
0.739552
0.7559388
0.8253143
0.8455206
0.8667801
0.8891116
0.9121433
0.9327497
0.806783
0.8260991
0.8464005
0.8677677
0.8902283
0.9133816
0.9342462
0.7896981
0.8082207
0.827661
0.8481011
0.8696275
0.8922256
0.9155634
0.9370124
0.7738783
0.7916893
0.8103582
0.8299604
0.8505826
0.872265
0.8950222
0.9186806
0.94099
0.7590787
0.7762428
0.7942128
0.8130566
0.8328535
0.8536437
0.875486
0.8984892
0.9225476
0.945945
0.7448641
0.7614222
0.7787398
0.796878
0.815908
0.8358622
0.8567969
0.8788474
0.9021145
0.9265951
0.9522062
0.7305833
0.7465443
0.7632197
0.7806641
0.7989407
0.8180744
0.8381125
0.8591785
0.8813822
0.9048421
0.9305609
0.9572031
0.7162524
0.7316269
0.7476729
0.7644394
0.7819823
0.8003203
0.8194916
0.8396053
0.8607567
0.8830593
0.9074784
0.9334091
0.9608623
0.7020396
0.7168451
0.7322826
0.7483959
0.7652347
0.7828126
0.8011601
0.8203737
0.8405343
0.8617385
0.8848649
0.9093294
0.9354955
0.9635115
0.6880605
0.7023184
0.7171718
0.7326604
0.7488285
0.7656854
0.7832556
0.8016248
0.8208623
0.8410493
0.8629913
0.886108
0.9107102
0.9370487
0.9655497
0.6743628
0.688095
0.7023895
0.7172819
0.7328123
0.7489863
0.7658235
0.783401
0.8017783
0.8210247
0.8418868
0.8637982
0.8870245
0.9117527
0.9382527
0.9675404
0.660944
0.6741713
0.6879301
0.7022529
0.7171758
0.7327015
0.7488457
0.765678
0.7832505
0.8016224
0.8214947
0.8423224
0.8643403
0.8876938
0.9125735
0.9394762
0.9688481
0.64776
0.6605004
0.6737437
0.6875197
0.7018611
0.7167682
0.7322532
0.74838
0.765194
0.7827467
0.8017031
0.8215492
0.842499
0.8646743
0.8882226
0.9135465
0.9404567
0.9700416
0.6347274
0.6469948
0.6597384
0.6729854
0.6867658
0.7010774
0.7159301
0.7313822
0.747474
0.7642505
0.782347
0.8012876
0.8212798
0.8424442
0.8649231
0.8891176
0.9144742
0.9415447
0.9711659
0.6217511
0.6335553
0.6458099
0.6585401
0.671773
0.6855051
0.6997439
0.7145428
0.7299376
0.7459678
0.7632321
0.7812776
0.8003176
0.8205197
0.8421529
0.8660637
0.890225
0.9156254
0.9426655
0.9721739
0.6088684
0.6202193
0.6319956
0.6442201
0.6569178
0.6700844
0.6837251
0.6978885
0.7126062
0.727913
0.7443399
0.7613623
0.7791077
0.7975958
0.8168048
0.5965172
0.6074407
0.6187671
0.6305173
0.642714
0.6553524
0.668436
0.6820095
0.6961011
0.7107417
0.7264166
0.7425872
0.7593658
0.7767767
0.7948412
0.5848888
0.5954164
0.6063268
0.6176393
0.6293747
0.6415279
0.6541008
0.667135
0.680656
0.6946915
0.7096966
0.7251443
0.7411407
0.7577136
0.7748931
0.5740085
0.5841711
0.5946985
0.6056086
0.6169208
0.6286294
0.6407353
0.6532775
0.6662791
0.6797655
0.6941683
0.7089786
0.7242965
0.7401484
0.7565633
0.5638447
0.5736707
0.5838454
0.5943856
0.6053093
0.6166102
0.6282888
0.6403814
0.6529094
0.6658961
0.6797538
0.6939915
0.7087038
0.7239145
0.7396499
0.8060842
0.8253639
0.845624
0.8669431
0.8893422
0.9123911
0.9329733
0.7883733
0.80683
0.826197
0.846554
0.8679833
0.8904578
0.9135877
0.93447
0.7720207
0.7897431
0.808314
0.8278069
0.8483051
0.8698432
0.8924175
0.9157707
0.937239
0.7568599
0.7739216
0.791779
0.810498
0.8301554
0.8507878
0.8724465
0.8952166
0.9188917
0.9412235
0.7426615
0.7591208
0.77633
0.7943486
0.8132454
0.8330517
0.8538189
0.8756729
0.8986907
0.9227682
0.947154
0.7290121
0.7449055
0.7615079
0.7788731
0.7970632
0.8161018
0.8360343
0.856981
0.8790457
0.9023303
0.9277551
0.9536214
0.7152886
0.7306231
0.7466265
0.7633473
0.780841
0.7991253
0.8182378
0.8382866
0.8593651
0.8815834
0.9059053
0.9317206
0.9589012
0.7015063
0.7162903
0.731705
0.7477941
0.7646071
0.782157
0.8004742
0.8196548
0.839779
0.8609425
0.8840299
0.9084716
0.9346218
0.9625881
0.6878271
0.7020758
0.7169195
0.7323979
0.7485552
0.7654004
0.782958
0.8013136
0.8205363
0.8407071
0.8626346
0.8857459
0.9103523
0.9367
0.9652102
0.6743628
0.688095
0.7023895
0.7172819
0.7328123
0.7489863
0.7658235
0.783401
0.8017783
0.8210247
0.8418868
0.8637982
0.8870245
0.9117527
0.9382527
0.9675404
0.6611604
0.674396
0.6881633
0.702495
0.7174274
0.7329632
0.7491182
0.7659621
0.7835469
0.8019322
0.8218156
0.8426454
0.8646546
0.8879884
0.912838
0.9396944
0.9690146
0.6482185
0.6609759
0.6742371
0.6880317
0.7023927
0.7173207
0.732828
0.7489785
0.7658176
0.7833975
0.8023763
0.8222255
0.8431537
0.8652787
0.8887462
0.9139404
0.9407576
0.9702382
0.6354954
0.6477909
0.6605639
0.6738418
0.6876546
0.7020008
0.7168902
0.7323813
0.7485146
0.7653355
0.7834718
0.8024255
0.82239
0.8434657
0.865771
0.8896453
0.9148248
0.9417939
0.9713066
0.6229112
0.6347573
0.6470563
0.6598333
0.6731159
0.6869007
0.7011953
0.7160538
0.7315123
0.7476109
0.7649515
0.7830736
0.8021669
0.8223354
0.8436977
0.8666075
0.8905026
0.9158027
0.9427986
0.9722403
0.6103747
0.6217799
0.6336143
0.645901
0.6586652
0.6719023
0.685618
0.6998622
0.714667
0.730068
0.7466345
0.7639281
0.7821469
0.8014421
0.8220571
0.8447726
0.8676437
0.8915657
0.916809
0.943728
0.9730229
0.5979222
0.6088953
0.6202744
0.6320806
0.644337
0.6570384
0.6701887
0.6838334
0.6980011
0.7127234
0.7285064
0.7448436
0.7618535
0.7795501
0.7979072
0.5859772
0.5965426
0.6074929
0.6188475
0.6306276
0.6428278
0.6554503
0.6685372
0.6821141
0.6962093
0.7112863
0.7268254
0.7429317
0.7596252
0.7769223
0.574726
0.5849131
0.5954663