/*--------------------------------*- C++ -*----------------------------------*\
| =========                 |                                                 |
| \\      /  F ield         | OpenFOAM: The Open Source CFD Toolbox           |
|  \\    /   O peration     | Version:  2306                                  |
|   \\  /    A nd           | Website:  www.openfoam.com                      |
|    \\/     M anipulation  |                                                 |
\*---------------------------------------------------------------------------*/
FoamFile
{
    version     2.0;
    format      ascii;
    arch        "LSB;label=32;scalar=64";
    class       volScalarField;
    location    "1.2";
    object      contErrCp;
}
// * * * * * * * * * * * * * * * * * * * * * * * * * * * * * * * * * * * * * //

dimensions      [1 -1 -3 -1 0 0 0];

internalField   nonuniform List<scalar> 
52000
(
0
0
0
0
0
0
0
0
0
0
0
0
0
0
0
0
0
0
0
0
0
0
0
0
0
0
0
0
0
0
0
0
0
0
0
0
0
0
0
0
0
0
0
0
0
0
0
0
0
0
0
0
0
0
0
0
0
0
0
0
0
0
0
0
0
0
0
0
0
0
0
0
0
0
0
0
0
0
0
0
0
0
0
0
0
0
0
0
0
0
0
0
0
0
0
0
0
0
0
0
0
0
0
0
0
0
0
0
0
0
0
0
0
0
0
0
0
0
0
0
0
0
0
0
0
0
0
0
0
0
0
0
0
0
0
0
0
0
0
0
0
0
0
0
0
0
0
0
0
0
0
0
0
0
0
0
0
0
0
0
0
0
0
0
0
0
0
0
0
0
0
0
0
0
0
0
0
0
0
0
0
0
0
0
0
0
0
0
0
0
0
0
0
0
0
0
0
0
0
0
0
0
0
0
0
0
0
0
0
0
0
0
0
0
0
0
0
0
0
0
0
0
0
0
0
0
0
0
0
0
0
0
0
0
0
0
0
0
0
0
0.0001056282
0
0
0
0
0
0
0
0
0
0
0
0
0
0
0
0
0
0
0
0
0
0
0
0
0
0
0
0
0
0
0
0
0
0
0
0
0
0
0
0
0
0
0
0
0
0
0
0
0
0
0
0
0
0
0
0
0
0
0
0
0
0
0
0
0
-0.0006107397
0
0
0
0
0
3.164357e-05
-0.0002248333
0
0
0
0
0
0
0
0
0
0
0
0
0
0
0
0
0
0
0
0
0
0
0
0
0
0
0
0
0
0
0
0
0
0
0
0
0
0
0
0
0
0
0
0
0
0
0
0
0
0
0
0
0
0
0
0
0
0
0
0
0
0
0
0
0
0
0
0
0
0
-0.0001594801
0
0
0
0
0
0.0002806073
-2.740121e-05
0
0
0
0
0
5.352244e-05
-0.0001779546
-0.0003518387
0
0
0
0
0
0
0
0
0
0
0
0
0
0
0
0
0
0
0
0
0
0
0
0
0
0
0
0
0
0
0
0
0
0
0
0
0
0
0
0
0
0
0
0
0
0
0
0
0
0
0
0
0
0
0
0
0
0
0
0
0
0
0
0
0
0
0
0
0
0
0
0
0
0
0
0.0003493626
0
0
0
0
0
0.0002518152
0.001190861
0
0
0
0
0
-0.0001079514
-0.0004607948
0.002193858
0
0
0
0
0
0.0002934309
6.972697e-05
-0.000176862
0.00070702
0
0
0
0
0
0
0
0
0
0
0
0
0
0
0
0
0
0
0
0
0
0
0
0
0
0
0
0
0
0
0
0
0
0
0
0
0
0
0
0
0
0
0
0
0
0
0
0
0
0
0
0
0
0
0
0
0
0
0
0
0
0
0
0
0
0
0
0
0
0
0
0
0
0
0
0
0
0
0
0
-0.0004398097
0
0
0
0
0
-0.0001014466
6.00949e-05
0
0
0
0
0
-0.0001220657
-0.001093398
-0.002313788
0
0
0
0
0
-0.0003719132
-0.0002206428
0.0009990548
-0.002048524
0
0
0
0
0
9.372415e-05
0.0002844742
-0.0001299947
0.0008697356
-0.0003264677
0
0
0
0
0
0
0
0
0
0
0
0
0
0
0
0
0
0
0
0
0
0
0
0
0
0
0
0
0
0
0
0
0
0
0
0
0
0
0
0
0
0
0
0
0
0
0
0
0
0
0
0
0
0
0
0
0
0
0
0
0
0
0
0
0
0
0
0
0
0
0
0
0
0
0
0
0
0
0
0
0
0
0
0
0
0.0003713994
0
0
0
0
0
0.0007280987
-0.0009741523
0
0
0
0
0
-8.462692e-05
0.001220253
0.0001107101
0
0
0
0
0
0.0003420815
0.0002058204
0.001422472
0.001416782
0
0
0
0
0
-0.0003773056
-0.001524481
0.0003558342
-0.001522629
0.001363259
0
0
0
0
0
0.0001213837
-0.000110421
0.0001059644
-0.0004056681
-0.0003499555
3.229977e-05
0
0
0
0
0
0
0
0
0
0
0
0
0
0
0
0
0
0
0
0
0
0
0
0
0
0
0
0
0
0
0
0
0
0
0
0
0
0
0
0
0
0
0
0
0
0
0
0
0
0
0
0
0
0
0
0
0
0
0
0
0
0
0
0
0
0
0
0
0
5.92049e-09
0
0
0
0
0
0
0
0
0
0
0
0
0
0
0
0
0
0
0
0
-0.000233202
0
0
0
0
0
-0.0004554139
0.0006473827
0
0
0
0
0
-0.0005977714
-0.0005360801
0.001034637
0
0
0
0
0
0.0006676418
8.111182e-05
-0.0002683041
0.002150631
0
0
0
0
0
-0.0001625102
0.0006381535
-0.0005526556
-0.0004766878
-0.001479079
0
0
0
0
0
0.0004357465
0.000179079
0.001327964
-0.0003516166
0.0002269883
-0.001282767
0
0
0
0
0
2.468078e-05
0.0001395199
-5.529491e-06
-7.17404e-05
0.0006720692
0.0004592858
0.0008434705
0
0
0
0
0
0
0
0
0
0
0
0
0
0
0
0
0
0
0
0
0
0
0
0
0
0
0
0
0
0
0
0
0
0
0
0
0
0
0
0
0
0
0
0
0
0
0
0
0
0
0
0
0
0
0
0
0
-1.079844e-06
0
0
0
0
0
0
0
0
0
0
0
0
0
0
0
-1.021121e-07
-3.611925e-07
0
0
0
0
0
0
0
0
0
0
0
0
0
0
0
0
0
0
0
0
5.137601e-05
0
0
0
0
0
0.0002474599
-3.052249e-05
0
0
0
0
0
0.0001265872
0.0004507076
-0.0004771865
0
0
0
0
0
-0.0007238135
0.0003681909
-0.001935209
-0.002359791
0
0
0
0
0
0.0003446103
-0.0005321874
0.0001814946
-9.279095e-05
-0.002109697
0
0
0
0
0
-0.0004369933
0.0007787812
0.0007299511
0.0002074768
3.319733e-05
0.00138468
0
0
0
0
0
-0.0001533895
-0.001673179
-0.0002717434
7.460231e-05
-0.000285095
-0.0004717659
-0.0001000379
0
0
0
0
0
0.0001751181
-0.0003135904
0.0001800296
-9.476115e-07
-0.0005580185
-0.0003669044
-2.745496e-05
-0.0002227885
0
0
0
0
0
0
0
0
0
0
0
0
0
0
0
0
0
0
0
0
0
0
0
0
0
0
0
0
0
0
0
0
0
0
0
0
0
0
0
0
0
0
0
0
-9.6889e-07
0
0
0
0
0
0
0
0
0
0
0
0
0
0
0
2.765322e-06
-2.718986e-06
0
0
0
0
0
0
0
0
0
0
0
0
0
0
0
-2.363868e-07
-1.579483e-06
-1.39869e-06
0
0
0
0
0
0
0
0
0
0
0
0
0
0
0
0
0
0
0
0
-0.0002127281
0
0
0
0
0
-0.0002847246
2.392848e-05
0
0
0
0
0
2.017056e-06
0.0005312116
0.001575345
0
0
0
0
0
-0.0002723768
0.0006166562
-0.0007362014
-0.00112533
0
0
0
0
0
0.0002467625
-0.0002406717
0.0008253034
0.001271135
0.003106553
0
0
0
0
0
0.000236906
-0.001674703
-0.0002243569
-0.001134622
-0.0001377397
0.001668354
0
0
0
0
0
0.000292784
0.001089048
-0.0004688084
-0.002212587
0.0006666689
-0.0008085339
-0.0001168592
0
0
0
0
0
-0.0007146042
0.0005321521
0.001136768
0.001276516
0.0008966269
0.0001472652
-0.0003148327
0.0005804198
0
0
0
0
0
0.0001554162
0.0002072379
0.0002770871
-0.000838085
-0.0001121491
0.0005793894
0.0004720754
0.0002158391
0.0001414006
0
0
0
0
0
0
0
0
0
0
0
0
0
0
0
0
0
0
0
0
0
0
0
0
0
0
0
0
0
0
-1.654264e-06
0
0
0
0
0
0
0
0
0
0
0
0
0
0
0
2.423751e-07
-1.72643e-06
0
0
0
0
0
0
0
0
0
0
0
0
0
0
0
8.159306e-07
-1.47518e-06
-9.076347e-07
0
0
0
0
0
0
0
0
0
0
0
0
0
0
0
1.141312e-06
-1.033511e-06
-1.728509e-06
-1.172387e-06
0
0
0
0
0
0
0
0
0
0
0
0
0
0
0
0
0
0
0
0
-0.0001883875
0
0
0
0
0
0.0002180525
0.0002758377
0
0
0
0
0
-0.0003476619
-0.0005670362
-0.002279569
0
0
0
0
0
0.0003691849
0.0001627009
-0.0003939915
-0.0008755566
0
0
0
0
0
-0.0003324781
0.0008596537
-0.0005797869
0.0008165201
-0.0005222082
0
0
0
0
0
-0.0004074239
0.000138168
0.001413679
0.001065191
-0.001054638
-0.00160287
0
0
0
0
0
-0.0002552668
-0.001052643
0.00045869
0.0005241165
0.0002971056
-0.0006068374
2.722798e-05
0
0
0
0
0
0.0002854507
-0.0002222447
-9.505836e-05
5.335979e-07
0.000885975
1.014911e-05
0.001479688
-0.0003777295
0
0
0
0
0
-0.000185238
0.0003514106
-0.0004167466
0.000979167
-7.984914e-05
-0.002536178
-0.0003472505
-0.0003659418
-0.001404378
0
0
0
0
0
-0.0001714168
-2.193841e-05
0.0003473864
-1.418559e-05
0.0009928711
-0.0007250086
-0.0002952644
-0.0005874341
4.087873e-05
-4.024936e-05
0
0
0
0
0
0
0
0
0
0
0
0
0
0
0
-1.396297e-06
0
0
0
0
0
0
0
0
0
0
0
0
0
0
0
-2.436649e-06
6.543329e-08
0
0
0
0
0
0
0
0
0
0
0
0
0
0
0
-5.406784e-07
-1.748391e-06
5.061057e-07
0
0
0
0
0
0
0
0
0
0
0
0
0
0
0
-1.493363e-06
-3.796316e-06
-1.625042e-06
7.619355e-07
0
0
0
0
0
0
0
0
0
0
0
0
0
0
0
-2.304874e-07
-6.329374e-07
7.288129e-07
1.648045e-06
5.897403e-07
0
0
0
0
0
0
0
0
0
0
0
0
0
0
0
0
0
0
0
0
0
0
0
0
0
-0.000715153
7.928496e-06
0
0
0
0
0
0.0002601959
-7.627279e-05
0.001389904
0
0
0
0
0
0.0001757338
0.0006457616
0.001867768
0.0007728692
0
0
0
0
0
8.445044e-05
-0.001251525
-0.0008852173
-0.001036218
0.001789069
0
0
0
0
0
-7.936904e-05
0.00050084
9.351849e-05
0.0006963193
0.0006833395
0.0006667041
0
0
0
0
0
-0.0006417543
0.001016845
0.000520994
-0.0004139109
0.0002942352
0.001881427
-0.001714571
0
0
0
0
0
0.0001752834
0.0002805686
0.0004362799
0.0004324079
0.0002120317
0.0002608468
0.0005834448
0.001429941
0
0
0
0
0
0.0008808988
-0.0007514504
0.0002880542
-0.0007514764
-0.000522263
0.001436489
0.0009550939
0.0006534246
0.0006082656
0
0
0
0
0
-0.0002385706
-0.0003004924
-0.0007960315
7.242861e-05
-0.002213177
0.001747082
0.001997308
0.0008830384
0.0003069268
0.00090665
0
0
0
0
0
-0.0003781552
0.000193989
-0.0002384243
-0.0003673869
-0.0003807407
-0.0002525151
0.0007165392
-0.0001089262
0.0003887199
-0.0002362335
-6.130344e-05
0
0
0
0
0
0
0
0
0
0
0
0
0
0
0
3.679972e-07
9.141622e-07
0
0
0
0
0
0
0
0
0
0
0
0
0
0
0
-1.663452e-06
-1.22943e-06
4.167663e-06
0
0
0
0
0
0
0
0
0
0
0
0
0
0
0
1.738903e-06
1.290001e-06
1.305251e-06
5.473656e-07
0
0
0
0
0
0
0
0
0
0
0
0
0
0
0
-1.529545e-06
-1.534505e-06
-1.462747e-06
1.55142e-06
1.285994e-06
0
0
0
0
0
0
0
0
0
0
0
0
0
0
0
4.277211e-08
-6.390092e-07
2.043359e-06
-1.98285e-06
-1.191774e-06
-1.392639e-05
0
0
0
0
0
0
0
0
0
0
0
0
0
0
0
0
0
0
0
0
0
0
0
0
0
0
0
0
0
0
7.337459e-06
0.0008376493
-0.0001620862
0
0
0
0
0
0.0001840089
1.45702e-05
2.439761e-05
0.0007023902
0
0
0
0
0
-0.0008057292
0.0005392555
4.828979e-05
-0.001694782
-0.001770262
0
0
0
0
0
9.223738e-05
-0.0001215418
0.0004996043
-0.0001834396
-0.000691915
-0.0005797202
0
0
0
0
0
0.0004321337
5.517915e-05
-0.001977822
-0.001590839
-0.0008908598
-0.0003490541
-0.0004595763
0
0
0
0
0
-0.0003546898
8.212939e-05
-0.0003512752
-0.000174496
4.189581e-06
-0.000363775
-0.001525275
-0.001467122
0
0
0
0
0
-0.0004752747
-0.000416846
-0.001140523
-0.000471622
0.0006884846
-0.0004325154
-0.0004152657
-0.001060938
0.0008018304
0
0
0
0
0
0.0002526251
-0.001528401
0.002431982
-5.789052e-05
0.001543792
-0.0009108083
4.436917e-05
-0.0003984005
2.435678e-05
-0.001709733
0
0
0
0
0
0.000526461
0.001220295
0.001153147
9.657401e-05
0.0003793283
0.001010468
-0.002555239
-0.001096175
-0.001158819
-0.0002344239
0.0001005841
0
0
0
0
0
-2.855989e-05
0.0004042942
-9.024425e-05
0.0003583708
-0.000188888
8.36749e-05
0.0001150201
-5.841177e-05
0.0001858994
-0.0002114118
-8.123141e-05
-3.021483e-06
0
0
0
0
0
0
0
0
0
0
0
0
0
0
0
-5.862662e-07
9.417347e-07
3.485504e-07
0
0
0
0
0
0
0
0
0
0
0
0
0
0
0
2.342062e-06
2.771302e-06
-2.15387e-06
-4.859072e-08
0
0
0
0
0
0
0
0
0
0
0
0
0
0
0
1.154565e-06
-1.746124e-06
-3.837312e-06
-7.394948e-07
-9.021617e-07
0
0
0
0
0
0
0
0
0
0
0
0
0
0
0
-1.781952e-06
-3.172155e-07
-6.568256e-07
-4.308333e-07
7.286765e-07
9.302595e-06
0
0
0
0
0
0
0
0
0
0
0
0
0
0
0
6.445946e-07
2.534135e-06
4.113963e-06
7.075516e-07
7.135707e-08
-2.616462e-06
2.304545e-05
0
0
0
0
0
0
0
0
0
0
0
0
0
0
0
0
0
0
0
0
0
0
0
0
0
0
0
0
0
0
0
0
0
0
0
-3.175132e-05
-7.386586e-05
-0.0001312439
0.0001130153
0
0
0
0
0
0.0004118758
0.000161359
0.0001341778
-7.547994e-05
-0.0001201076
0
0
0
0
0
0.0004447925
0.001971336
-0.001272288
-0.0001161001
0.002117079
0.0006714128
0
0
0
0
0
0.0003455886
-0.0004056795
0.0008238903
0.0003243982
-6.161834e-05
0.0001891182
0.0003813143
0
0
0
0
0
-7.841978e-05
-0.0002665425
0.001242089
9.699209e-05
0.001756779
0.000749028
-0.00110166
0.002502114
0
0
0
0
0
0.0003421585
-2.249642e-05
-0.0002175763
0.0007005858
-0.001280357
-0.0005608113
-0.0004488775
0.001347276
-0.0007483217
0
0
0
0
0
-0.0001935365
0.0006067489
-0.001295736
0.0002932999
0.0005483838
-0.0001912912
-0.0001064271
-4.360621e-05
-0.0001204709
0.0004456111
0
0
0
0
0
-0.0004250568
-0.0007735372
0.0005474435
-0.00156459
0.0002434405
-0.00111229
0.0008625053
-0.000406882
2.630766e-05
-0.0004912229
0.0006036255
0
0
0
0
0
0.000258061
-0.0003259711
-0.0006653743
-0.001335486
0.001100492
-1.821252e-05
-0.001266211
0.0004164917
-0.0006289937
0.001132835
0.0002393698
-7.015506e-07
0
0
0
0
0
7.257646e-05
0.0004769056
-2.019764e-05
0.0002375145
-0.0003936302
5.49523e-05
6.187712e-05
0.0008031016
-0.0001687875
-0.0002859306
-2.506184e-05
1.381353e-06
2.094724e-06
0
0
0
0
0
0
0
0
0
0
0
0
0
0
0
-2.215531e-06
1.037231e-06
1.886066e-06
2.364775e-06
0
0
0
0
0
0
0
0
0
0
0
0
0
0
0
-1.064693e-06
-7.625647e-07
-1.180793e-06
-2.184601e-06
1.70554e-06
0
0
0
0
0
0
0
0
0
0
0
0
0
0
0
1.786894e-06
-4.630457e-07
2.015313e-06
4.867651e-06
2.563892e-06
1.862833e-05
0
0
0
0
0
0
0
0
0
0
0
0
0
0
0
8.20624e-07
6.005461e-07
3.431047e-07
1.021985e-06
6.391625e-07
5.60326e-07
2.70788e-06
0
0
0
0
0
0
0
0
0
0
0
0
0
0
0
5.655886e-07
-2.00439e-06
-2.761258e-06
-1.590125e-06
-9.737913e-07
4.595671e-06
5.347244e-06
-1.629199e-05
0
0
0
0
0
0
0
0
0
0
0
0
0
0
0
0
0
0
0
0
0
0
0
0
0
0
0
0
0
0
0
0
0
0
0
0
0
0
0
0
-0.0001522396
-0.0001874711
-0.0002592179
-9.811266e-05
-0.000609123
0
0
0
0
0
-0.0003842399
6.081788e-05
0.0002665557
-0.0001080038
-0.0007697846
0.0009431746
0
0
0
0
0
-0.000283753
-1.47479e-05
-0.0008910806
0.00099889
-0.000234767
-0.002318032
-0.001977356
0
0
0
0
0
0.0005147033
-3.605942e-05
-0.0001301387
0.0008217155
-0.001565161
0.001129619
0.001313881
-0.0004998608
0
0
0
0
0
-0.000408092
0.001096588
0.0005242781
-0.001357572
0.001475985
-0.0008122071
-5.457549e-05
0.0007909923
-0.0009928957
0
0
0
0
0
-0.0004071678
0.0001015327
0.0003612725
0.0006164429
-3.622905e-05
0.0009362234
8.554416e-05
-0.0003306105
-0.0009447861
-0.0003107562
0
0
0
0
0
0.0003248675
0.001326598
-0.001060257
0.0008655279
-0.0003348243
-0.0003582634
0.0003654365
0.0006450376
0.0005517294
0.0003226143
0.0001281448
0
0
0
0
0
-0.0003770831
-2.307006e-05
-0.00184899
0.0005225947
-0.0004608806
-0.001079774
0.0008614943
-0.000523372
0.0008534007
-0.0007969029
0.0001220179
-3.65842e-06
0
0
0
0
0
-0.0002269115
-0.0003812388
0.0007188687
-0.0003642064
0.0014891
0.0005762147
-0.0005607312
-0.0001533043
0.0006202767
0.0002223643
-0.0002716744
-7.918018e-07
1.994586e-06
0
0
0
0
0
5.276326e-05
0.0001411709
-7.176636e-05
4.250249e-05
-0.0003887504
-0.0001250463
0.0003723259
-0.0003816103
-0.0007316821
-0.0002476627
8.564375e-05
1.084961e-06
2.713743e-08
-2.552367e-06
0
0
0
0
0
0
0
0
0
0
0
0
0
0
0
-2.817555e-06
2.343822e-06
-4.082302e-07
6.466962e-07
-2.074463e-06
0
0
0
0
0
0
0
0
0
0
0
0
0
0
0
-7.420558e-07
1.38155e-06
2.350016e-06
8.296334e-09
1.94638e-06
-6.754257e-06
0
0
0
0
0
0
0
0
0
0
0
0
0
0
0
-1.020438e-06
-2.623922e-06
-3.525267e-06
-6.211901e-06
1.594896e-06
8.18737e-06
-8.689079e-06
0
0
0
0
0
0
0
0
0
0
0
0
0
0
0
-6.676402e-07
-2.092385e-06
-4.258016e-06
9.386457e-07
1.782031e-06
1.194673e-05
-7.909487e-06
-1.367591e-05
0
0
0
0
0
0
0
0
0
0
0
0
0
0
0
-1.031184e-06
-9.7078e-07
2.331104e-06
-2.708482e-07
5.813192e-07
-1.038809e-05
-2.33064e-06
6.374384e-06
-5.192074e-06
0
0
0
0
0
0
0
0
0
0
0
0
0
0
0
0
0
0
0
0
0
0
0
0
0
0
0
0
0
0
0
0
0
0
0
0
0
0
0
0
0
0
0
0
0
-0.0001317422
0.0005569736
0.0001972172
0.0003910347
0.000123361
2.974086e-05
0
0
0
0
0
5.241247e-05
0.001153862
-0.001202605
-0.0004535669
-0.0002586167
0.002347365
0.002035492
0
0
0
0
0
-3.656104e-06
0.001449907
-0.001497205
0.0003825932
-0.0008798162
-0.0003235698
-0.0006561404
0.001639528
0
0
0
0
0
-0.0003908756
-0.001777606
0.0004661109
0.000429418
-0.0004018459
0.0009070273
-0.000637356
0.001015991
0.001598025
0
0
0
0
0
0.0002626379
0.0002471331
-0.0001529799
0.000484326
0.0004419772
-0.0005486001
0.0007882228
-0.0009430002
0.001096021
0.0004828322
0
0
0
0
0
5.934017e-05
-0.0002933481
0.001148687
-0.0011267
-0.001059382
0.0002723047
-0.0009836065
-0.0002773142
3.221998e-05
0.0003629137
4.544334e-05
0
0
0
0
0
-0.0003279488
-0.0008664606
-0.000973507
-0.0001773383
0.0008006692
0.00100579
-0.0004365586
0.000637673
0.0005461557
6.139931e-05
0.000123554
1.919833e-06
0
0
0
0
0
-0.0002086631
0.0002020031
-0.000616087
0.00259073
-0.0007341172
-0.0001646407
0.001300995
0.0007765696
0.0005199853
-0.000218831
0.0004223139
1.454048e-06
-6.192678e-07
0
0
0
0
0
1.080139e-06
0.0008791233
-0.000412778
-0.0005447538
0.000162415
4.050839e-05
-0.0008160676
0.001029972
0.0006274103
5.917157e-06
-1.324767e-05
-1.468831e-06
-4.161671e-07
-2.722778e-06
0
0
0
0
0
0.0004152015
-0.0001181757
0.0001773619
-0.0005445452
0.0001522432
0.0006158995
-4.641642e-05
-0.0001328798
2.112943e-05
-3.169647e-05
0.0003449086
1.659586e-06
1.186684e-06
5.805877e-06
7.705278e-08
0
0
0
0
0
0
0
0
0
0
0
0
0
0
0
-7.674058e-07
3.48524e-07
-2.377891e-06
1.602525e-06
1.221766e-07
-1.129205e-05
0
0
0
0
0
0
0
0
0
0
0
0
0
0
0
-1.035625e-06
1.625534e-06
-8.633199e-07
1.893198e-06
1.603523e-06
-1.169259e-05
6.426354e-06
0
0
0
0
0
0
0
0
0
0
0
0
0
0
0
6.678413e-07
-4.846839e-07
-8.17534e-08
-3.432277e-08
1.611221e-06
4.791753e-06
1.603383e-05
-2.579074e-06
0
0
0
0
0
0
0
0
0
0
0
0
0
0
0
-8.403697e-07
-2.744454e-06
1.223138e-06
3.533234e-06
7.99071e-07
1.007739e-05
7.041994e-06
5.883926e-06
1.012397e-05
0
0
0
0
0
0
0
0
0
0
0
0
0
0
0
5.539581e-07
2.589168e-06
6.634748e-07
-3.138353e-06
6.261311e-07
-6.435991e-06
-9.133366e-06
-6.526413e-06
-1.257522e-06
1.060558e-05
0
0
0
0
0
0
0
0
0
0
0
0
0
0
0
0
0
0
0
0
0
0
0
0
0
0
0
0
0
0
0
0
0
0
0
0
0
0
0
0
0
0
0
0
0
0
0
0
0
0
8.87433e-05
9.186086e-05
-0.0007225055
0.0001869404
-2.280398e-05
0.0004156882
-0.0005510278
0
0
0
0
0
0.0002521113
-0.001071551
0.0001206786
0.0001723472
0.0009023394
-0.0001891592
-0.0006333428
-0.002502858
0
0
0
0
0
0.0007342357
0.0008809527
-0.001695702
0.0004887299
-1.668568e-05
0.0002039589
0.0006007689
0.001109694
-0.0008192981
0
0
0
0
0
0.0002828084
-0.0001601852
-0.0009266752
-0.001118532
-0.001576391
-0.001806003
-0.0001853679
0.001496397
-0.0003895182
0.0003882088
0
0
0
0
0
0.0005083642
-0.001016393
-0.001153144
0.0009895192
0.0008824292
-0.0009515517
0.0012452
-0.0001443579
0.000553511
-0.0001556445
-0.0001836256
0
0
0
0
0
0.0008087538
-1.065587e-05
0.001584419
0.0001470155
-0.0006619362
-0.0002955178
-0.0001468741
0.0005046505
-0.001626348
2.348068e-05
0.0001483741
-1.731109e-06
0
0
0
0
0
-9.006455e-05
0.0007756325
0.0008016721
-0.0006785517
-0.001036636
0.0006523242
0.0006725818
-0.0001758269
5.395433e-05
-0.0006454433
-0.0001458375
8.184188e-07
9.682611e-07
0
0
0
0
0
0.0002051666
-0.0001942555
0.000794386
0.0009454073
-0.0001290054
0.0007116256
-0.0001560002
-0.001133731
0.0004603366
-0.0002749731
0.000282341
1.211977e-06
9.727358e-07
-1.149856e-06
0
0
0
0
0
-0.0006116103
-6.641089e-05
-0.000437961
-1.392674e-05
-0.0004278288
-7.724829e-05
8.711398e-05
-0.0004168779
0.0003271407
-3.587895e-05
0.0003358463
3.092153e-06
-3.535236e-07
-4.306259e-07
3.457433e-06
0
0
0
0
0
-0.0001311861
-0.0005307515
-0.0008869454
-0.0001483741
4.538456e-05
-0.0001235716
0.000205491
0.0006093796
-0.0002020618
-4.221222e-05
-2.290717e-05
-2.143636e-06
-4.612246e-06
1.184219e-06
1.336191e-06
-1.864625e-06
0
0
0
0
0
0
0
0
0
0
0
0
0
0
0
-1.242256e-06
-4.934212e-07
-5.724201e-07
1.807438e-06
-1.475649e-06
-1.217225e-05
5.244275e-06
0
0
0
0
0
0
0
0
0
0
0
0
0
0
0
-1.248002e-06
-2.397093e-07
1.663781e-06
1.778258e-07
6.08976e-07
-8.318416e-06
1.904431e-05
2.773804e-06
0
0
0
0
0
0
0
0
0
0
0
0
0
0
0
-4.222949e-07
-1.277827e-06
2.666583e-06
-9.39075e-07
-1.528942e-06
-1.456074e-06
-9.581132e-07
-1.671666e-05
-1.641595e-05
0
0
0
0
0
0
0
0
0
0
0
0
0
0
0
-8.102414e-07
1.367229e-06
1.08663e-06
1.870315e-06
-2.643526e-07
5.934799e-06
-5.666909e-06
-2.00904e-05
-9.078863e-07
-1.334806e-05
0
0
0
0
0
0
0
0
0
0
0
0
0
0
0
3.088826e-07
9.149242e-07
-1.368467e-06
-1.2417e-06
5.951808e-07
-1.325524e-05
-4.575406e-06
-3.193816e-06
4.804571e-06
-2.812271e-07
-81928.79
0
0
0
0
0
0
0
0
0
0
0
0
0
0
0
0
0
0
0
0
0
0
0
0
0
0
0
0
0
0
0
0
0
0
0
0
0
0
0
0
0
0
0
0
0
0
0
0
0
0
0
0
0
0
0
-0.0001286548
-5.428803e-05
-0.0001014221
0.0002943086
-4.433411e-05
-0.0001740096
-0.0007918091
-3.217946e-05
0
0
0
0
0
-0.0004072903
-0.0008129019
0.0009772443
-0.000326965
-0.001077945
-0.0007952311
-0.0008648333
0.0002047522
-0.0003020709
0
0
0
0
0
-2.919376e-06
-0.0009290654
0.0007815907
0.0005472999
0.0003561723
0.0002302229
0.0005433564
-0.0006015719
-0.002165506
0.0001447687
0
0
0
0
0
0.000403133
-0.0001602798
0.0008660562
0.0008944418
-0.001395319
0.001413139
0.0002161243
0.0003480117
-0.0006633831
-0.001082311
-0.0004332682
0
0
0
0
0
-0.0002654591
-0.001116168
-0.0007268778
-6.523536e-05
4.467108e-05
0.0001198378
0.001472558
-0.001204259
0.0009244312
0.0005048565
0.0001031808
-1.366264e-06
0
0
0
0
0
0.0004342011
-0.0005938959
-0.0001934548
-0.00219626
0.0005375962
0.0002791874
6.80033e-06
0.0006049483
-0.001252546
0.0006752005
-0.0001021935
1.398723e-06
7.234161e-07
0
0
0
0
0
-0.0005533815
0.0003854262
0.000371056
0.0005192336
-0.0005247995
8.316569e-05
4.026796e-05
-0.0007094627
-0.0008693019
-0.0006202177
0.0002171859
7.536148e-07
-1.152511e-06
2.094466e-06
0
0
0
0
0
-0.0002808012
-0.0007903392
-0.00017175
0.000557218
-0.001519612
-0.002500396
-0.001350619
0.001543592
-0.0003355349
-0.000144904
0.0001287835
7.898376e-07
-4.979218e-07
2.132347e-06
9.986619e-07
0
0
0
0
0
0.0003955249
0.0001502934
0.001635024
-0.0002059453
0.0007225492
0.0007870004
-0.0007002924
-0.0009370335
0.0003303555
-0.000330774
0.0002206046
3.714107e-06
5.138154e-07
-4.684336e-06
-2.581415e-06
3.739705e-06
0
0
0
0
0
3.318267e-05
0.0001467743
0.0005442422
0.0006990141
0.0005564648
-0.0003882172
-4.706072e-07
5.312528e-05
-0.0004978327
8.828363e-05
3.848371e-05
-1.843147e-06
7.098991e-07
1.444384e-06
2.810149e-06
2.340589e-05
7.843178e-06
0
0
0
0
0
0
0
0
0
0
0
0
0
0
0
5.907658e-07
1.32266e-06
1.667623e-06
2.775506e-06
2.398524e-06
1.221818e-06
-5.361033e-06
1.040637e-06
0
0
0
0
0
0
0
0
0
0
0
0
0
0
0
3.285289e-07
-1.42035e-06
-7.32847e-07
1.072047e-08
-3.421257e-07
-1.43073e-05
1.448818e-05
-1.261055e-05
1.828806e-06
0
0
0
0
0
0
0
0
0
0
0
0
0
0
0
1.004487e-06
-7.26495e-07
1.434716e-06
-3.289891e-06
8.021103e-07
6.960066e-06
2.718457e-06
2.471526e-06
1.647435e-06
1.128953e-05
0
0
0
0
0
0
0
0
0
0
0
0
0
0
0
-3.982898e-07
-1.550717e-06
1.842472e-06
-4.380305e-07
5.896307e-07
6.960469e-06
-1.250799e-05
4.92052e-06
-1.476488e-05
-3.089349e-06
-82636.3
0
0
0
0
0
0
0
0
0
0
0
0
0
0
0
1.455445e-06
3.090326e-07
5.564886e-07
1.131144e-06
2.279523e-07
8.115069e-06
1.825624e-05
2.273268e-06
2.658328e-05
9.926269e-06
-74959.64
-82461.49
0
0
0
0
0
0
0
0
0
0
0
0
0
0
0
0
0
0
0
0
0
0
0
0
0
0
0
0
0
0
0
0
0
0
0
0
0
0
0
0
0
0
0
0
0
0
0
0
0
0
0
0
0
0
0
0
0
0
0
0
0.0003475592
1.780146e-05
0.0004518691
-0.0001394319
0.0002856681
-0.0005531282
0.0002065921
0.0002177299
0.0007770855
0
0
0
0
0
-0.0004719276
-8.138067e-06
0.0002983198
-0.0005978621
-0.000221652
0.001083556
0.0003467016
0.0004277987
0.00129123
-0.0001853854
0
0
0
0
0
-0.0002048935
-0.0002142158
-0.0005675225
-0.0002202263
0.00155144
-0.001020638
0.001238627
-0.0007871385
-0.0002256143
0.0009860724
-0.0005485887
0
0
0
0
0
-0.0001731062
0.0006651086
0.0002455486
-0.0008971571
-0.0008981392
-0.0004281833
-0.0003189949
-9.156082e-05
-0.0006263059
3.179841e-06
0.0001068111
3.335478e-07
0
0
0
0
0
-0.0002004801
-0.0006432286
-5.695206e-05
0.00284492
0.001039685
-0.0008375656
-0.001059012
-0.001581609
0.0007262851
-0.000217721
-0.0001561026
2.995771e-06
-3.252495e-07
0
0
0
0
0
-0.0003936943
6.190347e-05
-0.0004420237
-0.0008908954
0.002176069
9.251413e-05
-0.0005726288
0.000933265
0.0006063094
0.001459351
2.343429e-05
-8.027914e-07
-1.782969e-06
1.312437e-06
0
0
0
0
0
-8.490428e-05
-6.58319e-05
-0.0009267333
-0.001476195
0.0010773
0.0008869031
0.0001394343
-0.001260548
2.893185e-05
0.0001499055
0.0002527313
-8.844578e-07
-2.317627e-06
2.633527e-06
1.295407e-06
0
0
0
0
0
0.0001782969
0.001306378
-2.90126e-05
0.0001588
0.0004247876
0.0008908582
0.001709765
-5.364395e-05
-0.000784366
0.0002972001
0.0001334196
-7.933308e-07
-2.90345e-06
2.244136e-06
2.74945e-06
-1.019592e-05
0
0
0
0
0
0.0004063174
0.0001740957
-0.0008895784
-0.0003607312
-0.0006004469
0.000384452
-0.001637677
3.450023e-05
0.0006753186
-0.0007872882
8.721019e-05
-6.981345e-07
-1.66849e-07
4.106231e-06
-3.964728e-06
1.400163e-06
-6.432977e-06
0
0
0
0
0
0.0002950306
0.0002924997
0.0005497042
0.0004261687
-0.0004526866
-0.0004192716
0.0003027126
-3.204478e-06
0.0004695534
-5.317704e-05
0.0002336834
-4.546026e-06
1.031637e-06
-2.747127e-06
-3.776988e-06
2.403659e-05
4.898283e-06
-1.323058e-05
0
0
0
0
0
0
0
0
0
0
0
0
0
0
0
-9.390582e-07
-8.809598e-07
-1.042145e-06
1.970996e-06
2.460214e-06
3.6572e-06
-1.585957e-05
1.917462e-05
-2.142573e-05
0
0
0
0
0
0
0
0
0
0
0
0
0
0
0
-2.244503e-07
-9.362748e-08
2.194042e-06
-8.774598e-07
4.822414e-07
-9.421967e-06
-1.362119e-05
-2.035348e-05
-8.670687e-07
-9.468272e-07
0
0
0
0
0
0
0
0
0
0
0
0
0
0
0
1.458844e-07
4.905828e-07
-9.300378e-07
-9.281495e-09
1.555246e-06
-1.817542e-06
-1.241341e-05
3.753037e-06
7.524548e-06
-2.192473e-06
-84061.83
0
0
0
0
0
0
0
0
0
0
0
0
0
0
0
1.390452e-06
3.341606e-06
4.380172e-07
3.271825e-07
8.799296e-08
-5.212003e-06
-1.613307e-05
2.824496e-05
2.288348e-06
2.7459e-05
-75414.39
-83179.53
0
0
0
0
0
0
0
0
0
0
0
0
0
0
0
-5.154469e-08
-2.926486e-06
3.603864e-07
9.56131e-07
-1.169173e-06
-6.542427e-06
-4.415941e-05
-1.960463e-05
1.237387e-05
-1.657296e-05
-69068.45
-75424.35
-83905.09
0
0
0
0
0
0
0
0
0
0
0
0
0
0
0
0
0
0
0
0
0
0
0
0
0
0
0
0
0
0
0
0
0
0
0
0
0
0
0
0
0
0
0
0
0
0
0
0
0
0
0
0
0
0
0
0
0
0
0
0
0
0
0
0
0
0.000163582
9.747876e-05
8.494312e-05
-0.0002242425
0.0002317519
-0.000221675
0.0004528312
-6.011456e-05
-0.0006525166
-0.0002777059
0
0
0
0
0
3.632383e-05
0.001760138
0.0002069746
-0.001150257
-0.0008264182
0.00109219
-0.001526582
-0.0008846338
-0.0007667995
-0.0008505308
5.620377e-05
0
0
0
0
0
0.0001127679
-0.0008451475
-0.0004756458
0.00137238
0.001231536
0.001119933
-0.000101688
-0.0002214254
0.00097035
-0.0005130392
0.0001358223
-2.016448e-06
0
0
0
0
0
0.000303429
0.0008522515
-0.000359986
-0.001789677
-0.0006536527
-0.0004760357
0.0009530263
3.002701e-05
7.046603e-06
-0.001067598
-0.0001674089
-5.10066e-07
3.242423e-06
0
0
0
0
0
-0.0002833238
0.0001163485
0.001590665
-0.0008869849
-0.0017647
-0.0003992562
0.001637529
-0.0002034408
0.001225085
-0.0001723533
-6.418276e-07
-2.468683e-06
1.531404e-07
4.400681e-07
0
0
0
0
0
-0.0002735984
0.001319288
-0.000353353
0.0009402398
0.0009355809
-0.0008944611
-8.303467e-05
0.002030863
-0.001490789
-0.0007626085
-0.000257527
9.05481e-07
-1.366737e-06
-1.344319e-06
-3.236407e-07
0
0
0
0
0
-0.000294047
-0.001242841
0.001299232
0.0005486972
0.000355348
-0.001126869
0.0006074329
-0.0006625999
5.536498e-05
0.0003525673
-4.716978e-05
6.497585e-07
7.550411e-07
-4.024923e-06
1.478164e-06
1.456374e-05
0
0
0
0
0
-0.0004706123
-0.0005018406
-0.0003235874
0.0001686276
-0.0001234249
-0.0001957113
-4.278003e-05
-0.001467283
0.001758297
0.001304117
-6.5091e-05
-1.706884e-06
-1.267074e-06
-2.817244e-06
3.083069e-07
-3.587639e-06
-7.203847e-06
0
0
0
0
0
-0.0004226145
-0.0009657103
-0.001310747
0.0004031977
-0.0007156332
0.001176898
-0.001432057
0.000754716
-0.0002145573
-7.111989e-05
0.0003463943
-1.318573e-06
-8.27338e-07
2.601063e-06
1.175257e-06
-1.183479e-05
-2.007189e-05
1.57051e-05
0
0
0
0
0
-0.0001862967
0.00019741
-0.0004279717
-0.0002557121
-0.0004371208
3.612634e-05
-0.0004864058
-6.402827e-05
8.660623e-05
-0.0002185004
0.0001112885
-1.129744e-06
2.725135e-06
-2.686328e-06
-1.42288e-06
-6.592667e-06
-7.9983e-06
-1.277762e-05
-5.294589e-06
0
0
0
0
0
0
0
0
0
0
0
0
0
0
0
4.277057e-07
-1.820391e-06
1.696933e-06
9.557871e-07
4.918785e-07
1.737932e-05
9.034676e-06
-6.852514e-06
-1.628836e-05
1.6749e-05
0
0
0
0
0
0
0
0
0
0
0
0
0
0
0
7.568073e-07
3.099124e-06
2.114329e-06
-2.240599e-06
-8.276928e-10
-8.676675e-06
-4.109064e-06
2.634913e-05
1.560851e-05
1.352639e-05
-86195.95
0
0
0
0
0
0
0
0
0
0
0
0
0
0
0
-9.920316e-07
-5.163292e-07
-1.058576e-06
-6.720159e-07
6.138711e-07
6.642265e-06
1.381629e-05
4.691783e-06
-1.933458e-05
-4.217429e-06
-76307.2
-84626.02
0
0
0
0
0
0
0
0
0
0
0
0
0
0
0
-7.733857e-07
-3.895662e-06
-2.210258e-06
-2.678105e-06
2.797888e-06
8.24508e-06
2.744129e-06
9.983634e-06
-3.519208e-05
1.39301e-06
-69415.26
-75886.14
-84648.77
0
0
0
0
0
0
0
0
0
0
0
0
0
0
0
-1.537693e-07
-1.139348e-07
2.611487e-06
-2.665438e-06
-3.303715e-07
-6.549357e-06
7.625022e-08
5.363847e-05
1.173954e-05
-1.32485e-05
-64351.62
-69481.92
-76670.51
-86300.19
0
0
0
0
0
0
0
0
0
0
0
0
0
0
0
0
0
0
0
0
0
0
0
0
0
0
0
0
0
0
0
0
0
0
0
0
0
0
0
0
0
0
0
0
0
0
0
0
0
0
0
0
0
0
0
0
0
0
0
0
0
0
0
0
0
0
0
0
0
0
3.216697e-05
-0.0004161971
-0.0004138519
0.0005228322
0.0002795366
-0.000684279
-3.235363e-05
0.0004299767
0.0005084511
0.0001656472
0.0001473615
0
0
0
0
0
0.0003978055
0.000816127
-0.001583864
-0.0004670085
0.0003159219
0.0008550884
0.001204725
-0.0004639779
0.0003624925
0.0001418796
0.0004063661
2.143949e-06
0
0
0
0
0
-0.0004518189
-0.000872657
0.00144141
0.0003803554
-0.0002010314
0.0003562491
-0.0001601475
0.0009438314
0.0002843157
0.001138525
0.0005460335
-9.376245e-07
-2.471904e-06
0
0
0
0
0
-0.0002047591
-0.0006161161
-0.002091251
0.0006186445
-0.0007827906
-0.0001901984
-9.477898e-06
0.0007267141
-0.001149884
-0.0009048354
0.0004607865
1.70863e-06
-5.52094e-07
2.475648e-06
0
0
0
0
0
0.0002910491
0.0007084671
-4.601142e-05
-0.0004024699
0.0006396594
0.001911778
-0.0003776994
-0.0005656327
0.0003727995
-0.0007203939
4.551018e-05
2.67233e-06
4.794976e-07
6.185299e-06
-6.323504e-07
0
0
0
0
0
0.0001005483
0.001525488
-0.001662157
-0.000811991
-0.0005003116
-0.00076408
-0.0004591488
0.002772685
-0.001421038
0.0006301448
0.0006346765
-2.954707e-06
-3.006543e-06
-2.056574e-06
-4.823777e-07
2.326432e-06
0
0
0
0
0
0.0004952078
0.000567677
6.487109e-05
-0.000935627
-0.0002878331
0.0003774329
-0.0002509968
-0.0002679849
8.832871e-06
0.000432886
-0.0002821469
7.3053e-07
2.517001e-06
8.633866e-07
-1.639802e-06
1.667266e-05
-2.245752e-06
0
0
0
0
0
9.823812e-05
-6.44244e-06
0.000841861
-0.001413579
0.001891648
0.0001283015
-0.0008828968
0.0004099328
0.0007223265
-0.001156795
-0.0001487435
1.610408e-06
-8.16273e-07
1.834663e-06
-6.999632e-07
-2.478665e-05
-9.171386e-06
1.736383e-05
0
0
0
0
0
0.000648737
-0.0004400667
0.0002042739
-0.0004701417
-0.00108683
0.001091905
0.0005687738
0.0007677008
0.000209008
0.0003796961
-0.0002429086
-9.956357e-08
1.470319e-06
5.064132e-06
4.001364e-06
-4.855713e-06
6.988485e-08
3.865619e-05
-1.582034e-05
0
0
0
0
0
0.0002646127
8.163726e-05
-0.0004353071
-0.0005966106
0.0002407105
0.0004856415
-0.0003002735
0.0004964221
0.0005630848
-0.0002778607
-4.310693e-05
1.844187e-06
-2.029558e-06
-3.004068e-06
-1.003003e-06
-7.529219e-06
1.260415e-06
-4.349651e-06
7.81666e-06
7.236199e-06
0
0
0
0
0
0
0
0
0
0
0
0
0
0
0
-5.687133e-07
-2.715288e-06
1.751812e-06
1.628943e-07
-1.563002e-06
1.531182e-05
-1.620554e-05
1.448985e-06
2.233345e-05
-1.579209e-06
-88945.77
0
0
0
0
0
0
0
0
0
0
0
0
0
0
0
-2.917233e-08
-9.510469e-08
-1.433549e-06
-1.274454e-06
1.341687e-06
-1.847207e-05
2.345935e-06
1.035377e-05
-1.152603e-06
6.963159e-06
-77576.61
-86790.09
0
0
0
0
0
0
0
0
0
0
0
0
0
0
0
-7.961202e-07
-2.726053e-09
7.952012e-08
-8.314431e-08
-1.251928e-06
8.016544e-06
-1.269779e-06
-1.642101e-05
1.430869e-06
1.781818e-05
-70089
-76793.02
-86147.11
0
0
0
0
0
0
0
0
0
0
0
0
0
0
0
1.575357e-06
-8.693274e-07
2.596024e-06
2.089941e-06
2.73099e-06