/*--------------------------------*- C++ -*----------------------------------*\
| =========                 |                                                 |
| \\      /  F ield         | OpenFOAM: The Open Source CFD Toolbox           |
|  \\    /   O peration     | Version:  2306                                  |
|   \\  /    A nd           | Website:  www.openfoam.com                      |
|    \\/     M anipulation  |                                                 |
\*---------------------------------------------------------------------------*/
FoamFile
{
    version     2.0;
    format      ascii;
    arch        "LSB;label=32;scalar=64";
    class       volScalarField;
    location    "1.2";
    object      k;
}
// * * * * * * * * * * * * * * * * * * * * * * * * * * * * * * * * * * * * * //

dimensions      [1 1 -3 -1 0 0 0];

internalField   nonuniform List<scalar> 
52000
(
20
20
20
20
20
20
20
20
20
20
20
20
20
20
20
20
20
20
20
20
20
20
20
20
20
20
20
20
20
20
20
20
20
20
20
20
20
20
20
20
20
20
20
20
20
20
20
20
20
20
20
20
20
20
20
20
20
20
20
20
20
20
20
20
20
20
20
20
20
20
20
20
20
20
20
20
20
20
20
20
20
20
20
20
20
20
20
20
20
20
20
20
20
20
20
20
20
20
20
20
20
20
20
20
20
20
20
20
20
20
20
20
20
20
20
20
20
20
20
20
20
20
20
20
20
20
20
20
20
20
20
20
20
20
20
20
20
20
20
20
20
20
20
20
20
20
20
20
20
20
20
20
20
20
20
20
20
20
20
20
20
20
20
20
20
20
20
20
20
20
20
20
20
20
20
20
20
20
20
20
20
20
20
20
20
20
20
20
20
20
20
20
20
20
20
20
20
20
20
20
20
20
20
20
20
20
20
20
20
20
20
20
20
20
20
20
20
20
20
20
20
20
20
20
20
20
20
20
20
20
20
20
20
20
20
20
20
20
20
20
0.08802763
20
20
20
20
20
20
20
20
20
20
20
20
20
20
20
20
20
20
20
20
20
20
20
20
20
20
20
20
20
20
20
20
20
20
20
20
20
20
20
20
20
20
20
20
20
20
20
20
20
20
20
20
20
20
20
20
20
20
20
20
20
20
20
20
20
0.08728999
20
20
20
20
20
0.08889673
0.08727686
20
20
20
20
20
20
20
20
20
20
20
20
20
20
20
20
20
20
20
20
20
20
20
20
20
20
20
20
20
20
20
20
20
20
20
20
20
20
20
20
20
20
20
20
20
20
20
20
20
20
20
20
20
20
20
20
20
20
20
20
20
20
20
20
20
20
20
20
20
20
0.08687451
20
20
20
20
20
0.08873569
0.08546086
20
20
20
20
20
0.08913366
0.08873456
0.08685048
20
20
20
20
20
20
20
20
20
20
20
20
20
20
20
20
20
20
20
20
20
20
20
20
20
20
20
20
20
20
20
20
20
20
20
20
20
20
20
20
20
20
20
20
20
20
20
20
20
20
20
20
20
20
20
20
20
20
20
20
20
20
20
20
20
20
20
20
20
20
20
20
20
20
20
0.08663574
20
20
20
20
20
0.0885957
0.08430826
20
20
20
20
20
0.08907609
0.08825973
0.08428964
20
20
20
20
20
0.08932591
0.08908137
0.08859496
0.08659935
20
20
20
20
20
20
20
20
20
20
20
20
20
20
20
20
20
20
20
20
20
20
20
20
20
20
20
20
20
20
20
20
20
20
20
20
20
20
20
20
20
20
20
20
20
20
20
20
20
20
20
20
20
20
20
20
20
20
20
20
20
20
20
20
20
20
20
20
20
20
20
20
20
20
20
20
20
20
20
20
0.08652433
20
20
20
20
20
0.08849242
0.08360938
20
20
20
20
20
0.08902435
0.08784134
0.08253957
20
20
20
20
20
0.08930084
0.08891469
0.08783815
0.08355934
20
20
20
20
20
0.08949606
0.08930824
0.08903605
0.08849265
0.08647179
20
20
20
20
20
20
20
20
20
20
20
20
20
20
20
20
20
20
20
20
20
20
20
20
20
20
20
20
20
20
20
20
20
20
20
20
20
20
20
20
20
20
20
20
20
20
20
20
20
20
20
20
20
20
20
20
20
20
20
20
20
20
20
20
20
20
20
20
20
20
20
20
20
20
20
20
20
20
20
20
20
20
20
20
20
0.08652433
20
20
20
20
20
0.08843761
0.08327585
20
20
20
20
20
0.08898476
0.08753001
0.0814275
20
20
20
20
20
0.08927893
0.08876256
0.087159
0.08138396
20
20
20
20
20
0.08948239
0.08924003
0.08876885
0.08751976
0.08317662
20
20
20
20
20
0.08965074
0.08949001
0.08929463
0.0890047
0.08843949
0.08645046
20
20
20
20
20
20
20
20
20
20
20
20
20
20
20
20
20
20
20
20
20
20
20
20
20
20
20
20
20
20
20
20
20
20
20
20
20
20
20
20
20
20
20
20
20
20
20
20
20
20
20
20
20
20
20
20
20
20
20
20
20
20
20
20
20
20
20
20
20
0.3624008
20
20
20
20
20
20
20
20
20
20
20
20
20
20
20
20
20
20
20
20
0.08663574
20
20
20
20
20
0.08843761
0.08327585
20
20
20
20
20
0.08896321
0.08736403
0.08088281
20
20
20
20
20
0.08926235
0.08864505
0.08664657
0.07995649
20
20
20
20
20
0.08947094
0.0891788
0.08852094
0.08663413
0.08076103
20
20
20
20
20
0.08964142
0.08945589
0.08918821
0.08865909
0.08734276
0.0831069
20
20
20
20
20
0.08979309
0.08964861
0.08948698
0.08928852
0.08899392
0.0884431
0.08653463
20
20
20
20
20
20
20
20
20
20
20
20
20
20
20
20
20
20
20
20
20
20
20
20
20
20
20
20
20
20
20
20
20
20
20
20
20
20
20
20
20
20
20
20
20
20
20
20
20
20
20
20
20
20
20
20
20
0.3623909
20
20
20
20
20
20
20
20
20
20
20
20
20
20
20
0.3625323
0.3624761
20
20
20
20
20
20
20
20
20
20
20
20
20
20
20
20
20
20
20
20
0.08687451
20
20
20
20
20
0.08849242
0.08360938
20
20
20
20
20
0.08896321
0.08736403
0.08088281
20
20
20
20
20
0.08925338
0.08858079
0.08637124
0.07924405
20
20
20
20
20
0.08946251
0.08913194
0.08832708
0.08595805
0.07914747
20
20
20
20
20
0.08963389
0.08942626
0.08909081
0.0883342
0.08633605
0.08064346
20
20
20
20
20
0.0897856
0.08962708
0.08943612
0.08915408
0.08860539
0.08733085
0.08334867
20
20
20
20
20
0.08992502
0.0897922
0.08964906
0.08948913
0.08929293
0.08900837
0.08850629
0.08673869
20
20
20
20
20
20
20
20
20
20
20
20
20
20
20
20
20
20
20
20
20
20
20
20
20
20
20
20
20
20
20
20
20
20
20
20
20
20
20
20
20
20
20
20
0.3623702
20
20
20
20
20
20
20
20
20
20
20
20
20
20
20
0.3625259
0.3624647
20
20
20
20
20
20
20
20
20
20
20
20
20
20
20
0.3626544
0.3626007
0.3625528
20
20
20
20
20
20
20
20
20
20
20
20
20
20
20
20
20
20
20
20
0.08728999
20
20
20
20
20
0.0885957
0.08430826
20
20
20
20
20
0.08898476
0.08753001
0.0814275
20
20
20
20
20
0.08925338
0.08858079
0.08637124
0.07924405
20
20
20
20
20
0.08945803
0.0891064
0.08822034
0.08559214
0.0783335
20
20
20
20
20
0.08962848
0.08940421
0.08901519
0.0880775
0.08556193
0.07899139
20
20
20
20
20
0.08977966
0.089609
0.08939096
0.0890291
0.08823688
0.08630736
0.08103236
20
20
20
20
20
0.08991847
0.08977565
0.0896184
0.08942761
0.0891461
0.08862162
0.08749112
0.0839308
20
20
20
20
20
0.09004787
0.0899245
0.08979365
0.08965367
0.08949807
0.08931014
0.0890501
0.08862763
0.08710533
20
20
20
20
20
20
20
20
20
20
20
20
20
20
20
20
20
20
20
20
20
20
20
20
20
20
20
20
20
20
0.3623356
20
20
20
20
20
20
20
20
20
20
20
20
20
20
20
0.362513
0.3624402
20
20
20
20
20
20
20
20
20
20
20
20
20
20
20
0.362649
0.3625943
0.3625403
20
20
20
20
20
20
20
20
20
20
20
20
20
20
20
0.362764
0.3627142
0.3626701
0.3626313
20
20
20
20
20
20
20
20
20
20
20
20
20
20
20
20
20
20
20
20
0.08802763
20
20
20
20
20
0.08873569
0.08546086
20
20
20
20
20
0.08902435
0.08784134
0.08253957
20
20
20
20
20
0.08926235
0.08864505
0.08664657
0.07995649
20
20
20
20
20
0.08945803
0.0891064
0.08822034
0.08559214
0.0783335
20
20
20
20
20
0.08962565
0.08939241
0.08897365
0.0879353
0.08514101
0.07815593
20
20
20
20
20
0.08977547
0.08959596
0.08935683
0.08893086
0.08794363
0.08551871
0.07949355
20
20
20
20
20
0.08991331
0.08976205
0.08959208
0.08937202
0.08900785
0.08825266
0.0865591
0.08195358
20
20
20
20
20
0.09004192
0.08991027
0.08977074
0.08961833
0.08943443
0.08917057
0.08871255
0.08781414
0.08493204
20
20
20
20
20
0.09016267
0.09004743
0.08992615
0.08979876
0.08966356
0.0895151
0.08934159
0.08911933
0.08880497
0.08775576
20
20
20
20
20
20
20
20
20
20
20
20
20
20
20
0.3622674
20
20
20
20
20
20
20
20
20
20
20
20
20
20
20
0.362494
0.3623959
20
20
20
20
20
20
20
20
20
20
20
20
20
20
20
0.3626384
0.3625817
0.3625129
20
20
20
20
20
20
20
20
20
20
20
20
20
20
20
0.3627592
0.3627092
0.3626637
0.3626181
20
20
20
20
20
20
20
20
20
20
20
20
20
20
20
0.3628641
0.3628159
0.3627747
0.3627404
0.3627117
20
20
20
20
20
20
20
20
20
20
20
20
20
20
20
20
20
20
20
20
20
20
20
20
20
0.08889673
0.08727686
20
20
20
20
20
0.08907609
0.08825973
0.08428964
20
20
20
20
20
0.08927893
0.08876256
0.087159
0.08138396
20
20
20
20
20
0.08946251
0.08913194
0.08832708
0.08595805
0.07914747
20
20
20
20
20
0.08962565
0.08939241
0.08897365
0.0879353
0.08514101
0.07815593
20
20
20
20
20
0.08977329
0.08958911
0.08933838
0.08887648
0.08778049
0.08508932
0.07871976
20
20
20
20
20
0.08990968
0.08975244
0.08957282
0.08932938
0.08889803
0.08795776
0.08584271
0.08066847
20
20
20
20
20
0.09003723
0.08989868
0.08975155
0.08958747
0.08937589
0.08903728
0.08838814
0.08706944
0.08347522
20
20
20
20
20
0.09015718
0.09003453
0.08990668
0.08977318
0.08962931
0.08945979
0.0892306
0.08887436
0.08827708
0.08653885
20
20
20
20
20
0.09027025
0.09016223
0.09004902
0.08993114
0.08980841
0.08967961
0.08954136
0.08938875
0.08921853
0.08904814
0.3619517
20
20
20
20
20
20
20
20
20
20
20
20
20
20
20
0.3624718
0.3623058
20
20
20
20
20
20
20
20
20
20
20
20
20
20
20
0.3626234
0.3625638
0.3624631
20
20
20
20
20
20
20
20
20
20
20
20
20
20
20
0.3627496
0.3626998
0.3626513
0.362589
20
20
20
20
20
20
20
20
20
20
20
20
20
20
20
0.3628596
0.3628116
0.3627701
0.3627341
0.3626981
20
20
20
20
20
20
20
20
20
20
20
20
20
20
20
0.362957
0.3629094
0.3628685
0.3628359
0.3628117
0.635862
20
20
20
20
20
20
20
20
20
20
20
20
20
20
20
20
20
20
20
20
20
20
20
20
20
20
20
20
20
20
0.08913366
0.08873456
0.08685048
20
20
20
20
20
0.08930084
0.08891469
0.08783815
0.08355934
20
20
20
20
20
0.08947094
0.0891788
0.08852094
0.08663413
0.08076103
20
20
20
20
20
0.08962848
0.08940421
0.08901519
0.0880775
0.08556193
0.07899139
20
20
20
20
20
0.08977329
0.08958911
0.08933838
0.08887648
0.08778049
0.08508932
0.07871976
20
20
20
20
20
0.0899078
0.08974747
0.08956263
0.08930613
0.08883685
0.08779331
0.08545331
0.0800305
20
20
20
20
20
0.09003393
0.08989058
0.08973784
0.08956455
0.08933032
0.08893027
0.08812773
0.08649934
0.08255595
20
20
20
20
20
0.09015282
0.09002407
0.08989055
0.08975144
0.08959881
0.08940743
0.08912129
0.08863254
0.08778623
0.08575204
20
20
20
20
20
0.09026513
0.0901503
0.09003143
0.08990969
0.08978476
0.08965339
0.08950601
0.08932678
0.08909865
0.08884907
0.3616134
20
20
20
20
20
0.09037129
0.09026979
0.09016371
0.09005374
0.08994025
0.08982332
0.0897028
0.08957869
0.08945672
0.08936771
0.3624935
0.3620616
20
20
20
20
20
20
20
20
20
20
20
20
20
20
20
0.3626101
0.3625447
0.3623684
20
20
20
20
20
20
20
20
20
20
20
20
20
20
20
0.3627362
0.3626881
0.3626337
0.3625372
20
20
20
20
20
20
20
20
20
20
20
20
20
20
20
0.3628507
0.3628034
0.3627616
0.3627216
0.3626685
20
20
20
20
20
20
20
20
20
20
20
20
20
20
20
0.3629527
0.3629053
0.3628645
0.3628315
0.3628054
0.6358543
20
20
20
20
20
20
20
20
20
20
20
20
20
20
20
0.3630435
0.3629966
0.3629552
0.3629216
0.3628977
0.635916
0.6358653
20
20
20
20
20
20
20
20
20
20
20
20
20
20
20
20
20
20
20
20
20
20
20
20
20
20
20
20
20
20
20
20
20
20
20
0.08932591
0.08908137
0.08859496
0.08659935
20
20
20
20
20
0.08948239
0.08924003
0.08876885
0.08751976
0.08317662
20
20
20
20
20
0.08963389
0.08942626
0.08909081
0.0883342
0.08633605
0.08064346
20
20
20
20
20
0.08977547
0.08959596
0.08935683
0.08893086
0.08794363
0.08551871
0.07949355
20
20
20
20
20
0.0899078
0.08974747
0.08956263
0.08930613
0.08883685
0.08779331
0.08545331
0.0800305
20
20
20
20
20
0.09003222
0.08988641
0.08973071
0.08955232
0.08930524
0.08887028
0.08798224
0.08619032
0.08210687
20
20
20
20
20
0.09014976
0.09001677
0.08987918
0.08973574
0.08957577
0.08936576
0.08903174
0.08843584
0.08740892
0.08526024
20
20
20
20
20
0.09026106
0.09014061
0.09001692
0.0898917
0.08976429
0.08962898
0.08946933
0.08925729
0.08896143
0.08863305
0.3613473
20
20
20
20
20
0.09036651
0.09025865
0.09014742
0.09003439
0.08992079
0.08980703
0.08969249
0.08957531
0.08946018
0.08938105
0.3624528
0.3617902
20
20
20
20
20
0.09046637
0.09037083
0.09027117
0.09016813
0.09006225
0.08995409
0.08984435
0.08973497
0.08963273
0.08956784
0.3626828
0.3625452
0.362175
20
20
20
20
20
20
20
20
20
20
20
20
20
20
20
0.3627255
0.362683
0.3626145
0.3624462
20
20
20
20
20
20
20
20
20
20
20
20
20
20
20
0.3628382
0.3627937
0.3627516
0.3627038
0.3626171
20
20
20
20
20
20
20
20
20
20
20
20
20
20
20
0.3629442
0.3628978
0.3628575
0.3628235
0.3627928
0.6358375
20
20
20
20
20
20
20
20
20
20
20
20
20
20
20
0.3630394
0.3629928
0.3629516
0.362918
0.3628935
0.6359124
0.6358575
20
20
20
20
20
20
20
20
20
20
20
20
20
20
20
0.3631246
0.3630785
0.3630369
0.3630016
0.3629753
0.6359621
0.6359189
0.6358685
20
20
20
20
20
20
20
20
20
20
20
20
20
20
20
20
20
20
20
20
20
20
20
20
20
20
20
20
20
20
20
20
20
20
20
20
20
20
20
20
0.08949606
0.08930824
0.08903605
0.08849265
0.08647179
20
20
20
20
20
0.08964142
0.08945589
0.08918821
0.08865909
0.08734276
0.0831069
20
20
20
20
20
0.08977966
0.089609
0.08939096
0.0890291
0.08823688
0.08630736
0.08103236
20
20
20
20
20
0.08990968
0.08975244
0.08957282
0.08932938
0.08889803
0.08795776
0.08584271
0.08066847
20
20
20
20
20
0.09003222
0.08988641
0.08973071
0.08955232
0.08930524
0.08887028
0.08798224
0.08619032
0.08210687
20
20
20
20
20
0.09014818
0.09001303
0.08987332
0.08972751
0.08956334
0.08934253
0.08898102
0.08832532
0.08720428
0.08502086
20
20
20
20
20
0.09025819
0.09013385
0.09000672
0.0898789
0.08974927
0.08960988
0.08943836
0.08919655
0.08884337
0.08845894
0.3611684
20
20
20
20
20
0.09036269
0.09024959
0.09013398
0.09001826
0.08990421
0.08979217
0.0896801
0.08956224
0.08943852
0.08934584
0.3623941
0.3615671
20
20
20
20
20
0.09046189
0.09036038
0.09025592
0.09015018
0.09004474
0.08994129
0.08984166
0.08974916
0.08967187
0.08963769
0.3627067
0.3625109
0.3619578
20
20
20
20
20
0.09055599
0.09046592
0.09037212
0.09027531
0.0901761
0.09007514
0.08997345
0.08987323
0.08978149
0.08972479
0.3628039
0.3627248
0.3626029
0.3622913
20
20
20
20
20
20
20
20
20
20
20
20
20
20
20
0.3628282
0.3627919
0.3627482
0.3626832
0.3625338
20
20
20
20
20
20
20
20
20
20
20
20
20
20
20
0.3629324
0.3628889
0.3628499
0.3628142
0.3627744
0.6358089
20
20
20
20
20
20
20
20
20
20
20
20
20
20
20
0.3630314
0.3629857
0.3629452
0.3629116
0.3628857
0.6359052
0.6358408
20
20
20
20
20
20
20
20
20
20
20
20
20
20
20
0.3631207
0.3630749
0.3630335
0.3629983
0.3629719
0.6359597
0.6359153
0.6358608
20
20
20
20
20
20
20
20
20
20
20
20
20
20
20
0.3632007
0.3631557
0.3631141
0.3630776
0.3630485
0.6360038
0.6359646
0.6359217
0.6358718
20
20
20
20
20
20
20
20
20
20
20
20
20
20
20
20
20
20
20
20
20
20
20
20
20
20
20
20
20
20
20
20
20
20
20
20
20
20
20
20
20
20
20
20
20
0.08965074
0.08949001
0.08929463
0.0890047
0.08843949
0.08645046
20
20
20
20
20
0.0897856
0.08962708
0.08943612
0.08915408
0.08860539
0.08733085
0.08334867
20
20
20
20
20
0.08991331
0.08976205
0.08959208
0.08937202
0.08900785
0.08825266
0.0865591
0.08195358
20
20
20
20
20
0.09003393
0.08989058
0.08973784
0.08956455
0.08933032
0.08893027
0.08812773
0.08649934
0.08255595
20
20
20
20
20
0.09014818
0.09001303
0.08987332
0.08972751
0.08956334
0.08934253
0.08898102
0.08832532
0.08720428
0.08502086
20
20
20
20
20
0.09025671
0.0901304
0.09000149
0.08987227
0.08974133
0.08959935
0.08942057
0.08916116
0.08877561
0.08836293
0.3610789
20
20
20
20
20
0.09035999
0.09024327
0.09012456
0.09000685
0.08989226
0.08978081
0.08966888
0.08954701
0.08941112
0.08930372
0.3623427
0.3614139
20
20
20
20
20
0.09045829
0.09035188
0.09024335
0.09013523
0.09002993
0.0899298
0.0898369
0.08975379
0.08968587
0.08965743
0.3627076
0.3624633
0.3617738
20
20
20
20
20
0.09055177
0.09045611
0.09035779
0.09025847
0.09015979
0.09006365
0.08997269
0.08989115
0.08982823
0.08980547
0.3628431
0.3627431
0.3625719
0.3621189
20
20
20
20
20
0.09064054
0.09055555
0.09046713
0.09037601
0.0902828
0.09018815
0.09009311
0.08999991
0.08991489
0.08986184
0.3629006
0.3628401
0.3627707
0.3626641
0.3624098
20
20
20
20
20
20
20
20
20
20
20
20
20
20
20
0.3629225
0.3628874
0.3628502
0.3628092
0.3627517
0.6357641
20
20
20
20
20
20
20
20
20
20
20
20
20
20
20
0.36302
0.3629771
0.3629384
0.3629048
0.3628759
0.6358945
0.6358123
20
20
20
20
20
20
20
20
20
20
20
20
20
20
20
0.363113
0.3630681
0.3630273
0.3629925
0.3629657
0.6359552
0.6359081
0.6358441
20
20
20
20
20
20
20
20
20
20
20
20
20
20
20
0.363197
0.3631522
0.3631108
0.3630745
0.3630454
0.6360019
0.6359622
0.6359181
0.6358641
20
20
20
20
20
20
20
20
20
20
20
20
20
20
20
0.3632724
0.3632286
0.3631874
0.3631502
0.3631189
0.6360435
0.636006
0.6359671
0.6359246
0.6358751
20
20
20
20
20
20
20
20
20
20
20
20
20
20
20
20
20
20
20
20
20
20
20
20
20
20
20
20
20
20
20
20
20
20
20
20
20
20
20
20
20
20
20
20
20
20
20
20
20
20
0.08979309
0.08964861
0.08948698
0.08928852
0.08899392
0.0884431
0.08653463
20
20
20
20
20
0.08991847
0.08977565
0.0896184
0.08942761
0.0891461
0.08862162
0.08749112
0.0839308
20
20
20
20
20
0.09003723
0.08989868
0.08975155
0.08958747
0.08937589
0.08903728
0.08838814
0.08706944
0.08347522
20
20
20
20
20
0.09014976
0.09001677
0.08987918
0.08973574
0.08957577
0.08936576
0.08903174
0.08843584
0.08740892
0.08526024
20
20
20
20
20
0.09025671
0.0901304
0.09000149
0.08987227
0.08974133
0.08959935
0.08942057
0.08916116
0.08877561
0.08836293
0.3610789
20
20
20
20
20
0.09035859
0.09024004
0.09011973
0.09000096
0.08988601
0.08977464
0.08966222
0.08953716
0.08939328
0.08927729
0.3623134
0.3613366
20
20
20
20
20
0.09045575
0.09034594
0.09023452
0.09012467
0.09001932
0.08992116
0.08983201
0.08975322
0.08968761
0.08965887
0.3627009
0.3624214
0.3616451
20
20
20
20
20
0.09054838
0.0904481
0.09034597
0.09024444
0.09014601
0.09005343
0.08997007
0.0899003
0.08985174
0.08983976
0.3628609
0.3627449
0.3625325
0.36197
20
20
20
20
20
0.09063658
0.09054632
0.09045366
0.09036016
0.09026741
0.09017731
0.09009247
0.0900173
0.08996021
0.08993962
0.3629409
0.362871
0.3627824
0.3626349
0.3622751
20
20
20
20
20
0.09072041
0.09064014
0.09055671
0.09047082
0.09038308
0.09029412
0.09020495
0.09011762
0.09003795
0.0899869
0.3629864
0.3629327
0.3628792
0.3628183
0.3627273
0.6357013
20
20
20
20
20
20
20
20
20
20
20
20
20
20
20
0.3630102
0.3629752
0.3629391
0.3629039
0.362868
0.6358809
0.6357678
20
20
20
20
20
20
20
20
20
20
20
20
20
20
20
0.3631021
0.3630598
0.3630208
0.3629866
0.3629587
0.6359494
0.6358974
0.6358157
20
20
20
20
20
20
20
20
20
20
20
20
20
20
20
0.3631896
0.3631457
0.363105
0.3630691
0.3630399
0.6359983
0.6359577
0.6359109
0.6358474
20
20
20
20
20
20
20
20
20
20
20
20
20
20
20
0.3632688
0.3632253
0.3631843
0.3631472
0.363116
0.6360417
0.6360041
0.6359647
0.635921
0.6358674
20
20
20
20
20
20
20
20
20
20
20
20
20
20
20
0.36334
0.3632975
0.363257
0.3632196
0.3631867
0.6360819
0.6360454
0.6360082
0.6359696
0.6359275
0.7269088
20
20
20
20
20
20
20
20
20
20
20
20
20
20
20
20
20
20
20
20
20
20
20
20
20
20
20
20
20
20
20
20
20
20
20
20
20
20
20
20
20
20
20
20
20
20
20
20
20
20
20
20
20
20
20
0.08992502
0.0897922
0.08964906
0.08948913
0.08929293
0.08900837
0.08850629
0.08673869
20
20
20
20
20
0.09004192
0.08991027
0.08977074
0.08961833
0.08943443
0.08917057
0.08871255
0.08781414
0.08493204
20
20
20
20
20
0.09015282
0.09002407
0.08989055
0.08975144
0.08959881
0.08940743
0.08912129
0.08863254
0.08778623
0.08575204
20
20
20
20
20
0.09025819
0.09013385
0.09000672
0.0898789
0.08974927
0.08960988
0.08943836
0.08919655
0.08884337
0.08845894
0.3611684
20
20
20
20
20
0.09035859
0.09024004
0.09011973
0.09000096
0.08988601
0.08977464
0.08966222
0.08953716
0.08939328
0.08927729
0.3623134
0.3613366
20
20
20
20
20
0.09045443
0.09034289
0.09022999
0.09011923
0.09001381
0.08991653
0.08982898
0.08975172
0.0896862
0.08965647
0.3626955
0.3623975
0.3615796
20
20
20
20
20
0.09054598
0.09044251
0.09033766
0.09023453
0.09013617
0.09004582
0.08996708
0.08990383
0.089862
0.08985401
0.3628681
0.3627404
0.3624983
0.3618644
20
20
20
20
20
0.09063338
0.09053879
0.09044252
0.09034693
0.09025441
0.0901677
0.09009023
0.0900268
0.08998455
0.08997563
0.3629622
0.3628866
0.3627835
0.3626017
0.3621579
20
20
20
20
20
0.09071667
0.09063146
0.09054402
0.09045587
0.09036851
0.09028372
0.09020399
0.09013334
0.09007949
0.09005806
0.3630238
0.3629644
0.3629013
0.3628235
0.362699
0.6356343
20
20
20
20
20
0.09079588
0.09072004
0.09064125
0.09056022
0.09047751
0.09039376
0.0903099
0.09022781
0.09015273
0.0901034
0.3630658
0.3630152
0.3629668
0.3629193
0.3628667
0.6358656
0.6357059
20
20
20
20
20
20
20
20
20
20
20
20
20
20
20
0.3630922
0.3630571
0.363021
0.3629864
0.3629549
0.6359437
0.6358837
0.6357716
20
20
20
20
20
20
20
20
20
20
20
20
20
20
20
0.3631791
0.3631376
0.3630985
0.3630634
0.3630338
0.6359941
0.6359519
0.6359002
0.6358191
20
20
20
20
20
20
20
20
20
20
20
20
20
20
20
0.3632617
0.3632189
0.3631786
0.3631419
0.3631108
0.6360386
0.6360005
0.6359602
0.6359138
0.6358508
20
20
20
20
20
20
20
20
20
20
20
20
20
20
20
0.3633365
0.3632943
0.363254
0.3632167
0.3631839
0.6360802
0.6360437
0.6360063
0.6359672
0.6359239
0.726903
20
20
20
20
20
20
20
20
20
20
20
20
20
20
20
0.3634038
0.3633628
0.3633232
0.3632859
0.3632522
0.6361191
0.6360836
0.6360474
0.6360104
0.6359721
0.7269478
0.7269109
20
20
20
20
20
20
20
20
20
20
20
20
20
20
20
20
20
20
20
20
20
20
20
20
20
20
20
20
20
20
20
20
20
20
20
20
20
20
20
20
20
20
20
20
20
20
20
20
20
20
20
20
20
20
20
20
20
20
20
20
0.09004787
0.0899245
0.08979365
0.08965367
0.08949807
0.08931014
0.0890501
0.08862763
0.08710533
20
20
20
20
20
0.09015718
0.09003453
0.08990668
0.08977318
0.08962931
0.08945979
0.0892306
0.08887436
0.08827708
0.08653885
20
20
20
20
20
0.09026106
0.09014061
0.09001692
0.0898917
0.08976429
0.08962898
0.08946933
0.08925729
0.08896143
0.08863305
0.3613473
20
20
20
20
20
0.09035999
0.09024327
0.09012456
0.09000685
0.08989226
0.08978081
0.08966888
0.08954701
0.08941112
0.08930372
0.3623427
0.3614139
20
20
20
20
20
0.09045443
0.09034289
0.09022999
0.09011923
0.09001381
0.08991653
0.08982898
0.08975172
0.0896862
0.08965647
0.3626955
0.3623975
0.3615796
20
20
20
20
20
0.09054473
0.09043964
0.0903334
0.09022942
0.09013106
0.09004177
0.08996517
0.08990477
0.08986559
0.08985902
0.3628704
0.3627365
0.3624789
0.3618102
20
20
20
20
20
0.09063111
0.09053351
0.09043469
0.09033758
0.09024513
0.09016058
0.09008768
0.09003106
0.0899964
0.08999264
0.362973
0.3628935
0.3627801
0.3625738
0.3620739
20
20
20
20
20
0.09071365
0.09062435
0.09053352
0.09044339
0.0903562
0.09027453
0.09020163
0.09014197
0.09010218
0.09009185
0.3630445
0.3629827
0.3629137
0.3628229
0.3626707
0.6355761
20
20
20
20
20
0.09079236
0.09071187
0.09062932
0.09054613
0.09046373
0.09038378
0.09030857
0.09024177
0.09019022
0.09016763
0.3630993
0.3630445
0.36299
0.3629332
0.3628656
0.6358496
0.63564
20
20
20
20
20
0.09086723
0.09079555
0.09072112
0.09064461
0.09056658
0.09048764
0.09040864
0.09033134
0.09026046
0.09021279
0.3631405
0.3630919
0.3630457
0.3630018
0.3629596
0.6359403
0.6358683
0.6357104
20
20
20
20
20
20
20
20
20
20
20
20
20
20
20
0.3631692
0.3631343
0.363098
0.3630629
0.3630311
0.6359909
0.6359461
0.6358865
0.6357753
20
20
20
20
20
20
20
20
20
20
20
20
20
20
20
0.3632516
0.363211
0.3631722
0.3631363
0.3631051
0.6360349
0.6359963
0.6359544
0.6359031
0.6358225
20
20
20
20
20
20
20
20
20
20
20
20
20
20
20
0.3633297
0.3632882
0.3632485
0.3632116
0.363179
0.6360773
0.6360405
0.6360027
0.6359628
0.6359167
0.7268906
20
20
20
20
20
20
20
20
20
20
20
20
20
20
20
0.3634004
0.3633597
0.3633203
0.3632831
0.3632495
0.6361176
0.636082
0.6360456
0.6360085
0.6359698
0.7269451
0.7269051
20
20
20
20
20
20
20
20
20
20
20
20
20
20
20
0.3634641
0.3634246
0.3633861
0.3633493
0.3633152
0.6361553
0.6361207
0.6360854
0.6360493
0.6360126
0.726981
0.7269496
0.7269125
20
20
20
20
20
20
20
20
20
20
20
20
20
20
20
20
20
20
20
20
20
20
20
20
20
20
20
20
20
20
20
20
20
20
20
20
20
20
20
20
20
20
20
20
20
20
20
20
20
20
20
20
20
20
20
20
20
20
20
20
20
20
20
20
20
0.09016267
0.09004743
0.08992615
0.08979876
0.08966356
0.0895151
0.08934159
0.08911933
0.08880497
0.08775576
20
20
20
20
20
0.09026513
0.0901503
0.09003143
0.08990969
0.08978476
0.08965339
0.08950601
0.08932678
0.08909865
0.08884907
0.3616134
20
20
20
20
20
0.09036269
0.09024959
0.09013398
0.09001826
0.08990421
0.08979217
0.0896801
0.08956224
0.08943852
0.08934584
0.3623941
0.3615671
20
20
20
20
20
0.09045575
0.09034594
0.09023452
0.09012467
0.09001932
0.08992116
0.08983201
0.08975322
0.08968761
0.08965887
0.3627009
0.3624214
0.3616451
20
20
20
20
20
0.09054473
0.09043964
0.0903334
0.09022942
0.09013106
0.09004177
0.08996517
0.08990477
0.08986559
0.08985902
0.3628704
0.3627365
0.3624789
0.3618102
20
20
20
20
20
0.09062993
0.09053081
0.09043067
0.09033277
0.09024031
0.0901568
0.09008605
0.09003252
0.0900011
0.08999949
0.3629774
0.3628959
0.3627771
0.3625581
0.3620304
20
20
20
20
20
0.0907115
0.09061938
0.09052614
0.09043456
0.0903474
0.09026772
0.09019911
0.0901459
0.09011351
0.09010837
0.3630555
0.3629924
0.3629196
0.3628199
0.362648
0.6355342
20
20
20
20
20
0.09078951
0.09070518
0.09061942
0.09053435
0.09045207
0.09037496
0.09030603
0.09024934
0.09021071
0.09019835
0.3631183
0.3630622
0.3630047
0.3629419
0.3628629
0.6358347
0.6355827
20
20
20
20
20
0.09086391
0.09078787
0.09070989
0.09063134
0.09055356
0.09047809
0.09040704
0.09034373
0.09029429
0.09027071
0.3631704
0.3631181
0.3630671
0.3630169
0.362966
0.6359379
0.6358523
0.6356456
20
20
20
20
20
0.09093469
0.09086696
0.09079662
0.09072435
0.09065069
0.09057621
0.09050173
0.09042884
0.09036187
0.09031596
0.3632113
0.3631644
0.3631193
0.3630767
0.3630368
0.6359908
0.6359425
0.635871
0.635715
20
20
20
20
20
20
20
20
20
20
20
20
20
20
20
0.3632417
0.3632072
0.363171
0.3631353
0.3631024
0.6360324
0.635993
0.6359485
0.6358893
0.6357791
20
20
20
20
20
20
20
20
20
20
20
20
20
20
20
0.3633199
0.3632804
0.3632422
0.3632061
0.3631734
0.6360739
0.6360368
0.6359985
0.6359569
0.635906
0.7268695
20
20
20
20
20
20
20
20
20
20
20
20
20
20
20
0.3633939
0.3633538
0.3633149
0.3632782
0.3632447
0.6361148
0.636079
0.6360425
0.636005
0.6359653
0.7269397
0.7268927
20
20
20
20
20
20
20
20
20
20
20
20
20
20
20
0.3634609
0.3634216
0.3633833
0.3633466
0.3633126
0.6361538
0.6361192
0.6360837
0.6360476
0.6360107
0.7269792
0.726947
0.7269068
20
20
20
20
20
20
20
20
20
20
20
20
20
20
20
0.3635211
0.3634832
0.3634459
0.3634098
0.3633758
0.6361902
0.6361567
0.6361223
0.6360871
0.6360513
0.7270112
0.7269826
0.7269511
0.7269137
20
20
20
20
20
20
20
20
20
20
20
20
20
20
20
20
20
20
20
20
20
20
20
20
20
20
20
20
20
20
20
20
20
20
20
20
20
20
20
20
20
20
20
20
20
20
20
20
20
20
20
20
20
20
20
20
20
20
20
20
20
20
20
20
20
20
20
20
20
20
0.09027025
0.09016223
0.09004902
0.08993114
0.08980841
0.08967961
0.08954136
0.08938875
0.08921853
0.08904814
0.3619517
20
20
20
20
20
0.09036651
0.09025865
0.09014742
0.09003439
0.08992079
0.08980703
0.08969249
0.08957531
0.08946018
0.08938105
0.3624528
0.3617902
20
20
20
20
20
0.09045829
0.09035188
0.09024335
0.09013523
0.09002993
0.0899298
0.0898369
0.08975379
0.08968587
0.08965743
0.3627076
0.3624633
0.3617738
20
20
20
20
20
0.09054598
0.09044251
0.09033766
0.09023453
0.09013617
0.09004582
0.08996708
0.08990383
0.089862
0.08985401
0.3628681
0.3627404
0.3624983
0.3618644
20
20
20
20
20
0.09062993
0.09053081
0.09043067
0.09033277
0.09024031
0.0901568
0.09008605
0.09003252
0.0900011
0.08999949
0.3629774
0.3628959
0.3627771
0.3625581
0.3620304
20
20
20
20
20
0.09071038
0.09061683
0.09052235
0.09043001
0.09034284
0.09026411
0.09019754
0.09014729
0.09011814
0.09011524
0.3630603
0.3629966
0.3629218
0.3628175
0.3626355
0.6355124
20
20
20
20
20
0.09078747
0.09070049
0.09061246
0.09052601
0.09044372
0.09036843
0.09030344
0.09025272
0.09022098
0.09021353
0.3631286
0.3630721
0.3630128
0.3629464
0.3628598
0.6358231
0.6355414
20
20
20
20
20
0.09086121
0.09078157
0.09070057
0.09062023
0.09054252
0.09046965
0.09040436
0.09035032
0.09031269
0.09029843
0.3631876
0.3631343
0.3630813
0.3630276
0.3629708
0.6359357
0.6358375
0.6355892
20
20
20
20
20
0.09093157
0.09085973
0.09078606
0.09071186
0.0906384
0.09056712
0.09049996
0.09043993
0.09039253
0.09036842
0.3632381
0.3631876
0.3631384
0.3630908
0.3630446
0.6359923
0.6359399
0.635855
0.6356513
20
20
20
20
20
0.09099847
0.09093447
0.09086802
0.09079974
0.09073017
0.09065987
0.0905896
0.09052083
0.09045752
0.09041345
0.3632787
0.3632333
0.3631893
0.3631471
0.3631076
0.6360331
0.6359926
0.6359446
0.6358737
0.6357196
20
20
20
20
20
20
20
20
20
20
20
20
20
20
20
0.3633101
0.3632763
0.3632404
0.3632045
0.3631706
0.6360715
0.6360343
0.635995
0.6359509
0.6358921
0.7268372
20
20
20
20
20
20
20
20
20
20
20
20
20
20
20
0.3633844
0.3633462
0.3633087
0.3632727
0.3632392
0.6361115
0.6360756
0.6360388
0.6360006
0.6359593
0.7269317
0.7268717
20
20
20
20
20
20
20
20
20
20
20
20
20
20
20
0.3634545
0.3634159
0.3633781
0.3633418
0.3633079
0.6361511
0.6361163
0.6360808
0.6360445
0.6360072
0.7269759
0.7269416
0.7268944
20
20
20
20
20
20
20
20
20
20
20
20
20
20
20
0.363518
0.3634803
0.3634432
0.3634073
0.3633733
0.6361888
0.6361552
0.6361207
0.6360855
0.6360496
0.7270097
0.7269808
0.7269484
0.726908
20
20
20
20
20
20
20
20
20
20
20
20
20
20
20
0.3635752
0.3635388
0.3635028
0.3634677
0.363434
0.636224
0.6361915
0.6361582
0.6361239
0.6360889
0.72704
0.7270126
0.7269838
0.7269521
0.7269145
20
20
20
20
20
20
20
20
20
20
20
20
20
20
20
20
20
20
20
20
20
20
20
20
20
20
20
20
20
20
20
20
20
20
20
20
20
20
20
20
20
20
20
20
20
20
20
20
20
20
20
20
20
20
20
20
20
20
20
20
20
20
20
20
20
20
20
20
20
0.3622674
20
20
20
20
20
0.09037129
0.09026979
0.09016371
0.09005374
0.08994025
0.08982332
0.0897028
0.08957869
0.08945672
0.08936771
0.3624935
0.3620616
20
20
20
20
20
0.09046189
0.09036038
0.09025592
0.09015018
0.09004474
0.08994129
0.08984166
0.08974916
0.08967187
0.08963769
0.3627067
0.3625109
0.3619578
20
20
20
20
20
0.09054838
0.0904481
0.09034597
0.09024444
0.09014601
0.09005343
0.08997007
0.0899003
0.08985174
0.08983976
0.3628609
0.3627449
0.3625325
0.36197
20
20
20
20
20
0.09063111
0.09053351
0.09043469
0.09033758
0.09024513
0.09016058
0.09008768
0.09003106
0.0899964
0.08999264
0.362973
0.3628935
0.3627801
0.3625738
0.3620739
20
20
20
20
20
0.09071038
0.09061683
0.09052235
0.09043001
0.09034284
0.09026411
0.09019754
0.09014729
0.09011814
0.09011524
0.3630603
0.3629966
0.3629218
0.3628175
0.3626355
0.6355124
20
20
20
20
20
0.09078641
0.09069808
0.09060888
0.09052171
0.0904394
0.09036498
0.09030186
0.09025389
0.09022519
0.0902199
0.3631331
0.3630764
0.3630165
0.3629482
0.3628578
0.6358168
0.63552
20
20
20
20
20
0.09085929
0.09077714
0.09069401
0.09061236
0.09053462
0.0904634
0.09040173
0.09035317
0.09032188
0.09031216
0.3631969
0.3631434
0.3630895
0.363034
0.3629737
0.6359338
0.6358261
0.6355486
20
20
20
20
20
0.09092901
0.0908538
0.09077729