/*--------------------------------*- C++ -*----------------------------------*\
| =========                 |                                                 |
| \\      /  F ield         | OpenFOAM: The Open Source CFD Toolbox           |
|  \\    /   O peration     | Version:  2306                                  |
|   \\  /    A nd           | Website:  www.openfoam.com                      |
|    \\/     M anipulation  |                                                 |
\*---------------------------------------------------------------------------*/
FoamFile
{
    version     2.0;
    format      ascii;
    arch        "LSB;label=32;scalar=64";
    class       volScalarField;
    location    "1.2";
    object      rhoCp;
}
// * * * * * * * * * * * * * * * * * * * * * * * * * * * * * * * * * * * * * //

dimensions      [1 -1 -2 -1 0 0 0];

internalField   nonuniform List<scalar> 
52000
(
5346000
5346000
5346000
5346000
5346000
5346000
5346000
5346000
5346000
5346000
5346000
5346000
5346000
5346000
5346000
5346000
5346000
5346000
5346000
5346000
5346000
5346000
5346000
5346000
5346000
5346000
5346000
5346000
5346000
5346000
5346000
5346000
5346000
5346000
5346000
5346000
5346000
5346000
5346000
5346000
5346000
5346000
5346000
5346000
5346000
5346000
5346000
5346000
5346000
5346000
5346000
5346000
5346000
5346000
5346000
5346000
5346000
5346000
5346000
5346000
5346000
5346000
5346000
5346000
5346000
5346000
5346000
5346000
5346000
5346000
5346000
5346000
5346000
5346000
5346000
5346000
5346000
5346000
5346000
5346000
5346000
5346000
5346000
5346000
5346000
5346000
5346000
5346000
5346000
5346000
5346000
5346000
5346000
5346000
5346000
5346000
5346000
5346000
5346000
5346000
5346000
5346000
5346000
5346000
5346000
5346000
5346000
5346000
5346000
5346000
5346000
5346000
5346000
5346000
5346000
5346000
5346000
5346000
5346000
5346000
5346000
5346000
5346000
5346000
5346000
5346000
5346000
5346000
5346000
5346000
5346000
5346000
5346000
5346000
5346000
5346000
5346000
5346000
5346000
5346000
5346000
5346000
5346000
5346000
5346000
5346000
5346000
5346000
5346000
5346000
5346000
5346000
5346000
5346000
5346000
5346000
5346000
5346000
5346000
5346000
5346000
5346000
5346000
5346000
5346000
5346000
5346000
5346000
5346000
5346000
5346000
5346000
5346000
5346000
5346000
5346000
5346000
5346000
5346000
5346000
5346000
5346000
5346000
5346000
5346000
5346000
5346000
5346000
5346000
5346000
5346000
5346000
5346000
5346000
5346000
5346000
5346000
5346000
5346000
5346000
5346000
5346000
5346000
5346000
5346000
5346000
5346000
5346000
5346000
5346000
5346000
5346000
5346000
5346000
5346000
5346000
5346000
5346000
5346000
5346000
5346000
5346000
5346000
5346000
5346000
5346000
5346000
5346000
5346000
5346000
5346000
5346000
5346000
5346000
5346000
5346000
5346000
5346000
5346000
5346000
332.0064
5346000
5346000
5346000
5346000
5346000
5346000
5346000
5346000
5346000
5346000
5346000
5346000
5346000
5346000
5346000
5346000
5346000
5346000
5346000
5346000
5346000
5346000
5346000
5346000
5346000
5346000
5346000
5346000
5346000
5346000
5346000
5346000
5346000
5346000
5346000
5346000
5346000
5346000
5346000
5346000
5346000
5346000
5346000
5346000
5346000
5346000
5346000
5346000
5346000
5346000
5346000
5346000
5346000
5346000
5346000
5346000
5346000
5346000
5346000
5346000
5346000
5346000
5346000
5346000
5346000
335.2135
5346000
5346000
5346000
5346000
5346000
328.3117
335.2728
5346000
5346000
5346000
5346000
5346000
5346000
5346000
5346000
5346000
5346000
5346000
5346000
5346000
5346000
5346000
5346000
5346000
5346000
5346000
5346000
5346000
5346000
5346000
5346000
5346000
5346000
5346000
5346000
5346000
5346000
5346000
5346000
5346000
5346000
5346000
5346000
5346000
5346000
5346000
5346000
5346000
5346000
5346000
5346000
5346000
5346000
5346000
5346000
5346000
5346000
5346000
5346000
5346000
5346000
5346000
5346000
5346000
5346000
5346000
5346000
5346000
5346000
5346000
5346000
5346000
5346000
5346000
5346000
5346000
5346000
337.041
5346000
5346000
5346000
5346000
5346000
328.9942
343.3886
5346000
5346000
5346000
5346000
5346000
327.3441
329.002
337.1527
5346000
5346000
5346000
5346000
5346000
5346000
5346000
5346000
5346000
5346000
5346000
5346000
5346000
5346000
5346000
5346000
5346000
5346000
5346000
5346000
5346000
5346000
5346000
5346000
5346000
5346000
5346000
5346000
5346000
5346000
5346000
5346000
5346000
5346000
5346000
5346000
5346000
5346000
5346000
5346000
5346000
5346000
5346000
5346000
5346000
5346000
5346000
5346000
5346000
5346000
5346000
5346000
5346000
5346000
5346000
5346000
5346000
5346000
5346000
5346000
5346000
5346000
5346000
5346000
5346000
5346000
5346000
5346000
5346000
5346000
5346000
5346000
5346000
5346000
5346000
338.0981
5346000
5346000
5346000
5346000
5346000
329.5886
348.705
5346000
5346000
5346000
5346000
5346000
327.5854
331.0298
348.7956
5346000
5346000
5346000
5346000
5346000
326.5657
327.567
329.6008
338.2712
5346000
5346000
5346000
5346000
5346000
5346000
5346000
5346000
5346000
5346000
5346000
5346000
5346000
5346000
5346000
5346000
5346000
5346000
5346000
5346000
5346000
5346000
5346000
5346000
5346000
5346000
5346000
5346000
5346000
5346000
5346000
5346000
5346000
5346000
5346000
5346000
5346000
5346000
5346000
5346000
5346000
5346000
5346000
5346000
5346000
5346000
5346000
5346000
5346000
5346000
5346000
5346000
5346000
5346000
5346000
5346000
5346000
5346000
5346000
5346000
5346000
5346000
5346000
5346000
5346000
5346000
5346000
5346000
5346000
5346000
5346000
5346000
5346000
5346000
5346000
5346000
5346000
5346000
5346000
5346000
338.5931
5346000
5346000
5346000
5346000
5346000
330.0281
351.9938
5346000
5346000
5346000
5346000
5346000
327.8016
332.8324
357.133
5346000
5346000
5346000
5346000
5346000
326.6694
328.2698
332.8521
352.2408
5346000
5346000
5346000
5346000
5346000
325.8866
326.6422
327.7639
330.0455
338.847
5346000
5346000
5346000
5346000
5346000
5346000
5346000
5346000
5346000
5346000
5346000
5346000
5346000
5346000
5346000
5346000
5346000
5346000
5346000
5346000
5346000
5346000
5346000
5346000
5346000
5346000
5346000
5346000
5346000
5346000
5346000
5346000
5346000
5346000
5346000
5346000
5346000
5346000
5346000
5346000
5346000
5346000
5346000
5346000
5346000
5346000
5346000
5346000
5346000
5346000
5346000
5346000
5346000
5346000
5346000
5346000
5346000
5346000
5346000
5346000
5346000
5346000
5346000
5346000
5346000
5346000
5346000
5346000
5346000
5346000
5346000
5346000
5346000
5346000
5346000
5346000
5346000
5346000
5346000
5346000
5346000
5346000
5346000
5346000
5346000
338.5931
5346000
5346000
5346000
5346000
5346000
330.2617
353.5811
5346000
5346000
5346000
5346000
5346000
327.9669
334.1839
362.6023
5346000
5346000
5346000
5346000
5346000
326.7592
328.9124
335.8128
362.8252
5346000
5346000
5346000
5346000
5346000
325.9422
326.9268
328.8934
334.2432
354.0736
5346000
5346000
5346000
5346000
5346000
325.2701
325.9141
326.7049
327.9062
330.2854
338.9535
5346000
5346000
5346000
5346000
5346000
5346000
5346000
5346000
5346000
5346000
5346000
5346000
5346000
5346000
5346000
5346000
5346000
5346000
5346000
5346000
5346000
5346000
5346000
5346000
5346000
5346000
5346000
5346000
5346000
5346000
5346000
5346000
5346000
5346000
5346000
5346000
5346000
5346000
5346000
5346000
5346000
5346000
5346000
5346000
5346000
5346000
5346000
5346000
5346000
5346000
5346000
5346000
5346000
5346000
5346000
5346000
5346000
5346000
5346000
5346000
5346000
5346000
5346000
5346000
5346000
5346000
5346000
5346000
5346000
327.7512
5346000
5346000
5346000
5346000
5346000
5346000
5346000
5346000
5346000
5346000
5346000
5346000
5346000
5346000
5346000
5346000
5346000
5346000
5346000
5346000
338.0981
5346000
5346000
5346000
5346000
5346000
330.2617
353.5811
5346000
5346000
5346000
5346000
5346000
328.0568
334.908
365.3319
5346000
5346000
5346000
5346000
5346000
326.8268
329.4098
338.0747
370.0596
5346000
5346000
5346000
5346000
5346000
325.9879
327.1818
329.946
338.1384
365.961
5346000
5346000
5346000
5346000
5346000
325.3075
326.0548
327.1499
329.3695
335.0281
354.4182
5346000
5346000
5346000
5346000
5346000
324.7065
325.2811
325.932
326.7404
327.9665
330.2885
338.5948
5346000
5346000
5346000
5346000
5346000
5346000
5346000
5346000
5346000
5346000
5346000
5346000
5346000
5346000
5346000
5346000
5346000
5346000
5346000
5346000
5346000
5346000
5346000
5346000
5346000
5346000
5346000
5346000
5346000
5346000
5346000
5346000
5346000
5346000
5346000
5346000
5346000
5346000
5346000
5346000
5346000
5346000
5346000
5346000
5346000
5346000
5346000
5346000
5346000
5346000
5346000
5346000
5346000
5346000
5346000
5346000
5346000
327.7958
5346000
5346000
5346000
5346000
5346000
5346000
5346000
5346000
5346000
5346000
5346000
5346000
5346000
5346000
5346000
326.9781
327.3019
5346000
5346000
5346000
5346000
5346000
5346000
5346000
5346000
5346000
5346000
5346000
5346000
5346000
5346000
5346000
5346000
5346000
5346000
5346000
5346000
337.041
5346000
5346000
5346000
5346000
5346000
330.0281
351.9938
5346000
5346000
5346000
5346000
5346000
328.0568
334.908
365.3319
5346000
5346000
5346000
5346000
5346000
326.8633
329.6823
339.3001
373.7605
5346000
5346000
5346000
5346000
5346000
326.0213
327.3768
330.7726
341.1613
374.2753
5346000
5346000
5346000
5346000
5346000
325.3369
326.1762
327.5571
330.7535
339.4774
366.5661
5346000
5346000
5346000
5346000
5346000
324.7362
325.3689
326.1424
327.303
329.6125
335.0977
353.2763
5346000
5346000
5346000
5346000
5346000
324.1852
324.7121
325.2842
325.9323
326.7364
327.9256
330.0436
337.7118
5346000
5346000
5346000
5346000
5346000
5346000
5346000
5346000
5346000
5346000
5346000
5346000
5346000
5346000
5346000
5346000
5346000
5346000
5346000
5346000
5346000
5346000
5346000
5346000
5346000
5346000
5346000
5346000
5346000
5346000
5346000
5346000
5346000
5346000
5346000
5346000
5346000
5346000
5346000
5346000
5346000
5346000
5346000
5346000
327.8888
5346000
5346000
5346000
5346000
5346000
5346000
5346000
5346000
5346000
5346000
5346000
5346000
5346000
5346000
5346000
327.0031
327.3549
5346000
5346000
5346000
5346000
5346000
5346000
5346000
5346000
5346000
5346000
5346000
5346000
5346000
5346000
5346000
326.2602
326.5713
326.8477
5346000
5346000
5346000
5346000
5346000
5346000
5346000
5346000
5346000
5346000
5346000
5346000
5346000
5346000
5346000
5346000
5346000
5346000
5346000
5346000
335.2135
5346000
5346000
5346000
5346000
5346000
329.5886
348.705
5346000
5346000
5346000
5346000
5346000
327.9669
334.1839
362.6023
5346000
5346000
5346000
5346000
5346000
326.8633
329.6823
339.3001
373.7605
5346000
5346000
5346000
5346000
5346000
326.0389
327.4831
331.229
342.8156
378.5901
5346000
5346000
5346000
5346000
5346000
325.3576
326.2663
327.8734
331.8534
342.9638
375.1056
5346000
5346000
5346000
5346000
5346000
324.759
325.4418
326.3284
327.8263
331.1846
339.6219
364.6156
5346000
5346000
5346000
5346000
5346000
324.211
324.7791
325.4097
326.1869
327.3508
329.563
334.4213
350.5378
5346000
5346000
5346000
5346000
5346000
323.7018
324.1892
324.7109
325.2737
325.9087
326.6839
327.7755
329.5586
336.127
5346000
5346000
5346000
5346000
5346000
5346000
5346000
5346000
5346000
5346000
5346000
5346000
5346000
5346000
5346000
5346000
5346000
5346000
5346000
5346000
5346000
5346000
5346000
5346000
5346000
5346000
5346000
5346000
5346000
5346000
328.051
5346000
5346000
5346000
5346000
5346000
5346000
5346000
5346000
5346000
5346000
5346000
5346000
5346000
5346000
5346000
327.0522
327.471
5346000
5346000
5346000
5346000
5346000
5346000
5346000
5346000
5346000
5346000
5346000
5346000
5346000
5346000
5346000
326.2798
326.5958
326.9073
5346000
5346000
5346000
5346000
5346000
5346000
5346000
5346000
5346000
5346000
5346000
5346000
5346000
5346000
5346000
325.6098
325.9061
326.1624
326.3843
5346000
5346000
5346000
5346000
5346000
5346000
5346000
5346000
5346000
5346000
5346000
5346000
5346000
5346000
5346000
5346000
5346000
5346000
5346000
5346000
332.0064
5346000
5346000
5346000
5346000
5346000
328.9942
343.3886
5346000
5346000
5346000
5346000
5346000
327.8016
332.8324
357.133
5346000
5346000
5346000
5346000
5346000
326.8268
329.4098
338.0747
370.0596
5346000
5346000
5346000
5346000
5346000
326.0389
327.4831
331.229
342.8156
378.5901
5346000
5346000
5346000
5346000
5346000
325.3683
326.3145
328.0474
332.4651
344.8841
379.5518
5346000
5346000
5346000
5346000
5346000
324.7747
325.4941
326.4687
328.2383
332.444
343.1755
372.4864
5346000
5346000
5346000
5346000
5346000
324.2305
324.8333
325.5164
326.4161
327.9298
331.1359
338.5215
360.0521
5346000
5346000
5346000
5346000
5346000
323.7251
324.2465
324.8038
325.4183
326.1718
327.2672
329.2016
333.0479
345.9034
5346000
5346000
5346000
5346000
5346000
323.2512
323.7054
324.1869
324.6979
325.2456
325.8563
326.5772
327.516
328.8458
333.3373
5346000
5346000
5346000
5346000
5346000
5346000
5346000
5346000
5346000
5346000
5346000
5346000
5346000
5346000
5346000
328.3891
5346000
5346000
5346000
5346000
5346000
5346000
5346000
5346000
5346000
5346000
5346000
5346000
5346000
5346000
5346000
327.1247
327.6911
5346000
5346000
5346000
5346000
5346000
5346000
5346000
5346000
5346000
5346000
5346000
5346000
5346000
5346000
5346000
326.3174
326.6432
327.0404
5346000
5346000
5346000
5346000
5346000
5346000
5346000
5346000
5346000
5346000
5346000
5346000
5346000
5346000
5346000
325.627
325.9231
326.1866
326.4482
5346000
5346000
5346000
5346000
5346000
5346000
5346000
5346000
5346000
5346000
5346000
5346000
5346000
5346000
5346000
325.0217
325.3034
325.5509
325.7487
325.9203
5346000
5346000
5346000
5346000
5346000
5346000
5346000
5346000
5346000
5346000
5346000
5346000
5346000
5346000
5346000
5346000
5346000
5346000
5346000
5346000
5346000
5346000
5346000
5346000
5346000
328.3117
335.2728
5346000
5346000
5346000
5346000
5346000
327.5854
331.0298
348.7956
5346000
5346000
5346000
5346000
5346000
326.7592
328.9124
335.8128
362.8252
5346000
5346000
5346000
5346000
5346000
326.0213
327.3768
330.7726
341.1613
374.2753
5346000
5346000
5346000
5346000
5346000
325.3683
326.3145
328.0474
332.4651
344.8841
379.5518
5346000
5346000
5346000
5346000
5346000
324.7827
325.5214
326.5445
328.4667
333.148
345.1358
376.5522
5346000
5346000
5346000
5346000
5346000
324.2439
324.8712
325.5942
326.5917
328.3906
332.4015
341.7281
366.4664
5346000
5346000
5346000
5346000
5346000
323.7428
324.2922
324.8807
325.5435
326.4129
327.8245
330.5799
336.2923
352.7153
5346000
5346000
5346000
5346000
5346000
323.2726
323.757
324.2654
324.8016
325.3853
326.0842
327.0395
328.5462
331.0898
338.6685
5346000
5346000
5346000
5346000
5346000
322.8302
323.2546
323.703
324.174
324.6702
325.1965
325.7704
326.4105
327.1379
327.8689
330.2068
5346000
5346000
5346000
5346000
5346000
5346000
5346000
5346000
5346000
5346000
5346000
5346000
5346000
5346000
5346000
327.1937
328.1644
5346000
5346000
5346000
5346000
5346000
5346000
5346000
5346000
5346000
5346000
5346000
5346000
5346000
5346000
5346000
326.3691
326.7096
327.2941
5346000
5346000
5346000
5346000
5346000
5346000
5346000
5346000
5346000
5346000
5346000
5346000
5346000
5346000
5346000
325.6597
325.9532
326.2332
326.591
5346000
5346000
5346000
5346000
5346000
5346000
5346000
5346000
5346000
5346000
5346000
5346000
5346000
5346000
5346000
325.0375
325.3174
325.5657
325.7727
325.9863
5346000
5346000
5346000
5346000
5346000
5346000
5346000
5346000
5346000
5346000
5346000
5346000
5346000
5346000
5346000
324.4777
324.7555
324.996
325.1922
325.3387
325.6491
5346000
5346000
5346000
5346000
5346000
5346000
5346000
5346000
5346000
5346000
5346000
5346000
5346000
5346000
5346000
5346000
5346000
5346000
5346000
5346000
5346000
5346000
5346000
5346000
5346000
5346000
5346000
5346000
5346000
5346000
327.3441
329.002
337.1527
5346000
5346000
5346000
5346000
5346000
326.6694
328.2698
332.8521
352.2408
5346000
5346000
5346000
5346000
5346000
325.9879
327.1818
329.946
338.1384
365.961
5346000
5346000
5346000
5346000
5346000
325.3576
326.2663
327.8734
331.8534
342.9638
375.1056
5346000
5346000
5346000
5346000
5346000
324.7827
325.5214
326.5445
328.4667
333.148
345.1358
376.5522
5346000
5346000
5346000
5346000
5346000
324.2508
324.8907
325.6352
326.6875
328.6477
333.1105
343.4917
369.7215
5346000
5346000
5346000
5346000
5346000
323.7548
324.3239
324.9352
325.6361
326.6005
328.2727
331.6926
338.8102
357.127
5346000
5346000
5346000
5346000
5346000
323.2888
323.7981
324.3295
324.8886
325.5085
326.2988
327.4943
329.5665
333.1966
342.1861
5346000
5346000
5346000
5346000
5346000
322.85
323.3023
323.7737
324.2604
324.7655
325.3024
325.9143
326.6655
327.635
328.6945
332.2363
5346000
5346000
5346000
5346000
5346000
322.4358
322.8336
323.2526
323.691
324.148
324.625
325.1224
325.6437
326.1632
326.5605
326.9784
329.5641
5346000
5346000
5346000
5346000
5346000
5346000
5346000
5346000
5346000
5346000
5346000
5346000
5346000
5346000
5346000
326.3889
326.7628
327.7994
5346000
5346000
5346000
5346000
5346000
5346000
5346000
5346000
5346000
5346000
5346000
5346000
5346000
5346000
5346000
325.7037
325.9854
326.2981
326.857
5346000
5346000
5346000
5346000
5346000
5346000
5346000
5346000
5346000
5346000
5346000
5346000
5346000
5346000
5346000
325.0676
325.3417
325.5906
325.8194
326.1323
5346000
5346000
5346000
5346000
5346000
5346000
5346000
5346000
5346000
5346000
5346000
5346000
5346000
5346000
5346000
324.4926
324.7682
325.0075
325.2054
325.3627
325.7147
5346000
5346000
5346000
5346000
5346000
5346000
5346000
5346000
5346000
5346000
5346000
5346000
5346000
5346000
5346000
323.9741
324.245
324.4883
324.6856
324.8382
325.1008
325.6149
5346000
5346000
5346000
5346000
5346000
5346000
5346000
5346000
5346000
5346000
5346000
5346000
5346000
5346000
5346000
5346000
5346000
5346000
5346000
5346000
5346000
5346000
5346000
5346000
5346000
5346000
5346000
5346000
5346000
5346000
5346000
5346000
5346000
5346000
5346000
326.5657
327.567
329.6008
338.2712
5346000
5346000
5346000
5346000
5346000
325.9422
326.9268
328.8934
334.2432
354.0736
5346000
5346000
5346000
5346000
5346000
325.3369
326.1762
327.5571
330.7535
339.4774
366.5661
5346000
5346000
5346000
5346000
5346000
324.7747
325.4941
326.4687
328.2383
332.444
343.1755
372.4864
5346000
5346000
5346000
5346000
5346000
324.2508
324.8907
325.6352
326.6875
328.6477
333.1105
343.4917
369.7215
5346000
5346000
5346000
5346000
5346000
323.761
324.34
324.9634
325.6854
326.7037
328.5243
332.317
340.1877
359.3152
5346000
5346000
5346000
5346000
5346000
323.3
323.8264
324.3742
324.9509
325.6013
326.4695
327.8675
330.4
334.8305
344.4146
5346000
5346000
5346000
5346000
5346000
322.8652
323.3401
323.8311
324.3317
324.8468
325.3998
326.0627
326.9509
328.2052
329.5971
333.8584
5346000
5346000
5346000
5346000
5346000
322.4543
322.878
323.3178
323.7686
324.2259
324.6895
325.1617
325.6532
326.1414
326.4892
327.1813
331.1726
5346000
5346000
5346000
5346000
5346000
322.0656
322.4392
322.8319
323.2415
323.667
324.1066
324.559
325.0162
325.4535
325.7446
325.876
326.6905
328.9028
5346000
5346000
5346000
5346000
5346000
5346000
5346000
5346000
5346000
5346000
5346000
5346000
5346000
5346000
5346000
325.7119
325.9597
326.3556
327.3421
5346000
5346000
5346000
5346000
5346000
5346000
5346000
5346000
5346000
5346000
5346000
5346000
5346000
5346000
5346000
325.1081
325.3639
325.6124
325.8859
326.3952
5346000
5346000
5346000
5346000
5346000
5346000
5346000
5346000
5346000
5346000
5346000
5346000
5346000
5346000
5346000
324.5209
324.7901
325.0255
325.2274
325.4101
325.8591
5346000
5346000
5346000
5346000
5346000
5346000
5346000
5346000
5346000
5346000
5346000
5346000
5346000
5346000
5346000
323.9883
324.257
324.4986
324.6953
324.8506
325.1247
325.6805
5346000
5346000
5346000
5346000
5346000
5346000
5346000
5346000
5346000
5346000
5346000
5346000
5346000
5346000
5346000
323.504
323.7693
324.0113
324.2183
324.3798
324.6323
325.0707
325.5815
5346000
5346000
5346000
5346000
5346000
5346000
5346000
5346000
5346000
5346000
5346000
5346000
5346000
5346000
5346000
5346000
5346000
5346000
5346000
5346000
5346000
5346000
5346000
5346000
5346000
5346000
5346000
5346000
5346000
5346000
5346000
5346000
5346000
5346000
5346000
5346000
5346000
5346000
5346000
5346000
325.8866
326.6422
327.7639
330.0455
338.847
5346000
5346000
5346000
5346000
5346000
325.3075
326.0548
327.1499
329.3695
335.0281
354.4182
5346000
5346000
5346000
5346000
5346000
324.759
325.4418
326.3284
327.8263
331.1846
339.6219
364.6156
5346000
5346000
5346000
5346000
5346000
324.2439
324.8712
325.5942
326.5917
328.3906
332.4015
341.7281
366.4664
5346000
5346000
5346000
5346000
5346000
323.761
324.34
324.9634
325.6854
326.7037
328.5243
332.317
340.1877
359.3152
5346000
5346000
5346000
5346000
5346000
323.3056
323.8408
324.3972
324.9835
325.6512
326.5647
328.0791
330.8698
335.7222
345.5078
5346000
5346000
5346000
5346000
5346000
322.8755
323.3662
323.8709
324.382
324.906
325.4757
326.1879
327.2009
328.6976
330.3291
334.959
5346000
5346000
5346000
5346000
5346000
322.4684
322.9133
323.3707
323.8322
324.291
324.7471
325.2085
325.7017
326.2234
326.6227
327.5109
332.5188
5346000
5346000
5346000
5346000
5346000
322.0829
322.4806
322.8927
323.3132
323.7367
324.1567
324.5668
324.9527
325.2834
325.4389
325.6954
326.8519
330.1732
5346000
5346000
5346000
5346000
5346000
321.7175
322.0689
322.4376
322.8217
323.2193
323.629
324.0468
324.4653
324.8559
325.1131
325.1716
325.6458
326.3676
328.2168
5346000
5346000
5346000
5346000
5346000
5346000
5346000
5346000
5346000
5346000
5346000
5346000
5346000
5346000
5346000
325.1154
325.322
325.5805
325.9551
326.8359
5346000
5346000
5346000
5346000
5346000
5346000
5346000
5346000
5346000
5346000
5346000
5346000
5346000
5346000
5346000
324.5592
324.8097
325.0356
325.2464
325.4804
326.1146
5346000
5346000
5346000
5346000
5346000
5346000
5346000
5346000
5346000
5346000
5346000
5346000
5346000
5346000
5346000
324.0152
324.2776
324.5143
324.7096
324.8717
325.1723
325.8246
5346000
5346000
5346000
5346000
5346000
5346000
5346000
5346000
5346000
5346000
5346000
5346000
5346000
5346000
5346000
323.5175
323.7808
324.0209
324.2268
324.3885
324.6445
325.0946
325.6469
5346000
5346000
5346000
5346000
5346000
5346000
5346000
5346000
5346000
5346000
5346000
5346000
5346000
5346000
5346000
323.0647
323.3224
323.5635
323.7749
323.9527
324.2009
324.606
325.0413
325.5473
5346000
5346000
5346000
5346000
5346000
5346000
5346000
5346000
5346000
5346000
5346000
5346000
5346000
5346000
5346000
5346000
5346000
5346000
5346000
5346000
5346000
5346000
5346000
5346000
5346000
5346000
5346000
5346000
5346000
5346000
5346000
5346000
5346000
5346000
5346000
5346000
5346000
5346000
5346000
5346000
5346000
5346000
5346000
5346000
5346000
325.2701
325.9141
326.7049
327.9062
330.2854
338.9535
5346000
5346000
5346000
5346000
5346000
324.7362
325.3689
326.1424
327.303
329.6125
335.0977
353.2763
5346000
5346000
5346000
5346000
5346000
324.2305
324.8333
325.5164
326.4161
327.9298
331.1359
338.5215
360.0521
5346000
5346000
5346000
5346000
5346000
323.7548
324.3239
324.9352
325.6361
326.6005
328.2727
331.6926
338.8102
357.127
5346000
5346000
5346000
5346000
5346000
323.3056
323.8408
324.3972
324.9835
325.6512
326.5647
328.0791
330.8698
335.7222
345.5078
5346000
5346000
5346000
5346000
5346000
322.8808
323.3794
323.8913
324.408
324.9372
325.5175
326.2599
327.3468
328.9811
330.7343
335.5127
5346000
5346000
5346000
5346000
5346000
322.4781
322.9375
323.4074
323.8767
324.3374
324.7907
325.2511
325.7601
326.3312
326.7893
327.8066
333.4509
5346000
5346000
5346000
5346000
5346000
322.0961
322.5136
322.942
323.3719
323.7945
324.2003
324.5819
324.9277
325.2169
325.3433
325.668
327.1128
331.2705
5346000
5346000
5346000
5346000
5346000
321.7337
322.1077
322.4946
322.8888
323.284
323.6736
324.0466
324.3868
324.6552
324.7642
324.9029
325.496
326.508
329.2119
5346000
5346000
5346000
5346000
5346000
321.3898
321.7207
322.0675
322.4282
322.8011
323.1842
323.5741
323.9621
324.3241
324.563
324.6167
324.9754
325.3936
326.017
327.5265
5346000
5346000
5346000
5346000
5346000
5346000
5346000
5346000
5346000
5346000
5346000
5346000
5346000
5346000
5346000
324.5684
324.769
324.9846
325.2262
325.564
326.5259
5346000
5346000
5346000
5346000
5346000
5346000
5346000
5346000
5346000
5346000
5346000
5346000
5346000
5346000
5346000
324.052
324.2966
324.5218
324.7155
324.8934
325.2446
326.079
5346000
5346000
5346000
5346000
5346000
5346000
5346000
5346000
5346000
5346000
5346000
5346000
5346000
5346000
5346000
323.5432
323.8006
324.0357
324.2387
324.4014
324.6657
325.1421
325.7907
5346000
5346000
5346000
5346000
5346000
5346000
5346000
5346000
5346000
5346000
5346000
5346000
5346000
5346000
5346000
323.0776
323.3334
323.5727
323.7827
323.9601
324.2093
324.6182
325.0651
325.6126
5346000
5346000
5346000
5346000
5346000
5346000
5346000
5346000
5346000
5346000
5346000
5346000
5346000
5346000
5346000
322.6525
322.9025
323.1398
323.3549
323.5425
323.7962
324.1779
324.5804
325.0113
325.5147
5346000
5346000
5346000
5346000
5346000
5346000
5346000
5346000
5346000
5346000
5346000
5346000
5346000
5346000
5346000
5346000
5346000
5346000
5346000
5346000
5346000
5346000
5346000
5346000
5346000
5346000
5346000
5346000
5346000
5346000
5346000
5346000
5346000
5346000
5346000
5346000
5346000
5346000
5346000
5346000
5346000
5346000
5346000
5346000
5346000
5346000
5346000
5346000
5346000
5346000
324.7065
325.2811
325.932
326.7404
327.9665
330.2885
338.5948
5346000
5346000
5346000
5346000
5346000
324.211
324.7791
325.4097
326.1869
327.3508
329.563
334.4213
350.5378
5346000
5346000
5346000
5346000
5346000
323.7428
324.2922
324.8807
325.5435
326.4129
327.8245
330.5799
336.2923
352.7153
5346000
5346000
5346000
5346000
5346000
323.3
323.8264
324.3742
324.9509
325.6013
326.4695
327.8675
330.4
334.8305
344.4146
5346000
5346000
5346000
5346000
5346000
322.8808
323.3794
323.8913
324.408
324.9372
325.5175
326.2599
327.3468
328.9811
330.7343
335.5127
5346000
5346000
5346000
5346000
5346000
322.4831
322.9499
323.4261
323.8996
324.3615
324.8143
325.2764
325.7984
326.4021
326.8952
327.9763
333.924
5346000
5346000
5346000
5346000
5346000
322.1052
322.5364
322.9763
323.4129
323.8354
324.2327
324.5982
324.9252
325.2031
325.3279
325.6945
327.3492
332.0441
5346000
5346000
5346000
5346000
5346000
321.7461
322.1387
322.5408
322.9436
323.3375
323.712
324.0531
324.3434
324.5499
324.6093
324.7767
325.4621
326.717
330.0882
5346000
5346000
5346000
5346000
5346000
321.405
321.7571
322.121
322.4912
322.862
323.2261
323.5736
323.8862
324.1302
324.2278
324.3444
324.7543
325.2821
326.1471
328.2904
5346000
5346000
5346000
5346000
5346000
321.081
321.3928
321.7194
322.0587
322.409
322.7684
323.1334
323.4966
323.8348
324.0645
324.1249
324.4447
324.7632
325.1241
325.6608
327.1326
5346000
5346000
5346000
5346000
5346000
5346000
5346000
5346000
5346000
5346000
5346000
5346000
5346000
5346000
5346000
324.0636
324.2616
324.4714
324.6744
324.893
325.3355
326.4868
5346000
5346000
5346000
5346000
5346000
5346000
5346000
5346000
5346000
5346000
5346000
5346000
5346000
5346000
5346000
323.5787
323.8197
324.0434
324.2417
324.4091
324.6902
325.2146
326.044
5346000
5346000
5346000
5346000
5346000
5346000
5346000
5346000
5346000
5346000
5346000
5346000
5346000
5346000
5346000
323.1023
323.3525
323.5871
323.7939
323.9705
324.2223
324.6394
325.1127
325.756
5346000
5346000
5346000
5346000
5346000
5346000
5346000
5346000
5346000
5346000
5346000
5346000
5346000
5346000
5346000
322.6649
322.9131
323.1487
323.3625
323.5493
323.8033
324.1862
324.5925
325.0351
325.5798
5346000
5346000
5346000
5346000
5346000
5346000
5346000
5346000
5346000
5346000
5346000
5346000
5346000
5346000
5346000
322.2654
322.5067
322.7394
322.9545
323.1502
323.4044
323.7758
324.1554
324.5542
324.9827
325.4777
5346000
5346000
5346000
5346000
5346000
5346000
5346000
5346000
5346000
5346000
5346000
5346000
5346000
5346000
5346000
5346000
5346000
5346000
5346000
5346000
5346000
5346000
5346000
5346000
5346000
5346000
5346000
5346000
5346000
5346000
5346000
5346000
5346000
5346000
5346000
5346000
5346000
5346000
5346000
5346000
5346000
5346000
5346000
5346000
5346000
5346000
5346000
5346000
5346000
5346000
5346000
5346000
5346000
5346000
5346000
324.1852
324.7121
325.2842
325.9323
326.7364
327.9256
330.0436
337.7118
5346000
5346000
5346000
5346000
5346000
323.7251
324.2465
324.8038
325.4183
326.1718
327.2672
329.2016
333.0479
345.9034
5346000
5346000
5346000
5346000
5346000
323.2888
323.7981
324.3295
324.8886
325.5085
326.2988
327.4943
329.5665
333.1966
342.1861
5346000
5346000
5346000
5346000
5346000
322.8755
323.3662
323.8709
324.382
324.906
325.4757
326.1879
327.2009
328.6976
330.3291
334.959
5346000
5346000
5346000
5346000
5346000
322.4831
322.9499
323.4261
323.8996
324.3615
324.8143
325.2764
325.7984
326.4021
326.8952
327.9763
333.924
5346000
5346000
5346000
5346000
5346000
322.1098
322.5479
322.9937
323.4339
323.8565
324.2499
324.6085
324.9287
325.2054
325.333
325.7203
327.4859
332.4403
5346000
5346000
5346000
5346000
5346000
321.7547
322.16
322.5729
322.982
323.3753
323.7402
324.0616
324.3241
324.5011
324.5413
324.7216
325.4746
326.9055
330.7152
5346000
5346000
5346000
5346000
5346000
321.4167
321.7861
322.1644
322.5428
322.9123
323.2621
323.5787
323.8417
324.022
324.0669
324.1988
324.64
325.2506
326.3176
328.9698
5346000
5346000
5346000
5346000
5346000
321.0952
321.427
321.7696
322.1179
322.4665
322.8085
323.1344
323.428
323.6573
323.7582
323.8724
324.2211
324.5929
325.0523
325.7856
327.7892
5346000
5346000
5346000
5346000
5346000
320.7898
321.0838
321.3916
321.7111
322.0408
322.3785
322.7213
323.062
323.3804
323.6012
323.6733
323.9718
324.2604
324.5384
324.8556
325.447
327.0843
5346000
5346000
5346000
5346000
5346000
5346000
5346000
5346000
5346000
5346000
5346000
5346000
5346000
5346000
5346000
323.5925
323.791
323.9986
324.1993
324.3868
324.7014
325.306
326.4484
5346000
5346000
5346000
5346000
5346000
5346000
5346000
5346000
5346000
5346000
5346000
5346000
5346000
5346000
5346000
323.1366
323.3718
323.5956
323.797
323.9745
324.2325
324.6641
325.1853
326.0082
5346000
5346000
5346000
5346000
5346000
5346000
5346000
5346000
5346000
5346000
5346000
5346000
5346000
5346000
5346000
322.6886
322.9317
323.1628
323.3734