/*--------------------------------*- C++ -*----------------------------------*\
| =========                 |                                                 |
| \\      /  F ield         | OpenFOAM: The Open Source CFD Toolbox           |
|  \\    /   O peration     | Version:  2306                                  |
|   \\  /    A nd           | Website:  www.openfoam.com                      |
|    \\/     M anipulation  |                                                 |
\*---------------------------------------------------------------------------*/
FoamFile
{
    version     2.0;
    format      ascii;
    arch        "LSB;label=32;scalar=64";
    class       volScalarField;
    location    "1.2";
    object      T;
}
// * * * * * * * * * * * * * * * * * * * * * * * * * * * * * * * * * * * * * //

dimensions      [0 0 0 1 0 0 0];

internalField   nonuniform List<scalar> 
52000
(
1258.892
1258.889
1260.976
1258.818
1258.884
1260.975
1258.815
1263.722
1260.954
1258.673
1258.878
1260.974
1258.808
1263.721
1260.953
1258.667
1266.537
1263.722
1260.911
1258.46
1258.87
1260.971
1258.799
1263.72
1260.95
1258.656
1266.536
1263.721
1260.909
1258.45
1269.226
1266.546
1263.725
1260.851
1258.192
1258.862
1260.968
1258.788
1263.718
1260.947
1258.641
1266.535
1263.719
1260.905
1258.431
1269.225
1266.544
1263.723
1260.849
1258.173
1271.736
1269.236
1266.564
1263.733
1260.783
1257.969
1258.854
1260.965
1258.777
1263.715
1260.943
1258.624
1266.533
1263.716
1260.901
1258.405
1269.223
1266.542
1263.72
1260.843
1258.137
1271.735
1269.235
1266.562
1263.731
1260.779
1257.937
1274.064
1271.746
1269.258
1266.594
1263.752
1260.735
1257.825
1258.847
1260.962
1258.765
1263.712
1260.939
1258.604
1266.53
1263.713
1260.895
1258.375
1269.221
1266.539
1263.716
1260.836
1258.089
1271.733
1269.233
1266.559
1263.726
1260.771
1257.874
1274.063
1271.745
1269.256
1266.592
1263.749
1260.727
1257.784
1276.223
1274.073
1271.767
1269.294
1266.642
1263.778
1260.707
1257.694
1258.842
1260.959
1258.755
1263.71
1260.935
1258.584
1266.527
1263.709
1260.888
1258.342
1269.219
1266.536
1263.71
1260.828
1258.038
1271.731
1269.23
1266.554
1263.718
1260.76
1257.78
1274.062
1271.743
1269.253
1266.587
1263.742
1260.713
1257.7
1276.222
1274.072
1271.766
1269.291
1266.639
1263.775
1260.697
1257.644
1278.229
1276.231
1274.093
1271.802
1269.347
1266.693
1263.801
1260.687
1257.583
1258.839
1260.957
1258.748
1263.708
1260.931
1258.566
1266.525
1263.706
1260.882
1258.304
1269.216
1266.532
1263.704
1260.818
1258.002
1271.729
1269.227
1266.548
1263.708
1260.748
1257.661
1274.06
1271.74
1269.248
1266.579
1263.731
1260.694
1257.57
1276.221
1274.07
1271.763
1269.286
1266.632
1263.768
1260.678
1257.541
1278.228
1276.23
1274.091
1271.8
1269.344
1266.69
1263.797
1260.675
1257.526
1280.097
1278.236
1276.249
1274.125
1271.854
1269.403
1266.732
1263.829
1260.677
1257.498
1258.839
1260.956
1258.744
1263.706
1260.928
1258.552
1266.522
1263.702
1260.875
1258.268
1269.214
1266.528
1263.697
1260.806
1257.919
1271.727
1269.223
1266.541
1263.697
1260.739
1243.002
1274.058
1271.737
1269.243
1266.568
1263.715
1260.673
1257.39
1276.219
1274.068
1271.758
1269.279
1266.621
1263.758
1260.651
1257.381
1278.227
1276.229
1274.089
1271.795
1269.338
1266.685
1263.789
1260.651
1257.409
1280.096
1278.236
1276.248
1274.123
1271.851
1269.4
1266.729
1263.825
1260.663
1257.436
1281.841
1280.104
1278.253
1276.278
1274.172
1271.906
1269.444
1266.774
1263.863
1260.679
1257.442
1258.842
1260.956
1258.744
1263.705
1260.927
1258.545
1266.521
1263.7
1260.87
1258.239
1269.211
1266.525
1263.692
1260.794
1257.835
1271.724
1269.219
1266.535
1263.685
1260.716
1229.164
1274.056
1271.734
1269.236
1266.555
1263.691
1259.102
1228.908
1276.218
1274.065
1271.753
1269.268
1266.603
1263.748
1260.616
1257.153
1278.226
1276.227
1274.085
1271.788
1269.327
1266.678
1263.778
1260.614
1257.227
1280.095
1278.234
1276.245
1274.119
1271.845
1269.396
1266.725
1263.816
1260.635
1257.311
1281.84
1280.103
1278.251
1276.276
1274.17
1271.904
1269.442
1266.772
1263.859
1260.664
1257.379
1283.472
1281.847
1280.118
1278.279
1276.321
1274.22
1271.945
1269.488
1266.822
1263.904
1260.697
1257.417
1258.847
1260.957
1258.748
1263.705
1260.927
1258.545
1266.52
1263.699
1260.868
1258.224
1269.21
1266.523
1263.688
1260.784
1257.772
1271.722
1269.216
1266.529
1263.675
1260.688
1221.402
1274.054
1271.73
1269.23
1266.543
1263.668
1256.072
1195.128
1276.216
1274.062
1271.747
1269.256
1266.573
1263.182
1256.019
1220.923
1278.224
1276.224
1274.08
1271.778
1269.309
1266.67
1263.765
1260.565
1256.968
1280.094
1278.232
1276.242
1274.112
1271.835
1269.39
1266.719
1263.803
1260.591
1257.115
1281.839
1280.102
1278.249
1276.272
1274.164
1271.9
1269.439
1266.769
1263.849
1260.634
1257.249
1283.471
1281.846
1280.117
1278.277
1276.318
1274.218
1271.943
1269.487
1266.82
1263.9
1260.682
1257.354
1285
1283.477
1281.86
1280.142
1278.317
1276.364
1274.255
1271.987
1269.536
1266.873
1263.953
1260.729
1257.423
1258.854
1260.959
1258.755
1263.706
1260.928
1258.552
1266.52
1263.699
1260.868
1258.224
1269.209
1266.521
1263.686
1260.778
1257.739
1271.721
1269.214
1266.525
1263.668
1260.666
1216.953
1274.052
1271.727
1269.225
1266.533
1263.649
1253.447
1173.901
1276.214
1274.059
1271.741
1269.244
1266.549
1262.108
1247.081
1173.54
1278.222
1276.221
1274.075
1271.767
1269.279
1266.406
1262.171
1253.337
1216.208
1280.093
1278.23
1276.238
1274.104
1271.819
1269.384
1266.712
1263.786
1260.531
1256.839
1281.838
1280.1
1278.246
1276.267
1274.155
1271.895
1269.435
1266.763
1263.834
1260.586
1257.049
1283.47
1281.845
1280.115
1278.274
1276.314
1274.215
1271.941
1269.485
1266.816
1263.89
1260.651
1257.225
1284.999
1283.477
1281.859
1280.14
1278.315
1276.362
1274.254
1271.986
1269.535
1266.872
1263.948
1260.715
1257.361
1286.433
1285.005
1283.489
1281.882
1280.176
1278.356
1276.395
1274.293
1272.031
1269.587
1266.929
1264.008
1260.776
1257.458
1258.862
1260.962
1258.765
1263.708
1260.931
1258.566
1266.521
1263.7
1260.87
1258.239
1269.209
1266.521
1263.686
1260.778
1257.739
1271.72
1269.213
1266.523
1263.664
1260.653
1214.879
1274.05
1271.725
1269.221
1266.526
1263.635
1251.514
1161.11
1276.212
1274.057
1271.737
1269.235
1266.532
1261.151
1239.236
1141.621
1278.221
1276.219
1274.07
1271.756
1269.257
1265.947
1259.039
1239.114
1160.145
1280.091
1278.228
1276.233
1274.093
1271.791
1269.228
1266.051
1261.262
1251.325
1213.775
1281.837
1280.098
1278.242
1276.259
1274.141
1271.89
1269.43
1266.755
1263.813
1260.519
1256.768
1283.469
1281.844
1280.113
1278.268
1276.306
1274.21
1271.937
1269.481
1266.811
1263.875
1260.603
1257.027
1284.999
1283.476
1281.857
1280.137
1278.311
1276.359
1274.252
1271.984
1269.534
1266.869
1263.94
1260.686
1257.235
1286.433
1285.004
1283.489
1281.88
1280.175
1278.354
1276.394
1274.292
1272.031
1269.587
1266.928
1264.005
1260.764
1257.397
1287.78
1286.438
1285.016
1283.509
1281.913
1280.211
1278.384
1276.429
1274.333
1272.078
1269.641
1266.988
1264.07
1260.837
1257.52
1258.87
1260.965
1258.777
1263.71
1260.935
1258.584
1266.522
1263.702
1260.875
1258.268
1269.21
1266.523
1263.688
1260.784
1257.772
1271.72
1269.213
1266.523
1263.664
1260.653
1214.879
1274.05
1271.724
1269.219
1266.523
1263.627
1250.49
1155.026
1276.211
1274.055
1271.733
1269.229
1266.52
1260.422
1233.414
1121.531
1278.219
1276.216
1274.065
1271.748
1269.241
1265.553
1256.192
1226.418
1120.718
1280.089
1278.225
1276.228
1274.084
1271.77
1268.983
1264.779
1256.237
1233.066
1153.117
1281.835
1280.096
1278.238
1276.25
1274.115
1271.777
1269.093
1265.741
1260.577
1250.195
1213.287
1283.468
1281.842
1280.109
1278.261
1276.292
1274.205
1271.934
1269.477
1266.802
1263.852
1260.535
1256.753
1284.998
1283.474
1281.855
1280.133
1278.303
1276.355
1274.249
1271.982
1269.531
1266.863
1263.925
1260.642
1257.046
1286.432
1285.004
1283.487
1281.877
1280.171
1278.352
1276.392
1274.291
1272.03
1269.586
1266.926
1263.998
1260.739
1257.275
1287.779
1286.438
1285.015
1283.508
1281.911
1280.21
1278.383
1276.429
1274.333
1272.078
1269.641
1266.988
1264.068
1260.826
1257.459
1289.045
1287.784
1286.448
1285.034
1283.538
1281.945
1280.237
1278.415
1276.466
1274.376
1272.128
1269.697
1267.05
1264.136
1260.909
1258.559
1258.878
1260.968
1258.788
1263.712
1260.939
1258.604
1266.525
1263.706
1260.882
1258.304
1269.211
1266.525
1263.692
1260.794
1257.835
1271.721
1269.214
1266.525
1263.668
1260.666
1216.953
1274.05
1271.724
1269.219
1266.523
1263.627
1250.49
1155.026
1276.21
1274.054
1271.732
1269.225
1266.514
1260.026
1230.316
1111.744
1278.218
1276.215
1274.062
1271.742
1269.231
1265.259
1253.997
1216.879
1095.153
1280.088
1278.223
1276.225
1274.076
1271.756
1268.787
1263.646
1251.593
1216.557
1109.487
1281.834
1280.094
1278.234
1276.241
1274.097
1271.614
1268.465
1263.751
1254.079
1229.633
1151.766
1283.467
1281.84
1280.105
1278.253
1276.269
1274.112
1271.717
1268.986
1265.534
1260.235
1250.085
1214.712
1284.996
1283.473
1281.852
1280.126
1278.291
1276.351
1274.246
1271.979
1269.527
1266.855
1263.903
1260.579
1256.789
1286.431
1285.002
1283.485
1281.873
1280.164
1278.348
1276.39
1274.289
1272.028
1269.584
1266.922
1263.986
1260.701
1257.094
1287.779
1286.437
1285.014
1283.505
1281.908
1280.208
1278.381
1276.428
1274.332
1272.078
1269.641
1266.988
1264.064
1260.805
1257.337
1289.045
1287.784
1286.448
1285.033
1283.536
1281.944
1280.236
1278.414
1276.465
1274.376
1272.128
1269.698
1267.051
1264.136
1260.899
1258.476
1290.235
1289.049
1287.794
1286.465
1285.06
1283.567
1281.968
1280.265
1278.448
1276.504
1274.42
1272.178
1269.754
1267.114
1264.206
1261.856
1260.553
1258.884
1260.971
1258.799
1263.715
1260.943
1258.624
1266.527
1263.709
1260.888
1258.342
1269.214
1266.528
1263.697
1260.806
1257.919
1271.722
1269.216
1266.529
1263.675
1260.688
1221.402
1274.05
1271.725
1269.221
1266.526
1263.635
1251.514
1161.11
1276.21
1274.054
1271.732
1269.225
1266.514
1260.026
1230.316
1111.744
1278.218
1276.214
1274.061
1271.739
1269.226
1265.1
1252.798
1211.768
1082.484
1280.087
1278.222
1276.222
1274.071
1271.747
1268.645
1262.783
1247.969
1204.021
1080.73
1281.833
1280.092
1278.23
1276.234
1274.084
1271.49
1267.929
1261.941
1247.995
1210.9
1107.31
1283.465
1281.838
1280.101
1278.245
1276.253
1273.983
1271.327
1268.046
1263.019
1252.933
1229.241
1156.045
1284.995
1283.471
1281.848
1280.119
1278.271
1276.269
1274.077
1271.679
1268.94
1265.482
1260.318
1251.037
1218.304
1286.43
1285.001
1283.482
1281.867
1280.153
1278.344
1276.387
1274.287
1272.026
1269.581
1266.915
1263.968
1260.65
1256.861
1287.778
1286.436
1285.012
1283.501
1281.902
1280.204
1278.379
1276.426
1274.331
1272.077
1269.64
1266.986
1264.057
1260.776
1257.158
1289.044
1287.783
1286.446
1285.031
1283.533
1281.941
1280.235
1278.413
1276.465
1274.376
1272.129
1269.699
1267.053
1264.136
1260.882
1258.292
1290.234
1289.049
1287.793
1286.464
1285.059
1283.566
1281.967
1280.265
1278.447
1276.504
1274.421
1272.179
1269.756
1267.116
1264.208
1261.848
1260.431
1291.353
1290.239
1289.058
1287.809
1286.49
1285.087
1283.588
1281.993
1280.295
1278.482
1276.544
1274.466
1272.23
1269.812
1267.177
1265.035
1263.671
1262.56
1258.889
1260.974
1258.808
1263.718
1260.947
1258.641
1266.53
1263.713
1260.895
1258.375
1269.216
1266.532
1263.704
1260.818
1258.002
1271.724
1269.219
1266.535
1263.685
1260.716
1229.164
1274.052
1271.727
1269.225
1266.533
1263.649
1253.447
1173.901
1276.211
1274.055
1271.733
1269.229
1266.52
1260.422
1233.414
1121.531
1278.218
1276.214
1274.061
1271.739
1269.226
1265.1
1252.798
1211.768
1082.484
1280.087
1278.221
1276.22
1274.068
1271.743
1268.571
1262.312
1245.976
1197.26
1066.339
1281.832
1280.09
1278.228
1276.23
1274.076
1271.405
1267.533
1260.539
1243.2
1196.582
1077.9
1283.464
1281.836
1280.098
1278.239
1276.242
1273.889
1271.008
1267.222
1260.694
1246.037
1210.208
1114.172
1284.994
1283.469
1281.845
1280.112
1278.256
1276.157
1273.781
1271.12
1267.803
1262.736
1253.054
1232.014
1166.491
1286.429
1284.999
1283.478
1281.86
1280.135
1278.27
1276.242
1274.061
1271.685
1268.981
1265.623
1260.862
1253.019
1224.835
1287.777
1286.434
1285.009
1283.496
1281.892
1280.201
1278.377
1276.424
1274.329
1272.076
1269.638
1266.982
1264.046
1260.741
1256.94
1289.043
1287.782
1286.444
1285.027
1283.528
1281.938
1280.233
1278.412
1276.464
1274.375
1272.129
1269.701
1267.055
1264.136
1260.861
1257.935
1290.234
1289.048
1287.792
1286.462
1285.056
1283.564
1281.966
1280.264
1278.447
1276.504
1274.421
1272.181
1269.76
1267.122
1264.211
1261.835
1260.142
1291.353
1290.238
1289.058
1287.808
1286.488
1285.086
1283.587
1281.993
1280.294
1278.482
1276.544
1274.467
1272.232
1269.815
1267.181
1265.043
1263.664
1262.407
1292.404
1291.357
1290.247
1289.073
1287.832
1286.514
1285.107
1283.611
1282.02
1280.326
1278.518
1276.584
1274.512
1272.281
1269.869
1267.898
1266.621
1265.486
1264.586
1258.892
1260.975
1258.815
1263.72
1260.95
1258.656
1266.533
1263.716
1260.901
1258.405
1269.219
1266.536
1263.71
1260.828
1258.038
1271.727
1269.223
1266.541
1263.697
1260.739
1243.002
1274.054
1271.73
1269.23
1266.543
1263.668
1256.072
1195.128
1276.212
1274.057
1271.737
1269.235
1266.532
1261.151
1239.236
1141.621
1278.218
1276.215
1274.062
1271.742
1269.231
1265.259
1253.997
1216.879
1095.153
1280.087
1278.221
1276.22
1274.068
1271.743
1268.571
1262.312
1245.976
1197.26
1066.339
1281.831
1280.09
1278.227
1276.227
1274.072
1271.361
1267.322
1259.77
1240.547
1188.828
1063.15
1283.464
1281.835
1280.096
1278.235
1276.235
1273.826
1270.781
1266.602
1258.87
1240.563
1195.633
1086.71
1284.993
1283.467
1281.842
1280.106
1278.246
1276.077
1273.545
1270.651
1266.786
1260.164
1246.155
1214.676
1130.596
1286.428
1284.997
1283.475
1281.854
1280.122
1278.169
1275.988
1273.648
1271.041
1267.806
1263.017
1254.53
1237.777
1184.599
1287.776
1286.432
1285.006
1283.49
1281.875
1280.133
1278.245
1276.231
1274.08
1271.75
1269.129
1265.982
1261.866
1255.98
1236.535
1289.042
1287.78
1286.442
1285.022
1283.518
1281.935
1280.231
1278.41
1276.462
1274.374
1272.128
1269.701
1267.056
1264.135
1260.844
1256.929
1290.233
1289.047
1287.79
1286.459
1285.051
1283.561
1281.964
1280.262
1278.446
1276.504
1274.422
1272.184
1269.765
1267.129
1264.219
1261.836
1259.516
1291.352
1290.238
1289.056
1287.806
1286.486
1285.084
1283.586
1281.992
1280.294
1278.482
1276.545
1274.469
1272.236
1269.822
1267.19
1265.066
1263.657
1262.038
1292.404
1291.357
1290.247
1289.072
1287.831
1286.513
1285.106
1283.611
1282.02
1280.326
1278.518
1276.585
1274.514
1272.285
1269.873
1267.91
1266.64
1265.48
1264.412
1293.392
1292.408
1291.365
1290.261
1289.094
1287.855
1286.533
1285.128
1283.636
1282.049
1280.358
1278.554
1276.626
1274.558
1272.332
1270.497
1269.274
1268.202
1267.301
1266.634
1260.976
1258.818
1263.721
1260.953
1258.667
1266.535
1263.719
1260.905
1258.431
1269.221
1266.539
1263.716
1260.836
1258.089
1271.729
1269.227
1266.548
1263.708
1260.748
1257.661
1274.056
1271.734
1269.236
1266.555
1263.691
1259.102
1228.908
1276.214
1274.059
1271.741
1269.244
1266.549
1262.108
1247.081
1173.54
1278.219
1276.216
1274.065
1271.748
1269.241
1265.553
1256.192
1226.418
1120.718
1280.087
1278.222
1276.222
1274.071
1271.747
1268.645
1262.783
1247.969
1204.021
1080.73
1281.831
1280.09
1278.227
1276.227
1274.072
1271.361
1267.322
1259.77
1240.547
1188.828
1063.15
1283.463
1281.834
1280.095
1278.233
1276.231
1273.794
1270.663
1266.268
1257.861
1237.523
1187.73
1073.007
1284.992
1283.466
1281.84
1280.102
1278.239
1276.023
1273.382
1270.31
1266.009
1258.126
1240.656
1201.425
1107.521
1286.427
1284.996
1283.473
1281.849
1280.112
1278.096
1275.79
1273.311
1270.49
1266.737
1260.543
1248.473
1223.915
1157.977
1287.775
1286.431
1285.003
1283.484
1281.863
1280.04
1278.016
1275.882
1273.62
1271.13
1268.114
1263.92
1257.289
1246.117
1213.958
1289.041
1287.779
1286.439
1285.016
1283.503
1281.872
1280.109
1278.236
1276.253
1274.148
1271.889
1269.403
1266.585
1263.371
1260.083
1249.784
1290.232
1289.046
1287.788
1286.454
1285.043
1283.558
1281.962
1280.261
1278.445
1276.503
1274.422
1272.185
1269.769
1267.138
1264.235
1261.971
1257.879
1291.352
1290.237
1289.055
1287.803
1286.481
1285.082
1283.584
1281.991
1280.293
1278.482
1276.545
1274.471
1272.241
1269.831
1267.205
1265.135
1263.678
1261.25
1292.404
1291.356
1290.245
1289.07
1287.828
1286.512
1285.105
1283.61
1282.02
1280.326
1278.519
1276.587
1274.517
1272.291
1269.883
1267.941
1266.695
1265.474
1263.994
1293.392
1292.408
1291.364
1290.26
1289.093
1287.854
1286.532
1285.128
1283.636
1282.049
1280.358
1278.555
1276.627
1274.561
1272.336
1270.509
1269.3
1268.231
1267.294
1266.45
1294.319
1293.395
1292.416
1291.378
1290.281
1289.116
1287.872
1286.552
1285.151
1283.662
1282.078
1280.391
1278.591
1276.666
1274.602
1272.882
1271.696
1270.646
1269.779
1269.116
1267.73
1263.722
1260.954
1258.673
1266.536
1263.721
1260.909
1258.45
1269.223
1266.542
1263.72
1260.843
1258.137
1271.731
1269.23
1266.554
1263.718
1260.76
1257.78
1274.058
1271.737
1269.243
1266.568
1263.715
1260.673
1257.39
1276.216
1274.062
1271.747
1269.256
1266.573
1263.182
1256.019
1220.923
1278.221
1276.219
1274.07
1271.756
1269.257
1265.947
1259.039
1239.114
1160.145
1280.088
1278.223
1276.225
1274.076
1271.756
1268.787
1263.646
1251.593
1216.557
1109.487
1281.832
1280.09
1278.228
1276.23
1274.076
1271.405
1267.533
1260.539
1243.2
1196.582
1077.9
1283.463
1281.834
1280.095
1278.233
1276.231
1273.794
1270.663
1266.268
1257.861
1237.523
1187.73
1073.007
1284.992
1283.466
1281.839
1280.101
1278.236
1275.997
1273.299
1270.132
1265.587
1256.992
1237.594
1194.249
1096.14
1286.426
1284.995
1283.471
1281.846
1280.106
1278.049
1275.654
1273.075
1270.085
1265.909
1258.562
1243.623
1213.352
1141.318
1287.774
1286.43
1285.001
1283.479
1281.854
1279.973
1277.838
1275.603
1273.24
1270.589
1267.166
1261.904
1252.794
1236.996
1199.486
1289.041
1287.778
1286.436
1285.011
1283.492
1281.786
1279.897
1277.921
1275.869
1273.727
1271.423
1268.77
1265.458
1261.179
1256.479
1241.114
1290.231
1289.044
1287.785
1286.449
1285.029
1283.5
1281.849
1280.099
1278.255
1276.316
1274.274
1272.117
1269.837
1267.522
1265.735
1263.733
1252.348
1291.351
1290.235
1289.052
1287.799
1286.473
1285.079
1283.583
1281.989
1280.292
1278.481
1276.546
1274.473
1272.246
1269.842
1267.229
1265.457
1263.863
1259.437
1292.403
1291.355
1290.244
1289.067
1287.824
1286.509
1285.103
1283.609
1282.019
1280.325
1278.519
1276.589
1274.522
1272.3
1269.899
1268.023
1266.847
1265.494
1263.138
1293.391
1292.407
1291.363
1290.258
1289.091
1287.853
1286.531
1285.127
1283.635
1282.048
1280.359
1278.557
1276.631
1274.566
1272.345
1270.54
1269.368
1268.308
1267.286
1266.013
1294.318
1293.395
1292.415
1291.377
1290.28
1289.115
1287.872
1286.552
1285.151
1283.662
1282.078
1280.392
1278.593
1276.669
1274.606
1272.893
1271.721
1270.683
1269.814
1269.109
1267.545
1295.187
1294.322
1293.403
1292.428
1291.397
1290.301
1289.131
1287.89
1286.573
1285.175
1283.689
1282.108
1280.424
1278.628
1276.706
1275.087
1273.932
1272.89
1272.012
1271.35
1270.076
1267.849
1266.537
1263.722
1260.911
1258.46
1269.225
1266.544
1263.723
1260.849
1258.173
1271.733
1269.233
1266.559
1263.726
1260.771
1257.874
1274.06
1271.74
1269.248
1266.579
1263.731
1260.694
1257.57
1276.218
1274.065
1271.753
1269.268
1266.603
1263.748
1260.616
1257.153
1278.222
1276.221
1274.075
1271.767
1269.279
1266.406
1262.171
1253.337
1216.208
1280.089
1278.225
1276.228
1274.084
1271.77
1268.983
1264.779
1256.237
1233.066
1153.117
1281.833
1280.092
1278.23
1276.234
1274.084
1271.49
1267.929
1261.941
1247.995
1210.9
1107.31
1283.464
1281.835
1280.096
1278.235
1276.235
1273.826
1270.781
1266.602
1258.87
1240.563
1195.633
1086.71
1284.992
1283.466
1281.839
1280.101
1278.236
1275.997
1273.299
1270.132
1265.587
1256.992
1237.594
1194.249
1096.14
1286.426
1284.994
1283.47
1281.844
1280.104
1278.025
1275.586
1272.953
1269.87
1265.454
1257.452
1240.917
1207.644
1133.217
1287.773
1286.429
1284.999
1283.476
1281.849
1279.929
1277.717
1275.409
1272.97
1270.185
1266.414
1260.256
1249.145
1230.007
1190.484
1289.04
1287.776
1286.434
1285.007
1283.484
1281.724
1279.733
1277.671
1275.559
1273.374
1271.001
1268.123
1264.204
1258.675
1252.549
1234.207
1290.23
1289.043
1287.783
1286.444
1285.018
1283.419
1281.651
1279.808
1277.911
1275.973
1273.995
1271.956
1269.817
1267.656
1266.13
1263.022
1245.542
1291.35
1290.234
1289.05
1287.794
1286.46
1285.025
1283.477
1281.839
1280.116
1278.312
1276.429
1274.473
1272.469
1270.532
1269.197
1268.512
1264.794
1255.093
1292.402
1291.354
1290.242
1289.063
1287.817
1286.507
1285.102
1283.608
1282.018
1280.325
1278.519
1276.591
1274.527
1272.311
1269.923
1268.368
1267.356
1265.635
1261.387
1293.391
1292.406
1291.362
1290.255
1289.086
1287.85
1286.529
1285.126
1283.634
1282.048
1280.359
1278.559
1276.635
1274.575
1272.361
1270.62
1269.543
1268.5
1267.291
1265.162
1294.318
1293.394
1292.414
1291.375
1290.277
1289.113
1287.87
1286.551
1285.15
1283.662
1282.079
1280.393
1278.596
1276.675
1274.615
1272.923
1271.789
1270.778
1269.902
1269.095
1267.113
1295.187
1294.322
1293.402
1292.427
1291.396
1290.3
1289.131
1287.89
1286.573
1285.175
1283.689
1282.109
1280.426
1278.63
1276.71
1275.098
1273.957
1272.927
1272.056
1271.388
1270.069
1267.664
1296
1295.19
1294.329
1293.414
1292.446
1291.416
1290.316
1289.149
1287.91
1286.595
1285.199
1283.716
1282.138
1280.458
1278.663
1277.137
1276.014
1274.979
1274.078
1273.37
1272.177
1270.18
1267.968
1269.226
1266.546
1263.725
1260.851
1258.192
1271.735
1269.235
1266.562
1263.731
1260.779
1257.937
1274.062
1271.743
1269.253
1266.587
1263.742
1260.713
1257.7
1276.219
1274.068
1271.758
1269.279
1266.621
1263.758
1260.651
1257.381
1278.224
1276.224
1274.08
1271.778
1269.309
1266.67
1263.765
1260.565
1256.968
1280.091
1278.228
1276.233
1274.093
1271.791
1269.228
1266.051
1261.262
1251.325
1213.775
1281.834
1280.094
1278.234
1276.241
1274.097
1271.614
1268.465
1263.751
1254.079
1229.633
1151.766
1283.464
1281.836
1280.098
1278.239
1276.242
1273.889
1271.008
1267.222
1260.694
1246.037
1210.208
1114.172
1284.992
1283.466
1281.84
1280.102
1278.239
1276.023
1273.382
1270.31
1266.009
1258.126
1240.656
1201.425
1107.521
1286.426
1284.994
1283.47
1281.844
1280.104
1278.025
1275.586
1272.953
1269.87
1265.454
1257.452
1240.917
1207.644
1133.217
1287.773
1286.428
1284.998
1283.474
1281.847
1279.907
1277.656
1275.311
1272.83
1269.968
1265.996
1259.323
1247.097
1226.223
1186.114
1289.039
1287.775
1286.433
1285.004
1283.479
1281.683
1279.622
1277.499
1275.342
1273.12
1270.675
1267.578
1263.107
1256.517
1249.371
1229.55
1290.23
1289.042
1287.781
1286.44
1285.011
1283.361
1281.498
1279.577
1277.634
1275.692
1273.752
1271.767
1269.626
1267.327
1265.596
1261.656
1239.824
1291.349
1290.233
1289.048
1287.789
1286.45
1284.95
1283.292
1281.567
1279.797
1278.005
1276.215
1274.455
1272.779
1271.338
1270.653
1269.517
1264.32
1249.765
1292.401
1291.353
1290.239
1289.058
1287.805
1286.456
1285.003
1283.466
1281.853
1280.168
1278.415
1276.607
1274.777
1273.041
1271.874
1271.506
1269.339
1266.091
1257.977
1293.39
1292.405
1291.36
1290.252
1289.08
1287.848
1286.528
1285.125
1283.633
1282.048
1280.359
1278.56
1276.639
1274.585
1272.383
1270.946
1270.099
1269.016
1267.359
1263.59
1294.317
1293.393
1292.412
1291.373
1290.274
1289.111
1287.869
1286.55
1285.15
1283.661
1282.079
1280.395
1278.6
1276.682
1274.629
1272.997
1271.96
1271.002
1270.1
1269.078
1266.289
1295.187
1294.321
1293.401
1292.425
1291.394
1290.299
1289.13
1287.889
1286.573
1285.175
1283.689
1282.11
1280.429
1278.635
1276.718
1275.125
1274.021
1273.022
1272.166
1271.479
1270.052
1267.232
1296
1295.19
1294.328
1293.413
1292.445
1291.415
1290.315
1289.148
1287.91
1286.595
1285.2
1283.717
1282.14
1280.46
1278.667
1277.147
1276.037
1275.014
1274.123
1273.419
1272.216
1270.173
1267.783
1296.759
1296.003
1295.197
1294.34
1293.431
1292.464
1291.43
1290.332
1289.167
1287.93
1286.618
1285.225
1283.744
1282.168
1280.49
1279.049
1277.961
1276.938
1276.02
1275.259
1274.084
1272.266
1270.284
1268.087
1271.736
1269.236
1266.564
1263.733
1260.783
1257.969
1274.063
1271.745
1269.256
1266.592
1263.749
1260.727
1257.784
1276.221
1274.07
1271.763
1269.286
1266.632
1263.768
1260.678
1257.541
1278.226
1276.227
1274.085
1271.788
1269.327
1266.678
1263.778
1260.614
1257.227
1280.093
1278.23
1276.238
1274.104
1271.819
1269.384
1266.712
1263.786
1260.531
1256.839
1281.835
1280.096
1278.238
1276.25
1274.115
1271.777
1269.093
1265.741
1260.577
1250.195
1213.287
1283.465
1281.838
1280.101
1278.245
1276.253
1273.983
1271.327
1268.046
1263.019
1252.933
1229.241
1156.045
1284.993
1283.467
1281.842
1280.106
1278.246
1276.077
1273.545
1270.651
1266.786
1260.164
1246.155
1214.676
1130.596
1286.426
1284.995
1283.471
1281.846
1280.106
1278.049
1275.654
1273.075
1270.085
1265.909
1258.562
1243.623
1213.352
1141.318
1287.773
1286.428
1284.998
1283.474
1281.847
1279.907
1277.656
1275.311
1272.83
1269.968
1265.996
1259.323
1247.097
1226.223
1186.114
1289.039
1287.775
1286.432
1285.002
1283.477
1281.663
1279.566
1277.412
1275.231
1272.987
1270.495
1267.265
1262.467
1255.277
1247.616
1227.217
1290.229
1289.041
1287.779
1286.437
1285.007
1283.323
1281.394
1279.419
1277.442
1275.495
1273.57
1271.593
1269.386
1266.874
1264.894
1260.401
1235.871
1291.348
1290.232
1289.046
1287.786
1286.444
1284.895
1283.148
1281.351
1279.541
1277.756
1276.034
1274.407
1272.921
1271.68
1271.151
1269.746
1263.293
1245.119
1292.401
1291.351
1290.237
1289.054
1287.796
1286.386
1284.829
1283.211
1281.554
1279.882
1278.224
1276.623
1275.155
1273.987
1273.528
1272.902
1270.253
1265.726
1253.85
1293.389
1292.404
1291.358
1290.247
1289.068
1287.801
1286.435
1284.992
1283.479
1281.9
1280.261
1278.575
1276.876
1275.272
1274.183
1273.861
1272.198
1270.338
1267.528
1260.957
1294.317
1293.392
1292.411
1291.369
1290.267
1289.109
1287.868
1286.549
1285.149
1283.661
1282.079
1280.396
1278.604
1276.691
1274.649
1273.294
1272.488
1271.581
1270.546
1269.069
1264.838
1295.186
1294.32
1293.4
1292.423
1291.39
1290.297
1289.129
1287.888
1286.572
1285.174
1283.69
1282.112
1280.432
1278.642
1276.73
1275.193
1274.179
1273.241
1272.404
1271.66
1270.022
1266.412
1295.999
1295.19
1294.327
1293.412
1292.443
1291.414
1290.315
1289.148
1287.909
1286.595
1285.2
1283.718
1282.142
1280.464
1278.674
1277.172
1276.096
1275.103
1274.233
1273.534
1272.304
1270.156
1267.352
1296.759
1296.003
1295.197
1294.339
1293.43
1292.463
1291.429
1290.332
1289.167
1287.93
1286.618
1285.225
1283.745
1282.171
1280.493
1279.058
1277.982
1276.97
1276.062
1275.309
1274.134
1272.305
1270.276
1267.902
1297.466
1296.762
1296.009
1295.208
1294.356
1293.449
1292.477
1291.445
1290.349
1289.186
1287.952
1286.642
1285.25
1283.771
1282.198
1280.837
1279.786
1278.781
1277.855
1277.053
1275.879
1274.161
1272.356
1270.388
1268.206
1274.064
1271.746
1269.258
1266.594
1263.752
1260.735
1257.825
1276.222
1274.072
1271.766
1269.291
1266.639
1263.775
1260.697
1257.644
1278.227
1276.229
1274.089
1271.795
1269.338
1266.685
1263.789
1260.651
1257.409
1280.094
1278.232
1276.242
1274.112
1271.835
1269.39
1266.719
1263.803
1260.591
1257.115
1281.837
1280.098
1278.242
1276.259
1274.141
1271.89
1269.43
1266.755
1263.813
1260.519
1256.768
1283.467
1281.84
1280.105
1278.253
1276.269
1274.112
1271.717
1268.986
1265.534
1260.235
1250.085
1214.712
1284.994
1283.469
1281.845
1280.112
1278.256
1276.157
1273.781
1271.12
1267.803
1262.736
1253.054
1232.014
1166.491
1286.427
1284.996
1283.473
1281.849
1280.112
1278.096
1275.79
1273.311
1270.49
1266.737
1260.543
1248.473
1223.915
1157.977
1287.773
1286.429
1284.999
1283.476
1281.849
1279.929
1277.717
1275.409
1272.97
1270.185
1266.414
1260.256
1249.145
1230.007
1190.484
1289.039
1287.775
1286.432
1285.002
1283.477
1281.663
1279.566
1277.412
1275.231
1272.987
1270.495
1267.265
1262.467
1255.277
1247.616
1227.217
1290.229
1289.041
1287.778
1286.436
1285.004
1283.304
1281.342
1279.339
1277.344
1275.393
1273.472
1271.489
1269.227
1266.571
1264.442
1259.675
1233.87
1291.348
1290.231
1289.044
1287.783
1286.44
1284.859
1283.051
1281.203
1279.365
1277.583
1275.902
1274.352
1272.956
1271.774
1271.266
1269.69
1262.314
1241.835
1292.4
1291.35
1290.235
1289.051
1287.79
1286.335
1284.694
1283.008
1281.314
1279.651
1278.065
1276.615
1275.38
1274.506
1274.294
1273.576
1270.543
1264.947
1250.162
1293.388
1292.403
1291.356
1290.243
1289.06
1287.735
1286.272
1284.752
1283.197
1281.63
1280.081
1278.593
1277.244
1276.189
1275.776
1275.269
1273.424
1271.093
1267.214
1257.843
1294.316
1293.391
1292.409
1291.365
1290.257
1289.065
1287.78
1286.424
1285.003
1283.521
1281.985
1280.407
1278.819
1277.318
1276.277
1275.927
1274.459
1273.029
1271.428
1269.051
1262.566
1295.185
1294.319
1293.398
1292.42
1291.384
1290.295
1289.127
1287.887
1286.571
1285.174
1283.69
1282.113
1280.436
1278.651
1276.748
1275.461
1274.662
1273.797
1272.921
1272.006
1269.975
1264.974
1295.999
1295.189
1294.326
1293.41
1292.439
1291.412
1290.313
1289.147
1287.909
1286.595
1285.2
1283.719
1282.146
1280.471
1278.685
1277.234
1276.241
1275.308
1274.468
1273.76
1272.471
1270.124
1266.535
1296.759
1296.002
1295.196
1294.338
1293.428
1292.462
1291.429
1290.331
1289.166
1287.93
1286.619
1285.226
1283.747
1282.175
1280.499
1279.081
1278.036
1277.053
1276.166
1275.425
1274.247
1272.393
1270.259
1267.472
1297.466
1296.762
1296.009
1295.207
1294.355
1293.448
1292.477
1291.445
1290.349
1289.186
1287.952
1286.642
1285.251
1283.773
1282.2
1280.846
1279.806
1278.811
1277.895
1277.1
1275.93
1274.211
1272.394
1270.38
1268.022
1298.123
1297.469
1296.768
1296.02
1295.223
1294.373
1293.461
1292.492
1291.461
1290.367
1289.206
1287.974
1286.665
1285.276
1283.798
1282.513
1281.501
1280.519
1279.596
1278.766
1277.595
1275.946
1274.238
1272.445
1270.491
1268.318
1276.223
1274.073
1271.767
1269.294
1266.642
1263.778
1260.707
1257.694
1278.228
1276.23
1274.091
1271.8
1269.344
1266.69
1263.797
1260.675
1257.526
1280.095
1278.234
1276.245
1274.119
1271.845
1269.396
1266.725
1263.816
1260.635
1257.311
1281.838
1280.1
1278.246
1276.267
1274.155
1271.895
1269.435
1266.763
1263.834
1260.586
1257.049
1283.468
1281.842
1280.109
1278.261
1276.292
1274.205
1271.934
1269.477
1266.802
1263.852
1260.535
1256.753
1284.995
1283.471