/*--------------------------------*- C++ -*----------------------------------*\
| =========                 |                                                 |
| \\      /  F ield         | OpenFOAM: The Open Source CFD Toolbox           |
|  \\    /   O peration     | Version:  2306                                  |
|   \\  /    A nd           | Website:  www.openfoam.com                      |
|    \\/     M anipulation  |                                                 |
\*---------------------------------------------------------------------------*/
FoamFile
{
    version     2.0;
    format      ascii;
    arch        "LSB;label=32;scalar=64";
    class       volVectorField;
    location    "0.3/phiEC";
    object      i;
}
// * * * * * * * * * * * * * * * * * * * * * * * * * * * * * * * * * * * * * //

dimensions      [0 -2 0 0 0 1 0];

internalField   nonuniform List<vector> 
20000
(
(29.19388 73.4337 15935.26)
(28.8783 214.746 15777.22)
(69.383 70.27786 15341.43)
(89.57193 242.6476 16591.17)
(28.27064 339.0281 15471.52)
(68.66461 205.5136 15190.22)
(88.52203 712.7285 16391.32)
(79.75363 66.24979 14527.27)
(212.2153 232.1486 15955.1)
(156.4096 473.1384 18071.94)
(27.41973 434.1565 15040.56)
(67.28164 324.4424 14897.74)
(86.48609 1134.283 15995.52)
(78.97456 193.7324 14384.74)
(209.8312 681.87 15764.02)
(154.3394 1406.053 17814.31)
(74.6385 62.48717 13727.68)
(242.9966 218.8065 15096.8)
(368.2585 452.4359 17341.97)
(235.5671 757.9078 20612.43)
(26.40137 488.3722 14521.01)
(65.34566 415.4638 14485.44)
(83.60554 1466.868 15417.15)
(77.47517 305.8387 14109.07)
(205.2096 1085.118 15385.63)
(150.2499 2287.379 17274.21)
(73.9379 182.729 13593.25)
(240.4188 642.6719 14916.76)
(363.5764 1344.456 17095.87)
(232.2112 2308.19 20395.92)
(65.36415 59.24374 13019.65)
(226.8843 206.3706 14261.73)
(418.4265 426.3179 16385.53)
(549.4971 724.3486 19722.3)
(334.4364 906.1528 24054.55)
(25.3158 493.0545 13964.33)
(63.02937 467.333 13988.4)
(80.11995 1664.092 14690.82)
(75.37699 391.6338 13720.46)
(198.6741 1403.206 14832.76)
(144.2972 3043.567 16408.93)
(72.5897 288.4667 13333.24)
(235.4239 1022.711 14560.26)
(354.334 2186.958 16580.03)
(225.3234 3945.052 19881.4)
(64.76288 173.2444 12892.2)
(224.5696 606.1431 14091.95)
(413.3889 1266.808 16153.77)
(541.9402 2205.753 19515.63)
(330.398 2868.108 24204.8)
(56.53716 56.47444 12408.46)
(198.4796 195.6595 13525.59)
(388.8806 402.0603 15470.97)
(617.1952 682.3388 18599.66)
(770.8126 865.7689 22938.59)
(427.6785 569.5991 26546.11)
(24.27686 446.3102 13431.62)
(60.5606 471.8093 13455.87)
(76.37641 1685.719 13888.79)
(72.86746 440.5216 13252.02)
(190.7696 1591.801 14138.55)
(136.854 3545.095 15185.52)
(70.7034 369.3867 12966.73)
(228.3645 1322.467 14039.41)
(340.8934 2909.608 15753.8)
(214.6307 5644.26 18859.43)
(63.60588 273.4937 12645.69)
(220.0854 964.5749 13755.74)
(403.4526 2060.549 15668.01)
(526.4498 3769.247 19024.66)
(321.5976 5360.37 24552.68)
(56.02098 165.1464 12286.96)
(196.4942 574.683 13364.61)
(384.3683 1194.717 15252.43)
(609.1072 2077.717 18405.1)
(761.7404 2739.72 23081.8)
(425.2078 1700.978 26986.78)
(49.28653 54.08194 11878.9)
(171.6132 186.5162 12891.18)
(339.4754 381.1951 14671.35)
(569.7204 643.4688 17549.82)
(852.9227 815.4311 21589.1)
(974.6437 544.8922 25247.34)
(495.3945 353.2959 27561.31)
(23.3931 353.8568 12979.91)
(58.1978 427.0832 12946.26)
(72.79509 1522.537 13127.07)
(70.19327 444.7389 12750.12)
(182.2824 1612.471 13372.05)
(128.662 3620.552 13672.66)
(68.44768 415.4958 12524.91)
(219.8314 1500.176 13385.44)
(324.104 3388.744 14585.91)
(200.0413 7136.636 16861.99)
(61.98721 350.2136 12298.2)
(213.7496 1247.281 13264.55)
(389.0195 2741.266 14890.07)
(502.4465 5391.439 18049.87)
(306.2084 9082.391 25244.16)
(55.02774 260.71 12051.97)
(192.6481 914.5116 13045.85)
(375.4715 1943.263 14794.38)
(592.553 3550.115 17942.98)
(742.0181 5118.474 23413.61)
(420.253 2739.838 28009.02)
(48.83717 158.1501 11762.55)
(169.9089 547.8281 12737.72)
(335.6084 1132.717 14464.14)
(562.4947 1959.331 17366.37)
(843.2416 2580.163 21723.83)
(969.0364 1626.724 25667.15)
(493.9643 1016.154 27950.04)
(43.54965 51.98081 11414.04)
(149.5965 178.6169 12341.71)
(293.3122 363.3899 13984.32)
(495.8096 610.0818 16641.46)
(780.5204 768.9585 20356.79)
(1063.397 513.5253 23726.47)
(1120.721 338.9941 26156.15)
(568.1953 180.8694 28201.84)
(22.75311 226.5981 12653.99)
(56.18765 338.6193 12514.12)
(69.76394 1201.401 12495.33)
(67.63382 402.5808 12269.82)
(174.1622 1456.412 12644.04)
(120.8815 3233.219 12321.91)
(66.04418 419.4728 12051.54)
(210.6722 1519.646 12663.4)
(305.6368 3460.828 13141.96)
(182.5157 7412.935 12829.31)
(60.05163 393.9294 11879.31)
(206.0932 1414.877 12647.83)
(371.0114 3192.529 13790.55)
(469.7633 6815.487 16145.32)
(280.188 15605.33 26708.11)
(53.63817 333.8442 11720.72)
(187.2145 1182.545 12580.15)
(362.5552 2585.195 14060.84)
(566.9576 5077.394 17025.64)
(707.6517 8668.294 24073.56)
(413.1147 3270.646 29971.57)
(47.97249 249.6656 11537.51)
(166.6076 871.7781 12433.84)
(327.9848 1842.418 14029.86)
(547.7157 3347.751 16930.65)
(822.2555 4819.483 22036.08)
(957.8319 2618.907 26641.49)
(491.236 1502.078 28753.61)
(43.15222 152.0059 11302.21)
(148.1128 524.6272 12194.75)
(289.9934 1079.811 13786.78)
(489.6229 1857.67 16467.52)
(771.8847 2433.048 20483.78)
(1057.344 1532.86 24121.32)
(1117.386 974.5693 26525.48)
(567.664 508.6799 28512.71)
(38.997 50.10768 11000.2)
(132.1913 171.6792 11859.32)
(255.6568 348.0075 13389.69)
(427.946 581.6011 15863.95)
(676.649 729.0731 19302.09)
(965.472 484.3589 22361.82)
(1211.633 319.9484 24552.99)
(1275.476 175.5563 26697.6)
(645.8185 42.4245 28546.53)
(22.41778 77.92857 12483.69)
(54.73166 216.8448 12202.32)
(67.58177 765.8276 12049.61)
(65.45596 319.1953 11862.53)
(167.2874 1149.268 12040.2)
(114.4191 2508.781 11284.91)
(63.74378 379.7101 11598.55)
(201.9081 1372.586 11977.6)
(288.0904 3090.79 11852.49)
(166.6782 6298.022 10280.51)
(57.98932 397.6999 11430.51)
(197.8764 1433.238 11966.93)
(351.2179 3260.416 12431.25)
(430.5637 7079.304 12301.14)
(234.2967 16783.51 6071.549)
(51.97659 375.5169 11321.41)
(180.649 1341.443 11995.44)
(346.4487 3010.728 13024.11)
(532.1918 6417.808 15233.61)
(649.7796 14886.22 25471.07)
(405.6338 1662.187 33617.29)
(46.76279 319.7021 11220.29)
(161.9437 1127.289 11989.89)
(316.9191 2451.038 13334.37)
(524.8885 4787.827 16065.77)
(785.8405 8160.006 22657.34)
(941.7705 3124.453 28512.96)
(487.704 1536.877 29973.81)
(42.38748 239.9662 11085.92)
(145.2388 834.8593 11903.73)
(283.451 1756.37 13372.76)
(476.9719 3174.053 16054.4)
(753.1888 4544.463 20778.14)
(1045.298 2467.179 25037.92)
(1111.066 1439.476 27289.65)
(566.6491 716.0697 29096.21)
(38.6406 146.5285 10892.4)
(130.879 504.2506 11718.07)
(252.7674 1034.104 13200.5)
(422.6374 1770.954 15698.12)
(669.2586 2306.846 19422.47)
(960.0455 1445.736 22733.98)
(1207.926 919.6074 24899.91)
(1274.049 493.2178 26990.99)
(646.1366 121.7809 28817.96)
(35.31837 48.41681 10627.15)
(118.3816 165.4941 11429.77)
(225.9382 334.4962 12867.52)
(372.9571 556.9956 15191.53)
(583.2992 695.0545 18402.7)
(834.1341 459.2603 21202.84)
(1094.534 301.9262 23133.55)
(1365.656 166.5989 25030.74)
(1437.83 45.60611 26947.29)
(728.1198 -90.55965 28635.79)
(22.41778 -77.92857 12483.69)
(53.96866 74.57527 12039.39)
(66.44339 262.6704 11820.27)
(63.87814 204.4082 11568.65)
(162.3363 732.6221 11614.11)
(109.8516 1576.722 10597.08)
(61.78619 301.0625 11214.42)
(194.4853 1083.141 11408.74)
(273.5051 2398.481 10862.31)
(154.2842 4651.055 8694.751)
(56.01547 360.0009 11001.04)
(190.0136 1294.543 11320.2)
(332.4028 2911.902 11217.27)
(395.0901 6015.707 9870.426)
(202.8985 11502.33 4403.367)
(50.20622 379.1113 10893.58)
(173.6032 1358.85 11349.87)
(328.7513 3074.742 11742.46)
(490.5722 6666.204 11616.95)
(548.1082 16010.62 5812.644)
(45.31628 359.6098 10837.89)
(156.3083 1278.764 11432.48)
(303.1229 2854.49 12351.42)
(493.9181 6051.634 14376.3)
(724.8153 14009.9 23973.05)
(925.0262 1587.377 31990.3)
(484.7021 697.6569 31346.48)
(41.31759 307.282 10781.01)
(141.1784 1079.552 11478.57)
(273.9548 2336.576 12709.72)
(457.4386 4539.418 15234.36)
(720.8103 7693.892 21363.89)
(1028.13 2942.589 26798.93)
(1102.955 1471.538 28451.31)
(565.3649 677.7801 29838.82)
(37.9548 231.3193 10683.89)
(128.337 802.4343 11438.35)
(247.0714 1682.031 12803.98)
(411.7827 3025.908 15304.24)
(653.2662 4308.739 19701.53)
(949.267 2326.774 23598.02)
(1200.95 1357.773 25618.03)
(1271.39 693.0795 27542.4)
(646.6169 175.9707 29295.25)
(34.99515 141.5839 10522.99)
(117.2048 486.084 11293.6)
(223.3824 993.9572 12685.67)
(368.335 1696.037 15032.7)
(576.9582 2199.22 18517.45)
(829.4817 1370.81 21555.66)
(1091.171 867.7437 23460.41)
(1363.851 467.8173 25305.46)
(1438.111 129.7655 27200.1)
(729.4502 -240.0314 28933.54)
(32.27776 46.87546 10287.49)
(107.2225 159.9104 11042.47)
(202.3678 322.4493 12402.33)
(329.6625 535.3808 14600.84)
(508.2777 665.663 17625.4)
(718.2874 437.8347 20217.04)
(943.6217 286.3189 21934.74)
(1227.296 157.5044 23576.23)
(1523.77 45.23016 25231.66)
(1606.964 -77.2557 26945.33)
(814.8646 -255.3244 28444.21)
(22.75311 -226.5981 12653.99)
(53.96866 -74.57526 12039.39)
(66.44339 -262.6704 11820.27)
(63.05114 70.29861 11415.09)
(159.7527 251.2866 11394.86)
(107.4986 536.6014 10256.51)
(60.36779 192.7966 10937.24)
(189.1373 690.4813 11007.32)
(263.1888 1507.517 10205.4)
(145.9182 2822.627 7771.163)
(54.33572 285.4354 10636.84)
(183.3531 1021.56 10783.74)
(316.7485 2259.765 10284.95)
(367.2802 4443.455 8357.548)
(181.8598 7527.478 3469.393)
(48.5118 343.1741 10484.17)
(166.861 1227.353 10736.7)
(311.9251 2746.096 10597.8)
(452.8458 5665.188 9329.658)
(478.2611 10977.96 4222.265)
(43.77507 363.052 10428.18)
(150.2608 1295.358 10817.05)
(287.9658 2915.181 11136.26)
(456.8741 6285.845 10966.71)
(618.1022 15068.33 5483.827)
(40.03824 345.6397 10413.46)
(136.2723 1224.615 10944.74)
(262.116 2721.196 11772.61)
(430.9475 5737.663 13632.51)
(666.6697 13208.83 22604.45)
(1010.342 1494.745 30071.37)
(1096.121 667.6371 29759.33)
(564.3483 289.5208 30464.21)
(36.99534 296.2097 10389.97)
(124.7457 1037.625 11029.68)
(238.8038 2237.689 12168.97)
(395.0242 4327.583 14522.42)
(625.5883 7294.816 20256.84)
(933.9438 2774.891 25258.18)
(1192.082 1387.422 26710.26)
(1268.126 654.772 28245.48)
(647.0381 168.8831 29836.97)
(34.37319 223.5136 10321.52)
(114.925 773.5259 11023.95)
(218.3439 1616.734 12304.53)
(358.8841 2897.921 14655.46)
(563.2381 4107.759 18783.47)
(820.2467 2206.163 22374.8)
(1084.86 1281.038 24137.08)
(1360.555 656.8324 25822.12)
(1438.476 184.9851 27645.16)
(731.6577 -302.9413 29446.33)
(31.98205 137.0766 10186.65)
(106.1551 469.6841 10910.89)
(200.0755 958.1608 12227.03)
(325.5736 1630.225 14448.17)
(502.7564 2106.235 17735.3)
(714.2932 1306.862 20553.39)
(940.7258 822.8741 22244.57)
(1225.58 442.2051 23834.78)
(1523.547 128.2325 25466.92)
(1609.154 -204.6519 27218.12)
(817.6785 -688.7594 28851.23)
(29.71075 45.45965 9975.777)
(97.99721 154.8203 10689.77)
(183.3188 311.5731 11982.72)
(295.3424 516.1065 14074.3)
(449.3834 639.8414 16942.29)
(625.8483 419.3187 19365.4)
(812.0396 272.9676 20916.78)
(1055.812 149.4376 22355.01)
(1362.106 43.3803 23758.03)
(1684.582 -68.66584 25194.88)
(1781.921 -227.1856 26671.18)
(905.4223 -497.5842 27863.33)
(23.3931 -353.8568 12979.91)
(54.73166 -216.8448 12202.32)
(67.58177 -765.8276 12049.61)
(63.05114 -70.29861 11415.09)
(159.7527 -251.2866 11394.86)
(107.4986 -536.6014 10256.51)
(59.62429 66.30535 10792.4)
(186.3458 236.835 10800.76)
(257.8713 513.0715 9880.097)
(141.7268 943.8048 7345.546)
(53.11859 182.7892 10374.05)
(178.5533 651.2275 10405.17)
(305.6661 1420.384 9666.361)
(348.4803 2697.053 7476.132)
(168.8578 4275.132 2965.156)
(47.06983 272.0937 10136.99)
(161.1493 968.538 10228.08)
(297.9196 2131.114 9718.703)
(423.2073 4184.957 7905.783)
(431.2987 7187.07 3331.515)
(42.29997 328.637 10036.11)
(144.4739 1170.004 10232.51)
(273.5539 2603.585 10050.99)
(423.2695 5342.057 8810.287)
(544.4307 10334.24 3987.512)
(38.67514 348.9482 10019.67)
(131.0075 1240.506 10355.35)
(249.1098 2779.053 10614.12)
(399.2706 5959.717 10399.73)
(572.1954 14206.77 5174.994)
(35.84805 333.1854 10035.66)
(120.4062 1177.055 10516.58)
(228.4966 2606.04 11271.47)
(372.2981 5469.953 12995.2)
(579.3425 12523.75 21433.02)
(918.1102 1409.494 28343.41)
(1184.68 629.3088 27940.65)
(1265.609 279.354 28838.71)
(647.2521 72.26886 30223.58)
(33.50304 286.2145 10037.52)
(111.7042 1000.245 10630)
(211.0305 2150.828 11694.15)
(344.2928 4144.572 13906.65)
(539.4964 6954.655 19312.86)
(807.13 2631.021 23948.78)
(1076.87 1308.832 25166.48)
(1356.613 619.9644 26481.46)
(1438.691 175.235 28151.2)
(733.9426 -250.5506 30007.12)
(31.41301 216.3982 9991.588)
(104.0875 747.4286 10650.34)
(195.5563 1558.512 11859.61)
(317.2126 2785.486 14085.55)
(490.8098 3934.121 17990.06)
(706.3664 2103.257 21334.3)
(935.2975 1214.764 22886.02)
(1222.468 620.6971 24321.13)
(1523.078 181.774 25881.33)
(1612.782 -258.0173 27688.07)
(822.4431 -897.6029 29567.01)
(29.43833 132.9364 9877.975)
(97.02063 454.7337 10562.38)
(181.2396 925.8427 11813.32)
(291.6746 1571.538 13927.12)
(444.4985 2024.541 17047.92)
(622.3699 1251.6 19687.53)
(809.5499 784.5024 21212.13)
(1054.31 419.5385 22600.01)
(1361.715 122.8458 23978.98)
(1685.963 -181.8529 25446.79)
(1786.786 -612.9741 27039.55)
(910.6185 -1362.837 28478.28)
(27.50491 44.15128 9687.902)
(90.20746 150.1447 10366.03)
(167.5655 301.6575 11600.45)
(267.5999 498.7034 13599.06)
(402.7248 616.8138 16332.94)
(553.4617 403.0516 18616.65)
(707.5064 261.4225 20037.51)
(908.0109 142.4829 21319.78)
(1169.267 41.31953 22528.43)
(1497.619 -63.4466 23716.44)
(1846.659 -206.6728 24903.49)
(1961.036 -445.622 26028.61)
(998.3361 -870.2797 26685.84)
(24.27685 -446.3102 13431.62)
(56.18765 -338.6193 12514.12)
(69.76394 -1201.401 12495.33)
(63.87814 -204.4082 11568.65)
(162.3363 -732.6221 11614.11)
(109.8516 -1576.722 10597.08)
(59.62429 -66.30534 10792.4)
(186.3458 -236.835 10800.76)
(257.8713 -513.0714 9880.097)
(141.7268 -943.8048 7345.546)
(52.48058 62.86364 10236.73)
(176.0476 223.3716 10210.37)
(299.9502 483.4271 9360.018)
(339.0519 901.8905 7069.868)
(162.6344 1387.834 2743.141)
(46.02499 174.2452 9886.484)
(157.0331 617.4264 9869.158)
(288.0002 1339.533 9135.411)
(403.1348 2540.344 7076.099)
(402.2014 4082.877 2850.458)
(41.04466 260.5673 9703.63)
(139.5714 923.2807 9747.636)
(261.5562 2020.516 9217.499)
(396.8432 3946.346 7467.825)
(494.693 6766.881 3149.301)
(37.37051 315.87 9642.824)
(125.9695 1120.459 9795.543)
(236.7428 2482 9579.472)
(370.5274 5064.879 8355.147)
(506.8273 9743.873 3764.341)
(34.62563 336.3747 9656.055)
(115.7495 1192.33 9950.059)
(217.1729 2661.449 10161.94)
(345.1249 5681.644 9913.034)
(498.7018 13469.9 4907.22)
(32.46253 321.9426 9695.161)
(107.8124 1134.653 10135.37)
(201.9127 2504.886 10831.45)
(324.5052 5238.671 12443.92)
(499.8341 11939.97 20434.16)
(793.5892 1336.408 26873.94)
(1070.226 593.6118 26326.3)
(1353.646 264.3504 27038.29)
(1438.712 74.40929 28513.05)
(735.4005 -97.08108 30386.65)
(30.61691 277.1031 9716.627)
(101.1663 966.4992 10269.68)
(188.9967 2073.377 11271.18)
(304.3035 3983.794 13365.76)
(470.1367 6660.776 18497.06)
(695.1104 2508.316 22834.86)
(928.4338 1241.083 23861.89)
(1218.781 585.6798 24941.99)
(1522.431 171.2472 26352.92)
(1616.531 -213.123 28202.23)
(827.5269 -771.4374 30376.55)
(28.91412 209.8623 9688.808)
(95.12887 723.6379 10310.12)
(177.1406 1505.947 11458.29)
(284.1747 2685.221 13577.54)
(433.9285 3781.563 17292.79)
(615.467 2014.334 20435.43)
(804.8846 1158.117 21823.63)
(1051.592 588.838 23060.92)
(1360.98 173.8229 24368.25)
(1688.245 -229.1688 25880.84)
(1795.025 -799.1187 27687.27)
(919.6325 -1828.259 29612.73)
(27.25257 129.1104 9592.915)
(89.3078 441.0007 10242.49)
(165.6631 896.3791 11436.44)
(264.2729 1518.548 13456.83)
(398.3427 1951.686 16434.77)
(550.3844 1203.05 18926.29)
(705.3376 751.3245 20320.37)
(906.7127 400.0106 21553.32)
(1168.872 116.973 22737.68)
(1498.504 -168.0201 23952.39)
(1850.12 -557.7197 25241.74)
(1970.103 -1220.735 26581.48)
(1007.358 -2438.165 27604.81)
(25.58153 42.93619 9420.688)
(83.51282 145.8237 10067.03)
(154.259 292.5489 11249.48)
(244.6456 482.8365 13165.91)
(364.9975 596.0203 15782.61)
(496.14 388.5452 17948.42)
(625.774 251.2793 19264.21)
(791.1054 136.4554 20425.7)
(1004.972 39.42692 21487.82)
(1282.833 -59.81464 22490.69)
(1632.525 -192.5774 23436.36)
(2008.065 -406.9141 24270.84)
(2141.17 -780.0568 24832.4)
(1090.766 -1416.551 24607.92)
(25.3158 -493.0545 13964.33)
(58.1978 -427.0832 12946.26)
(72.79509 -1522.536 13127.07)
(65.45596 -319.1953 11862.53)
(167.2874 -1149.268 12040.2)
(114.4191 -2508.781 11284.91)
(60.36779 -192.7966 10937.24)
(189.1373 -690.4813 11007.32)
(263.1888 -1507.517 10205.4)
(145.9182 -2822.627 7771.163)
(52.48058 -62.86364 10236.73)
(176.0476 -223.3716 10210.37)
(299.9502 -483.4271 9360.018)
(339.0519 -901.8904 7069.868)
(162.6344 -1387.834 2743.141)
(45.47728 59.9252 9755.581)
(154.884 211.7777 9684.465)
(282.8825 455.9118 8846.543)
(393.0565 849.5215 6693.643)
(388.2521 1325.6 2638.603)
(40.13506 166.8637 9463.733)
(136.0383 588.5746 9405.478)
(253.0576 1270.014 8664.472)
(378.9311 2395.546 6685.554)
(463.7816 3844.665 2696.55)
(36.26027 250.4446 9323.26)
(121.7015 884.1818 9331.19)
(226.4472 1926.151 8784.866)
(347.9166 3741.573 7082.32)
(462.6122 6380.58 2974.086)
(33.45566 304.4883 9292.788)
(111.2934 1076.944 9411.978)
(206.4058 2376.96 9171.023)
(320.4673 4828.518 7963.736)
(442.8641 9238.407 3569.723)
(31.3539 325.0243 9328.359)
(103.636 1149.378 9589.249)
(191.8956 2558.145 9764.934)
(300.8453 5441.409 9491.863)
(430.6833 12841.99 4677.838)
(29.66494 311.6939 9385.168)
(97.63659 1096.374 9791.724)
(180.8185 2414.691 10439.52)
(286.7966 5035.478 11959.69)
(435.5999 11435.62 19570.95)
(683.4935 1274.086 25623.64)
(922.7354 562.8746 24961.46)
(1216.029 249.6834 25466.5)
(1521.901 72.4756 26690.48)
(1618.919 -82.50184 28550.38)
(830.8796 -307.2695 30947.63)
(28.18074 268.7338 9422.151)
(92.45619 935.7361 9941.563)
(171.1907 2003.45 10889.69)
(272.5946 3840.413 12883.62)
(415.6364 6402.556 17780.12)
(605.6652 2402.292 21872.57)
(798.9881 1183.21 22753.96)
(1048.382 555.5745 23649.35)
(1360.081 163.4648 24811.39)
(1690.594 -189.1871 26355.86)
(1803.817 -687.0729 28419.68)
(929.63 -1631.17 31004.01)
(26.76699 203.8223 9409.192)
(87.56503 701.7842 9997.843)
(161.9126 1458.024 11092.7)
(257.4696 2594.686 13119.03)
(388.8603 3645.501 16670.82)
(544.277 1936.209 19645.19)
(701.2737 1109.145 20906.02)
(904.366 561.4235 21992.67)
(1168.143 165.4309 23106.37)
(1499.964 -211.7119 24359.01)
(1855.984 -727.2954 25836.52)
(1985.831 -1638.144 27601.48)
(1023.569 -3423.326 29421.75)
(25.34672 125.5572 9328.315)
(82.67944 428.3094 9947.036)
(152.5064 869.3132 11090.42)
(241.6013 1470.235 13028.2)
(361.0223 1885.896 15881)
(493.3795 1159.753 18246.91)
(623.8552 722.1749 19536.1)
(789.973 383.0897 20649.36)
(1004.615 111.6077 21687.26)
(1283.481 -158.402 22714)
(1634.994 -519.7255 23752.59)
(2014.659 -1114.885 24777.07)
(2156.908 -2185.838 25655.37)
(1105.562 -4098.743 25852.85)
(23.88303 41.80317 9171.62)
(77.67483 141.8108 9789.456)
(142.82 284.1311 10925.25)
(225.2464 468.2601 12768.08)
(333.7609 577.0611 15280.76)
(449.7769 375.4467 17344.61)
(561.0677 242.2345 18573.78)
(699.8348 131.1589 19639.04)
(875.5804 37.75743 20589.14)
(1101.939 -56.95819 21455.01)
(1395.41 -181.9829 22227.76)
(1765.192 -379.6797 22837.46)
(2165.774 -712.8982 23128.72)
(2316.748 -1268.593 22811.72)
(1177.956 -2115.214 41527.95)
(26.40137 -488.3722 14521.01)
(60.5606 -471.8093 13455.87)
(76.37641 -1685.719 13888.79)
(67.63382 -402.5808 12269.82)
(174.1622 -1456.412 12644.04)
(120.8815 -3233.219 12321.91)
(61.78619 -301.0625 11214.42)
(194.4853 -1083.141 11408.74)
(273.505 -2398.481 10862.31)
(154.2842 -4651.055 8694.751)
(53.11859 -182.7892 10374.05)
(178.5533 -651.2275 10405.17)
(305.6661 -1420.384 9666.361)
(348.4803 -2697.053 7476.132)
(168.8578 -4275.132 2965.156)
(45.47728 -59.92519 9755.581)
(154.884 -211.7777 9684.465)
(282.8825 -455.9118 8846.543)
(393.0565 -849.5215 6693.643)
(388.2521 -1325.6 2638.603)
(39.65825 57.38658 9338.374)
(134.1936 201.8813 9229.41)
(248.6725 432.2505 8390.593)
(369.9325 801.107 6324.945)
(448.9346 1248.34 2497.141)
(35.4558 160.3811 9092.681)
(118.6256 563.6489 9003.512)
(219.1541 1210.696 8257.644)
(332.5864 2271.237 6340.631)
(435.0939 3625.293 2547.224)
(32.46002 241.4202 8984.737)
(107.5184 849.8419 8965.648)
(197.4423 1844.628 8410.01)
(301.0691 3566.936 6750.248)
(405.0717 6049.548 2820.456)
(30.29282 294.2139 8977.348)
(99.63959 1038.148 9070.541)
(182.371 2284.694 8812.439)
(279.3761 4624.321 7624.886)
(382.795 8807.572 3402.658)
(28.65064 314.6776 9030.042)
(93.84872 1110.602 9264.02)
(171.8336 2466.032 9411.373)
(265.8631 5230.352 9121.982)
(375.3832 12299.51 4479.428)
(27.30376 302.2799 9100.703)
(89.22669 1061.477 9478.819)
(163.7726 2333.255 10086.06)
(256.8895 4854.267 11528.1)
(385.0752 10992.43 18812.36)
(595.5493 1220.239 24543.53)
(794.0948 536.6278 23802.24)
(1045.995 236.8374 24146.5)
(1359.405 69.10747 25128.68)
(1692.083 -73.20533 26677.61)
(1809.616 -273.7427 28936.22)
(936.5416 -668.1641 32099.81)
(26.08763 260.9995 9150.209)
(85.10284 907.4775 9640.418)
(156.4685 1939.697 10542.19)
(246.9649 3710.942 12448.49)
(372.4494 6172.243 17140.61)
(535.6044 2309.138 21026.61)
(696.1377 1133.185 21797.03)
(901.5966 529.7025 22553.61)
(1167.272 155.4972 23526.11)
(1501.462 -174.7491 24804.06)
(1862.247 -625.5266 26509.11)
(2003.275 -1462.079 28852.52)
(1042.675 -3258.512 31948.45)
(24.89488 198.213 9149.648)
(81.06504 681.5883 9709.431)
(149.0511 1414.001 10757.05)
(235.3759 2512.14 12701.14)
(352.42 3522.631 16109.09)
(487.9008 1866.535 18939.95)
(620.2598 1066.118 20099.03)
(787.9264 537.6767 21070.14)
(1003.962 157.8266 22038.67)
(1284.551 -199.5925 23098.82)
(1639.182 -677.8478 24308.7)
(2026.102 -1496.543 25711.17)
(2185.182 -3070.158 27283.42)
(1133.465 -6171.898 28542.38)
(23.66373 122.2439 9081.684)
(76.89935 416.5229 9672.768)
(141.1964 844.2997 10770.77)
(222.4416 1425.851 12634.53)
(330.1232 1825.91 15376.02)
(447.2728 1120.658 17633.04)
(559.3466 696.1817 18835.89)
(698.833 368.221 19854.03)
(875.2666 106.8816 20780.15)
(1102.466 -150.8398 21667.81)
(1397.331 -491.1534 22526.87)
(1769.991 -1040.363 23310.28)
(2177.241 -1998.05 23881.14)
(2342.47 -3671.756 23922.43)
(1200.4 -6372.625 44312.56)
(22.36606 40.74316 8938.678)
(72.51905 138.0689 9530.719)
(132.8428 276.3131 10624.22)
(208.5631 454.7885 12400.48)
(307.3444 559.6432 14819.67)
(411.3658 363.5043 16793.79)
(508.721 234.0687 17949.68)
(627.5929 126.4371 18936.36)
(774.7072 36.28838 19798.03)
(960.0841 -54.55189 20560.51)
(1197.99 -173.3735 21207.98)
(1505.67 -358.9268 21663.83)
(1893.227 -665.3939 21763.15)
(2314.99 -1159.33 21230.81)
(2478.881 -1890.767 38325.5)
(160.9313 -429.0458 13072.95)
(27.41973 -434.1565 15040.56)
(63.02936 -467.333 13988.4)
(80.11995 -1664.092 14690.82)
(70.19327 -444.7389 12750.12)
(182.2824 -1612.471 13372.05)
(128.662 -3620.552 13672.66)
(63.74378 -379.7101 11598.55)
(201.9081 -1372.586 11977.6)
(288.0904 -3090.79 11852.49)
(166.6782 -6298.022 10280.51)
(54.33572 -285.4354 10636.84)
(183.3531 -1021.56 10783.74)
(316.7485 -2259.765 10284.95)
(367.2802 -4443.455 8357.548)
(181.8598 -7527.478 3469.393)
(46.02499 -174.2451 9886.484)
(157.0331 -617.4264 9869.158)
(288.0002 -1339.533 9135.411)
(403.1348 -2540.344 7076.099)
(402.2014 -4082.877 2850.458)
(39.65825 -57.38658 9338.374)
(134.1936 -201.8813 9229.41)
(248.6725 -432.2505 8390.593)
(369.9325 -801.107 6324.945)
(448.9346 -1248.34 2497.141)
(35.0341 55.15712 8972.191)
(117.0197 193.3316 8834.896)
(215.3909 412.0609 7996.546)
(324.8834 759.5354 5998.73)
(421.8651 1177.129 2359.213)
(31.73858 154.602 8762.465)
(104.7978 541.7573 8650.69)
(191.0927 1159.451 7905.081)
(287.9164 2165.214 6043.145)
(381.5395 3437.194 2415.736)
(29.38985 233.2738 8679.69)
(96.25401 819.2262 8640.282)
(174.4419 1773.021 8080.94)
(262.4866 3416.064 6462.661)
(350.3789 5767.334 2688.311)
(27.67985 284.8479 8690.203)
(90.22406 1003.124 8762.803)
(163.2905 2202.423 8493.148)
(246.8684 4444.931 7327.345)
(333.684 8435.363 3258.084)
(26.36937 305.1735 8756.301)
(85.76099 1075.252 8967.905)
(155.6227 2382.865 9092.564)
(238.1099 5042.127 8792.411)
(331.786 11822.83 4305.149)
(25.27527 293.5802 8838.011)
(82.12767 1029.422 9191.644)
(149.6808 2259.01 9764.117)
(232.7177 4690.631 11138.63)
(345.0293 10597.12 18135.7)
(526.6535 1172.927 23594.04)
(691.8758 513.9419 22801.01)
(899.5386 225.8068 23027.55)
(1166.63 65.71974 23826.69)
(1502.409 -67.61072 25105.57)
(1866.382 -249.2781 26983.49)
(2015.333 -599.0481 29838.02)
(1057.058 -1403.072 34370.4)
(24.26274 253.8167 8897.792)
(78.78422 881.3625 9362.289)
(144.0355 1881.132 10223.16)
(225.7633 3592.893 12051.92)
(337.5316 5964.247 16563.03)
(480.1206 2226.057 20271.67)
(615.7156 1089.232 20955.5)
(785.5117 507.3 21607.36)
(1003.187 148.3347 22438.75)
(1285.646 -164.7445 23520.06)
(1643.661 -583.0943 24937.62)
(2038.799 -1336.155 26857.19)
(2218.499 -2923.619 29549.36)
(1169.539 -6579.829 33021.62)
(23.24173 192.9825 8907.732)
(75.39711 662.832 9441.701)
(137.9955 1373.315 10446.99)
(216.706 2436.306 12317.34)
(322.2511 3410.594 15596.85)
(442.3028 1803.619 18302.71)
(556.1216 1027.749 19378.57)
(697.0224 516.8103 20258.49)
(874.692 151.1433 21116.7)
(1103.333 -190.0688 22034.54)
(1400.59 -640.6284 23052.91)
(1778.326 -1396.737 24182.87)
(2197.845 -2807.418 25370.29)
(2390.977 -5532.126 26325.24)
(1245.283 -10592.09 50978.33)
(22.16062 119.1442 8851.022)
(71.79477 405.5322 9417.11)
(131.332 821.0686 10473.99)
(205.9647 1384.831 12270.77)
(303.9928 1770.799 14912.05)
(409.0744 1085.012 17073.04)
(507.1599 672.7136 18202.95)
(626.6946 354.9652 19143.62)
(774.4296 102.7236 19981.64)
(960.5357 -144.4696 20764.31)
(1199.584 -467.9281 21492.99)
(1509.442 -983.5468 22110.91)
(1901.61 -1865.131 22465.52)
(2333.644 -3356.451 22244.89)
(2517.704 -5699.351 40787.85)
(165.6892 -1367.541 13965.22)
(20.99802 39.74881 8720.22)
(67.91396 134.568 9288.721)
(124.0302 269.0228 10343.59)
(194.0075 442.2766 12059.11)
(284.6144 543.545 14393.48)
(378.8621 352.5329 16287.55)
(465.3347 226.624 17380.18)
(569.1365 122.1757 18300.93)
(694.8785 34.98096 19091.02)
(849.6468 -52.44214 19772.59)
(1043.822 -166.0443 20327)
(1292.015 -341.9686 20674.56)
(1611.701 -629.0665 20650.96)
(2012.968 -1082.047 19983.94)
(2448.553 -1726.981 35677.82)
(332.9876 -381.4669 12053.37)
(190.5276 -685.8268 18708.54)
(28.27064 -339.0281 15471.52)
(65.34566 -415.4638 14485.44)
(83.60554 -1466.868 15417.15)
(72.86746 -440.5216 13252.02)
(190.7696 -1591.801 14138.55)
(136.854 -3545.095 15185.52)
(66.04418 -419.4728 12051.54)
(210.6722 -1519.646 12663.4)
(305.6368 -3460.828 13141.96)
(182.5157 -7412.935 12829.31)
(56.01547 -360.0009 11001.04)
(190.0136 -1294.543 11320.2)
(332.4028 -2911.902 11217.27)
(395.0901 -6015.707 9870.426)
(202.8985 -11502.33 4403.367)
(47.06983 -272.0937 10136.99)
(161.1493 -968.538 10228.08)
(297.9196 -2131.114 9718.703)
(423.2073 -4184.957 7905.783)
(431.2987 -7187.07 3331.515)
(40.13506 -166.8637 9463.733)
(136.0383 -588.5746 9405.478)
(253.0576 -1270.014 8664.472)
(378.9311 -2395.546 6685.554)
(463.7816 -3844.665 2696.55)
(35.0341 -55.15712 8972.191)
(117.0197 -193.3316 8834.896)
(215.3909 -412.0609 7996.546)
(324.8834 -759.5354 5998.73)
(421.8651 -1177.129 2359.213)
(31.36041 53.16958 8646.316)
(103.3775 185.8227 8488.619)
(187.8165 394.6188 7655.025)
(281.3073 724.077 5717.19)
(370.2235 1116.052 2237.478)
(28.73557 149.3851 8464.917)
(93.81413 522.2399 8336.665)
(168.8253 1114.438 7595.597)
(251.0351 2073.618 5785.438)
(330.1926 3276.811 2302.459)
(26.85372 225.8477 8402.02)
(87.15345 791.5873 8347.054)
(156.1787 1709.172 7787.971)
(231.9261 3283.526 6210.166)
(305.4586 5523.524 2573.907)
(25.47506 276.2447 8426.725)
(82.44462 971.1951 8482.637)
(147.8736 2128.144 8205.287)
(221.0701 4284.952 7062.304)
(294.8873 8108.325 3131.118)
(24.40972 296.3905 8503.52)
(78.93489 1042.781 8696.155)
(142.2235 2307.042 8802.212)
(215.681 4872.158 8495.082)
(297.2137 11397.63 4149.813)
(23.50682 285.5008 8594.185)
(76.02819 999.7977 8926.427)
(137.782 2190.806 9468.569)
(212.7259 4541.428 10783.7)
(312.6537 10240.08 17524.59)
(472.0901 1130.73 22746.76)
(611.9448 494.0096 21920.56)
(783.7177 216.2576 22061.27)
(1002.618 62.6889 22725.26)
(1286.337 -63.7394 23805.44)
(1646.622 -232.3947 25381.23)
(2047.582 -547.5828 27760.24)
(2243.573 -1259.242 31723.48)
(1201.234 -3090.122 39089.43)
(22.65133 247.1189 8662.522)
(73.27474 857.109 9104.11)
(133.3492 1827.007 9928.454)
(207.8496 3484.442 11687.7)
(308.6262 5774.581 16036.35)
(435.2447 2151.032 19589.56)
(552.0454 1050.035 20204.21)
(694.886 487.615 20774.88)
(874.0103 142.0536 21499.87)
(1104.22 -156.8879 22435.99)
(1404.079 -551.1218 23647.86)
(1787.587 -1247.281 25253.65)
(2222.134 -2674.596 27444.31)
(2453.688 -5902.139 30335.05)
(1311.332 -13805.56 65562.45)
(21.76531 188.089 8681.481)
(70.39173 645.3422 9192.139)
(128.3534 1335.529 10159.12)
(200.6512 2366.219 11962.7)
(296.7398 3307.661 15126.22)
(404.5265 1746.254 17721.41)
(504.2346 993.1055 18727.33)
(625.071 498.2067 19533.52)
(773.9213 145.2644 20305.14)
(961.2797 -182.0468 21115.54)
(1202.29 -610.3588 21994.25)
(1515.996 -1320.576 22936.1)
(1916.689 -2621.22 23856.03)
(2368.842 -5059.718 24440.54)
(2595.365 -9482.777 46701.23)
(175.9689 -2684.745 16101.81)
(20.8051 116.2364 8634.704)
(67.23548 395.2496 9177.991)
(122.6191 799.4057 10197.32)
(191.5895 1346.733 11932.97)
(281.5094 1719.864 14483.21)
(376.751 1052.265 16558.37)
(463.9064 651.3178 17625.39)
(568.322 343.0017 18501.19)
(694.6301 99.02253 19268.02)
(850.0464 -138.884 19968.49)
(1045.198 -448.1534 20599.96)
(1295.157 -937.1057 21100.52)
(1618.306 -1763.427 21314.95)
(2026.61 -3133.235 20929.97)
(2476.487 -5207.784 37917.92)
(341.1198 -1217.165 12839.55)
(198.3493 -2234.612 19921.9)
(19.75427 38.814 8514.884)
(63.76074 131.284 9061.761)
(116.1577 262.2021 10081.08)