/*--------------------------------*- C++ -*----------------------------------*\
| =========                 |                                                 |
| \\      /  F ield         | OpenFOAM: The Open Source CFD Toolbox           |
|  \\    /   O peration     | Version:  2306                                  |
|   \\  /    A nd           | Website:  www.openfoam.com                      |
|    \\/     M anipulation  |                                                 |
\*---------------------------------------------------------------------------*/
FoamFile
{
    version     2.0;
    format      ascii;
    arch        "LSB;label=32;scalar=64";
    class       volScalarField;
    location    "0.3/phiEC";
    object      T;
}
// * * * * * * * * * * * * * * * * * * * * * * * * * * * * * * * * * * * * * //

dimensions      [0 0 0 1 0 0 0];

internalField   nonuniform List<scalar> 
20000
(
1096.488
1096.487
1097.768
1096.443
1096.484
1097.767
1096.441
1099.486
1097.753
1096.354
1096.48
1097.766
1096.437
1099.485
1097.752
1096.351
1101.283
1099.485
1097.724
1096.223
1096.476
1097.765
1096.432
1099.484
1097.751
1096.344
1101.282
1099.484
1097.723
1096.217
1103.031
1101.287
1099.484
1097.684
1096.058
1096.471
1097.763
1096.426
1099.483
1097.749
1096.335
1101.281
1099.483
1097.721
1096.206
1103.031
1101.286
1099.483
1097.683
1096.047
1104.689
1103.037
1101.297
1099.485
1097.638
1095.921
1096.466
1097.761
1096.419
1099.481
1097.746
1096.325
1101.28
1099.481
1097.718
1096.191
1103.03
1101.285
1099.481
1097.679
1096.026
1104.689
1103.036
1101.295
1099.484
1097.635
1095.902
1106.25
1104.695
1103.049
1101.313
1099.492
1097.604
1095.833
1096.462
1097.759
1096.412
1099.48
1097.744
1096.313
1101.278
1099.479
1097.714
1096.173
1103.028
1101.283
1099.478
1097.675
1095.997
1104.688
1103.035
1101.293
1099.48
1097.63
1095.864
1106.249
1104.695
1103.048
1101.311
1099.489
1097.599
1095.808
1107.716
1106.256
1104.708
1103.07
1101.338
1099.503
1097.583
1095.751
1096.459
1097.757
1096.406
1099.478
1097.741
1096.302
1101.277
1099.477
1097.71
1096.154
1103.027
1101.281
1099.475
1097.67
1095.967
1104.687
1103.033
1101.29
1099.476
1097.623
1095.807
1106.249
1104.694
1103.046
1101.308
1099.485
1097.59
1095.757
1107.716
1106.255
1104.707
1103.068
1101.336
1099.501
1097.577
1095.721
1109.095
1107.721
1106.268
1104.729
1103.101
1101.367
1099.514
1097.568
1095.683
1096.457
1097.756
1096.402
1099.477
1097.739
1096.291
1101.275
1099.474
1097.706
1096.131
1103.025
1101.279
1099.471
1097.664
1095.946
1104.685
1103.031
1101.287
1099.47
1097.616
1095.735
1106.247
1104.692
1103.043
1101.303
1099.479
1097.577
1095.679
1107.715
1106.254
1104.705
1103.065
1101.332
1099.496
1097.565
1095.659
1109.095
1107.721
1106.267
1104.727
1103.099
1101.365
1099.511
1097.56
1095.648
1110.395
1109.1
1107.733
1106.287
1104.76
1103.133
1101.388
1099.528
1097.559
1095.629
1096.457
1097.755
1096.399
1099.476
1097.737
1096.283
1101.274
1099.472
1097.702
1096.11
1103.023
1101.276
1099.467
1097.656
1095.897
1104.684
1103.029
1101.283
1099.463
1097.612
1106.246
1104.69
1103.04
1101.296
1099.469
1097.564
1095.569
1107.714
1106.252
1104.702
1103.06
1101.325
1099.489
1097.547
1095.563
1109.094
1107.72
1106.265
1104.724
1103.095
1101.361
1099.506
1097.544
1095.578
1110.394
1109.1
1107.732
1106.286
1104.758
1103.131
1101.386
1099.525
1097.549
1095.592
1111.621
1110.399
1109.11
1107.751
1106.316
1104.791
1103.157
1101.412
1099.546
1097.557
1095.594
1096.459
1097.755
1096.399
1099.475
1097.736
1096.279
1101.273
1099.471
1097.699
1096.093
1103.022
1101.274
1099.463
1097.649
1095.848
1104.682
1103.026
1101.279
1099.456
1097.597
1106.245
1104.688
1103.036
1101.289
1099.455
1107.713
1106.25
1104.699
1103.054
1101.314
1099.482
1097.524
1095.425
1109.093
1107.718
1106.262
1104.72
1103.088
1101.356
1099.498
1097.52
1095.468
1110.394
1109.099
1107.73
1106.283
1104.754
1103.129
1101.383
1099.519
1097.531
1095.517
1111.621
1110.399
1109.11
1107.75
1106.315
1104.79
1103.156
1101.411
1099.543
1097.547
1095.556
1112.781
1111.625
1110.409
1109.127
1107.778
1106.346
1104.815
1103.183
1101.439
1099.569
1097.565
1095.577
1096.462
1097.756
1096.402
1099.475
1097.736
1096.279
1101.272
1099.47
1097.698
1096.084
1103.021
1101.273
1099.461
1097.643
1095.811
1104.681
1103.024
1101.275
1099.449
1097.58
1106.243
1104.686
1103.032
1101.281
1099.441
1107.711
1106.248
1104.695
1103.046
1101.296
1109.092
1107.717
1106.259
1104.714
1103.077
1101.351
1099.488
1097.488
1095.312
1110.393
1109.097
1107.728
1106.279
1104.748
1103.125
1101.379
1099.509
1097.502
1095.399
1111.62
1110.398
1109.108
1107.747
1106.311
1104.788
1103.153
1101.408
1099.536
1097.527
1095.478
1112.78
1111.625
1110.408
1109.126
1107.776
1106.345
1104.814
1103.182
1101.438
1099.565
1097.555
1095.539
1113.878
1112.785
1111.634
1110.424
1109.152
1107.805
1106.368
1104.84
1103.212
1101.469
1099.596
1097.583
1095.579
1096.466
1097.757
1096.406
1099.476
1097.737
1096.283
1101.272
1099.47
1097.698
1096.084
1103.021
1101.272
1099.46
1097.639
1095.791
1104.68
1103.023
1101.273
1099.445
1097.565
1106.242
1104.684
1103.029
1101.275
1099.428
1107.71
1106.247
1104.692
1103.039
1101.282
1109.091
1107.715
1106.256
1104.707
1103.059
1110.392
1109.096
1107.725
1106.274
1104.738
1103.12
1101.374
1099.496
1097.462
1095.233
1111.619
1110.397
1109.106
1107.743
1106.306
1104.784
1103.15
1101.403
1099.524
1097.496
1095.357
1112.78
1111.624
1110.407
1109.124
1107.773
1106.343
1104.812
1103.18
1101.435
1099.558
1097.535
1095.461
1113.878
1112.784
1111.633
1110.423
1109.15
1107.804
1106.367
1104.84
1103.211
1101.468
1099.593
1097.573
1095.541
1114.919
1113.882
1112.793
1111.648
1110.447
1109.177
1107.825
1106.391
1104.868
1103.243
1101.502
1099.628
1097.61
1095.598
1096.471
1097.759
1096.412
1099.477
1097.739
1096.291
1101.273
1099.471
1097.699
1096.093
1103.021
1101.272
1099.46
1097.639
1095.791
1104.68
1103.022
1101.272
1099.442
1097.557
1106.241
1104.682
1103.026
1101.271
1099.419
1107.709
1106.245
1104.689
1103.033
1101.271
1109.09
1107.713
1106.253
1104.7
1103.045
1110.391
1109.094
1107.722
1106.267
1104.72
1111.618
1110.395
1109.103
1107.738
1106.296
1104.78
1103.147
1101.397
1099.509
1097.451
1095.188
1112.779
1111.623
1110.405
1109.12
1107.768
1106.339
1104.81
1103.178
1101.43
1099.546
1097.503
1095.342
1113.878
1112.783
1111.632
1110.421
1109.148
1107.802
1106.365
1104.838
1103.209
1101.465
1099.586
1097.554
1095.465
1114.918
1113.882
1112.792
1111.647
1110.445
1109.176
1107.824
1106.391
1104.867
1103.242
1101.501
1099.625
1097.601
1095.561
1115.905
1114.922
1113.89
1112.806
1111.669
1110.47
1109.195
1107.847
1106.417
1104.897
1103.275
1101.537
1099.664
1097.645
1095.634
1096.476
1097.761
1096.419
1099.478
1097.741
1096.302
1101.274
1099.472
1097.702
1096.11
1103.021
1101.273
1099.461
1097.643
1095.811
1104.68
1103.022
1101.272
1099.442
1097.557
1106.241
1104.682
1103.025
1101.268
1099.414
1107.708
1106.244
1104.687
1103.029
1101.263
1109.089
1107.712
1106.25
1104.695
1103.035
1110.39
1109.093
1107.719
1106.261
1104.708
1111.617
1110.394
1109.101
1107.732
1106.28
1112.778
1111.622
1110.402
1109.116
1107.759
1106.336
1104.807
1103.174
1101.423
1099.529
1097.458
1095.177
1113.877
1112.782
1111.63
1110.418
1109.143
1107.799
1106.363
1104.836
1103.207
1101.46
1099.574
1097.524
1095.35
1114.918
1113.881
1112.791
1111.645
1110.443
1109.174
1107.823
1106.39
1104.866
1103.241
1101.499
1099.619
1097.584
1095.486
1115.904
1114.922
1113.889
1112.805
1111.668
1110.469
1109.194
1107.846
1106.416
1104.896
1103.275
1101.537
1099.662
1097.637
1095.596
1116.84
1115.908
1114.929
1113.902
1112.826
1111.691
1110.487
1109.215
1107.87
1106.444
1104.927
1103.309
1101.575
1099.704
1097.688
1096.258
1096.48
1097.763
1096.426
1099.48
1097.744
1096.313
1101.275
1099.474
1097.706
1096.131
1103.022
1101.274
1099.463
1097.649
1095.848
1104.68
1103.023
1101.273
1099.445
1097.565
1106.241
1104.682
1103.025
1101.268
1099.414
1107.708
1106.243
1104.686
1103.027
1101.259
1109.088
1107.711
1106.248
1104.691
1103.028
1110.389
1109.091
1107.716
1106.256
1104.698
1111.616
1110.392
1109.098
1107.727
1106.268
1112.777
1111.62
1110.4
1109.11
1107.744
1113.876
1112.781
1111.628
1110.413
1109.135
1107.796
1106.361
1104.834
1103.203
1101.453
1099.557
1097.483
1095.195
1114.917
1113.88
1112.789
1111.642
1110.438
1109.171
1107.821
1106.388
1104.865
1103.239
1101.495
1099.61
1097.559
1095.377
1115.904
1114.921
1113.888
1112.803
1111.666
1110.467
1109.193
1107.845
1106.416
1104.896
1103.274
1101.536
1099.658
1097.623
1095.522
1116.84
1115.908
1114.929
1113.901
1112.825
1111.69
1110.486
1109.215
1107.87
1106.443
1104.927
1103.31
1101.575
1099.703
1097.681
1096.206
1117.727
1116.843
1115.915
1114.941
1113.921
1112.846
1111.707
1110.505
1109.237
1107.894
1106.472
1104.959
1103.345
1101.613
1099.746
1098.266
1097.458
1096.484
1097.765
1096.432
1099.481
1097.746
1096.325
1101.277
1099.477
1097.71
1096.154
1103.023
1101.276
1099.467
1097.656
1095.897
1104.681
1103.024
1101.275
1099.449
1097.58
1106.241
1104.682
1103.026
1101.271
1099.419
1107.708
1106.243
1104.686
1103.027
1101.259
1109.088
1107.71
1106.247
1104.689
1103.025
1110.388
1109.09
1107.715
1106.253
1104.693
1111.616
1110.391
1109.096
1107.722
1106.26
1112.776
1111.619
1110.397
1109.105
1107.734
1113.875
1112.78
1111.626
1110.408
1109.121
1114.916
1113.879
1112.787
1111.638
1110.431
1109.169
1107.819
1106.386
1104.862
1103.235
1101.488
1099.595
1097.524
1095.236
1115.903
1114.92
1113.886
1112.801
1111.662
1110.465
1109.191
1107.844
1106.414
1104.895
1103.273
1101.533
1099.652
1097.603
1095.413
1116.839
1115.907
1114.928
1113.9
1112.822
1111.688
1110.485
1109.214
1107.869
1106.443
1104.927
1103.31
1101.575
1099.701
1097.669
1096.09
1117.726
1116.843
1115.914
1114.94
1113.92
1112.845
1111.706
1110.505
1109.236
1107.894
1106.472
1104.959
1103.346
1101.615
1099.746
1098.259
1097.379
1118.568
1117.73
1116.85
1115.926
1114.959
1113.94
1112.861
1111.724
1110.525
1109.259
1107.92
1106.501
1104.991
1103.38
1101.653
1100.26
1099.374
1098.666
1096.487
1097.766
1096.437
1099.483
1097.749
1096.335
1101.278
1099.479
1097.714
1096.173
1103.025
1101.279
1099.471
1097.664
1095.946
1104.682
1103.026
1101.279
1099.456
1097.597
1106.242
1104.684
1103.029
1101.275
1099.428
1107.708
1106.244
1104.687
1103.029
1101.263
1109.088
1107.71
1106.247
1104.689
1103.025
1110.388
1109.09
1107.714
1106.251
1104.69
1111.615
1110.39
1109.094
1107.719
1106.255
1112.775
1111.618
1110.395
1109.101
1107.726
1113.874
1112.778
1111.623
1110.403
1109.111
1114.915
1113.877
1112.785
1111.634
1110.419
1115.902
1114.919
1113.884
1112.797
1111.655
1110.462
1109.19
1107.842
1106.413
1104.893
1103.27
1101.528
1099.642
1097.578
1095.28
1116.838
1115.906
1114.926
1113.897
1112.818
1111.686
1110.483
1109.213
1107.868
1106.442
1104.927
1103.31
1101.575
1099.699
1097.653
1095.863
1117.726
1116.842
1115.913
1114.939
1113.918
1112.844
1111.705
1110.504
1109.236
1107.894
1106.472
1104.96
1103.347
1101.617
1099.747
1098.247
1097.192
1118.567
1117.729
1116.849
1115.925
1114.958
1113.939
1112.86
1111.723
1110.525
1109.259
1107.92
1106.501
1104.992
1103.382
1101.655
1100.264
1099.367
1098.567
1119.364
1118.57
1117.736
1116.86
1115.943
1114.976
1113.953
1112.877
1111.742
1110.546
1109.283
1107.947
1106.53
1105.024
1103.416
1102.105
1101.243
1100.483
1099.887
1096.488
1097.767
1096.441
1099.484
1097.751
1096.344
1101.28
1099.481
1097.718
1096.191
1103.027
1101.281
1099.475
1097.67
1095.967
1104.684
1103.029
1101.283
1099.463
1097.612
1106.243
1104.686
1103.032
1101.281
1099.441
1107.709
1106.245
1104.689
1103.033
1101.271
1109.088
1107.711
1106.248
1104.691
1103.028
1110.388
1109.09
1107.714
1106.251
1104.69
1111.615
1110.389
1109.093
1107.717
1106.252
1112.775
1111.617
1110.393
1109.098
1107.721
1113.873
1112.777
1111.621
1110.4
1109.104
1114.914
1113.876
1112.783
1111.629
1110.409
1115.902
1114.918
1113.882
1112.792
1111.643
1116.838
1115.905
1114.924
1113.894
1112.812
1111.684
1110.482
1109.211
1107.866
1106.441
1104.925
1103.308
1101.573
1099.696
1097.639
1095.215
1117.725
1116.841
1115.912
1114.936
1113.914
1112.841
1111.703
1110.503
1109.235
1107.893
1106.472
1104.961
1103.349
1101.62
1099.75
1098.239
1096.787
1118.567
1117.729
1116.848
1115.924
1114.955
1113.937
1112.859
1111.723
1110.524
1109.259
1107.92
1106.502
1104.994
1103.386
1101.659
1100.275
1099.355
1098.325
1119.364
1118.57
1117.736
1116.86
1115.942
1114.976
1113.953
1112.876
1111.742
1110.546
1109.283
1107.947
1106.531
1105.026
1103.418
1102.112
1101.253
1100.475
1099.772
1120.118
1119.367
1118.577
1117.746
1116.876
1115.96
1114.989
1113.968
1112.894
1111.761
1110.568
1109.307
1107.973
1106.56
1105.056
1103.816
1102.971
1102.224
1101.593
1101.123
1097.768
1096.443
1099.485
1097.752
1096.351
1101.281
1099.483
1097.721
1096.206
1103.028
1101.283
1099.478
1097.675
1095.997
1104.685
1103.031
1101.287
1099.47
1097.616
1095.735
1106.245
1104.688
1103.036
1101.289
1099.455
1107.71
1106.247
1104.692
1103.039
1101.282
1109.089
1107.712
1106.25
1104.695
1103.035
1110.388
1109.09
1107.715
1106.253
1104.693
1111.615
1110.389
1109.093
1107.717
1106.252
1112.775
1111.616
1110.393
1109.097
1107.719
1113.873
1112.777
1111.62
1110.397
1109.1
1114.914
1113.875
1112.781
1111.626
1110.403
1115.901
1114.916
1113.88
1112.788
1111.635
1116.837
1115.904
1114.922
1113.889
1112.801
1090.556
1117.725
1116.84
1115.91
1114.933
1113.908
1112.839
1111.702
1110.502
1109.234
1107.892
1106.471
1104.961
1103.35
1101.624
1099.756
1098.297
1095.724
1118.566
1117.728
1116.847
1115.921
1114.952
1113.935
1112.858
1111.722
1110.523
1109.258
1107.92
1106.503
1104.997
1103.391
1101.667
1100.312
1099.351
1097.81
1119.363
1118.57
1117.735
1116.858
1115.94
1114.974
1113.952
1112.875
1111.741
1110.545
1109.283
1107.948
1106.533
1105.029
1103.424
1102.13
1101.282
1100.461
1099.497
1120.118
1119.367
1118.576
1117.746
1116.875
1115.959
1114.989
1113.968
1112.893
1111.761
1110.568
1109.307
1107.974
1106.561
1105.058
1103.824
1102.986
1102.239
1101.584
1101.001
1120.831
1120.121
1119.373
1118.587
1117.762
1116.892
1115.972
1115.004
1113.985
1112.912
1111.782
1110.59
1109.332
1108
1106.588
1105.412
1104.582
1103.834
1103.202
1102.704
1101.785
1099.486
1097.753
1096.354
1101.282
1099.484
1097.723
1096.217
1103.03
1101.285
1099.481
1097.679
1096.026
1104.687
1103.033
1101.29
1099.476
1097.623
1095.807
1106.246
1104.69
1103.04
1101.296
1099.469
1097.564
1095.569
1107.711
1106.248
1104.695
1103.046
1101.296
1109.09
1107.713
1106.253
1104.7
1103.045
1110.389
1109.091
1107.716
1106.256
1104.698
1111.615
1110.39
1109.094
1107.719
1106.255
1112.775
1111.616
1110.393
1109.097
1107.719
1113.873
1112.776
1111.619
1110.396
1109.098
1114.913
1113.874
1112.78
1111.623
1110.399
1115.9
1114.915
1113.878
1112.785
1111.629
1116.836
1115.903
1114.92
1113.885
1112.793
1085.078
1117.724
1116.839
1115.908
1114.929
1113.898
1099.196
1092.131
1118.566
1117.727
1116.845
1115.918
1114.946
1113.933
1112.856
1111.72
1110.522
1109.257
1107.92
1106.503
1104.999
1103.396
1101.679
1100.496
1099.42
1096.628
1119.363
1118.569
1117.733
1116.856
1115.936
1114.972
1113.951
1112.874
1111.741
1110.545
1109.283
1107.949
1106.536
1105.035
1103.433
1102.178
1101.365
1100.45
1098.934
1120.117
1119.366
1118.575
1117.744
1116.873
1115.958
1114.988
1113.967
1112.893
1111.761
1110.568
1109.308
1107.976
1106.565
1105.064
1103.843
1103.027
1102.28
1101.565
1100.711
1120.83
1120.12
1119.372
1118.586
1117.761
1116.892
1115.972
1115.003
1113.984
1112.912
1111.782
1110.59
1109.333
1108.002
1106.591
1105.42
1104.598
1103.856
1103.22
1102.694
1101.662
1121.503
1120.833
1120.126
1119.382
1118.601
1117.777
1116.904
1115.986
1115.019
1114.002
1112.931
1111.802
1110.613
1109.356
1108.026
1106.908
1106.094
1105.345
1104.694
1104.177
1103.291
1101.856
1101.283
1099.485
1097.724
1096.223
1103.031
1101.286
1099.483
1097.683
1096.047
1104.688
1103.035
1101.293
1099.48
1097.63
1095.864
1106.247
1104.692
1103.043
1101.303
1099.479
1097.577
1095.679
1107.713
1106.25
1104.699
1103.054
1101.314
1099.482
1097.524
1095.425
1109.091
1107.715
1106.256
1104.707
1103.059
1110.39
1109.093
1107.719
1106.261
1104.708
1111.616
1110.391
1109.096
1107.722
1106.26
1112.775
1111.617
1110.393
1109.098
1107.721
1113.873
1112.776
1111.619
1110.396
1109.098
1114.913
1113.874
1112.779
1111.622
1110.397
1115.9
1114.915
1113.877
1112.783
1111.625
1116.836
1115.902
1114.919
1113.882
1112.788
1080.75
1117.723
1116.838
1115.906
1114.925
1113.89
1098.545
1087.809
1118.565
1117.726
1116.843
1115.914
1114.937
1102.286
1099.846
1093.808
1119.362
1118.568
1117.732
1116.853
1115.931
1114.97
1113.949
1112.873
1111.739
1110.544
1109.283
1107.949
1106.538
1105.04
1103.446
1102.388
1101.654
1100.485
1097.786
1120.117
1119.365
1118.574
1117.742
1116.87
1115.956
1114.987
1113.966
1112.892
1111.761
1110.568
1109.309
1107.979
1106.57
1105.073
1103.892
1103.131
1102.385
1101.542
1100.147
1120.83
1120.12
1119.371
1118.584
1117.759
1116.891
1115.971
1115.003
1113.984
1112.911
1111.782
1110.591
1109.334
1108.005
1106.596
1105.438
1104.64
1103.913
1103.268
1102.671
1101.373
1121.503
1120.833
1120.126
1119.382
1118.6
1117.777
1116.904
1115.985
1115.019
1114.002
1112.931
1111.803
1110.614
1109.358
1108.029
1106.915
1106.109
1105.368
1104.721
1104.197
1103.281
1101.733
1122.137
1121.506
1120.839
1120.136
1119.397
1118.616
1117.789
1116.917
1116
1115.035
1114.019
1112.95
1111.824
1110.635
1109.38
1108.316
1107.519
1106.772
1106.103
1105.549
1104.69
1103.354
1101.927
1103.031
1101.287
1099.484
1097.684
1096.058
1104.689
1103.036
1101.295
1099.484
1097.635
1095.902
1106.249
1104.694
1103.046
1101.308
1099.485
1097.59
1095.757
1107.714
1106.252
1104.702
1103.06
1101.325
1099.489
1097.547
1095.563
1109.092
1107.717
1106.259
1104.714
1103.077
1101.351
1099.488
1097.488
1095.312
1110.391
1109.094
1107.722
1106.267
1104.72
1111.616
1110.392
1109.098
1107.727
1106.268
1112.775
1111.618
1110.395
1109.101
1107.726
1113.873
1112.777
1111.62
1110.397
1109.1
1114.913
1113.874
1112.779
1111.622
1110.397
1115.899
1114.914
1113.877
1112.782
1111.623
1116.835
1115.901
1114.917
1113.88
1112.784
1077.844
1117.723
1116.837
1115.905
1114.922
1113.885
1097.513
1084.208
1118.564
1117.725
1116.841
1115.911
1114.93
1102.761
1099.379
1090.406
1119.361
1118.567
1117.73
1116.849
1115.922
1104.314
1102.797
1100.646
1095.565
1120.116
1119.364
1118.572
1117.739
1116.865
1115.954
1114.985
1113.965
1112.891
1111.76
1110.567
1109.31
1107.981
1106.576
1105.086
1104.097
1103.467
1102.673
1101.531
1099.108
1120.829
1120.119
1119.37
1118.582
1117.756
1116.889
1115.97
1115.002
1113.983
1112.911
1111.782
1110.592
1109.337
1108.01
1106.605
1105.486
1104.747
1104.047
1103.374
1102.632
1100.825
1121.503
1120.832
1120.125
1119.38
1118.599
1117.775
1116.903
1115.985
1115.018
1114.001
1112.931
1111.804
1110.615
1109.361
1108.034
1106.933
1106.151
1105.427
1104.786
1104.245
1103.256
1101.445
1122.137
1121.506
1120.839
1120.135
1119.396
1118.616
1117.788
1116.917
1116
1115.035
1114.019
1112.951
1111.824
1110.637
1109.382
1108.322
1107.535
1106.795
1106.132
1105.578
1104.711
1103.344
1101.804
1122.732
1122.139
1121.511
1120.848
1120.15
1119.411
1118.627
1117.801
1116.931
1116.016
1115.052
1114.038
1112.97
1111.845
1110.657
1109.644
1108.869
1108.128
1107.447
1106.857
1105.998
1104.745
1103.417
1101.998
1104.689
1103.037
1101.297
1099.485
1097.638
1095.921
1106.249
1104.695
1103.048
1101.311
1099.489
1097.599
1095.808
1107.715
1106.254
1104.705
1103.065
1101.332
1099.496
1097.565
1095.659
1109.093
1107.718
1106.262
1104.72
1103.088
1101.356
1099.498
1097.52
1095.468
1110.392
1109.096
1107.725
1106.274
1104.738
1103.12
1101.374
1099.496
1097.462
1095.233
1111.617
1110.394
1109.101
1107.732
1106.28
1112.776
1111.619
1110.397
1109.105
1107.734
1113.873
1112.777
1111.621
1110.4
1109.104
1114.913
1113.874
1112.78
1111.623
1110.399
1115.899
1114.914
1113.877
1112.782
1111.623
1116.835
1115.901
1114.917
1113.879
1112.782
1076.392
1117.722
1116.836
1115.904
1114.92
1113.882
1096.6
1081.729
1118.564
1117.724
1116.84
1115.908
1114.925
1102.761
1098.586
1087.463
1119.361
1118.566
1117.728
1116.846
1115.915
1105.105
1103.244
1100.277
1092.913
1120.115
1119.363
1118.571
1117.736
1116.856
1105.946
1104.745
1103.42
1101.535
1097.382
1120.829
1120.118
1119.369
1118.58
1117.751
1116.887
1115.968
1115.001
1113.982
1112.91
1111.782
1110.593
1109.339
1108.015
1106.617
1105.678
1105.079
1104.395
1103.618
1102.575
1099.861
1121.502
1120.832
1120.124
1119.378
1118.596
1117.774
1116.902
1115.984
1115.018
1114.001
1112.931
1111.804
1110.617
1109.365
1108.042
1106.978
1106.253
1105.565
1104.928
1104.341
1103.21
1100.898
1122.136
1121.505
1120.838
1120.134
1119.394
1118.615
1117.787
1116.916
1116
1115.035
1114.02
1112.951
1111.826
1110.64
1109.387
1108.339
1107.574
1106.853
1106.201
1105.647
1104.758
1103.319
1101.516
1122.732
1122.139
1121.511
1120.847
1120.149
1119.411
1118.627
1117.801
1116.931
1116.015
1115.052
1114.038
1112.971
1111.846
1110.659
1109.65
1108.883
1108.15
1107.475
1106.889
1106.028
1104.766
1103.406
1101.875
1123.29
1122.735
1122.145
1121.52
1120.862
1120.164
1119.422
1118.639
1117.815
1116.946
1116.032
1115.069
1114.056
1112.99
1111.865
1110.9
1110.148
1109.419
1108.733
1108.117
1107.253
1106.046
1104.8
1103.48
1102.07
1106.25
1104.695
1103.049
1101.313
1099.492
1097.604
1095.833
1107.716
1106.255
1104.707
1103.068
1101.336
1099.501
1097.577
1095.721
1109.094
1107.72
1106.265
1104.724
1103.095
1101.361
1099.506
1097.544
1095.578
1110.393
1109.097
1107.728
1106.279
1104.748
1103.125
1101.379
1099.509
1097.502
1095.399
1111.618
1110.395
1109.103
1107.738
1106.296
1104.78
1103.147
1101.397
1099.509
1097.451
1095.188
1112.777
1111.62
1110.4
1109.11
1107.744
1113.874
1112.778
1111.623
1110.403
1109.111
1114.914
1113.875
1112.781
1111.626
1110.403
1115.9
1114.915
1113.877
1112.783
1111.625
1116.835
1115.901
1114.917
1113.879
1112.782
1076.392
1117.722
1116.836
1115.903
1114.919
1113.88
1096.079
1080.476
1118.563
1117.723
1116.839
1115.906
1114.921
1102.617
1097.864
1085.39
1119.36
1118.565
1117.727
1116.843
1115.91
1105.442
1103.306
1099.663
1090.558
1120.115
1119.362
1118.569
1117.732
1116.85
1106.796
1105.446
1103.79
1101.223
1095.359
1120.828
1120.117
1119.367
1118.576
1117.743
1107.393
1106.323
1105.268
1104.103
1102.48
1098.361
1121.501
1120.831
1120.123
1119.376
1118.591
1117.772
1116.901
1115.983
1115.017
1114
1112.931
1111.805
1110.619
1109.37
1108.053
1107.156
1106.567
1105.913
1105.236
1104.524
1103.131
1099.942
1122.136
1121.504
1120.837
1120.132
1119.391
1118.613
1117.786
1116.916
1115.999
1115.034
1114.02
1112.952
1111.828
1110.644
1109.394
1108.381
1107.671
1106.986
1106.348
1105.781
1104.845
1103.272
1100.971
1122.731
1122.138
1121.51
1120.846
1120.147
1119.41
1118.626
1117.8
1116.931
1116.015
1115.052
1114.039
1112.972
1111.849
1110.664
1109.666
1108.921
1108.206
1107.543
1106.962
1106.096
1104.813
1103.381
1101.588
1123.29
1122.734
1122.144
1121.52
1120.861
1120.163
1119.422
1118.639
1117.814
1116.946
1116.032
1115.07
1114.057
1112.991
1111.867
1110.906
1110.162
1109.44
1108.76
1108.148
1107.285
1106.076
1104.821
1103.469
1101.947
1123.811
1123.292
1122.74
1122.153
1121.533
1120.875
1120.174
1119.434
1118.652
1117.829
1116.961
1116.048
1115.087
1114.075
1113.009
1112.09
1111.363
1110.65
1109.966
1109.334
1108.468
1107.295
1106.094
1104.855
1103.543
1102.137
1107.716
1106.256
1104.708
1103.07
1101.338
1099.503
1097.583
1095.751
1109.095
1107.721
1106.267
1104.727
1103.099
1101.365
1099.511
1097.56
1095.648
1110.394
1109.099
1107.73
1106.283
1104.754
1103.129
1101.383
1099.519
1097.531
1095.517
1111.619
1110.397
1109.106
1107.743
1106.306
1104.784
1103.15
1101.403
1099.524
1097.496
1095.357
1112.778
1111.622
1110.402
1109.116
1107.759
1106.336
1104.807
1103.174
1101.423
1099.529
1097.458
1095.177
1113.875
1112.78
1111.626
1110.408
1109.121
1114.914
1113.876
1112.783
1111.629
1110.409
1115.9
1114.915
1113.878
1112.785
1111.629
1116.835
1115.901
1114.917
1113.88
1112.784
1077.844
1117.722
1116.836
1115.903
1114.919
1113.88
1096.079
1080.476
1118.563
1117.723
1116.838
1115.905
1114.92
1102.504
1097.448
1084.331
1119.36
1118.564
1117.726
1116.841
1115.907
1105.57
1103.227
1099.097
1088.866
1120.114
1119.362
1118.568
1117.73
1116.845
1107.23
1105.783
1103.877
1100.745
1093.529
1120.828
1120.116
1119.365
1118.573
1117.736
1108.217
1107.069
1105.846
1104.384
1102.203
1096.627
1121.501
1120.83
1120.121
1119.372
1118.583
1108.732
1107.728
1106.778
1105.838
1104.819
1102.996
1098.466
1122.135
1121.503
1120.835
1120.129
1119.387
1118.611
1117.785
1116.915
1115.998
1115.034
1114.019
1112.952
1111.83
1110.649
1109.405
1108.546
1107.962
1107.318
1106.664
1106.03
1104.994
1103.191
1100.024
1122.731
1122.138
1121.509
1120.844
1120.145
1119.408
1118.625
1117.799
1116.93
1116.015
1115.052
1114.039
1112.974
1111.853
1110.671
1109.705
1109.011
1108.332
1107.687
1107.104
1106.222
1104.898
1103.334
1101.046
1123.289
1122.734
1122.143
1121.518
1120.859
1120.162
1119.421
1118.638
1117.814
1116.946
1116.032
1115.07
1114.058
1112.993
1111.871
1110.921
1110.198
1109.493
1108.826
1108.221
1107.358
1106.144
1104.867
1103.444
1101.66
1123.811
1123.292
1122.739
1122.153
1121.533
1120.875
1120.174
1119.433
1118.652
1117.829
1116.961
1116.048
1115.088
1114.076
1113.01
1112.095
1111.377
1110.67
1109.992
1109.364
1108.5
1107.327
1106.124
1104.875
1103.532
1102.014
1124.296
1123.813
1123.298
1122.748
1122.166
1121.547
1120.885
1120.186
1119.446
1118.666
1117.843
1116.977
1116.065
1115.104
1114.093
1113.218
1112.518
1111.824
1111.148
1110.508
1109.648
1108.506
1107.338
1106.142
1104.91
1103.602
1102.188
1109.095
1107.721
1106.268
1104.729
1103.101
1101.367
1099.514
1097.568
1095.683
1110.394
1109.1
1107.732
1106.286
1104.758
1103.131
1101.386
1099.525
1097.549
1095.592
1111.62
1110.398
1109.108
1107.747
1106.311
1104.788
1103.153
1101.408
1099.536
1097.527
1095.478
1112.779
1111.623
1110.405
1109.12
1107.768
1106.339
1104.81
1103.178
1101.43
1099.546
1097.503
1095.342
1113.876
1112.781
1111.628
1110.413
1109.135
1107.796
1106.361
1104.834
1103.203
1101.453
1099.557
1097.483
1095.195
1114.915
1113.877
1112.785
1111.634
1110.419
1115.901
1114.916
1113.88
1112.788
1111.635
1116.836
1115.902
1114.919
1113.882
1112.788
1080.75
1117.722
1116.836
1115.904
1114.92
1113.882
1096.6
1081.729
1118.563
1117.723
1116.838
1115.905
1114.92
1102.504
1097.448
1084.331
1119.36
1118.564
1117.725
1116.84
1115.906
1105.607
1103.153
1098.768
1087.993
1120.114
1119.361
1118.567
1117.728
1116.842
1107.446
1105.928
1103.841
1100.306
1092.193
1120.827
1120.116
1119.364
1118.571
1117.732
1108.663
1107.482
1106.156
1104.47
1101.831
1095.05
1121.5
1120.829
1120.119
1119.369
1118.577
1109.505
1108.45
1107.394
1106.29
1105.01
1102.732
1096.762
1122.134
1121.503
1120.833
1120.126
1119.379
1109.996
1109.034
1108.133
1107.272
1106.432
1105.207
1103.052
1098.571
1122.73
1122.137
1121.508
1120.842
1120.14
1119.406
1118.624
1117.799
1116.929
1116.014
1115.052
1114.04
1112.976
1111.857
1110.681
1109.859
1109.282
1108.642
1107.99
1107.366
1106.437
1105.044
1103.25
1100.107
1123.289
1122.733
1122.142
1121.517
1120.857
1120.161
1119.42
1118.638
1117.813
1116.945
1116.032
1115.071
1114.06
1112.997
1111.878
1110.958
1110.283
1109.612
1108.963
1108.362
1107.494
1106.269
1104.952
1103.396
1101.121
1123.81
1123.292
1122.739
1122.152
1121.531
1120.874
1120.173
1119.433
1118.652
1117.828
1116.961
1116.049
1115.089
1114.079
1113.014
1112.11
1111.411
1110.721
1110.055
1109.434
1108.573
1107.401
1106.192
1104.922
1103.507
1101.729
1124.295
1123.813
1123.297
1122.748
1122.166
1121.546
1120.885
1120.185
1119.446
1118.666
1117.843
1116.977
1116.065
1115.106
1114.094
1113.224
1112.531
1111.844
1111.173
1110.538
1109.679
1108.538
1107.37
1106.172
1104.93
1103.591
1102.066
1124.744
1124.298
1123.818
1123.306
1122.761
1122.179
1121.557
1120.897
1120.198
1119.459
1118.68
1117.859
1116.993
1116.081
1115.121
1114.289
1113.618
1112.945
1112.282
1111.643
1110.793
1109.682
1108.543
1107.38
1106.19
1104.961
1103.646
1102.228
1110.395
1109.1
1107.733
1106.287
1104.76
1103.133
1101.388
1099.528
1097.559
1095.629
1111.621
1110.399
1109.11
1107.75
1106.315
1104.79
1103.156
1101.411
1099.543
1097.547
1095.556
1112.78
1111.624
1110.407
1109.124
1107.773
1106.343
1104.812
1103.18
1101.435
1099.558
1097.535
1095.461
1113.877
1112.782
1111.63
1110.418
1109.143
1107.799
1106.363
1104.836
1103.207
1101.46
1099.574
1097.524
1095.35
1114.916
1113.879
1112.787
1111.638
1110.431
1109.169
1107.819
1106.386
1104.862
1103.235
1101.488
1099.595
1097.524
1095.236
1115.902
1114.918
1113.882
1112.792
1111.643
1116.836
1115.903
1114.92
1113.885
1112.793
1085.078
1117.723
1116.837
1115.905
1114.922
1113.885
1097.513
1084.208
1118.563
1117.723
1116.839
1115.906
1114.921
1102.617
1097.864
1085.39
1119.36
1118.564
1117.725
1116.84
1115.906
1105.607
1103.153
1098.768
1087.993
1120.114
1119.361
1118.566
1117.727
1116.841
1107.534
1105.978
1103.796
1100.05
1091.495
1120.827
1120.115
1119.363
1118.569
1117.729
1108.9
1107.697
1106.303
1104.461
1101.497
1093.887
1121.5
1120.828
1120.118
1119.367
1118.573
1109.934
1108.87
1107.765
1106.556
1105.081
1102.406
1095.211
1122.134
1121.502
1120.832
1120.123
1119.373
1110.716
1109.713
1108.732
1107.759
1106.763
1105.351
1102.789
1096.897
1122.73
1122.136
1121.506
1120.839
1120.132
1111.199
1110.272
1109.399
1108.571
1107.786
1106.751
1105.248
1103.108
1098.676
1123.288
1122.732
1122.141
1121.514
1120.852
1120.159
1119.419
1118.637
1117.812
1116.945
1116.031
1115.071
1114.062
1113.001
1111.887
1111.101
1110.536
1109.902
1109.249
1108.618
1107.724
1106.48
1105.094
1103.31
1100.191
1123.81
1123.291
1122.738
1122.15
1121.529
1120.872
1120.172
1119.432
1118.651
1117.828
1116.961
1116.05
1115.091
1114.082
1113.021
1112.145
1111.491
1110.833
1110.185
1109.57
1108.708
1107.535
1106.316
1105.006
1103.458
1101.192
1124.295
1123.812
1123.296
1122.747
1122.164
1121.545
1120.884
1120.185
1119.446
1118.666
1117.844
1116.978
1116.067
1115.108
1114.098
1113.237
1112.564
1111.892
1111.234
1110.606
1109.75
1108.611
1107.443
1106.24
1104.977
1103.566
1101.781
1124.744