/*--------------------------------*- C++ -*----------------------------------*\
| =========                 |                                                 |
| \\      /  F ield         | OpenFOAM: The Open Source CFD Toolbox           |
|  \\    /   O peration     | Version:  2306                                  |
|   \\  /    A nd           | Website:  www.openfoam.com                      |
|    \\/     M anipulation  |                                                 |
\*---------------------------------------------------------------------------*/
FoamFile
{
    version     2.0;
    format      ascii;
    arch        "LSB;label=32;scalar=64";
    class       volScalarField;
    location    "1.2";
    object      contErrCp;
}
// * * * * * * * * * * * * * * * * * * * * * * * * * * * * * * * * * * * * * //

dimensions      [1 -1 -3 -1 0 0 0];

internalField   nonuniform List<scalar> 
52000
(
0
0
0
0
0
0
0
0
0
0
0
0
0
0
0
0
0
0
0
0
0
0
0
0
0
0
0
0
0
0
0
0
0
0
0
0
0
0
0
0
0
0
0
0
0
0
0
0
0
0
0
0
0
0
0
0
0
0
0
0
0
0
0
0
0
0
0
0
0
0
0
0
0
0
0
0
0
0
0
0
0
0
0
0
0
0
0
0
0
0
0
0
0
0
0
0
0
0
0
0
0
0
0
0
0
0
0
0
0
0
0
0
0
0
0
0
0
0
0
0
0
0
0
0
0
0
0
0
0
0
0
0
0
0
0
0
0
0
0
0
0
0
0
0
0
0
0
0
0
0
0
0
0
0
0
0
0
0
0
0
0
0
0
0
0
0
0
0
0
0
0
0
0
0
0
0
0
0
0
0
0
0
0
0
0
0
0
0
0
0
0
0
0
0
0
0
0
0
0
0
0
0
0
0
0
0
0
0
0
0
0
0
0
0
0
0
0
0
0
0
0
0
0
0
0
0
0
0
0
0
0
0
0
0
0
0
0
0
0
0
0.0001602768
0
0
0
0
0
0
0
0
0
0
0
0
0
0
0
0
0
0
0
0
0
0
0
0
0
0
0
0
0
0
0
0
0
0
0
0
0
0
0
0
0
0
0
0
0
0
0
0
0
0
0
0
0
0
0
0
0
0
0
0
0
0
0
0
0
-0.0002851734
0
0
0
0
0
-1.135736e-05
-0.0001357827
0
0
0
0
0
0
0
0
0
0
0
0
0
0
0
0
0
0
0
0
0
0
0
0
0
0
0
0
0
0
0
0
0
0
0
0
0
0
0
0
0
0
0
0
0
0
0
0
0
0
0
0
0
0
0
0
0
0
0
0
0
0
0
0
0
0
0
0
0
0
-0.0003059334
0
0
0
0
0
0.0005486368
0.001208453
0
0
0
0
0
-0.0001759706
-0.0004870792
-0.0005262102
0
0
0
0
0
0
0
0
0
0
0
0
0
0
0
0
0
0
0
0
0
0
0
0
0
0
0
0
0
0
0
0
0
0
0
0
0
0
0
0
0
0
0
0
0
0
0
0
0
0
0
0
0
0
0
0
0
0
0
0
0
0
0
0
0
0
0
0
0
0
0
0
0
0
0
1.050423e-05
0
0
0
0
0
-0.0006580549
-0.0002987405
0
0
0
0
0
0.0002875219
-0.0002427685
0.0001772613
0
0
0
0
0
-0.0001091039
0.0003842545
0.0004041767
0.0001321758
0
0
0
0
0
0
0
0
0
0
0
0
0
0
0
0
0
0
0
0
0
0
0
0
0
0
0
0
0
0
0
0
0
0
0
0
0
0
0
0
0
0
0
0
0
0
0
0
0
0
0
0
0
0
0
0
0
0
0
0
0
0
0
0
0
0
0
0
0
0
0
0
0
0
0
0
0
0
0
0
0.0002810868
0
0
0
0
0
0.0003574484
-0.0007343952
0
0
0
0
0
0.0006991214
0.0006600598
0.001036755
0
0
0
0
0
-0.0001202981
-0.0008773148
-0.0005284642
-0.0001606616
0
0
0
0
0
-5.32223e-05
-6.146878e-06
0.0002700425
0.0001363086
0.0002931915
0
0
0
0
0
0
0
0
0
0
0
0
0
0
0
0
0
0
0
0
0
0
0
0
0
0
0
0
0
0
0
0
0
0
0
0
0
0
0
0
0
0
0
0
0
0
0
0
0
0
0
0
0
0
0
0
0
0
0
0
0
0
0
0
0
0
0
0
0
0
0
0
0
0
0
0
0
0
0
0
0
0
0
0
0
3.727953e-05
0
0
0
0
0
0.0003462335
0.00160485
0
0
0
0
0
5.405185e-05
-0.0002863632
-0.0005990401
0
0
0
0
0
0.0009965882
0.0002275125
0.0009602472
-2.955861e-05
0
0
0
0
0
-9.480966e-05
0.0002436081
-1.384914e-05
-0.0008133945
-0.0006386694
0
0
0
0
0
-0.0001318281
-4.676184e-05
5.799693e-06
-0.0001192156
-0.0005432148
0.0004630703
0
0
0
0
0
0
0
0
0
0
0
0
0
0
0
0
0
0
0
0
0
0
0
0
0
0
0
0
0
0
0
0
0
0
0
0
0
0
0
0
0
0
0
0
0
0
0
0
0
0
0
0
0
0
0
0
0
0
0
0
0
0
0
0
0
0
0
0
0
-5.78451e-07
0
0
0
0
0
0
0
0
0
0
0
0
0
0
0
0
0
0
0
0
-0.0005030962
0
0
0
0
0
-0.0008183119
-0.002620309
0
0
0
0
0
-0.0004830762
-0.0002203839
-0.000377297
0
0
0
0
0
-0.001134805
-0.0006607314
-0.0004046431
-0.001165884
0
0
0
0
0
-0.0006129674
-0.0006279592
-0.002141989
0.0002623994
0.0004846158
0
0
0
0
0
-0.0002030063
0.0006040112
-0.0002639119
0.001016212
0.001069668
0.0002926906
0
0
0
0
0
0.0002325923
0.0009100327
-0.000290603
0.0003312527
-0.0001998329
0.0002699101
-0.0002713388
0
0
0
0
0
0
0
0
0
0
0
0
0
0
0
0
0
0
0
0
0
0
0
0
0
0
0
0
0
0
0
0
0
0
0
0
0
0
0
0
0
0
0
0
0
0
0
0
0
0
0
0
0
0
0
0
0
1.742492e-06
0
0
0
0
0
0
0
0
0
0
0
0
0
0
0
9.394769e-07
2.361991e-08
0
0
0
0
0
0
0
0
0
0
0
0
0
0
0
0
0
0
0
0
-0.0005878568
0
0
0
0
0
0.0004048086
0.001873186
0
0
0
0
0
-5.552709e-05
0.0003758087
0.0006694654
0
0
0
0
0
0.0005424383
-0.0004209326
-0.001128144
0.0004894982
0
0
0
0
0
0.0007112682
0.0008288395
0.001580266
-0.0009151861
0.0008172944
0
0
0
0
0
0.0001387766
0.0003008804
-0.0009672344
0.001201087
-0.0005238522
0.002477089
0
0
0
0
0
0.000128057
-0.0009030232
7.033518e-05
0.0009436965
0.0001904397
0.0002977549
-0.0006355735
0
0
0
0
0
0.0001729784
-0.0005109566
-0.0008328753
-0.0002836382
-0.0004486726
-0.0003009463
-0.0001575543
-0.0002278181
0
0
0
0
0
0
0
0
0
0
0
0
0
0
0
0
0
0
0
0
0
0
0
0
0
0
0
0
0
0
0
0
0
0
0
0
0
0
0
0
0
0
0
0
-2.38742e-07
0
0
0
0
0
0
0
0
0
0
0
0
0
0
0
-5.873462e-07
-2.727406e-06
0
0
0
0
0
0
0
0
0
0
0
0
0
0
0
3.13041e-07
-1.259711e-06
-4.471807e-07
0
0
0
0
0
0
0
0
0
0
0
0
0
0
0
0
0
0
0
0
0.0002106778
0
0
0
0
0
0.0005324851
1.162179e-05
0
0
0
0
0
0.0002310227
0.0005015424
-0.0004502387
0
0
0
0
0
0.0001501312
0.0006424417
0.001246115
-1.212754e-05
0
0
0
0
0
-0.0001066527
-0.0008516566
4.872855e-05
0.00332922
-0.0006040523
0
0
0
0
0
-0.000526003
-0.001881204
0.0005975859
-0.001657219
-0.001743782
-9.9655e-05
0
0
0
0
0
-0.000261144
0.0001504639
0.000732559
-5.437593e-05
-0.001285015
0.001223794
-0.002542639
0
0
0
0
0
-0.0002038892
0.0001392905
0.001006202
-1.461387e-05
-0.0007720337
0.0008123329
-0.0001098861
0.0001952145
0
0
0
0
0
0.0002477013
1.872752e-05
0.0006011504
0.0009272634
0.0006893612
-0.000672875
0.0003064254
-0.0002246542
0.0001003021
0
0
0
0
0
0
0
0
0
0
0
0
0
0
0
0
0
0
0
0
0
0
0
0
0
0
0
0
0
0
-2.379777e-06
0
0
0
0
0
0
0
0
0
0
0
0
0
0
0
-1.867043e-06
-4.03535e-07
0
0
0
0
0
0
0
0
0
0
0
0
0
0
0
-1.565943e-07
-8.287283e-07
4.316632e-07
0
0
0
0
0
0
0
0
0
0
0
0
0
0
0
-1.851874e-06
-1.041451e-06
-2.787193e-06
-2.302306e-06
0
0
0
0
0
0
0
0
0
0
0
0
0
0
0
0
0
0
0
0
-0.000122123
0
0
0
0
0
-0.000382478
9.815719e-05
0
0
0
0
0
-7.431415e-05
-0.002253132
0.0006547172
0
0
0
0
0
-0.0003955898
-8.015781e-05
-0.001107091
-0.0009460205
0
0
0
0
0
-2.743775e-06
0.0004238799
-0.001387907
-0.002837769
-0.000435511
0
0
0
0
0
-4.543323e-05
-6.780864e-05
-2.341128e-05
0.001216452
-0.0005986135
0.001891879
0
0
0
0
0
8.463262e-05
0.0002090044
0.0002091484
0.0009586684
-0.0001500662
-0.0009510878
-0.00106212
0
0
0
0
0
9.385784e-05
0.0003443092
0.000441999
-0.000761122
-0.0003358817
-0.0003032379
-0.001258615
0.0001660689
0
0
0
0
0
-0.0001418175
3.858742e-05
-0.0002974589
-0.0008708355
4.758955e-05
0.001530258
-0.0004408178
0.0004622828
0.0008484144
0
0
0
0
0
0.0001001562
-0.0006262929
-1.450057e-05
-4.266941e-05
-0.0001248809
-0.000573327
0.0005495241
-0.0004310673
6.349473e-05
0.0003554668
0
0
0
0
0
0
0
0
0
0
0
0
0
0
0
-3.874154e-06
0
0
0
0
0
0
0
0
0
0
0
0
0
0
0
-2.556955e-07
3.053805e-06
0
0
0
0
0
0
0
0
0
0
0
0
0
0
0
-2.358732e-06
-1.719656e-06
-6.970376e-07
0
0
0
0
0
0
0
0
0
0
0
0
0
0
0
2.117306e-07
2.047889e-06
-4.05955e-08
-4.609942e-07
0
0
0
0
0
0
0
0
0
0
0
0
0
0
0
4.947575e-07
3.261333e-06
1.089421e-06
-2.539582e-06
2.811371e-06
0
0
0
0
0
0
0
0
0
0
0
0
0
0
0
0
0
0
0
0
0
0
0
0
0
0.0002647308
0.0001459975
0
0
0
0
0
8.224897e-05
0.001370595
-0.0007552638
0
0
0
0
0
-0.000108905
-6.262146e-05
-0.0004315798
-4.594165e-05
0
0
0
0
0
-0.0003452362
1.251404e-05
-0.0006392995
0.001108022
0.0004613161
0
0
0
0
0
6.652721e-05
0.002043311
-0.0006600976
-0.000209905
-3.652703e-05
-0.001254009
0
0
0
0
0
-2.470115e-05
0.0008491037
-0.0005492707
0.0004881173
0.000674839
0.000278461
-0.0006076373
0
0
0
0
0
-0.0001571397
0.0006819593
-0.0003867099
0.0008807
0.0005542729
0.0001219661
0.0009454408
0.0006186444
0
0
0
0
0
-0.0001221162
-0.00102857
-0.000895141
0.001088192
0.0008829032
-0.00050402
-0.001089171
0.0001772842
0.000561964
0
0
0
0
0
-0.0001644187
-1.096235e-05
-0.0002496341
-0.0001912148
-0.0006422608
0.0007627278
-0.0005700921
-1.263381e-05
-0.0002300682
-0.0007597288
0
0
0
0
0
0.0001024995
-0.0003778939
0.0005809887
2.376875e-05
-0.0002112386
-0.0001869229
-1.064529e-05
-0.001004899
0.0004544279
0.0001468281
-0.0002203521
0
0
0
0
0
0
0
0
0
0
0
0
0
0
0
1.109324e-06
3.17564e-06
0
0
0
0
0
0
0
0
0
0
0
0
0
0
0
-1.0403e-07
1.10351e-07
-1.362553e-06
0
0
0
0
0
0
0
0
0
0
0
0
0
0
0
-5.829207e-07
1.963456e-06
-1.135774e-06
1.898857e-06
0
0
0
0
0
0
0
0
0
0
0
0
0
0
0
-2.29701e-06
-1.670012e-06
-4.669174e-06
2.444988e-06
2.230252e-06
0
0
0
0
0
0
0
0
0
0
0
0
0
0
0
3.153759e-07
2.530872e-06
-2.001758e-06
-1.325184e-06
-6.173089e-07
-7.059526e-06
0
0
0
0
0
0
0
0
0
0
0
0
0
0
0
0
0
0
0
0
0
0
0
0
0
0
0
0
0
0
2.653265e-05
-0.0005607459
-0.0001106767
0
0
0
0
0
0.0002781014
-0.001459736
-0.0003310208
0.0005630777
0
0
0
0
0
0.0003087965
-0.0001568916
0.0001286622
0.0005955555
7.300458e-05
0
0
0
0
0
0.0002810694
-0.001760002
0.000467697
0.0003030247
-0.001031446
-0.0005778805
0
0
0
0
0
-0.0001969712
-0.0007828379
-0.0002481012
0.000399384
-0.00179222
0.0007117834
0.0009019403
0
0
0
0
0
0.0001274874
-0.000223577
0.0005466207
0.0007609942
-0.001459565
0.0004098145
-0.000624271
0.001216275
0
0
0
0
0
0.0002907774
0.001175085
-0.0005897028
-0.001239221
-0.0004520894
-0.0006369517
0.001540482
0.000656426
0.0005578161
0
0
0
0
0
0.0002186045
0.0004310229
0.001555527
0.0003547238
0.0001831411
-5.781776e-05
0.0003842195
0.0006832357
0.0005420694
7.472321e-06
0
0
0
0
0
-3.914086e-05
-0.0006574413
0.000415493
-0.0006454808
0.001057125
-0.0001899328
-0.0007906058
0.00152482
-0.0006402162
-0.0003598771
0.0002751106
0
0
0
0
0
0.0001012758
4.92492e-05
0.0009160952
-0.0005164852
-0.000209884
0.0003040777
0.0008515268
0.0003578373
0.000364747
-0.0001978648
-2.556647e-05
-5.107952e-06
0
0
0
0
0
0
0
0
0
0
0
0
0
0
0
1.241804e-07
-5.450042e-07
-4.457395e-06
0
0
0
0
0
0
0
0
0
0
0
0
0
0
0
3.513838e-06
-1.079253e-06
4.279409e-07
1.566614e-06
0
0
0
0
0
0
0
0
0
0
0
0
0
0
0
2.916941e-07
-1.605409e-06
-2.338214e-06
1.663774e-06
-2.265017e-06
0
0
0
0
0
0
0
0
0
0
0
0
0
0
0
-9.261202e-07
-1.53397e-06
8.250571e-07
3.652381e-06
8.166702e-07
1.014514e-05
0
0
0
0
0
0
0
0
0
0
0
0
0
0
0
9.007846e-07
-1.196427e-06
-1.081959e-06
2.148619e-07
-8.687079e-07
-1.314684e-05
8.332558e-07
0
0
0
0
0
0
0
0
0
0
0
0
0
0
0
0
0
0
0
0
0
0
0
0
0
0
0
0
0
0
0
0
0
0
0
-0.0003772471
0.0005154362
0.0001477876
0.0007049492
0
0
0
0
0
-0.0004427426
0.0001507158
0.000643157
0.0009704292
-0.0001205557
0
0
0
0
0
-1.712665e-05
0.001076276
0.001407854
-0.0003201783
0.0009829291
0.00103703
0
0
0
0
0
0.0001487284
-0.0004196008
0.0008853052
-0.0009765361
0.000865297
-0.0007706112
-0.0002374465
0
0
0
0
0
-0.0004758062
0.001027404
0.0001342871
-0.001561621
-0.0005216705
0.0006194354
-9.165266e-05
-0.0008323119
0
0
0
0
0
-0.0003215148
-0.001129479
-0.0004521552
0.0004186438
0.0003516841
0.001120229
-0.001719079
-0.0005615257
-0.0006768513
0
0
0
0
0
-0.0002971953
-0.0006361195
7.671549e-05
-0.0001880598
-0.0008032358
-0.001579262
-0.0005224607
-0.0002404807
-0.001326373
-3.381439e-05
0
0
0
0
0
-0.0003393397
0.0004151335
-0.0005722038
-0.0002918867
0.0001971668
-0.0001205133
-1.535743e-05
3.050811e-07
-0.0002584078
0.0005118597
-8.006496e-05
0
0
0
0
0
0.0002231793
-0.0007277757
0.0001486344
-1.155602e-05
0.0010303
-0.001159123
0.0005368767
-0.0004050811
-0.0006528068
0.0002363006
-5.828722e-05
1.301107e-06
0
0
0
0
0
-6.097453e-05
0.0003792512
-0.0004211433
0.0002839792
-0.0003229335
0.0002032825
0.0001574148
-0.000140062
-0.0002433173
-1.645307e-05
5.014813e-05
-3.523192e-08
4.381229e-06
0
0
0
0
0
0
0
0
0
0
0
0
0
0
0
-1.815527e-06
-9.806477e-07
3.086597e-06
2.197379e-06
0
0
0
0
0
0
0
0
0
0
0
0
0
0
0
2.09651e-06
-2.415919e-06
-1.160166e-07
2.479342e-06
-2.130532e-07
0
0
0
0
0
0
0
0
0
0
0
0
0
0
0
-1.11959e-06
8.398043e-07
8.88286e-07
1.448173e-06
1.58803e-06
-7.068804e-06
0
0
0
0
0
0
0
0
0
0
0
0
0
0
0
-1.568609e-06
1.578453e-06
4.431419e-07
7.157695e-07
2.386114e-06
1.404911e-05
-7.218344e-06
0
0
0
0
0
0
0
0
0
0
0
0
0
0
0
-4.663237e-07
-7.860181e-07
1.58474e-06
3.166422e-06
-1.688257e-06
-4.952861e-06
2.693339e-05
-9.514155e-06
0
0
0
0
0
0
0
0
0
0
0
0
0
0
0
0
0
0
0
0
0
0
0
0
0
0
0
0
0
0
0
0
0
0
0
0
0
0
0
0
8.510757e-05
0.00051866
0.0001192833
-0.0008716111
-0.0004166772
0
0
0
0
0
0.0002779538
-0.0003291369
-0.0011903
-0.00128282
-0.002101589
-0.001087577
0
0
0
0
0
-0.0002967634
0.000266807
-0.0004482393
-0.00173357
-0.0004557569
0.0004632872
-0.001308588
0
0
0
0
0
0.0005368816
-0.001264605
-7.268496e-05
0.0001957306
0.001570468
4.599447e-05
0.0008004965
0.0004527255
0
0
0
0
0
-0.0004328981
0.001525939
-0.000271962
-0.0003609536
-0.00060876
0.0001368202
0.0004460888
0.0003082587
0.0003783208
0
0
0
0
0
-0.0003462988
0.003093836
-0.0003330581
0.0004964677
-0.0008655038
0.001294762
0.0004833032
-0.00013514
-0.0001518667
-0.0002283878
0
0
0
0
0
-0.0003380464
-0.0005908381
-0.0003807786
-0.0004477871
0.0005799086
-5.639163e-05
0.0008937911
0.0005465653
0.001352746
0.0005598587
-2.339285e-05
0
0
0
0
0
-0.0004797371
0.0005513548
0.0006078574
-7.320721e-05
-0.0007933943
0.0005549384
-0.0002492397
0.0001918878
-0.0002043034
-0.0002142962
-4.747895e-05
-4.71846e-07
0
0
0
0
0
-0.000422571
-0.001236798
0.002123682
-0.0006882954
0.0004446504
-0.001839461
0.000346576
-3.66492e-05
0.0003272205
1.948137e-05
-0.0002532495
2.50787e-06
2.335241e-07
0
0
0
0
0
0.0002613676
-5.600296e-05
0.000127584
-0.0005523737
-0.0003394691
-0.000311965
-0.0002495207
-5.280858e-05
-0.000244872
0.0007929637
5.298578e-05
-6.653181e-07
2.972365e-06
-2.755883e-06
0
0
0
0
0
0
0
0
0
0
0
0
0
0
0
-1.881496e-06
2.482982e-06
5.116207e-07
1.670669e-06
-2.793891e-06
0
0
0
0
0
0
0
0
0
0
0
0
0
0
0
8.224e-07
-2.321682e-06
1.95365e-06
2.952015e-06
2.710601e-07
6.836687e-06
0
0
0
0
0
0
0
0
0
0
0
0
0
0
0
4.569064e-07
1.436356e-07
-1.021244e-06
-2.712684e-07
-1.409951e-06
1.431463e-05
7.600289e-06
0
0
0
0
0
0
0
0
0
0
0
0
0
0
0
-9.83343e-07
-1.140426e-06
-2.323216e-06
-1.129194e-06
2.059381e-06
1.132476e-05
-7.993125e-06
-2.418477e-06
0
0
0
0
0
0
0
0
0
0
0
0
0
0
0
6.798922e-07
2.693087e-06
1.977462e-06
-2.00517e-06
-8.147968e-07
-1.377627e-06
-1.070755e-05
-2.946148e-05
-4.292092e-06
0
0
0
0
0
0
0
0
0
0
0
0
0
0
0
0
0
0
0
0
0
0
0
0
0
0
0
0
0
0
0
0
0
0
0
0
0
0
0
0
0
0
0
0
0
-6.337123e-06
-9.757608e-05
0.0005279873
0.0004034738
0.001125219
4.188394e-05
0
0
0
0
0
-0.0002657567
-0.001043991
0.0007897629
0.001411517
0.00147071
0.0001747115
0.002731735
0
0
0
0
0
-0.0001600774
0.0009061092
-1.430347e-05
0.00032806
-5.696562e-05
-0.001272708
-0.0004203395
-5.857739e-05
0
0
0
0
0
0.0003748055
8.323804e-05
0.0009675274
0.0012073
0.00149753
-0.0001396447
5.294867e-05
-0.0008301863
0.0004410289
0
0
0
0
0
0.0004285228
-0.002040285
-0.00121785
-7.667932e-05
0.0008342763
0.0005038667
-0.0002308068
-0.0008596233
-0.0005153019
0.0005909894
0
0
0
0
0
0.0002699198
0.0006026889
-0.0006059726
0.0003130976
-0.0009549084
6.756228e-05
-0.0009741816
0.001043986
0.0006165483
-0.0006874185
-5.976323e-05
0
0
0
0
0
0.0002399086
0.0010284
-1.418134e-05
0.0009680477
0.001154772
-0.001410912
0.0009751829
9.155562e-05
-9.485891e-05
-9.582753e-05
-0.0002494302
2.124358e-06
0
0
0
0
0
-0.0003883479
0.001511149
-0.001358066
-0.0002813083
-0.0002029337
0.002247634
0.0005932665
-7.535182e-05
0.0004414513
0.0001222195
-0.0004484558
1.522336e-06
-8.129422e-07
0
0
0
0
0
-0.0002110431
0.0007326861
-0.0002460603
-0.000435236
0.000758763
0.0006060045
0.0007822104
-0.0005509757
-0.0002053441
-0.00124837
-0.0002345276
-5.178668e-07
-2.349213e-06
1.036868e-06
0
0
0
0
0
-0.0001826696
-7.516015e-05
0.000259733
0.0001736334
-1.50391e-05
-7.003416e-05
0.0005459136
0.0002764993
-9.386088e-05
-0.0002697326
-0.0001680824
-1.661437e-06
4.792562e-07
1.944367e-06
2.457503e-06
0
0
0
0
0
0
0
0
0
0
0
0
0
0
0
9.836186e-08
-1.173795e-06
1.731127e-06
-1.033271e-06
-1.071968e-06
-1.964262e-05
0
0
0
0
0
0
0
0
0
0
0
0
0
0
0
-1.449189e-06
-9.427839e-07
1.246132e-06
2.457226e-06
-2.682512e-06
1.255702e-05
4.769818e-06
0
0
0
0
0
0
0
0
0
0
0
0
0
0
0
6.888148e-07
-1.929655e-06
2.433715e-06
-1.296523e-06
1.80771e-06
6.766042e-06
1.448344e-06
-1.939283e-05
0
0
0
0
0
0
0
0
0
0
0
0
0
0
0
9.316175e-08
-1.495413e-06
4.135721e-07
2.115947e-06
1.611865e-06
1.063024e-05
-1.209407e-05
-9.323746e-06
-1.0888e-05
0
0
0
0
0
0
0
0
0
0
0
0
0
0
0
-6.163881e-07
5.595715e-07
-3.373346e-06
-6.249327e-07
1.310195e-06
-1.466082e-05
-1.080932e-05
5.254737e-06
-3.389157e-06
5.371359e-06
0
0
0
0
0
0
0
0
0
0
0
0
0
0
0
0
0
0
0
0
0
0
0
0
0
0
0
0
0
0
0
0
0
0
0
0
0
0
0
0
0
0
0
0
0
0
0
0
0
0
-0.0001712464
0.0002021891
0.0002099977
-0.0004714707
0.0002148451
7.986128e-05
-0.0003528808
0
0
0
0
0
7.433904e-05
0.0002761723
0.002512744
-0.001449413
0.0001690414
0.0003843933
0.0002722165
-0.00150734
0
0
0
0
0
0.00030026
-0.0005580954
-0.0005582577
8.542412e-05
-0.0008409702
0.0001125369
0.000293532
0.0008210962
6.768659e-05
0
0
0
0
0
0.000174424
-0.0006072398
0.0005601397
-0.001469141
-0.001394542
3.761844e-05
-0.001120285
0.000770201
0.0003173532
-0.001254849
0
0
0
0
0
-0.0001639931
-0.001240851
0.0009663828
0.0005753505
-0.0006574385
0.0006108405
0.000516293
-0.001937902
0.0004267366
0.0001873483
-0.0001901175
0
0
0
0
0
0.0002435591
-0.0007954879
0.0008672674
-0.001978735
-0.0004840486
0.002119314
-0.0003620986
-4.560607e-05
-0.0009039884
-0.0002789034
0.000212857
-3.766698e-06
0
0
0
0
0
6.562889e-05
-0.000514038
-0.0007576005
-0.0002755432
-4.710385e-06
-0.0009568967
-0.0002614907
-0.001008317
0.0004438908
0.0007631949
-0.0003047895
8.067455e-07
4.065423e-06
0
0
0
0
0
-0.0002044682
0.0006031144
0.001027155
0.001238294
-6.389066e-05
0.0003926095
-0.0002163669
0.0005656312
0.0005153194
-0.0006119154
-0.0005204747
2.594465e-06
-2.399731e-06
1.140744e-06
0
0
0
0
0
-3.552089e-05
0.0001898112
0.0001662979
0.0004036989
0.0006909576
-0.0005247848
-0.0001142736
-0.0004183489
-3.936872e-05
0.001319806
0.0005781121
1.026583e-06
-1.573475e-07
-1.620202e-06
1.11414e-06
0
0
0
0
0
1.956038e-05
0.000410338
-0.0002614781
-0.0007306765
0.0007182356
0.0004396734
-0.0001956641
-0.0002031952
-0.0005190021
-0.0001711331
2.183605e-05
1.802346e-06
9.504149e-07
1.398852e-06
3.07916e-06
3.668246e-06
0
0
0
0
0
0
0
0
0
0
0
0
0
0
0
-2.451036e-07
-1.212552e-06
8.674637e-08
2.243836e-06
2.763106e-06
-2.249727e-06
1.809284e-05
0
0
0
0
0
0
0
0
0
0
0
0
0
0
0
5.863187e-07
2.766059e-06
7.152121e-07
1.822686e-06
-1.827631e-06
2.627178e-06
-2.140645e-06
6.2451e-06
0
0
0
0
0
0
0
0
0
0
0
0
0
0
0
2.362307e-07
-2.741396e-06
2.948824e-07
-2.907551e-06
-1.434909e-06
1.306111e-06
6.784809e-06
1.678434e-05
4.644187e-06
0
0
0
0
0
0
0
0
0
0
0
0
0
0
0
-2.295942e-06
-2.803158e-07
5.990361e-07
-1.52014e-06
4.378316e-07
3.988179e-06
-1.272441e-05
1.996437e-05
2.484627e-05
2.056108e-06
0
0
0
0
0
0
0
0
0
0
0
0
0
0
0
-9.919618e-07
1.869376e-06
8.726269e-07
6.974067e-07
3.153275e-07
-6.348616e-06
1.851049e-05
1.209802e-05
2.864918e-05
1.06324e-05
-80564.98
0
0
0
0
0
0
0
0
0
0
0
0
0
0
0
0
0
0
0
0
0
0
0
0
0
0
0
0
0
0
0
0
0
0
0
0
0
0
0
0
0
0
0
0
0
0
0
0
0
0
0
0
0
0
0
0.0001933512
0.0001470316
-0.0009104797
0.0001234531
-0.0002936609
-0.0004166965
0.000125148
0.0002021207
0
0
0
0
0
-0.0001897752
-0.0005215885
-0.0003520688
-0.0017951
0.0002164109
-0.0006949861
-0.0004044699
9.301032e-06
0.0009534404
0
0
0
0
0
8.124898e-05
-0.0003814773
-0.0002704274
0.001416207
-0.0005246491
-0.0007390786
0.0001388636
-0.001545688
0.0006362735
0.0002682416
0
0
0
0
0
0.0002278056
-0.0002120838
0.0006610443
-0.0008368724
0.000956259
-0.0002091434
-0.000504504
0.001681222
-0.0008444603
-0.0003667551
0.0003524772
0
0
0
0
0
-0.0001381466
4.871348e-05
-0.0001356221
0.002113243
0.0003641396
2.444121e-05
0.000122012
0.0005121206
0.00226206
-0.001083115
-9.659082e-05
-9.148491e-07
0
0
0
0
0
-0.0003340613
0.0004086679
0.00130142
-0.0007831848
0.0001297702
-0.000350026
-0.001481147
-0.0001480699
0.000142745
-0.0003096014
-0.0001049742
-4.375807e-06
1.678231e-06
0
0
0
0
0
-0.0009271817
0.001346176
-0.001580663
-0.0007732775
0.001734973
-0.001660547
-0.0003012112
0.001194576
0.0008166445
0.001059065
-5.566832e-06
-1.678677e-06
-1.371296e-06
1.156677e-06
0
0
0
0
0
0.0003397767
-0.0002244645
-0.001056694
-0.0003552768
-0.0002831118
0.0003033119
-0.0001963841
0.000482109
-0.0006761607
-0.001332007
0.0003989259
3.638808e-06
1.000311e-06
3.239459e-06
1.633668e-06
0
0
0
0
0
-0.0002024527
-7.516639e-05
0.0002249388
0.0001870344
-0.00227748
0.0001388986
0.0002126815
-0.0003981866
0.0003837762
-0.0002883877
-0.0001860305
9.414427e-07
5.690595e-07
-7.485118e-07
-4.390649e-06
1.632904e-05
0
0
0
0
0
-7.767679e-05
4.875001e-05
9.907211e-05
1.847852e-05
0.0003991167
-0.000471018
-0.0001972303
-0.000361777
0.0002579277
0.0005191777
4.76402e-05
3.214982e-06
-1.922105e-06
-2.06265e-06
-3.584361e-07
2.199503e-06
7.962257e-06
0
0
0
0
0
0
0
0
0
0
0
0
0
0
0
-2.735794e-06
3.681099e-07
7.15137e-07
2.165353e-06
9.109441e-07
2.614614e-06
-8.829213e-06
-2.067781e-05
0
0
0
0
0
0
0
0
0
0
0
0
0
0
0
1.312576e-08
-1.04161e-06
1.363966e-06
7.781123e-07
-2.512199e-06
-3.991129e-06
-2.402832e-05
-4.588321e-06
-1.973858e-05
0
0
0
0
0
0
0
0
0
0
0
0
0
0
0
6.630485e-07
-1.053387e-06
-1.051754e-06
-1.89911e-06
9.101124e-07
1.267144e-05
-8.098552e-06
-1.535342e-05
-2.903296e-05
9.625955e-06
0
0
0
0
0
0
0
0
0
0
0
0
0
0
0
-5.511573e-07
1.683234e-07
-8.926334e-08
5.345493e-07
7.581979e-07
1.005618e-05
-4.146964e-06
8.18971e-06
-2.292788e-05
-2.272993e-05
-81263.85
0
0
0
0
0
0
0
0
0
0
0
0
0
0
0
-1.318185e-06
4.619729e-06
-5.669273e-07
-2.360148e-06
-1.02851e-08
-1.684254e-07
-8.343916e-06
-1.736544e-05
-1.289729e-05
-2.741247e-05
-73806.8
-81127.09
0
0
0
0
0
0
0
0
0
0
0
0
0
0
0
0
0
0
0
0
0
0
0
0
0
0
0
0
0
0
0
0
0
0
0
0
0
0
0
0
0
0
0
0
0
0
0
0
0
0
0
0
0
0
0
0
0
0
0
0
3.158392e-05
-0.0002257735
-0.0002042675
0.0002159494
0.0004787996
0.0003408622
-4.551791e-05
-0.0001159838
-0.0001484465
0
0
0
0
0
4.078819e-05
-0.0003185239
0.001177925
-0.0002710817
0.0008815797
0.000978444
-0.0002521591
0.0006548604
-0.0009165169
-0.001322725
0
0
0
0
0
-0.0002614571
-0.001453415
-0.001365063
0.001054692
0.0006877939
0.0009065729
0.001112552
-0.0005165824
0.000667216
0.0002505404
0.0003195209
0
0
0
0
0
8.615424e-05
0.0001058636
0.00205742
-0.001236323
0.0005427642
0.0007618293
-3.025328e-06
-0.001981532
-0.002547587
0.0003992346
-8.764365e-05
1.538024e-06
0
0
0
0
0
0.0002229592
0.0002910775
0.0004599317
0.0001641756
-0.001181752
0.0001967788
0.0007485971
-0.0009573873
-0.0009160769
0.0002793071
0.0004148276
1.253559e-06
-1.243049e-07
0
0
0
0
0
-8.524637e-05
-0.0002184958
0.0003668119
-0.0005629354
-0.000606856
-2.230452e-05
0.0001960247
-0.001339584
-0.001121081
-0.0006167894
-1.29578e-05
-1.967946e-06
6.321044e-07
1.557113e-06
0
0
0
0
0
-0.0004970359
0.001340623
0.0001674453
0.001816887
0.0004202309
-0.001280782
0.00098344
0.001884921
-0.0008824538
0.0006757089
-0.0001526278
-2.812524e-06
-1.59939e-06
-3.30326e-07
3.186905e-06
0
0
0
0
0
-0.0006047711
-0.001118586
-0.0006016386
1.36807e-05
0.0001402213
-0.0009439585
-0.0003542403
-0.0001043242
-0.001564542
0.001400869
0.0004861746
1.419794e-06
-4.363375e-07
1.635401e-06
-6.868406e-07
-1.905227e-05
0
0
0
0
0
0.0007323476
0.0006039862
-0.0004162263
-0.0007362099
4.189633e-05
-0.0003732298
-0.0003525045
-0.0003817743
0.0002245891
-0.001033892
4.600896e-05
-1.544065e-06
1.528099e-06
3.747836e-07
-1.761874e-06
-5.410641e-06
-1.287628e-05
0
0
0
0
0
6.614004e-05
-0.0004051191
0.0004622733
-0.0001455186
-0.0003097423
-0.0004588685
7.439141e-05
-7.442668e-05
0.0003623679
-8.398485e-05
8.197075e-06
3.301779e-10
-1.690021e-06
-1.691401e-06
-7.272036e-07
2.943354e-05
1.988949e-05
6.308942e-06
0
0
0
0
0
0
0
0
0
0
0
0
0
0
0
-3.035491e-06
3.092116e-06
-1.813243e-06
-7.957602e-08
2.158439e-06
1.183088e-05
-1.361638e-05
-3.685544e-06
6.298793e-07
0
0
0
0
0
0
0
0
0
0
0
0
0
0
0
4.92042e-07
9.717083e-07
1.974731e-06
1.019118e-06
-2.067807e-07
4.636521e-06
-3.835039e-06
2.793367e-05
-1.188346e-05
-6.411265e-07
0
0
0
0
0
0
0
0
0
0
0
0
0
0
0
5.358826e-07
-4.34601e-07
1.860676e-07
1.930131e-06
1.541784e-06
1.410956e-05
1.405508e-05
-5.486746e-06
-1.144137e-06
8.133203e-06
-82670.48
0
0
0
0
0
0
0
0
0
0
0
0
0
0
0
-3.173085e-06
6.772952e-07
1.071235e-06
9.848388e-07
-4.724865e-07
2.014828e-05
-6.485424e-06
3.550062e-06
-3.126145e-07
1.361267e-05
-74259.58
-81837.1
0
0
0
0
0
0
0
0
0
0
0
0
0
0
0
-7.884636e-07
4.341706e-07
-3.276457e-06
4.501987e-08
9.998357e-07
-5.183129e-06
-7.404281e-06
4.095129e-07
1.210204e-05
2.226594e-06
-68098.53
-74298.74
-82628.75
0
0
0
0
0
0
0
0
0
0
0
0
0
0
0
0
0
0
0
0
0
0
0
0
0
0
0
0
0
0
0
0
0
0
0
0
0
0
0
0
0
0
0
0
0
0
0
0
0
0
0
0
0
0
0
0
0
0
0
0
0
0
0
0
0
-0.0001764534
0.0001798234
-0.0002665083
0.0004007642
0.000102398
-0.0006943111
0.0004640024
0.0002076793
0.0003352458
0.0007302717
0
0
0
0
0
-0.0001679239
0.0004675042
0.0001558624
-0.001777086
0.0001194777
-0.001350633
-0.0007466633
0.0002992723
0.0006174189
-0.0008263739
0.0001931882
0
0
0
0
0
-0.0003653361
-0.0006580456
-0.0009307705
0.001279069
-0.0011304
-0.0007082743
0.0003908908
0.0005917977
0.001721316
0.0009430352
-6.585647e-05
-1.933284e-06
0
0
0
0
0
-0.0001314266
0.0009262536
-0.0009667183
-0.001238629
-0.0002757317
-0.0002922527
-0.0008028933
0.001000774
0.001077487
0.000208075
-9.383315e-05
-2.493692e-06
-5.794424e-07
0
0
0
0
0
-5.219278e-05
0.0004064669
-0.000775626
-0.0002996195
0.001037853
0.0009971293
7.027574e-05
-0.0003152856
0.0002192173
0.001163452
-0.000157296
-4.180709e-07
1.081271e-06
-4.092763e-07
0
0
0
0
0
0.0002463115
0.0002218842
-0.0003309717
-0.00127292
0.0004556308
0.002446527
0.0008727161
-0.002116329
0.002671056
0.000740182
-0.0003634773
-1.299264e-06
1.096035e-06
-4.418602e-06
-9.325992e-07
0
0
0
0
0
0.0009336455
-8.759996e-05
0.0003299703
-0.0004328351
-0.0004142806
0.0006890981
0.0004794397
-0.0002902844
0.0004030639
-0.0009232522
-6.629444e-06
3.301768e-07
8.623586e-07
-2.760961e-06
2.610303e-06
8.029351e-06
0
0
0
0
0
-0.0009586205
0.000216509
-4.261141e-05
0.001232348
0.0009791778
0.001428354
0.0005552863
0.0006293566
0.0006035465
0.001277643
-0.0006278035
-1.354923e-06
1.064587e-07
-3.9516e-06
-8.585944e-08
6.133915e-06
2.793567e-05
0
0
0
0
0
-0.0005654953
0.0003822746
-0.002192513
-0.0005853335
0.0005877301
0.001087165
0.0003615452
-0.000112999
9.697287e-06
0.0001773627
-2.636839e-05
1.824126e-06
1.252741e-06
4.067156e-06
1.474435e-06
6.038194e-08
-1.203905e-05
-1.183843e-06
0
0
0
0
0
-1.403097e-05
-2.700076e-05
0.0005831698
0.0001030305
-0.0001740296
3.536421e-05
0.0001961626
-0.0003602768
0.0003749105
-0.0001845582
0.0001683453
-3.138704e-06
-2.774612e-06
2.858675e-07
-3.817043e-07
-5.246216e-07
-2.42495e-05
-1.90404e-05
-1.654364e-05
0
0
0
0
0
0
0
0
0
0
0
0
0
0
0
5.92597e-07
2.517732e-06
-6.913286e-07
1.654741e-06
1.893497e-06
1.044692e-05
2.728601e-06
1.397371e-05
-1.432769e-05
6.271268e-06
0
0
0
0
0
0
0
0
0
0
0
0
0
0
0
-2.707219e-06
2.528094e-06
1.907752e-06
-2.905793e-06
-1.858645e-06
-4.959245e-06
-4.477341e-05
-4.38347e-07
-1.100417e-05
9.378331e-06
-84772.91
0
0
0
0
0
0
0
0
0
0
0
0
0
0
0
-3.302391e-07
3.316834e-07
-1.671315e-06
-1.882289e-06
-1.313804e-06
-9.218912e-06
-6.673665e-06
-3.235479e-05
1.025359e-05
-2.749583e-06
-75148.02
-83265.93
0
0
0
0
0
0
0
0
0
0
0
0
0
0
0
3.617516e-08
3.229183e-06
-1.488935e-06
-5.76461e-07
1.36601e-06
2.247369e-05
-1.920228e-05
1.379001e-05
2.358627e-06
-2.332583e-06
-68444.97
-74759.03
-83365.6
0
0
0
0
0
0
0
0
0
0
0
0
0
0
0
-1.390781e-07
2.295753e-06
2.417729e-06
2.947837e-06
-1.052862e-07
-3.33704e-06
6.033201e-06
-8.112095e-07
2.254662e-05
-3.920785e-06
-63525.53
-68537.95
-75600.02
-85114.35
0
0
0
0
0
0
0
0
0
0
0
0
0
0
0
0
0
0
0
0
0
0
0
0
0
0
0
0
0
0
0
0
0
0
0
0
0
0
0
0
0
0
0
0
0
0
0
0
0
0
0
0
0
0
0
0
0
0
0
0
0
0
0
0
0
0
0
0
0
0
0.0002031773
-3.000017e-05
5.273687e-05
0.0002466998
-0.0003196983
0.000426528
0.0003044574
-0.0005989112
0.000540301
0.0001779752
-8.287095e-05
0
0
0
0
0
4.890784e-05
0.0006647774
0.001452135
0.0001432012
0.002021292
0.0003475414
-0.002134034
-0.0001853122
0.0007733362
-0.0008900573
-4.278308e-05
1.956192e-06
0
0
0
0
0
0.0007406406
-0.0008173531
0.0003621647
0.000491151
0.0003414078
0.001327976
0.0003068237
8.026717e-06
-0.0007119496
-0.001256623
-0.0001854109
2.838329e-06
-3.574458e-06
0
0
0
0
0
0.0003588697
0.0001951271
-0.0008126191
0.000694825
-0.001289518
0.0003761332
-0.000347462
6.690671e-05
-0.0006218251
-0.0009284803
5.154315e-05
-1.794553e-06
5.707873e-07
1.884047e-06
0
0
0
0
0
-0.0009300054
-0.0006562201
0.0004172906
-3.455533e-05
0.0008272918
-0.003096673
-0.001174449
0.00011549
0.0003935783
-0.0006196278
-0.0003241096
-6.518137e-07
1.830325e-06
5.315911e-06
2.285209e-08
0
0
0
0
0
-0.0007034629
0.0002943338
-0.0008204399
-0.000165234
0.0007588833
0.0004192644
-0.002066455
-0.001094584
0.0003680458
-0.000459339
-0.0005032911
2.929331e-06
-1.483985e-06
-1.843602e-06
-3.269821e-06
3.342476e-06
0
0
0
0
0
0.000238103
-0.001157619
0.0002563619
0.0001104679
-7.755094e-05
-0.000389898
-0.001623094
-0.0004126614
0.0009561137
0.0003884365
0.000483831
-1.095194e-06
2.745395e-06
-1.21299e-06
-1.260825e-06
-4.969342e-06
1.516721e-05
0
0
0
0
0
0.0003075686
0.001451011
-4.851382e-05
0.0007994814
-0.0006370609
-0.001473523
0.0009504547
0.0004527249
0.0001368985
-0.0003198284
-4.019373e-05
-1.259376e-07
-1.31609e-06
-3.48133e-06
3.28605e-07
7.761123e-06
-9.819485e-06
-2.680636e-05
0
0
0
0
0
0.0001578147
-0.0002888537
-0.001399688
0.0004209178
0.001278453
-0.0005142626
-0.001327861
0.0006576466
0.0001840962
-0.0005178344
-1.220133e-05
1.369612e-06
1.100934e-06
-6.056231e-07
3.835795e-06
-2.031869e-06
-1.963822e-05
5.623938e-06
8.07246e-06
0
0
0
0
0
0.0001715732
0.0001195323
-0.000148431
0.0001450599
-0.0002582748
0.0004687214
-0.000141835
-0.000397538
0.0002183069
-0.0004136421
-2.182304e-05
-1.095673e-06
2.988418e-06
-1.776182e-06
-2.104918e-06
-9.030972e-06
-1.480237e-05
2.717458e-06
4.941766e-07
7.282724e-06
0
0
0
0
0
0
0
0
0
0
0
0
0
0
0
1.315768e-07
-2.090611e-06
-1.906631e-06
1.773823e-06
7.489631e-07
1.097231e-05
1.284402e-05
-4.543581e-06
-1.58735e-05
1.464776e-05
-87473.86
0
0
0
0
0
0
0
0
0
0
0
0
0
0
0
-4.441666e-08
2.742859e-06
-1.499342e-06
8.035907e-07
1.406864e-07
-1.078735e-05
1.795047e-06
4.9087e-05
-6.41053e-06
1.487397e-06
-76410.81
-85400.29
0
0
0
0
0
0
0
0
0
0
0
0
0
0
0
-1.763152e-07
-5.922294e-07
3.151862e-07
4.090273e-07
9.295898e-07
3.529493e-05
1.990174e-06
-1.244423e-05
-6.346055e-06
-4.731136e-06
-69117.54
-75662.44
-84848.69
0
0
0
0
0
0
0
0
0
0
0
0
0
0
0
7.177686e-07
3.20508e-07