/*--------------------------------*- C++ -*----------------------------------*\
| =========                 |                                                 |
| \\      /  F ield         | OpenFOAM: The Open Source CFD Toolbox           |
|  \\    /   O peration     | Version:  2306                                  |
|   \\  /    A nd           | Website:  www.openfoam.com                      |
|    \\/     M anipulation  |                                                 |
\*---------------------------------------------------------------------------*/
FoamFile
{
    version     2.0;
    format      ascii;
    arch        "LSB;label=32;scalar=64";
    class       volScalarField;
    location    "1.2";
    object      k;
}
// * * * * * * * * * * * * * * * * * * * * * * * * * * * * * * * * * * * * * //

dimensions      [1 1 -3 -1 0 0 0];

internalField   nonuniform List<scalar> 
52000
(
20
20
20
20
20
20
20
20
20
20
20
20
20
20
20
20
20
20
20
20
20
20
20
20
20
20
20
20
20
20
20
20
20
20
20
20
20
20
20
20
20
20
20
20
20
20
20
20
20
20
20
20
20
20
20
20
20
20
20
20
20
20
20
20
20
20
20
20
20
20
20
20
20
20
20
20
20
20
20
20
20
20
20
20
20
20
20
20
20
20
20
20
20
20
20
20
20
20
20
20
20
20
20
20
20
20
20
20
20
20
20
20
20
20
20
20
20
20
20
20
20
20
20
20
20
20
20
20
20
20
20
20
20
20
20
20
20
20
20
20
20
20
20
20
20
20
20
20
20
20
20
20
20
20
20
20
20
20
20
20
20
20
20
20
20
20
20
20
20
20
20
20
20
20
20
20
20
20
20
20
20
20
20
20
20
20
20
20
20
20
20
20
20
20
20
20
20
20
20
20
20
20
20
20
20
20
20
20
20
20
20
20
20
20
20
20
20
20
20
20
20
20
20
20
20
20
20
20
20
20
20
20
20
20
20
20
20
20
20
20
0.08511796
20
20
20
20
20
20
20
20
20
20
20
20
20
20
20
20
20
20
20
20
20
20
20
20
20
20
20
20
20
20
20
20
20
20
20
20
20
20
20
20
20
20
20
20
20
20
20
20
20
20
20
20
20
20
20
20
20
20
20
20
20
20
20
20
20
0.08441546
20
20
20
20
20
0.085942
0.08440337
20
20
20
20
20
20
20
20
20
20
20
20
20
20
20
20
20
20
20
20
20
20
20
20
20
20
20
20
20
20
20
20
20
20
20
20
20
20
20
20
20
20
20
20
20
20
20
20
20
20
20
20
20
20
20
20
20
20
20
20
20
20
20
20
20
20
20
20
20
20
0.08402371
20
20
20
20
20
0.0857765
0.08268111
20
20
20
20
20
0.08616333
0.08577528
0.08400147
20
20
20
20
20
20
20
20
20
20
20
20
20
20
20
20
20
20
20
20
20
20
20
20
20
20
20
20
20
20
20
20
20
20
20
20
20
20
20
20
20
20
20
20
20
20
20
20
20
20
20
20
20
20
20
20
20
20
20
20
20
20
20
20
20
20
20
20
20
20
20
20
20
20
20
0.0838001
20
20
20
20
20
0.08563289
0.08159605
20
20
20
20
20
0.08609947
0.08528695
0.08157882
20
20
20
20
20
0.08634446
0.0861043
0.08563164
0.08376621
20
20
20
20
20
20
20
20
20
20
20
20
20
20
20
20
20
20
20
20
20
20
20
20
20
20
20
20
20
20
20
20
20
20
20
20
20
20
20
20
20
20
20
20
20
20
20
20
20
20
20
20
20
20
20
20
20
20
20
20
20
20
20
20
20
20
20
20
20
20
20
20
20
20
20
20
20
20
20
20
0.08369598
20
20
20
20
20
0.08552707
0.0809411
20
20
20
20
20
0.08604197
0.08485713
0.07993358
20
20
20
20
20
0.08631522
0.08591843
0.08485328
0.08089473
20
20
20
20
20
0.08650506
0.08632213
0.08605267
0.08552606
0.08364696
20
20
20
20
20
20
20
20
20
20
20
20
20
20
20
20
20
20
20
20
20
20
20
20
20
20
20
20
20
20
20
20
20
20
20
20
20
20
20
20
20
20
20
20
20
20
20
20
20
20
20
20
20
20
20
20
20
20
20
20
20
20
20
20
20
20
20
20
20
20
20
20
20
20
20
20
20
20
20
20
20
20
20
20
20
0.08369598
20
20
20
20
20
0.08547097
0.08062937
20
20
20
20
20
0.08599791
0.08453757
0.07889201
20
20
20
20
20
0.08628947
0.08574855
0.08415511
0.07885157
20
20
20
20
20
0.08648895
0.08624115
0.08575402
0.08452547
0.08053713
20
20
20
20
20
0.08665103
0.08649617
0.08630419
0.08601607
0.08547063
0.08362697
20
20
20
20
20
20
20
20
20
20
20
20
20
20
20
20
20
20
20
20
20
20
20
20
20
20
20
20
20
20
20
20
20
20
20
20
20
20
20
20
20
20
20
20
20
20
20
20
20
20
20
20
20
20
20
20
20
20
20
20
20
20
20
20
20
20
20
20
20
0.3603355
20
20
20
20
20
20
20
20
20
20
20
20
20
20
20
20
20
20
20
20
0.0838001
20
20
20
20
20
0.08547097
0.08062937
20
20
20
20
20
0.08597393
0.08436736
0.07838295
20
20
20
20
20
0.08626993
0.08561719
0.08362887
0.07751548
20
20
20
20
20
0.08647529
0.08616815
0.08547651
0.08361493
0.07826964
20
20
20
20
20
0.0866403
0.08645459
0.08617685
0.08562897
0.08434249
0.08047218
20
20
20
20
20
0.08678527
0.08664718
0.08649055
0.08629447
0.08600177
0.08547305
0.08370568
20
20
20
20
20
20
20
20
20
20
20
20
20
20
20
20
20
20
20
20
20
20
20
20
20
20
20
20
20
20
20
20
20
20
20
20
20
20
20
20
20
20
20
20
20
20
20
20
20
20
20
20
20
20
20
20
20
0.360326
20
20
20
20
20
20
20
20
20
20
20
20
20
20
20
0.3604563
0.3604072
20
20
20
20
20
20
20
20
20
20
20
20
20
20
20
20
20
20
20
20
0.08402371
20
20
20
20
20
0.08552707
0.0809411
20
20
20
20
20
0.08597393
0.08436736
0.07838295
20
20
20
20
20
0.08625932
0.08554533
0.08334632
0.07685
20
20
20
20
20
0.08646517
0.08611208
0.08525928
0.08292034
0.07676011
20
20
20
20
20
0.08663152
0.08641818
0.08605988
0.08526455
0.08330719
0.07816018
20
20
20
20
20
0.08677691
0.08662133
0.08642753
0.0861324
0.08556549
0.08432836
0.08069871
20
20
20
20
20
0.08690962
0.08678326
0.08664608
0.08649054
0.08629643
0.08601488
0.08553616
0.08389734
20
20
20
20
20
20
20
20
20
20
20
20
20
20
20
20
20
20
20
20
20
20
20
20
20
20
20
20
20
20
20
20
20
20
20
20
20
20
20
20
20
20
20
20
0.3603063
20
20
20
20
20
20
20
20
20
20
20
20
20
20
20
0.36045
0.3603964
20
20
20
20
20
20
20
20
20
20
20
20
20
20
20
0.3605693
0.3605218
0.3604804
20
20
20
20
20
20
20
20
20
20
20
20
20
20
20
20
20
20
20
20
0.08441546
20
20
20
20
20
0.08563289
0.08159605
20
20
20
20
20
0.08599791
0.08453757
0.07889201
20
20
20
20
20
0.08625932
0.08554533
0.08334632
0.07685
20
20
20
20
20
0.08645976
0.08608146
0.08513963
0.08254461
0.07600018
20
20
20
20
20
0.08662517
0.0863909
0.08596878
0.08497633
0.08251153
0.0766149
20
20
20
20
20
0.0867702
0.08659941
0.08637118
0.08598129
0.0851512
0.08327525
0.07852457
20
20
20
20
20
0.08690245
0.08676398
0.08660843
0.08641304
0.08611776
0.08557888
0.08449028
0.08124564
20
20
20
20
20
0.08702535
0.08690827
0.0867837
0.08664941
0.08649798
0.08631263
0.08605747
0.08565848
0.08424446
20
20
20
20
20
20
20
20
20
20
20
20
20
20
20
20
20
20
20
20
20
20
20
20
20
20
20
20
20
20
0.3602733
20
20
20
20
20
20
20
20
20
20
20
20
20
20
20
0.3604375
0.360373
20
20
20
20
20
20
20
20
20
20
20
20
20
20
20
0.360564
0.3605155
0.3604685
20
20
20
20
20
20
20
20
20
20
20
20
20
20
20
0.3606716
0.3606268
0.3605882
0.3605552
20
20
20
20
20
20
20
20
20
20
20
20
20
20
20
20
20
20
20
20
0.08511796
20
20
20
20
20
0.0857765
0.08268111
20
20
20
20
20
0.08604197
0.08485713
0.07993358
20
20
20
20
20
0.08626993
0.08561719
0.08362887
0.07751548
20
20
20
20
20
0.08645976
0.08608146
0.08513963
0.08254461
0.07600018
20
20
20
20
20
0.08662182
0.08637622
0.08591862
0.08481662
0.08207908
0.07583511
20
20
20
20
20
0.08676543
0.08658343
0.08632831
0.08586216
0.08482126
0.08246419
0.07708527
20
20
20
20
20
0.08689675
0.08674801
0.08657581
0.08634259
0.0859492
0.08516274
0.08353044
0.07938974
20
20
20
20
20
0.08701891
0.0868921
0.08675642
0.08660493
0.08641595
0.08614018
0.08567408
0.08481868
0.08219161
20
20
20
20
20
0.08713345
0.08702423
0.08690919
0.08678798
0.08665836
0.0865143
0.08634454
0.08612936
0.08583735
0.08486685
20
20
20
20
20
20
20
20
20
20
20
20
20
20
20
0.3602088
20
20
20
20
20
20
20
20
20
20
20
20
20
20
20
0.3604189
0.360331
20
20
20
20
20
20
20
20
20
20
20
20
20
20
20
0.3605536
0.3605032
0.3604425
20
20
20
20
20
20
20
20
20
20
20
20
20
20
20
0.3606668
0.3606219
0.360582
0.3605426
20
20
20
20
20
20
20
20
20
20
20
20
20
20
20
0.3607654
0.3607217
0.360685
0.3606556
0.3606318
20
20
20
20
20
20
20
20
20
20
20
20
20
20
20
20
20
20
20
20
20
20
20
20
20
0.085942
0.08440337
20
20
20
20
20
0.08609947
0.08528695
0.08157882
20
20
20
20
20
0.08628947
0.08574855
0.08415511
0.07885157
20
20
20
20
20
0.08646517
0.08611208
0.08525928
0.08292034
0.07676011
20
20
20
20
20
0.08662182
0.08637622
0.08591862
0.08481662
0.08207908
0.07583511
20
20
20
20
20
0.08676294
0.086575
0.08630505
0.0857961
0.08463767
0.08202276
0.07636309
20
20
20
20
20
0.08689274
0.08673664
0.08655171
0.08628825
0.08581506
0.08483005
0.08279309
0.07818801
20
20
20
20
20
0.08701379
0.08687888
0.0867334
0.08656576
0.08634024
0.08597567
0.08530618
0.08405066
0.08082504
20
20
20
20
20
0.08712753
0.0870098
0.08688665
0.08675673
0.08661363
0.08643997
0.08620288
0.08584611
0.08528977
0.08372079
20
20
20
20
20
0.0872347
0.08713242
0.08702525
0.08691358
0.086797
0.0866739
0.08654064
0.0863933
0.08623205
0.08608131
0.3599138
20
20
20
20
20
20
20
20
20
20
20
20
20
20
20
0.3603969
0.3602462
20
20
20
20
20
20
20
20
20
20
20
20
20
20
20
0.3605388
0.3604855
0.3603953
20
20
20
20
20
20
20
20
20
20
20
20
20
20
20
0.3606574
0.3606126
0.3605698
0.360515
20
20
20
20
20
20
20
20
20
20
20
20
20
20
20
0.3607609
0.3607174
0.3606805
0.3606494
0.3606189
20
20
20
20
20
20
20
20
20
20
20
20
20
20
20
0.3608524
0.3608092
0.3607724
0.3607439
0.3607239
0.6346723
20
20
20
20
20
20
20
20
20
20
20
20
20
20
20
20
20
20
20
20
20
20
20
20
20
20
20
20
20
20
0.08616333
0.08577528
0.08400147
20
20
20
20
20
0.08631522
0.08591843
0.08485328
0.08089473
20
20
20
20
20
0.08647529
0.08616815
0.08547651
0.08361493
0.07826964
20
20
20
20
20
0.08662517
0.0863909
0.08596878
0.08497633
0.08251153
0.0766149
20
20
20
20
20
0.08676294
0.086575
0.08630505
0.0857961
0.08463767
0.08202276
0.07636309
20
20
20
20
20
0.08689066
0.08673073
0.08653889
0.08625851
0.08574025
0.08464452
0.08239245
0.07759274
20
20
20
20
20
0.0870102
0.08686958
0.08671682
0.08653642
0.08628109
0.08584361
0.08501118
0.0834633
0.07996626
20
20
20
20
20
0.08712282
0.08699805
0.0868679
0.08672999
0.08657356
0.08636989
0.08606475
0.08556877
0.08478262
0.08298568
20
20
20
20
20
0.0872292
0.08711917
0.08700522
0.08688817
0.08676687
0.08663679
0.08648741
0.08630553
0.08608412
0.08587133
0.3595993
20
20
20
20
20
0.08732976
0.08723372
0.08713341
0.08702947
0.08692221
0.0868115
0.08669697
0.08657863
0.08646329
0.08638362
0.360414
0.3600179
20
20
20
20
20
20
20
20
20
20
20
20
20
20
20
0.3605254
0.3604663
0.3603061
20
20
20
20
20
20
20
20
20
20
20
20
20
20
20
0.3606443
0.3606009
0.3605524
0.3604659
20
20
20
20
20
20
20
20
20
20
20
20
20
20
20
0.3607522
0.3607094
0.360672
0.3606372
0.3605907
20
20
20
20
20
20
20
20
20
20
20
20
20
20
20
0.3608483
0.3608052
0.3607686
0.3607396
0.3607177
0.6346649
20
20
20
20
20
20
20
20
20
20
20
20
20
20
20
0.3609337
0.3608909
0.3608535
0.3608238
0.3608035
0.634722
0.6346754
20
20
20
20
20
20
20
20
20
20
20
20
20
20
20
20
20
20
20
20
20
20
20
20
20
20
20
20
20
20
20
20
20
20
20
0.08634446
0.0861043
0.08563164
0.08376621
20
20
20
20
20
0.08648895
0.08624115
0.08575402
0.08452547
0.08053713
20
20
20
20
20
0.08663152
0.08641818
0.08605988
0.08526455
0.08330719
0.07816018
20
20
20
20
20
0.08676543
0.08658343
0.08632831
0.08586216
0.08482126
0.08246419
0.07708527
20
20
20
20
20
0.08689066
0.08673073
0.08653889
0.08625851
0.08574025
0.08464452
0.08239245
0.07759274
20
20
20
20
20
0.08700833
0.0868648
0.08670815
0.08652066
0.08624846
0.0857696
0.08484648
0.08314513
0.07954764
20
20
20
20
20
0.0871195
0.08698984
0.0868546
0.08671051
0.08654309
0.08631423
0.0859523
0.08534424
0.08439369
0.08252821
20
20
20
20
20
0.08722481
0.08710839
0.08698868
0.08686679
0.08674066
0.08660248
0.08643426
0.08621239
0.08592211
0.0856478
0.3593528
20
20
20
20
20
0.08732462
0.08722139
0.08711503
0.08700702
0.08689824
0.08678846
0.08667631
0.08655995
0.08644746
0.08638062
0.3603706
0.3597652
20
20
20
20
20
0.08741917
0.08732882
0.08723465
0.0871374
0.08703759
0.08693571
0.08683233
0.08672928
0.08663346
0.08657544
0.3605918
0.3604638
0.3601251
20
20
20
20
20
20
20
20
20
20
20
20
20
20
20
0.3606336
0.360595
0.360533
0.3603802
20
20
20
20
20
20
20
20
20
20
20
20
20
20
20
0.36074
0.3606997
0.3606619
0.3606195
0.3605421
20
20
20
20
20
20
20
20
20
20
20
20
20
20
20
0.36084
0.3607978
0.3607615
0.3607316
0.3607054
0.634649
20
20
20
20
20
20
20
20
20
20
20
20
20
20
20
0.3609297
0.3608872
0.36085
0.3608202
0.3607993
0.6347185
0.6346681
20
20
20
20
20
20
20
20
20
20
20
20
20
20
20
0.3610098
0.3609677
0.36093
0.3608985
0.3608757
0.6347646
0.6347248
0.6346785
20
20
20
20
20
20
20
20
20
20
20
20
20
20
20
20
20
20
20
20
20
20
20
20
20
20
20
20
20
20
20
20
20
20
20
20
20
20
20
20
0.08650506
0.08632213
0.08605267
0.08552606
0.08364696
20
20
20
20
20
0.0866403
0.08645459
0.08617685
0.08562897
0.08434249
0.08047218
20
20
20
20
20
0.0867702
0.08659941
0.08637118
0.08598129
0.0851512
0.08327525
0.07852457
20
20
20
20
20
0.08689274
0.08673664
0.08655171
0.08628825
0.08581506
0.08483005
0.08279309
0.07818801
20
20
20
20
20
0.08700833
0.0868648
0.08670815
0.08652066
0.08624846
0.0857696
0.08484648
0.08314513
0.07954764
20
20
20
20
20
0.08711779
0.08698563
0.08684772
0.08670025
0.08652657
0.08628323
0.08588881
0.0852184
0.08418303
0.082306
20
20
20
20
20
0.08722172
0.08710087
0.08697702
0.08685149
0.0867213
0.08657571
0.08639042
0.08613318
0.08578515
0.0854688
0.3591873
20
20
20
20
20
0.08732051
0.08721136
0.08709988
0.08698828
0.08687779
0.08676766
0.08665464
0.08653318
0.086409
0.08633254
0.3603104
0.3595582
20
20
20
20
20
0.08741435
0.08731728
0.08721754
0.0871168
0.08701656
0.08691821
0.08682315
0.08673442
0.08666079
0.08663342
0.3606103
0.3604275
0.3599226
20
20
20
20
20
0.08750339
0.08741827
0.08732969
0.08723841
0.08714503
0.08705019
0.08695485
0.08686111
0.08677592
0.08672548
0.3607072
0.3606324
0.3605195
0.360235
20
20
20
20
20
20
20
20
20
20
20
20
20
20
20
0.3607301
0.3606974
0.3606575
0.3605987
0.3604634
20
20
20
20
20
20
20
20
20
20
20
20
20
20
20
0.3608285
0.360789
0.3607539
0.360722
0.3606872
0.6346218
20
20
20
20
20
20
20
20
20
20
20
20
20
20
20
0.3609219
0.3608802
0.3608436
0.3608138
0.3607915
0.6347114
0.6346521
20
20
20
20
20
20
20
20
20
20
20
20
20
20
20
0.361006
0.3609642
0.3609266
0.3608952
0.3608723
0.6347623
0.6347213
0.6346712
20
20
20
20
20
20
20
20
20
20
20
20
20
20
20
0.3610813
0.3610401
0.3610023
0.3609695
0.3609439
0.6348034
0.634767
0.6347275
0.6346816
20
20
20
20
20
20
20
20
20
20
20
20
20
20
20
20
20
20
20
20
20
20
20
20
20
20
20
20
20
20
20
20
20
20
20
20
20
20
20
20
20
20
20
20
20
0.08665103
0.08649617
0.08630419
0.08601607
0.08547063
0.08362697
20
20
20
20
20
0.08677691
0.08662133
0.08642753
0.0861324
0.08556549
0.08432836
0.08069871
20
20
20
20
20
0.08689675
0.08674801
0.08657581
0.08634259
0.0859492
0.08516274
0.08353044
0.07938974
20
20
20
20
20
0.0870102
0.08686958
0.08671682
0.08653642
0.08628109
0.08584361
0.08501118
0.0834633
0.07996626
20
20
20
20
20
0.08711779
0.08698563
0.08684772
0.08670025
0.08652657
0.08628323
0.08588881
0.0852184
0.08418303
0.082306
20
20
20
20
20
0.08722012
0.08709702
0.08697103
0.08684353
0.08671101
0.08656097
0.08636551
0.08608758
0.08570713
0.08537038
0.3591046
20
20
20
20
20
0.0873176
0.08720436
0.08708923
0.08697498
0.08686298
0.08675181
0.0866363
0.08650742
0.08636888
0.08628111
0.3602581
0.3594163
20
20
20
20
20
0.08741048
0.08730788
0.08720342
0.08709966
0.08699878
0.08690269
0.08681274
0.08673118
0.08666479
0.086644
0.3606071
0.3603786
0.3597515
20
20
20
20
20
0.08749887
0.08740744
0.08731365
0.0872192
0.08712572
0.08703501
0.08694952
0.08687322
0.08681539
0.08679844
0.3607423
0.3606465
0.3604871
0.3600738
20
20
20
20
20
0.08758282
0.08750254
0.08741909
0.08733324
0.08724558
0.08715682
0.08706794
0.08698112
0.0869026
0.08685569
0.3607992
0.3607423
0.3606769
0.3605787
0.3603468
20
20
20
20
20
20
20
20
20
20
20
20
20
20
20
0.3608187
0.3607873
0.3607535
0.3607163
0.3606645
0.6345795
20
20
20
20
20
20
20
20
20
20
20
20
20
20
20
0.3609108
0.3608718
0.3608369
0.3608069
0.3607815
0.6347009
0.6346251
20
20
20
20
20
20
20
20
20
20
20
20
20
20
20
0.3609985
0.3609575
0.3609207
0.3608895
0.3608661
0.6347578
0.6347142
0.6346553
20
20
20
20
20
20
20
20
20
20
20
20
20
20
20
0.3610776
0.3610367
0.3609991
0.3609665
0.3609408
0.6348015
0.6347647
0.634724
0.6346743
20
20
20
20
20
20
20
20
20
20
20
20
20
20
20
0.3611485
0.3611084
0.3610709
0.3610374
0.3610096
0.6348403
0.6348055
0.6347695
0.6347303
0.6346848
20
20
20
20
20
20
20
20
20
20
20
20
20
20
20
20
20
20
20
20
20
20
20
20
20
20
20
20
20
20
20
20
20
20
20
20
20
20
20
20
20
20
20
20
20
20
20
20
20
20
0.08678527
0.08664718
0.08649055
0.08629447
0.08600177
0.08547305
0.08370568
20
20
20
20
20
0.08690245
0.08676398
0.08660843
0.08641304
0.08611776
0.08557888
0.08449028
0.08124564
20
20
20
20
20
0.08701379
0.08687888
0.0867334
0.08656576
0.08634024
0.08597567
0.08530618
0.08405066
0.08082504
20
20
20
20
20
0.0871195
0.08698984
0.0868546
0.08671051
0.08654309
0.08631423
0.0859523
0.08534424
0.08439369
0.08252821
20
20
20
20
20
0.08722012
0.08709702
0.08697103
0.08684353
0.08671101
0.08656097
0.08636551
0.08608758
0.08570713
0.08537038
0.3591046
20
20
20
20
20
0.0873161
0.08720077
0.08708377
0.08696811
0.08685521
0.08674322
0.08662576
0.08649183
0.08634413
0.08624974
0.3602284
0.3593446
20
20
20
20
20
0.08740775
0.08730131
0.08719352
0.08708753
0.08698603
0.0868911
0.08680365
0.0867247
0.08665911
0.08663885
0.3605975
0.360336
0.359632
20
20
20
20
20
0.08749522
0.08739861
0.08730042
0.08720322
0.08710945
0.08702171
0.08694304
0.08687748
0.08683296
0.08682696
0.3607569
0.3606448
0.3604467
0.359935
20
20
20
20
20
0.08757856
0.08749236
0.08740403
0.08731521
0.08722752
0.08714284
0.0870637
0.08699435
0.08694306
0.08692836
0.3608367
0.3607698
0.3606853
0.3605485
0.3602205
20
20
20
20
20
0.0876578
0.08758202
0.08750333
0.08742246
0.08734002
0.08725667
0.0871734
0.08709224
0.08701888
0.08697384
0.3608804
0.3608302
0.3607801
0.3607232
0.3606397
0.6345203
20
20
20
20
20
20
20
20
20
20
20
20
20
20
20
0.3609011
0.3608698
0.3608372
0.3608053
0.3607729
0.6346873
0.634583
20
20
20
20
20
20
20
20
20
20
20
20
20
20
20
0.3609878
0.3609494
0.3609142
0.3608835
0.3608589
0.6347519
0.6347036
0.6346283
20
20
20
20
20
20
20
20
20
20
20
20
20
20
20
0.3610704
0.3610303
0.3609934
0.3609611
0.3609354
0.634798
0.6347602
0.634717
0.6346584
20
20
20
20
20
20
20
20
20
20
20
20
20
20
20
0.361145
0.3611052
0.3610679
0.3610345
0.3610067
0.6348386
0.6348036
0.6347671
0.6347268
0.6346774
20
20
20
20
20
20
20
20
20
20
20
20
20
20
20
0.3612119
0.361173
0.3611361
0.3611022
0.3610729
0.6348762
0.6348422
0.6348077
0.6347719
0.6347331
0.7260159
20
20
20
20
20
20
20
20
20
20
20
20
20
20
20
20
20
20
20
20
20
20
20
20
20
20
20
20
20
20
20
20
20
20
20
20
20
20
20
20
20
20
20
20
20
20
20
20
20
20
20
20
20
20
20
0.08690962
0.08678326
0.08664608
0.08649054
0.08629643
0.08601488
0.08553616
0.08389734
20
20
20
20
20
0.08701891
0.0868921
0.08675642
0.08660493
0.08641595
0.08614018
0.08567408
0.08481868
0.08219161
20
20
20
20
20
0.08712282
0.08699805
0.0868679
0.08672999
0.08657356
0.08636989
0.08606475
0.08556877
0.08478262
0.08298568
20
20
20
20
20
0.08722172
0.08710087
0.08697702
0.08685149
0.0867213
0.08657571
0.08639042
0.08613318
0.08578515
0.0854688
0.3591873
20
20
20
20
20
0.0873161
0.08720077
0.08708377
0.08696811
0.08685521
0.08674322
0.08662576
0.08649183
0.08634413
0.08624974
0.3602284
0.3593446
20
20
20
20
20
0.08740633
0.08729795
0.08718844
0.08708128
0.08697939
0.08688489
0.08679837
0.08672001
0.08665372
0.08663297
0.3605905
0.3603118
0.3595712
20
20
20
20
20
0.08749264
0.08739243
0.08729113
0.08719192
0.08709783
0.08701188
0.08693725
0.08687744
0.08683893
0.08683719
0.3607618
0.3606379
0.360412
0.3598367
20
20
20
20
20
0.08757513
0.08748405
0.08739159
0.0873002
0.08721231
0.08713064
0.08705848
0.08700044
0.08696358
0.08696074
0.3608559
0.3607827
0.3606836
0.3605146
0.3601109
20
20
20
20
20
0.08765379
0.08757245
0.08748916
0.0874055
0.087323
0.08724348
0.08716938
0.08710464
0.08705683
0.08704137
0.3609158
0.3608597
0.3607997
0.3607259
0.3606109
0.6344574
20
20
20
20
20
0.08772861
0.08765706
0.0875828
0.08750654
0.08742889
0.08735048
0.08727225
0.08719606
0.08712705
0.08708357
0.3609551
0.3609082
0.3608634
0.360819
0.3607702
0.634672
0.6345246
20
20
20
20
20
20
20
20
20
20
20
20
20
20
20
0.3609782
0.3609467
0.3609142
0.360883
0.3608547
0.6347459
0.63469
0.6345865
20
20
20
20
20
20
20
20
20
20
20
20
20
20
20
0.3610601
0.3610224
0.3609871
0.3609555
0.3609293
0.6347937
0.6347543
0.6347064
0.6346316
20
20
20
20
20
20
20
20
20
20
20
20
20
20
20
0.3611381
0.361099
0.3610623
0.3610293
0.3610016
0.6348355
0.6348001
0.6347626
0.6347197
0.6346616
20
20
20
20
20
20
20
20
20
20
20
20
20
20
20
0.3612085
0.3611699
0.3611332
0.3610995
0.3610702
0.6348745
0.6348405
0.6348058
0.6347695
0.6347296
0.7260105
20
20
20
20
20
20
20
20
20
20
20
20
20
20
20
0.3612717
0.3612341
0.361198
0.3611642
0.361134
0.6349109
0.6348778
0.6348441
0.6348098
0.6347743
0.7260519
0.7260179
20
20
20
20
20
20
20
20
20
20
20
20
20
20
20
20
20
20
20
20
20
20
20
20
20
20
20
20
20
20
20
20
20
20
20
20
20
20
20
20
20
20
20
20
20
20
20
20
20
20
20
20
20
20
20
20
20
20
20
20
0.08702535
0.08690827
0.0867837
0.08664941
0.08649798
0.08631263
0.08605747
0.08565848
0.08424446
20
20
20
20
20
0.08712753
0.0870098
0.08688665
0.08675673
0.08661363
0.08643997
0.08620288
0.08584611
0.08528977
0.08372079
20
20
20
20
20
0.08722481
0.08710839
0.08698868
0.08686679
0.08674066
0.08660248
0.08643426
0.08621239
0.08592211
0.0856478
0.3593528
20
20
20
20
20
0.0873176
0.08720436
0.08708923
0.08697498
0.08686298
0.08675181
0.0866363
0.08650742
0.08636888
0.08628111
0.3602581
0.3594163
20
20
20
20
20
0.08740633
0.08729795
0.08718844
0.08708128
0.08697939
0.08688489
0.08679837
0.08672001
0.08665372
0.08663297
0.3605905
0.3603118
0.3595712
20
20
20
20
20
0.0874913
0.08738927
0.08728637
0.0871861
0.08709181
0.08700667
0.08693386
0.08687649
0.08684025
0.0868401
0.3607629
0.3606327
0.3603923
0.3597863
20
20
20
20
20
0.08757269
0.08747823
0.08738285
0.08728959
0.08720146
0.08712168
0.08705381
0.08700227
0.08697275
0.0869753
0.3608651
0.3607877
0.3606782
0.3604863
0.3600324
20
20
20
20
20
0.08765054
0.08756462
0.08747745
0.08739136
0.08730867
0.08723198
0.08716452
0.08711061
0.08707678
0.0870727
0.3609351
0.3608763
0.3608099
0.3607232
0.3605823
0.6344028
20
20
20
20
20
0.08772483
0.08764805
0.08756947
0.08749057
0.08741283
0.08733794
0.08726818
0.08720718
0.08716164
0.08714499
0.3609872
0.360936
0.3608848
0.3608311
0.3607674
0.6346558
0.6344627
20
20
20
20
20
0.08779551
0.08772794
0.08765783
0.08758587
0.08751266
0.0874388
0.08736517
0.0872935
0.08722842
0.08718639
0.3610253
0.3609804
0.3609378
0.3608973
0.3608583
0.6347419
0.6346746
0.6345289
20
20
20
20
20
20
20
20
20
20
20
20
20
20
20
0.3610505
0.3610191
0.3609864
0.3609548
0.3609263
0.6347902
0.6347482
0.6346927
0.6345901
20
20
20
20
20
20
20
20
20
20
20
20
20
20
20
0.3611282
0.3610912
0.3610561
0.3610238
0.3609959
0.6348318
0.6347958
0.6347567
0.6347091
0.6346348
20
20
20
20
20
20
20
20
20
20
20
20
20
20
20
0.3612018
0.3611639
0.3611278
0.3610945
0.3610653
0.6348716
0.6348374
0.6348022
0.634765
0.6347225
0.7259986
20
20
20
20
20
20
20
20
20
20
20
20
20
20
20
0.3612684
0.3612311
0.3611952
0.3611616
0.3611314
0.6349094
0.6348762
0.6348424
0.6348079
0.634772
0.7260493
0.7260125
20
20
20
20
20
20
20
20
20
20
20
20
20
20
20
0.3613282
0.361292
0.3612569
0.3612235
0.3611928
0.6349446
0.6349124
0.6348795
0.634846
0.6348119
0.7260826
0.7260537
0.7260195
20
20
20
20
20
20
20
20
20
20
20
20
20
20
20
20
20
20
20
20
20
20
20
20
20
20
20
20
20
20
20
20
20
20
20
20
20
20
20
20
20
20
20
20
20
20
20
20
20
20
20
20
20
20
20
20
20
20
20
20
20
20
20
20
20
0.08713345
0.08702423
0.08690919
0.08678798
0.08665836
0.0865143
0.08634454
0.08612936
0.08583735
0.08486685
20
20
20
20
20
0.0872292
0.08711917
0.08700522
0.08688817
0.08676687
0.08663679
0.08648741
0.08630553
0.08608412
0.08587133
0.3595993
20
20
20
20
20
0.08732051
0.08721136
0.08709988
0.08698828
0.08687779
0.08676766
0.08665464
0.08653318
0.086409
0.08633254
0.3603104
0.3595582
20
20
20
20
20
0.08740775
0.08730131
0.08719352
0.08708753
0.08698603
0.0868911
0.08680365
0.0867247
0.08665911
0.08663885
0.3605975
0.360336
0.359632
20
20
20
20
20
0.0874913
0.08738927
0.08728637
0.0871861
0.08709181
0.08700667
0.08693386
0.08687649
0.08684025
0.0868401
0.3607629
0.3606327
0.3603923
0.3597863
20
20
20
20
20
0.08757142
0.08747525
0.08737836
0.08728412
0.08719584
0.08711694
0.08705109
0.08700248
0.08697607
0.08698089
0.3608688
0.3607891
0.3606742
0.3604704
0.3599918
20
20
20
20
20
0.08764824
0.08755914
0.08746921
0.08738136
0.08729845
0.08722355
0.08716023
0.08711269
0.08708625
0.0870876
0.3609452
0.3608847
0.3608142
0.3607186
0.3605594
0.6343635
20
20
20
20
20
0.08772177
0.08764068
0.08755843
0.08747724
0.08739929
0.08732702
0.08726342
0.0872125
0.08717995
0.08717387
0.3610052
0.3609526
0.360898
0.3608381
0.3607632
0.6346408
0.634409
20
20
20
20
20
0.08779195
0.08771946
0.08764528
0.08757083
0.08749751
0.08742688
0.08736106
0.08730335
0.08725975
0.087242
0.3610541
0.3610055
0.360958
0.3609112
0.3608633
0.6347387
0.6346584
0.634468
20
20
20
20
20
0.08785873
0.08779491
0.0877287
0.08766079
0.08759171
0.08752208
0.08745271
0.08738519
0.08732376
0.08728327
0.3610917
0.3610484
0.361007
0.3609679
0.3609313
0.6347897
0.634744
0.6346772
0.6345333
20
20
20
20
20
20
20
20
20
20
20
20
20
20
20
0.3611185
0.3610875
0.3610548
0.3610227
0.3609932
0.6348292
0.6347922
0.6347505
0.6346954
0.6345937
20
20
20
20
20
20
20
20
20
20
20
20
20
20
20
0.3611922
0.3611563
0.3611216
0.361089
0.3610598
0.6348683
0.6348337
0.6347979
0.6347591
0.6347119
0.7259786
20
20
20
20
20
20
20
20
20
20
20
20
20
20
20
0.361262
0.3612253
0.36119
0.3611567
0.3611267
0.6349066
0.6348733
0.6348393
0.6348044
0.6347675
0.726044
0.7260007
20
20
20
20
20
20
20
20
20
20
20
20
20
20
20
0.361325
0.3612891
0.3612541
0.3612209
0.3611903
0.6349431
0.6349109
0.6348779
0.6348443
0.63481
0.7260808
0.726051
0.726014
20
20
20
20
20
20
20
20
20
20
20
20
20
20
20
0.3613816
0.3613469
0.3613128
0.3612801
0.3612494
0.6349772
0.634946
0.634914
0.6348812
0.6348479
0.7261106
0.7260841
0.726055
0.7260207
20
20
20
20
20
20
20
20
20
20
20
20
20
20
20
20
20
20
20
20
20
20
20
20
20
20
20
20
20
20
20
20
20
20
20
20
20
20
20
20
20
20
20
20
20
20
20
20
20
20
20
20
20
20
20
20
20
20
20
20
20
20
20
20
20
20
20
20
20
20
0.0872347
0.08713242
0.08702525
0.08691358
0.086797
0.0866739
0.08654064
0.0863933
0.08623205
0.08608131
0.3599138
20
20
20
20
20
0.08732462
0.08722139
0.08711503
0.08700702
0.08689824
0.08678846
0.08667631
0.08655995
0.08644746
0.08638062
0.3603706
0.3597652
20
20
20
20
20
0.08741048
0.08730788
0.08720342
0.08709966
0.08699878
0.08690269
0.08681274
0.08673118
0.08666479
0.086644
0.3606071
0.3603786
0.3597515
20
20
20
20
20
0.08749264
0.08739243
0.08729113
0.08719192
0.08709783
0.08701188
0.08693725
0.08687744
0.08683893
0.08683719
0.3607618
0.3606379
0.360412
0.3598367
20
20
20
20
20
0.08757142
0.08747525
0.08737836
0.08728412
0.08719584
0.08711694
0.08705109
0.08700248
0.08697607
0.08698089
0.3608688
0.3607891
0.3606742
0.3604704
0.3599918
20
20
20
20
20
0.08764704
0.08755633
0.08746499
0.08737621
0.08729315
0.08721911
0.08715775
0.08711312
0.08708992
0.08709366
0.3609495
0.3608882
0.3608157
0.3607154
0.3605467
0.6343432
20
20
20
20
20
0.08771959
0.08763551
0.08755067
0.08746781
0.08738963
0.08731902
0.08725928
0.08721433
0.08718876
0.08718787
0.3610148
0.3609616
0.3609052
0.3608414
0.3607589
0.6346291
0.6343703
20
20
20
20
20
0.08778906
0.08771252
0.08763489
0.08755827
0.08748472
0.08741649
0.08735636
0.08730794
0.0872763
0.08726823
0.3610704
0.3610208
0.3609713
0.3609207
0.3608669
0.6347358
0.6346435
0.6344151
20
20
20
20
20
0.08785537
0.08778694
0.08771691
0.08764663
0.08757743
0.08751078
0.08744862
0.08739396
0.08735219
0.08733374
0.3611175
0.3610708
0.3610253
0.3609812
0.3609383
0.6347906
0.6347406
0.6346611
0.6344733
20
20
20
20
20
0.08791845
0.0878582
0.08779569
0.08773157
0.08766638
0.0876007
0.0875353
0.08747165
0.08741362
0.08737475
0.3611547
0.361113
0.3610727
0.3610341
0.3609979
0.6348296
0.6347914
0.634746
0.6346798
0.6345376
20
20
20
20
20
20
20
20
20
20
20
20
20
20
20
0.3611827
0.3611522
0.3611198
0.3610875
0.361057
0.6348659
0.634831
0.6347943
0.6347528
0.6346981
0.725948
20
20
20
20
20
20
20
20
20
20
20
20
20
20
20
0.3612527
0.3612179
0.3611839
0.3611513
0.3611213
0.6349034
0.6348699
0.6348356
0.6348
0.6347615
0.726036
0.7259807
20
20
20
20
20
20
20
20
20
20
20
20
20
20
20
0.3613188
0.3612835
0.3612491
0.3612162
0.3611857
0.6349405
0.6349081
0.6348751
0.6348412
0.6348065
0.7260774
0.7260457
0.7260023
20
20
20
20
20
20
20
20
20
20
20
20
20
20
20
0.3613786
0.3613441
0.3613102
0.3612776
0.3612469
0.6349758
0.6349445
0.6349124
0.6348796
0.6348462
0.7261092
0.7260823
0.7260524
0.7260152
20
20
20
20
20
20
20
20
20
20
20
20
20
20
20
0.3614322
0.3613989
0.3613661
0.3613341
0.3613037
0.6350087
0.6349785
0.6349474
0.6349155
0.634883
0.7261374
0.7261119
0.7260853
0.726056
0.7260213
20
20
20
20
20
20
20
20
20
20
20
20
20
20
20
20
20
20
20
20
20
20
20
20
20
20
20
20
20
20
20
20
20
20
20
20
20
20
20
20
20
20
20
20
20
20
20
20
20
20
20
20
20
20
20
20
20
20
20
20
20
20
20
20
20
20
20
20
20
0.3602088
20
20
20
20
20
0.08732976
0.08723372
0.08713341
0.08702947
0.08692221
0.0868115
0.08669697
0.08657863
0.08646329
0.08638362
0.360414
0.3600179
20
20
20
20
20
0.08741435
0.08731728
0.08721754
0.0871168
0.08701656
0.08691821
0.08682315
0.08673442
0.08666079
0.08663342
0.3606103
0.3604275
0.3599226
20
20
20
20
20
0.08749522
0.08739861
0.08730042
0.08720322
0.08710945
0.08702171
0.08694304
0.08687748
0.08683296
0.08682696
0.3607569
0.3606448
0.3604467
0.359935
20
20
20
20
20
0.08757269
0.08747823
0.08738285
0.08728959
0.08720146
0.08712168
0.08705381
0.08700227
0.08697275
0.0869753
0.3608651
0.3607877
0.3606782
0.3604863
0.3600324
20
20
20
20
20
0.08764704
0.08755633
0.08746499
0.08737621
0.08729315
0.08721911
0.08715775
0.08711312
0.08708992
0.08709366
0.3609495
0.3608882
0.3608157
0.3607154
0.3605467
0.6343432
20
20
20
20
20
0.08771845
0.08763286
0.08754668
0.08746296
0.08738463
0.0873148
0.0872569
0.08721471
0.08719224
0.08719366
0.361019
0.3609656
0.3609083
0.3608425
0.3607563
0.6346227
0.6343502
20
20
20
20
20
0.08778699
0.08770765
0.08762758
0.08754938
0.08747559
0.08740888
0.08735231
0.08730942
0.08728427
0.08728102
0.3610793
0.3610294
0.3609789
0.3609263
0.3608689
0.6347334
0.634632
0.634377
20
20
20
20
20
0.08785264
0.08778041
0.08770713
0.0876348
0.08756536
0.08750092
0.087444
0.08739791
0.08736713