/*--------------------------------*- C++ -*----------------------------------*\
| =========                 |                                                 |
| \\      /  F ield         | OpenFOAM: The Open Source CFD Toolbox           |
|  \\    /   O peration     | Version:  2306                                  |
|   \\  /    A nd           | Website:  www.openfoam.com                      |
|    \\/     M anipulation  |                                                 |
\*---------------------------------------------------------------------------*/
FoamFile
{
    version     2.0;
    format      ascii;
    arch        "LSB;label=32;scalar=64";
    class       volScalarField;
    location    "1.2";
    object      rhoCp;
}
// * * * * * * * * * * * * * * * * * * * * * * * * * * * * * * * * * * * * * //

dimensions      [1 -1 -2 -1 0 0 0];

internalField   nonuniform List<scalar> 
52000
(
5346000
5346000
5346000
5346000
5346000
5346000
5346000
5346000
5346000
5346000
5346000
5346000
5346000
5346000
5346000
5346000
5346000
5346000
5346000
5346000
5346000
5346000
5346000
5346000
5346000
5346000
5346000
5346000
5346000
5346000
5346000
5346000
5346000
5346000
5346000
5346000
5346000
5346000
5346000
5346000
5346000
5346000
5346000
5346000
5346000
5346000
5346000
5346000
5346000
5346000
5346000
5346000
5346000
5346000
5346000
5346000
5346000
5346000
5346000
5346000
5346000
5346000
5346000
5346000
5346000
5346000
5346000
5346000
5346000
5346000
5346000
5346000
5346000
5346000
5346000
5346000
5346000
5346000
5346000
5346000
5346000
5346000
5346000
5346000
5346000
5346000
5346000
5346000
5346000
5346000
5346000
5346000
5346000
5346000
5346000
5346000
5346000
5346000
5346000
5346000
5346000
5346000
5346000
5346000
5346000
5346000
5346000
5346000
5346000
5346000
5346000
5346000
5346000
5346000
5346000
5346000
5346000
5346000
5346000
5346000
5346000
5346000
5346000
5346000
5346000
5346000
5346000
5346000
5346000
5346000
5346000
5346000
5346000
5346000
5346000
5346000
5346000
5346000
5346000
5346000
5346000
5346000
5346000
5346000
5346000
5346000
5346000
5346000
5346000
5346000
5346000
5346000
5346000
5346000
5346000
5346000
5346000
5346000
5346000
5346000
5346000
5346000
5346000
5346000
5346000
5346000
5346000
5346000
5346000
5346000
5346000
5346000
5346000
5346000
5346000
5346000
5346000
5346000
5346000
5346000
5346000
5346000
5346000
5346000
5346000
5346000
5346000
5346000
5346000
5346000
5346000
5346000
5346000
5346000
5346000
5346000
5346000
5346000
5346000
5346000
5346000
5346000
5346000
5346000
5346000
5346000
5346000
5346000
5346000
5346000
5346000
5346000
5346000
5346000
5346000
5346000
5346000
5346000
5346000
5346000
5346000
5346000
5346000
5346000
5346000
5346000
5346000
5346000
5346000
5346000
5346000
5346000
5346000
5346000
5346000
5346000
5346000
5346000
5346000
5346000
344.9716
5346000
5346000
5346000
5346000
5346000
5346000
5346000
5346000
5346000
5346000
5346000
5346000
5346000
5346000
5346000
5346000
5346000
5346000
5346000
5346000
5346000
5346000
5346000
5346000
5346000
5346000
5346000
5346000
5346000
5346000
5346000
5346000
5346000
5346000
5346000
5346000
5346000
5346000
5346000
5346000
5346000
5346000
5346000
5346000
5346000
5346000
5346000
5346000
5346000
5346000
5346000
5346000
5346000
5346000
5346000
5346000
5346000
5346000
5346000
5346000
5346000
5346000
5346000
5346000
5346000
348.22
5346000
5346000
5346000
5346000
5346000
341.2361
348.2777
5346000
5346000
5346000
5346000
5346000
5346000
5346000
5346000
5346000
5346000
5346000
5346000
5346000
5346000
5346000
5346000
5346000
5346000
5346000
5346000
5346000
5346000
5346000
5346000
5346000
5346000
5346000
5346000
5346000
5346000
5346000
5346000
5346000
5346000
5346000
5346000
5346000
5346000
5346000
5346000
5346000
5346000
5346000
5346000
5346000
5346000
5346000
5346000
5346000
5346000
5346000
5346000
5346000
5346000
5346000
5346000
5346000
5346000
5346000
5346000
5346000
5346000
5346000
5346000
5346000
5346000
5346000
5346000
5346000
5346000
350.0524
5346000
5346000
5346000
5346000
5346000
341.9827
356.4606
5346000
5346000
5346000
5346000
5346000
340.2649
341.9908
350.1613
5346000
5346000
5346000
5346000
5346000
5346000
5346000
5346000
5346000
5346000
5346000
5346000
5346000
5346000
5346000
5346000
5346000
5346000
5346000
5346000
5346000
5346000
5346000
5346000
5346000
5346000
5346000
5346000
5346000
5346000
5346000
5346000
5346000
5346000
5346000
5346000
5346000
5346000
5346000
5346000
5346000
5346000
5346000
5346000
5346000
5346000
5346000
5346000
5346000
5346000
5346000
5346000
5346000
5346000
5346000
5346000
5346000
5346000
5346000
5346000
5346000
5346000
5346000
5346000
5346000
5346000
5346000
5346000
5346000
5346000
5346000
5346000
5346000
5346000
5346000
351.1051
5346000
5346000
5346000
5346000
5346000
342.6323
361.7788
5346000
5346000
5346000
5346000
5346000
340.55
344.211
361.8672
5346000
5346000
5346000
5346000
5346000
339.4762
340.5321
342.6455
351.2746
5346000
5346000
5346000
5346000
5346000
5346000
5346000
5346000
5346000
5346000
5346000
5346000
5346000
5346000
5346000
5346000
5346000
5346000
5346000
5346000
5346000
5346000
5346000
5346000
5346000
5346000
5346000
5346000
5346000
5346000
5346000
5346000
5346000
5346000
5346000
5346000
5346000
5346000
5346000
5346000
5346000
5346000
5346000
5346000
5346000
5346000
5346000
5346000
5346000
5346000
5346000
5346000
5346000
5346000
5346000
5346000
5346000
5346000
5346000
5346000
5346000
5346000
5346000
5346000
5346000
5346000
5346000
5346000
5346000
5346000
5346000
5346000
5346000
5346000
5346000
5346000
5346000
5346000
5346000
5346000
351.5969
5346000
5346000
5346000
5346000
5346000
343.1121
365.0524
5346000
5346000
5346000
5346000
5346000
340.8061
346.1843
370.1895
5346000
5346000
5346000
5346000
5346000
339.6053
341.3668
346.2068
365.2938
5346000
5346000
5346000
5346000
5346000
338.7867
339.5781
340.7695
343.1322
351.8458
5346000
5346000
5346000
5346000
5346000
5346000
5346000
5346000
5346000
5346000
5346000
5346000
5346000
5346000
5346000
5346000
5346000
5346000
5346000
5346000
5346000
5346000
5346000
5346000
5346000
5346000
5346000
5346000
5346000
5346000
5346000
5346000
5346000
5346000
5346000
5346000
5346000
5346000
5346000
5346000
5346000
5346000
5346000
5346000
5346000
5346000
5346000
5346000
5346000
5346000
5346000
5346000
5346000
5346000
5346000
5346000
5346000
5346000
5346000
5346000
5346000
5346000
5346000
5346000
5346000
5346000
5346000
5346000
5346000
5346000
5346000
5346000
5346000
5346000
5346000
5346000
5346000
5346000
5346000
5346000
5346000
5346000
5346000
5346000
5346000
351.5969
5346000
5346000
5346000
5346000
5346000
343.3668
366.6277
5346000
5346000
5346000
5346000
5346000
341.0022
347.6632
375.6243
5346000
5346000
5346000
5346000
5346000
339.7182
342.1316
349.4522
375.8429
5346000
5346000
5346000
5346000
5346000
338.8569
339.9384
342.1144
347.7316
367.111
5346000
5346000
5346000
5346000
5346000
338.1605
338.8283
339.6637
340.9434
343.3956
351.9506
5346000
5346000
5346000
5346000
5346000
5346000
5346000
5346000
5346000
5346000
5346000
5346000
5346000
5346000
5346000
5346000
5346000
5346000
5346000
5346000
5346000
5346000
5346000
5346000
5346000
5346000
5346000
5346000
5346000
5346000
5346000
5346000
5346000
5346000
5346000
5346000
5346000
5346000
5346000
5346000
5346000
5346000
5346000
5346000
5346000
5346000
5346000
5346000
5346000
5346000
5346000
5346000
5346000
5346000
5346000
5346000
5346000
5346000
5346000
5346000
5346000
5346000
5346000
5346000
5346000
5346000
5346000
5346000
5346000
340.5672
5346000
5346000
5346000
5346000
5346000
5346000
5346000
5346000
5346000
5346000
5346000
5346000
5346000
5346000
5346000
5346000
5346000
5346000
5346000
5346000
351.1051
5346000
5346000
5346000
5346000
5346000
343.3668
366.6277
5346000
5346000
5346000
5346000
5346000
341.1089
348.4553
378.3295
5346000
5346000
5346000
5346000
5346000
339.8037
342.7245
351.9314
383.0205
5346000
5346000
5346000
5346000
5346000
338.9156
340.2629
343.3709
352.0043
378.9479
5346000
5346000
5346000
5346000
5346000
338.2066
339.0116
340.2314
342.6899
348.5939
367.4506
5346000
5346000
5346000
5346000
5346000
337.5882
338.1795
338.8584
339.7165
341.0216
343.4013
351.5922
5346000
5346000
5346000
5346000
5346000
5346000
5346000
5346000
5346000
5346000
5346000
5346000
5346000
5346000
5346000
5346000
5346000
5346000
5346000
5346000
5346000
5346000
5346000
5346000
5346000
5346000
5346000
5346000
5346000
5346000
5346000
5346000
5346000
5346000
5346000
5346000
5346000
5346000
5346000
5346000
5346000
5346000
5346000
5346000
5346000
5346000
5346000
5346000
5346000
5346000
5346000
5346000
5346000
5346000
5346000
5346000
5346000
340.6135
5346000
5346000
5346000
5346000
5346000
5346000
5346000
5346000
5346000
5346000
5346000
5346000
5346000
5346000
5346000
339.8076
340.112
5346000
5346000
5346000
5346000
5346000
5346000
5346000
5346000
5346000
5346000
5346000
5346000
5346000
5346000
5346000
5346000
5346000
5346000
5346000
5346000
350.0524
5346000
5346000
5346000
5346000
5346000
343.1121
365.0524
5346000
5346000
5346000
5346000
5346000
341.1089
348.4553
378.3295
5346000
5346000
5346000
5346000
5346000
339.85
343.0494
353.2745
386.6823
5346000
5346000
5346000
5346000
5346000
338.9588
340.5122
344.3593
355.3218
387.1885
5346000
5346000
5346000
5346000
5346000
338.2436
339.1713
340.7533
344.3463
353.4776
379.5441
5346000
5346000
5346000
5346000
5346000
337.6238
338.2924
339.1369
340.4397
342.9915
348.6754
366.313
5346000
5346000
5346000
5346000
5346000
337.059
337.599
338.1892
338.8674
339.7217
340.9818
343.1374
350.7082
5346000
5346000
5346000
5346000
5346000
5346000
5346000
5346000
5346000
5346000
5346000
5346000
5346000
5346000
5346000
5346000
5346000
5346000
5346000
5346000
5346000
5346000
5346000
5346000
5346000
5346000
5346000
5346000
5346000
5346000
5346000
5346000
5346000
5346000
5346000
5346000
5346000
5346000
5346000
5346000
5346000
5346000
5346000
5346000
340.71
5346000
5346000
5346000
5346000
5346000
5346000
5346000
5346000
5346000
5346000
5346000
5346000
5346000
5346000
5346000
339.8346
340.1666
5346000
5346000
5346000
5346000
5346000
5346000
5346000
5346000
5346000
5346000
5346000
5346000
5346000
5346000
5346000
339.0972
339.3933
339.6515
5346000
5346000
5346000
5346000
5346000
5346000
5346000
5346000
5346000
5346000
5346000
5346000
5346000
5346000
5346000
5346000
5346000
5346000
5346000
5346000
348.22
5346000
5346000
5346000
5346000
5346000
342.6323
361.7788
5346000
5346000
5346000
5346000
5346000
341.0022
347.6632
375.6243
5346000
5346000
5346000
5346000
5346000
339.85
343.0494
353.2745
386.6823
5346000
5346000
5346000
5346000
5346000
338.9818
340.6484
344.9056
357.1379
391.4526
5346000
5346000
5346000
5346000
5346000
338.27
339.2908
341.1604
345.6654
357.3076
388.0057
5346000
5346000
5346000
5346000
5346000
337.6516
338.3873
339.3851
341.1152
344.8781
353.6442
377.6051
5346000
5346000
5346000
5346000
5346000
337.0893
337.6825
338.3541
339.21
340.519
342.9492
347.9427
363.5785
5346000
5346000
5346000
5346000
5346000
336.5683
337.0667
337.6016
338.183
338.8476
339.6682
340.8151
342.6125
349.1098
5346000
5346000
5346000
5346000
5346000
5346000
5346000
5346000
5346000
5346000
5346000
5346000
5346000
5346000
5346000
5346000
5346000
5346000
5346000
5346000
5346000
5346000
5346000
5346000
5346000
5346000
5346000
5346000
5346000
5346000
340.8773
5346000
5346000
5346000
5346000
5346000
5346000
5346000
5346000
5346000
5346000
5346000
5346000
5346000
5346000
5346000
339.8877
340.2861
5346000
5346000
5346000
5346000
5346000
5346000
5346000
5346000
5346000
5346000
5346000
5346000
5346000
5346000
5346000
339.1187
339.4199
339.7128
5346000
5346000
5346000
5346000
5346000
5346000
5346000
5346000
5346000
5346000
5346000
5346000
5346000
5346000
5346000
338.4463
338.7349
338.9766
339.1817
5346000
5346000
5346000
5346000
5346000
5346000
5346000
5346000
5346000
5346000
5346000
5346000
5346000
5346000
5346000
5346000
5346000
5346000
5346000
5346000
344.9716
5346000
5346000
5346000
5346000
5346000
341.9827
356.4606
5346000
5346000
5346000
5346000
5346000
340.8061
346.1843
370.1895
5346000
5346000
5346000
5346000
5346000
339.8037
342.7245
351.9314
383.0205
5346000
5346000
5346000
5346000
5346000
338.9818
340.6484
344.9056
357.1379
391.4526
5346000
5346000
5346000
5346000
5346000
338.2838
339.3551
341.3848
346.3999
359.4181
392.3979
5346000
5346000
5346000
5346000
5346000
337.671
338.4561
339.5739
341.649
346.3924
357.5506
385.4062
5346000
5346000
5346000
5346000
5346000
337.1126
337.7509
338.4959
339.5208
341.2728
344.843
352.4487
373.0575
5346000
5346000
5346000
5346000
5346000
336.5954
337.1363
337.7201
338.3777
339.21
340.437
342.5414
346.4495
358.9247
5346000
5346000
5346000
5346000
5346000
336.1109
336.5749
337.067
337.5908
338.1559
338.7931
339.5499
340.5232
341.842
346.2671
5346000
5346000
5346000
5346000
5346000
5346000
5346000
5346000
5346000
5346000
5346000
5346000
5346000
5346000
5346000
341.2216
5346000
5346000
5346000
5346000
5346000
5346000
5346000
5346000
5346000
5346000
5346000
5346000
5346000
5346000
5346000
339.9666
340.5107
5346000
5346000
5346000
5346000
5346000
5346000
5346000
5346000
5346000
5346000
5346000
5346000
5346000
5346000
5346000
339.16
339.4716
339.8491
5346000
5346000
5346000
5346000
5346000
5346000
5346000
5346000
5346000
5346000
5346000
5346000
5346000
5346000
5346000
338.4652
338.7537
339.0029
339.2473
5346000
5346000
5346000
5346000
5346000
5346000
5346000
5346000
5346000
5346000
5346000
5346000
5346000
5346000
5346000
337.8551
338.1316
338.3711
338.5549
338.7107
5346000
5346000
5346000
5346000
5346000
5346000
5346000
5346000
5346000
5346000
5346000
5346000
5346000
5346000
5346000
5346000
5346000
5346000
5346000
5346000
5346000
5346000
5346000
5346000
5346000
341.2361
348.2777
5346000
5346000
5346000
5346000
5346000
340.55
344.211
361.8672
5346000
5346000
5346000
5346000
5346000
339.7182
342.1316
349.4522
375.8429
5346000
5346000
5346000
5346000
5346000
338.9588
340.5122
344.3593
355.3218
387.1885
5346000
5346000
5346000
5346000
5346000
338.2838
339.3551
341.3848
346.3999
359.4181
392.3979
5346000
5346000
5346000
5346000
5346000
337.681
338.4924
339.6763
341.9455
347.2398
359.7067
389.4239
5346000
5346000
5346000
5346000
5346000
337.1287
337.7992
338.6005
339.7605
341.8743
346.3691
355.9753
379.4178
5346000
5346000
5346000
5346000
5346000
336.6162
337.1925
337.8192
338.5483
339.5439
341.1717
344.2099
350.0183
365.711
5346000
5346000
5346000
5346000
5346000
336.1357
336.6368
337.1644
337.7264
338.3515
339.1208
340.1797
341.793
344.3212
351.605
5346000
5346000
5346000
5346000
5346000
335.6836
336.117
336.5746
337.0553
337.5629
338.1042
338.699
339.3621
340.1009
340.7931
343.0321
5346000
5346000
5346000
5346000
5346000
5346000
5346000
5346000
5346000
5346000
5346000
5346000
5346000
5346000
5346000
340.0458
340.9883
5346000
5346000
5346000
5346000
5346000
5346000
5346000
5346000
5346000
5346000
5346000
5346000
5346000
5346000
5346000
339.2175
339.5449
340.1071
5346000
5346000
5346000
5346000
5346000
5346000
5346000
5346000
5346000
5346000
5346000
5346000
5346000
5346000
5346000
338.5012
338.7878
339.054
339.3933
5346000
5346000
5346000
5346000
5346000
5346000
5346000
5346000
5346000
5346000
5346000
5346000
5346000
5346000
5346000
337.8725
338.1473
338.3878
338.581
338.7783
5346000
5346000
5346000
5346000
5346000
5346000
5346000
5346000
5346000
5346000
5346000
5346000
5346000
5346000
5346000
337.3065
337.5809
337.8156
338.0036
338.1363
338.435
5346000
5346000
5346000
5346000
5346000
5346000
5346000
5346000
5346000
5346000
5346000
5346000
5346000
5346000
5346000
5346000
5346000
5346000
5346000
5346000
5346000
5346000
5346000
5346000
5346000
5346000
5346000
5346000
5346000
5346000
340.2649
341.9908
350.1613
5346000
5346000
5346000
5346000
5346000
339.6053
341.3668
346.2068
365.2938
5346000
5346000
5346000
5346000
5346000
338.9156
340.2629
343.3709
352.0043
378.9479
5346000
5346000
5346000
5346000
5346000
338.27
339.2908
341.1604
345.6654
357.3076
388.0057
5346000
5346000
5346000
5346000
5346000
337.681
338.4924
339.6763
341.9455
347.2398
359.7067
389.4239
5346000
5346000
5346000
5346000
5346000
337.137
337.8242
338.6561
339.8917
342.2105
347.2249
357.9159
382.6362
5346000
5346000
5346000
5346000
5346000
336.6305
337.2316
337.8901
338.6757
339.8047
341.7631
345.5571
352.7883
370.0849
5346000
5346000
5346000
5346000
5346000
336.1547
336.6864
337.2444
337.8415
338.5256
339.4289
340.7943
343.0423
346.6417
355.0976
5346000
5346000
5346000
5346000
5346000
335.7066
336.1736
336.6607
337.1649
337.6933
338.2656
338.9322
339.7493
340.7566
341.7225
345.0387
5346000
5346000
5346000
5346000
5346000
335.2833
335.6895
336.1167
336.5633
337.0287
337.515
338.0238
338.5583
339.0861
339.4705
339.8556
342.3832
5346000
5346000
5346000
5346000
5346000
5346000
5346000
5346000
5346000
5346000
5346000
5346000
5346000
5346000
5346000
339.2461
339.6094
340.6161
5346000
5346000
5346000
5346000
5346000
5346000
5346000
5346000
5346000
5346000
5346000
5346000
5346000
5346000
5346000
338.5502
338.8261
339.1261
339.6635
5346000
5346000
5346000
5346000
5346000
5346000
5346000
5346000
5346000
5346000
5346000
5346000
5346000
5346000
5346000
337.9056
338.1748
338.4167
338.6323
338.9276
5346000
5346000
5346000
5346000
5346000
5346000
5346000
5346000
5346000
5346000
5346000
5346000
5346000
5346000
5346000
337.3228
337.5951
337.8288
338.0188
338.1625
338.5023
5346000
5346000
5346000
5346000
5346000
5346000
5346000
5346000
5346000
5346000
5346000
5346000
5346000
5346000
5346000
336.7984
337.0663
337.3055
337.4964
337.6403
337.8931
338.4004
5346000
5346000
5346000
5346000
5346000
5346000
5346000
5346000
5346000
5346000
5346000
5346000
5346000
5346000
5346000
5346000
5346000
5346000
5346000
5346000
5346000
5346000
5346000
5346000
5346000
5346000
5346000
5346000
5346000
5346000
5346000
5346000
5346000
5346000
5346000
339.4762
340.5321
342.6455
351.2746
5346000
5346000
5346000
5346000
5346000
338.8569
339.9384
342.1144
347.7316
367.111
5346000
5346000
5346000
5346000
5346000
338.2436
339.1713
340.7533
344.3463
353.4776
379.5441
5346000
5346000
5346000
5346000
5346000
337.671
338.4561
339.5739
341.649
346.3924
357.5506
385.4062
5346000
5346000
5346000
5346000
5346000
337.137
337.8242
338.6561
339.8917
342.2105
347.2249
357.9159
382.6362
5346000
5346000
5346000
5346000
5346000
336.6378
337.2516
337.9272
338.7441
339.9487
342.0952
346.313
354.3038
372.2488
5346000
5346000
5346000
5346000
5346000
336.1678
336.7207
337.3008
337.9249
338.6577
339.6737
341.2956
344.0589
348.4386
357.2996
5346000
5346000
5346000
5346000
5346000
335.7242
336.2189
336.7309
337.2561
337.8056
338.4137
339.164
340.1598
341.4765
342.7188
346.6368
5346000
5346000
5346000
5346000
5346000
335.3047
335.742
336.1954
336.6597
337.1317
337.6138
338.1118
338.6369
339.1496
339.4692
340.0929
343.9764
5346000
5346000
5346000
5346000
5346000
334.9076
335.2889
335.6892
336.1061
336.5384
336.9846
337.4437
337.9074
338.3488
338.6314
338.7491
339.5587
341.717
5346000
5346000
5346000
5346000
5346000
5346000
5346000
5346000
5346000
5346000
5346000
5346000
5346000
5346000
5346000
338.5653
338.8096
339.1951
340.1526
5346000
5346000
5346000
5346000
5346000
5346000
5346000
5346000
5346000
5346000
5346000
5346000
5346000
5346000
5346000
337.9505
338.202
338.4448
338.7061
339.195
5346000
5346000
5346000
5346000
5346000
5346000
5346000
5346000
5346000
5346000
5346000
5346000
5346000
5346000
5346000
337.354
337.6198
337.85
338.0448
338.2144
338.6501
5346000
5346000
5346000
5346000
5346000
5346000
5346000
5346000
5346000
5346000
5346000
5346000
5346000
5346000
5346000
336.8138
337.0796
337.3172
337.5078
337.6547
337.9191
338.4676
5346000
5346000
5346000
5346000
5346000
5346000
5346000
5346000
5346000
5346000
5346000
5346000
5346000
5346000
5346000
336.3235
336.5865
336.825
337.0272
337.1815
337.4288
337.8624
338.3665
5346000
5346000
5346000
5346000
5346000
5346000
5346000
5346000
5346000
5346000
5346000
5346000
5346000
5346000
5346000
5346000
5346000
5346000
5346000
5346000
5346000
5346000
5346000
5346000
5346000
5346000
5346000
5346000
5346000
5346000
5346000
5346000
5346000
5346000
5346000
5346000
5346000
5346000
5346000
5346000
338.7867
339.5781
340.7695
343.1322
351.8458
5346000
5346000
5346000
5346000
5346000
338.2066
339.0116
340.2314
342.6899
348.5939
367.4506
5346000
5346000
5346000
5346000
5346000
337.6516
338.3873
339.3851
341.1152
344.8781
353.6442
377.6051
5346000
5346000
5346000
5346000
5346000
337.1287
337.7992
338.6005
339.7605
341.8743
346.3691
355.9753
379.4178
5346000
5346000
5346000
5346000
5346000
336.6378
337.2516
337.9272
338.7441
339.9487
342.0952
346.313
354.3038
372.2488
5346000
5346000
5346000
5346000
5346000
336.1745
336.7382
337.3298
337.9687
338.7292
339.8101
341.5792
344.6308
349.4184
358.3775
5346000
5346000
5346000
5346000
5346000
335.7363
336.2502
336.78
337.321
337.8881
338.5289
339.3552
340.5096
342.0874
343.5215
347.7187
5346000
5346000
5346000
5346000
5346000
335.3211
335.784
336.2594
336.7392
337.2184
337.7018
338.2033
338.7501
339.3127
339.6702
340.4561
345.3054
5346000
5346000
5346000
5346000
5346000
334.9276
335.3379
335.7623
336.1942
336.6284
337.0589
337.4809
337.8804
338.221
338.3603
338.5948
339.7483
342.978
5346000
5346000
5346000
5346000
5346000
334.5544
334.913
335.2888
335.6794
336.083
336.4978
336.92
337.3419
337.7331
337.9825
338.0285
338.5108
339.2257
341.0273
5346000
5346000
5346000
5346000
5346000
5346000
5346000
5346000
5346000
5346000
5346000
5346000
5346000
5346000
5346000
337.9633
338.1664
338.4223
338.7865
339.6405
5346000
5346000
5346000
5346000
5346000
5346000
5346000
5346000
5346000
5346000
5346000
5346000
5346000
5346000
5346000
337.3963
337.6434
337.8649
338.0702
338.292
338.9102
5346000
5346000
5346000
5346000
5346000
5346000
5346000
5346000
5346000
5346000
5346000
5346000
5346000
5346000
5346000
336.8434
337.1028
337.3356
337.5253
337.6799
337.9713
338.6151
5346000
5346000
5346000
5346000
5346000
5346000
5346000
5346000
5346000
5346000
5346000
5346000
5346000
5346000
5346000
336.3383
336.5992
336.8358
337.037
337.1918
337.443
337.8884
338.4336
5346000
5346000
5346000
5346000
5346000
5346000
5346000
5346000
5346000
5346000
5346000
5346000
5346000
5346000
5346000
335.8798
336.1354
336.3735
336.5807
336.7528
336.9971
337.402
337.8324
338.3319
5346000
5346000
5346000
5346000
5346000
5346000
5346000
5346000
5346000
5346000
5346000
5346000
5346000
5346000
5346000
5346000
5346000
5346000
5346000
5346000
5346000
5346000
5346000
5346000
5346000
5346000
5346000
5346000
5346000
5346000
5346000
5346000
5346000
5346000
5346000
5346000
5346000
5346000
5346000
5346000
5346000
5346000
5346000
5346000
5346000
338.1605
338.8283
339.6637
340.9434
343.3956
351.9506
5346000
5346000
5346000
5346000
5346000
337.6238
338.2924
339.1369
340.4397
342.9915
348.6754
366.313
5346000
5346000
5346000
5346000
5346000
337.1126
337.7509
338.4959
339.5208
341.2728
344.843
352.4487
373.0575
5346000
5346000
5346000
5346000
5346000
336.6305
337.2316
337.8901
338.6757
339.8047
341.7631
345.5571
352.7883
370.0849
5346000
5346000
5346000
5346000
5346000
336.1745
336.7382
337.3298
337.9687
338.7292
339.8101
341.5792
344.6308
349.4184
358.3775
5346000
5346000
5346000
5346000
5346000
335.7425
336.2661
336.8052
337.3546
337.9319
338.5924
339.464
340.7113
342.4365
343.9646
348.2624
5346000
5346000
5346000
5346000
5346000
335.3325
335.813
336.3041
336.7952
337.2807
337.7685
338.2806
338.8597
339.4849
339.8903
340.7777
346.2236
5346000
5346000
5346000
5346000
5346000
334.943
335.3771
335.8217
336.2666
336.7033
337.1235
337.5225
337.8892
338.1954
338.3006
338.5945
340.0366
344.0637
5346000
5346000
5346000
5346000
5346000
334.5731
334.9588
335.3571
335.7614
336.1653
336.5618
336.9403
337.2844
337.5523
337.6468
337.7724
338.3825
339.3892
342.0177
5346000
5346000
5346000
5346000
5346000
334.2219
334.5595
334.9129
335.2797
335.6579
336.0454
336.4386
336.8283
337.1893
337.4199
337.4607
337.8252
338.249
338.8645
340.3336
5346000
5346000
5346000
5346000
5346000
5346000
5346000
5346000
5346000
5346000
5346000
5346000
5346000
5346000
5346000
337.4102
337.6071
337.82
338.0593
338.3863
339.3268
5346000
5346000
5346000
5346000
5346000
5346000
5346000
5346000
5346000
5346000
5346000
5346000
5346000
5346000
5346000
336.8839
337.1253
337.3469
337.536
337.7079
338.0508
338.8742
5346000
5346000
5346000
5346000
5346000
5346000
5346000
5346000
5346000
5346000
5346000
5346000
5346000
5346000
5346000
336.3665
336.6214
336.853
337.0515
337.2079
337.4683
337.9406
338.5807
5346000
5346000
5346000
5346000
5346000
5346000
5346000
5346000
5346000
5346000
5346000
5346000
5346000
5346000
5346000
335.8939
336.1476
336.3839
336.5897
336.7615
337.0071
337.4161
337.8584
338.3988
5346000
5346000
5346000
5346000
5346000
5346000
5346000
5346000
5346000
5346000
5346000
5346000
5346000
5346000
5346000
335.4633
335.7116
335.9461
336.1577
336.3401
336.5911
336.9735
337.3758
337.8019
338.2987
5346000
5346000
5346000
5346000
5346000
5346000
5346000
5346000
5346000
5346000
5346000
5346000
5346000
5346000
5346000
5346000
5346000
5346000
5346000
5346000
5346000
5346000
5346000
5346000
5346000
5346000
5346000
5346000
5346000
5346000
5346000
5346000
5346000
5346000
5346000
5346000
5346000
5346000
5346000
5346000
5346000
5346000
5346000
5346000
5346000
5346000
5346000
5346000
5346000
5346000
337.5882
338.1795
338.8584
339.7165
341.0216
343.4013
351.5922
5346000
5346000
5346000
5346000
5346000
337.0893
337.6825
338.3541
339.21
340.519
342.9492
347.9427
363.5785
5346000
5346000
5346000
5346000
5346000
336.6162
337.1925
337.8192
338.5483
339.5439
341.1717
344.2099
350.0183
365.711
5346000
5346000
5346000
5346000
5346000
336.1678
336.7207
337.3008
337.9249
338.6577
339.6737
341.2956
344.0589
348.4386
357.2996
5346000
5346000
5346000
5346000
5346000
335.7425
336.2661
336.8052
337.3546
337.9319
338.5924
339.464
340.7113
342.4365
343.9646
348.2624
5346000
5346000
5346000
5346000
5346000
335.3383
335.8277
336.3269
336.824
337.3133
337.8046
338.3251
338.9263
339.5918
340.0257
340.9614
346.6892
5346000
5346000
5346000
5346000
5346000
334.9536
335.4042
335.8631
336.3174
336.7565
337.1713
337.5588
337.9132
338.2142
338.3144
338.6427
340.2943
344.8277
5346000
5346000
5346000
5346000
5346000
334.5875
334.9956
335.4126
335.8286
336.2334
336.6166
336.9646
337.2604
337.4672
337.5088
337.6606
338.3709
339.6206
342.8872
5346000
5346000
5346000
5346000
5346000
334.2394
334.6025
334.9769
335.3564
335.7347
336.104
336.4542
336.7663
337.005
337.0871
337.1921
337.6147
338.1557
339.0137
341.0969
5346000
5346000
5346000
5346000
5346000
333.9086
334.2267
334.5594
334.9044
335.2596
335.6229
335.9906
336.3548
336.6912
336.9126
336.9594
337.2823
337.6049
337.9696
338.4971
339.9374
5346000
5346000
5346000
5346000
5346000
5346000
5346000
5346000
5346000
5346000
5346000
5346000
5346000
5346000
5346000
336.8998
337.0936
337.3004
337.501
337.7165
338.152
339.2874
5346000
5346000
5346000
5346000
5346000
5346000
5346000
5346000
5346000
5346000
5346000
5346000
5346000
5346000
5346000
336.4055
336.6436
336.8638
337.0582
337.2204
337.499
338.0201
338.8388
5346000
5346000
5346000
5346000
5346000
5346000
5346000
5346000
5346000
5346000
5346000
5346000
5346000
5346000
5346000
335.9209
336.169
336.4004
336.6032
336.7745
337.0233
337.4414
337.9105
338.5456
5346000
5346000
5346000
5346000
5346000
5346000
5346000
5346000
5346000
5346000
5346000
5346000
5346000
5346000
5346000
335.4768
335.7232
335.9561
336.1663
336.3481
336.5994
336.9834
337.3898
337.8278
338.3655
5346000
5346000
5346000
5346000
5346000
5346000
5346000
5346000
5346000
5346000
5346000
5346000
5346000
5346000
5346000
335.0721
335.3119
335.5422
335.7541
335.9453
336.1972
336.5701
336.9504
337.349
337.7727
338.2613
5346000
5346000
5346000
5346000
5346000
5346000
5346000
5346000
5346000
5346000
5346000
5346000
5346000
5346000
5346000
5346000
5346000
5346000
5346000
5346000
5346000
5346000
5346000
5346000
5346000
5346000
5346000
5346000
5346000
5346000
5346000
5346000
5346000
5346000
5346000
5346000
5346000
5346000
5346000
5346000
5346000
5346000
5346000
5346000
5346000
5346000
5346000
5346000
5346000
5346000
5346000
5346000
5346000
5346000
5346000
337.059
337.599
338.1892
338.8674
339.7217
340.9818
343.1374
350.7082
5346000
5346000
5346000
5346000
5346000
336.5954
337.1363
337.7201
338.3777
339.21
340.437
342.5414
346.4495
358.9247
5346000
5346000
5346000
5346000
5346000
336.1547
336.6864
337.2444
337.8415
338.5256
339.4289
340.7943
343.0423
346.6417
355.0976
5346000
5346000
5346000
5346000
5346000
335.7363
336.2502
336.78
337.321
337.8881
338.5289
339.3552
340.5096
342.0874
343.5215
347.7187
5346000
5346000
5346000
5346000
5346000
335.3383
335.8277
336.3269
336.824
337.3133
337.8046
338.3251
338.9263
339.5918
340.0257
340.9614
346.6892
5346000
5346000
5346000
5346000
5346000
334.9591
335.418
335.8842
336.3435
336.7841
337.1968
337.58
337.9313
338.2347
338.3358
338.6807
340.4425
345.2186
5346000
5346000
5346000
5346000
5346000
334.5975
335.021
335.4513
335.8757
336.2817
336.6567
336.9864
337.256
337.4349
337.455
337.6176
338.4012
339.8264
343.5083
5346000
5346000
5346000
5346000
5346000
334.253
334.6369
335.029
335.4193
335.7982
336.154
336.4731
336.7344
336.9075
336.933
337.0527
337.5122
338.1424
339.2022
341.7737
5346000
5346000
5346000
5346000
5346000
333.925
334.267
334.6194
334.9764
335.3317
335.6781
336.0054
336.2967
336.5186
336.6039
336.706
337.0622
337.4439
337.913
338.6375
340.5954
5346000
5346000
5346000
5346000
5346000
333.6131
333.913
334.2266
334.5514
334.8855
335.2269
335.572
335.9133
336.2297
336.4424
336.5011
336.8004
337.0909
337.3716
337.6905
338.2766
339.8889
5346000
5346000
5346000
5346000
5346000
5346000
5346000
5346000
5346000
5346000
5346000
5346000
5346000
5346000
5346000
336.4233
336.6177
336.8218
337.0198
337.2042
337.519
338.1219
339.2486
5346000
5346000
5346000
5346000
5346000
5346000
5346000
5346000
5346000
5346000
5346000
5346000
5346000
5346000
5346000
335.9586
336.1912
336.4117
336.6092
336.7822
337.0382
337.4723
337.9902
338.8025
5346000
5346000
5346000
5346000
5346000
5346000
5346000
5346000
5346000
5346000
5346000
5346000
5346000
5346000
5346000
335.5028
335.744
335.9723
336.1793