/*--------------------------------*- C++ -*----------------------------------*\
| =========                 |                                                 |
| \\      /  F ield         | OpenFOAM: The Open Source CFD Toolbox           |
|  \\    /   O peration     | Version:  2306                                  |
|   \\  /    A nd           | Website:  www.openfoam.com                      |
|    \\/     M anipulation  |                                                 |
\*---------------------------------------------------------------------------*/
FoamFile
{
    version     2.0;
    format      ascii;
    arch        "LSB;label=32;scalar=64";
    class       volScalarField;
    location    "1.2";
    object      T;
}
// * * * * * * * * * * * * * * * * * * * * * * * * * * * * * * * * * * * * * //

dimensions      [0 0 0 1 0 0 0];

internalField   nonuniform List<scalar> 
52000
(
1203.809
1203.806
1205.701
1203.742
1203.802
1205.7
1203.739
1208.216
1205.68
1203.61
1203.796
1205.698
1203.733
1208.215
1205.678
1203.605
1210.816
1208.215
1205.639
1203.417
1203.789
1205.696
1203.725
1208.214
1205.676
1203.595
1210.815
1208.214
1205.637
1203.408
1213.313
1210.823
1208.216
1205.583
1203.175
1203.781
1205.693
1203.715
1208.212
1205.673
1203.582
1210.813
1208.212
1205.634
1203.391
1213.312
1210.822
1208.215
1205.581
1203.157
1215.653
1213.322
1210.839
1208.222
1205.519
1202.974
1203.774
1205.69
1203.704
1208.209
1205.669
1203.565
1210.811
1208.21
1205.629
1203.367
1213.311
1210.82
1208.212
1205.575
1203.125
1215.652
1213.321
1210.837
1208.219
1205.515
1202.945
1217.828
1215.662
1213.342
1210.866
1208.236
1205.473
1202.844
1203.768
1205.687
1203.694
1208.206
1205.665
1203.548
1210.809
1208.206
1205.624
1203.34
1213.309
1210.817
1208.207
1205.568
1203.081
1215.651
1213.319
1210.834
1208.215
1205.507
1202.887
1217.827
1215.661
1213.341
1210.863
1208.233
1205.466
1202.806
1219.847
1217.837
1215.682
1213.375
1210.908
1208.259
1205.446
1202.726
1203.763
1205.684
1203.685
1208.204
1205.661
1203.529
1210.806
1208.203
1205.617
1203.31
1213.307
1210.814
1208.202
1205.56
1203.034
1215.649
1213.317
1210.829
1208.207
1205.496
1202.802
1217.826
1215.66
1213.338
1210.858
1208.227
1205.452
1202.73
1219.847
1217.836
1215.681
1213.372
1210.905
1208.255
1205.437
1202.68
1221.725
1219.855
1217.855
1215.714
1213.423
1210.953
1208.278
1205.427
1202.626
1203.761
1205.683
1203.678
1208.202
1205.658
1203.513
1210.804
1208.199
1205.611
1203.275
1213.304
1210.81
1208.196
1205.55
1203.001
1215.647
1213.313
1210.824
1208.198
1205.485
1202.693
1217.825
1215.657
1213.333
1210.851
1208.216
1205.434
1202.612
1219.846
1217.834
1215.678
1213.368
1210.898
1208.248
1205.419
1202.587
1221.724
1219.855
1217.854
1215.712
1213.421
1210.951
1208.274
1205.415
1202.575
1223.473
1221.732
1219.872
1217.885
1215.762
1213.474
1210.988
1208.302
1205.417
1202.55
1203.761
1205.682
1203.674
1208.2
1205.655
1203.501
1210.802
1208.196
1205.605
1203.242
1213.302
1210.806
1208.19
1205.539
1202.925
1215.645
1213.31
1210.817
1208.187
1205.476
1188.806
1217.823
1215.654
1213.328
1210.841
1208.201
1205.413
1202.448
1219.844
1217.832
1215.674
1213.36
1210.888
1208.238
1205.392
1202.442
1221.723
1219.853
1217.851
1215.708
1213.415
1210.946
1208.266
1205.392
1202.469
1223.473
1221.731
1219.871
1217.883
1215.759
1213.472
1210.986
1208.298
1205.404
1202.495
1225.106
1223.48
1221.747
1219.899
1217.929
1215.81
1213.511
1211.027
1208.333
1205.419
1202.501
1203.763
1205.682
1203.674
1208.199
1205.654
1203.494
1210.8
1208.194
1205.6
1203.216
1213.3
1210.803
1208.185
1205.527
1202.85
1215.642
1213.307
1210.811
1208.176
1205.453
1175.877
1217.821
1215.651
1213.322
1210.828
1208.179
1203.828
1175.648
1219.843
1217.829
1215.669
1213.351
1210.871
1208.228
1205.358
1202.235
1221.722
1219.851
1217.848
1215.701
1213.404
1210.938
1208.255
1205.357
1202.303
1223.472
1221.73
1219.869
1217.879
1215.754
1213.468
1210.981
1208.289
1205.376
1202.381
1225.105
1223.479
1221.746
1219.897
1217.927
1215.808
1213.51
1211.025
1208.328
1205.405
1202.444
1226.633
1225.112
1223.494
1221.771
1219.939
1217.973
1215.846
1213.552
1211.07
1208.37
1205.435
1202.48
1203.768
1205.683
1203.678
1208.199
1205.654
1203.494
1210.799
1208.193
1205.597
1203.202
1213.298
1210.801
1208.181
1205.517
1202.793
1215.641
1213.304
1210.806
1208.166
1205.426
1168.696
1217.819
1215.648
1213.316
1210.817
1208.157
1200.772
1144.205
1219.841
1217.826
1215.663
1213.339
1210.843
1207.615
1200.722
1168.265
1221.72
1219.849
1217.843
1215.692
1213.388
1210.931
1208.241
1205.309
1202.069
1223.471
1221.728
1219.865
1217.873
1215.744
1213.462
1210.975
1208.275
1205.334
1202.204
1225.105
1223.478
1221.744
1219.894
1217.922
1215.805
1213.507
1211.02
1208.318
1205.375
1202.327
1226.632
1225.111
1223.493
1221.77
1219.937
1217.972
1215.845
1213.551
1211.068
1208.365
1205.421
1202.423
1228.063
1226.638
1225.124
1223.516
1221.807
1219.979
1218.006
1215.885
1213.597
1211.117
1208.414
1205.465
1202.487
1203.774
1205.684
1203.685
1208.2
1205.655
1203.501
1210.799
1208.193
1205.597
1203.202
1213.297
1210.8
1208.179
1205.512
1202.763
1215.639
1213.302
1210.802
1208.159
1205.404
1164.606
1217.817
1215.645
1213.311
1210.808
1208.137
1198.128
1124.58
1219.839
1217.824
1215.658
1213.328
1210.82
1206.445
1191.706
1124.255
1221.719
1219.846
1217.838
1215.681
1213.359
1210.634
1206.499
1198.022
1163.933
1223.469
1221.726
1219.861
1217.865
1215.729
1213.455
1210.968
1208.257
1205.275
1201.954
1225.104
1223.476
1221.741
1219.888
1217.913
1215.8
1213.502
1211.014
1208.302
1205.329
1202.145
1226.632
1225.11
1223.491
1221.767
1219.932
1217.969
1215.842
1213.549
1211.064
1208.355
1205.391
1202.306
1228.063
1226.638
1225.123
1223.514
1221.805
1219.978
1218.005
1215.884
1213.596
1211.115
1208.409
1205.452
1202.431
1229.405
1228.068
1226.65
1225.144
1223.548
1221.844
1220.009
1218.042
1215.927
1213.644
1211.168
1208.465
1205.509
1202.52
1203.781
1205.687
1203.694
1208.202
1205.658
1203.513
1210.8
1208.194
1205.6
1203.216
1213.297
1210.8
1208.179
1205.512
1202.763
1215.638
1213.3
1210.8
1208.155
1205.392
1162.704
1217.816
1215.643
1213.307
1210.801
1208.123
1196.184
1112.803
1219.837
1217.821
1215.653
1213.319
1210.804
1205.399
1183.8
1094.769
1221.717
1219.844
1217.833
1215.671
1213.339
1210.106
1203.072
1183.675
1111.931
1223.468
1221.723
1219.857
1217.855
1215.703
1213.28
1210.199
1205.493
1195.995
1161.707
1225.102
1223.474
1221.737
1219.881
1217.899
1215.794
1213.498
1211.006
1208.28
1205.264
1201.891
1226.631
1225.109
1223.488
1221.762
1219.925
1217.964
1215.839
1213.545
1211.057
1208.338
1205.344
1202.127
1228.062
1226.637
1225.122
1223.511
1221.801
1219.975
1218.003
1215.882
1213.594
1211.111
1208.4
1205.423
1202.317
1229.405
1228.068
1226.649
1225.143
1223.547
1221.842
1220.008
1218.041
1215.926
1213.643
1211.167
1208.461
1205.497
1202.465
1230.666
1229.41
1228.079
1226.668
1225.174
1223.581
1221.871
1220.041
1218.08
1215.971
1213.694
1211.223
1208.522
1205.565
1202.579
1203.789
1205.69
1203.704
1208.204
1205.661
1203.529
1210.802
1208.196
1205.605
1203.242
1213.298
1210.801
1208.181
1205.517
1202.793
1215.638
1213.3
1210.8
1208.155
1205.392
1162.704
1217.815
1215.642
1213.306
1210.798
1208.116
1195.154
1107.216
1219.836
1217.819
1215.65
1213.313
1210.792
1204.6
1177.938
1076.267
1221.716
1219.841
1217.829
1215.663
1213.323
1209.648
1199.951
1170.876
1075.529
1223.466
1221.721
1219.852
1217.846
1215.683
1212.995
1208.715
1199.983
1177.58
1105.483
1225.101
1223.472
1221.733
1219.872
1217.875
1215.671
1213.096
1209.817
1204.728
1194.856
1161.264
1226.629
1225.107
1223.485
1221.755
1219.912
1217.959
1215.835
1213.54
1211.048
1208.314
1205.278
1201.879
1228.061
1226.635
1225.119
1223.507
1221.795
1219.971
1218
1215.88
1213.59
1211.105
1208.384
1205.38
1202.145
1229.404
1228.067
1226.647
1225.14
1223.543
1221.84
1220.006
1218.04
1215.925
1213.642
1211.164
1208.453
1205.472
1202.354
1230.665
1229.41
1228.078
1226.667
1225.172
1223.58
1221.87
1220.04
1218.079
1215.97
1213.694
1211.223
1208.52
1205.555
1202.523
1231.85
1230.67
1229.42
1228.096
1226.695
1225.204
1223.605
1221.9
1220.075
1218.12
1216.017
1213.746
1211.281
1208.584
1205.633
1203.548
1203.796
1205.693
1203.715
1208.206
1205.665
1203.548
1210.804
1208.199
1205.611
1203.275
1213.3
1210.803
1208.185
1205.527
1202.85
1215.639
1213.302
1210.802
1208.159
1205.404
1164.606
1217.815
1215.642
1213.306
1210.798
1208.116
1195.154
1107.216
1219.836
1217.819
1215.649
1213.31
1210.786
1204.167
1174.821
1067.271
1221.715
1219.84
1217.826
1215.658
1213.314
1209.303
1197.542
1161.269
1051.988
1223.465
1221.719
1219.849
1217.839
1215.67
1212.761
1207.385
1194.882
1160.936
1065.214
1225.1
1223.47
1221.729
1219.864
1217.858
1215.485
1212.342
1207.477
1197.589
1174.114
1104.253
1226.628
1225.105
1223.481
1221.747
1219.891
1217.86
1215.581
1212.944
1209.55
1204.334
1194.737
1162.579
1228.06
1226.634
1225.116
1223.501
1221.783
1219.967
1217.997
1215.877
1213.586
1211.095
1208.361
1205.32
1201.913
1229.404
1228.066
1226.645
1225.136
1223.537
1221.836
1220.004
1218.038
1215.923
1213.639
1211.159
1208.44
1205.435
1202.191
1230.665
1229.409
1228.077
1226.664
1225.169
1223.578
1221.868
1220.039
1218.078
1215.97
1213.693
1211.221
1208.515
1205.535
1202.412
1231.85
1230.669
1229.419
1228.095
1226.694
1225.203
1223.605
1221.899
1220.075
1218.119
1216.017
1213.747
1211.281
1208.583
1205.623
1203.473
1232.963
1231.854
1230.679
1229.435
1228.121
1226.722
1225.226
1223.632
1221.93
1220.111
1218.161
1216.064
1213.8
1211.34
1208.649
1206.522
1205.411
1203.802
1205.696
1203.725
1208.209
1205.669
1203.565
1210.806
1208.203
1205.617
1203.31
1213.302
1210.806
1208.19
1205.539
1202.925
1215.641
1213.304
1210.806
1208.166
1205.426
1168.696
1217.816
1215.643
1213.307
1210.801
1208.123
1196.184
1112.803
1219.836
1217.819
1215.649
1213.31
1210.786
1204.167
1174.821
1067.271
1221.714
1219.839
1217.825
1215.655
1213.309
1209.117
1196.226
1156.125
1040.34
1223.464
1221.718
1219.846
1217.834
1215.661
1212.591
1206.367
1190.898
1148.308
1038.738
1225.098
1223.468
1221.726
1219.858
1217.846
1215.34
1211.69
1205.339
1190.894
1155.225
1063.225
1226.627
1225.103
1223.477
1221.74
1219.875
1217.717
1215.118
1211.796
1206.571
1196.291
1173.701
1108.199
1228.059
1226.632
1225.113
1223.494
1221.764
1219.881
1217.806
1215.516
1212.861
1209.457
1204.398
1195.683
1165.895
1229.402
1228.064
1226.642
1225.131
1223.526
1221.833
1220.001
1218.035
1215.92
1213.635
1211.15
1208.42
1205.386
1201.98
1230.664
1229.407
1228.074
1226.661
1225.163
1223.574
1221.866
1220.037
1218.077
1215.969
1213.692
1211.218
1208.506
1205.506
1202.251
1231.849
1230.669
1229.418
1228.092
1226.691
1225.201
1223.603
1221.898
1220.074
1218.119
1216.017
1213.748
1211.282
1208.582
1205.606
1203.306
1232.963
1231.853
1230.678
1229.434
1228.119
1226.722
1225.225
1223.631
1221.93
1220.111
1218.161
1216.065
1213.801
1211.342
1208.65
1206.513
1205.3
1234.01
1232.967
1231.862
1230.693
1229.458
1228.146
1226.743
1225.25
1223.66
1221.963
1220.149
1218.204
1216.113
1213.854
1211.4
1209.431
1208.225
1207.286
1203.806
1205.698
1203.733
1208.212
1205.673
1203.582
1210.809
1208.206
1205.624
1203.34
1213.304
1210.81
1208.196
1205.55
1203.001
1215.642
1213.307
1210.811
1208.176
1205.453
1175.877
1217.817
1215.645
1213.311
1210.808
1208.137
1198.128
1124.58
1219.836
1217.819
1215.65
1213.313
1210.792
1204.6
1177.938
1076.267
1221.714
1219.839
1217.825
1215.655
1213.309
1209.117
1196.226
1156.125
1040.34
1223.464
1221.717
1219.845
1217.831
1215.657
1212.5
1205.811
1188.706
1141.501
1025.509
1225.098
1223.467
1221.724
1219.853
1217.838
1215.239
1211.204
1203.677
1185.613
1140.798
1036.152
1226.626
1225.101
1223.475
1221.734
1219.864
1217.61
1214.733
1210.78
1203.806
1188.686
1154.501
1069.557
1228.058
1226.63
1225.11
1223.487
1221.75
1219.76
1217.463
1214.838
1211.448
1206.173
1196.365
1176.464
1117.847
1229.401
1228.062
1226.639
1225.124
1223.509
1221.755
1219.839
1217.771
1215.499
1212.876
1209.581
1204.956
1197.658
1171.966
1230.663
1229.406
1228.072
1226.656
1225.154
1223.571
1221.863
1220.036
1218.075
1215.967
1213.689
1211.212
1208.493
1205.471
1202.053
1231.848
1230.668
1229.416
1228.089
1226.685
1225.198
1223.601
1221.896
1220.073
1218.119
1216.017
1213.748
1211.283
1208.58
1205.585
1202.981
1232.962
1231.853
1230.677
1229.432
1228.116
1226.72
1225.224
1223.63
1221.929
1220.111
1218.162
1216.067
1213.804
1211.346
1208.652
1206.5
1205.036
1234.009
1232.966
1231.862
1230.693
1229.457
1228.145
1226.742
1225.249
1223.659
1221.963
1220.149
1218.205
1216.115
1213.857
1211.403
1209.438
1208.218
1207.146
1234.993
1234.013
1232.975
1231.876
1230.715
1229.482
1228.164
1226.765
1225.275
1223.689
1221.996
1220.187
1218.247
1216.161
1213.907
1212.081
1210.926
1209.928
1209.177
1203.809
1205.7
1203.739
1208.214
1205.676
1203.595
1210.811
1208.21
1205.629
1203.367
1213.307
1210.814
1208.202
1205.56
1203.034
1215.645
1213.31
1210.817
1208.187
1205.476
1188.806
1217.819
1215.648
1213.316
1210.817
1208.157
1200.772
1144.205
1219.837
1217.821
1215.653
1213.319
1210.804
1205.399
1183.8
1094.769
1221.715
1219.84
1217.826
1215.658
1213.314
1209.303
1197.542
1161.269
1051.988
1223.464
1221.717
1219.845
1217.831
1215.657
1212.5
1205.811
1188.706
1141.501
1025.509
1225.097
1223.467
1221.722
1219.851
1217.834
1215.186
1210.943
1202.763
1182.691
1132.988
1022.595
1226.625
1225.1
1223.472
1221.73
1219.857
1217.537
1214.456
1210.009
1201.63
1182.646
1139.806
1044.282
1228.057
1226.629
1225.107
1223.482
1221.74
1219.671
1217.188
1214.26
1210.175
1203.09
1188.732
1158.957
1084.732
1229.4
1228.061
1226.636
1225.118
1223.496
1221.647
1219.554
1217.284
1214.697
1211.382
1206.416
1197.899
1182.228
1134.657
1230.662
1229.404
1228.069
1226.65
1225.138
1223.501
1221.719
1219.816
1217.776
1215.548
1213.011
1209.948
1206
1200.604
1182.953
1231.847
1230.666
1229.413
1228.084
1226.677
1225.195
1223.599
1221.895
1220.071
1218.117
1216.016
1213.747
1211.282
1208.577
1205.568
1202.066
1232.962
1231.852
1230.675
1229.429
1228.112
1226.717
1225.222
1223.629
1221.928
1220.11
1218.162
1216.068
1213.808
1211.352
1208.658
1206.497
1204.465
1234.009
1232.966
1231.86
1230.691
1229.455
1228.143
1226.741
1225.248
1223.659
1221.963
1220.149
1218.206
1216.118
1213.862
1211.411
1209.457
1208.208
1206.808
1234.993
1234.013
1232.974
1231.875
1230.714
1229.481
1228.164
1226.764
1225.275
1223.689
1221.997
1220.188
1218.249
1216.164
1213.911
1212.092
1210.943
1209.921
1209.018
1235.917
1234.996
1234.021
1232.988
1231.896
1230.737
1229.499
1228.185
1226.788
1225.302
1223.719
1222.031
1220.226
1218.291
1216.209
1214.503
1213.384
1212.418
1211.632
1211.09
1205.701
1203.742
1208.215
1205.678
1203.605
1210.813
1208.212
1205.634
1203.391
1213.309
1210.817
1208.207
1205.568
1203.081
1215.647
1213.313
1210.824
1208.198
1205.485
1202.693
1217.821
1215.651
1213.322
1210.828
1208.179
1203.828
1175.648
1219.839
1217.824
1215.658
1213.328
1210.82
1206.445
1191.706
1124.255
1221.716
1219.841
1217.829
1215.663
1213.323
1209.648
1199.951
1170.876
1075.529
1223.464
1221.718
1219.846
1217.834
1215.661
1212.591
1206.367
1190.898
1148.308
1038.738
1225.097
1223.467
1221.722
1219.851
1217.834
1215.186
1210.943
1202.763
1182.691
1132.988
1022.595
1226.625
1225.1
1223.471
1221.728
1219.854
1217.5
1214.311
1209.592
1200.425
1179.292
1131.841
1031.691
1228.056
1226.628
1225.105
1223.478
1221.734
1219.611
1216.996
1213.836
1209.196
1200.642
1182.647
1145.586
1063.509
1229.399
1228.059
1226.634
1225.114
1223.487
1221.568
1219.329
1216.883
1214.002
1210.015
1203.411
1191.159
1168.208
1110.124
1230.661
1229.403
1228.066
1226.644
1225.126
1223.401
1221.465
1219.416
1217.219
1214.744
1211.662
1207.357
1200.803
1190.569
1162.09
1231.846
1230.665
1229.411
1228.079
1226.662
1225.13
1223.467
1221.699
1219.827
1217.833
1215.678
1213.287
1210.576
1207.551
1204.657
1195.561
1232.961
1231.85
1230.673
1229.425
1228.104
1226.714
1225.22
1223.627
1221.927
1220.109
1218.162
1216.069
1213.811
1211.359
1208.671
1206.612
1202.973
1234.008
1232.965
1231.859
1230.688
1229.45
1228.141
1226.739
1225.247
1223.658
1221.962
1220.15
1218.208
1216.122
1213.871
1211.424
1209.518
1208.221
1206.088
1234.992
1234.012
1232.973
1231.873
1230.711
1229.479
1228.163
1226.763
1225.274
1223.689
1221.997
1220.189
1218.252
1216.17
1213.92
1212.12
1210.992
1209.912
1208.635
1235.916
1234.996
1234.02
1232.987
1231.895
1230.736
1229.498
1228.184
1226.788
1225.302
1223.72
1222.032
1220.227
1218.293
1216.213
1214.514
1213.408
1212.443
1211.625
1210.92
1236.783
1235.92
1235.003
1234.033
1233.006
1231.916
1230.753
1229.518
1228.206
1226.812
1225.33
1223.751
1222.066
1220.265
1218.333
1216.732
1215.641
1214.683
1213.905
1213.337
1212.112
1208.216
1205.68
1203.61
1210.815
1208.214
1205.637
1203.408
1213.311
1210.82
1208.212
1205.575
1203.125
1215.649
1213.317
1210.829
1208.207
1205.496
1202.802
1217.823
1215.654
1213.328
1210.841
1208.201
1205.413
1202.448
1219.841
1217.826
1215.663
1213.339
1210.843
1207.615
1200.722
1168.265
1221.717
1219.844
1217.833
1215.671
1213.339
1210.106
1203.072
1183.675
1111.931
1223.465
1221.719
1219.849
1217.839
1215.67
1212.761
1207.385
1194.882
1160.936
1065.214
1225.098
1223.467
1221.724
1219.853
1217.838
1215.239
1211.204
1203.677
1185.613
1140.798
1036.152
1226.625
1225.1
1223.471
1221.728
1219.854
1217.5
1214.311
1209.592
1200.425
1179.292
1131.841
1031.691
1228.056
1226.627
1225.104
1223.476
1221.731
1219.581
1216.896
1213.611
1208.661
1199.277
1179.26
1138.348
1053.061
1229.399
1228.059
1226.632
1225.11
1223.482
1221.515
1219.174
1216.598
1213.485
1208.95
1201.005
1185.769
1157.538
1094.828
1230.66
1229.402
1228.064
1226.64
1225.118
1223.329
1221.266
1219.093
1216.753
1214.036
1210.403
1204.846
1195.739
1181.325
1148.82
1231.845
1230.663
1229.408
1228.074
1226.652
1225.038
1223.234
1221.345
1219.377
1217.299
1215.018
1212.333
1208.992
1204.88
1200.918
1187.671
1232.96
1231.849
1230.671
1229.42
1228.09
1226.654
1225.097
1223.448
1221.71
1219.882
1217.951
1215.904
1213.731
1211.541
1209.925
1208.184
1197.935
1234.007
1232.964
1231.857
1230.684
1229.443
1228.138
1226.737
1225.246
1223.657
1221.961
1220.15
1218.21
1216.126
1213.88
1211.444
1209.81
1208.376
1204.434
1234.992
1234.011
1232.971
1231.87
1230.707
1229.477
1228.161
1226.762
1225.274
1223.688
1221.998
1220.191
1218.257
1216.178
1213.934
1212.195
1211.127
1209.923
1207.852
1235.916
1234.995
1234.019
1232.985
1231.893
1230.734
1229.497
1228.183
1226.787
1225.302
1223.72
1222.033
1220.231
1218.299
1216.221
1214.543
1213.47
1212.511
1211.612
1210.52
1236.783
1235.92
1235.003
1234.032
1233.005
1231.916
1230.752
1229.517
1228.206
1226.812
1225.33
1223.751
1222.067
1220.267
1218.336
1216.743
1215.665
1214.716
1213.936
1213.329
1211.942
1237.596
1236.786
1235.927
1235.015
1234.05
1233.026
1231.931
1230.77
1229.537
1228.228
1226.838
1225.358
1223.782
1222.101
1220.302
1218.795
1217.731
1216.774
1215.976
1215.387
1214.238
1212.222
1210.816
1208.215
1205.639
1203.417
1213.312
1210.822
1208.215
1205.581
1203.157
1215.651
1213.319
1210.834
1208.215
1205.507
1202.887
1217.825
1215.657
1213.333
1210.851
1208.216
1205.434
1202.612
1219.843
1217.829
1215.669
1213.351
1210.871
1208.228
1205.358
1202.235
1221.719
1219.846
1217.838
1215.681
1213.359
1210.634
1206.499
1198.022
1163.933
1223.466
1221.721
1219.852
1217.846
1215.683
1212.995
1208.715
1199.983
1177.58
1105.483
1225.098
1223.468
1221.726
1219.858
1217.846
1215.34
1211.69
1205.339
1190.894
1155.225
1063.225
1226.625
1225.1
1223.472
1221.73
1219.857
1217.537
1214.456
1210.009
1201.63
1182.646
1139.806
1044.282
1228.056
1226.627
1225.104
1223.476
1221.731
1219.581
1216.896
1213.611
1208.661
1199.277
1179.26
1138.348
1053.061
1229.398
1228.058
1226.631
1225.109
1223.479
1221.489
1219.095
1216.449
1213.208
1208.364
1199.658
1182.764
1151.776
1087.404
1230.659
1229.401
1228.062
1226.637
1225.113
1223.281
1221.131
1218.867
1216.417
1213.501
1209.406
1202.806
1191.649
1174.258
1140.599
1231.845
1230.662
1229.406
1228.07
1226.644
1224.971
1223.052
1221.062
1219.009
1216.846
1214.419
1211.392
1207.323
1201.965
1196.923
1181.399
1232.959
1231.848
1230.668
1229.415
1228.08
1226.568
1224.881
1223.124
1221.314
1219.461
1217.551
1215.552
1213.425
1211.312
1210.005
1207.405
1191.74
1234.006
1232.962
1231.854
1230.679
1229.43
1228.082
1226.622
1225.079
1223.458
1221.761
1219.989
1218.147
1216.257
1214.435
1213.213
1212.608
1209.186
1200.475
1234.991
1234.01
1232.969
1231.867
1230.7
1229.474
1228.159
1226.761
1225.272
1223.688
1221.998
1220.192
1218.261
1216.188
1213.956
1212.515
1211.588
1210.035
1206.252
1235.915
1234.995
1234.017
1232.982
1231.889
1230.732
1229.496
1228.182
1226.786
1225.301
1223.721
1222.035
1220.234
1218.307
1216.235
1214.618
1213.631
1212.682
1211.608
1209.74
1236.783
1235.919
1235.002
1234.03
1233.003
1231.914
1230.751
1229.516
1228.205
1226.812
1225.33
1223.753
1222.07
1220.272
1218.344
1216.77
1215.728
1214.803
1214.014
1213.311
1211.546
1237.596
1236.786
1235.926
1235.014
1234.05
1233.025
1231.931
1230.77
1229.537
1228.228
1226.838
1225.359
1223.784
1222.103
1220.306
1218.805
1217.754
1216.809
1216.016
1215.421
1214.23
1212.053
1238.356
1237.599
1236.793
1235.938
1235.032
1234.069
1233.04
1231.948
1230.789
1229.558
1228.252
1226.864
1225.387
1223.814
1222.135
1220.713
1219.678
1218.726
1217.902
1217.262
1216.167
1214.335
1212.333
1213.313
1210.823
1208.216
1205.583
1203.175
1215.652
1213.321
1210.837
1208.219
1205.515
1202.945
1217.826
1215.66
1213.338
1210.858
1208.227
1205.452
1202.73
1219.844
1217.832
1215.674
1213.36
1210.888
1208.238
1205.392
1202.442
1221.72
1219.849
1217.843
1215.692
1213.388
1210.931
1208.241
1205.309
1202.069
1223.468
1221.723
1219.857
1217.855
1215.703
1213.28
1210.199
1205.493
1195.995
1161.707
1225.1
1223.47
1221.729
1219.864
1217.858
1215.485
1212.342
1207.477
1197.589
1174.114
1104.253
1226.626
1225.101
1223.475
1221.734
1219.864
1217.61
1214.733
1210.78
1203.806
1188.686
1154.501
1069.557
1228.056
1226.628
1225.105
1223.478
1221.734
1219.611
1216.996
1213.836
1209.196
1200.642
1182.647
1145.586
1063.509
1229.398
1228.058
1226.631
1225.109
1223.479
1221.489
1219.095
1216.449
1213.208
1208.364
1199.658
1182.764
1151.776
1087.404
1230.659
1229.4
1228.062
1226.635
1225.111
1223.257
1221.062
1218.752
1216.242
1213.212
1208.852
1201.655
1189.359
1170.437
1136.615
1231.844
1230.661
1229.405
1228.067
1226.639
1224.926
1222.928
1220.865
1218.749
1216.516
1213.956
1210.618
1205.904
1199.499
1193.714
1177.176
1232.958
1231.847
1230.666
1229.411
1228.074
1226.505
1224.712
1222.865
1220.994
1219.113
1217.202
1215.193
1212.983
1210.677
1209.241
1206.019
1186.542
1234.006
1232.961
1231.852
1230.674
1229.421
1228.002
1226.42
1224.777
1223.095
1221.393
1219.691
1218.007
1216.391
1215.004
1214.417
1213.442
1208.653
1195.62
1234.99
1234.009
1232.967
1231.862
1230.689
1229.422
1228.052
1226.605
1225.087
1223.504
1221.859
1220.163
1218.447
1216.826
1215.758
1215.437
1213.391
1210.411
1203.139
1235.915
1234.993
1234.016
1232.979
1231.882
1230.73
1229.494
1228.181
1226.785
1225.301
1223.72
1222.036
1220.238
1218.316
1216.255
1214.924
1214.145
1213.147
1211.652
1208.3
1236.782
1235.918
1235.001
1234.028
1233
1231.912
1230.75
1229.515
1228.205
1226.812
1225.331
1223.754
1222.074
1220.279
1218.357
1216.84
1215.887
1215.01
1214.19
1213.286
1210.79
1237.595
1236.786
1235.925
1235.013
1234.048
1233.024
1231.93
1230.769
1229.537
1228.228
1226.838
1225.36
1223.786
1222.108
1220.313
1218.831
1217.814
1216.897
1216.117
1215.501
1214.21
1211.656
1238.356
1237.598
1236.792
1235.937
1235.031
1234.068
1233.039
1231.947
1230.788
1229.558
1228.252
1226.864
1225.388
1223.816
1222.138
1220.723
1219.7
1218.759
1217.944
1217.306
1216.202
1214.327
1212.163
1239.065
1238.359
1237.605
1236.803
1235.954
1235.049
1234.082
1233.055
1231.965
1230.808
1229.58
1228.276
1226.89
1225.416
1223.844
1222.503
1221.499
1220.557
1219.716
1219.023
1217.937
1216.251
1214.432
1212.444
1215.653
1213.322
1210.839
1208.222
1205.519
1202.974
1217.827
1215.661
1213.341
1210.863
1208.233
1205.466
1202.806
1219.846
1217.834
1215.678
1213.368
1210.898
1208.248
1205.419
1202.587
1221.722
1219.851
1217.848
1215.701
1213.404
1210.938
1208.255
1205.357
1202.303
1223.469
1221.726
1219.861
1217.865
1215.729
1213.455
1210.968
1208.257
1205.275
1201.954
1225.101
1223.472
1221.733
1219.872
1217.875
1215.671
1213.096
1209.817
1204.728
1194.856
1161.264
1226.627
1225.103
1223.477
1221.74
1219.875
1217.717
1215.118
1211.796
1206.571
1196.291
1173.701
1108.199
1228.057
1226.629
1225.107
1223.482
1221.74
1219.671
1217.188
1214.26
1210.175
1203.09
1188.732
1158.957
1084.732
1229.399
1228.059
1226.632
1225.11
1223.482
1221.515
1219.174
1216.598
1213.485
1208.95
1201.005
1185.769
1157.538
1094.828
1230.659
1229.4
1228.062
1226.635
1225.111
1223.257
1221.062
1218.752
1216.242
1213.212
1208.852
1201.655
1189.359
1170.437
1136.615
1231.844
1230.661
1229.404
1228.065
1226.637
1224.904
1222.866
1220.766
1218.616
1216.341
1213.702
1210.178
1205.087
1198.093
1191.948
1175.063
1232.958
1231.846
1230.665
1229.409
1228.069
1226.464
1224.597
1222.686
1220.77
1218.866
1216.94
1214.89
1212.551
1209.995
1208.377
1204.762
1182.954
1234.005
1232.96
1231.85
1230.671
1229.415
1227.943
1226.263
1224.537
1222.803
1221.094
1219.438
1217.855
1216.382
1215.151
1214.732
1213.55
1207.605
1191.392
1234.989
1234.008
1232.965
1231.858
1230.68
1229.347
1227.863
1226.322
1224.749
1223.167
1221.602
1220.093
1218.71
1217.617
1217.233
1216.689
1214.163
1210.001
1199.375
1235.914
1234.992
1234.014
1232.975
1231.871
1230.681
1229.393
1228.035
1226.611
1225.129
1223.592
1222.015
1220.428
1218.936
1217.944
1217.67
1216.093
1214.34
1211.771
1205.892
1236.782
1235.917
1234.999
1234.024
1232.994
1231.91
1230.748
1229.514
1228.204
1226.811
1225.331
1223.755
1222.077
1220.288
1218.376
1217.121
1216.383
1215.544
1214.589
1213.26
1209.459
1237.595
1236.785
1235.924
1235.01
1234.044
1233.022
1231.929
1230.768
1229.536
1228.228
1226.839
1225.362
1223.79
1222.114
1220.325
1218.895
1217.963
1217.103
1216.335
1215.662
1214.173
1210.903
1238.355
1237.598
1236.792
1235.935
1235.029
1234.067
1233.038
1231.947
1230.788
1229.558
1228.252
1226.865
1225.391
1223.82
1222.144
1220.747
1219.755
1218.843
1218.047
1217.412
1216.28
1214.306
1211.768
1239.065
1238.358
1237.604
1236.803
1235.953
1235.048
1234.081
1233.055
1231.965
1230.808
1229.58
1228.277
1226.891
1225.418
1223.847
1222.512
1221.519
1220.588
1219.756
1219.069
1217.983
1216.285
1214.424
1212.274
1239.726
1239.068
1238.365
1237.615
1236.819
1235.97
1235.062
1234.096
1233.071
1231.983
1230.828
1229.602
1228.3
1226.916
1225.443
1224.177
1223.207
1222.281
1221.432
1220.699
1219.612
1218.01
1216.335
1214.529
1212.554
1217.828
1215.662
1213.342
1210.866
1208.236
1205.473
1202.844
1219.847
1217.836
1215.681
1213.372
1210.905
1208.255
1205.437
1202.68
1221.723
1219.853
1217.851
1215.708
1213.415
1210.946
1208.266
1205.392
1202.469
1223.471
1221.728
1219.865
1217.873
1215.744
1213.462
1210.975
1208.275
1205.334
1202.204
1225.102
1223.474
1221.737
1219.881
1217.899
1215.794
1213.498
1211.006
1208.28
1205.264
1201.891
1226.628
1225.105
1223.481
1221.747
1219.891
1217.86
1215.581
1212.944
1209.55
1204.334
1194.737
1162.579
1228.058
1226.63
1225.11
1223.487
1221.75
1219.76
1217.463
1214.838
1211.448
1206.173
1196.365
1176.464
1117.847
1229.399
1228.059
1226.634
1225.114
1223.487
1221.568
1219.329
1216.883
1214.002
1210.015
1203.411
1191.159
1168.208
1110.124
1230.659
1229.401
1228.062
1226.637
1225.113
1223.281
1221.131
1218.867
1216.417
1213.501
1209.406
1202.806
1191.649
1174.258
1140.599
1231.844
1230.661
1229.404
1228.065
1226.637
1224.904
1222.866
1220.766
1218.616
1216.341
1213.702
1210.178
1205.087
1198.093
1191.948
1175.063
1232.957
1231.845
1230.664
1229.407
1228.067
1226.443
1224.539
1222.596
1220.656
1218.737
1216.798
1214.715
1212.287
1209.569
1207.842
1204.039
1181.138
1234.004
1232.959
1231.849
1230.669
1229.411
1227.904
1226.155
1224.371
1222.6
1220.884
1219.253
1217.721
1216.306
1215.104
1214.72
1213.414
1206.622
1188.407
1234.989
1234.007
1232.964
1231.855
1230.674
1229.292
1227.715
1226.097
1224.478
1222.894
1221.388
1220.012
1218.838
1218.013
1217.875
1217.258
1214.349
1209.204
1196.013
1235.913
1234.991
1234.012
1232.971
1231.864
1230.61
1229.216
1227.77
1226.295
1224.814
1223.357
1221.964
1220.71
1219.744
1219.408
1218.967
1217.197
1214.981
1211.424
1203.045
1236.781
1235.916
1234.997
1234.021
1232.983
1231.864
1230.654
1229.377
1228.04
1226.649
1225.21
1223.734
1222.254
1220.861
1219.915
1219.62
1218.235
1216.883
1215.378
1213.212
1207.377
1237.594
1236.784
1235.922
1235.007
1234.038
1233.02
1231.927
1230.767
1229.535
1228.227
1226.838
1225.362
1223.793
1222.122
1220.342
1219.15
1218.421
1217.623
1216.812
1215.968
1214.112
1209.585
1238.355
1237.597
1236.79
1235.933
1235.026
1234.065
1233.037
1231.946
1230.787
1229.558
1228.253
1226.867
1225.394
1223.826
1222.155
1220.805
1219.893
1219.036
1218.266
1217.619
1216.427
1214.268
1211.018
1239.065
1238.358
1237.604
1236.801
1235.951
1235.047
1234.081
1233.054
1231.964
1230.808
1229.58
1228.278
1226.893
1225.421
1223.853
1222.534
1221.571
1220.667
1219.854
1219.178
1218.087
1216.364
1214.403
1211.879
1239.726
1239.068
1238.364
1237.614
1236.818
1235.969
1235.061
1234.096
1233.071
1231.983
1230.828
1229.603
1228.301
1226.918
1225.446
1224.185
1223.225
1222.31
1221.469
1220.743
1219.658
1218.055
1216.369
1214.521
1212.385
1240.34
1239.729
1239.074
1238.374
1237.63
1236.834
1235.982
1235.075
1234.112
1233.088
1232.002
1230.849
1229.625
1228.324
1226.942
1225.745
1224.811
1223.907
1223.059
1222.299
1221.214
1219.675
1218.083
1216.419
1214.626
1212.659
1219.847
1217.837
1215.682
1213.375
1210.908
1208.259
1205.446
1202.726
1221.724
1219.855
1217.854
1215.712
1213.421
1210.951
1208.274
1205.415
1202.575
1223.472
1221.73
1219.869
1217.879
1215.754
1213.468
1210.981
1208.289
1205.376
1202.381
1225.104
1223.476
1221.741
1219.888
1217.913
1215.8
1213.502
1211.014
1208.302
1205.329
1202.145
1226.629
1225.107
1223.485
1221.755
1219.912
1217.959
1215.835
1213.54
1211.048
1208.314
1205.278
1201.879
1228.059
1226.632