/*--------------------------------*- C++ -*----------------------------------*\
| =========                 |                                                 |
| \\      /  F ield         | OpenFOAM: The Open Source CFD Toolbox           |
|  \\    /   O peration     | Version:  2306                                  |
|   \\  /    A nd           | Website:  www.openfoam.com                      |
|    \\/     M anipulation  |                                                 |
\*---------------------------------------------------------------------------*/
FoamFile
{
    version     2.0;
    format      ascii;
    arch        "LSB;label=32;scalar=64";
    class       volScalarField;
    location    "0.9";
    object      k;
}
// * * * * * * * * * * * * * * * * * * * * * * * * * * * * * * * * * * * * * //

dimensions      [1 1 -3 -1 0 0 0];

internalField   nonuniform List<scalar> 
52000
(
20
20
20
20
20
20
20
20
20
20
20
20
20
20
20
20
20
20
20
20
20
20
20
20
20
20
20
20
20
20
20
20
20
20
20
20
20
20
20
20
20
20
20
20
20
20
20
20
20
20
20
20
20
20
20
20
20
20
20
20
20
20
20
20
20
20
20
20
20
20
20
20
20
20
20
20
20
20
20
20
20
20
20
20
20
20
20
20
20
20
20
20
20
20
20
20
20
20
20
20
20
20
20
20
20
20
20
20
20
20
20
20
20
20
20
20
20
20
20
20
20
20
20
20
20
20
20
20
20
20
20
20
20
20
20
20
20
20
20
20
20
20
20
20
20
20
20
20
20
20
20
20
20
20
20
20
20
20
20
20
20
20
20
20
20
20
20
20
20
20
20
20
20
20
20
20
20
20
20
20
20
20
20
20
20
20
20
20
20
20
20
20
20
20
20
20
20
20
20
20
20
20
20
20
20
20
20
20
20
20
20
20
20
20
20
20
20
20
20
20
20
20
20
20
20
20
20
20
20
20
20
20
20
20
20
20
20
20
20
20
0.08184612
20
20
20
20
20
20
20
20
20
20
20
20
20
20
20
20
20
20
20
20
20
20
20
20
20
20
20
20
20
20
20
20
20
20
20
20
20
20
20
20
20
20
20
20
20
20
20
20
20
20
20
20
20
20
20
20
20
20
20
20
20
20
20
20
20
0.08120537
20
20
20
20
20
0.08259573
0.08119477
20
20
20
20
20
20
20
20
20
20
20
20
20
20
20
20
20
20
20
20
20
20
20
20
20
20
20
20
20
20
20
20
20
20
20
20
20
20
20
20
20
20
20
20
20
20
20
20
20
20
20
20
20
20
20
20
20
20
20
20
20
20
20
20
20
20
20
20
20
20
0.08085255
20
20
20
20
20
0.08243205
0.07963253
20
20
20
20
20
0.08279331
0.08243079
0.08083297
20
20
20
20
20
20
20
20
20
20
20
20
20
20
20
20
20
20
20
20
20
20
20
20
20
20
20
20
20
20
20
20
20
20
20
20
20
20
20
20
20
20
20
20
20
20
20
20
20
20
20
20
20
20
20
20
20
20
20
20
20
20
20
20
20
20
20
20
20
20
20
20
20
20
20
0.08065293
20
20
20
20
20
0.08229044
0.07865801
20
20
20
20
20
0.08272467
0.0819477
0.07864294
20
20
20
20
20
0.08295707
0.08272884
0.08228872
0.0806229
20
20
20
20
20
20
20
20
20
20
20
20
20
20
20
20
20
20
20
20
20
20
20
20
20
20
20
20
20
20
20
20
20
20
20
20
20
20
20
20
20
20
20
20
20
20
20
20
20
20
20
20
20
20
20
20
20
20
20
20
20
20
20
20
20
20
20
20
20
20
20
20
20
20
20
20
20
20
20
20
0.08056046
20
20
20
20
20
0.08218632
0.0780736
20
20
20
20
20
0.08266281
0.08152356
0.07716929
20
20
20
20
20
0.08292364
0.08252812
0.08151917
0.07803315
20
20
20
20
20
0.08310301
0.08292979
0.08267204
0.08218415
0.08051702
20
20
20
20
20
20
20
20
20
20
20
20
20
20
20
20
20
20
20
20
20
20
20
20
20
20
20
20
20
20
20
20
20
20
20
20
20
20
20
20
20
20
20
20
20
20
20
20
20
20
20
20
20
20
20
20
20
20
20
20
20
20
20
20
20
20
20
20
20
20
20
20
20
20
20
20
20
20
20
20
20
20
20
20
20
0.08056046
20
20
20
20
20
0.08213116
0.07779699
20
20
20
20
20
0.08261542
0.08120892
0.07624226
20
20
20
20
20
0.08289404
0.08234456
0.08083052
0.07620687
20
20
20
20
20
0.08308412
0.08283578
0.08234893
0.08119544
0.07771618
20
20
20
20
20
0.08323601
0.08309065
0.08290717
0.08263097
0.08212869
0.08049929
20
20
20
20
20
20
20
20
20
20
20
20
20
20
20
20
20
20
20
20
20
20
20
20
20
20
20
20
20
20
20
20
20
20
20
20
20
20
20
20
20
20
20
20
20
20
20
20
20
20
20
20
20
20
20
20
20
20
20
20
20
20
20
20
20
20
20
20
20
0.3579909
20
20
20
20
20
20
20
20
20
20
20
20
20
20
20
20
20
20
20
20
0.08065293
20
20
20
20
20
0.08213116
0.07779699
20
20
20
20
20
0.08258962
0.08104138
0.07579127
20
20
20
20
20
0.08287149
0.0822026
0.08031269
0.07502022
20
20
20
20
20
0.08306789
0.08275073
0.08204853
0.08029786
0.0756919
20
20
20
20
20
0.08322356
0.0830403
0.08275833
0.08221147
0.08101399
0.07765889
20
20
20
20
20
0.08335848
0.08322986
0.08308178
0.08289341
0.08261335
0.0821299
0.08056918
20
20
20
20
20
20
20
20
20
20
20
20
20
20
20
20
20
20
20
20
20
20
20
20
20
20
20
20
20
20
20
20
20
20
20
20
20
20
20
20
20
20
20
20
20
20
20
20
20
20
20
20
20
20
20
20
20
0.3579822
20
20
20
20
20
20
20
20
20
20
20
20
20
20
20
0.3580968
0.3580562
20
20
20
20
20
20
20
20
20
20
20
20
20
20
20
20
20
20
20
20
0.08085255
20
20
20
20
20
0.08218632
0.0780736
20
20
20
20
20
0.08258962
0.08104138
0.07579127
20
20
20
20
20
0.08285924
0.08212493
0.08003495
0.0744317
20
20
20
20
20
0.08305579
0.0826852
0.08181339
0.07961486
0.07435265
20
20
20
20
20
0.0832132
0.08299588
0.08262118
0.08181643
0.07999368
0.07559547
20
20
20
20
20
0.08334901
0.08319852
0.08300432
0.08270276
0.08213952
0.08099832
0.07786014
20
20
20
20
20
0.08347205
0.08335488
0.08322662
0.08307894
0.08289239
0.0826246
0.08219058
0.08074086
20
20
20
20
20
20
20
20
20
20
20
20
20
20
20
20
20
20
20
20
20
20
20
20
20
20
20
20
20
20
20
20
20
20
20
20
20
20
20
20
20
20
20
20
0.3579639
20
20
20
20
20
20
20
20
20
20
20
20
20
20
20
0.3580909
0.3580463
20
20
20
20
20
20
20
20
20
20
20
20
20
20
20
0.358197
0.3581568
0.3581229
20
20
20
20
20
20
20
20
20
20
20
20
20
20
20
20
20
20
20
20
0.08120537
20
20
20
20
20
0.08229044
0.07865801
20
20
20
20
20
0.08261542
0.08120892
0.07624226
20
20
20
20
20
0.08285924
0.08212493
0.08003495
0.0744317
20
20
20
20
20
0.0830493
0.08264934
0.08168389
0.079246
0.07367657
20
20
20
20
20
0.08320565
0.08296237
0.08251407
0.08150406
0.07921166
0.0742244
20
20
20
20
20
0.0833413
0.08317164
0.08293464
0.08252453
0.08168964
0.07996005
0.07591867
20
20
20
20
20
0.08346411
0.08333202
0.08317995
0.08298232
0.08268052
0.0821494
0.08115555
0.0783491
20
20
20
20
20
0.08357787
0.08346951
0.08335385
0.08322807
0.08308425
0.08290697
0.08266678
0.08230912
0.08105481
20
20
20
20
20
20
20
20
20
20
20
20
20
20
20
20
20
20
20
20
20
20
20
20
20
20
20
20
20
20
0.3579336
20
20
20
20
20
20
20
20
20
20
20
20
20
20
20
0.3580791
0.3580248
20
20
20
20
20
20
20
20
20
20
20
20
20
20
20
0.358192
0.3581509
0.358112
20
20
20
20
20
20
20
20
20
20
20
20
20
20
20
0.3582887
0.3582499
0.3582177
0.3581911
20
20
20
20
20
20
20
20
20
20
20
20
20
20
20
20
20
20
20
20
0.08184612
20
20
20
20
20
0.08243205
0.07963253
20
20
20
20
20
0.08266281
0.08152356
0.07716929
20
20
20
20
20
0.08287149
0.0822026
0.08031269
0.07502022
20
20
20
20
20
0.0830493
0.08264934
0.08168389
0.079246
0.07367657
20
20
20
20
20
0.08320165
0.08294427
0.082455
0.08133101
0.07878738
0.07352949
20
20
20
20
20
0.08333578
0.08315188
0.08288131
0.08238371
0.08133152
0.0791626
0.07464149
20
20
20
20
20
0.08345772
0.08331289
0.08313913
0.08289402
0.08248033
0.08169623
0.08020809
0.07669009
20
20
20
20
20
0.08357082
0.0834508
0.08332072
0.08317166
0.08298
0.08269986
0.08224612
0.08147604
0.07920138
20
20
20
20
20
0.08367683
0.08357579
0.08346934
0.08335682
0.08323554
0.08309927
0.08293857
0.08273926
0.08248277
0.08162556
20
20
20
20
20
20
20
20
20
20
20
20
20
20
20
0.3578748
20
20
20
20
20
20
20
20
20
20
20
20
20
20
20
0.3580615
0.3579864
20
20
20
20
20
20
20
20
20
20
20
20
20
20
20
0.358182
0.3581393
0.3580882
20
20
20
20
20
20
20
20
20
20
20
20
20
20
20
0.3582841
0.3582453
0.3582119
0.3581796
20
20
20
20
20
20
20
20
20
20
20
20
20
20
20
0.3583734
0.358335
0.3583036
0.3582795
0.3582609
20
20
20
20
20
20
20
20
20
20
20
20
20
20
20
20
20
20
20
20
20
20
20
20
20
0.08259573
0.08119477
20
20
20
20
20
0.08272467
0.0819477
0.07864294
20
20
20
20
20
0.08289404
0.08234456
0.08083052
0.07620687
20
20
20
20
20
0.08305579
0.0826852
0.08181339
0.07961486
0.07435265
20
20
20
20
20
0.08320165
0.08294427
0.082455
0.08133101
0.07878738
0.07352949
20
20
20
20
20
0.0833329
0.08314137
0.08285226
0.08230551
0.08113234
0.07872938
0.07400123
20
20
20
20
20
0.08345319
0.08329915
0.08310869
0.08282556
0.08232079
0.08133428
0.07948219
0.07562251
20
20
20
20
20
0.08356517
0.08343538
0.0832925
0.08312155
0.08288348
0.08250244
0.08184345
0.08071649
0.07797916
20
20
20
20
20
0.08367038
0.08355935
0.08344266
0.08331786
0.08317692
0.08300163
0.08276397
0.08242356
0.08193684
0.08059339
20
20
20
20
20
0.08376964
0.08367497
0.08357592
0.08347276
0.08336475
0.08325003
0.08312509
0.08298791
0.08284247
0.0827185
0.3576106
20
20
20
20
20
20
20
20
20
20
20
20
20
20
20
0.3580402
0.3579097
20
20
20
20
20
20
20
20
20
20
20
20
20
20
20
0.3581678
0.3581223
0.3580452
20
20
20
20
20
20
20
20
20
20
20
20
20
20
20
0.3582752
0.3582363
0.3582002
0.3581543
20
20
20
20
20
20
20
20
20
20
20
20
20
20
20
0.3583691
0.3583309
0.3582992
0.3582736
0.3582491
20
20
20
20
20
20
20
20
20
20
20
20
20
20
20
0.3584524
0.358414
0.358382
0.3583579
0.3583422
0.6333153
20
20
20
20
20
20
20
20
20
20
20
20
20
20
20
20
20
20
20
20
20
20
20
20
20
20
20
20
20
20
0.08279331
0.08243079
0.08083297
20
20
20
20
20
0.08292364
0.08252812
0.08151917
0.07803315
20
20
20
20
20
0.08306789
0.08275073
0.08204853
0.08029786
0.0756919
20
20
20
20
20
0.08320565
0.08296237
0.08251407
0.08150406
0.07921166
0.0742244
20
20
20
20
20
0.0833329
0.08314137
0.08285226
0.08230551
0.08113234
0.07872938
0.07400123
20
20
20
20
20
0.08345084
0.08329196
0.08309238
0.08278798
0.08223173
0.0811326
0.07908851
0.07509563
20
20
20
20
20
0.08356119
0.08342447
0.08327197
0.08308369
0.08280781
0.08234404
0.08152126
0.08013722
0.07721585
20
20
20
20
20
0.08366522
0.0835459
0.08342032
0.08328422
0.08312408
0.08290983
0.08259505
0.08211691
0.08143403
0.07993806
20
20
20
20
20
0.08376365
0.08365999
0.08355265
0.08344191
0.08332563
0.08319824
0.08304947
0.08287144
0.08266869
0.08250586
0.3573314
20
20
20
20
20
0.08385688
0.0837679
0.08367519
0.08357935
0.08348053
0.08337839
0.08327246
0.08316306
0.08305838
0.08299173
0.3580516
0.3577051
20
20
20
20
20
20
20
20
20
20
20
20
20
20
20
0.3581544
0.3581033
0.3579645
20
20
20
20
20
20
20
20
20
20
20
20
20
20
20
0.3582626
0.3582248
0.3581835
0.3581096
20
20
20
20
20
20
20
20
20
20
20
20
20
20
20
0.3583608
0.3583232
0.358291
0.358262
0.3582234
20
20
20
20
20
20
20
20
20
20
20
20
20
20
20
0.3584484
0.3584103
0.3583783
0.3583537
0.3583363
0.6333086
20
20
20
20
20
20
20
20
20
20
20
20
20
20
20
0.3585263
0.3584882
0.3584553
0.3584296
0.3584129
0.6333592
0.6333182
20
20
20
20
20
20
20
20
20
20
20
20
20
20
20
20
20
20
20
20
20
20
20
20
20
20
20
20
20
20
20
20
20
20
20
0.08295707
0.08272884
0.08228872
0.0806229
20
20
20
20
20
0.08308412
0.08283578
0.08234893
0.08119544
0.07771618
20
20
20
20
20
0.0832132
0.08299588
0.08262118
0.08181643
0.07999368
0.07559547
20
20
20
20
20
0.08333578
0.08315188
0.08288131
0.08238371
0.08133152
0.0791626
0.07464149
20
20
20
20
20
0.08345084
0.08329196
0.08309238
0.08278798
0.08223173
0.0811326
0.07908851
0.07509563
20
20
20
20
20
0.08355912
0.08341882
0.08326117
0.08306324
0.08276599
0.08225527
0.08134164
0.07982409
0.07684493
20
20
20
20
20
0.08366158
0.08353646
0.08340437
0.08325948
0.08308365
0.082837
0.08245822
0.08186997
0.08104985
0.07953268
20
20
20
20
20
0.08375886
0.08364778
0.08353335
0.0834158
0.08329137
0.08315053
0.08297579
0.08275239
0.08248508
0.0822839
0.3571134
20
20
20
20
20
0.08385128
0.083754
0.08365405
0.08355266
0.08345023
0.08334576
0.08323746
0.08312445
0.08301952
0.08297082
0.3580073
0.3574804
20
20
20
20
20
0.08393904
0.08385524
0.08376815
0.0836785
0.08358677
0.0834933
0.08339854
0.0833043
0.08321759
0.0831685
0.3582111
0.3580978
0.3578022
20
20
20
20
20
20
20
20
20
20
20
20
20
20
20
0.3582518
0.358218
0.3581643
0.3580321
20
20
20
20
20
20
20
20
20
20
20
20
20
20
20
0.3583491
0.3583137
0.3582809
0.358245
0.3581791
20
20
20
20
20
20
20
20
20
20
20
20
20
20
20
0.3584405
0.3584031
0.3583715
0.3583459
0.3583246
0.633294
20
20
20
20
20
20
20
20
20
20
20
20
20
20
20
0.3585224
0.3584847
0.3584519
0.3584261
0.3584088
0.6333559
0.6333114
20
20
20
20
20
20
20
20
20
20
20
20
20
20
20
0.3585956
0.3585581
0.3585246
0.3584971
0.3584777
0.6333971
0.6333618
0.633321
20
20
20
20
20
20
20
20
20
20
20
20
20
20
20
20
20
20
20
20
20
20
20
20
20
20
20
20
20
20
20
20
20
20
20
20
20
20
20
20
0.08310301
0.08292979
0.08267204
0.08218415
0.08051702
20
20
20
20
20
0.08322356
0.0830403
0.08275833
0.08221147
0.08101399
0.07765889
20
20
20
20
20
0.0833413
0.08317164
0.08293464
0.08252453
0.08168964
0.07996005
0.07591867
20
20
20
20
20
0.08345319
0.08329915
0.08310869
0.08282556
0.08232079
0.08133428
0.07948219
0.07562251
20
20
20
20
20
0.08355912
0.08341882
0.08326117
0.08306324
0.08276599
0.08225527
0.08134164
0.07982409
0.07684493
20
20
20
20
20
0.0836597
0.0835316
0.08339607
0.08324636
0.08306163
0.08279646
0.08238117
0.081732
0.08084239
0.07933626
20
20
20
20
20
0.08375547
0.08363923
0.0835197
0.08339697
0.08326586
0.08311334
0.08291593
0.08265315
0.0823323
0.08210748
0.3569675
20
20
20
20
20
0.08384679
0.08374268
0.08363658
0.08353031
0.08342426
0.08331643
0.08320293
0.08308007
0.0829618
0.08291034
0.357948
0.3572969
20
20
20
20
20
0.08393378
0.08384223
0.08374853
0.08365431
0.0835608
0.08346899
0.08337981
0.08329629
0.08322833
0.08321019
0.358223
0.3580608
0.3576217
20
20
20
20
20
0.08401653
0.08393748
0.08385548
0.08377129
0.08368552
0.08359872
0.08351178
0.08342666
0.08335011
0.08330719
0.3583168
0.3582489
0.3581494
0.3579016
20
20
20
20
20
20
20
20
20
20
20
20
20
20
20
0.3583392
0.3583105
0.3582754
0.3582247
0.3581077
20
20
20
20
20
20
20
20
20
20
20
20
20
20
20
0.3584294
0.3583945
0.3583638
0.3583363
0.3583072
0.6332693
20
20
20
20
20
20
20
20
20
20
20
20
20
20
20
0.3585149
0.358478
0.3584457
0.3584198
0.3584011
0.6333492
0.6332969
20
20
20
20
20
20
20
20
20
20
20
20
20
20
20
0.358592
0.3585547
0.3585214
0.3584939
0.3584744
0.6333948
0.6333584
0.6333143
20
20
20
20
20
20
20
20
20
20
20
20
20
20
20
0.3586609
0.358624
0.3585904
0.3585615
0.3585394
0.6334319
0.6333993
0.6333643
0.6333239
20
20
20
20
20
20
20
20
20
20
20
20
20
20
20
20
20
20
20
20
20
20
20
20
20
20
20
20
20
20
20
20
20
20
20
20
20
20
20
20
20
20
20
20
20
0.08323601
0.08309065
0.08290717
0.08263097
0.08212869
0.08049929
20
20
20
20
20
0.08334901
0.08319852
0.08300432
0.08270276
0.08213952
0.08099832
0.07786014
20
20
20
20
20
0.08345772
0.08331289
0.08313913
0.08289402
0.08248033
0.08169623
0.08020809
0.07669009
20
20
20
20
20
0.08356119
0.08342447
0.08327197
0.08308369
0.08280781
0.08234404
0.08152126
0.08013722
0.07721585
20
20
20
20
20
0.0836597
0.0835316
0.08339607
0.08324636
0.08306163
0.08279646
0.08238117
0.081732
0.08084239
0.07933626
20
20
20
20
20
0.08375373
0.08363484
0.08351265
0.08338712
0.08325222
0.08309287
0.08288219
0.08259656
0.08224593
0.08201089
0.3568946
20
20
20
20
20
0.08384361
0.08373476
0.08362428
0.08351438
0.08340533
0.0832941
0.08317474
0.08304094
0.08290744
0.0828506
0.3578971
0.3571714
20
20
20
20
20
0.08392955
0.08383163
0.08373235
0.08363414
0.08353881
0.08344758
0.08336107
0.08328173
0.08321882
0.08320928
0.3582154
0.3580126
0.3574697
20
20
20
20
20
0.08401159
0.08392526
0.08383711
0.08374885
0.08366203
0.08357822
0.08349955
0.08342971
0.08337807
0.08336768
0.3583457
0.3582577
0.3581166
0.3577575
20
20
20
20
20
0.08408971
0.08401506
0.08393773
0.08385847
0.08377792
0.08369674
0.08361586
0.08353734
0.08346709
0.08342722
0.3584015
0.3583495
0.3582904
0.3582041
0.3580025
20
20
20
20
20
20
20
20
20
20
20
20
20
20
20
0.3584198
0.3583922
0.3583623
0.3583295
0.3582851
0.6332308
20
20
20
20
20
20
20
20
20
20
20
20
20
20
20
0.3585043
0.3584698
0.3584389
0.3584128
0.3583912
0.6333391
0.6332722
20
20
20
20
20
20
20
20
20
20
20
20
20
20
20
0.3585848
0.3585483
0.3585156
0.3584883
0.3584683
0.6333904
0.6333517
0.6332998
20
20
20
20
20
20
20
20
20
20
20
20
20
20
20
0.3586574
0.3586208
0.3585874
0.3585586
0.3585364
0.63343
0.633397
0.633361
0.6333172
20
20
20
20
20
20
20
20
20
20
20
20
20
20
20
0.3587224
0.3586864
0.3586529
0.3586232
0.3585989
0.6334653
0.6334339
0.6334016
0.6333668
0.6333267
20
20
20
20
20
20
20
20
20
20
20
20
20
20
20
20
20
20
20
20
20
20
20
20
20
20
20
20
20
20
20
20
20
20
20
20
20
20
20
20
20
20
20
20
20
20
20
20
20
20
0.08335848
0.08322986
0.08308178
0.08289341
0.08261335
0.0821299
0.08056918
20
20
20
20
20
0.08346411
0.08333202
0.08317995
0.08298232
0.08268052
0.0821494
0.08115555
0.0783491
20
20
20
20
20
0.08356517
0.08343538
0.0832925
0.08312155
0.08288348
0.08250244
0.08184345
0.08071649
0.07797916
20
20
20
20
20
0.08366158
0.08353646
0.08340437
0.08325948
0.08308365
0.082837
0.08245822
0.08186997
0.08104985
0.07953268
20
20
20
20
20
0.08375373
0.08363484
0.08351265
0.08338712
0.08325222
0.08309287
0.08288219
0.08259656
0.08224593
0.08201089
0.3568946
20
20
20
20
20
0.08384197
0.0837307
0.08361794
0.08350611
0.08339535
0.083282
0.08315883
0.08301808
0.08287506
0.082815
0.3578684
0.3571082
20
20
20
20
20
0.08392656
0.08382422
0.08372097
0.08361984
0.08352299
0.08343161
0.08334575
0.08326683
0.08320335
0.0831963
0.3582029
0.3579711
0.3573638
20
20
20
20
20
0.08400759
0.08391528
0.08382196
0.08373017
0.08364225
0.0835604
0.08348721
0.0834264
0.08338657
0.08338768
0.3583559
0.3582523
0.3580769
0.3576338
20
20
20
20
20
0.08408504
0.08400355
0.08392045
0.08383743
0.08375611
0.08367824
0.08360616
0.08354383
0.08349921
0.08349059
0.358434
0.358372
0.3582947
0.358174
0.3578892
20
20
20
20
20
0.08415887
0.08408833
0.08401531
0.08394057
0.08386475
0.0837885
0.08371277
0.08363947
0.083574
0.08353571
0.3584761
0.3584304
0.3583848
0.3583336
0.3582606
0.6331772
20
20
20
20
20
20
20
20
20
20
20
20
20
20
20
0.3584949
0.3584673
0.3584385
0.3584103
0.3583819
0.633326
0.633234
20
20
20
20
20
20
20
20
20
20
20
20
20
20
20
0.3585746
0.3585404
0.3585093
0.3584823
0.3584611
0.6333845
0.6333416
0.6332752
20
20
20
20
20
20
20
20
20
20
20
20
20
20
20
0.3586505
0.3586146
0.3585818
0.3585534
0.358531
0.6334266
0.6333926
0.6333542
0.6333027
20
20
20
20
20
20
20
20
20
20
20
20
20
20
20
0.358719
0.3586833
0.35865
0.3586204
0.3585961
0.6334636
0.633432
0.6333993
0.6333635
0.63332
20
20
20
20
20
20
20
20
20
20
20
20
20
20
20
0.3587804
0.3587455
0.3587124
0.3586823
0.3586565
0.6334978
0.6334671
0.6334359
0.6334038
0.6333694
0.7249972
20
20
20
20
20
20
20
20
20
20
20
20
20
20
20
20
20
20
20
20
20
20
20
20
20
20
20
20
20
20
20
20
20
20
20
20
20
20
20
20
20
20
20
20
20
20
20
20
20
20
20
20
20
20
20
0.08347205
0.08335488
0.08322662
0.08307894
0.08289239
0.0826246
0.08219058
0.08074086
20
20
20
20
20
0.08357082
0.0834508
0.08332072
0.08317166
0.08298
0.08269986
0.08224612
0.08147604
0.07920138
20
20
20
20
20
0.08366522
0.0835459
0.08342032
0.08328422
0.08312408
0.08290983
0.08259505
0.08211691
0.08143403
0.07993806
20
20
20
20
20
0.08375547
0.08363923
0.0835197
0.08339697
0.08326586
0.08311334
0.08291593
0.08265315
0.0823323
0.08210748
0.3569675
20
20
20
20
20
0.08384197
0.0837307
0.08361794
0.08350611
0.08339535
0.083282
0.08315883
0.08301808
0.08287506
0.082815
0.3578684
0.3571082
20
20
20
20
20
0.08392501
0.08382042
0.08371512
0.08361246
0.08351474
0.08342308
0.08333712
0.08325762
0.08319276
0.08318638
0.3581946
0.3579476
0.3573099
20
20
20
20
20
0.08400476
0.08390831
0.08381131
0.08371696
0.08362811
0.0835473
0.08347715
0.08342089
0.08338615
0.08339222
0.3583579
0.3582429
0.358043
0.3575464
20
20
20
20
20
0.08408126
0.08399414
0.08390619
0.08381993
0.08373778
0.08366228
0.0835964
0.08354445
0.08351338
0.08351686
0.3584498
0.3583812
0.35829
0.3581408
0.3577911
20
20
20
20
20
0.08415446
0.08407746
0.08399902
0.08392076
0.08384426
0.08377126
0.08370409
0.08364645
0.08360551
0.08359605
0.3585077
0.3584559
0.3584005
0.3583333
0.3582323
0.6331207
20
20
20
20
20
0.08422427
0.08415758
0.08408858
0.08401803
0.08394654
0.08387475
0.08380358
0.0837348
0.08367325
0.08363624
0.3585445
0.3585021
0.3584614
0.3584213
0.3583775
0.633311
0.6331812
20
20
20
20
20
20
20
20
20
20
20
20
20
20
20
0.3585651
0.3585375
0.3585087
0.358481
0.3584561
0.6333783
0.6333285
0.6332372
20
20
20
20
20
20
20
20
20
20
20
20
20
20
20
0.3586406
0.3586069
0.3585756
0.3585478
0.3585249
0.6334222
0.6333867
0.6333441
0.6332781
20
20
20
20
20
20
20
20
20
20
20
20
20
20
20
0.3587123
0.3586773
0.3586447
0.3586154
0.3585912
0.6334606
0.6334286
0.6333949
0.6333568
0.6333056
20
20
20
20
20
20
20
20
20
20
20
20
20
20
20
0.3587771
0.3587424
0.3587096
0.3586796
0.3586538
0.6334962
0.6334654
0.633434
0.6334015
0.6333661
0.7249922
20
20
20
20
20
20
20
20
20
20
20
20
20
20
20
0.3588352
0.3588014
0.3587691
0.3587389
0.3587121
0.6335293
0.6334993
0.6334688
0.6334379
0.633406
0.725029
0.724999
20
20
20
20
20
20
20
20
20
20
20
20
20
20
20
20
20
20
20
20
20
20
20
20
20
20
20
20
20
20
20
20
20
20
20
20
20
20
20
20
20
20
20
20
20
20
20
20
20
20
20
20
20
20
20
20
20
20
20
20
0.08357787
0.08346951
0.08335385
0.08322807
0.08308425
0.08290697
0.08266678
0.08230912
0.08105481
20
20
20
20
20
0.08367038
0.08355935
0.08344266
0.08331786
0.08317692
0.08300163
0.08276397
0.08242356
0.08193684
0.08059339
20
20
20
20
20
0.08375886
0.08364778
0.08353335
0.0834158
0.08329137
0.08315053
0.08297579
0.08275239
0.08248508
0.0822839
0.3571134
20
20
20
20
20
0.08384361
0.08373476
0.08362428
0.08351438
0.08340533
0.0832941
0.08317474
0.08304094
0.08290744
0.0828506
0.3578971
0.3571714
20
20
20
20
20
0.08392501
0.08382042
0.08371512
0.08361246
0.08351474
0.08342308
0.08333712
0.08325762
0.08319276
0.08318638
0.3581946
0.3579476
0.3573099
20
20
20
20
20
0.0840033
0.08390473
0.08380584
0.08371015
0.08362077
0.08354037
0.08347151
0.08341705
0.08338412
0.08339223
0.3583576
0.3582365
0.3580239
0.3575016
20
20
20
20
20
0.08407859
0.08398756
0.08389616
0.08380756
0.08372472
0.08365062
0.0835885
0.08354242
0.08351822
0.08352746
0.3584568
0.3583837
0.3582826
0.3581133
0.357721
20
20
20
20
20
0.08415089
0.08406858
0.08398556
0.08390428
0.08382706
0.08375642
0.08369543
0.08364811
0.08362069
0.08362282
0.3585244
0.3584696
0.3584077
0.3583283
0.3582044
0.6330717
20
20
20
20
20
0.08422011
0.08414732
0.08407321
0.08399934
0.08392721
0.08385848
0.08379536
0.08374128
0.08370253
0.08369185
0.3585737
0.3585269
0.3584798
0.3584304
0.3583728
0.6332953
0.6331254
20
20
20
20
20
0.08428614
0.08422307
0.08415785
0.0840912
0.08402373
0.08395604
0.08388901
0.08382426
0.08376622
0.08373038
0.3586088
0.3585682
0.3585298
0.3584932
0.358458
0.6333736
0.6333134
0.6331851
20
20
20
20
20
20
20
20
20
20
20
20
20
20
20
0.3586312
0.3586035
0.3585746
0.3585466
0.3585214
0.6334185
0.6333805
0.633331
0.6332405
20
20
20
20
20
20
20
20
20
20
20
20
20
20
20
0.3587028
0.3586698
0.3586386
0.35861
0.3585855
0.6334569
0.6334242
0.6333889
0.6333467
0.6332811
20
20
20
20
20
20
20
20
20
20
20
20
20
20
20
0.3587707
0.3587367
0.3587044
0.3586748
0.3586491
0.6334934
0.6334623
0.6334305
0.6333971
0.6333593
0.7249814
20
20
20
20
20
20
20
20
20
20
20
20
20
20
20
0.3588321
0.3587985
0.3587663
0.3587363
0.3587096
0.6335279
0.6334978
0.6334671
0.633436
0.6334038
0.7250265
0.724994
20
20
20
20
20
20
20
20
20
20
20
20
20
20
20
0.3588871
0.3588545
0.358823
0.3587931
0.3587658
0.63356
0.6335308
0.6335009
0.6334706
0.6334399
0.7250562
0.7250306
0.7250005
20
20
20
20
20
20
20
20
20
20
20
20
20
20
20
20
20
20
20
20
20
20
20
20
20
20
20
20
20
20
20
20
20
20
20
20
20
20
20
20
20
20
20
20
20
20
20
20
20
20
20
20
20
20
20
20
20
20
20
20
20
20
20
20
20
0.08367683
0.08357579
0.08346934
0.08335682
0.08323554
0.08309927
0.08293857
0.08273926
0.08248277
0.08162556
20
20
20
20
20
0.08376365
0.08365999
0.08355265
0.08344191
0.08332563
0.08319824
0.08304947
0.08287144
0.08266869
0.08250586
0.3573314
20
20
20
20
20
0.08384679
0.08374268
0.08363658
0.08353031
0.08342426
0.08331643
0.08320293
0.08308007
0.0829618
0.08291034
0.357948
0.3572969
20
20
20
20
20
0.08392656
0.08382422
0.08372097
0.08361984
0.08352299
0.08343161
0.08334575
0.08326683
0.08320335
0.0831963
0.3582029
0.3579711
0.3573638
20
20
20
20
20
0.0840033
0.08390473
0.08380584
0.08371015
0.08362077
0.08354037
0.08347151
0.08341705
0.08338412
0.08339223
0.3583576
0.3582365
0.3580239
0.3575016
20
20
20
20
20
0.0840772
0.08398418
0.08389101
0.08380119
0.08371794
0.08364448
0.08358409
0.08354063
0.08351931
0.08353107
0.3584593
0.3583839
0.3582776
0.3580978
0.3576848
20
20
20
20
20
0.08414835
0.08406236
0.08397611
0.08389262
0.0838148
0.08374563
0.08368846
0.0836472
0.08362698
0.08363487
0.3585328
0.3584761
0.35841
0.3583221
0.3581821
0.6330365
20
20
20
20
20
0.08421672
0.08413893
0.08406051
0.08398377
0.08391097
0.08384449
0.08378722
0.08374294
0.083717
0.08371715
0.3585896
0.3585412
0.3584906
0.3584351
0.3583669
0.6332806
0.6330772
20
20
20
20
20
0.0842822
0.08421339
0.08414334
0.08407355
0.08400545
0.08394062
0.08388108
0.08382998
0.08379299
0.08378112
0.3586351
0.3585909
0.3585477
0.3585048
0.3584611
0.6333696
0.6332977
0.6331302
20
20
20
20
20
0.08434466
0.08428503
0.08422337
0.08416038
0.08409665
0.08403278
0.08396956
0.08390853
0.08385369
0.08381911
0.3586695
0.3586305
0.3585932
0.358558
0.358525
0.6334172
0.6333756
0.6333158
0.633189
20
20
20
20
20
20
20
20
20
20
20
20
20
20
20
0.3586935
0.358666
0.358637
0.3586085
0.3585824
0.6334541
0.6334204
0.6333826
0.6333335
0.6332438
20
20
20
20
20
20
20
20
20
20
20
20
20
20
20
0.3587615
0.3587293
0.3586984
0.3586695
0.3586437
0.63349
0.6334586
0.6334262
0.6333912
0.6333492
0.7249631
20
20
20
20
20
20
20
20
20
20
20
20
20
20
20
0.3588259
0.3587929
0.3587613
0.3587316
0.358705
0.6335252
0.633495
0.6334641
0.6334325
0.6333994
0.7250214
0.7249832
20
20
20
20
20
20
20
20
20
20
20
20
20
20
20
0.3588841
0.3588517
0.3588203
0.3587906
0.3587633
0.6335586
0.6335293
0.6334994
0.6334689
0.633438
0.7250545
0.7250281
0.7249955
20
20
20
20
20
20
20
20
20
20
20
20
20
20
20
0.3589363
0.3589049
0.3588743
0.3588449
0.3588175
0.6335898
0.6335613
0.6335322
0.6335025
0.6334724
0.7250814
0.7250577
0.7250319
0.7250015
20
20
20
20
20
20
20
20
20
20
20
20
20
20
20
20
20
20
20
20
20
20
20
20
20
20
20
20
20
20
20
20
20
20
20
20
20
20
20
20
20
20
20
20
20
20
20
20
20
20
20
20
20
20
20
20
20
20
20
20
20
20
20
20
20
20
20
20
20
20
0.08376964
0.08367497
0.08357592
0.08347276
0.08336475
0.08325003
0.08312509
0.08298791
0.08284247
0.0827185
0.3576106
20
20
20
20
20
0.08385128
0.083754
0.08365405
0.08355266
0.08345023
0.08334576
0.08323746
0.08312445
0.08301952
0.08297082
0.3580073
0.3574804
20
20
20
20
20
0.08392955
0.08383163
0.08373235
0.08363414
0.08353881
0.08344758
0.08336107
0.08328173
0.08321882
0.08320928
0.3582154
0.3580126
0.3574697
20
20
20
20
20
0.08400476
0.08390831
0.08381131
0.08371696
0.08362811
0.0835473
0.08347715
0.08342089
0.08338615
0.08339222
0.3583579
0.3582429
0.358043
0.3575464
20
20
20
20
20
0.0840772
0.08398418
0.08389101
0.08380119
0.08371794
0.08364448
0.08358409
0.08354063
0.08351931
0.08353107
0.3584593
0.3583839
0.3582776
0.3580978
0.3576848
20
20
20
20
20
0.08414703
0.08405917
0.08397125
0.08388661
0.08380845
0.08373996
0.0836846
0.08364611
0.08362906
0.08363952
0.3585363
0.3584786
0.3584104
0.3583181
0.3581699
0.6330183
20
20
20
20
20
0.08421431
0.08413305
0.08405157
0.08397277
0.0838994
0.08383432
0.08378072
0.08374227
0.0837233
0.08372896
0.358598
0.3585488
0.3584961
0.3584367
0.3583615
0.6332693
0.6330425
20
20
20
20
20
0.08427899
0.08420546
0.08413134
0.08405885
0.0839901
0.08392735
0.08387328
0.08383133
0.08380626
0.08380437
0.3586498
0.3586046
0.3585591
0.3585125
0.3584629
0.6333659
0.6332832
0.6330827
20
20
20
20
20
0.08434094
0.0842759
0.08420968
0.08414372
0.08407938
0.08401815
0.08396191
0.08391352
0.08387808
0.08386537
0.3586932
0.3586509
0.3586096
0.3585696
0.3585304
0.6334173
0.6333714
0.6333002
0.633135
20
20
20
20
20
0.08440001
0.08434365
0.08428536
0.08422583
0.08416562
0.0841053
0.08404565
0.08398806
0.08393623
0.08390297
0.3587272
0.3586896
0.3586533
0.3586186
0.3585862
0.6334539
0.6334189
0.6333775
0.6333183
0.633193
20
20
20
20
20
20
20
20
20
20
20
20
20
20
20
0.3587523
0.3587252
0.3586964
0.3586677
0.3586406
0.6334875
0.6334557
0.6334223
0.6333847
0.633336
0.7249353
20
20
20
20
20
20
20
20
20
20
20
20
20
20
20
0.358817
0.3587858
0.3587554
0.3587263
0.3586998
0.633522
0.6334916
0.6334604
0.6334281
0.6333934
0.7250138
0.7249651
20
20
20
20
20
20
20
20
20
20
20
20
20
20
20
0.3588781
0.3588463
0.3588154
0.358786
0.3587589
0.633556
0.6335266
0.6334966
0.6334659
0.6334345
0.7250512
0.7250231
0.7249847
20
20
20
20
20
20
20
20
20
20
20
20
20
20
20
0.3589334
0.3589022
0.3588717
0.3588425
0.3588151
0.6335884
0.6335599
0.6335307
0.633501
0.6334707
0.72508
0.7250559
0.7250294
0.7249965
20
20
20
20
20
20
20
20
20
20
20
20
20
20
20
0.3589829
0.3589528
0.3589232
0.3588944
0.3588672
0.6336185
0.633591
0.6335627
0.6335337
0.6335041
0.7251056
0.7250827
0.7250588
0.7250327
0.7250021
20
20
20
20
20
20
20
20
20
20
20
20
20
20
20
20
20
20
20
20
20
20
20
20
20
20
20
20
20
20
20
20
20
20
20
20
20
20
20
20
20
20
20
20
20
20
20
20
20
20
20
20
20
20
20
20
20
20
20
20
20
20
20
20
20
20
20
20
20
0.3578748
20
20
20
20
20
0.08385688
0.0837679
0.08367519
0.08357935
0.08348053
0.08337839
0.08327246
0.08316306
0.08305838
0.08299173
0.3580516
0.3577051
20
20
20
20
20
0.08393378
0.08384223
0.08374853
0.08365431
0.0835608
0.08346899
0.08337981
0.08329629
0.08322833
0.08321019
0.358223
0.3580608
0.3576217
20
20
20
20
20
0.08400759
0.08391528
0.08382196
0.08373017
0.08364225
0.0835604
0.08348721
0.0834264
0.08338657
0.08338768
0.3583559
0.3582523
0.3580769
0.3576338
20
20
20
20
20
0.08407859
0.08398756
0.08389616
0.08380756
0.08372472
0.08365062
0.0835885
0.08354242
0.08351822
0.08352746
0.3584568
0.3583837
0.3582826
0.3581133
0.357721
20
20
20
20
20
0.08414703
0.08405917
0.08397125
0.08388661
0.08380845
0.08373996
0.0836846
0.08364611
0.08362906
0.08363952
0.3585363
0.3584786
0.3584104
0.3583181
0.3581699
0.6330183
20
20
20
20
20
0.08421306
0.08413003
0.08404698
0.08396709
0.08389341
0.08382899
0.08377713
0.08374139
0.08372552
0.08373369
0.3586016
0.358552
0.3584984
0.358437
0.3583582
0.6332631
0.6330246
20
20
20
20
20
0.08427671
0.0841999
0.08412289
0.08404844
0.08397915
0.08391771
0.08386708
0.08383061
0.08381209
0.08381537
0.3586577
0.358612
0.3585655
0.3585167
0.3584636
0.633363
0.633272
0.6330486
20
20
20
20
20
0.08433789
0.0842684
0.08419834
0.08412982
0.08406486
0.08400556
0.0839544
0.08391452