/*--------------------------------*- C++ -*----------------------------------*\
| =========                 |                                                 |
| \\      /  F ield         | OpenFOAM: The Open Source CFD Toolbox           |
|  \\    /   O peration     | Version:  2306                                  |
|   \\  /    A nd           | Website:  www.openfoam.com                      |
|    \\/     M anipulation  |                                                 |
\*---------------------------------------------------------------------------*/
FoamFile
{
    version     2.0;
    format      ascii;
    arch        "LSB;label=32;scalar=64";
    class       volScalarField;
    location    "0.9";
    object      rhoCp;
}
// * * * * * * * * * * * * * * * * * * * * * * * * * * * * * * * * * * * * * //

dimensions      [1 -1 -2 -1 0 0 0];

internalField   nonuniform List<scalar> 
52000
(
5346000
5346000
5346000
5346000
5346000
5346000
5346000
5346000
5346000
5346000
5346000
5346000
5346000
5346000
5346000
5346000
5346000
5346000
5346000
5346000
5346000
5346000
5346000
5346000
5346000
5346000
5346000
5346000
5346000
5346000
5346000
5346000
5346000
5346000
5346000
5346000
5346000
5346000
5346000
5346000
5346000
5346000
5346000
5346000
5346000
5346000
5346000
5346000
5346000
5346000
5346000
5346000
5346000
5346000
5346000
5346000
5346000
5346000
5346000
5346000
5346000
5346000
5346000
5346000
5346000
5346000
5346000
5346000
5346000
5346000
5346000
5346000
5346000
5346000
5346000
5346000
5346000
5346000
5346000
5346000
5346000
5346000
5346000
5346000
5346000
5346000
5346000
5346000
5346000
5346000
5346000
5346000
5346000
5346000
5346000
5346000
5346000
5346000
5346000
5346000
5346000
5346000
5346000
5346000
5346000
5346000
5346000
5346000
5346000
5346000
5346000
5346000
5346000
5346000
5346000
5346000
5346000
5346000
5346000
5346000
5346000
5346000
5346000
5346000
5346000
5346000
5346000
5346000
5346000
5346000
5346000
5346000
5346000
5346000
5346000
5346000
5346000
5346000
5346000
5346000
5346000
5346000
5346000
5346000
5346000
5346000
5346000
5346000
5346000
5346000
5346000
5346000
5346000
5346000
5346000
5346000
5346000
5346000
5346000
5346000
5346000
5346000
5346000
5346000
5346000
5346000
5346000
5346000
5346000
5346000
5346000
5346000
5346000
5346000
5346000
5346000
5346000
5346000
5346000
5346000
5346000
5346000
5346000
5346000
5346000
5346000
5346000
5346000
5346000
5346000
5346000
5346000
5346000
5346000
5346000
5346000
5346000
5346000
5346000
5346000
5346000
5346000
5346000
5346000
5346000
5346000
5346000
5346000
5346000
5346000
5346000
5346000
5346000
5346000
5346000
5346000
5346000
5346000
5346000
5346000
5346000
5346000
5346000
5346000
5346000
5346000
5346000
5346000
5346000
5346000
5346000
5346000
5346000
5346000
5346000
5346000
5346000
5346000
5346000
5346000
360.5597
5346000
5346000
5346000
5346000
5346000
5346000
5346000
5346000
5346000
5346000
5346000
5346000
5346000
5346000
5346000
5346000
5346000
5346000
5346000
5346000
5346000
5346000
5346000
5346000
5346000
5346000
5346000
5346000
5346000
5346000
5346000
5346000
5346000
5346000
5346000
5346000
5346000
5346000
5346000
5346000
5346000
5346000
5346000
5346000
5346000
5346000
5346000
5346000
5346000
5346000
5346000
5346000
5346000
5346000
5346000
5346000
5346000
5346000
5346000
5346000
5346000
5346000
5346000
5346000
5346000
363.7438
5346000
5346000
5346000
5346000
5346000
356.8949
363.7978
5346000
5346000
5346000
5346000
5346000
5346000
5346000
5346000
5346000
5346000
5346000
5346000
5346000
5346000
5346000
5346000
5346000
5346000
5346000
5346000
5346000
5346000
5346000
5346000
5346000
5346000
5346000
5346000
5346000
5346000
5346000
5346000
5346000
5346000
5346000
5346000
5346000
5346000
5346000
5346000
5346000
5346000
5346000
5346000
5346000
5346000
5346000
5346000
5346000
5346000
5346000
5346000
5346000
5346000
5346000
5346000
5346000
5346000
5346000
5346000
5346000
5346000
5346000
5346000
5346000
5346000
5346000
5346000
5346000
5346000
365.5164
5346000
5346000
5346000
5346000
5346000
357.6897
371.7639
5346000
5346000
5346000
5346000
5346000
355.9528
357.6978
365.6182
5346000
5346000
5346000
5346000
5346000
5346000
5346000
5346000
5346000
5346000
5346000
5346000
5346000
5346000
5346000
5346000
5346000
5346000
5346000
5346000
5346000
5346000
5346000
5346000
5346000
5346000
5346000
5346000
5346000
5346000
5346000
5346000
5346000
5346000
5346000
5346000
5346000
5346000
5346000
5346000
5346000
5346000
5346000
5346000
5346000
5346000
5346000
5346000
5346000
5346000
5346000
5346000
5346000
5346000
5346000
5346000
5346000
5346000
5346000
5346000
5346000
5346000
5346000
5346000
5346000
5346000
5346000
5346000
5346000
5346000
5346000
5346000
5346000
5346000
5346000
366.5255
5346000
5346000
5346000
5346000
5346000
358.3794
376.8812
5346000
5346000
5346000
5346000
5346000
356.283
360.0623
376.9631
5346000
5346000
5346000
5346000
5346000
355.1762
356.2663
358.3937
366.6843
5346000
5346000
5346000
5346000
5346000
5346000
5346000
5346000
5346000
5346000
5346000
5346000
5346000
5346000
5346000
5346000
5346000
5346000
5346000
5346000
5346000
5346000
5346000
5346000
5346000
5346000
5346000
5346000
5346000
5346000
5346000
5346000
5346000
5346000
5346000
5346000
5346000
5346000
5346000
5346000
5346000
5346000
5346000
5346000
5346000
5346000
5346000
5346000
5346000
5346000
5346000
5346000
5346000
5346000
5346000
5346000
5346000
5346000
5346000
5346000
5346000
5346000
5346000
5346000
5346000
5346000
5346000
5346000
5346000
5346000
5346000
5346000
5346000
5346000
5346000
5346000
5346000
5346000
5346000
5346000
366.9945
5346000
5346000
5346000
5346000
5346000
358.8878
380.0069
5346000
5346000
5346000
5346000
5346000
356.5801
362.1592
384.9332
5346000
5346000
5346000
5346000
5346000
355.3355
357.2374
362.1847
380.2301
5346000
5346000
5346000
5346000
5346000
354.4938
355.3094
356.546
358.9107
367.2276
5346000
5346000
5346000
5346000
5346000
5346000
5346000
5346000
5346000
5346000
5346000
5346000
5346000
5346000
5346000
5346000
5346000
5346000
5346000
5346000
5346000
5346000
5346000
5346000
5346000
5346000
5346000
5346000
5346000
5346000
5346000
5346000
5346000
5346000
5346000
5346000
5346000
5346000
5346000
5346000
5346000
5346000
5346000
5346000
5346000
5346000
5346000
5346000
5346000
5346000
5346000
5346000
5346000
5346000
5346000
5346000
5346000
5346000
5346000
5346000
5346000
5346000
5346000
5346000
5346000
5346000
5346000
5346000
5346000
5346000
5346000
5346000
5346000
5346000
5346000
5346000
5346000
5346000
5346000
5346000
5346000
5346000
5346000
5346000
5346000
366.9945
5346000
5346000
5346000
5346000
5346000
359.1576
381.5015
5346000
5346000
5346000
5346000
5346000
356.8077
363.7279
390.0941
5346000
5346000
5346000
5346000
5346000
355.4761
358.1283
365.6334
390.2966
5346000
5346000
5346000
5346000
5346000
354.583
355.7605
358.114
363.8047
381.9509
5346000
5346000
5346000
5346000
5346000
353.8717
354.555
355.4231
356.7531
359.1915
367.3261
5346000
5346000
5346000
5346000
5346000
5346000
5346000
5346000
5346000
5346000
5346000
5346000
5346000
5346000
5346000
5346000
5346000
5346000
5346000
5346000
5346000
5346000
5346000
5346000
5346000
5346000
5346000
5346000
5346000
5346000
5346000
5346000
5346000
5346000
5346000
5346000
5346000
5346000
5346000
5346000
5346000
5346000
5346000
5346000
5346000
5346000
5346000
5346000
5346000
5346000
5346000
5346000
5346000
5346000
5346000
5346000
5346000
5346000
5346000
5346000
5346000
5346000
5346000
5346000
5346000
5346000
5346000
5346000
5346000
356.109
5346000
5346000
5346000
5346000
5346000
5346000
5346000
5346000
5346000
5346000
5346000
5346000
5346000
5346000
5346000
5346000
5346000
5346000
5346000
5346000
366.5255
5346000
5346000
5346000
5346000
5346000
359.1576
381.5015
5346000
5346000
5346000
5346000
5346000
356.9317
364.5678
392.6476
5346000
5346000
5346000
5346000
5346000
355.5829
358.8195
368.2628
397.0829
5346000
5346000
5346000
5346000
5346000
354.6589
356.1687
359.581
368.3437
393.2225
5346000
5346000
5346000
5346000
5346000
353.9298
354.7947
356.1387
358.7932
364.7231
382.27
5346000
5346000
5346000
5346000
5346000
353.3023
353.9029
354.6022
355.4978
356.8508
359.1996
366.9828
5346000
5346000
5346000
5346000
5346000
5346000
5346000
5346000
5346000
5346000
5346000
5346000
5346000
5346000
5346000
5346000
5346000
5346000
5346000
5346000
5346000
5346000
5346000
5346000
5346000
5346000
5346000
5346000
5346000
5346000
5346000
5346000
5346000
5346000
5346000
5346000
5346000
5346000
5346000
5346000
5346000
5346000
5346000
5346000
5346000
5346000
5346000
5346000
5346000
5346000
5346000
5346000
5346000
5346000
5346000
5346000
5346000
356.1565
5346000
5346000
5346000
5346000
5346000
5346000
5346000
5346000
5346000
5346000
5346000
5346000
5346000
5346000
5346000
355.3863
355.663
5346000
5346000
5346000
5346000
5346000
5346000
5346000
5346000
5346000
5346000
5346000
5346000
5346000
5346000
5346000
5346000
5346000
5346000
5346000
5346000
365.5164
5346000
5346000
5346000
5346000
5346000
358.8878
380.0069
5346000
5346000
5346000
5346000
5346000
356.9317
364.5678
392.6476
5346000
5346000
5346000
5346000
5346000
355.641
359.1985
369.6862
400.5232
5346000
5346000
5346000
5346000
5346000
354.7152
356.4835
360.736
371.8612
400.9927
5346000
5346000
5346000
5346000
5346000
353.9775
355.0057
356.7994
360.731
369.9109
393.7809
5346000
5346000
5346000
5346000
5346000
353.3462
354.051
354.9717
356.4154
359.1572
364.8145
381.1881
5346000
5346000
5346000
5346000
5346000
352.7749
353.3212
353.9228
354.6239
355.5153
356.8133
358.9223
366.1303
5346000
5346000
5346000
5346000
5346000
5346000
5346000
5346000
5346000
5346000
5346000
5346000
5346000
5346000
5346000
5346000
5346000
5346000
5346000
5346000
5346000
5346000
5346000
5346000
5346000
5346000
5346000
5346000
5346000
5346000
5346000
5346000
5346000
5346000
5346000
5346000
5346000
5346000
5346000
5346000
5346000
5346000
5346000
5346000
356.2553
5346000
5346000
5346000
5346000
5346000
5346000
5346000
5346000
5346000
5346000
5346000
5346000
5346000
5346000
5346000
355.4153
355.7184
5346000
5346000
5346000
5346000
5346000
5346000
5346000
5346000
5346000
5346000
5346000
5346000
5346000
5346000
5346000
354.7063
354.978
355.2114
5346000
5346000
5346000
5346000
5346000
5346000
5346000
5346000
5346000
5346000
5346000
5346000
5346000
5346000
5346000
5346000
5346000
5346000
5346000
5346000
363.7438
5346000
5346000
5346000
5346000
5346000
358.3794
376.8812
5346000
5346000
5346000
5346000
5346000
356.8077
363.7279
390.0941
5346000
5346000
5346000
5346000
5346000
355.641
359.1985
369.6862
400.5232
5346000
5346000
5346000
5346000
5346000
354.7454
356.6559
361.3746
373.7845
404.9587
5346000
5346000
5346000
5346000
5346000
354.0119
355.1647
357.3166
362.2754
373.9711
401.7529
5346000
5346000
5346000
5346000
5346000
353.3812
354.1773
355.3038
357.2758
361.3689
370.095
391.9481
5346000
5346000
5346000
5346000
5346000
352.8114
353.4285
354.1439
355.0852
356.5352
359.1251
364.0436
378.5714
5346000
5346000
5346000
5346000
5346000
352.2851
352.7886
353.3304
353.9237
354.6107
355.4623
356.6312
358.3697
364.5746
5346000
5346000
5346000
5346000
5346000
5346000
5346000
5346000
5346000
5346000
5346000
5346000
5346000
5346000
5346000
5346000
5346000
5346000
5346000
5346000
5346000
5346000
5346000
5346000
5346000
5346000
5346000
5346000
5346000
5346000
356.4253
5346000
5346000
5346000
5346000
5346000
5346000
5346000
5346000
5346000
5346000
5346000
5346000
5346000
5346000
5346000
355.4726
355.8392
5346000
5346000
5346000
5346000
5346000
5346000
5346000
5346000
5346000
5346000
5346000
5346000
5346000
5346000
5346000
354.7298
355.0067
355.2732
5346000
5346000
5346000
5346000
5346000
5346000
5346000
5346000
5346000
5346000
5346000
5346000
5346000
5346000
5346000
354.0735
354.3471
354.5669
354.7502
5346000
5346000
5346000
5346000
5346000
5346000
5346000
5346000
5346000
5346000
5346000
5346000
5346000
5346000
5346000
5346000
5346000
5346000
5346000
5346000
360.5597
5346000
5346000
5346000
5346000
5346000
357.6897
371.7639
5346000
5346000
5346000
5346000
5346000
356.5801
362.1592
384.9332
5346000
5346000
5346000
5346000
5346000
355.5829
358.8195
368.2628
397.0829
5346000
5346000
5346000
5346000
5346000
354.7454
356.6559
361.3746
373.7845
404.9587
5346000
5346000
5346000
5346000
5346000
354.0301
355.2506
357.6023
363.1357
376.2054
405.8281
5346000
5346000
5346000
5346000
5346000
353.4059
354.2699
355.5581
357.9578
363.1454
374.2381
399.3119
5346000
5346000
5346000
5346000
5346000
352.8401
353.5176
354.3364
355.5066
357.5022
361.3518
368.8377
387.6237
5346000
5346000
5346000
5346000
5346000
352.3173
352.8759
353.4863
354.191
355.1083
356.4584
358.6733
362.4685
374.0795
5346000
5346000
5346000
5346000
5346000
351.8277
352.2965
352.7934
353.3237
353.8997
354.5553
355.3323
356.3085
357.5587
361.7692
5346000
5346000
5346000
5346000
5346000
5346000
5346000
5346000
5346000
5346000
5346000
5346000
5346000
5346000
5346000
356.7688
5346000
5346000
5346000
5346000
5346000
5346000
5346000
5346000
5346000
5346000
5346000
5346000
5346000
5346000
5346000
355.5581
356.064
5346000
5346000
5346000
5346000
5346000
5346000
5346000
5346000
5346000
5346000
5346000
5346000
5346000
5346000
5346000
354.7755
355.0628
355.4101
5346000
5346000
5346000
5346000
5346000
5346000
5346000
5346000
5346000
5346000
5346000
5346000
5346000
5346000
5346000
354.0943
354.3682
354.5954
354.8162
5346000
5346000
5346000
5346000
5346000
5346000
5346000
5346000
5346000
5346000
5346000
5346000
5346000
5346000
5346000
353.4945
353.7599
353.9861
354.1504
354.2873
5346000
5346000
5346000
5346000
5346000
5346000
5346000
5346000
5346000
5346000
5346000
5346000
5346000
5346000
5346000
5346000
5346000
5346000
5346000
5346000
5346000
5346000
5346000
5346000
5346000
356.8949
363.7978
5346000
5346000
5346000
5346000
5346000
356.283
360.0623
376.9631
5346000
5346000
5346000
5346000
5346000
355.4761
358.1283
365.6334
390.2966
5346000
5346000
5346000
5346000
5346000
354.7152
356.4835
360.736
371.8612
400.9927
5346000
5346000
5346000
5346000
5346000
354.0301
355.2506
357.6023
363.1357
376.2054
405.8281
5346000
5346000
5346000
5346000
5346000
353.4187
354.3191
355.6967
358.3374
364.1398
376.5216
403.0691
5346000
5346000
5346000
5346000
5346000
352.8601
353.5812
354.4798
355.8337
358.2758
363.1465
372.5824
393.6448
5346000
5346000
5346000
5346000
5346000
352.3425
352.9472
353.6182
354.4276
355.5689
357.4111
360.6449
366.2723
380.575
5346000
5346000
5346000
5346000
5346000
351.8571
352.3729
352.9183
353.507
354.1772
355.0206
356.1702
357.8346
360.2206
366.9321
5346000
5346000
5346000
5346000
5346000
351.3998
351.838
352.2998
352.7843
353.297
353.8463
354.4526
355.1222
355.8447
356.4612
358.5193
5346000
5346000
5346000
5346000
5346000
5346000
5346000
5346000
5346000
5346000
5346000
5346000
5346000
5346000
5346000
355.6492
356.5342
5346000
5346000
5346000
5346000
5346000
5346000
5346000
5346000
5346000
5346000
5346000
5346000
5346000
5346000
5346000
354.8398
355.1436
355.6667
5346000
5346000
5346000
5346000
5346000
5346000
5346000
5346000
5346000
5346000
5346000
5346000
5346000
5346000
5346000
354.1343
354.4069
354.6511
354.9625
5346000
5346000
5346000
5346000
5346000
5346000
5346000
5346000
5346000
5346000
5346000
5346000
5346000
5346000
5346000
353.5137
353.7777
354.0051
354.1788
354.3553
5346000
5346000
5346000
5346000
5346000
5346000
5346000
5346000
5346000
5346000
5346000
5346000
5346000
5346000
5346000
352.9539
353.2202
353.4448
353.621
353.7363
354.0155
5346000
5346000
5346000
5346000
5346000
5346000
5346000
5346000
5346000
5346000
5346000
5346000
5346000
5346000
5346000
5346000
5346000
5346000
5346000
5346000
5346000
5346000
5346000
5346000
5346000
5346000
5346000
5346000
5346000
5346000
355.9528
357.6978
365.6182
5346000
5346000
5346000
5346000
5346000
355.3355
357.2374
362.1847
380.2301
5346000
5346000
5346000
5346000
5346000
354.6589
356.1687
359.581
368.3437
393.2225
5346000
5346000
5346000
5346000
5346000
354.0119
355.1647
357.3166
362.2754
373.9711
401.7529
5346000
5346000
5346000
5346000
5346000
353.4187
354.3191
355.6967
358.3374
364.1398
376.5216
403.0691
5346000
5346000
5346000
5346000
5346000
352.8704
353.6145
354.5567
356.0134
358.7088
364.153
374.6401
396.6754
5346000
5346000
5346000
5346000
5346000
352.36
352.9973
353.7139
354.6063
355.9304
358.1783
362.2352
369.218
384.7284
5346000
5346000
5346000
5346000
5346000
351.8799
352.4347
353.022
353.6644
354.4265
355.4579
356.9827
359.3259
362.6999
370.2718
5346000
5346000
5346000
5346000
5346000
351.4269
351.9074
352.4082
352.9286
353.4808
354.0908
354.8117
355.6781
356.677
357.4768
360.436
5346000
5346000
5346000
5346000
5346000
350.9981
351.4094
351.8407
352.2903
352.758
353.2471
353.7593
354.2967
354.8168
355.1694
355.4987
357.8835
5346000
5346000
5346000
5346000
5346000
5346000
5346000
5346000
5346000
5346000
5346000
5346000
5346000
5346000
5346000
354.8808
355.2215
356.1664
5346000
5346000
5346000
5346000
5346000
5346000
5346000
5346000
5346000
5346000
5346000
5346000
5346000
5346000
5346000
354.1895
354.4532
354.7308
355.2308
5346000
5346000
5346000
5346000
5346000
5346000
5346000
5346000
5346000
5346000
5346000
5346000
5346000
5346000
5346000
353.5505
353.8095
354.0389
354.2347
354.5047
5346000
5346000
5346000
5346000
5346000
5346000
5346000
5346000
5346000
5346000
5346000
5346000
5346000
5346000
5346000
352.9718
353.2363
353.46
353.6386
353.7647
354.0831
5346000
5346000
5346000
5346000
5346000
5346000
5346000
5346000
5346000
5346000
5346000
5346000
5346000
5346000
5346000
352.4514
352.7128
352.9445
353.1262
353.2594
353.4949
353.9814
5346000
5346000
5346000
5346000
5346000
5346000
5346000
5346000
5346000
5346000
5346000
5346000
5346000
5346000
5346000
5346000
5346000
5346000
5346000
5346000
5346000
5346000
5346000
5346000
5346000
5346000
5346000
5346000
5346000
5346000
5346000
5346000
5346000
5346000
5346000
355.1762
356.2663
358.3937
366.6843
5346000
5346000
5346000
5346000
5346000
354.583
355.7605
358.114
363.8047
381.9509
5346000
5346000
5346000
5346000
5346000
353.9775
355.0057
356.7994
360.731
369.9109
393.7809
5346000
5346000
5346000
5346000
5346000
353.4059
354.2699
355.5581
357.9578
363.1454
374.2381
399.3119
5346000
5346000
5346000
5346000
5346000
352.8704
353.6145
354.5567
356.0134
358.7088
364.153
374.6401
396.6754
5346000
5346000
5346000
5346000
5346000
352.3689
353.0231
353.7641
354.7028
356.1304
358.6094
363.1269
370.8269
386.7745
5346000
5346000
5346000
5346000
5346000
351.8958
352.4778
353.0957
353.7798
354.6172
355.8052
357.6428
360.5342
364.6134
372.3631
5346000
5346000
5346000
5346000
5346000
351.4481
351.9633
352.4973
353.0499
353.6407
354.3152
355.1609
356.2466
357.559
358.5441
361.9547
5346000
5346000
5346000
5346000
5346000
351.0234
351.4736
351.9389
352.4146
352.8994
353.3997
353.9232
354.4774
354.9968
355.2564
355.7672
359.4094
5346000
5346000
5346000
5346000
5346000
350.6205
351.0072
351.4118
351.8315
352.2653
352.7117
353.1703
353.632
354.067
354.3297
354.4264
355.2006
357.2329
5346000
5346000
5346000
5346000
5346000
5346000
5346000
5346000
5346000
5346000
5346000
5346000
5346000
5346000
5346000
354.2151
354.4512
354.8131
355.7113
5346000
5346000
5346000
5346000
5346000
5346000
5346000
5346000
5346000
5346000
5346000
5346000
5346000
5346000
5346000
353.6011
353.8435
354.0755
354.3162
354.7704
5346000
5346000
5346000
5346000
5346000
5346000
5346000
5346000
5346000
5346000
5346000
5346000
5346000
5346000
5346000
353.0064
353.2648
353.4857
353.6697
353.8213
354.231
5346000
5346000
5346000
5346000
5346000
5346000
5346000
5346000
5346000
5346000
5346000
5346000
5346000
5346000
5346000
352.4684
352.7278
352.958
353.1396
353.2762
353.5231
354.0489
5346000
5346000
5346000
5346000
5346000
5346000
5346000
5346000
5346000
5346000
5346000
5346000
5346000
5346000
5346000
351.9805
352.2381
352.4702
352.6655
352.8111
353.0482
353.4645
353.9479
5346000
5346000
5346000
5346000
5346000
5346000
5346000
5346000
5346000
5346000
5346000
5346000
5346000
5346000
5346000
5346000
5346000
5346000
5346000
5346000
5346000
5346000
5346000
5346000
5346000
5346000
5346000
5346000
5346000
5346000
5346000
5346000
5346000
5346000
5346000
5346000
5346000
5346000
5346000
5346000
354.4938
355.3094
356.546
358.9107
367.2276
5346000
5346000
5346000
5346000
5346000
353.9298
354.7947
356.1387
358.7932
364.7231
382.27
5346000
5346000
5346000
5346000
5346000
353.3812
354.1773
355.3038
357.2758
361.3689
370.095
391.9481
5346000
5346000
5346000
5346000
5346000
352.8601
353.5812
354.4798
355.8337
358.2758
363.1465
372.5824
393.6448
5346000
5346000
5346000
5346000
5346000
352.3689
353.0231
353.7641
354.7028
356.1304
358.6094
363.1269
370.8269
386.7745
5346000
5346000
5346000
5346000
5346000
351.9039
352.4999
353.134
353.841
354.721
355.9987
358.0154
361.2122
365.6539
373.3836
5346000
5346000
5346000
5346000
5346000
351.4627
352.0021
352.56
353.1369
353.7595
354.4899
355.4449
356.7216
358.296
359.3975
362.9797
5346000
5346000
5346000
5346000
5346000
351.0431
351.5252
352.0192
352.5178
353.0196
353.5358
354.084
354.6847
355.2664
355.5347
356.1551
360.6761
5346000
5346000
5346000
5346000
5346000
350.6441
351.0671
351.5026
351.9438
352.3859
352.8245
353.2564
353.6663
354.0097
354.1179
354.311
355.4164
358.4443
5346000
5346000
5346000
5346000
5346000
350.2648
350.6291
351.0095
351.4032
351.808
352.2223
352.6422
353.0599
353.4432
353.6776
353.7089
354.1852
354.8666
356.561
5346000
5346000
5346000
5346000
5346000
5346000
5346000
5346000
5346000
5346000
5346000
5346000
5346000
5346000
5346000
353.6228
353.8198
354.0677
354.409
355.2094
5346000
5346000
5346000
5346000
5346000
5346000
5346000
5346000
5346000
5346000
5346000
5346000
5346000
5346000
5346000
353.054
353.2944
353.5079
353.7037
353.9062
354.4897
5346000
5346000
5346000
5346000
5346000
5346000
5346000
5346000
5346000
5346000
5346000
5346000
5346000
5346000
5346000
352.5012
352.7544
352.9803
353.1617
353.3065
353.5798
354.1965
5346000
5346000
5346000
5346000
5346000
5346000
5346000
5346000
5346000
5346000
5346000
5346000
5346000
5346000
5346000
351.9967
352.2523
352.4827
352.6771
352.8235
353.0647
353.4927
354.0153
5346000
5346000
5346000
5346000
5346000
5346000
5346000
5346000
5346000
5346000
5346000
5346000
5346000
5346000
5346000
351.5394
351.7905
352.0233
352.2245
352.3899
352.6261
353.0214
353.4347
353.9137
5346000
5346000
5346000
5346000
5346000
5346000
5346000
5346000
5346000
5346000
5346000
5346000
5346000
5346000
5346000
5346000
5346000
5346000
5346000
5346000
5346000
5346000
5346000
5346000
5346000
5346000
5346000
5346000
5346000
5346000
5346000
5346000
5346000
5346000
5346000
5346000
5346000
5346000
5346000
5346000
5346000
5346000
5346000
5346000
5346000
353.8717
354.555
355.4231
356.7531
359.1915
367.3261
5346000
5346000
5346000
5346000
5346000
353.3462
354.051
354.9717
356.4154
359.1572
364.8145
381.1881
5346000
5346000
5346000
5346000
5346000
352.8401
353.5176
354.3364
355.5066
357.5022
361.3518
368.8377
387.6237
5346000
5346000
5346000
5346000
5346000
352.36
352.9973
353.7139
354.6063
355.9304
358.1783
362.2352
369.218
384.7284
5346000
5346000
5346000
5346000
5346000
351.9039
352.4999
353.134
353.841
354.721
355.9987
358.0154
361.2122
365.6539
373.3836
5346000
5346000
5346000
5346000
5346000
351.4702
352.0219
352.5923
353.1824
353.823
354.586
355.6051
356.9929
358.714
359.8665
363.4939
5346000
5346000
5346000
5346000
5346000
351.0568
351.561
352.0754
352.591
353.1069
353.6391
354.215
354.8678
355.5216
355.8135
356.494
361.5487
5346000
5346000
5346000
5346000
5346000
350.6627
351.1153
351.5768
352.0365
352.4871
352.9227
353.3415
353.7308
354.048
354.1107
354.3445
355.7258
359.4824
5346000
5346000
5346000
5346000
5346000
350.287
350.6853
351.0943
351.5071
351.9168
352.3169
352.6974
353.0418
353.3044
353.3776
353.4809
354.0898
355.0521
357.516
5346000
5346000
5346000
5346000
5346000
349.9293
350.273
350.6313
351.0014
351.3812
351.7681
352.1586
352.5433
352.8959
353.1124
353.1402
353.5027
353.9205
354.5052
355.8859
5346000
5346000
5346000
5346000
5346000
5346000
5346000
5346000
5346000
5346000
5346000
5346000
5346000
5346000
5346000
353.0757
353.2676
353.4749
353.7067
354.0118
354.9012
5346000
5346000
5346000
5346000
5346000
5346000
5346000
5346000
5346000
5346000
5346000
5346000
5346000
5346000
5346000
352.5467
352.7822
352.9977
353.1797
353.343
353.6664
354.4542
5346000
5346000
5346000
5346000
5346000
5346000
5346000
5346000
5346000
5346000
5346000
5346000
5346000
5346000
5346000
352.0281
352.2778
352.5034
352.6956
352.8442
353.0951
353.5493
354.1625
5346000
5346000
5346000
5346000
5346000
5346000
5346000
5346000
5346000
5346000
5346000
5346000
5346000
5346000
5346000
351.5549
351.8042
352.0353
352.2353
352.4005
352.6382
353.0379
353.4629
353.981
5346000
5346000
5346000
5346000
5346000
5346000
5346000
5346000
5346000
5346000
5346000
5346000
5346000
5346000
5346000
351.1245
351.369
351.5991
351.8056
351.982
352.2269
352.6024
352.9952
353.4044
353.8809
5346000
5346000
5346000
5346000
5346000
5346000
5346000
5346000
5346000
5346000
5346000
5346000
5346000
5346000
5346000
5346000
5346000
5346000
5346000
5346000
5346000
5346000
5346000
5346000
5346000
5346000
5346000
5346000
5346000
5346000
5346000
5346000
5346000
5346000
5346000
5346000
5346000
5346000
5346000
5346000
5346000
5346000
5346000
5346000
5346000
5346000
5346000
5346000
5346000
5346000
353.3023
353.9029
354.6022
355.4978
356.8508
359.1996
366.9828
5346000
5346000
5346000
5346000
5346000
352.8114
353.4285
354.1439
355.0852
356.5352
359.1251
364.0436
378.5714
5346000
5346000
5346000
5346000
5346000
352.3425
352.9472
353.6182
354.4276
355.5689
357.4111
360.6449
366.2723
380.575
5346000
5346000
5346000
5346000
5346000
351.8958
352.4778
353.0957
353.7798
354.6172
355.8052
357.6428
360.5342
364.6134
372.3631
5346000
5346000
5346000
5346000
5346000
351.4702
352.0219
352.5923
353.1824
353.823
354.586
355.6051
356.9929
358.714
359.8665
363.4939
5346000
5346000
5346000
5346000
5346000
351.0638
351.5793
352.1043
352.6288
353.1528
353.695
354.289
354.9749
355.6742
355.9806
356.6866
361.9905
5346000
5346000
5346000
5346000
5346000
350.6755
351.1487
351.6286
352.1019
352.5594
352.9955
353.411
353.7975
354.1161
354.1644
354.4179
355.9982
360.211
5346000
5346000
5346000
5346000
5346000
350.3044
350.7305
351.1635
351.5926
352.0073
352.3979
352.752
353.0527
353.2571
353.2715
353.3937
354.1066
355.3012
358.3508
5346000
5346000
5346000
5346000
5346000
349.9503
350.3257
350.7108
351.0985
351.4819
351.8531
352.2017
352.509
352.738
352.8003
352.8896
353.3162
353.8545
354.6724
356.6257
5346000
5346000
5346000
5346000
5346000
349.6127
349.9371
350.275
350.6236
350.9808
351.3439
351.7091
352.0683
352.3963
352.6047
352.6378
352.959
353.2794
353.6383
354.1373
355.4991
5346000
5346000
5346000
5346000
5346000
5346000
5346000
5346000
5346000
5346000
5346000
5346000
5346000
5346000
5346000
352.5697
352.7583
352.9606
353.1562
353.3644
353.7782
354.8625
5346000
5346000
5346000
5346000
5346000
5346000
5346000
5346000
5346000
5346000
5346000
5346000
5346000
5346000
5346000
352.0718
352.3048
352.5194
352.7084
352.8639
353.134
353.636
354.4193
5346000
5346000
5346000
5346000
5346000
5346000
5346000
5346000
5346000
5346000
5346000
5346000
5346000
5346000
5346000
351.585
351.8286
352.055
352.2521
352.4173
352.6589
353.0682
353.5194
354.1278
5346000
5346000
5346000
5346000
5346000
5346000
5346000
5346000
5346000
5346000
5346000
5346000
5346000
5346000
5346000
351.1394
351.3821
351.6106
351.8158
351.9917
352.2371
352.6145
353.0117
353.4325
353.948
5346000
5346000
5346000
5346000
5346000
5346000
5346000
5346000
5346000
5346000
5346000
5346000
5346000
5346000
5346000
350.734
350.9707
351.1972
351.4048
351.5908
351.8374
352.2058
352.5792
352.9685
353.3753
353.8441
5346000
5346000
5346000
5346000
5346000
5346000
5346000
5346000
5346000
5346000
5346000
5346000
5346000
5346000
5346000
5346000
5346000
5346000
5346000
5346000
5346000
5346000
5346000
5346000
5346000
5346000
5346000
5346000
5346000
5346000
5346000
5346000
5346000
5346000
5346000
5346000
5346000
5346000
5346000
5346000
5346000
5346000
5346000
5346000
5346000
5346000
5346000
5346000
5346000
5346000
5346000
5346000
5346000
5346000
5346000
352.7749
353.3212
353.9228
354.6239
355.5153
356.8133
358.9223
366.1303
5346000
5346000
5346000
5346000
5346000
352.3173
352.8759
353.4863
354.191
355.1083
356.4584
358.6733
362.4685
374.0795
5346000
5346000
5346000
5346000
5346000
351.8799
352.4347
353.022
353.6644
354.4265
355.4579
356.9827
359.3259
362.6999
370.2718
5346000
5346000
5346000
5346000
5346000
351.4627
352.0021
352.56
353.1369
353.7595
354.4899
355.4449
356.7216
358.296
359.3975
362.9797
5346000
5346000
5346000
5346000
5346000
351.0638
351.5793
352.1043
352.6288
353.1528
353.695
354.289
354.9749
355.6742
355.9806
356.6866
361.9905
5346000
5346000
5346000
5346000
5346000
350.6821
351.1657
351.6551
352.1355
352.597
353.0343
353.4501
353.839
354.1636
354.2076
354.4693
356.1539
360.5832
5346000
5346000
5346000
5346000
5346000
350.3165
350.7618
351.2118
351.6528
352.0716
352.4571
352.7964
353.0748
353.2536
353.242
353.3691
354.1581
355.5194
358.9454
5346000
5346000
5346000
5346000
5346000
349.9667
350.3682
350.7758
351.1784
351.5655
351.9253
352.2442
352.5014
352.6642
352.6652
352.766
353.2347
353.865
354.8755
357.2788
5346000
5346000
5346000
5346000
5346000
349.6324
349.9867
350.3498
350.7149
351.0751
351.4229
351.7474
352.0318
352.2419
352.3081
352.3957
352.7546
353.1387
353.6042
354.2922
356.1393
5346000
5346000
5346000
5346000
5346000
349.3136
349.62
349.9389
350.2678
350.6042
350.9458
351.2889
351.6256
351.9342
352.1346
352.1797
352.476
352.7647
353.0432
353.3559
353.9159
355.4518
5346000
5346000
5346000
5346000
5346000
5346000
5346000
5346000
5346000
5346000
5346000
5346000
5346000
5346000
5346000
352.0961
352.2857
352.485
352.679
352.8585
353.1663
353.7483
354.8243
5346000
5346000
5346000
5346000
5346000
5346000
5346000
5346000
5346000
5346000
5346000
5346000
5346000
5346000
5346000
351.6272
351.8553
352.071
352.2634
352.4311
352.6809
353.1074
353.6063
354.3835
5346000
5346000
5346000
5346000
5346000
5346000
5346000
5346000
5346000
5346000
5346000
5346000
5346000
5346000
5346000
351.1683
351.4058
351.6297