/*--------------------------------*- C++ -*----------------------------------*\
| =========                 |                                                 |
| \\      /  F ield         | OpenFOAM: The Open Source CFD Toolbox           |
|  \\    /   O peration     | Version:  2306                                  |
|   \\  /    A nd           | Website:  www.openfoam.com                      |
|    \\/     M anipulation  |                                                 |
\*---------------------------------------------------------------------------*/
FoamFile
{
    version     2.0;
    format      ascii;
    arch        "LSB;label=32;scalar=64";
    class       volScalarField;
    location    "0.9";
    object      T;
}
// * * * * * * * * * * * * * * * * * * * * * * * * * * * * * * * * * * * * * //

dimensions      [0 0 0 1 0 0 0];

internalField   nonuniform List<scalar> 
52000
(
1142.7
1142.698
1144.336
1142.642
1142.694
1144.335
1142.64
1146.533
1144.317
1142.529
1142.689
1144.333
1142.635
1146.532
1144.316
1142.524
1148.829
1146.532
1144.28
1142.363
1142.683
1144.331
1142.627
1146.531
1144.314
1142.516
1148.828
1146.531
1144.279
1142.355
1151.052
1148.834
1146.531
1144.23
1142.153
1142.677
1144.329
1142.619
1146.529
1144.311
1142.504
1148.827
1146.529
1144.276
1142.34
1151.052
1148.833
1146.53
1144.227
1142.138
1153.149
1151.06
1148.847
1146.534
1144.172
1141.981
1142.67
1144.326
1142.61
1146.527
1144.307
1142.49
1148.825
1146.527
1144.271
1142.319
1151.05
1148.832
1146.527
1144.223
1142.11
1153.148
1151.059
1148.845
1146.531
1144.168
1141.956
1155.106
1153.157
1151.077
1148.869
1146.543
1144.13
1141.87
1142.665
1144.323
1142.601
1146.524
1144.304
1142.474
1148.822
1146.524
1144.266
1142.295
1151.049
1148.829
1146.523
1144.216
1142.072
1153.147
1151.058
1148.843
1146.527
1144.16
1141.906
1155.106
1153.156
1151.076
1148.867
1146.54
1144.123
1141.837
1156.929
1155.114
1153.174
1151.105
1148.904
1146.56
1144.106
1141.769
1142.661
1144.321
1142.593
1146.522
1144.3
1142.459
1148.82
1146.52
1144.26
1142.269
1151.047
1148.826
1146.518
1144.208
1142.032
1153.145
1151.055
1148.838
1146.52
1144.15
1141.832
1155.104
1153.154
1151.073
1148.862
1146.534
1144.111
1141.771
1156.929
1155.113
1153.173
1151.103
1148.901
1146.557
1144.097
1141.729
1158.628
1156.936
1155.13
1153.202
1151.146
1148.942
1146.576
1144.088
1141.684
1142.659
1144.319
1142.587
1146.52
1144.297
1142.445
1148.818
1146.517
1144.254
1142.239
1151.044
1148.823
1146.512
1144.2
1142.002
1153.143
1151.052
1148.833
1146.512
1144.14
1141.738
1155.103
1153.152
1151.069
1148.855
1146.525
1144.094
1141.669
1156.928
1155.112
1153.17
1151.098
1148.895
1146.55
1144.08
1141.649
1158.628
1156.936
1155.129
1153.2
1151.144
1148.94
1146.572
1144.077
1141.639
1160.215
1158.635
1156.951
1155.156
1153.243
1151.19
1148.971
1146.596
1144.078
1141.619
1142.659
1144.318
1142.584
1146.519
1144.294
1142.434
1148.816
1146.514
1144.249
1142.211
1151.042
1148.819
1146.507
1144.189
1141.937
1153.141
1151.049
1148.828
1146.502
1144.131
1129.128
1155.101
1153.149
1151.064
1148.846
1146.511
1144.075
1141.527
1156.926
1155.109
1153.166
1151.092
1148.885
1146.541
1144.055
1141.523
1158.627
1156.934
1155.126
1153.196
1151.138
1148.935
1146.564
1144.056
1141.548
1160.214
1158.634
1156.95
1155.154
1153.241
1151.188
1148.969
1146.591
1144.066
1141.571
1161.698
1160.22
1158.648
1156.975
1155.195
1153.286
1151.222
1149.004
1146.621
1144.08
1141.578
1142.661
1144.318
1142.584
1146.518
1144.293
1142.428
1148.814
1146.512
1144.244
1142.188
1151.04
1148.817
1146.502
1144.178
1141.872
1153.139
1151.046
1148.822
1146.492
1144.11
1117.584
1155.099
1153.146
1151.058
1148.835
1146.491
1142.538
1117.388
1156.925
1155.107
1153.162
1151.083
1148.87
1146.53
1144.024
1141.345
1158.626
1156.932
1155.123
1153.19
1151.129
1148.928
1146.553
1144.023
1141.405
1160.213
1158.633
1156.948
1155.151
1153.236
1151.184
1148.964
1146.582
1144.041
1141.473
1161.698
1160.22
1158.647
1156.974
1155.193
1153.284
1151.221
1149.002
1146.616
1144.067
1141.529
1163.089
1161.704
1160.233
1158.67
1157.011
1155.234
1153.317
1151.258
1149.041
1146.652
1144.094
1141.561
1142.665
1144.319
1142.587
1146.518
1144.293
1142.428
1148.814
1146.511
1144.242
1142.176
1151.039
1148.815
1146.499
1144.169
1141.823
1153.138
1151.043
1148.817
1146.482
1144.085
1111.25
1155.097
1153.144
1151.053
1148.825
1146.471
1139.579
1089.446
1156.923
1155.104
1153.157
1151.072
1148.845
1145.889
1139.534
1110.882
1158.624
1156.93
1155.119
1153.182
1151.114
1148.92
1146.539
1143.979
1141.203
1160.212
1158.631
1156.945
1155.145
1153.228
1151.178
1148.958
1146.568
1144.002
1141.321
1161.697
1160.219
1158.645
1156.97
1155.188
1153.281
1151.217
1148.997
1146.606
1144.039
1141.428
1163.088
1161.703
1160.232
1158.669
1157.009
1155.233
1153.316
1151.257
1149.039
1146.647
1144.08
1141.512
1164.394
1163.094
1161.715
1160.253
1158.702
1157.047
1155.264
1153.352
1151.297
1149.082
1146.691
1144.12
1141.569
1142.67
1144.321
1142.593
1146.519
1144.294
1142.434
1148.814
1146.511
1144.242
1142.176
1151.038
1148.813
1146.497
1144.164
1141.798
1153.136
1151.041
1148.814
1146.476
1144.065
1107.674
1155.096
1153.141
1151.049
1148.817
1146.453
1137.026
1072.163
1156.921
1155.102
1153.152
1151.063
1148.825
1144.656
1130.806
1071.886
1158.623
1156.928
1155.114
1153.172
1151.089
1148.594
1144.7
1136.927
1107.097
1160.211
1158.629
1156.941
1155.138
1153.214
1151.172
1148.95
1146.55
1143.947
1141.106
1161.696
1160.217
1158.643
1156.965
1155.181
1153.276
1151.213
1148.991
1146.59
1143.997
1141.272
1163.088
1161.702
1160.23
1158.666
1157.005
1155.23
1153.314
1151.254
1149.034
1146.637
1144.053
1141.411
1164.393
1163.093
1161.714
1160.251
1158.701
1157.045
1155.263
1153.351
1151.296
1149.08
1146.686
1144.107
1141.52
1165.62
1164.398
1163.104
1161.733
1160.282
1158.735
1157.073
1155.295
1153.389
1151.338
1149.127
1146.735
1144.159
1141.599
1142.677
1144.323
1142.601
1146.52
1144.297
1142.445
1148.814
1146.512
1144.244
1142.188
1151.038
1148.813
1146.497
1144.164
1141.798
1153.136
1151.04
1148.812
1146.472
1144.053
1106.019
1155.095
1153.14
1151.046
1148.81
1146.439
1135.152
1061.852
1156.92
1155.1
1153.148
1151.055
1148.81
1143.552
1123.17
1045.963
1158.621
1156.925
1155.11
1153.163
1151.07
1148
1141.077
1123.048
1061.11
1160.21
1158.627
1156.937
1155.129
1153.19
1150.977
1148.08
1143.626
1134.973
1105.165
1161.695
1160.215
1158.639
1156.959
1155.168
1153.271
1151.208
1148.982
1146.567
1143.936
1141.053
1163.087
1161.701
1160.228
1158.661
1156.998
1155.226
1153.31
1151.25
1149.027
1146.62
1144.009
1141.257
1164.393
1163.092
1161.712
1160.249
1158.697
1157.043
1155.26
1153.349
1151.293
1149.076
1146.676
1144.081
1141.422
1165.62
1164.398
1163.103
1161.732
1160.28
1158.734
1157.072
1155.294
1153.388
1151.337
1149.125
1146.731
1144.148
1141.551
1166.774
1165.624
1164.408
1163.12
1161.76
1160.311
1158.759
1157.102
1155.329
1153.428
1151.382
1149.175
1146.785
1144.209
1141.651
1142.683
1144.326
1142.61
1146.522
1144.3
1142.459
1148.816
1146.514
1144.249
1142.211
1151.039
1148.815
1146.499
1144.169
1141.823
1153.136
1151.04
1148.812
1146.472
1144.053
1106.019
1155.094
1153.139
1151.044
1148.807
1146.432
1134.16
1056.986
1156.919
1155.098
1153.145
1151.049
1148.799
1142.71
1117.52
1029.784
1158.62
1156.923
1155.106
1153.156
1151.056
1147.481
1137.775
1110.692
1029.152
1160.208
1158.625
1156.933
1155.121
1153.173
1150.647
1146.39
1137.792
1117.168
1055.504
1161.694
1160.213
1158.636
1156.951
1155.147
1153.136
1150.735
1147.624
1142.804
1133.871
1104.785
1163.086
1161.699
1160.225
1158.655
1156.986
1155.221
1153.307
1151.245
1149.017
1146.595
1143.948
1141.044
1164.392
1163.091
1161.71
1160.244
1158.691
1157.039
1155.258
1153.346
1151.289
1149.068
1146.659
1144.041
1141.274
1165.619
1164.397
1163.102
1161.729
1160.277
1158.731
1157.07
1155.293
1153.386
1151.335
1149.122
1146.723
1144.125
1141.456
1166.774
1165.624
1164.407
1163.119
1161.758
1160.31
1158.758
1157.101
1155.329
1153.427
1151.382
1149.174
1146.782
1144.199
1141.603
1167.86
1166.778
1165.633
1164.423
1163.145
1161.787
1160.333
1158.785
1157.132
1155.365
1153.469
1151.429
1149.226
1146.84
1144.269
1142.515
1142.689
1144.329
1142.619
1146.524
1144.304
1142.474
1148.818
1146.517
1144.254
1142.239
1151.04
1148.817
1146.502
1144.178
1141.872
1153.136
1151.041
1148.814
1146.476
1144.065
1107.674
1155.094
1153.139
1151.044
1148.807
1146.432
1134.16
1056.986
1156.918
1155.097
1153.144
1151.046
1148.793
1142.251
1114.517
1021.949
1158.619
1156.922
1155.104
1153.151
1151.047
1147.089
1135.226
1101.438
1008.592
1160.207
1158.623
1156.93
1155.114
1153.161
1150.371
1144.87
1132.388
1101.11
1020.182
1161.692
1160.212
1158.632
1156.943
1155.131
1152.922
1149.837
1144.944
1135.233
1113.817
1054.443
1163.084
1161.697
1160.221
1158.648
1156.967
1155.115
1153.007
1150.53
1147.295
1142.368
1133.749
1105.933
1164.391
1163.089
1161.707
1160.239
1158.68
1157.035
1155.255
1153.343
1151.284
1149.058
1146.635
1143.985
1141.074
1165.619
1164.396
1163.1
1161.726
1160.271
1158.728
1157.068
1155.291
1153.384
1151.332
1149.115
1146.709
1144.09
1141.315
1166.773
1165.623
1164.406
1163.117
1161.755
1160.308
1158.757
1157.1
1155.327
1153.426
1151.381
1149.172
1146.777
1144.18
1141.507
1167.86
1166.778
1165.633
1164.422
1163.144
1161.786
1160.333
1158.784
1157.132
1155.364
1153.469
1151.429
1149.226
1146.839
1144.26
1142.449
1168.883
1167.864
1166.786
1165.647
1164.446
1163.17
1161.807
1160.357
1158.813
1157.165
1155.402
1153.511
1151.476
1149.279
1146.899
1145.065
1144.173
1142.694
1144.331
1142.627
1146.527
1144.307
1142.49
1148.82
1146.52
1144.26
1142.269
1151.042
1148.819
1146.507
1144.189
1141.937
1153.138
1151.043
1148.817
1146.482
1144.085
1111.25
1155.095
1153.14
1151.046
1148.81
1146.439
1135.152
1061.852
1156.918
1155.097
1153.144
1151.046
1148.793
1142.251
1114.517
1021.949
1158.619
1156.921
1155.102
1153.148
1151.043
1146.876
1133.833
1096.488
998.4559
1160.206
1158.622
1156.928
1155.11
1153.153
1150.167
1143.701
1128.167
1088.956
997.0754
1161.691
1160.21
1158.629
1156.937
1155.12
1152.752
1149.052
1142.485
1128.131
1095.599
1018.465
1163.083
1161.696
1160.218
1158.641
1156.953
1154.955
1152.454
1149.144
1143.861
1133.82
1113.402
1057.889
1164.39
1163.088
1161.704
1160.232
1158.663
1156.945
1155.034
1152.906
1150.401
1147.157
1142.41
1134.65
1108.846
1165.618
1164.394
1163.097
1161.721
1160.262
1158.724
1157.065
1155.288
1153.381
1151.327
1149.105
1146.688
1144.044
1141.133
1166.772
1165.622
1164.404
1163.114
1161.75
1160.305
1158.754
1157.098
1155.326
1153.425
1151.378
1149.168
1146.767
1144.153
1141.368
1167.859
1166.777
1165.631
1164.42
1163.141
1161.784
1160.331
1158.783
1157.131
1155.364
1153.468
1151.429
1149.226
1146.836
1144.244
1142.305
1168.883
1167.863
1166.786
1165.646
1164.444
1163.169
1161.806
1160.356
1158.812
1157.165
1155.402
1153.512
1151.478
1149.28
1146.898
1145.057
1144.077
1169.846
1168.886
1167.871
1166.799
1165.668
1164.469
1163.188
1161.828
1160.382
1158.842
1157.198
1155.44
1153.555
1151.525
1149.332
1147.602
1146.59
1145.843
1142.698
1144.333
1142.635
1146.529
1144.311
1142.504
1148.822
1146.524
1144.266
1142.295
1151.044
1148.823
1146.512
1144.2
1142.002
1153.139
1151.046
1148.822
1146.492
1144.11
1117.584
1155.096
1153.141
1151.049
1148.817
1146.453
1137.026
1072.163
1156.919
1155.098
1153.145
1151.049
1148.799
1142.71
1117.52
1029.784
1158.619
1156.921
1155.102
1153.148
1151.043
1146.876
1133.833
1096.488
998.4559
1160.206
1158.621
1156.926
1155.108
1153.149
1150.058
1143.062
1125.845
1082.414
985.5698
1161.691
1160.209
1158.627
1156.933
1155.113
1152.63
1148.463
1140.568
1122.531
1081.719
994.84
1163.082
1161.694
1160.215
1158.636
1156.943
1154.832
1151.986
1147.906
1140.664
1125.74
1094.876
1023.991
1164.389
1163.086
1161.701
1160.226
1158.65
1156.812
1154.633
1152.078
1148.671
1143.342
1133.843
1116.04
1066.358
1165.617
1164.393
1163.094
1161.715
1160.246
1158.644
1156.883
1154.975
1152.859
1150.383
1147.259
1142.964
1136.536
1114.225
1166.772
1165.621
1164.401
1163.109
1161.741
1160.302
1158.752
1157.096
1155.324
1153.422
1151.374
1149.16
1146.753
1144.12
1141.198
1167.859
1166.776
1165.629
1164.417
1163.136
1161.781
1160.329
1158.782
1157.13
1155.363
1153.468
1151.428
1149.225
1146.833
1144.224
1142.023
1168.882
1167.863
1166.784
1165.645
1164.442
1163.167
1161.805
1160.355
1158.812
1157.164
1155.402
1153.513
1151.48
1149.283
1146.899
1145.043
1143.848
1169.846
1168.886
1167.871
1166.798
1165.667
1164.468
1163.187
1161.828
1160.382
1158.842
1157.199
1155.441
1153.556
1151.527
1149.335
1147.607
1146.582
1145.721
1170.753
1169.849
1168.894
1167.884
1166.819
1165.69
1164.485
1163.208
1161.851
1160.409
1158.873
1157.233
1155.48
1153.598
1151.573
1149.949
1148.948
1148.115
1147.527
1142.7
1144.335
1142.64
1146.531
1144.314
1142.516
1148.825
1146.527
1144.271
1142.319
1151.047
1148.826
1146.518
1144.208
1142.032
1153.141
1151.049
1148.828
1146.502
1144.131
1129.128
1155.097
1153.144
1151.053
1148.825
1146.471
1139.579
1089.446
1156.92
1155.1
1153.148
1151.055
1148.81
1143.552
1123.17
1045.963
1158.619
1156.922
1155.104
1153.151
1151.047
1147.089
1135.226
1101.438
1008.592
1160.206
1158.621
1156.926
1155.108
1153.149
1150.058
1143.062
1125.845
1082.414
985.5698
1161.69
1160.208
1158.626
1156.931
1155.109
1152.566
1148.146
1139.512
1119.433
1074.219
983.0497
1163.082
1161.693
1160.213
1158.632
1156.936
1154.746
1151.646
1146.961
1138.143
1119.326
1080.734
1001.93
1164.388
1163.085
1161.699
1160.222
1158.641
1156.711
1154.306
1151.362
1147.1
1139.753
1125.709
1099.128
1037.292
1165.616
1164.391
1163.091
1161.709
1160.234
1158.527
1156.557
1154.392
1151.857
1148.517
1143.533
1135.386
1121.559
1081.215
1166.771
1165.619
1164.399
1163.104
1161.727
1160.229
1158.592
1156.842
1154.959
1152.885
1150.499
1147.624
1144.013
1139.348
1124.087
1167.858
1166.775
1165.627
1164.413
1163.128
1161.778
1160.327
1158.78
1157.128
1155.361
1153.466
1151.426
1149.222
1146.828
1144.206
1141.23
1168.882
1167.862
1166.783
1165.642
1164.437
1163.165
1161.803
1160.354
1158.811
1157.164
1155.402
1153.514
1151.482
1149.287
1146.902
1145.037
1143.352
1169.845
1168.885
1167.87
1166.797
1165.665
1164.466
1163.186
1161.827
1160.381
1158.842
1157.199
1155.442
1153.559
1151.532
1149.341
1147.623
1146.571
1145.427
1170.753
1169.849
1168.893
1167.883
1166.818
1165.689
1164.485
1163.208
1161.851
1160.409
1158.873
1157.234
1155.481
1153.601
1151.576
1149.958
1148.962
1148.108
1147.388
1171.606
1170.756
1169.856
1168.905
1167.902
1166.839
1165.705
1164.504
1163.229
1161.876
1160.436
1158.904
1157.268
1155.519
1153.641
1152.113
1151.127
1150.292
1149.641
1149.229
1144.336
1142.642
1146.532
1144.316
1142.524
1148.827
1146.529
1144.276
1142.34
1151.049
1148.829
1146.523
1144.216
1142.072
1153.143
1151.052
1148.833
1146.512
1144.14
1141.738
1155.099
1153.146
1151.058
1148.835
1146.491
1142.538
1117.388
1156.921
1155.102
1153.152
1151.063
1148.825
1144.656
1130.806
1071.886
1158.62
1156.923
1155.106
1153.156
1151.056
1147.481
1137.775
1110.692
1029.152
1160.206
1158.622
1156.928
1155.11
1153.153
1150.167
1143.701
1128.167
1088.956
997.0754
1161.69
1160.208
1158.626
1156.931
1155.109
1152.566
1148.146
1139.512
1119.433
1074.219
983.0497
1163.081
1161.692
1160.212
1158.631
1156.933
1154.702
1151.465
1146.447
1136.744
1115.766
1073.083
990.975
1164.387
1163.084
1161.697
1160.218
1158.635
1156.643
1154.074
1150.832
1145.885
1136.898
1119.232
1086.245
1018.76
1165.615
1164.39
1163.089
1161.705
1160.226
1158.439
1156.296
1153.903
1150.977
1146.8
1139.998
1128.166
1107.991
1059.689
1166.77
1165.618
1164.396
1163.099
1161.716
1160.122
1158.306
1156.375
1154.273
1151.845
1148.756
1144.491
1138.341
1129.557
1105.689
1167.857
1166.773
1165.625
1164.407
1163.115
1161.71
1160.181
1158.558
1156.837
1154.999
1152.999
1150.77
1148.264
1145.559
1143.19
1135.588
1168.881
1167.861
1166.781
1165.638
1164.43
1163.162
1161.801
1160.352
1158.809
1157.162
1155.401
1153.513
1151.483
1149.292
1146.911
1145.13
1142.056
1169.845
1168.884
1167.868
1166.794
1165.661
1164.464
1163.185
1161.826
1160.38
1158.841
1157.199
1155.444
1153.562
1151.538
1149.351
1147.673
1146.577
1144.801
1170.752
1169.848
1168.892
1167.881
1166.816
1165.687
1164.484
1163.207
1161.85
1160.408
1158.873
1157.235
1155.484
1153.605
1151.583
1149.981
1149.002
1148.096
1147.055
1171.606
1170.756
1169.856
1168.905
1167.901
1166.838
1165.705
1164.503
1163.229
1161.875
1160.437
1158.905
1157.27
1155.521
1153.644
1152.123
1151.147
1150.313
1149.633
1149.081
1172.408
1171.609
1170.763
1169.867
1168.923
1167.921
1166.853
1165.722
1164.523
1163.251
1161.901
1160.465
1158.936
1157.303
1155.557
1154.117
1153.147
1152.302
1151.631
1151.168
1150.139
1146.533
1144.317
1142.529
1148.828
1146.531
1144.279
1142.355
1151.05
1148.832
1146.527
1144.223
1142.11
1153.145
1151.055
1148.838
1146.52
1144.15
1141.832
1155.101
1153.149
1151.064
1148.846
1146.511
1144.075
1141.527
1156.923
1155.104
1153.157
1151.072
1148.845
1145.889
1139.534
1110.882
1158.621
1156.925
1155.11
1153.163
1151.07
1148
1141.077
1123.048
1061.11
1160.207
1158.623
1156.93
1155.114
1153.161
1150.371
1144.87
1132.388
1101.11
1020.182
1161.691
1160.209
1158.627
1156.933
1155.113
1152.63
1148.463
1140.568
1122.531
1081.719
994.84
1163.081
1161.692
1160.212
1158.631
1156.933
1154.702
1151.465
1146.447
1136.744
1115.766
1073.083
990.975
1164.387
1163.083
1161.696
1160.217
1158.632
1156.608
1153.953
1150.548
1145.219
1135.305
1115.63
1079.284
1009.664
1165.614
1164.389
1163.088
1161.702
1160.221
1158.38
1156.115
1153.552
1150.315
1145.458
1137.167
1122.405
1097.692
1046.34
1166.769
1165.617
1164.394
1163.094
1161.709
1160.042
1158.08
1155.992
1153.69
1150.919
1147.128
1141.476
1132.858
1120.587
1094.1
1167.856
1166.772
1165.623
1164.403
1163.105
1161.612
1159.922
1158.152
1156.297
1154.312
1152.086
1149.428
1146.192
1142.476
1139.477
1128.75
1168.88
1167.859
1166.778
1165.633
1164.418
1163.099
1161.665
1160.15
1158.556
1156.879
1155.105
1153.217
1151.216
1149.233
1147.862
1146.457
1137.685
1169.844
1168.883
1167.866
1166.79
1165.654
1164.461
1163.183
1161.824
1160.379
1158.84
1157.198
1155.444
1153.565
1151.545
1149.368
1147.923
1146.698
1143.363
1170.752
1169.848
1168.891
1167.879
1166.812
1165.685
1164.482
1163.205
1161.85
1160.408
1158.873
1157.236
1155.487
1153.612
1151.595
1150.046
1149.116
1148.098
1146.373
1171.605
1170.755
1169.855
1168.903
1167.899
1166.837
1165.704
1164.503
1163.228
1161.875
1160.437
1158.906
1157.272
1155.526
1153.652
1152.148
1151.201
1150.37
1149.618
1148.732
1172.408
1171.609
1170.762
1169.867
1168.922
1167.92
1166.853
1165.722
1164.523
1163.251
1161.901
1160.466
1158.937
1157.306
1155.56
1154.127
1153.168
1152.331
1151.657
1151.159
1149.991
1173.161
1172.411
1171.615
1170.773
1169.884
1168.94
1167.935
1166.869
1165.74
1164.544
1163.275
1161.927
1160.494
1158.967
1157.338
1155.979
1155.028
1154.176
1153.472
1152.966
1151.975
1150.236
1148.829
1146.532
1144.28
1142.363
1151.052
1148.833
1146.53
1144.227
1142.138
1153.147
1151.058
1148.843
1146.527
1144.16
1141.906
1155.103
1153.152
1151.069
1148.855
1146.525
1144.094
1141.669
1156.925
1155.107
1153.162
1151.083
1148.87
1146.53
1144.024
1141.345
1158.623
1156.928
1155.114
1153.172
1151.089
1148.594
1144.7
1136.927
1107.097
1160.208
1158.625
1156.933
1155.121
1153.173
1150.647
1146.39
1137.792
1117.168
1055.504
1161.691
1160.21
1158.629
1156.937
1155.12
1152.752
1149.052
1142.485
1128.131
1095.599
1018.465
1163.082
1161.693
1160.213
1158.632
1156.936
1154.746
1151.646
1146.961
1138.143
1119.326
1080.734
1001.93
1164.387
1163.083
1161.696
1160.217
1158.632
1156.608
1153.953
1150.548
1145.219
1135.305
1115.63
1079.284
1009.664
1165.614
1164.389
1163.087
1161.7
1160.218
1158.35
1156.021
1153.368
1149.959
1144.717
1135.582
1119.199
1092.142
1039.879
1166.768
1165.616
1164.393
1163.092
1161.704
1159.989
1157.925
1155.723
1153.265
1150.214
1145.841
1139.039
1128.452
1113.755
1086.96
1167.855
1166.771
1165.621
1164.399
1163.098
1161.538
1159.717
1157.823
1155.85
1153.721
1151.255
1148.134
1144.087
1139.23
1135.591
1123.33
1168.879
1167.858
1166.776
1165.629
1164.409
1163.007
1161.425
1159.782
1158.091
1156.351
1154.538
1152.612
1150.553
1148.588
1147.61
1145.651
1132.313
1169.843
1168.882
1167.864
1166.786
1165.642
1164.402
1163.056
1161.636
1160.149
1158.596
1156.977
1155.292
1153.565
1151.913
1150.852
1150.351
1147.36
1139.925
1170.751
1169.847
1168.889
1167.875
1166.805
1165.683
1164.481
1163.204
1161.848
1160.407
1158.873
1157.237
1155.49
1153.62
1151.614
1150.327
1149.51
1148.179
1144.979
1171.605
1170.754
1169.853
1168.901
1167.896
1166.835
1165.702
1164.501
1163.227
1161.875
1160.437
1158.907
1157.276
1155.532
1153.664
1152.214
1151.342
1150.513
1149.606
1148.052
1172.407
1171.608
1170.761
1169.865
1168.92
1167.919
1166.852
1165.721
1164.523
1163.251
1161.901
1160.467
1158.939
1157.31
1155.567
1154.151
1153.224
1152.407
1151.722
1151.14
1149.644
1173.161
1172.411
1171.615
1170.772
1169.883
1168.94
1167.934
1166.869
1165.74
1164.544
1163.275
1161.927
1160.495
1158.969
1157.341
1155.988
1155.048
1154.207
1153.507
1152.995
1151.966
1150.088
1173.866
1173.164
1172.417
1171.625
1170.789
1169.9
1168.953
1167.95
1166.886
1165.76
1164.565
1163.298
1161.953
1160.522
1158.998
1157.714
1156.786
1155.934
1155.201
1154.636
1153.669
1152.062
1150.334
1151.052
1148.834
1146.531
1144.23
1142.153
1153.148
1151.059
1148.845
1146.531
1144.168
1141.956
1155.104
1153.154
1151.073
1148.862
1146.534
1144.111
1141.771
1156.926
1155.109
1153.166
1151.092
1148.885
1146.541
1144.055
1141.523
1158.624
1156.93
1155.119
1153.182
1151.114
1148.92
1146.539
1143.979
1141.203
1160.21
1158.627
1156.937
1155.129
1153.19
1150.977
1148.08
1143.626
1134.973
1105.165
1161.692
1160.212
1158.632
1156.943
1155.131
1152.922
1149.837
1144.944
1135.233
1113.817
1054.443
1163.082
1161.694
1160.215
1158.636
1156.943
1154.832
1151.986
1147.906
1140.664
1125.74
1094.876
1023.991
1164.387
1163.084
1161.697
1160.218
1158.635
1156.643
1154.074
1150.832
1145.885
1136.898
1119.232
1086.245
1018.76
1165.614
1164.389
1163.087
1161.7
1160.218
1158.35
1156.021
1153.368
1149.959
1144.717
1135.582
1119.199
1092.142
1039.879
1166.768
1165.616
1164.392
1163.09
1161.702
1159.962
1157.845
1155.583
1153.041
1149.831
1145.124
1137.667
1125.994
1110.072
1083.508
1167.855
1166.77
1165.619
1164.396
1163.094
1161.489
1159.577
1157.594
1155.531
1153.285
1150.612
1147.085
1142.335
1136.53
1132.494
1119.688
1168.878
1167.857
1166.774
1165.625
1164.402
1162.938
1161.236
1159.486
1157.711
1155.91
1154.04
1152.025
1149.798
1147.613
1146.631
1144.31
1127.817
1169.842
1168.881
1167.862
1166.782
1165.634
1164.316
1162.832
1161.295
1159.729
1158.146
1156.56
1154.98
1153.456
1152.165
1151.727
1150.98
1146.798
1135.712
1170.75
1169.845
1168.887
1167.871
1166.795
1165.628
1164.362
1163.028
1161.635
1160.186
1158.685
1157.141
1155.583
1154.119
1153.182
1152.911
1151.06
1148.466
1142.273
1171.604
1170.753
1169.852
1168.897
1167.89
1166.832
1165.701
1164.5
1163.226
1161.874
1160.437
1158.908
1157.279
1155.54
1153.681
1152.487
1151.792
1150.908
1149.627
1146.796
1172.407
1171.607
1170.76
1169.863
1168.916
1167.917
1166.851
1165.72
1164.522
1163.251
1161.901
1160.468
1158.942
1157.316
1155.578
1154.214
1153.365
1152.586
1151.87
1151.109
1148.984
1173.16
1172.41
1171.614
1170.771
1169.881
1168.938
1167.933
1166.868
1165.74
1164.544
1163.275
1161.928
1160.497
1158.973
1157.347
1156.011
1155.102
1154.285
1153.595
1153.062
1151.944
1149.743
1173.866
1173.163
1172.416
1171.625
1170.788
1169.9
1168.953
1167.949
1166.886
1165.76
1164.565
1163.299
1161.954
1160.524
1159.001
1157.723
1156.805
1155.964
1155.238
1154.675
1153.698
1152.053
1150.186
1174.526
1173.869
1173.169
1172.426
1171.64
1170.805
1169.913
1168.967
1167.965
1166.904
1165.779
1164.587
1163.323
1161.979
1160.55
1159.336
1158.434
1157.589
1156.836
1156.219
1155.248
1153.745
1152.148
1150.432
1153.149
1151.06
1148.847
1146.534
1144.172
1141.981
1155.106
1153.156
1151.076
1148.867
1146.54
1144.123
1141.837
1156.928
1155.112
1153.17
1151.098
1148.895
1146.55
1144.08
1141.649
1158.626
1156.932
1155.123
1153.19
1151.129
1148.928
1146.553
1144.023
1141.405
1160.211
1158.629
1156.941
1155.138
1153.214
1151.172
1148.95
1146.55
1143.947
1141.106
1161.694
1160.213
1158.636
1156.951
1155.147
1153.136
1150.735
1147.624
1142.804
1133.871
1104.785
1163.083
1161.696
1160.218
1158.641
1156.953
1154.955
1152.454
1149.144
1143.861
1133.82
1113.402
1057.889
1164.388
1163.085
1161.699
1160.222
1158.641
1156.711
1154.306
1151.362
1147.1
1139.753
1125.709
1099.128
1037.292
1165.614
1164.389
1163.088
1161.702
1160.221
1158.38
1156.115
1153.552
1150.315
1145.458
1137.167
1122.405
1097.692
1046.34
1166.768
1165.616
1164.392
1163.09
1161.702
1159.962
1157.845
1155.583
1153.041
1149.831
1145.124
1137.667
1125.994
1110.072
1083.508
1167.855
1166.77
1165.618
1164.395
1163.092
1161.464
1159.506
1157.477
1155.366
1153.053
1150.258
1146.494
1141.337
1135.004
1130.797
1117.868
1168.878
1167.856
1166.773
1165.623
1164.398
1162.892
1161.107
1159.281
1157.444
1155.592
1153.664
1151.548
1149.131
1146.686
1145.632
1143.109
1124.717
1169.842
1168.88
1167.86
1166.779
1165.628
1164.252
1162.655
1161.022
1159.387
1157.776
1156.203
1154.678
1153.239
1152.06
1151.82
1150.961
1145.779
1132.05
1170.749
1169.844
1168.885
1167.867
1166.787
1165.547
1164.151
1162.709
1161.245
1159.78
1158.336
1156.946
1155.673
1154.681
1154.392
1153.958
1151.658
1148.032
1139.002
1171.603
1170.752
1169.85
1168.893
1167.88
1166.781
1165.589
1164.335
1163.027
1161.669
1160.267
1158.833
1157.396
1156.054
1155.181
1154.949
1153.505
1151.923
1149.694
1144.697
1172.406
1171.606
1170.758
1169.86
1168.911
1167.915
1166.849
1165.719
1164.521
1163.25
1161.901
1160.468
1158.945
1157.323
1155.595
1154.467
1153.807
1153.052
1152.205
1151.069
1147.822
1173.16
1172.409
1171.613
1170.769
1169.878
1168.936
1167.932
1166.867
1165.739
1164.543
1163.275
1161.929
1160.5
1158.979
1157.357
1156.069
1155.236
1154.467
1153.784
1153.195
1151.904
1149.085
1173.866
1173.163
1172.416
1171.623
1170.786
1169.899
1168.952
1167.949
1166.886
1165.759
1164.566
1163.3
1161.956
1160.528
1159.007
1157.744
1156.856
1156.039
1155.329
1154.766
1153.763
1152.031
1149.841
1174.526
1173.869
1173.169
1172.426
1171.639
1170.804
1169.912
1168.967
1167.965
1166.904
1165.78
1164.588
1163.324
1161.981
1160.553
1159.344
1158.452
1157.617
1156.872
1156.26
1155.287
1153.773
1152.139
1150.285
1175.142
1174.529
1173.875
1173.179
1172.441
1171.655
1170.816
1169.926
1168.982
1167.982
1166.923
1165.8
1164.61
1163.347
1162.005
1160.856
1159.983
1159.151
1158.388
1157.732
1156.753
1155.313
1153.82
1152.235
1150.53
1155.106
1153.157
1151.077
1148.869
1146.543
1144.13
1141.87
1156.929
1155.113
1153.173
1151.103
1148.901
1146.557
1144.097
1141.729
1158.627
1156.934
1155.126
1153.196
1151.138
1148.935
1146.564
1144.056
1141.548
1160.212
1158.631
1156.945
1155.145
1153.228
1151.178
1148.958
1146.568
1144.002
1141.321
1161.695
1160.215
1158.639
1156.959
1155.168
1153.271
1151.208
1148.982
1146.567
1143.936
1141.053
1163.084
1161.697
1160.221
1158.648
1156.967
1155.115
1153.007
1150.53
1147.295
1142.368
1133.749
1105.933
1164.389
1163.086
1161.701
1160.226
1158.65
1156.812
1154.633
1152.078
1148.671
1143.342
1133.843
1116.04
1066.358
1165.615
1164.39
1163.089
1161.705
1160.226
1158.439
1156.296
1153.903
1150.977
1146.8
1139.998
1128.166
1107.991
1059.689
1166.768
1165.616
1164.393
1163.092
1161.704
1159.989
1157.925
1155.723
1153.265
1150.214
1145.841
1139.039
1128.452
1113.755
1086.96
1167.855
1166.77
1165.618
1164.395
1163.092
1161.464
1159.506
1157.477
1155.366
1153.053
1150.258
1146.494
1141.337
1135.004
1130.797
1117.868
1168.878
1167.856
1166.772
1165.621
1164.396
1162.869
1161.041
1159.176
1157.306
1155.426
1153.461
1151.279
1148.74
1146.13
1145.029
1142.422
1123.15
1169.841
1168.879
1167.859
1166.776
1165.624
1164.209
1162.534
1160.832
1159.148
1157.513
1155.942
1154.432
1153.009
1151.834
1151.663
1150.748
1144.837
1129.466
1170.749
1169.843
1168.883
1167.864
1166.781
1165.486
1163.985
1162.454
1160.93
1159.448
1158.044
1156.759
1155.658
1154.9
1154.859
1154.391
1151.731
1147.254
1136.084
1171.603
1170.751
1169.848
1168.89
1167.872
1166.704
1165.391
1164.035
1162.662
1161.292
1159.954
1158.683
1157.548
1156.689
1156.438
1156.075
1154.436
1152.423
1149.332
1142.217
1172.405
1171.605
1170.756
1169.856
1168.901
1167.866
1166.744
1165.564
1164.333
1163.057
1161.743
1160.402
1159.062
1157.811
1156.978
1156.73
1155.462
1154.224
1152.868
1150.996
1146.004
1173.159
1172.408
1171.611
1170.766
1169.872
1168.935
1167.931
1166.866
1165.738
1164.542
1163.275
1161.93
1160.503
1158.986
1157.372
1156.301
1155.648
1154.93
1154.199
1153.45
1151.834
1147.933
1173.865
1173.162
1172.414
1171.621
1170.783
1169.897
1168.951
1167.948
1166.885
1165.759
1164.566
1163.301
1161.959
1160.533
1159.016
1157.798
1156.98
1156.213
1155.523
1154.946
1153.885
1151.989
1149.186
1174.526
1173.868
1173.168
1172.425
1171.638
1170.803
1169.911
1168.966
1167.965
1166.904
1165.78
1164.589
1163.325
1161.984
1160.558
1159.364
1158.499
1157.688
1156.961
1156.356
1155.377
1153.838
1152.117
1149.94
1175.142
1174.529
1173.874
1173.178
1172.44
1171.655
1170.816
1169.926
1168.982
1167.982
1166.923
1165.8
1164.611
1163.348
1162.007
1160.864
1160
1159.177
1158.422
1157.772
1156.795
1155.353
1153.848
1152.226
1150.383
1175.715
1175.145
1174.534
1173.884
1173.192
1172.455
1171.667
1170.829
1169.94
1168.998
1168
1166.942
1165.821
1164.632
1163.37
1162.283
1161.441
1160.626
1159.863
1159.181
1158.201
1156.81
1155.378
1153.895
1152.322
1150.623
1156.929
1155.114
1153.174
1151.105
1148.904
1146.56
1144.106
1141.769
1158.628
1156.936
1155.129
1153.2
1151.144
1148.94
1146.572
1144.077
1141.639
1160.213
1158.633
1156.948
1155.151
1153.236
1151.184
1148.964
1146.582
1144.041
1141.473
1161.696
1160.217
1158.643
1156.965
1155.181
1153.276
1151.213
1148.991
1146.59
1143.997
1141.272
1163.086
1161.699
1160.225
1158.655
1156.986
1155.221
1153.307
1151.245
1149.017
1146.595
1143.948
1141.044
1164.39
1163.088
1161.704
1160.232
1158.663