/*--------------------------------*- C++ -*----------------------------------*\
| =========                 |                                                 |
| \\      /  F ield         | OpenFOAM: The Open Source CFD Toolbox           |
|  \\    /   O peration     | Version:  2306                                  |
|   \\  /    A nd           | Website:  www.openfoam.com                      |
|    \\/     M anipulation  |                                                 |
\*---------------------------------------------------------------------------*/
FoamFile
{
    version     2.0;
    format      ascii;
    arch        "LSB;label=32;scalar=64";
    class       volVectorField;
    location    "1.2/phiI";
    object      i;
}
// * * * * * * * * * * * * * * * * * * * * * * * * * * * * * * * * * * * * * //

dimensions      [0 -2 0 0 0 1 0];

internalField   nonuniform List<vector> 
12000
(
(33.91272 4.454193 1597.739)
(34.12345 13.1278 1611.742)
(68.0505 6.561503 1468.267)
(34.43061 3.894058 4814.053)
(34.44661 22.12976 1639.907)
(68.35563 18.4667 1477.467)
(34.66055 11.44108 4856.167)
(62.43169 7.505574 1359.069)
(69.00517 6.193488 4424.009)
(35.47289 2.769619 8083.978)
(34.62961 33.16404 1681.975)
(68.84847 27.19135 1495.51)
(35.02419 19.32044 4940.864)
(62.54937 21.10754 1366.151)
(69.338 17.37696 4451.684)
(35.74138 8.055372 8154.902)
(51.65748 7.738237 1271.333)
(63.21943 7.222275 4094.864)
(70.92725 5.454514 7427.61)
(37.05608 1.057114 11440.68)
(34.22274 48.47409 1735.878)
(69.21698 30.92536 1521.199)
(35.27271 29.32519 5067.361)
(62.76683 30.74319 1379.885)
(69.88856 25.44209 4505.961)
(36.18622 13.68201 8297.535)
(51.68276 21.81807 1277.155)
(63.35062 20.27491 4116.169)
(71.31563 15.18861 7474.228)
(37.38324 2.898806 11541.97)
(42.84286 7.758384 1198.301)
(52.30055 7.505364 3830.347)
(64.80634 6.653369 6873.835)
(73.84575 4.328774 10506.88)
(39.20811 -1.282194 14928.65)
(32.70927 65.15374 1793.655)
(68.89204 29.27068 1551.616)
(34.95979 44.00689 5229.376)
(63.01681 33.59977 1399.008)
(70.34884 28.68112 4583.267)
(36.56598 21.62356 8510.561)
(51.74128 31.86581 1288.366)
(63.59541 29.42893 4157.486)
(71.98198 21.92799 7565.675)
(37.95163 5.094074 11745.72)
(42.83413 21.94558 1203.261)
(52.33432 21.13676 3847.861)
(64.96466 18.60265 6909.723)
(74.31871 11.85433 10573.47)
(39.61541 -4.146058 15062.68)
(36.05772 7.650876 1135.366)
(43.38673 7.559961 3610.131)
(53.59641 7.037693 6428.883)
(67.21434 5.786743 9720.019)
(77.8099 2.790863 13700.15)
(41.97009 -4.304224 16728.58)
(30.24149 75.06207 1838.817)
(67.16628 25.34126 1580.609)
(33.56145 61.03616 5402.825)
(63.15504 27.96712 1420.772)
(70.15247 26.89428 4674.865)
(36.44078 35.05555 8783.286)
(51.83267 34.80746 1303.764)
(63.88655 31.9643 4215.055)
(72.6262 24.1692 7696.001)
(38.53095 9.895175 12050.06)
(42.83135 32.24232 1212.769)
(52.40974 30.80143 3881.592)
(65.26431 26.78776 6979.342)
(75.16133 16.57117 10704.14)
(40.35252 -6.64125 15332.34)
(36.03092 21.70291 1139.688)
(43.38399 21.36684 3625.055)
(53.64722 19.76829 6458.383)
(67.414 16.05465 9771.276)
(78.39842 7.298053 13788.26)
(42.48096 -13.24896 16879.4)
(30.89119 7.49042 1080.027)
(36.53082 7.47801 3420.344)
(44.48288 7.161456 6058.505)
(55.56187 6.325356 9088.3)
(70.48065 4.603081 12667.07)
(82.89208 0.8045035 15347.27)
(44.73334 -7.314707 16763.25)
(27.54501 70.59889 1868.492)
(64.0847 23.41953 1600.611)
(31.19432 72.06859 5538.173)
(62.92644 17.08032 1440.112)
(68.58045 23.38148 4762.242)
(35.2716 52.80183 9074.861)
(51.93695 28.36696 1320.85)
(64.07811 26.32294 4280.652)
(72.68694 22.1117 7850.571)
(38.69064 21.43489 12439.64)
(42.85424 35.55641 1225.708)
(52.52587 33.50808 3927.956)
(65.63806 28.67315 7076.429)
(76.08537 17.2853 10890.51)
(41.20419 -6.133338 15735.31)
(35.99314 32.06699 1147.943)
(43.39304 31.34445 3653.663)
(53.75658 28.66199 6515.219)
(67.79724 22.7607 9870.751)
(79.48184 9.246522 13961.23)
(43.4361 -21.81097 17182.88)
(30.85514 21.29978 1083.854)
(36.50855 21.19983 3433.345)
(44.49219 20.20432 6083.641)
(55.63865 17.68331 9130.426)
(70.73683 12.57337 12734.86)
(83.63001 1.411144 15446.37)
(45.34752 -22.3177 16913.49)
(26.85685 7.290372 1030.572)
(31.31037 7.337323 3253.438)
(37.48449 7.13082 5739.334)
(46.14493 6.554541 8562.757)
(58.22546 5.352687 11838.77)
(74.65987 3.074982 14186.26)
(87.97918 -1.172928 15381.32)
(47.49781 -10.31366 16797.9)
(25.36801 49.77919 1885.72)
(60.53782 21.86404 1612.318)
(28.56971 68.72277 5626.911)
(62.15476 8.777516 1452.014)
(65.63191 22.15116 4822.503)
(33.10418 66.09863 9301.949)
(51.97014 15.3385 1335.317)
(63.90761 15.83062 4339.075)
(71.42128 19.43576 7998.218)
(37.86803 40.28963 12855.77)
(42.92359 29.34183 1239.816)
(52.66077 27.10485 3979.481)
(65.93658 23.0063 7187.248)
(76.53662 14.8056 11111.81)
(41.75208 2.827177 16251.26)
(35.96967 35.72994 1159.102)
(43.43289 34.47455 3692.625)
(53.92239 30.89188 6593.424)
(68.29686 23.64802 10009.62)
(80.78795 7.862318 14208.15)
(44.63959 -26.86131 17636.55)
(30.79805 31.62974 1091.147)
(36.47963 31.29044 3458.185)
(44.52497 29.53952 6131.843)
(55.79974 25.3998 9211.625)
(71.23437 17.25404 12866.5)
(85.0247 -0.2246215 15640.96)
(46.5202 -36.92755 17215.84)
(26.81503 20.77149 1034.002)
(31.27788 20.85498 3264.953)
(37.47133 20.18926 5761.231)
(46.1726 18.43331 8598.642)
(58.33775 14.8353 11894.46)
(74.98918 8.077196 14262.48)
(88.86608 -4.449177 15479.97)
(48.21502 -31.3525 16947.56)
(23.66382 7.072221 985.8979)
(27.23336 7.153169 3104.257)
(32.15553 7.029819 5458.654)
(38.93022 6.602122 8110.049)
(48.39588 5.726039 11150.32)
(61.62885 4.097579 13255.76)
(78.84669 1.55426 14218.5)
(93.07109 -3.141604 15415.38)
(50.26341 -13.30115 16832.36)
(24.17862 17.85484 1893.542)
(57.57863 16.11526 1618.536)
(26.43675 48.7772 5678.318)
(61.03245 5.538158 1457.911)
(62.18015 21.14706 4857.702)
(30.62185 64.99311 9450.473)
(51.81592 4.479667 1343.407)
(63.18358 8.065552 4375.098)
(68.737 19.60115 8100.026)
(36.00201 57.04412 13179.35)
(43.02102 15.87008 1251.35)
(52.72519 14.43621 4023.247)
(65.88242 13.30246 7286.267)
(75.73483 13.40326 11323.57)
(41.40037 23.21321 16802.13)
(35.99529 30.03472 1171.114)
(43.52254 28.31615 3735.18)
(54.11883 24.55535 6680.524)
(68.75829 17.92942 10168.44)
(81.77172 4.788954 14501.82)
(45.6884 -21.23791 18217.72)
(30.74533 35.57794 1100.954)
(36.46868 34.80312 3491.788)
(44.59892 32.29573 6197.565)
(56.04133 26.8959 9323.488)
(71.90612 16.76547 13050.5)
(86.82461 -4.338274 15918.9)
(48.0748 -47.52718 17668.01)
(26.74501 30.96889 1040.524)
(31.22772 30.94574 3286.897)
(37.4602 29.72928 5803.082)
(46.24159 26.78747 8667.496)
(58.56959 20.93949 12001.88)
(75.63462 10.13503 14410.52)
(90.57127 -9.654811 15673.69)
(49.60471 -51.99212 17248.8)
(23.61912 20.18139 989.0007)
(27.19444 20.37341 3114.577)
(32.13021 19.96144 5478.047)
(38.93093 18.64991 8141.305)
(48.44867 16.01474 11197.75)
(61.78709 11.15861 13318.36)
(79.24886 3.60316 14294.35)
(94.10653 -10.28356 15513.6)
(51.08335 -40.35375 16981.45)
(21.08261 6.843387 945.1785)
(24.00539 6.948107 2969.47)
(27.99272 6.877567 5207.778)
(33.43659 6.561613 7712.059)
(40.88728 5.880581 10557.69)
(51.26924 4.65742 12482.62)
(65.04004 2.848708 13286.02)
(83.04107 0.04071542 14250.78)
(98.16767 -5.101719 15449.3)
(53.03003 -16.2773 16866.44)
(24.17862 -17.85484 1893.542)
(55.9305 5.960963 1621.208)
(25.26795 17.54199 5701.619)
(59.97627 3.705938 1460.455)
(59.27969 15.75965 4876.339)
(28.57593 46.79086 9536.318)
(51.48735 0.07910034 1346.727)
(62.09482 5.200507 4392.969)
(65.47359 19.7106 8159.372)
(33.73411 59.34802 13390.61)
(43.06937 3.949592 1257.305)
(52.59476 4.023239 4047.829)
(65.25346 6.621787 7347.496)
(73.44972 15.70499 11469.61)
(39.94315 44.70503 17229.95)
(36.08095 16.79628 1180.677)
(43.63958 15.1705 3770.105)
(54.24603 12.60458 6754.844)
(68.88111 9.420708 10310.87)
(81.60087 5.123844 14783.41)
(45.94293 1.142073 18838.16)
(30.73506 30.45465 1111.41)
(36.50892 29.1717 3528.026)
(44.72942 26.24262 6269.525)
(56.33167 20.64807 9448.381)
(72.5903 10.95638 13261.42)
(88.49595 -8.204597 16249.87)
(49.6235 -45.23695 18247.68)
(26.67037 35.10009 1049.26)
(31.18469 34.76742 3316.432)
(37.47444 32.93631 5859.763)
(46.36754 28.96729 8761.499)
(58.91488 21.42163 12150.08)
(76.52913 7.851225 14617.58)
(92.86386 -16.49417 15950.5)
(51.50967 -68.1349 17699.52)
(23.54189 30.18313 994.8906)
(27.13003 30.35856 3134.204)
(32.09397 29.57059 5515.016)
(38.94694 27.34913 8201.075)
(48.56717 23.02526 11288.81)
(62.1105 15.17493 13439.13)
(80.04169 3.050315 14441.66)
(96.1214 -19.04562 15706.47)
(52.68951 -67.00608 17281.59)
(21.03671 19.55214 948.0059)
(23.96311 19.82168 2978.806)
(27.95962 19.57364 5225.157)
(33.42218 18.6005 7739.735)
(40.90696 16.54821 10598.98)
(51.35451 12.89369 12535.91)
(65.24403 7.500767 13348.31)
(83.51582 -0.8494491 14326.28)
(99.3512 -16.09274 15547.1)
(53.95241 -49.32198 17014.97)
(18.96702 6.613222 907.8144)
(21.39494 6.730289 2846.586)
(24.69451 6.698765 4981.093)
(29.14361 6.457982 7356.412)
(35.17008 5.922786 10036.96)
(43.38366 4.950303 11817.23)
(54.15002 3.594185 12510.96)
(68.45901 1.605877 13316.33)
(87.2429 -1.465867 14282.95)
(103.2687 -7.053494 15482.91)
(55.79753 -19.24223 15075.49)
(25.36801 -49.77919 1885.72)
(55.9305 -5.960963 1621.208)
(25.26795 -17.54199 5701.619)
(59.34974 1.373547 1461.354)
(57.65925 5.854051 4884.328)
(27.44778 16.9228 9575.164)
(51.13515 -0.7118628 1347.703)
(61.0596 3.56823 4400.679)
(62.68918 15.05019 8190.693)
(31.81925 43.78958 13512.5)
(43.02775 -1.269597 1259.287)
(52.28185 -0.09272144 4057.988)
(64.23131 4.514934 7377.939)
(70.47028 17.5204 11554.63)
(37.96577 51.66711 17508.84)
(36.17769 4.546913 1185.29)
(43.70184 3.632107 3788.254)
(54.1633 3.090025 6796.842)
(68.39632 4.398672 10399.21)
(79.85756 10.35909 14977.66)
(45.01117 28.7756 19319.15)
(30.79115 17.69401 1119.565)
(36.60809 16.22922 3556.999)
(44.88601 13.74711 6328.904)
(56.55465 9.783472 9555.482)
(72.95479 4.07162 13451.31)
(89.13809 -5.630271 16567.69)
(50.48224 -20.84406 18866.54)
(26.62835 30.49298 1058.502)
(31.18551 29.71022 3347.976)
(37.54411 27.42629 5921.048)
(46.56044 23.0626 8864.707)
(59.33378 15.2756 12316)
(77.50155 1.896909 14855.3)
(95.2214 -21.16254 16280.45)
(53.55732 -69.17901 18277.84)
(23.45325 34.4114 1002.754)
(27.06316 34.38096 3160.514)
(32.07042 33.13476 5564.835)
(38.9996 30.08444 8282.138)
(48.76432 24.40729 11413.33)
(62.59003 14.33104 13605.85)
(81.15832 -1.025851 14647.77)
(98.90557 -28.60876 15982.2)
(54.94409 -88.68891 17730.92)
(20.95573 29.31016 953.3653)
(23.89052 29.63298 2996.531)
(27.90647 29.13143 5258.221)
(33.40716 27.47423 7792.524)
(40.96009 24.09594 10678.01)
(51.53709 18.16445 12638.26)
(65.65862 9.439789 13468.46)
(84.45553 -4.001686 14472.89)
(101.6749 -28.39876 15739.15)
(55.77448 -81.97107 17314.04)
(18.92124 18.91258 910.4065)
(21.35109 19.22467 2855.094)
(24.65705 19.09892 4996.816)
(29.11936 18.35566 7381.21)
(35.17059 16.74283 10073.52)
(43.42786 13.83712 11863.62)
(54.26762 9.789017 12563.99)
(68.70855 3.86109 13378.33)
(87.78996 -5.281391 14358.11)
(104.5999 -21.87751 15580.3)
(56.82204 -58.25783 15207.24)
(17.20672 6.385674 873.3336)
(19.25439 6.509538 2733.797)
(22.0253 6.50304 4774.409)
(25.73887 6.319196 7035.12)
(30.70048 5.88563 9571.847)
(37.37995 5.099465 11232.68)
(45.88703 4.024731 11843.77)
(57.03823 2.536151 12539.36)
(71.88569 0.3688811 13346.57)
(91.452 -2.965718 14314.87)
(108.3739 -8.997168 13845.31)
(57.95076 -21.54727 11544.41)
(27.54501 -70.59889 1868.492)
(57.57863 -16.11526 1618.536)
(26.43675 -48.7772 5678.318)
(59.34974 -1.373547 1461.354)
(57.65925 -5.854051 4884.328)
(27.44778 -16.9228 9575.164)
(50.91407 -0.3043237 1347.859)
(60.44314 1.337593 4403.402)
(61.12337 5.641372 8204.08)
(30.75229 15.98815 13567.6)
(42.94309 -2.026866 1259.499)
(51.93897 -0.757117 4061.019)
(63.23755 3.288604 7391.096)
(67.86057 13.97131 11599.39)
(36.22837 39.71109 17669.57)
(36.23066 -1.183714 1186.499)
(43.66866 -1.357346 3794.389)
(53.88167 -0.4484945 6814.372)
(67.47482 3.45652 10443.28)
(77.2629 14.51931 15090.65)
(43.4069 41.76291 19632.02)
(30.88408 5.446721 1123.275)
(36.71381 4.314056 3571.089)
(44.97633 2.978247 6360.039)
(56.54459 1.642111 9616.393)
(72.66633 1.325297 13569.5)
(88.09152 3.415329 16786.85)
(50.07235 12.95051 19345.04)
(26.64889 18.28644 1065.591)
(31.2515 17.2194 3372.689)
(37.67061 15.07374 5970.344)
(46.77758 11.54993 8950.383)
(59.68796 5.884117 12459.06)
(78.1785 -2.902244 15069.88)
(96.67397 -16.35551 16597.63)
(55.01856 -42.75235 18895.44)
(23.38798 30.2399 1011.02)
(27.02991 29.83975 3188.397)
(32.09358 28.20439 5618.183)
(39.11428 24.7485 8370.044)
(49.04277 18.68725 11550.46)
(63.17551 8.289024 13792.85)
(82.41836 -7.135901 14884.66)
(101.948 -34.09006 16311.26)
(57.48985 -93.07377 18308.07)
(20.85837 33.56108 960.5007)
(23.80829 33.76622 3020.215)
(27.85523 32.93234 5302.598)
(33.41335 30.64073 7863.762)
(41.06538 26.17756 10785.36)
(51.82644 18.50134 12778.31)
(66.27194 7.272568 13634.37)
(85.79364 -9.868724 14678.1)
(104.9495 -40.68555 16013.86)
(58.37791 -109.1939 17762.04)
(18.83936 28.39971 915.3134)
(21.27404 28.81037 2871.225)
(24.5938 28.52676 5026.677)
(29.08339 27.26092 7428.415)
(35.18462 24.60953 10143.29)
(43.52903 19.89416 11952.42)
(54.51399 13.32945 12665.8)
(69.21396 3.732627 13497.88)
(88.87606 -11.0226 14504.05)
(107.2316 -37.71603 15771.56)
(58.85944 -96.88894 15472.54)
(17.16179 18.27558 875.7218)
(19.21038 18.61263 2741.599)
(21.98554 18.56657 4788.738)
(25.70878 17.99833 7057.55)
(30.68835 16.69352 9604.59)
(37.39974 14.34741 11273.74)
(45.95565 11.14044 11889.94)
(57.18801 6.700092 12592.14)
(72.18059 0.2388654 13408.28)
(92.0711 -9.693471 14389.7)
(109.8523 -27.63874 13931.72)
(59.05448 -65.20387 11644.37)
(15.72706 6.163925 841.3669)
(17.47251 6.290144 2629.681)
(19.83463 6.30116 4584.681)
(22.98059 6.157131 6742.22)
(27.15127 5.801548 9151.821)
(32.68418 5.148252 10710.61)
(39.59654 4.2803 11257.51)
(48.39743 3.103698 11870.39)
(59.9338 1.483124 12567.72)
(75.31995 -0.8624988 13376.6)
(95.66813 -4.459083 12805.75)
(112.3477 -10.51008 10610.23)
(59.53425 -23.24067 8157.633)
(30.24149 -75.06207 1838.817)
(60.53782 -21.86404 1612.318)
(28.56971 -68.72277 5626.911)
(59.97627 -3.705938 1460.455)
(59.27969 -15.75965 4876.339)
(28.57593 -46.79086 9536.318)
(50.91407 0.3043237 1347.859)
(60.44314 -1.337593 4403.402)
(61.12337 -5.641372 8204.08)
(30.75229 -15.98815 13567.6)
(42.88029 -0.8372076 1259.308)
(51.72225 -0.3105663 4061.532)
(62.64093 1.264624 7395.748)
(66.37691 5.318551 11618.49)
(35.24423 14.71893 17742.16)
(36.24368 -2.18642 1186.306)
(43.58868 -2.027711 3795.131)
(53.55734 -0.8536302 6819.725)
(66.54347 2.855901 10462.39)
(74.88965 12.49568 15150.06)
(41.89731 34.45682 19812.02)
(30.95926 -0.6096427 1124.008)
(36.77178 -1.224336 3574.886)
(44.96015 -1.544663 6370.792)
(56.31044 -1.008028 9642.101)
(71.88141 1.98796 13628.67)
(85.99097 10.62435 16914.07)
(48.83756 31.9525 19655.19)
(26.71728 6.227967 1068.653)
(31.35063 5.269013 3384.042)
(37.79454 3.831429 5994.595)
(46.91083 1.9566 8995.731)
(59.77723 -0.3747465 12540.95)
(78.14313 -2.695623 15203.69)
(96.31941 -3.496207 16816.06)
(55.12709 -2.770424 19371.51)
(23.37822 18.58326 1017.272)
(27.05806 17.88041 3209.881)
(32.17962 16.2514 5660.246)
(39.28272 13.28735 8441.224)
(49.34304 8.506174 11665.04)
(63.69976 0.7855601 13954.63)
(83.40705 -9.863939 15098.85)
(104.2089 -27.0547 16627.95)
(59.55221 -64.59053 18924.73)
(20.77649 29.74271 967.9604)
(23.75015 29.65919 3045.155)
(27.83964 28.51828 5349.755)
(33.47068 25.89376 7940.282)
(41.24181 21.06286 10902.16)
(52.21582 12.99422 12932.84)
(67.02361 1.324781 13820.64)
(87.34077 -16.14602 14914.26)
(108.6758 -46.99254 16342.14)
(61.42105 -116.9314 18338.2)
(18.73783 32.61897 921.8306)
(21.18206 32.97727 2892.717)
(24.52444 32.46645 5066.623)
(29.05601 30.71961 7491.861)
(35.23153 27.22446 10237.61)
(43.70249 21.11834 12073.14)
(54.89518 12.62399 12805.13)
(69.96061 0.2436327 13663.02)
(90.43503 -18.68044 14708.42)
(110.9956 -52.72822 16045.31)
(61.811 -129.6551 15870.02)
(17.08062 27.47605 880.2374)
(19.13187 27.94274 2756.37)
(21.91638 27.80525 4815.913)
(25.65976 26.84069 7100.175)
(30.67587 24.70538 9666.964)
(37.45134 20.91071 11352.13)
(46.10461 15.7153 11978.26)
(57.49787 8.518941 12693.43)
(72.77646 -1.948047 13527.27)
(93.30308 -18.01414 14535)
(112.7911 -46.99935 14101.43)
(61.2589 -108.4822 11845.63)
(15.6835 17.65155 843.5768)
(17.42911 17.99943 2636.87)
(19.79414 18.00969 4597.819)
(22.94707 17.56453 6762.659)
(27.13126 16.4967 9181.429)
(32.68772 14.55098 10747.39)
(39.63552 11.96478 11298.37)
(48.49033 8.457578 11916.33)
(60.11562 3.626256 12620.25)
(75.66001 -3.366655 13438.04)
(96.35899 -14.08654 12872.18)
(113.9401 -32.12253 10675.85)
(60.69613 -70.30673 8227.812)
(14.46903 5.950059 811.6138)
(15.97394 6.07553 2533.125)
(18.00941 6.098103 4409.513)
(20.71398 5.983995 6473.38)
(24.27226 5.685486 8769.038)
(28.9501 5.134875 10239.19)
(34.67443 4.414558 10733.79)
(41.81987 3.465135 11282.42)
(50.91481 2.187025 11896.97)
(62.83664 0.4349042 12595.9)
(78.76158 -2.088491 11970.14)
(98.95267 -5.622909 9820.295)
(115.2704 -11.6219 7500.917)
(60.57763 -24.35444 4867.021)
(32.70927 -65.15374 1793.655)
(64.0847 -23.41953 1600.611)
(31.19432 -72.06859 5538.173)
(61.03245 -5.538158 1457.911)
(62.18015 -21.14706 4857.702)
(30.62185 -64.99311 9450.473)
(51.13515 0.7118629 1347.703)
(61.0596 -3.56823 4400.679)
(62.68918 -15.05019 8190.693)
(31.81925 -43.78958 13512.5)
(42.88029 0.8372076 1259.308)
(51.72225 0.3105664 4061.532)
(62.64093 -1.264623 7395.748)
(66.37691 -5.318551 11618.49)
(35.24423 -14.71893 17742.16)
(36.24115 -0.9323352 1185.943)
(43.52795 -0.8295811 3794.606)
(53.34926 -0.3248278 6820.7)
(65.97666 1.151534 10469.17)
(73.5171 4.877591 15175.36)
(41.0195 13.08462 19893.22)
(31.00288 -1.921938 1123.591)
(36.78731 -2.164196 3574.406)
(44.88954 -2.03557 6372.303)
(56.01414 -1.010259 9650.159)
(71.03449 2.25313 13654.46)
(83.92104 10.5828 16980.8)
(47.55322 29.26314 19833.16)
(26.78452 0.004316396 1069.073)
(31.42896 -0.6222795 3386.391)
(37.86265 -1.316384 6001.385)
(46.92061 -1.847909 9011.758)
(59.60776 -1.799119 12575.94)
(77.53365 0.05807393 15270.75)
(94.70798 6.761213 16942.38)
(54.25815 22.23786 19678.9)
(23.41988 6.803016 1019.848)
(27.13099 6.088712 3219.264)
(32.29138 4.898642 5679.836)
(39.43462 3.072406 8476.672)
(49.53522 0.5232505 11726.27)
(63.91749 -3.033101 14047.63)
(83.6232 -6.709354 15232.49)
(104.5417 -10.37453 16845.64)
(60.17581 -18.38779 19398.43)
(20.74263 18.60535 973.5334)
(23.74645 18.23015 3064.104)
(27.88323 17.05178 5386.331)
(33.58755 14.75329 8001.047)
(41.46796 10.80861 10997.42)
(52.62412 4.517575 13062.46)
(67.71766 -4.307119 13982.1)
(88.64061 -16.81525 15128.14)
(111.7432 -37.73088 16658.5)
(64.0835 -86.36678 18954.25)
(18.6456 29.08248 928.6117)
(21.10612 29.2214 2915.226)
(24.48067 28.48434 5108.801)
(29.06744 26.49043 7559.495)
(35.33577 22.71298 10339.27)
(43.95904 16.26584 12204.74)
(55.39523 7.321273 12959.01)
(70.87813 -5.620363 13848.65)
(92.26877 -25.13749 14943.94)
(115.4045 -59.87554 16372.94)
(65.35089 -140.7623 16381.46)
(16.97772 31.62344 886.2222)
(19.03495 32.08704 2776.003)
(21.83522 31.80104 4852.163)
(25.61003 30.48126 7157.279)
(30.68116 27.68914 9750.943)
(37.55101 22.80151 11458.17)
(46.34594 16.08495 12098.34)
(57.97056 6.772954 12832.09)
(73.65601 -6.75841 13691.69)
(95.08232 -27.46411 14738.59)
(117.0433 -64.74058 14344.38)
(64.48046 -145.5508 12147.14)
(15.60424 26.55904 847.7506)
(17.35087 27.05603 2650.466)
(19.72239 27.02355 4622.705)
(22.88993 26.2734 6801.443)
(27.10169 24.53763 9237.736)
(32.70561 21.40681 10817.46)
(39.72448 17.23243 11376.34)
(48.68686 11.55817 12004.2)
(60.48871 3.731577 12721.05)
(76.34598 -7.603776 13556.48)
(97.73637 -24.97806 13001.16)
(117.1171 -54.22244 10804.7)
(63.02318 -116.9995 8369.119)
(14.42719 17.04741 813.6662)
(15.93172 17.3962 2539.779)
(17.96907 17.44418 4421.621)
(20.67885 17.09168 6492.119)
(24.24727 16.19765 8796.01)
(28.9431 14.56173 10272.44)
(34.69355 12.41984 10770.39)
(41.87794 9.594405 11323.08)
(51.03188 5.787946 11942.7)
(63.05034 0.5668244 12648.2)
(79.14662 -6.956255 12024.7)
(99.69918 -17.50971 9870.785)
(116.9466 -35.41737 7546.984)
(61.7778 -73.66331 4908.66)
(13.38796 5.74552 783.8291)
(14.69918 5.867963 2443.225)
(16.47288 5.897777 4247.035)
(18.8231 5.805818 6225.195)
(21.90273 5.551627 8417.803)
(25.91666 5.078259 9809.583)
(30.7554 4.471478 10260.74)
(36.67126 3.684406 10757.04)
(44.04992 2.653805 11307.3)
(53.43909 1.274528 11923.41)
(65.74658 -0.608719 11274.49)
(81.44499 -3.044992 9184.932)
(101.3693 -6.478681 6945.504)
(117.1962 -12.35275 4476.263)
(61.09728 -24.90622 1619.991)
(34.22274 -48.47409 1735.878)
(67.16628 -25.34126 1580.609)
(33.56145 -61.03616 5402.825)
(62.15476 -8.777516 1452.014)
(65.63191 -22.15116 4822.503)
(33.10418 -66.09863 9301.949)
(51.48735 -0.07910022 1346.727)
(62.09482 -5.200506 4392.969)
(65.47359 -19.7106 8159.372)
(33.73411 -59.34802 13390.61)
(42.94309 2.026866 1259.499)
(51.93897 0.7571171 4061.019)
(63.23755 -3.288603 7391.096)
(67.86057 -13.97131 11599.39)
(36.22837 -39.71109 17669.57)
(36.24115 0.9323351 1185.943)
(43.52795 0.8295811 3794.606)
(53.34926 0.3248279 6820.7)
(65.97666 -1.151533 10469.17)
(73.5171 -4.87759 15175.36)
(41.0195 -13.08462 19893.22)
(31.02099 -0.8624962 1123.142)
(36.78582 -0.9178274 3573.363)
(44.83297 -0.8162206 6371.542)
(55.81908 -0.3495735 9651.743)
(70.50791 0.9935137 13663.65)
(82.69097 4.306462 17009.17)
(46.78045 11.47087 19913.32)
(26.83027 -1.569149 1068.527)
(31.474 -1.887323 3385.23)
(37.88329 -2.125505 6000.829)
(46.86426 -2.05774 9014.344)
(59.34951 -1.239308 12587.21)
(76.79485 1.456828 15299.99)
(92.93775 8.691956 17008.38)
(53.19644 24.13154 19854.8)
(23.47072 0.5202926 1020.052)
(27.20034 0.00935755 3220.656)
(32.37618 -0.6571797 5684.155)
(39.51833 -1.473676 8487.004)
(49.58054 -2.289207 11748.44)
(63.83136 -2.858458 14087.6)
(83.18728 -1.864142 15299.33)
(103.4144 2.931435 16971.02)
(59.66911 12.62063 19703.03)
(20.7604 7.152906 975.7304)
(23.79157 6.691817 3072.006)
(27.96542 5.796996 5402.555)
(33.71879 4.31265 8029.765)
(41.6584 2.000246 11045.47)
(52.89277 -1.379644 13132.18)
(68.06326 -5.693902 14075.16)
(89.10672 -10.71484 15261.61)
(112.759 -17.2188 16875.45)
(65.219 -33.90252 19425.68)
(18.59455 18.42241 933.6223)
(21.07723 18.29455 2932.119)
(24.48927 17.50922 5141.065)
(29.13478 15.76839 7612.349)
(35.49513 12.67208 10420.64)
(44.26032 7.555037 12312.53)
(55.91144 0.5326382 13088.34)
(71.74178 -9.395191 14009.89)
(93.87931 -23.75806 15157.64)
(119.2773 -48.38723 16689.12)
(68.61275 -108.0897 16928.49)
(16.87936 28.30985 892.4225)
(18.94775 28.61082 2796.465)
(21.77124 28.16664 4890.228)
(25.58826 26.6815 7217.765)
(30.72971 23.69879 9840.789)
(37.71616 18.57255 11572.69)
(46.68242 11.48744 12229.34)
(58.58105 1.665685 12985.38)
(74.73909 -12.54969 13876.76)
(97.20228 -34.11447 14973.56)
(122.1343 -72.74482 14635.31)
(68.40565 -159.27 12535.03)
(15.50212 30.60637 853.2717)
(17.25196 31.13604 2668.498)
(19.63471 31.01514 4655.819)
(22.82528 30.00466 6853.255)
(27.07886 27.76288 9313.3)
(32.75323 23.76661 10911.86)
(39.87666 18.40211 11481.8)
(48.9958 11.07536 12123.67)
(61.05258 0.9459033 12859.07)
(77.35802 -13.73625 13720.24)
(99.73531 -36.22293 13181.9)
(121.748 -74.08331 10989.11)
(66.44309 -157.2308 8580.85)
(14.35068 25.66231 817.5386)
(15.85504 26.17124 2552.348)
(17.8967 26.21094 4444.528)
(20.61741 25.62275 6527.631)
(24.20655 24.18139 8847.23)
(28.93869 21.56587 10335.69)
(34.74164 18.12672 10840.08)
(42.00408 13.57361 11400.64)
(51.27576 7.42155 12030.13)
(63.4864 -1.03403 12748.53)
(79.92234 -13.23615 12129.88)
(101.1893 -30.40307 9968.796)
(120.2984 -59.52985 7637.436)
(64.18563 -122.6037 4992.515)
(13.34807 16.46805 785.7414)
(14.65853 16.81042 2449.406)
(16.43335 16.88263 4258.242)
(18.78742 16.59882 6242.462)
(21.87493 15.83967 8442.525)
(25.90269 14.43687 9839.871)
(30.76134 12.63693 10293.83)
(36.70587 10.29961 10793.46)
(44.12698 7.235738 11347.78)
(53.58021 3.130917 11968.93)
(65.99203 -2.478915 11320.96)
(81.86491 -9.756404 9226.439)
(102.1566 -20.02659 6980.962)
(118.9275 -37.58329 4503.574)
(62.31647 -75.32651 1633.785)
(12.45122 5.55111 757.8093)
(13.60318 5.669028 2359.241)
(15.16457 5.702818 4095.724)
(17.22909 5.627243 5995.006)
(19.9229 5.407438 8093.637)
(23.41559 4.995139 9415.374)
(27.56753 4.473947 9829.515)
(32.56721 3.811226 10282.36)
(38.67465 2.957645 10780.28)
(46.28662 1.846142 11332.07)
(55.97012 0.3660162 10674.99)
(68.01722 -1.423736 8655.654)
(83.42014 -3.74877 6498.676)
(102.9616 -7.041223 4145.754)
(118.1555 -12.71434 1490.078)
(34.62961 -33.16404 1681.975)
(68.89204 -29.27068 1551.616)
(34.95979 -44.00689 5229.376)
(62.92644 -17.08032 1440.112)
(68.58045 -23.38148 4762.242)
(35.2716 -52.80183 9074.861)
(51.81592 -4.479667 1343.407)
(63.18358 -8.065552 4375.098)
(68.737 -19.60114 8100.026)
(36.00201 -57.04412 13179.35)
(43.02775 1.269597 1259.287)
(52.28185 0.09272157 4057.988)
(64.23131 -4.514934 7377.939)
(70.47028 -17.5204 11554.63)
(37.96577 -51.66711 17508.84)
(36.24368 2.18642 1186.306)
(43.58868 2.027711 3795.131)
(53.55734 0.8536303 6819.725)
(66.54347 -2.855901 10462.39)
(74.88965 -12.49568 15150.06)
(41.89731 -34.45682 19812.02)
(31.02099 0.8624961 1123.142)
(36.78582 0.9178274 3573.363)
(44.83297 0.8162206 6371.542)
(55.81908 0.3495737 9651.743)
(70.50791 -0.9935135 13663.65)
(82.69097 -4.306462 17009.17)
(46.78045 -11.47087 19913.32)
(26.85206 -0.7512779 1068.036)
(31.49262 -0.8445399 3383.924)
(37.88388 -0.8906022 5999.192)
(46.81399 -0.7991552 9013.464)
(59.17206 -0.3882155 12589.6)
(76.31969 0.7838813 15310.42)
(91.8483 3.743118 17036.35)
(52.52741 9.878221 19933.9)
(23.50887 -1.246505 1019.431)
(27.24691 -1.527674 3219.098)
(32.42411 -1.823264 5682.435)
(39.54679 -2.07649 8486.625)
(49.54368 -2.103827 11752.5)
(63.62198 -1.556877 14100.65)
(82.5551 0.6662934 15328.37)
(101.9402 6.824075 17036.26)
(58.8274 19.06333 19876.82)
(20.79404 0.8942504 975.7799)
(23.84389 0.5369589 3072.737)
(28.03914 0.01092674 5405.23)
(33.81358 -0.7262156 8036.524)
(41.76359 -1.714504 11060.06)
(52.98413 -2.897058 13157.76)
(68.05973 -3.919806 14115.18)
(88.84245 -3.777377 15328.19)
(112.1108 -0.8635243 16999.84)
(65.07092 3.102203 19727.45)
(18.59359 7.317173 935.5158)
(21.09773 7.063046 2938.865)
(24.54147 6.457716 5154.755)
(29.23131 5.332759 7636.193)
(35.6533 3.479569 10459.68)
(44.50098 0.5670063 12367.34)
(56.25638 -3.288599 13158.19)
(72.2147 -8.35612 14102.98)
(94.59386 -14.71105 15290.91)
(120.9718 -24.02825 16905.34)
(70.25715 -49.31581 17346.19)
(16.81628 18.08528 896.958)
(18.90085 18.14624 2811.655)
(21.75242 17.65977 4918.995)
(25.6158 16.39198 7264.396)
(30.82983 13.98387 9911.581)
(37.93091 9.936912 11664.75)
(47.05878 4.304423 12336.85)
(59.20513 -3.449606 13114.5)
(75.77223 -14.47997 14037.84)
(99.12323 -30.69431 15187.18)
(126.8115 -59.02712 14916.23)
(72.13251 -124.9559 12949.92)
(15.40095 27.46809 858.9693)
(17.15793 27.88041 2687.211)
(19.55765 27.65638 4690.425)
(22.77962 26.54811 6907.838)
(27.0873 24.19967 9393.638)
(32.84998 20.06489 11013.04)
(40.10255 14.44966 11595.76)
(49.41201 6.725296 12254.14)
(61.7733 -3.975302 13011.86)
(78.60644 -19.46651 13904.84)
(102.1412 -43.08119 13390.63)
(127.3679 -82.74955 11209.88)
(70.6515 -172.8736 8853.368)
(14.25086 29.59058 822.6518)
(15.7564 30.15763 2568.987)
(17.80579 30.15364 4474.944)
(20.54382 29.3782 6574.956)
(24.16451 27.54523 8915.776)
(28.9507 24.24519 10420.62)
(34.83138 19.86562 10933.95)
(42.20854 14.02443 11505.56)
(51.65204 6.087485 12149.05)
(64.14114 -4.859518 12885.97)
(81.06649 -20.69262 12275.32)
(103.3586 -43.04321 10106.12)
(125.2074 -80.94767 7766.903)
(67.73625 -164.9208 5118.23)
(13.27487 24.79577 789.3459)
(14.5843 25.30288 2461.07)
(16.36182 25.39073 4279.422)
(18.724 24.9231 6275.148)
(21.82758 23.71006 8489.412)
(25.88323 21.48278 9897.394)
(30.78194 18.61076 10356.74)
(36.78401 14.86411 10862.79)
(44.29011 9.933138 11424.96)
(53.87123 3.30418 12055.96)
(66.49079 -5.779305 11410.09)
(82.71024 -17.62863 9306.438)
(103.7294 -34.39136 7049.787)
(122.3944 -63.0192 4557.202)
(64.76444 -125.3823 1661.571)
(12.41332 15.91645 759.5961)
(13.56435 16.24738 2365.002)
(15.1263 16.33358 4106.137)
(17.19366 16.10072 6010.987)
(19.8936 15.4461 8116.411)
(23.39725 14.22734 9443.133)
(27.56451 12.68518 9859.661)
(32.58601 10.72187 10315.3)
(38.72467 8.189788 10816.54)
(46.38258 4.888208 11372.37)
(56.13519 0.4858436 10715.46)
(68.28731 -4.857139 8691.031)
(83.86563 -11.81652 6527.839)
(103.7758 -21.68102 4166.772)
(119.9142 -38.65493 1499.118)
(11.63552 5.366467 733.3826)
(12.65301 5.479638 2280.561)
(14.03862 5.515096 3954.341)
(15.86995 5.451477 5780.651)
(18.25106 5.258573 7793.045)
(21.32213 4.894844 9051.529)
(24.93495 4.441242 9433.684)
(29.2249 3.872429 9849.516)
(34.3855 3.15398 10303.98)
(40.68454 2.23412 10803.43)
(48.52984 1.041973 10147.61)
(57.94661 -0.3441159 8199.246)
(69.68932 -2.023791 6126.342)
(84.72164 -4.211507 3879.855)
(103.755 -7.319391 1380.17)
(34.44661 -22.12976 1639.907)
(69.21698 -30.92536 1521.199)
(35.27271 -29.32519 5067.361)
(63.15504 -27.96712 1420.772)
(70.15247 -26.89428 4674.865)
(36.44078 -35.05555 8783.286)
(51.97014 -15.3385 1335.317)
(63.90761 -15.83062 4339.075)
(71.42128 -19.43576 7998.218)
(37.86803 -40.28963 12855.77)
(43.06937 -3.949592 1257.305)
(52.59476 -4.023239 4047.829)
(65.25346 -6.621787 7347.496)
(73.44972 -15.70499 11469.61)
(39.94315 -44.70503 17229.95)
(36.23066 1.183714 1186.499)
(43.66866 1.357346 3794.389)
(53.88167 0.4484946 6814.372)
(67.47482 -3.45652 10443.28)
(77.2629 -14.51931 15090.65)
(43.4069 -41.76291 19632.02)
(31.00288 1.921938 1123.591)
(36.78731 2.164196 3574.406)
(44.88954 2.03557 6372.303)
(56.01414 1.010259 9650.159)
(71.03449 -2.25313 13654.46)
(83.92104 -10.5828 16980.8)
(47.55322 -29.26314 19833.16)
(26.85206 0.751278 1068.036)
(31.49262 0.8445398 3383.924)
(37.88388 0.8906022 5999.192)
(46.81399 0.7991553 9013.464)
(59.17206 0.3882157 12589.6)