/*--------------------------------*- C++ -*----------------------------------*\
| =========                 |                                                 |
| \\      /  F ield         | OpenFOAM: The Open Source CFD Toolbox           |
|  \\    /   O peration     | Version:  2306                                  |
|   \\  /    A nd           | Website:  www.openfoam.com                      |
|    \\/     M anipulation  |                                                 |
\*---------------------------------------------------------------------------*/
FoamFile
{
    version     2.0;
    format      ascii;
    arch        "LSB;label=32;scalar=64";
    class       volScalarField;
    location    "1.2/phiI";
    object      T;
}
// * * * * * * * * * * * * * * * * * * * * * * * * * * * * * * * * * * * * * //

dimensions      [0 0 0 1 0 0 0];

internalField   nonuniform List<scalar> 
12000
(
1118.975
1118.836
1120.65
1119.045
1118.513
1120.64
1118.906
1122.209
1120.711
1119.1
1117.903
1120.615
1118.583
1122.234
1120.701
1118.962
1123.682
1122.262
1120.759
1119.141
1116.855
1120.565
1117.976
1122.292
1120.676
1118.64
1123.719
1122.287
1120.749
1119.003
1125.103
1123.728
1122.302
1120.794
1119.167
1115.272
1120.473
1116.937
1122.394
1120.625
1118.035
1123.803
1122.344
1120.723
1118.681
1125.143
1123.764
1122.327
1120.783
1119.028
1126.478
1125.142
1123.761
1122.33
1120.814
1119.175
1113.446
1120.308
1115.375
1122.558
1120.531
1117.004
1123.953
1122.444
1120.671
1118.079
1125.233
1123.847
1122.384
1120.757
1118.707
1126.518
1125.182
1123.798
1122.355
1120.803
1119.036
1127.808
1126.512
1125.17
1123.784
1122.345
1120.819
1119.182
1111.774
1120.005
1113.577
1122.774
1120.362
1115.462
1124.199
1122.605
1120.574
1117.056
1125.397
1123.996
1122.483
1120.703
1118.107
1126.608
1125.272
1123.88
1122.411
1120.776
1118.715
1127.847
1126.552
1125.21
1123.82
1122.37
1120.808
1119.043
1129.092
1127.837
1126.535
1125.187
1123.794
1122.346
1120.823
1119.189
1110.534
1119.635
1111.929
1122.916
1120.06
1113.69
1124.54
1122.812
1120.401
1115.532
1125.666
1124.238
1122.638
1120.603
1117.091
1126.771
1125.434
1124.028
1122.508
1120.721
1118.117
1127.933
1126.641
1125.299
1123.902
1122.425
1120.78
1118.722
1129.129
1127.876
1126.575
1125.227
1123.83
1122.371
1120.811
1119.05
1130.329
1129.117
1127.857
1126.548
1125.193
1123.792
1122.347
1120.827
1119.195
1109.881
1119.309
1110.707
1122.965
1119.694
1112.067
1124.836
1122.949
1120.1
1113.786
1126.041
1124.57
1122.838
1120.425
1115.585
1127.039
1125.699
1124.265
1122.659
1120.618
1117.107
1128.091
1126.803
1125.46
1124.047
1122.52
1120.723
1118.126
1129.211
1127.962
1126.664
1125.316
1123.911
1122.425
1120.783
1118.73
1130.363
1129.154
1127.895
1126.588
1125.233
1123.827
1122.371
1120.815
1119.057
1131.517
1130.351
1129.134
1127.867
1126.551
1125.188
1123.789
1122.348
1120.83
1119.202
1109.881
1119.122
1110.063
1122.96
1119.374
1110.862
1125.038
1122.997
1119.739
1112.186
1126.386
1124.859
1122.969
1120.125
1113.864
1127.415
1126.066
1124.588
1122.85
1120.435
1115.616
1128.349
1127.068
1125.721
1124.28
1122.666
1120.617
1117.121
1129.361
1128.118
1126.825
1125.475
1124.054
1122.517
1120.724
1118.135
1130.442
1129.236
1127.981
1126.677
1125.321
1123.907
1122.424
1120.785
1118.737
1131.55
1130.385
1129.17
1127.905
1126.59
1125.227
1123.825
1122.371
1120.818
1119.064
1132.658
1131.537
1130.364
1129.141
1127.866
1126.543
1125.183
1123.787
1122.348
1120.834
1119.209
1110.534
1119.122
1110.063
1122.945
1119.19
1110.226
1125.155
1122.993
1119.424
1110.998
1126.643
1125.058
1123.016
1119.769
1112.286
1127.768
1126.404
1124.871
1122.977
1120.135
1113.915
1128.711
1127.435
1126.079
1124.594
1122.849
1120.43
1115.642
1129.606
1128.373
1127.085
1125.731
1124.282
1122.66
1120.616
1117.135
1130.583
1129.385
1128.136
1126.836
1125.478
1124.049
1122.515
1120.726
1118.144
1131.624
1130.464
1129.252
1127.99
1126.678
1125.314
1123.904
1122.424
1120.788
1118.745
1132.689
1131.57
1130.399
1129.177
1127.904
1126.582
1125.222
1123.822
1122.371
1120.821
1119.071
1133.75
1132.675
1131.548
1130.369
1129.138
1127.857
1126.536
1125.178
1123.784
1122.348
1120.837
1119.22
1111.774
1119.309
1110.707
1122.945
1119.19
1110.226
1125.207
1122.979
1119.243
1110.371
1126.806
1125.174
1123.013
1119.459
1111.114
1128.039
1126.657
1125.067
1123.022
1119.783
1112.357
1129.055
1127.783
1126.411
1124.87
1122.97
1120.13
1113.959
1129.95
1128.728
1127.445
1126.081
1124.587
1122.835
1120.425
1115.669
1130.816
1129.628
1128.388
1127.092
1125.73
1124.273
1122.654
1120.614
1117.15
1131.759
1130.605
1129.4
1128.144
1126.836
1125.47
1124.044
1122.513
1120.727
1118.154
1132.76
1131.644
1130.477
1129.259
1127.989
1126.67
1125.309
1123.901
1122.423
1120.79
1118.752
1133.78
1132.706
1131.581
1130.403
1129.174
1127.894
1126.575
1125.217
1123.819
1122.371
1120.824
1119.082
1134.795
1133.766
1132.684
1131.551
1130.364
1129.127
1127.848
1126.529
1125.173
1123.781
1122.348
1120.844
1119.236
1113.446
1119.635
1111.929
1122.96
1119.374
1110.862
1125.207
1122.979
1119.243
1110.371
1126.883
1125.226
1123
1119.281
1110.496
1128.215
1126.818
1125.182
1123.02
1119.478
1111.199
1129.322
1128.05
1126.661
1125.063
1123.015
1119.781
1112.417
1130.279
1129.067
1127.787
1126.407
1124.857
1122.952
1120.125
1114.001
1131.14
1129.965
1128.736
1127.445
1126.071
1124.569
1122.822
1120.42
1115.695
1131.979
1130.834
1129.639
1128.392
1127.088
1125.717
1124.264
1122.647
1120.613
1117.165
1132.888
1131.778
1130.617
1129.405
1128.142
1126.825
1125.462
1124.039
1122.51
1120.728
1118.164
1133.848
1132.777
1131.655
1130.481
1129.255
1127.979
1126.662
1125.303
1123.897
1122.422
1120.792
1118.765
1134.824
1133.796
1132.716
1131.584
1130.399
1129.163
1127.885
1126.568
1125.211
1123.816
1122.37
1120.831
1119.099
1135.794
1134.809
1133.774
1132.686
1131.545
1130.352
1129.117
1127.839
1126.522
1125.168
1123.778
1122.352
1120.856
1119.257
1115.272
1120.005
1113.577
1122.965
1119.694
1112.067
1125.155
1122.993
1119.424
1110.998
1126.883
1125.226
1123
1119.281
1110.496
1128.302
1126.895
1125.233
1123.007
1119.304
1110.588
1129.499
1128.225
1126.82
1125.177
1123.013
1119.48
1111.271
1130.536
1129.331
1128.05
1126.653
1125.047
1122.995
1119.779
1112.475
1131.453
1130.289
1129.069
1127.78
1126.39
1124.833
1122.936
1120.12
1114.043
1132.286
1131.154
1129.971
1128.733
1127.433
1126.051
1124.554
1122.81
1120.415
1115.721
1133.096
1131.995
1130.844
1129.642
1128.386
1127.074
1125.707
1124.255
1122.641
1120.611
1117.181
1133.969
1132.904
1131.788
1130.62
1129.401
1128.13
1126.816
1125.455
1124.033
1122.507
1120.729
1118.179
1134.888
1133.863
1132.786
1131.657
1130.476
1129.243
1127.969
1126.654
1125.296
1123.893
1122.42
1120.799
1118.783
1135.821
1134.838
1133.803
1132.717
1131.577
1130.386
1129.152
1127.876
1126.56
1125.205
1123.812
1122.374
1120.842
1119.12
1136.746
1135.806
1134.816
1133.774
1132.679
1131.531
1130.341
1129.107
1127.83
1126.514
1125.162
1123.778
1122.359
1120.872
1119.282
1116.855
1120.308
1115.375
1122.916
1120.06
1113.69
1125.038
1122.997
1119.739
1112.186
1126.806
1125.174
1123.013
1119.459
1111.114
1128.302
1126.895
1125.233
1123.007
1119.304
1110.588
1129.586
1128.31
1126.896
1125.228
1123
1119.308
1110.666
1130.708
1129.506
1128.223
1126.81
1125.16
1122.993
1119.482
1111.341
1131.699
1130.544
1129.33
1128.04
1126.633
1125.021
1122.978
1119.777
1112.533
1132.582
1131.462
1130.29
1129.061
1127.762
1126.365
1124.813
1122.919
1120.114
1114.085
1133.387
1132.297
1131.158
1129.967
1128.72
1127.412
1126.034
1124.538
1122.797
1120.41
1115.747
1134.168
1133.111
1132.003
1130.845
1129.634
1128.371
1127.062
1125.695
1124.245
1122.634
1120.61
1117.202
1135.005
1133.984
1132.913
1131.789
1130.614
1129.387
1128.119
1126.807
1125.447
1124.027
1122.504
1120.734
1118.2
1135.883
1134.902
1133.871
1132.787
1131.651
1130.463
1129.233
1127.96
1126.646
1125.29
1123.888
1122.422
1120.81
1118.805
1136.772
1135.834
1134.844
1133.803
1132.71
1131.564
1130.375
1129.142
1127.867
1126.552
1125.199
1123.812
1122.381
1120.858
1119.146
1137.653
1136.757
1135.812
1134.815
1133.766
1132.665
1131.52
1130.33
1129.096
1127.821
1126.506
1125.159
1123.783
1122.371
1120.892
1117.903
1120.473
1116.937
1122.774
1120.362
1115.462
1124.836
1122.949
1120.1
1113.786
1126.643
1125.058
1123.016
1119.769
1112.286
1128.215
1126.818
1125.182
1123.02
1119.478
1111.199
1129.586
1128.31
1126.896
1125.228
1123
1119.308
1110.666
1130.792
1129.592
1128.308
1126.886
1125.211
1122.982
1119.312
1110.742
1131.863
1130.714
1129.503
1128.212
1126.789
1125.132
1122.976
1119.483
1111.41
1132.816
1131.705
1130.542
1129.319
1128.019
1126.605
1124.998
1122.96
1119.774
1112.589
1133.669
1132.59
1131.461
1130.281
1129.043
1127.737
1126.343
1124.793
1122.903
1120.109
1114.126
1134.445
1133.397
1132.3
1131.153
1129.953
1128.699
1127.395
1126.017
1124.522
1122.785
1120.404
1115.778
1135.194
1134.181
1133.117
1132.002
1130.836
1129.618
1128.358
1127.05
1125.684
1124.235
1122.627
1120.612
1117.228
1135.994
1135.018
1133.991
1132.913
1131.782
1130.6
1129.376
1128.108
1126.797
1125.439
1124.02
1122.504
1120.744
1118.225
1136.831
1135.895
1134.909
1133.87
1132.779
1131.637
1130.451
1129.222
1127.95
1126.637
1125.283
1123.887
1122.429
1120.825
1118.832
1137.678
1136.784
1135.839
1134.843
1133.795
1132.695
1131.552
1130.364
1129.132
1127.858
1126.544
1125.196
1123.816
1122.393
1120.878
1138.515
1137.663
1136.762
1135.81
1134.806
1133.751
1132.652
1131.508
1130.319
1129.086
1127.811
1126.501
1125.16
1123.791
1122.387
1118.513
1120.565
1117.976
1122.558
1120.531
1117.004
1124.54
1122.812
1120.401
1115.532
1126.386
1124.859
1122.969
1120.125
1113.864
1128.039
1126.657
1125.067
1123.022
1119.783
1112.357
1129.499
1128.225
1126.82
1125.177
1123.013
1119.48
1111.271
1130.792
1129.592
1128.308
1126.886
1125.211
1122.982
1119.312
1110.742
1131.944
1130.798
1129.589
1128.296
1126.864
1125.183
1122.965
1119.315
1110.817
1132.973
1131.868
1130.71
1129.491
1128.189
1126.759
1125.109
1122.959
1119.483
1111.477
1133.892
1132.822
1131.702
1130.53
1129.298
1127.99
1126.58
1124.975
1122.943
1119.771
1112.644
1134.713
1133.675
1132.589
1131.452
1130.263
1129.017
1127.714
1126.321
1124.772
1122.886
1120.103
1114.171
1135.458
1134.454
1133.399
1132.295
1131.139
1129.932
1128.681
1127.376
1126
1124.506
1122.771
1120.403
1115.814
1136.176
1135.206
1134.186
1133.115
1131.992
1130.819
1129.604
1128.344
1127.037
1125.672
1124.225
1122.624
1120.62
1117.259
1136.939
1136.006
1135.024
1133.99
1132.904
1131.767
1130.587
1129.364
1128.097
1126.787
1125.43
1124.017
1122.509
1120.758
1118.256
1137.735
1136.843
1135.901
1134.907
1133.862
1132.765
1131.625
1130.44
1129.211
1127.94
1126.628
1125.279
1123.89
1122.439
1120.844
1138.54
1137.688
1136.788
1135.837
1134.834
1133.781
1132.683
1131.54
1130.352
1129.121
1127.848
1126.538
1125.197
1123.824
1122.408
1139.334
1138.525
1137.667
1136.759
1135.801
1134.791
1133.738
1132.64
1131.496
1130.307
1129.075
1127.804
1126.5
1125.165
1123.802
1118.836
1120.615
1118.583
1122.394
1120.625
1118.035
1124.199
1122.605
1120.574
1117.056
1126.041
1124.57
1122.838
1120.425
1115.585
1127.768
1126.404
1124.871
1122.977
1120.135
1113.915
1129.322
1128.05
1126.661
1125.063
1123.015
1119.781
1112.417
1130.708
1129.506
1128.223
1126.81
1125.16
1122.993
1119.482
1111.341
1131.944
1130.798
1129.589
1128.296
1126.864
1125.183
1122.965
1119.315
1110.817
1133.051
1131.949
1130.793
1129.576
1128.272
1126.834
1125.159
1122.948
1119.318
1110.89
1134.041
1132.977
1131.864
1130.697
1129.468
1128.158
1126.733
1125.085
1122.941
1119.483
1111.543
1134.926
1133.896
1132.819
1131.691
1130.509
1129.269
1127.965
1126.555
1124.952
1122.925
1119.767
1112.704
1135.714
1134.719
1133.674
1132.58
1131.434
1130.237
1128.995
1127.692
1126.299
1124.752
1122.869
1120.102
1114.221
1136.428
1135.466
1134.455
1133.393
1132.28
1131.117
1129.913
1128.662
1127.358
1125.982
1124.49
1122.762
1120.407
1115.855
1137.113
1136.186
1135.21
1134.183
1133.105
1131.975
1130.804
1129.589
1128.33
1127.023
1125.659
1124.218
1122.624
1120.631
1117.296
1137.838
1136.95
1136.011
1135.022
1133.981
1132.889
1131.754
1130.574
1129.351
1128.086
1126.776
1125.424
1124.018
1122.517
1120.776
1138.595
1137.746
1136.847
1135.899
1134.898
1133.847
1132.752
1131.612
1130.428
1129.2
1127.929
1126.621
1125.279
1123.897
1122.454
1139.358
1138.549
1137.692
1136.786
1135.828
1134.82
1133.768
1132.67
1131.528
1130.341
1129.109
1127.84
1126.537
1125.201
1123.835
1140.111
1139.343
1138.528
1137.664
1136.75
1135.786
1134.778
1133.726
1132.627
1131.484
1130.295
1129.066
1127.8
1126.502
1125.173
1118.975
1120.64
1118.906
1122.292
1120.676
1118.64
1123.953
1122.444
1120.671
1118.079
1125.666
1124.238
1122.638
1120.603
1117.091
1127.415
1126.066
1124.588
1122.85
1120.435
1115.616
1129.055
1127.783
1126.411
1124.87
1122.97
1120.13
1113.959
1130.536
1129.331
1128.05
1126.653
1125.047
1122.995
1119.779
1112.475
1131.863
1130.714
1129.503
1128.212
1126.789
1125.132
1122.976
1119.483
1111.41
1133.051
1131.949
1130.793
1129.576
1128.272
1126.834
1125.159
1122.948
1119.318
1110.89
1134.116
1133.055
1131.944
1130.78
1129.552
1128.241
1126.807
1125.135
1122.931
1119.32
1110.962
1135.069
1134.045
1132.973
1131.851
1130.674
1129.438
1128.132
1126.707
1125.061
1122.924
1119.483
1111.614
1135.918
1134.93
1133.893
1132.807
1131.669
1130.481
1129.244
1127.94
1126.531
1124.929
1122.906
1119.768
1112.768
1136.673
1135.719
1134.717
1133.664
1132.561
1131.409
1130.215
1128.972
1127.669
1126.277
1124.73
1122.856
1120.105
1114.275
1137.355
1136.435
1135.467
1134.448
1133.378
1132.259
1131.099
1129.894
1128.644
1127.34
1125.964
1124.476
1122.757
1120.415
1115.901
1138.006
1137.123
1136.19
1135.207
1134.172
1133.087
1131.96
1130.789
1129.575
1128.316
1127.009
1125.65
1124.215
1122.629
1120.648
1138.695
1137.849
1136.954
1136.009
1135.012
1133.965
1132.875
1131.741
1130.561
1129.339
1128.073
1126.768
1125.422
1124.023
1122.53
1139.411
1138.605
1137.749
1136.845
1135.889
1134.883
1133.834
1132.739
1131.599
1130.415
1129.187
1127.921
1126.619
1125.282
1123.907
1140.134
1139.367
1138.552
1137.689
1136.776
1135.813
1134.807
1133.755
1132.658
1131.515
1130.328
1129.1
1127.836
1126.538
1125.209
1140.845
1140.119
1139.346
1138.525
1137.654
1136.735
1135.773
1134.765
1133.713
1132.615
1131.47
1130.285
1129.061
1127.8
1126.507
1120.65
1119.045
1122.234
1120.701
1118.962
1123.803
1122.344
1120.723
1118.681
1125.397
1123.996
1122.483
1120.703
1118.107
1127.039
1125.699
1124.265
1122.659
1120.618
1117.107
1128.711
1127.435
1126.079
1124.594
1122.849
1120.43
1115.642
1130.279
1129.067
1127.787
1126.407
1124.857
1122.952
1120.125
1114.001
1131.699
1130.544
1129.33
1128.04
1126.633
1125.021
1122.978
1119.777
1112.533
1132.973
1131.868
1130.71
1129.491
1128.189
1126.759
1125.109
1122.959
1119.483
1111.477
1134.116
1133.055
1131.944
1130.78
1129.552
1128.241
1126.807
1125.135
1122.931
1119.32
1110.962
1135.14
1134.119
1133.05
1131.93
1130.757
1129.521
1128.214
1126.781
1125.111
1122.914
1119.321
1111.038
1136.055
1135.072
1134.04
1132.96
1131.828
1130.645
1129.412
1128.106
1126.681
1125.037
1122.905
1119.487
1111.688
1136.869
1135.922
1134.926
1133.881
1132.786
1131.642
1130.457
1129.22
1127.915
1126.506
1124.905
1122.891
1119.774
1112.836
1137.59
1136.678
1135.717
1134.707
1133.646
1132.537
1131.387
1130.193
1128.95
1127.647
1126.254
1124.712
1122.847
1120.112
1114.334
1138.239
1137.361
1136.435
1135.46
1134.433
1133.357
1132.24
1131.08
1129.876
1128.625
1127.32
1125.948
1124.467
1122.756
1120.428
1138.856
1138.015
1137.125
1136.186
1135.195
1134.155
1133.072
1131.945
1130.774
1129.56
1128.3
1126.998
1125.644
1124.215
1122.638
1139.508
1138.704
1137.852
1136.951
1135.999
1134.996
1133.952
1132.862
1131.727
1130.548
1129.325
1128.063
1126.763
1125.423
1124.031
1140.185
1139.42
1138.608
1137.746
1136.835
1135.874
1134.87
1133.82
1132.726
1131.587
1130.402
1129.178
1127.916
1126.62
1125.289
1140.868
1140.142
1139.369
1138.549
1137.679
1136.761
1135.8
1134.793
1133.742
1132.645
1131.502
1130.318
1129.095
1127.836
1126.543
1141.539
1140.853
1140.121
1139.342
1138.515
1137.639
1136.722
1135.759
1134.752
1133.7
1132.601
1131.459
1130.278
1129.058
1127.803
1122.209
1120.711
1119.1
1123.719
1122.287
1120.749
1119.003
1125.233
1123.847
1122.384
1120.757
1118.707
1126.771
1125.434
1124.028
1122.508
1120.721
1118.117
1128.349
1127.068
1125.721
1124.28
1122.666
1120.617
1117.121
1129.95
1128.728
1127.445
1126.081
1124.587
1122.835
1120.425
1115.669
1131.453
1130.289
1129.069
1127.78
1126.39
1124.833
1122.936
1120.12
1114.043
1132.816
1131.705
1130.542
1129.319
1128.019
1126.605
1124.998
1122.96
1119.774
1112.589
1134.041
1132.977
1131.864
1130.697
1129.468
1128.158
1126.733
1125.085
1122.941
1119.483
1111.543
1135.14
1134.119
1133.05
1131.93
1130.757
1129.521
1128.214
1126.781
1125.111
1122.914
1119.321
1111.038
1136.124
1135.143
1134.114
1133.036
1131.908
1130.727
1129.495
1128.188
1126.754
1125.087
1122.896
1119.327
1111.118
1137.001
1136.058
1135.067
1134.028
1132.938
1131.8
1130.62
1129.386
1128.08
1126.655
1125.012
1122.89
1119.495
1111.766
1137.779
1136.872
1135.918
1134.914
1133.861
1132.76
1131.619
1130.433
1129.195
1127.89
1126.48
1124.884
1122.881
1119.783
1112.907
1138.466
1137.595
1136.676
1135.707
1134.689
1133.622
1132.515
1131.365
1130.171
1128.928
1127.623
1126.234
1124.698
1122.842
1120.124
1139.081
1138.245
1137.361
1136.428
1135.445
1134.412
1133.339
1132.222
1131.061
1129.857
1128.605
1127.304
1125.936
1124.462
1122.759
1139.664
1138.864
1138.017
1137.121
1136.174
1135.178
1134.139
1133.056
1131.929
1130.759
1129.543
1128.287
1126.99
1125.642
1124.22
1140.279
1139.516
1138.707
1137.848
1136.94
1135.983
1134.982
1133.937
1132.848
1131.713
1130.534
1129.314
1128.057
1126.762
1125.428
1140.918
1140.194
1139.423
1138.604
1137.736
1136.819
1135.86
1134.856
1133.807
1132.713
1131.573
1130.391
1129.171
1127.915
1126.624
1141.561
1140.875
1140.144
1139.366
1138.539
1137.664
1136.747
1135.786
1134.78
1133.728
1132.631
1131.491
1130.311
1129.092
1127.838
1142.193
1141.546
1140.855
1140.117
1139.332
1138.5
1137.626
1136.708
1135.746
1134.739
1133.685
1132.589
1131.451
1130.274
1129.059
1123.682
1122.262
1120.759
1119.141
1125.143
1123.764
1122.327
1120.783
1119.028
1126.608
1125.272
1123.88
1122.411
1120.776
1118.715
1128.091
1126.803
1125.46
1124.047
1122.52
1120.723
1118.126
1129.606
1128.373
1127.085
1125.731
1124.282
1122.66
1120.616
1117.135
1131.14
1129.965
1128.736
1127.445
1126.071
1124.569
1122.822
1120.42
1115.695
1132.582
1131.462
1130.29
1129.061
1127.762
1126.365
1124.813
1122.919
1120.114
1114.085
1133.892
1132.822
1131.702
1130.53
1129.298
1127.99
1126.58
1124.975
1122.943
1119.771
1112.644
1135.069
1134.045
1132.973
1131.851
1130.674
1129.438
1128.132
1126.707
1125.061
1122.924
1119.483
1111.614
1136.124
1135.143
1134.114
1133.036
1131.908
1130.727
1129.495
1128.188
1126.754
1125.087
1122.896
1119.327
1111.118
1137.067
1136.126
1135.138
1134.101
1133.014
1131.879
1130.701
1129.469
1128.161
1126.728
1125.061
1122.881
1119.337
1111.201
1137.906
1137.003
1136.053
1135.055
1134.007
1132.911
1131.776
1130.595
1129.36
1128.053
1126.628
1124.99
1122.88
1119.508
1111.848
1138.647
1137.782
1136.868
1135.906
1134.895
1133.835
1132.737
1131.595
1130.408
1129.17
1127.864
1126.457
1124.868
1122.875
1119.797
1139.3
1138.47
1137.592
1136.666
1135.69
1134.666
1133.601
1132.494
1131.344
1130.149
1128.904
1127.602
1126.217
1124.688
1122.841
1139.881
1139.086
1138.244
1137.354
1136.413
1135.424
1134.394
1133.32
1132.203
1131.042
1129.836
1128.587
1127.29
1125.929
1124.46
1140.43
1139.672
1138.866
1138.012
1137.109
1136.156
1135.162
1134.124
1133.041
1131.914
1130.742
1129.529
1128.278
1126.985
1125.643
1141.008
1140.287
1139.519
1138.703
1137.838
1136.924
1135.968
1134.968
1133.923
1132.833
1131.698
1130.521
1129.306
1128.054
1126.765
1141.61
1140.926
1140.196
1139.419
1138.594
1137.721
1136.806
1135.847
1134.843
1133.793
1132.698
1131.561
1130.383
1129.168
1127.917
1142.214
1141.568
1140.877
1140.14
1139.355
1138.524
1137.651
1136.734
1135.773
1134.767
1133.714
1132.619
1131.482
1130.307
1129.093
1142.807
1142.2
1141.548
1140.851
1140.107
1139.317
1138.486
1137.613
1136.695
1135.733
1134.724
1133.673
1132.58
1131.447
1130.274
1125.103
1123.728
1122.302
1120.794
1119.167
1126.518
1125.182
1123.798
1122.355
1120.803
1119.036
1127.933
1126.641
1125.299
1123.902
1122.425
1120.78
1118.722
1129.361
1128.118
1126.825
1125.475
1124.054
1122.517
1120.724
1118.135
1130.816
1129.628
1128.388
1127.092
1125.73
1124.273
1122.654
1120.614
1117.15
1132.286
1131.154
1129.971
1128.733
1127.433
1126.051
1124.554
1122.81
1120.415
1115.721
1133.669
1132.59
1131.461
1130.281
1129.043
1127.737
1126.343
1124.793
1122.903
1120.109
1114.126
1134.926
1133.896
1132.819
1131.691
1130.509
1129.269
1127.965
1126.555
1124.952
1122.925
1119.767
1112.704
1136.055
1135.072
1134.04
1132.96
1131.828
1130.645
1129.412
1128.106
1126.681
1125.037
1122.905
1119.487
1111.688
1137.067
1136.126
1135.138
1134.101
1133.014
1131.879
1130.701
1129.469
1128.161
1126.728
1125.061
1122.881
1119.337
1111.201
1137.969
1137.069
1136.121
1135.125
1134.079
1132.986
1131.854
1130.675
1129.442
1128.134
1126.7
1125.039
1122.871
1119.352
1111.288
1138.77
1137.908
1136.999
1136.041
1135.034
1133.98
1132.887
1131.751
1130.569
1129.334
1128.025
1126.603
1124.972
1122.874
1119.524
1139.475
1138.65
1137.778
1136.857
1135.887
1134.87
1133.813
1132.714
1131.572
1130.384
1129.144
1127.84
1126.438
1124.855
1122.873
1140.093
1139.303
1138.467
1137.582
1136.649
1135.667
1134.645
1133.581
1132.473
1131.322
1130.125
1128.882
1127.584
1126.205
1124.682
1140.64
1139.886
1139.085
1138.237
1137.339
1136.393
1135.406
1134.376
1133.302
1132.184
1131.022
1129.818
1128.573
1127.281
1125.924
1141.155
1140.437
1139.673
1138.861
1138
1137.091
1136.141
1135.147
1134.108
1133.025
1131.896
1130.727
1129.519
1128.272
1126.984
1141.698
1141.016
1140.289
1139.514
1138.692
1137.822
1136.91
1135.954
1134.954
1133.909
1132.818
1131.685
1130.512
1129.302
1128.054
1142.262
1141.617
1140.927
1140.192
1139.409
1138.578
1137.707
1136.792
1135.833
1134.829
1133.778
1132.686
1131.552
1130.379
1129.168
1142.828
1142.221
1141.569
1140.873
1140.13
1139.34
1138.511
1137.638
1136.721
1135.759
1134.752
1133.701
1132.61
1131.477
1130.306
1143.383
1142.814
1142.201
1141.544
1140.841
1140.092
1139.304
1138.473
1137.599
1136.681
1135.718
1134.711
1133.663
1132.574
1131.445
1126.478
1125.142
1123.761
1122.33
1120.814
1119.175
1127.847
1126.552
1125.21
1123.82
1122.37
1120.808
1119.043
1129.211
1127.962
1126.664
1125.316
1123.911
1122.425
1120.783
1118.73
1130.583
1129.385
1128.136
1126.836
1125.478
1124.049
1122.515
1120.726
1118.144
1131.979
1130.834
1129.639
1128.392
1127.088
1125.717
1124.264
1122.647
1120.613
1117.165
1133.387
1132.297
1131.158
1129.967
1128.72
1127.412
1126.034
1124.538
1122.797
1120.41
1115.747
1134.713
1133.675
1132.589
1131.452
1130.263
1129.017
1127.714
1126.321
1124.772
1122.886
1120.103
1114.171
1135.918
1134.93
1133.893
1132.807
1131.669
1130.481
1129.244
1127.94
1126.531
1124.929
1122.906
1119.768
1112.768
1137.001
1136.058
1135.067
1134.028
1132.938
1131.8
1130.62
1129.386
1128.08
1126.655
1125.012
1122.89
1119.495
1111.766
1137.969
1137.069
1136.121
1135.125
1134.079
1132.986
1131.854
1130.675
1129.442
1128.134
1126.7
1125.039
1122.871
1119.352
1111.288
1138.831
1137.971
1137.064
1136.109
1135.104
1134.052
1132.962
1131.829
1130.65
1129.416
1128.105
1126.675
1125.021
1122.865
1119.37
1139.594
1138.772
1137.903
1136.987
1136.021
1135.009
1133.957
1132.863
1131.727
1130.544
1129.307
1128
1126.583
1124.959
1122.872
1140.263
1139.477
1138.646
1137.767
1136.838
1135.863
1134.848
1133.791
1132.691
1131.548
1130.359
1129.12
1127.82
1126.422
1124.847
1140.845
1140.096
1139.3
1138.457
1137.565
1136.626
1135.647
1134.625
1133.56
1132.452
1131.299
1130.104
1128.864
1127.571
1126.196
1141.359
1140.645
1139.885
1139.078
1138.222
1137.319
1136.376
1135.389
1134.358
1133.283
1132.164
1131.004
1129.804
1128.563
1127.275
1141.84
1141.162
1140.438
1139.667
1138.849
1137.983
1137.076
1136.126
1135.131
1134.092
1133.007
1131.881
1130.716
1129.512
1128.269
1142.347
1141.705
1141.017
1140.284
1139.503
1138.676
1137.808
1136.896
1135.94
1134.939
1133.893
1132.804
1131.675
1130.507
1129.3
1142.874
1142.268
1141.618
1140.923
1140.181
1139.393
1138.565
1137.694
1136.778
1135.819
1134.814
1133.765
1132.676
1131.546
1130.377
1143.403
1142.834
1142.222
1141.565
1140.863
1140.115
1139.327
1138.497
1137.624
1136.707
1135.744
1134.739
1133.692
1132.604
1131.475
1143.922
1143.389
1142.815
1142.197
1141.533
1140.826
1140.079
1139.291
1138.46
1137.586
1136.667
1135.705
1134.701
1133.657
1132.571
1127.808
1126.512
1125.17
1123.784
1122.345
1120.819
1119.182
1129.129
1127.876
1126.575
1125.227
1123.83
1122.371
1120.811
1119.05
1130.442
1129.236
1127.981
1126.677
1125.321
1123.907
1122.424
1120.785
1118.737
1131.759
1130.605
1129.4
1128.144
1126.836
1125.47
1124.044
1122.513
1120.727
1118.154
1133.096
1131.995
1130.844
1129.642
1128.386
1127.074
1125.707
1124.255
1122.641
1120.611
1117.181
1134.445
1133.397
1132.3
1131.153
1129.953
1128.699
1127.395
1126.017
1124.522
1122.785
1120.404
1115.778
1135.714
1134.719
1133.674
1132.58
1131.434
1130.237
1128.995
1127.692
1126.299
1124.752
1122.869
1120.102
1114.221
1136.869
1135.922
1134.926
1133.881
1132.786
1131.642
1130.457
1129.22
1127.915
1126.506
1124.905
1122.891
1119.774
1112.836
1137.906
1137.003
1136.053
1135.055
1134.007
1132.911
1131.776
1130.595
1129.36
1128.053
1126.628
1124.99
1122.88
1119.508
1111.848
1138.831
1137.971
1137.064
1136.109
1135.104
1134.052
1132.962
1131.829
1130.65
1129.416
1128.105
1126.675
1125.021
1122.865
1119.37
1139.653
1138.833
1137.966
1137.052
1136.088
1135.078
1134.029
1132.938
1131.804
1130.624
1129.388
1128.079
1126.654
1125.007
1122.863
1140.378
1139.596
1138.767
1137.892
1136.967
1135.996
1134.986
1133.934
1132.84
1131.702
1130.517
1129.281
1127.978
1126.566
1124.949
1141.01
1140.265
1139.473
1138.635
1137.748
1136.815
1135.842
1134.827
1133.769
1132.668
1131.523
1130.335
1129.1
1127.804
1126.411
1141.558
1140.848
1140.093
1139.291
1138.441
1137.544
1136.607
1135.628
1134.605
1133.539
1132.429
1131.277
1130.086
1128.85
1127.561
1142.038
1141.363
1140.643
1139.877
1139.063
1138.203
1137.302
1136.358
1135.371
1134.339
1133.263
1132.146
1130.989
1129.792
1128.556
1142.486
1141.847
1141.162
1140.433
1139.655
1138.832
1137.968
1137.061
1136.11
1135.115
1134.074
1132.992
1131.869
1130.707
1129.508
1142.958
1142.354
1141.706
1141.013
1140.273
1139.488
1138.662
1137.794
1136.882
1135.925
1134.923
1133.879
1132.794
1131.668
1130.504
1143.449
1142.881
1142.27
1141.614
1140.913
1140.166
1139.38
1138.552
1137.68
1136.765
1135.804
1134.8
1133.755
1132.669
1131.544
1143.941
1143.41
1142.835
1142.218
1141.555
1140.848
1140.102
1139.314
1138.484
1137.611
1136.692
1135.731
1134.729
1133.685
1132.6
1144.423
1143.927
1143.39
1142.81
1142.186
1141.519
1140.813
1140.066
1139.278
1138.447
1137.571
1136.653
1135.694
1134.694
1133.653
1129.092
1127.837
1126.535
1125.187
1123.794
1122.346
1120.823
1119.189
1130.363
1129.154
1127.895
1126.588
1125.233
1123.827
1122.371
1120.815
1119.057
1131.624
1130.464
1129.252
1127.99
1126.678
1125.314
1123.904
1122.424
1120.788
1118.745
1132.888
1131.778
1130.617
1129.405
1128.142
1126.825
1125.462
1124.039
1122.51
1120.728
1118.164
1134.168
1133.111
1132.003
1130.845
1129.634
1128.371
1127.062
1125.695
1124.245
1122.634
1120.61
1117.202
1135.458
1134.454
1133.399
1132.295
1131.139
1129.932
1128.681
1127.376
1126
1124.506
1122.771
1120.403
1115.814
1136.673
1135.719
1134.717
1133.664
1132.561
1131.409
1130.215
1128.972
1127.669
1126.277
1124.73
1122.856
1120.105
1114.275
1137.779
1136.872
1135.918
1134.914
1133.861
1132.76
1131.619
1130.433
1129.195
1127.89
1126.48
1124.884
1122.881
1119.783
1112.907
1138.77
1137.908
1136.999
1136.041
1135.034
1133.98
1132.887
1131.751
1130.569
1129.334
1128.025
1126.603
1124.972
1122.874
1119.524
1139.653
1138.833
1137.966
1137.052
1136.088
1135.078
1134.029
1132.938
1131.804
1130.624
1129.388
1128.079
1126.654
1125.007
1122.863
1140.435
1139.655
1138.828
1137.954
1137.032
1136.063
1135.056
1134.006
1132.914
1131.779
1130.597
1129.362
1128.057
1126.637
1124.997
1141.122
1140.379
1139.591
1138.756
1137.873
1136.943
1135.975
1134.964
1133.911
1132.816
1131.676
1130.492
1129.26
1127.961
1126.553
1141.719
1141.012
1140.261
1139.463
1138.617
1137.726
1136.795
1135.821
1134.805
1133.747
1132.644
1131.5
1130.315
1129.083
1127.791
1142.232
1141.561
1140.845
1140.083
1139.274
1138.419
1137.525
1136.588
1135.608
1134.585
1133.517
1132.408
1131.259
1130.071
1128.839
1142.679
1142.042
1141.362
1140.636
1139.863
1139.044
1138.186
1137.285
1136.34
1135.353
1134.32
1133.245
1132.13
1130.977
1129.785
1143.093
1142.492
1141.847
1141.157
1140.421
1139.639
1138.817
1137.953
1137.045
1136.094
1135.098
1134.059
1132.979
1131.86
1130.702
1143.53
1142.964
1142.355
1141.701
1141.002
1140.258
1139.474
1138.648
1137.779
1136.867
1135.909
1134.909
1133.868
1132.786
1131.664
1143.985
1143.455
1142.882
1142.265
1141.604
1140.898
1140.153
1139.367
1138.538
1137.666
1136.749
1135.79
1134.789
1133.748
1132.666
1144.442
1143.947
1143.41
1142.831
1142.207
1141.541
1140.835
1140.089
1139.301
1138.47
1137.596
1136.679
1135.72
1134.721
1133.681
1144.887
1144.428
1143.928
1143.386
1142.8
1142.172
1141.507
1140.8
1140.053
1139.265
1138.432
1137.558
1136.643
1135.687
1134.69
1130.329
1129.117
1127.857
1126.548
1125.193
1123.792
1122.347
1120.827
1119.195
1131.55
1130.385
1129.17
1127.905
1126.59
1125.227
1123.825
1122.371
1120.818
1119.064
1132.76
1131.644
1130.477
1129.259
1127.989
1126.67
1125.309
1123.901
1122.423
1120.79
1118.752
1133.969
1132.904
1131.788
1130.62
1129.401
1128.13
1126.816
1125.455
1124.033
1122.507
1120.729
1118.179
1135.194
1134.181
1133.117
1132.002
1130.836
1129.618
1128.358
1127.05
1125.684
1124.235
1122.627
1120.612
1117.228
1136.428
1135.466
1134.455
1133.393
1132.28
1131.117
1129.913
1128.662
1127.358
1125.982
1124.49
1122.762
1120.407
1115.855
1137.59
1136.678