/*--------------------------------*- C++ -*----------------------------------*\
| =========                 |                                                 |
| \\      /  F ield         | OpenFOAM: The Open Source CFD Toolbox           |
|  \\    /   O peration     | Version:  2306                                  |
|   \\  /    A nd           | Website:  www.openfoam.com                      |
|    \\/     M anipulation  |                                                 |
\*---------------------------------------------------------------------------*/
FoamFile
{
    version     2.0;
    format      ascii;
    arch        "LSB;label=32;scalar=64";
    class       volScalarField;
    location    "0.3/air";
    object      N2;
}
// * * * * * * * * * * * * * * * * * * * * * * * * * * * * * * * * * * * * * //

dimensions      [0 0 0 0 0 0 0];

internalField   nonuniform List<scalar> 
16000
(
0.7702854
0.7702802
0.7713617
0.7703193
0.7702725
0.7712794
0.7703111
0.7734625
0.7714712
0.7703998
0.7702653
0.7711729
0.7703005
0.77336
0.771361
0.7703824
0.7756962
0.7735965
0.7717549
0.7705544
0.770261
0.7710824
0.7702911
0.7732201
0.7712251
0.7703635
0.7755913
0.7734632
0.7716076
0.7705182
0.7779175
0.7758354
0.7739307
0.7722743
0.7708377
0.770261
0.7710317
0.7702853
0.7730963
0.7711138
0.7703485
0.7754474
0.7732892
0.7714267
0.7704791
0.7778147
0.7756998
0.7737607
0.7720897
0.7707703
0.780076
0.7780537
0.7761804
0.7745236
0.7730844
0.7713446
0.8053337
0.7702653
0.7710317
0.7702853
0.7730251
0.7710528
0.7703395
0.7753194
0.773139
0.7712796
0.7704501
0.7776739
0.7755219
0.7735418
0.7718585
0.7706938
0.7799772
0.7779212
0.7760096
0.7743198
0.7728669
0.771243
0.7821583
0.7802077
0.7783907
0.7767875
0.7754237
0.7742264
0.7721803
0.8041304
0.8071707
0.8055234
0.7702725
0.7710824
0.7702911
0.7730251
0.7710528
0.7703395
0.7752455
0.7730538
0.7712
0.7704348
0.7775487
0.7753674
0.7733549
0.7716674
0.7706351
0.7798417
0.7777475
0.7757887
0.7740566
0.7725869
0.7711122
0.7820633
0.7800803
0.7782249
0.7765865
0.7751911
0.7739727
0.7720392
0.7841658
0.7822848
0.7805332
0.7789821
0.7776996
0.7766692
0.7757598
0.7734871
0.8016995
0.8060788
0.8043245
0.8081453
0.8073469
0.8059022
0.7702802
0.7711729
0.7703005
0.7730963
0.7711138
0.7703485
0.7752455
0.7730538
0.7712
0.7704348
0.7774765
0.7752796
0.7732496
0.7715625
0.7706039
0.7797212
0.7775969
0.7755991
0.7738319
0.7723511
0.7710022
0.7819331
0.7799133
0.7780105
0.7763259
0.7748881
0.7736461
0.7718466
0.7840744
0.7821623
0.780374
0.7787883
0.7774754
0.7764109
0.7754601
0.7732742
0.7861039
0.7842874
0.7825973
0.7811038
0.779867
0.7789461
0.7782907
0.7777487
0.7754827
0.7979515
0.803878
0.801909
0.8071154
0.8062584
0.804711
0.8089214
0.8083105
0.8076988
0.8064689
0.7702854
0.7712794
0.7703111
0.7732201
0.7712251
0.7703635
0.7753194
0.773139
0.7712796
0.7704501
0.7774765
0.7752796
0.7732496
0.7715625
0.7706039
0.7796518
0.7775112
0.7754918
0.7737054
0.7722199
0.7709409
0.7818174
0.7797685
0.7778266
0.7761022
0.7746281
0.7733694
0.771679
0.7839493
0.7820019
0.7801683
0.7785376
0.7771822
0.7760709
0.775072
0.7729831
0.7860158
0.7841697
0.7824443
0.7809182
0.7796526
0.778703
0.7780015
0.7773735
0.7750832
0.787979
0.7862211
0.7845881
0.7831451
0.7819566
0.7810708
0.7805461
0.7803185
0.7802769
0.7785707
0.7925349
0.8004997
0.7982195
0.8050403
0.8040699
0.8023212
0.8079441
0.8072836
0.8066161
0.8052871
0.8096883
0.8090779
0.8086404
0.8082254
0.8072222
0.7713617
0.7703193
0.77336
0.771361
0.7703824
0.7754474
0.7732892
0.7714267
0.7704791
0.7775487
0.7753674
0.7733549
0.7716674
0.7706351
0.7796518
0.7775112
0.7754918
0.7737054
0.7722199
0.7709409
0.7817507
0.7796861
0.7777227
0.7759757
0.7744814
0.7732147
0.771584
0.783838
0.7818628
0.7799918
0.7783224
0.7769292
0.7757774
0.7747425
0.772734
0.7858952
0.7840155
0.7822468
0.7806781
0.779373
0.7783815
0.7776181
0.7768935
0.7746011
0.787894
0.7861076
0.784441
0.7829669
0.7817518
0.7808401
0.780279
0.7799696
0.7797292
0.7776168
0.7897971
0.7880922
0.7865107
0.7851152
0.7839635
0.7831149
0.7826091
0.7825178
0.7828046
0.7835078
0.7837124
0.7956563
0.7930881
0.801857
0.8007402
0.7987185
0.8059755
0.8052197
0.8044479
0.8029261
0.8087554
0.8081033
0.8076186
0.8071496
0.8060498
0.8105305
0.8098375
0.8093904
0.8091343
0.8089258
0.8083106
0.7734625
0.7714712
0.7703998
0.7755913
0.7734632
0.7716076
0.7705182
0.7776739
0.7755219
0.7735418
0.7718585
0.7706938
0.7797212
0.7775969
0.7755991
0.7738319
0.7723511
0.7710022
0.7817507
0.7796861
0.7777227
0.7759757
0.7744814
0.7732147
0.771584
0.7837739
0.7817837
0.779892
0.7782008
0.7767857
0.7756114
0.7745579
0.7725944
0.785788
0.7838818
0.7820775
0.7804722
0.7791319
0.7781023
0.7772867
0.7764912
0.7742218
0.7877775
0.7859589
0.7842511
0.7827365
0.7814847
0.7805357
0.7799228
0.7795139
0.7790828
0.7767629
0.7897148
0.7879825
0.7863689
0.7849437
0.7837669
0.7828949
0.7823566
0.7821972
0.7822988
0.7824731
0.7809732
0.7915631
0.7899066
0.7883719
0.7870186
0.7859028
0.7850751
0.7845926
0.7844976
0.7849034
0.7858884
0.7878871
0.7862772
0.7972978
0.7961389
0.7939126
0.8029567
0.8020813
0.8011898
0.7994102
0.8068763
0.8061451
0.805573
0.8050037
0.8037146
0.8096367
0.8089071
0.8084205
0.8081185
0.8078566
0.8071479
0.8114277
0.8106736
0.8101356
0.8098582
0.8097913
0.8099384
0.8085351
0.7756962
0.7735965
0.7717549
0.7705544
0.7778147
0.7756998
0.7737607
0.7720897
0.7707703
0.7798417
0.7777475
0.7757887
0.7740566
0.7725869
0.7711122
0.7818174
0.7797685
0.7778266
0.7761022
0.7746281
0.7733694
0.771679
0.7837739
0.7817837
0.779892
0.7782008
0.7767857
0.7756114
0.7745579
0.7725944
0.7857262
0.7838057
0.7819818
0.7803559
0.7789954
0.7779436
0.7770993
0.7762677
0.7740189
0.7876739
0.7858301
0.7840883
0.7825391
0.7812546
0.7802718
0.779613
0.7791263
0.7785686
0.7761822
0.7896021
0.787839
0.7861858
0.7847222
0.7835108
0.7826048
0.7820207
0.781776
0.7816952
0.7815093
0.7795205
0.7914832
0.7898005
0.7882349
0.7868532
0.7857136
0.7848638
0.7843521
0.7841942
0.7844334
0.784922
0.7853182
0.7830578
0.7932811
0.7916692
0.7901774
0.7888625
0.7877776
0.7869727
0.7864932
0.7864042
0.7867765
0.787834
0.7899959
0.7900846
0.788272
0.7986359
0.7977482
0.7968632
0.7948719
0.8039954
0.8031685
0.8025006
0.8018158
0.8002653
0.8078364
0.8070379
0.8064792
0.8060925
0.8057296
0.8048347
0.810568
0.8097821
0.8092096
0.8088937
0.808781
0.8088755
0.8073744
0.8123756
0.8115652
0.8109592
0.8105819
0.8104807
0.8107413
0.8101472
0.8087615
0.7779175
0.7758354
0.7739307
0.7722743
0.7708377
0.7799772
0.7779212
0.7760096
0.7743198
0.7728669
0.771243
0.7819331
0.7799133
0.7780105
0.7763259
0.7748881
0.7736461
0.7718466
0.783838
0.7818628
0.7799918
0.7783224
0.7769292
0.7757774
0.7747425
0.772734
0.7857262
0.7838057
0.7819818
0.7803559
0.7789954
0.7779436
0.7770993
0.7762677
0.7740189
0.7876143
0.7857568
0.7839963
0.7824276
0.7811243
0.780122
0.7794369
0.7789095
0.7782911
0.7758928
0.7895018
0.7877145
0.7860289
0.7845323
0.7832902
0.7823534
0.7817291
0.7814159
0.7812109
0.7808257
0.7786806
0.7913739
0.7896615
0.788058
0.7866395
0.7854671
0.7845855
0.7840321
0.7837967
0.7838713
0.7840199
0.7838605
0.7812969
0.7932036
0.7915662
0.7900446
0.7887027
0.7875949
0.7867692
0.786262
0.7861148
0.78633
0.786924
0.7875801
0.7871032
0.7849051
0.7949551
0.7933842
0.7919317
0.7906522
0.7895961
0.7888091
0.7883382
0.7882323
0.7885877
0.7895722
0.7917205
0.7920534
0.7918039
0.7899044
0.7998731
0.7990611
0.7984234
0.7977124
0.7959003
0.8050766
0.804197
0.8035645
0.8030842
0.8025935
0.801427
0.8088366
0.8079911
0.8073562
0.8069705
0.8067713
0.8067628
0.8050656
0.8115466
0.8107078
0.8100718
0.8096608
0.809521
0.8097359
0.8090856
0.8076028
0.8133563
0.8125083
0.81184
0.8113869
0.8111757
0.8113808
0.8109373
0.8103579
0.8089899
0.780076
0.7780537
0.7761804
0.7745236
0.7730844
0.7713446
0.7820633
0.7800803
0.7782249
0.7765865
0.7751911
0.7739727
0.7720392
0.7839493
0.7820019
0.7801683
0.7785376
0.7771822
0.7760709
0.775072
0.7729831
0.785788
0.7838818
0.7820775
0.7804722
0.7791319
0.7781023
0.7772867
0.7764912
0.7742218
0.7876143
0.7857568
0.7839963
0.7824276
0.7811243
0.780122
0.7794369
0.7789095
0.7782911
0.7758928
0.7894441
0.7876437
0.7859402
0.7844251
0.7831654
0.7822107
0.7815637
0.7812138
0.7809484
0.7804763
0.7782877
0.7912767
0.789541
0.7879064
0.7864564
0.7852549
0.7843445
0.7837544
0.7834576
0.7834194
0.7833779
0.7829742
0.7803044
0.7930974
0.7914315
0.7898733
0.7884961
0.787357
0.7865012
0.7859547
0.7857355
0.7857972
0.7860754
0.7862079
0.7853884
0.7829437
0.7948797
0.7932842
0.7918029
0.7904973
0.7894193
0.7886124
0.7881152
0.7879537
0.7881607
0.788705
0.7894337
0.7892459
0.7886927
0.7865234
0.7965883
0.7950554
0.7936391
0.7923921
0.7913623
0.7905932
0.7901262
0.7900131
0.7903293
0.7912645
0.7932773
0.793666
0.7936595
0.7932216
0.7912828
0.8011283
0.8002779
0.7996983
0.7992139
0.7986305
0.7971405
0.8061826
0.8052695
0.8045739
0.8041156
0.8038092
0.8036545
0.801666
0.809877
0.8089853
0.8082959
0.8078243
0.8076125
0.8077376
0.8069757
0.8052983
0.8125549
0.8116814
0.8109864
0.8105042
0.810259
0.8104253
0.8099328
0.8092975
0.8078331
0.814362
0.8134845
0.8127733
0.8122514
0.8119561
0.8120344
0.8115665
0.8111349
0.8105703
0.8092202
0.7821583
0.7802077
0.7783907
0.7767875
0.7754237
0.7742264
0.7721803
0.7840744
0.7821623
0.780374
0.7787883
0.7774754
0.7764109
0.7754601
0.7732742
0.7858952
0.7840155
0.7822468
0.7806781
0.779373
0.7783815
0.7776181
0.7768935
0.7746011
0.7876739
0.7858301
0.7840883
0.7825391
0.7812546
0.7802718
0.779613
0.7791263
0.7785686
0.7761822
0.7894441
0.7876437
0.7859402
0.7844251
0.7831654
0.7822107
0.7815637
0.7812138
0.7809484
0.7804763
0.7782877
0.7912207
0.7894725
0.7878208
0.7863531
0.7851348
0.7842078
0.7835968
0.7832676
0.783174
0.783049
0.782547
0.7798488
0.793003
0.7913146
0.7897266
0.7883192
0.7871523
0.7862692
0.7856882
0.785412
0.7853698
0.7854719
0.7853722
0.7843796
0.781835
0.7947764
0.7931533
0.7916368
0.7902972
0.7891892
0.7883535
0.787819
0.787589
0.7876512
0.7878975
0.7881365
0.7876289
0.7868084
0.784448
0.7965149
0.7949581
0.793514
0.7922418
0.791191
0.7904027
0.7899104
0.7897443
0.7899182
0.7904338
0.7910957
0.7910061
0.7907261
0.7900921
0.7879287
0.7981835
0.7966859
0.7953033
0.7940863
0.7930809
0.792328
0.7918669
0.7917427
0.7920336
0.7929019
0.7948115
0.7951312
0.7951829
0.79498
0.7944291
0.792646
0.8023859
0.8015155
0.8008843
0.800444
0.8000676
0.799747
0.7973945
0.8073179
0.806368
0.8056302
0.8050986
0.8048002
0.8047984
0.8038728
0.8019065
0.810941
0.8100204
0.8092783
0.8087442
0.8084362
0.8085265
0.8079367
0.8071904
0.8055328
0.8135858
0.8126852
0.8119501
0.8114022
0.8110774
0.8111214
0.8106118
0.8101314
0.8095111
0.8080653
0.8153836
0.8144862
0.8137407
0.8131701
0.8127988
0.8127791
0.8122115
0.8117537
0.8113342
0.8107846
0.8095013
0.7841658
0.7822848
0.7805332
0.7789821
0.7776996
0.7766692
0.7757598
0.7734871
0.7860158
0.7841697
0.7824443
0.7809182
0.7796526
0.778703
0.7780015
0.7773735
0.7750832
0.7877775
0.7859589
0.7842511
0.7827365
0.7814847
0.7805357
0.7799228
0.7795139
0.7790828
0.7767629
0.7895018
0.7877145
0.7860289
0.7845323
0.7832902
0.7823534
0.7817291
0.7814159
0.7812109
0.7808257
0.7786806
0.7912207
0.7894725
0.7878208
0.7863531
0.7851348
0.7842078
0.7835968
0.7832676
0.783174
0.783049
0.782547
0.7798488
0.7929486
0.7912482
0.7896436
0.7882193
0.7870365
0.7861375
0.7855372
0.7852307
0.7851382
0.7851625
0.7849688
0.7839034
0.7813294
0.7946846
0.7930398
0.7914944
0.7901258
0.7889912
0.7881295
0.7875621
0.7872783
0.7872425
0.787324
0.787347
0.786676
0.7857038
0.7832623
0.7964143
0.7948307
0.7933526
0.7920477
0.7909679
0.7901521
0.789624
0.7893924
0.789428
0.7896604
0.7898588
0.789475
0.7889464
0.788108
0.7858042
0.7981119
0.7965912
0.7951816
0.7939402
0.7929145
0.7921432
0.7916578
0.7914824
0.7916367
0.7921024
0.7927214
0.7925931
0.792402
0.7920255
0.7913137
0.7893261
0.7997432
0.7982787
0.7969274
0.7957383
0.7947554
0.7940177
0.7935619
0.7934308
0.7936939
0.794513
0.7963118
0.796586
0.7965759
0.7964288
0.7961012
0.7956357
0.7929229
0.8036571
0.8027579
0.8020956
0.8015939
0.8012489
0.8011043
0.7999757
0.7976488
0.8084672
0.8074966
0.8067145
0.8061324
0.8057504
0.8057343
0.8050019
0.8040925
0.8021485
0.8120227
0.8110795
0.8103029
0.8097093
0.8093302
0.8093071
0.8087149
0.8081375
0.8074067
0.8057692
0.8146306
0.813712
0.812945
0.8123511
0.8119535
0.8119037
0.8112992
0.8107998
0.8103316
0.8097266
0.8083486
0.8164161
0.8155041
0.8147344
0.8141244
0.8136982
0.8135905
0.8129489
0.8123901
0.8119426
0.8115352
0.811046
0.8097891
0.7861039
0.7842874
0.7825973
0.7811038
0.779867
0.7789461
0.7782907
0.7777487
0.7754827
0.787894
0.7861076
0.784441
0.7829669
0.7817518
0.7808401
0.780279
0.7799696
0.7797292
0.7776168
0.7896021
0.787839
0.7861858
0.7847222
0.7835108
0.7826048
0.7820207
0.781776
0.7816952
0.7815093
0.7795205
0.7912767
0.789541
0.7879064
0.7864564
0.7852549
0.7843445
0.7837544
0.7834576
0.7834194
0.7833779
0.7829742
0.7803044
0.7929486
0.7912482
0.7896436
0.7882193
0.7870365
0.7861375
0.7855372
0.7852307
0.7851382
0.7851625
0.7849688
0.7839034
0.7813294
0.7946317
0.7929753
0.791414
0.790029
0.7888792
0.7880024
0.7874166
0.7871043
0.7870209
0.7870305
0.786966
0.7862256
0.7851874
0.7827222
0.7963249
0.7947204
0.7932143
0.7918814
0.790776
0.7899352
0.7893757
0.7890926
0.789035
0.7891112
0.7891069
0.7885732
0.7879014
0.7869377
0.7845801
0.7980138
0.7964672
0.7950246
0.7937515
0.792698
0.7919
0.7913802
0.7911418
0.7911635
0.7913581
0.7915362
0.7911324
0.7907152
0.7901489
0.7892816
0.7872044
0.7996733
0.7981863
0.7968088
0.7955961
0.7945936
0.7938382
0.7933589
0.7931784
0.7933097
0.7937414
0.794301
0.794154
0.7939217
0.7936262
0.7931558
0.7925349
0.7896099
0.8012697
0.7998361
0.7985141
0.797351
0.7963892
0.7956657
0.7952153
0.7950777
0.7953194
0.7960896
0.7978004
0.7980174
0.7979683
0.7977616
0.7974853
0.7972172
0.7958809
0.793198
0.8049286
0.8040156
0.8033152
0.8027744
0.8023596
0.8022261
0.8013167
0.8002049
0.7979036
0.8096268
0.8086398
0.8078306
0.807197
0.8067562
0.8066397
0.8059265
0.8052067
0.8043136
0.802392
0.8131141
0.8121569
0.8113525
0.8107184
0.8102726
0.8101644
0.8094867
0.8089048
0.8083398
0.8076247
0.8060573
0.8156845
0.814753
0.8139636
0.8133326
0.8128828
0.8127482
0.8120741
0.8114785
0.8109895
0.8105336
0.8099895
0.8086388
0.8174555
0.8165332
0.8157449
0.815106
0.8146349
0.8144618
0.8137538
0.8131201
0.8125703
0.812133
0.8117805
0.8113136
0.8100084
0.787979
0.7862211
0.7845881
0.7831451
0.7819566
0.7810708
0.7805461
0.7803185
0.7802769
0.7785707
0.7897148
0.7879825
0.7863689
0.7849437
0.7837669
0.7828949
0.7823566
0.7821972
0.7822988
0.7824731
0.7809732
0.7913739
0.7896615
0.788058
0.7866395
0.7854671
0.7845855
0.7840321
0.7837967
0.7838713
0.7840199
0.7838605
0.7812969
0.793003
0.7913146
0.7897266
0.7883192
0.7871523
0.7862692
0.7856882
0.785412
0.7853698
0.7854719
0.7853722
0.7843796
0.781835
0.7946317
0.7929753
0.791414
0.790029
0.7888792
0.7880024
0.7874166
0.7871043
0.7870209
0.7870305
0.786966
0.7862256
0.7851874
0.7827222
0.7962734
0.7946576
0.7931362
0.7917875
0.7906674
0.7898122
0.789235
0.7889247
0.7888221
0.7888301
0.7887444
0.7881471
0.7874123
0.7863923
0.7840221
0.7979267
0.7963597
0.79489
0.79359
0.7925117
0.7916896
0.7911397
0.7908518
0.7907841
0.7908298
0.7908157
0.7902726
0.789725
0.78904
0.7880752
0.7859786
0.7995776
0.7980654
0.7966558
0.7954125
0.7943831
0.793602
0.7930894
0.7928482
0.7928516
0.7930231
0.7931606
0.7927542
0.7923119
0.791846
0.7912308
0.7904939
0.7874892
0.8012014
0.7997459
0.7983984
0.7972124
0.7962317
0.795491
0.7950179
0.7948325
0.7949468
0.7953432
0.7958607
0.7956779
0.7954249
0.7950861
0.7946896
0.7942804
0.792783
0.7898919
0.802765
0.8013604
0.8000658
0.7989271
0.797985
0.797275
0.7968297
0.7966869
0.7969089
0.797639
0.7992671
0.7994444
0.7993458
0.7991025
0.7987663
0.7985351
0.7974439
0.7961246
0.7934713
0.8061998
0.8052749
0.8045525
0.8039672
0.8035067
0.8032888
0.8024262
0.8015294
0.8004345
0.7981588
0.8107896
0.8097939
0.8089625
0.8082956
0.8077965
0.8076073
0.8068227
0.80612
0.8054128
0.8045361
0.8026883
0.814211
0.8132442
0.8124212
0.8117541
0.8112616
0.8110746
0.8103363
0.8096676
0.8090962
0.8085437
0.8078906
0.8063526
0.8167437
0.8158034
0.8149971
0.814339
0.8138465
0.8136492
0.812912
0.812246
0.8116594
0.8111807
0.8107799
0.8102586
0.80886
0.8184988
0.8175695
0.8167672
0.8161055
0.8156005
0.8153732
0.8146193
0.8139184
0.8132927
0.8127519
0.8123654
0.8120314
0.8115174
0.8101576
0.7897971
0.7880922
0.7865107
0.7851152
0.7839635
0.7831149
0.7826091
0.7825178
0.7828046
0.7835078
0.7837124
0.7914832
0.7898005
0.7882349
0.7868532
0.7857136
0.7848638
0.7843521
0.7841942
0.7844334
0.784922
0.7853182
0.7830578
0.7930974
0.7914315
0.7898733
0.7884961
0.787357
0.7865012
0.7859547
0.7857355
0.7857972
0.7860754
0.7862079
0.7853884
0.7829437
0.7946846
0.7930398
0.7914944
0.7901258
0.7889912
0.7881295
0.7875621
0.7872783
0.7872425
0.787324
0.787347
0.786676
0.7857038
0.7832623
0.7962734
0.7946576
0.7931362
0.7917875
0.7906674
0.7898122
0.789235
0.7889247
0.7888221
0.7888301
0.7887444
0.7881471
0.7874123
0.7863923
0.7840221
0.7978764
0.7962986
0.7948141
0.7934987
0.7924063
0.7915703
0.7910034
0.7906894
0.7905786
0.7905594
0.7904683
0.7898666
0.7892616
0.7885225
0.7875132
0.7854198
0.7994925
0.7979606
0.7965248
0.7952553
0.794202
0.7933976
0.7928559
0.792567
0.7924845
0.7925131
0.7924674
0.7919302
0.7913672
0.7907943
0.7900858
0.7892789
0.7862635
0.8011079
0.7996279
0.7982493
0.7970336
0.7960267
0.7952612
0.7947559
0.7945118
0.7945027
0.7946481
0.7947602
0.7943309
0.7938819
0.7933866
0.7928622
0.7923429
0.7907405
0.7877727
0.8026982
0.8012723
0.7999529
0.798792
0.7978315
0.7971048
0.7966375
0.7964484
0.796547
0.7969156
0.7973913
0.7971877
0.7968989
0.7965383
0.7960967
0.7957457
0.7945088
0.7930295
0.7901721
0.804231
0.8028537
0.8015849
0.800469
0.7995454
0.798848
0.7984079
0.7982605
0.7984654
0.7991589
0.8007163
0.800856
0.8007247
0.8004355
0.8000633
0.7997638
0.7987484
0.7976692
0.7963669
0.793743
0.8074648
0.806535
0.8057936
0.8051808
0.8046707
0.8043954
0.8034791
0.8026267
0.8017425
0.8006645
0.7984681
0.8119525
0.8109517
0.8101064
0.8094118
0.8088733
0.8086143
0.8077825
0.8070068
0.8063146
0.8056202
0.804807
0.802992
0.8153101
0.8143374
0.8135006
0.8128101
0.8122791
0.8120348
0.8112399
0.8105096
0.80985
0.809289
0.8087924
0.8081629
0.8065776
0.8178054
0.8168594
0.8160406
0.8153613
0.8148368
0.8145874
0.8138072
0.8130773
0.8124192
0.8118417
0.8114139
0.811032
0.8104635
0.8090104
0.8195435
0.8186098
0.8177971
0.8171176
0.8165853
0.8163156
0.8155254
0.8147781
0.8140845
0.8134668
0.8129736
0.8126031
0.8122224
0.8116558
0.810234
0.7925349
0.7915631
0.7899066
0.7883719
0.7870186
0.7859028
0.7850751
0.7845926
0.7844976
0.7849034
0.7858884
0.7878871
0.7862772
0.7932036
0.7915662
0.7900446
0.7887027
0.7875949
0.7867692
0.786262
0.7861148
0.78633
0.786924
0.7875801
0.7871032
0.7849051
0.7947764
0.7931533
0.7916368
0.7902972
0.7891892
0.7883535
0.787819
0.787589
0.7876512
0.7878975
0.7881365
0.7876289
0.7868084
0.784448
0.7963249
0.7947204
0.7932143
0.7918814
0.790776
0.7899352
0.7893757
0.7890926
0.789035
0.7891112
0.7891069
0.7885732
0.7879014
0.7869377
0.7845801
0.7978764
0.7962986
0.7948141
0.7934987
0.7924063
0.7915703
0.7910034
0.7906894
0.7905786
0.7905594
0.7904683
0.7898666
0.7892616
0.7885225
0.7875132
0.7854198
0.7994435
0.797901
0.7964508
0.7951665
0.7940995
0.7932817
0.7927236
0.7924096
0.7922857
0.7922521
0.7921332
0.7915411
0.7909253
0.7903034
0.7895515
0.7887126
0.7857047
0.8010248
0.7995256
0.7981215
0.7968804
0.7958504
0.7950624
0.7945289
0.7942387
0.7941467
0.7941547
0.7940912
0.793538
0.7929765
0.7923828
0.7917752
0.791187
0.789524
0.7865474
0.8026067
0.801157
0.7998073
0.7986175
0.7976317
0.796881
0.7963825
0.7961364
0.7961156
0.7962418
0.7963268
0.795888
0.7954143
0.7949093
0.7943516
0.7939049
0.7925691
0.7909859
0.7880548
0.8041656
0.8027675
0.8014745
0.800337
0.7993956
0.798682
0.7982206
0.7980282
0.7981134
0.7984565
0.7988989
0.7986737
0.7983644
0.7979685
0.7975044
0.7970992
0.7959601
0.7947356
0.7932745
0.7904504
0.8056692
0.8043178
0.8030731
0.8019788
0.8010725
0.8003871
0.7999519
0.7998008
0.7999902
0.8006513
0.8021444
0.8022549
0.8020931
0.8017747
0.8013582
0.8010167
0.7999663
0.7989603
0.7978931
0.7966077
0.7940696
0.8087219
0.8077898
0.8070371
0.8064005
0.8058586
0.8055242
0.8045774
0.8036698
0.8028276
0.8019561
0.8009433
0.798785
0.8131127
0.8121099
0.8112547
0.8105414
0.80997
0.8096615
0.8087826
0.8079587
0.8071921
0.8065104
0.8058727
0.8050844
0.8032235
0.8164089
0.815433
0.8145865
0.8138779
0.8133185
0.8130263
0.8121941
0.8114065
0.8106843
0.8100338
0.8095242
0.8090468
0.8083702
0.8067307
0.8188673
0.8179181
0.8170901
0.8163945
0.8158443
0.8155544
0.8147402
0.8139666
0.8132439
0.8125939
0.8120641
0.8116526
0.8112238
0.8106027
0.8090875
0.8205879
0.8196517
0.8188315
0.818138
0.8175838
0.8172792
0.8164631
0.815679
0.8149383
0.814252
0.8136793
0.8132003
0.8127838
0.812352
0.8117267
0.7979515
0.7956563
0.7930881
0.7932811
0.7916692
0.7901774
0.7888625
0.7877776
0.7869727
0.7864932
0.7864042
0.7867765
0.787834
0.7899959
0.7900846
0.788272
0.7948797
0.7932842
0.7918029
0.7904973
0.7894193
0.7886124
0.7881152
0.7879537
0.7881607
0.788705
0.7894337
0.7892459
0.7886927
0.7865234
0.7964143
0.7948307
0.7933526
0.7920477
0.7909679
0.7901521
0.789624
0.7893924
0.789428
0.7896604
0.7898588
0.789475
0.7889464
0.788108
0.7858042
0.7979267
0.7963597
0.79489
0.79359
0.7925117
0.7916896
0.7911397
0.7908518
0.7907841
0.7908298
0.7908157
0.7902726
0.789725
0.78904
0.7880752
0.7859786
0.7994435
0.797901
0.7964508
0.7951665
0.7940995
0.7932817
0.7927236
0.7924096
0.7922857
0.7922521
0.7921332
0.7915411
0.7909253
0.7903034
0.7895515
0.7887126
0.7857047
0.8009769
0.7994674
0.7980493
0.7967939
0.7957507
0.7949497
0.7944003
0.7940858
0.793954
0.7939022
0.7937686
0.7931637
0.7925529
0.7919144
0.7912681
0.7906473
0.788957
0.7859887
0.8025255
0.8010571
0.7996826
0.7984681
0.7974598
0.7966873
0.7961616
0.7958709
0.7957699
0.7957634
0.7956797
0.7951229
0.794543
0.793947
0.7933138
0.7928066
0.7914112
0.7897682
0.7868303
0.8040761
0.8026547
0.8013323
0.8001666
0.7992006
0.7984637
0.797972
0.7977245
0.7976938
0.7978023
0.7978673
0.7974167
0.796932
0.796401
0.7958315
0.7953408
0.794117
0.7927941
0.7912301
0.7883356
0.8056051
0.8042334
0.8029652
0.8018498
0.8009262
0.800225
0.7997691
0.7995744
0.7996475
0.7999684
0.8003805
0.8001406
0.7998107
0.7993949
0.7988962
0.7984622
0.7973027
0.7961731
0.794961
0.7935179
0.7907851
0.8070816
0.8057542
0.8045325
0.8034583
0.8025685
0.8018942
0.801464
0.8013096
0.8014853
0.8021168
0.8035521
0.803637
0.8034528
0.8031075
0.8026637
0.8022736
0.8012103
0.8001677
0.7991709
0.7981156
0.7968974
0.7944043
0.8099695
0.8090376
0.8082768
0.8076246
0.8070553
0.8066808
0.805699
0.8047597
0.8038608
0.8030288
0.8022149
0.8012289
0.7990266
0.8142685
0.8132658
0.8124042
0.8116766
0.8110818
0.8107316
0.8098237
0.8089519
0.808136
0.8073786
0.8067489
0.8061312
0.8052957
0.803381
0.8175055
0.8165287
0.8156754
0.814953
0.814371
0.8140421
0.8131803
0.8123547
0.8115744
0.8108603
0.8102579
0.8097648
0.8092405
0.8085111
0.8068092
0.8199278
0.8189772
0.8181428
0.8174344
0.8168637
0.8165405
0.8157024
0.8148942
0.8141273
0.8134119
0.8128071
0.8122916
0.811834
0.8113541
0.810674
0.8216308
0.8206935
0.819868
0.8191636
0.8185916
0.818258
0.8174223
0.8166118
0.8158338
0.8150998
0.8144563
0.8138964
0.8133726
0.8129065
0.8124183
0.8016995
0.8004997
0.7982195
0.7972978
0.7961389
0.7939126
0.7949551
0.7933842
0.7919317
0.7906522
0.7895961
0.7888091
0.7883382
0.7882323
0.7885877
0.7895722
0.7917205
0.7920534
0.7918039
0.7899044
0.7965149
0.7949581
0.793514
0.7922418
0.791191
0.7904027
0.7899104
0.7897443
0.7899182
0.7904338
0.7910957
0.7910061
0.7907261
0.7900921
0.7879287
0.7980138
0.7964672
0.7950246
0.7937515
0.792698
0.7919
0.7913802
0.7911418
0.7911635
0.7913581
0.7915362
0.7911324
0.7907152
0.7901489
0.7892816
0.7872044
0.7994925
0.7979606
0.7965248
0.7952553
0.794202
0.7933976
0.7928559
0.792567
0.7924845
0.7925131
0.7924674
0.7919302
0.7913672
0.7907943
0.7900858
0.7892789
0.7862635
0.8009769
0.7994674
0.7980493
0.7967939
0.7957507
0.7949497
0.7944003
0.7940858
0.793954
0.7939022
0.7937686
0.7931637
0.7925529
0.7919144
0.7912681
0.7906473
0.788957
0.7859887
0.8024786
0.8010003
0.7996122
0.7983837
0.7973627
0.7965775
0.7960364
0.7957222
0.7955827
0.7955187
0.7953676
0.7947616
0.7941354
0.793498
0.7928297
0.7922939
0.7908706
0.7892006
0.7862719
0.8039966
0.802557
0.8012104
0.8000207
0.799033
0.7982749
0.7977567
0.7974659
0.7973576
0.7973378
0.79724
0.7966766
0.7960912
0.795475
0.7948365
0.7942918
0.7930166
0.7916345
0.7900115
0.7871122
0.8055175
0.8041231
0.8028261
0.8016833
0.8007358
0.800012
0.7995267
0.7992782
0.7992389
0.7993322
0.7993791
0.7989225
0.7984253
0.7978826
0.7972864
0.7967762
0.7955419
0.7943279
0.7930179
0.7914731
0.7886738
0.8070188
0.8056716
0.8044269
0.8033321
0.8024254
0.8017359
0.8012855
0.8010886
0.8011511
0.8014519
0.8018377
0.8015851
0.8012415
0.8008063
0.8002887
0.7998156
0.7986567
0.7975049
0.7963847
0.7951849
0.7938106
0.7911281
0.808469
0.8071649
0.8059645
0.8049095
0.804035
0.8033715
0.8029458
0.8027887
0.8029518
0.8035566
0.8049392
0.8050023
0.8047989
0.8044348
0.8039663
0.8035454
0.8024595
0.8014027
0.8003677
0.7993802
0.7983832
0.797194
0.7946595
0.8112066
0.8102766
0.8095107
0.8088466
0.8082584
0.8078495
0.8068492
0.8058741
0.8049424
0.8040521
0.8032727
0.8024798
0.8014464
0.7991911
0.8154182
0.8144176
0.8135521
0.812814
0.8122008
0.8118191
0.8108883
0.8099869
0.8091223
0.8083145
0.8076056
0.8069928
0.8063279
0.8054393
0.8034618
0.8185985
0.8176223
0.8167647
0.8160319
0.8154321
0.815073
0.8141912
0.8133356
0.8125166
0.8117436
0.8110749
0.8104871
0.8099478
0.809372
0.8085832
0.8209859
0.8200351
0.8191964
0.8184782
0.817891
0.8175402
0.816684
0.8158516
0.8150496
0.8142893
0.8136169
0.813025
0.8124646
0.8119572
0.8114207
0.8226714
0.821734
0.8209046
0.8201918
0.8196055
0.8192476
0.818397
0.8175666
0.8167618
0.81599
0.8152969
0.8146651
0.8140615
0.8134894
0.8129691
0.8041304
0.803878
0.801909
0.801857
0.8007402
0.7987185
0.7986359
0.7977482
0.7968632
0.7948719
0.7965883
0.7950554
0.7936391
0.7923921
0.7913623
0.7905932
0.7901262
0.7900131
0.7903293
0.7912645
0.7932773
0.793666
0.7936595
0.7932216
0.7912828
0.7981119
0.7965912
0.7951816
0.7939402
0.7929145
0.7921432
0.7916578
0.7914824
0.7916367
0.7921024
0.7927214
0.7925931
0.792402
0.7920255
0.7913137
0.7893261
0.7995776
0.7980654
0.7966558
0.7954125
0.7943831
0.793602
0.7930894
0.7928482
0.7928516
0.7930231
0.7931606
0.7927542
0.7923119
0.791846
0.7912308
0.7904939
0.7874892
0.8010248
0.7995256
0.7981215
0.7968804
0.7958504
0.7950624
0.7945289
0.7942387
0.7941467
0.7941547
0.7940912
0.793538
0.7929765
0.7923828
0.7917752
0.791187
0.789524
0.7865474
0.8024786
0.8010003
0.7996122
0.7983837
0.7973627
0.7965775
0.7960364
0.7957222
0.7955827
0.7955187
0.7953676
0.7947616
0.7941354
0.793498
0.7928297
0.7922939
0.7908706
0.7892006
0.7862719
0.8039508
0.8025014
0.8011416
0.7999384
0.7989382
0.7981679
0.7976348
0.7973212
0.7971755
0.7971001
0.7969376
0.7963271
0.7956979
0.7950429
0.7943723
0.7938021
0.7925028
0.791093
0.7894435
0.7865544
0.8054396
0.8040274
0.8027069
0.8015407
0.800572
0.7998277
0.7993167
0.7990262
0.7989115
0.7988805
0.7987702
0.7982053
0.7976121
0.7969891
0.7963289
0.7957704
0.7944909
0.7932257
0.7918569
0.7902539
0.7874521
0.8069329
0.8055634
0.8042907
0.8031692
0.8022393
0.8015277
0.8010487
0.8007996
0.8007528
0.8008325
0.8008642
0.8004028
0.7998991
0.7993437
0.7987355
0.7981932
0.7969684
0.795742
0.7945377
0.7932406
0.7917658
0.7890203
0.8084075
0.8070839
0.805861
0.804786
0.803895
0.8032167
0.8027713
0.8025728
0.8026257
0.8029087
0.8032707
0.803008
0.8026529
0.8022054
0.8016696
0.8011741
0.8000023
0.7988498
0.7977057
0.7965949
0.795454
0.7941103
0.7913896
0.8098339
0.8085507
0.8073711
0.8063337
0.805474
0.8048204
0.8043993
0.8042397
0.8043914
0.8049717
0.8063061
0.8063502
0.8061311
0.8057514
0.8052661
0.8048178
0.8037244
0.8026442
0.8015939
0.8005665
0.7996318
0.7986571
0.79742
0.7948331
0.8124323
0.8115057
0.8107367
0.810064
0.8094612
0.8090272
0.8080122
0.8070179
0.8060495
0.8051254
0.804284
0.8035222
0.8026815
0.8015943
0.7992754
0.816561
0.8155636
0.8146964
0.8139507
0.8133232
0.8129158
0.8119708
0.811046
0.8101512
0.8092938
0.8085317
0.8078377
0.8071784
0.8064615
0.8055128
0.8196871
0.8187125
0.8178524
0.817112
0.816498
0.816114
0.8152176
0.8143416
0.813492
0.8126798
0.8119499
0.8112944
0.8106614
0.810072
0.8094393
0.8220407
0.8210907
0.820249
0.8195234
0.818923
0.8185491
0.8176796
0.8168288
0.816002
0.8152062
0.814487
0.8138264
0.8131906
0.8125818
0.8120201
0.8237091
0.8227723
0.8219403
0.8212207
0.8206227
0.8202445
0.8193829
0.8185372
0.8177121
0.8169131
0.8161805
0.8154982
0.8148238
0.8141733
0.8135491
0.8053337
0.8060788
0.8043245
0.8050403
0.8040699
0.8023212
0.8029567
0.8020813
0.8011898
0.7994102
0.7998731
0.7990611
0.7984234
0.7977124
0.7959003
0.7981835
0.7966859
0.7953033
0.7940863
0.7930809
0.792328
0.7918669
0.7917427
0.7920336
0.7929019
0.7948115
0.7951312
0.7951829
0.79498
0.7944291
0.792646
0.7996733
0.7981863
0.7968088
0.7955961
0.7945936
0.7938382
0.7933589
0.7931784
0.7933097
0.7937414
0.794301
0.794154
0.7939217
0.7936262
0.7931558
0.7925349
0.7896099
0.8011079
0.7996279
0.7982493
0.7970336
0.7960267
0.7952612
0.7947559
0.7945118
0.7945027
0.7946481
0.7947602
0.7943309
0.7938819
0.7933866
0.7928622
0.7923429
0.7907405
0.7877727
0.8025255
0.8010571
0.7996826
0.7984681
0.7974598
0.7966873
0.7961616
0.7958709
0.7957699
0.7957634
0.7956797
0.7951229
0.794543
0.793947
0.7933138
0.7928066
0.7914112
0.7897682
0.7868303
0.8039508
0.8025014
0.8011416
0.7999384
0.7989382
0.7981679
0.7976348
0.7973212
0.7971755
0.7971001
0.7969376
0.7963271
0.7956979
0.7950429
0.7943723
0.7938021
0.7925028
0.791093
0.7894435
0.7865544
0.8053947
0.8039731
0.8026396
0.8014603
0.8004794
0.7997232
0.7991977
0.7988851
0.7987342
0.7986494
0.7984765
0.7978666
0.7972316
0.7965722
0.7958823
0.7953008
0.7940002
0.7927111
0.7913147
0.7896855
0.7868951
0.8068566
0.8054698
0.8041741
0.8030298
0.8020792
0.8013477