/*--------------------------------*- C++ -*----------------------------------*\
| =========                 |                                                 |
| \\      /  F ield         | OpenFOAM: The Open Source CFD Toolbox           |
|  \\    /   O peration     | Version:  2306                                  |
|   \\  /    A nd           | Website:  www.openfoam.com                      |
|    \\/     M anipulation  |                                                 |
\*---------------------------------------------------------------------------*/
FoamFile
{
    version     2.0;
    format      ascii;
    arch        "LSB;label=32;scalar=64";
    class       volScalarField;
    location    "0.3/air";
    object      nernst;
}
// * * * * * * * * * * * * * * * * * * * * * * * * * * * * * * * * * * * * * //

dimensions      [1 2 -3 0 0 -1 0];

internalField   nonuniform List<scalar> 
16000
(
-0.6634027
-0.6572409
-0.6706947
-0.6571398
-0.6538474
-0.6691802
-0.6422316
-0.6726689
-0.6691725
-0.6536651
-0.6519259
-0.6678705
-0.6330203
-0.6720588
-0.6647185
-0.6328837
-0.6743258
-0.6721054
-0.667872
-0.6516527
-0.6510352
-0.6669094
-0.6275306
-0.671508
-0.6608266
-0.6191323
-0.6740324
-0.6703312
-0.6608008
-0.6271675
-0.6758233
-0.6740983
-0.6716201
-0.6669296
-0.6506482
-0.6510352
-0.6664012
-0.6249385
-0.6710861
-0.6579538
-0.6105849
-0.6737714
-0.6687127
-0.654527
-0.610272
-0.6756535
-0.6732828
-0.6687726
-0.6578698
-0.6242179
-0.6772091
-0.6757234
-0.6739218
-0.6712864
-0.6664522
-0.6505007
-0.6744883
-0.6519259
-0.6664012
-0.6249385
-0.6708566
-0.6564307
-0.6064546
-0.6735726
-0.6674648
-0.6498435
-0.5994697
-0.6755063
-0.6725467
-0.666138
-0.6497354
-0.6055805
-0.6770913
-0.6752797
-0.6726372
-0.667598
-0.6562561
-0.6237103
-0.6785049
-0.6771594
-0.6756644
-0.673835
-0.6711735
-0.6665084
-0.6512078
-0.6743034
-0.6760786
-0.6753232
-0.6538474
-0.6669094
-0.6275306
-0.6708566
-0.6564307
-0.6064546
-0.6734647
-0.6667837
-0.6473457
-0.5941653
-0.6753963
-0.6719818
-0.6640843
-0.6436056
-0.5934792
-0.6769913
-0.674889
-0.6714586
-0.6641455
-0.6470382
-0.6047327
-0.6784099
-0.6768688
-0.6749873
-0.672196
-0.6670134
-0.6561599
-0.6256307
-0.6797249
-0.6784745
-0.6771458
-0.6756712
-0.6738732
-0.6713301
-0.6671249
-0.6529039
-0.6739258
-0.6759368
-0.6751208
-0.6775517
-0.6768506
-0.6761878
-0.6572409
-0.6678705
-0.6330203
-0.6710861
-0.6579538
-0.6105849
-0.6734647
-0.6667837
-0.6473457
-0.5941653
-0.6753373
-0.6716736
-0.6629568
-0.6403175
-0.5874833
-0.6769179
-0.6745957
-0.670543
-0.6614308
-0.6400512
-0.5923667
-0.6783304
-0.6766193
-0.674381
-0.6706718
-0.6630894
-0.6467841
-0.6077239
-0.6796414
-0.6782489
-0.6767164
-0.6748315
-0.6720568
-0.6671597
-0.6576426
-0.6302534
-0.6808784
-0.6797021
-0.6784775
-0.6771869
-0.6757635
-0.674062
-0.6717762
-0.6682915
-0.655976
-0.6733172
-0.6756546
-0.6746961
-0.6774239
-0.6767086
-0.6759714
-0.6789012
-0.6782379
-0.6776453
-0.677085
-0.6634027
-0.6691802
-0.6422316
-0.671508
-0.6608266
-0.6191323
-0.6735726
-0.6674648
-0.6498435
-0.5994697
-0.6753373
-0.6716736
-0.6629568
-0.6403175
-0.5874833
-0.676879
-0.6744379
-0.6700399
-0.6599327
-0.6362898
-0.5862262
-0.6782726
-0.6764364
-0.6739201
-0.6694747
-0.6599856
-0.6396653
-0.5961466
-0.6795717
-0.6780587
-0.6763422
-0.6740687
-0.6703501
-0.663208
-0.6490657
-0.6148421
-0.6808016
-0.6795073
-0.6781519
-0.6766708
-0.6748618
-0.67229
-0.6680813
-0.6606285
-0.6383136
-0.6819729
-0.6808587
-0.679711
-0.6785298
-0.6772964
-0.6759564
-0.6744158
-0.6725099
-0.6699871
-0.6615215
-0.6722371
-0.6752337
-0.6739731
-0.6771711
-0.6764272
-0.6755121
-0.6787814
-0.6781146
-0.6775032
-0.676859
-0.680159
-0.6795075
-0.6789438
-0.6784634
-0.6780158
-0.6706947
-0.6571398
-0.6720588
-0.6647185
-0.6328837
-0.6737714
-0.6687127
-0.654527
-0.610272
-0.6753963
-0.6719818
-0.6640843
-0.6436056
-0.5934792
-0.676879
-0.6744379
-0.6700399
-0.6599327
-0.6362898
-0.5862262
-0.6782422
-0.6763396
-0.6736704
-0.6688126
-0.6582668
-0.6358289
-0.5904229
-0.6795213
-0.677922
-0.676065
-0.6734821
-0.6689984
-0.6600722
-0.6425656
-0.6050611
-0.6807374
-0.6793445
-0.6778739
-0.6762148
-0.6740321
-0.6706093
-0.6645639
-0.6537124
-0.6268191
-0.6819007
-0.6806806
-0.679433
-0.6781472
-0.6767618
-0.6751151
-0.672925
-0.6697306
-0.664922
-0.6515571
-0.6830139
-0.6819547
-0.6808695
-0.6797659
-0.678642
-0.6774846
-0.6762612
-0.6749444
-0.6735413
-0.6722751
-0.6680842
-0.6746893
-0.6726451
-0.6768016
-0.6760141
-0.6747243
-0.6785448
-0.6778748
-0.6772219
-0.6763792
-0.6800446
-0.6793935
-0.6788244
-0.6783209
-0.6777849
-0.6813498
-0.6806967
-0.6801321
-0.6796694
-0.6793042
-0.6786023
-0.6726689
-0.6691725
-0.6536651
-0.6740324
-0.6703312
-0.6608008
-0.6271675
-0.6755063
-0.6725467
-0.666138
-0.6497354
-0.6055805
-0.6769179
-0.6745957
-0.670543
-0.6614308
-0.6400512
-0.5923667
-0.6782422
-0.6763396
-0.6736704
-0.6688126
-0.6582668
-0.6358289
-0.5904229
-0.6794949
-0.6778506
-0.6759174
-0.6731618
-0.668247
-0.6583325
-0.6390668
-0.6002753
-0.680691
-0.6792287
-0.6776725
-0.6758733
-0.6733869
-0.6692686
-0.6617659
-0.6484868
-0.6197064
-0.6818402
-0.6805323
-0.6791983
-0.6778169
-0.6762828
-0.6743282
-0.6714865
-0.6670403
-0.6602935
-0.6452692
-0.6829454
-0.6817876
-0.6806163
-0.679443
-0.6782564
-0.6770124
-0.6756131
-0.6739546
-0.6720012
-0.6702315
-0.6640933
-0.6840061
-0.6829966
-0.6819658
-0.6809239
-0.6798762
-0.6788227
-0.6777614
-0.676693
-0.6756845
-0.675019
-0.6743854
-0.6694346
-0.6763721
-0.6755051
-0.6733522
-0.6782008
-0.6775413
-0.6768121
-0.6755678
-0.6798188
-0.6791731
-0.6785943
-0.6780387
-0.6772972
-0.6812397
-0.6805884
-0.680023
-0.6795525
-0.6791612
-0.6783714
-0.6824808
-0.68183
-0.6812517
-0.6807744
-0.6804135
-0.6798323
-0.6786791
-0.6743258
-0.6721054
-0.667872
-0.6516527
-0.6756535
-0.6732828
-0.6687726
-0.6578698
-0.6242179
-0.6769913
-0.674889
-0.6714586
-0.6641455
-0.6470382
-0.6047327
-0.6782726
-0.6764364
-0.6739201
-0.6694747
-0.6599856
-0.6396653
-0.5961466
-0.6794949
-0.6778506
-0.6759174
-0.6731618
-0.668247
-0.6583325
-0.6390668
-0.6002753
-0.6806668
-0.6791686
-0.6775669
-0.6756901
-0.6730324
-0.6685203
-0.660212
-0.6456795
-0.6162711
-0.6817965
-0.6804271
-0.6790305
-0.6775754
-0.6759198
-0.6737085
-0.6703265
-0.6648836
-0.6567836
-0.6413966
-0.6828877
-0.6816484
-0.6804037
-0.6791679
-0.6779191
-0.6765794
-0.674982
-0.6729383
-0.670373
-0.668134
-0.6610243
-0.6839407
-0.6828379
-0.6817285
-0.6806311
-0.6795552
-0.6784966
-0.6774405
-0.676368
-0.6753625
-0.6748047
-0.6736533
-0.6661628
-0.6849532
-0.6839895
-0.6830078
-0.682019
-0.6810308
-0.6800494
-0.6790807
-0.6781428
-0.6772972
-0.6768152
-0.6767157
-0.6750786
-0.6707924
-0.6778132
-0.6772086
-0.6763112
-0.6742476
-0.6794905
-0.6788719
-0.6782825
-0.6776274
-0.6764908
-0.6810222
-0.6803792
-0.679815
-0.6793281
-0.6788773
-0.6778854
-0.6823743
-0.6817259
-0.6811486
-0.6806688
-0.6802979
-0.6796891
-0.6784482
-0.6835597
-0.6829131
-0.6823269
-0.6818236
-0.6814334
-0.680884
-0.6799019
-0.6787563
-0.6758233
-0.6740983
-0.6716201
-0.6669296
-0.6506482
-0.6770913
-0.6752797
-0.6726372
-0.667598
-0.6562561
-0.6237103
-0.6783304
-0.6766193
-0.674381
-0.6706718
-0.6630894
-0.6467841
-0.6077239
-0.6795213
-0.677922
-0.676065
-0.6734821
-0.6689984
-0.6600722
-0.6425656
-0.6050611
-0.6806668
-0.6791686
-0.6775669
-0.6756901
-0.6730324
-0.6685203
-0.660212
-0.6456795
-0.6162711
-0.6817736
-0.6803728
-0.6789432
-0.6774481
-0.6757236
-0.6733654
-0.6696755
-0.6636823
-0.6548963
-0.6395268
-0.682846
-0.6815498
-0.6802524
-0.6789697
-0.6776698
-0.6762453
-0.674472
-0.6720926
-0.6690233
-0.6664826
-0.6589806
-0.6838854
-0.6827056
-0.6815294
-0.6803831
-0.6792784
-0.6782037
-0.677124
-0.6759871
-0.6748643
-0.674239
-0.672793
-0.6635446
-0.6848905
-0.683838
-0.6827823
-0.6817446
-0.6807408
-0.6797838
-0.6788834
-0.6780645
-0.6774015
-0.677174
-0.6767568
-0.6744196
-0.6681182
-0.6858584
-0.6849374
-0.6840006
-0.6830594
-0.6821222
-0.6811968
-0.6802935
-0.6794317
-0.678675
-0.6782532
-0.6782879
-0.6773017
-0.6758187
-0.6721661
-0.6791207
-0.6785948
-0.6779789
-0.67712
-0.6752622
-0.6807055
-0.6800941
-0.6795404
-0.6790242
-0.6784602
-0.677092
-0.6821636
-0.6815246
-0.6809524
-0.6804685
-0.6800751
-0.6794041
-0.6779627
-0.6834562
-0.6828123
-0.6822278
-0.6817242
-0.6813297
-0.6807685
-0.6797587
-0.6785255
-0.6845901
-0.683952
-0.6833615
-0.6828399
-0.6824111
-0.6818547
-0.6809467
-0.6799718
-0.678834
-0.6772091
-0.6757234
-0.6739218
-0.6712864
-0.6664522
-0.6505007
-0.6784099
-0.6768688
-0.6749873
-0.672196
-0.6670134
-0.6561599
-0.6256307
-0.6795717
-0.6780587
-0.6763422
-0.6740687
-0.6703501
-0.663208
-0.6490657
-0.6148421
-0.680691
-0.6792287
-0.6776725
-0.6758733
-0.6733869
-0.6692686
-0.6617659
-0.6484868
-0.6197064
-0.6817736
-0.6803728
-0.6789432
-0.6774481
-0.6757236
-0.6733654
-0.6696755
-0.6636823
-0.6548963
-0.6395268
-0.6828241
-0.681499
-0.6801742
-0.6788663
-0.6775374
-0.6760628
-0.6741858
-0.6716114
-0.6682619
-0.6655824
-0.6579626
-0.6838454
-0.6826119
-0.681388
-0.6802056
-0.6790771
-0.6779827
-0.6768681
-0.675651
-0.6743936
-0.6736899
-0.672078
-0.6617683
-0.6848374
-0.6837114
-0.682593
-0.6815126
-0.6804926
-0.6795485
-0.6786872
-0.6779238
-0.677316
-0.677148
-0.6765996
-0.6736895
-0.6659169
-0.6857983
-0.6847923
-0.6837851
-0.6827984
-0.6818504
-0.6809583
-0.680143
-0.6794368
-0.6789185
-0.6787774
-0.6785554
-0.6772755
-0.6752078
-0.6699905
-0.6867243
-0.6858434
-0.6849485
-0.6840508
-0.6831593
-0.6822821
-0.6814299
-0.6806236
-0.67992
-0.6795276
-0.6795753
-0.6788096
-0.6779117
-0.6765864
-0.6735508
-0.680345
-0.6798342
-0.6792992
-0.6787139
-0.6779365
-0.67592
-0.6818561
-0.6812493
-0.6806947
-0.6802052
-0.6797681
-0.6789831
-0.6771711
-0.6832515
-0.6826171
-0.6820393
-0.6815362
-0.6811324
-0.6805451
-0.6794737
-0.6780405
-0.6844893
-0.6838541
-0.6832656
-0.6827446
-0.6823138
-0.6817513
-0.6808312
-0.6798286
-0.6786034
-0.6855759
-0.684949
-0.68436
-0.6838255
-0.6833679
-0.6827913
-0.6819115
-0.6810096
-0.680042
-0.678912
-0.6785049
-0.6771594
-0.6756644
-0.673835
-0.6711735
-0.6665084
-0.6512078
-0.6796414
-0.6782489
-0.6767164
-0.6748315
-0.6720568
-0.6671597
-0.6576426
-0.6302534
-0.6807374
-0.6793445
-0.6778739
-0.6762148
-0.6740321
-0.6706093
-0.6645639
-0.6537124
-0.6268191
-0.6817965
-0.6804271
-0.6790305
-0.6775754
-0.6759198
-0.6737085
-0.6703265
-0.6648836
-0.6567836
-0.6413966
-0.6828241
-0.681499
-0.6801742
-0.6788663
-0.6775374
-0.6760628
-0.6741858
-0.6716114
-0.6682619
-0.6655824
-0.6579626
-0.6838244
-0.6825635
-0.681315
-0.6801135
-0.6789713
-0.6778638
-0.6767249
-0.6754551
-0.6741134
-0.6733651
-0.6716794
-0.6608764
-0.6847989
-0.6836217
-0.6824586
-0.681347
-0.6803133
-0.6793737
-0.6785293
-0.6777827
-0.677177
-0.6770205
-0.676407
-0.6730885
-0.6643991
-0.6857472
-0.6846709
-0.6836041
-0.6825778
-0.6816182
-0.6807484
-0.679993
-0.6793815
-0.6789788
-0.6789329
-0.6786326
-0.6771306
-0.6745775
-0.6681691
-0.6866666
-0.6857042
-0.684742
-0.6838012
-0.6829004
-0.6820581
-0.6812967
-0.6806524
-0.6801936
-0.6800757
-0.679893
-0.6789699
-0.6778167
-0.6760089
-0.6717986
-0.6875533
-0.6867102
-0.6858545
-0.6849975
-0.6841478
-0.6833137
-0.6825059
-0.681744
-0.6810813
-0.6807031
-0.680737
-0.6800511
-0.6793436
-0.6785306
-0.677367
-0.6743721
-0.6815014
-0.6809939
-0.6804728
-0.6799599
-0.6794302
-0.6784486
-0.6760057
-0.6829518
-0.6823489
-0.6817911
-0.6812911
-0.680868
-0.6802329
-0.6790524
-0.6772507
-0.6842897
-0.6836641
-0.6830828
-0.6825644
-0.6821295
-0.6815536
-0.6806077
-0.6795435
-0.6781189
-0.6854776
-0.6848535
-0.6842668
-0.6837333
-0.6832748
-0.6826944
-0.6818081
-0.6808941
-0.6798988
-0.6786815
-0.6865201
-0.6859069
-0.6853232
-0.6847832
-0.684304
-0.683714
-0.6828433
-0.6819685
-0.6810728
-0.6801124
-0.678994
-0.6797249
-0.6784745
-0.6771458
-0.6756712
-0.6738732
-0.6713301
-0.6671249
-0.6529039
-0.6808016
-0.6795073
-0.6781519
-0.6766708
-0.6748618
-0.67229
-0.6680813
-0.6606285
-0.6383136
-0.6818402
-0.6805323
-0.6791983
-0.6778169
-0.6762828
-0.6743282
-0.6714865
-0.6670403
-0.6602935
-0.6452692
-0.682846
-0.6815498
-0.6802524
-0.6789697
-0.6776698
-0.6762453
-0.674472
-0.6720926
-0.6690233
-0.6664826
-0.6589806
-0.6838244
-0.6825635
-0.681315
-0.6801135
-0.6789713
-0.6778638
-0.6767249
-0.6754551
-0.6741134
-0.6733651
-0.6716794
-0.6608764
-0.6847787
-0.6835754
-0.6823893
-0.6812612
-0.6802198
-0.6792807
-0.6784413
-0.6776966
-0.6770825
-0.6769267
-0.6762849
-0.6727541
-0.6636311
-0.6857101
-0.6845848
-0.6834755
-0.6824205
-0.6814511
-0.6805939
-0.679873
-0.6793118
-0.6789615
-0.6789565
-0.6786279
-0.6769681
-0.6740697
-0.6668975
-0.6866174
-0.6855877
-0.6845683
-0.68359
-0.6826792
-0.6818615
-0.6811645
-0.6806249
-0.6802966
-0.6802829
-0.6800412
-0.6790185
-0.6776681
-0.6754569
-0.6703234
-0.6874978
-0.6865767
-0.6856565
-0.6847581
-0.6838997
-0.6830994
-0.6823798
-0.6817747
-0.6813478
-0.681226
-0.6810463
-0.6802538
-0.6794042
-0.6783702
-0.6768127
-0.6728159
-0.6883471
-0.6875401
-0.6867215
-0.6859026
-0.6850918
-0.6842973
-0.6835295
-0.6828069
-0.6821781
-0.6818124
-0.6818237
-0.6811774
-0.6805324
-0.6798786
-0.6791484
-0.6778602
-0.6744757
-0.6826019
-0.6820935
-0.6815739
-0.6810681
-0.6805956
-0.6798752
-0.678517
-0.676092
-0.6839971
-0.6834017
-0.6828407
-0.6823291
-0.6818847
-0.6812844
-0.680295
-0.6791218
-0.6773311
-0.6852828
-0.6846681
-0.6840887
-0.6835587
-0.6830985
-0.68251
-0.6816104
-0.6806705
-0.6796136
-0.6781977
-0.686424
-0.6858137
-0.6852323
-0.6846935
-0.6842141
-0.6836214
-0.6827464
-0.6818651
-0.6809573
-0.6799692
-0.6787638
-0.6874252
-0.6868274
-0.6862527
-0.6857122
-0.6852204
-0.6846218
-0.6837619
-0.6828954
-0.6820258
-0.6811361
-0.6801867
-0.6790691
-0.6808784
-0.6797021
-0.6784775
-0.6771869
-0.6757635
-0.674062
-0.6717762
-0.6682915
-0.655976
-0.6819007
-0.6806806
-0.679433
-0.6781472
-0.6767618
-0.6751151
-0.672925
-0.6697306
-0.664922
-0.6515571
-0.6828877
-0.6816484
-0.6804037
-0.6791679
-0.6779191
-0.6765794
-0.674982
-0.6729383
-0.670373
-0.668134
-0.6610243
-0.6838454
-0.6826119
-0.681388
-0.6802056
-0.6790771
-0.6779827
-0.6768681
-0.675651
-0.6743936
-0.6736899
-0.672078
-0.6617683
-0.6847787
-0.6835754
-0.6823893
-0.6812612
-0.6802198
-0.6792807
-0.6784413
-0.6776966
-0.6770825
-0.6769267
-0.6762849
-0.6727541
-0.6636311
-0.6856905
-0.6845403
-0.6834092
-0.682339
-0.6813641
-0.6805121
-0.6798066
-0.6792666
-0.6789362
-0.678948
-0.6786095
-0.6768667
-0.673789
-0.6662495
-0.6865815
-0.6855049
-0.684445
-0.6834393
-0.6825202
-0.6817172
-0.6810595
-0.6805801
-0.6803193
-0.6803563
-0.6800994
-0.6790116
-0.6775234
-0.6750261
-0.6692846
-0.6874503
-0.6864646
-0.6854897
-0.6845554
-0.6836876
-0.6829115
-0.6822552
-0.6817536
-0.681457
-0.6814368
-0.6812076
-0.6803607
-0.6794152
-0.6782086
-0.6763248
-0.6715084
-0.6882938
-0.6874119
-0.6865315
-0.6856729
-0.6848536
-0.6840912
-0.6834071
-0.6828332
-0.6824262
-0.6822975
-0.6821062
-0.6813745
-0.6806315
-0.6798489
-0.6789261
-0.6773139
-0.6729401
-0.6891076
-0.6883349
-0.6875516
-0.6867687
-0.6859946
-0.6852371
-0.6845062
-0.6838194
-0.6832217
-0.6828677
-0.6828603
-0.6822355
-0.6816184
-0.6810103
-0.6804071
-0.6795452
-0.6779273
-0.6745793
-0.6836515
-0.6831454
-0.6826232
-0.6821136
-0.6816379
-0.6809917
-0.6799354
-0.6785855
-0.676179
-0.6849966
-0.6844108
-0.6838514
-0.6833297
-0.6828647
-0.6822611
-0.6813407
-0.6803572
-0.6791916
-0.677412
-0.6862335
-0.6856324
-0.6850584
-0.6845236
-0.6840436
-0.6834452
-0.6825619
-0.6816673
-0.6807335
-0.679684
-0.6782807
-0.6873312
-0.6867363
-0.686164
-0.6856248
-0.6851331
-0.6845323
-0.6836693
-0.6827985
-0.6819224
-0.6810206
-0.6800435
-0.6788391
-0.6882936
-0.6877126
-0.6871494
-0.686613
-0.6861149
-0.6855145
-0.6846663
-0.68381
-0.6829478
-0.6820832
-0.6812033
-0.6802547
-0.6791257
-0.6819729
-0.6808587
-0.679711
-0.6785298
-0.6772964
-0.6759564
-0.6744158
-0.6725099
-0.6699871
-0.6615215
-0.6829454
-0.6817876
-0.6806163
-0.679443
-0.6782564
-0.6770124
-0.6756131
-0.6739546
-0.6720012
-0.6702315
-0.6640933
-0.6838854
-0.6827056
-0.6815294
-0.6803831
-0.6792784
-0.6782037
-0.677124
-0.6759871
-0.6748643
-0.674239
-0.672793
-0.6635446
-0.6847989
-0.6836217
-0.6824586
-0.681347
-0.6803133
-0.6793737
-0.6785293
-0.6777827
-0.677177
-0.6770205
-0.676407
-0.6730885
-0.6643991
-0.6856905
-0.6845403
-0.6834092
-0.682339
-0.6813641
-0.6805121
-0.6798066
-0.6792666
-0.6789362
-0.678948
-0.6786095
-0.6768667
-0.673789
-0.6662495
-0.6865627
-0.6854622
-0.6843812
-0.6833613
-0.6824374
-0.6816411
-0.6810017
-0.6805495
-0.6803178
-0.6803774
-0.6801173
-0.6789961
-0.6774365
-0.6747912
-0.6687522
-0.6874157
-0.686385
-0.6853711
-0.6844107
-0.683535
-0.6827737
-0.6821568
-0.6817162
-0.6814898
-0.6815214
-0.681283
-0.6804053
-0.6793985
-0.6780734
-0.67596
-0.6705854
-0.688248
-0.6873042
-0.6863712
-0.6854781
-0.6846497
-0.6839103
-0.6832866
-0.6828118
-0.6825289
-0.6824964
-0.6822602
-0.6814917
-0.6806913
-0.6798185
-0.6787473
-0.6768541
-0.6716501
-0.6890562
-0.6882119
-0.6873693
-0.6865483
-0.6857657
-0.6850385
-0.6843869
-0.6838402
-0.6834503
-0.6833147
-0.6831132
-0.6824118
-0.6817167
-0.6810175
-0.6802949
-0.6792908
-0.6773817
-0.6730639
-0.6898359
-0.6890963
-0.6883468
-0.6875982
-0.6868587
-0.6861361
-0.6854399
-0.6847865
-0.6842178
-0.6838768
-0.683855
-0.6832485
-0.6826445
-0.6820536
-0.6814794
-0.680751
-0.6796009
-0.6779944
-0.6746831
-0.6846552
-0.6841539
-0.6836326
-0.6831162
-0.6826292
-0.6819959
-0.6810461
-0.6799956
-0.6786543
-0.6762664
-0.6859532
-0.6853799
-0.6848254
-0.6842994
-0.683817
-0.6832082
-0.6823126
-0.681397
-0.6804196
-0.6792616
-0.6774971
-0.6871447
-0.6865589
-0.6859938
-0.6854589
-0.6849673
-0.6843622
-0.6834931
-0.682614
-0.6817244
-0.6807967
-0.6797582
-0.6783567
-0.6882015
-0.6876234
-0.6870626
-0.6865277
-0.6860298
-0.6854276
-0.6845769
-0.6837174
-0.6828509
-0.6819798
-0.6810878
-0.6801115
-0.6788959
-0.6891272
-0.6885641
-0.6880143
-0.6874855
-0.6869867
-0.686389
-0.6855561
-0.684711
-0.6838583
-0.6830003
-0.6821444
-0.6812646
-0.6803052
-0.679165
-0.6830139
-0.6819547
-0.6808695
-0.6797659
-0.678642
-0.6774846
-0.6762612
-0.6749444
-0.6735413
-0.6722751
-0.6680842
-0.6839407
-0.6828379
-0.6817285
-0.6806311
-0.6795552
-0.6784966
-0.6774405
-0.676368
-0.6753625
-0.6748047
-0.6736533
-0.6661628
-0.6848374
-0.6837114
-0.682593
-0.6815126
-0.6804926
-0.6795485
-0.6786872
-0.6779238
-0.677316
-0.677148
-0.6765996
-0.6736895
-0.6659169
-0.6857101
-0.6845848
-0.6834755
-0.6824205
-0.6814511
-0.6805939
-0.679873
-0.6793118
-0.6789615
-0.6789565
-0.6786279
-0.6769681
-0.6740697
-0.6668975
-0.6865627
-0.6854622
-0.6843812
-0.6833613
-0.6824374
-0.6816411
-0.6810017
-0.6805495
-0.6803178
-0.6803774
-0.6801173
-0.6789961
-0.6774365
-0.6747912
-0.6687522
-0.6873975
-0.6863439
-0.6853099
-0.6843357
-0.6834557
-0.6827011
-0.6821028
-0.6816904
-0.6814953
-0.6815507
-0.681312
-0.6804197
-0.6793822
-0.6779964
-0.6757648
-0.6701111
-0.6882146
-0.6872276
-0.6862572
-0.6853389
-0.6845029
-0.6837776
-0.6831918
-0.6827759
-0.6825612
-0.6825791
-0.6823359
-0.6815501
-0.6807173
-0.6797875
-0.6786166
-0.6765196
-0.6707393
-0.689012
-0.6881083
-0.6872152
-0.686361
-0.6855696
-0.6848641
-0.6842697
-0.6838166
-0.6835438
-0.683498
-0.6832543
-0.6825225
-0.681786
-0.681029
-0.6802229
-0.6791011
-0.6769247
-0.6717912
-0.6897865
-0.6889782
-0.6881718
-0.6873866
-0.686639
-0.685945
-0.6853238
-0.6848026
-0.6844287
-0.6842898
-0.6840806
-0.6834017
-0.6827291
-0.6820652
-0.6814035
-0.6805975
-0.679343
-0.6774494
-0.6731874
-0.6905335
-0.6898257
-0.6891086
-0.6883928
-0.6876864
-0.6869969
-0.6863335
-0.6857116
-0.6851706
-0.6848436
-0.6848129
-0.6842232
-0.6836311
-0.683046
-0.6824787
-0.6817882
-0.6808004
-0.6796566
-0.6780615
-0.6747868
-0.685616
-0.685123
-0.6846053
-0.6840864
-0.683587
-0.6829565
-0.6820457
-0.6811004
-0.680056
-0.6787232
-0.6763579
-0.6868699
-0.6863109
-0.6857647
-0.6852389
-0.6847462
-0.6841329
-0.6832557
-0.6823642
-0.6814535
-0.6804821
-0.6793355
-0.6775751
-0.6880186
-0.6874495
-0.6868959
-0.6863654
-0.6858681
-0.6852623
-0.6844067
-0.6835412
-0.6826662
-0.6817817
-0.6808637
-0.679826
-0.678414
-0.6890368
-0.6884766
-0.6879293
-0.687402
-0.6869036
-0.6863044
-0.6854693
-0.6846216
-0.6837657
-0.6829034
-0.682041
-0.6811491
-0.6801619
-0.6789353
-0.6899277
-0.6893833
-0.6888486
-0.6883299
-0.6878346
-0.6872439
-0.6864283
-0.685598
-0.6847559
-0.6839067
-0.6830566
-0.6822003
-0.6813096
-0.6803395
-0.6791857
-0.6722371
-0.6840061
-0.6829966
-0.6819658
-0.6809239
-0.6798762
-0.6788227
-0.6777614
-0.676693
-0.6756845
-0.675019
-0.6743854
-0.6694346
-0.6848905
-0.683838
-0.6827823
-0.6817446
-0.6807408
-0.6797838
-0.6788834
-0.6780645
-0.6774015
-0.677174
-0.6767568
-0.6744196
-0.6681182
-0.6857472
-0.6846709
-0.6836041
-0.6825778
-0.6816182
-0.6807484
-0.679993
-0.6793815
-0.6789788
-0.6789329
-0.6786326
-0.6771306
-0.6745775
-0.6681691
-0.6865815
-0.6855049
-0.684445
-0.6834393
-0.6825202
-0.6817172
-0.6810595
-0.6805801
-0.6803193
-0.6803563
-0.6800994
-0.6790116
-0.6775234
-0.6750261
-0.6692846
-0.6873975
-0.6863439
-0.6853099
-0.6843357
-0.6834557
-0.6827011
-0.6821028
-0.6816904
-0.6814953
-0.6815507
-0.681312
-0.6804197
-0.6793822
-0.6779964
-0.6757648
-0.6701111
-0.6881969
-0.6871879
-0.6861983
-0.6852668
-0.6844266
-0.6837078
-0.6831399
-0.6827514
-0.6825676
-0.682609
-0.6823666
-0.6815733
-0.6807255
-0.6797678
-0.6785466
-0.676343
-0.6702711
-0.6889797
-0.6880345
-0.6871056
-0.6862272
-0.6854284
-0.6847361
-0.6841775
-0.6837805
-0.6835725
-0.6835747
-0.6833252
-0.6825809
-0.6818236
-0.6810335
-0.6801756
-0.6789707
-0.6765932
-0.6708923
-0.6897439
-0.6888786
-0.6880238
-0.6872067
-0.6864504
-0.6857769
-0.6852098
-0.684777
-0.6845132
-0.6844582
-0.6842084
-0.6835014
-0.6827941
-0.6820868
-0.6813682
-0.6805033
-0.6791519
-0.676995
-0.6719318
-0.6904859
-0.6897124
-0.6889407
-0.6881899
-0.6874756
-0.6868133
-0.6862211
-0.6857244
-0.6853666
-0.6852273
-0.6850148
-0.684355
-0.6836997
-0.6830511
-0.6824128
-0.6816711
-0.6806425
-0.6793952
-0.6775172
-0.6733104
-0.6912012
-0.6905242
-0.6898384
-0.6891542
-0.6884794
-0.6878216
-0.6871894
-0.6865975
-0.6860833
-0.6857713
-0.6857359
-0.6851641
-0.6845838
-0.684005
-0.6834366
-0.6827615
-0.6818332
-0.6808496
-0.6797122
-0.6781286
-0.6748931
-0.686537
-0.6860545
-0.6855441
-0.6850263
-0.68452
-0.683889
-0.6830025
-0.6820953
-0.6811547
-0.6801162
-0.6787961
-0.6764418
-0.687749
-0.6872058
-0.6866707
-0.6861493
-0.6856519
-0.6850393
-0.6841772
-0.6833033
-0.6824159
-0.6815101
-0.6805484
-0.6794029
-0.6776343
-0.6888574
-0.6883061
-0.687766
-0.6872431
-0.6867456
-0.6861433
-0.685304
-0.6844514
-0.6835894
-0.6827186
-0.6818427
-0.6809248
-0.6798763
-0.6784539
-0.689839
-0.6892974
-0.6887652
-0.6882482
-0.6877534
-0.6871614
-0.6863437
-0.6855111
-0.6846665
-0.6838141
-0.6829597
-0.6820968
-0.681194
-0.6801961
-0.678956
-0.6906965
-0.6901713
-0.689653
-0.6891466
-0.6886582
-0.6880775
-0.6872811
-0.6864677
-0.68564
-0.6848009
-0.6839589
-0.683108
-0.6822406
-0.6813393
-0.6803564
-0.6733172
-0.6746893
-0.6726451
-0.6849532
-0.6839895
-0.6830078
-0.682019
-0.6810308
-0.6800494
-0.6790807
-0.6781428
-0.6772972
-0.6768152
-0.6767157
-0.6750786
-0.6707924
-0.6857983
-0.6847923
-0.6837851
-0.6827984
-0.6818504
-0.6809583
-0.680143
-0.6794368
-0.6789185
-0.6787774
-0.6785554
-0.6772755
-0.6752078
-0.6699905
-0.6866174
-0.6855877
-0.6845683
-0.68359
-0.6826792
-0.6818615
-0.6811645
-0.6806249
-0.6802966
-0.6802829
-0.6800412
-0.6790185
-0.6776681
-0.6754569
-0.6703234
-0.6874157
-0.686385
-0.6853711
-0.6844107
-0.683535
-0.6827737
-0.6821568
-0.6817162
-0.6814898
-0.6815214
-0.681283
-0.6804053
-0.6793985
-0.6780734
-0.67596
-0.6705854
-0.6881969
-0.6871879
-0.6861983
-0.6852668
-0.6844266
-0.6837078
-0.6831399
-0.6827514
-0.6825676
-0.682609
-0.6823666
-0.6815733
-0.6807255
-0.6797678
-0.6785466
-0.676343
-0.6702711
-0.6889627
-0.6879964
-0.6870489
-0.6861578
-0.6853548
-0.6846687
-0.6841272
-0.6837563
-0.6835778
-0.6836025
-0.6833543
-0.6826053
-0.6818392
-0.681034
-0.6801513
-0.6789032
-0.6764184
-0.6704302
-0.6897126
-0.6888076
-0.6879183
-0.687078
-0.6863145
-0.6856534
-0.6851203
-0.6847405
-0.684538
-0.6845283
-0.6842731
-0.6835553
-0.6828319
-0.6821018
-0.6813508
-0.6804465
-0.6790213
-0.6766665
-0.6710448
-0.6904447
-0.6896166
-0.6887986
-0.688017
-0.6872943
-0.6866514
-0.6861106
-0.6856975
-0.6854435
-0.6853826
-0.6851307
-0.6844436
-0.6837566
-0.6830713
-0.6823891
-0.6816116
-0.6805456
-0.6792027
-0.6770654
-0.6720716
-0.6911554
-0.6904155
-0.6896775
-0.6889596
-0.6882773
-0.6876455
-0.6870811
-0.6866083
-0.686267
-0.6861303
-0.685918
-0.6852776
-0.6846375
-0.684001
-0.6833711
-0.6826575
-0.6817118
-0.6806873
-0.6794474
-0.6775848
-0.6734346
-0.69184
-0.691193
-0.6905375
-0.6898837
-0.6892394
-0.6886119
-0.6880096
-0.6874466
-0.6869582
-0.686662
-0.6866259
-0.6860726
-0.685506
-0.6849347
-0.6843676
-0.683699
-0.6828034
-0.6818782
-0.6808989
-0.6797677
-0.6781997
-0.6749906
-0.6874204
-0.6869506
-0.6864501
-0.6859374
-0.6854286
-0.6848009
-0.683932
-0.6830485
-0.682145
-0.6812089
-0.6801804
-0.6788626
-0.6765063
-0.6885926
-0.6880664
-0.6875444
-0.6870307
-0.6865338
-0.6859256
-0.6850808
-0.6842215
-0.6833511
-0.6824676
-0.6815704
-0.6806087
-0.6794527
-0.6776758
-0.6896628
-0.68913
-0.688605
-0.6880924
-0.6875989
-0.6870041
-0.6861827
-0.6853458
-0.6844962
-0.6836377
-0.6827747
-0.6818983
-0.6809693
-0.6799102
-0.678475
-0.6906093
-0.6900871
-0.6895712
-0.6890665
-0.6885788
-0.6879968
-0.6871986
-0.6863831
-0.6855532
-0.6847115
-0.6838663
-0.683011
-0.682137
-0.6812235
-0.6802129
-0.691435
-0.6909294
-0.6904284
-0.689936
-0.6894572
-0.6888888
-0.6881129
-0.6873184
-0.6865073
-0.6856822
-0.6848497
-0.6840065
-0.6831444
-0.6822664
-0.6813526
-0.6739258
-0.6752337
-0.6739731
-0.6763721
-0.6755051
-0.6733522
-0.6858584
-0.6849374
-0.6840006
-0.6830594
-0.6821222
-0.6811968
-0.6802935
-0.6794317
-0.678675
-0.6782532
-0.6782879
-0.6773017
-0.6758187
-0.6721661
-0.6866666
-0.6857042
-0.684742
-0.6838012
-0.6829004
-0.6820581
-0.6812967
-0.6806524
-0.6801936
-0.6800757
-0.679893
-0.6789699
-0.6778167
-0.6760089
-0.6717986
-0.6874503
-0.6864646
-0.6854897
-0.6845554
-0.6836876
-0.6829115
-0.6822552
-0.6817536
-0.681457
-0.6814368
-0.6812076
-0.6803607
-0.6794152
-0.6782086
-0.6763248
-0.6715084
-0.6882146
-0.6872276
-0.6862572
-0.6853389
-0.6845029
-0.6837776
-0.6831918
-0.6827759
-0.6825612
-0.6825791
-0.6823359
-0.6815501
-0.6807173
-0.6797875
-0.6786166
-0.6765196
-0.6707393
-0.6889627
-0.6879964
-0.6870489
-0.6861578
-0.6853548
-0.6846687
-0.6841272
-0.6837563
-0.6835778
-0.6836025
-0.6833543
-0.6826053
-0.6818392
-0.681034
-0.6801513
-0.6789032
-0.6764184
-0.6704302
-0.6896961
-0.6887709
-0.6878638
-0.6870112
-0.6862437
-0.6855884
-0.6850714
-0.6847164
-0.6845418
-0.6845537
-0.6842999
-0.6835783
-0.6828486
-0.6821087
-0.681343
-0.6804191
-0.678954
-0.6764935
-0.6705887
-0.6904145
-0.6895483
-0.6886971
-0.6878933
-0.6871636
-0.6865325
-0.6860238
-0.6856609
-0.6854648
-0.6854468
-0.6851897
-0.6844922
-0.6837911
-0.6830874
-0.6823816
-0.6815822
-0.6804877
-0.6790719
-0.6767398
-0.6711964
-0.6911157
-0.6903235
-0.689541
-0.6887937
-0.6881033
-0.6874899
-0.6869745
-0.686581
-0.6863378
-0.6862746
-0.6860237
-0.6853562
-0.684686
-0.6840165
-0.6833494
-0.6826105
-0.6816495
-0.6805878
-0.6792535
-0.6771356
-0.6722113
-0.691796
-0.6910888
-0.6903833
-0.6896973
-0.6890459
-0.6884434
-0.687906
-0.6874564
-0.6871321
-0.6870003
-0.6867914
-0.6861707
-0.6855469
-0.684922
-0.6842997
-0.683599
-0.6826952
-0.6817523
-0.6807321
-0.6794995
-0.6776564
-0.6735482
-0.6924507
-0.6918329
-0.6912068
-0.6905825
-0.6899677
-0.6893695
-0.6887959
-0.6882607
-0.6877974
-0.6875176
-0.687484
-0.6869499
-0.6863985
-0.6858375
-0.6852741
-0.6846133
-0.6837383
-0.6828451
-0.6819231
-0.6809479
-0.6798275
-0.6782647
-0.6750678
-0.6882682
-0.6878128
-0.6873244
-0.6868199
-0.6863134
-0.6856918
-0.6848413
-0.6839749
-0.6830945
-0.6821947
-0.681267
-0.6802388
-0.6789111
-0.6765528
-0.6894024
-0.6888942
-0.6883869
-0.6878837
-0.6873911
-0.6867911
-0.6859648
-0.6851223
-0.684266
-0.6833988
-0.6825231
-0.6816252
-0.6806525
-0.6794859
-0.6776983
-0.6904361
-0.6899226
-0.6894139
-0.6889137
-0.6884274
-0.687843
-0.6870414
-0.6862221
-0.6853879
-0.6845411
-0.6836898
-0.6828258
-0.6819382
-0.6809985
-0.6799266
-0.6913492
-0.6908466
-0.6903481
-0.6898575
-0.6893794
-0.6888099
-0.6880323
-0.687236
-0.6864228
-0.6855954
-0.6847603
-0.6839139
-0.6830474
-0.6821627
-0.6812366
-0.6921441
-0.6916586
-0.6911756
-0.6906986
-0.6902315
-0.6896772
-0.6889227
-0.6881485
-0.687356
-0.686547
-0.6857281
-0.6848942
-0.6840398
-0.683167
-0.6822767
-0.6743034
-0.6756546
-0.6746961
-0.6768016
-0.6760141
-0.6747243
-0.6778132
-0.6772086
-0.6763112
-0.6742476
-0.6867243
-0.6858434
-0.6849485
-0.6840508
-0.6831593
-0.6822821
-0.6814299
-0.6806236
-0.67992
-0.6795276
-0.6795753
-0.6788096
-0.6779117
-0.6765864
-0.6735508
-0.6874978
-0.6865767
-0.6856565
-0.6847581
-0.6838997
-0.6830994
-0.6823798
-0.6817747
-0.6813478
-0.681226
-0.6810463
-0.6802538
-0.6794042
-0.6783702
-0.6768127
-0.6728159
-0.688248
-0.6873042
-0.6863712
-0.6854781
-0.6846497
-0.6839103
-0.6832866
-0.6828118
-0.6825289
-0.6824964
-0.6822602
-0.6814917
-0.6806913
-0.6798185
-0.6787473
-0.6768541
-0.6716501
-0.6889797
-0.6880345
-0.6871056
-0.6862272
-0.6854284
-0.6847361
-0.6841775
-0.6837805
-0.6835725
-0.6835747
-0.6833252
-0.6825809
-0.6818236
-0.6810335
-0.6801756
-0.6789707
-0.6765932
-0.6708923
-0.6896961
-0.6887709
-0.6878638
-0.6870112
-0.6862437
-0.6855884
-0.6850714
-0.6847164
-0.6845418
-0.6845537
-0.6842999
-0.6835783
-0.6828486
-0.6821087
-0.681343
-0.6804191
-0.678954
-0.6764935
-0.6705887
-0.6903986
-0.6895129
-0.6886447
-0.6878291
-0.6870954
-0.6864698
-0.6859764
-0.685637
-0.6854675
-0.68547
-0.6852142
-0.6845132
-0.6838067
-0.6830955
-0.6823796
-0.6815697
-0.6804598
-0.6790047
-0.6765686
-0.6707462
-0.6910864
-0.6902578
-0.6894435
-0.6886748
-0.6879776
-0.6873754
-0.6868906
-0.6865448
-0.6863565
-0.6863337
-0.6860777
-0.6853999
-0.6847164
-0.6840308
-0.6833444
-0.6825911
-0.6816186
-0.6805287
-0.6791226
-0.6768128
-0.671347
-0.6917576
-0.6910004
-0.6902523
-0.6895381
-0.688879