/*--------------------------------*- C++ -*----------------------------------*\
| =========                 |                                                 |
| \\      /  F ield         | OpenFOAM: The Open Source CFD Toolbox           |
|  \\    /   O peration     | Version:  2306                                  |
|   \\  /    A nd           | Website:  www.openfoam.com                      |
|    \\/     M anipulation  |                                                 |
\*---------------------------------------------------------------------------*/
FoamFile
{
    version     2.0;
    format      ascii;
    arch        "LSB;label=32;scalar=64";
    class       volVectorField;
    location    "0.3/air";
    object      U;
}
// * * * * * * * * * * * * * * * * * * * * * * * * * * * * * * * * * * * * * //

dimensions      [0 1 -1 0 0 0 0];

internalField   nonuniform List<vector> 
16000
(
(0.3712925 0.0524313 -0.05252009)
(0.6560542 0.09984348 -0.0808209)
(0.3845643 0.004059663 -0.003933167)
(0.6562517 0.08047676 -0.1010397)
(0.7824437 0.08544463 -0.08071133)
(0.7550245 0.01026313 -0.007347427)
(1.30101 0.1680126 -0.1712949)
(0.2856002 -0.001317302 0.001330116)
(0.7552142 0.007480629 -0.009850476)
(0.7831426 0.08015075 -0.08875336)
(0.8427436 0.05320534 -0.07860206)
(0.9552941 0.01077025 -0.007692206)
(1.629275 0.1587295 -0.1900914)
(0.5892701 -0.001701906 0.002237853)
(1.663676 0.01999363 -0.01967565)
(1.630512 0.1851563 -0.1669681)
(0.3263532 0.0008264856 -0.0008192326)
(0.5894902 -0.002240421 0.001687032)
(0.9561878 0.007787884 -0.01023672)
(0.8443558 0.07783684 -0.05935638)
(0.8668648 0.01800893 -0.07753608)
(1.062799 0.007644077 -0.00736291)
(1.801063 0.1046309 -0.1901868)
(0.7691572 -0.001428947 0.002413452)
(2.202928 0.02275266 -0.02315545)
(2.089236 0.1825675 -0.1944953)
(0.6651371 0.001397749 -0.001472582)
(1.352665 -0.003026271 0.002871536)
(2.204687 0.02302737 -0.022721)
(1.804991 0.1839232 -0.1191278)
(0.3031819 -0.0004227277 0.0004311688)
(0.6653447 0.001451082 -0.001473382)
(0.7702258 -0.002438933 0.001294225)
(1.065259 0.007389026 -0.007250117)
(0.8700275 0.07648923 -0.02760736)
(0.8668648 -0.01800893 -0.07753608)
(1.110178 0.002646963 -0.00697203)
(1.87018 0.03625978 -0.1883203)
(0.8724177 -0.0008177516 0.002496684)
(2.496392 0.01779399 -0.02599454)
(2.307031 0.1264669 -0.2019138)
(0.8623229 0.001372367 -0.001608832)
(1.843299 -0.002620336 0.003402246)
(2.985395 0.02870692 -0.02971338)
(2.310653 0.1870205 -0.1473028)
(0.6227347 -0.0007404146 0.0007346582)
(1.511219 0.00239539 -0.002697489)
(1.845373 -0.003739568 0.002140943)
(2.502503 0.02523039 -0.01864193)
(1.878871 0.1805718 -0.0579152)
(0.3160356 0.000275783 -0.0002677328)
(0.6229353 -0.0007520393 0.0006802499)
(0.8633628 0.001558252 -0.001658787)
(0.8753463 -0.002554616 0.0004505727)
(1.11553 0.006875687 -0.002700063)
(0.8726564 0.07604411 0.004290748)
(0.0003916658 -0.0009730649 -0.0004637275)
(0.8427436 -0.05320534 -0.07860206)
(1.110178 -0.002646964 -0.00697203)
(1.87018 -0.03625978 -0.1883203)
(0.9205747 -0.0002568374 0.002542405)
(2.629797 0.006497492 -0.0263763)
(2.398182 0.04455969 -0.2015246)
(0.9755443 0.0008968632 -0.001609896)
(2.136945 -0.001466124 0.003912503)
(3.450811 0.02153338 -0.03128901)
(2.567149 0.1303442 -0.1553852)
(0.8112901 -0.0007341187 0.000784387)
(2.046246 0.002425004 -0.003049169)
(2.56751 -0.003617577 0.002786741)
(3.457024 0.02929805 -0.02361459)
(2.408666 0.1841283 -0.07463279)
(0.6465009 0.0004572391 -0.0004981724)
(1.425357 -0.001399851 0.001136825)
(2.04832 0.002536169 -0.003239765)
(2.144067 -0.004484575 0.0004852877)
(2.644202 0.0249063 -0.008553045)
(1.886884 0.1788131 0.007078426)
(0.308579 -0.0001180498 0.0001267843)
(0.6467042 0.0004776785 -0.0005270831)
(0.8122975 -0.0008286812 0.0004902667)
(0.9784427 0.001528989 -0.001510027)
(0.9267601 -0.002656465 -0.0004913849)
(1.120396 0.006672251 0.001735777)
(0.8531009 0.07650659 0.03484219)
(0.0004024619 -0.002816512 -0.0004795261)
(0.0004602953 -0.0008709761 -0.0004309625)
(0.0003951094 -0.0009753968 -0.0009035106)
(0.7824437 -0.08544463 -0.08071133)
(1.062799 -0.007644077 -0.00736291)
(1.801063 -0.1046309 -0.1901868)
(0.9205747 0.0002568372 0.002542405)
(2.629797 -0.006497492 -0.0263763)
(2.398182 -0.04455969 -0.2015246)
(1.027776 0.0003040238 -0.001598202)
(2.274741 -0.0004572785 0.004238125)
(3.660868 0.008059708 -0.03209404)
(2.673051 0.04634454 -0.1564895)
(0.9206912 -0.0004889577 0.0007867567)
(2.363747 0.001631118 -0.003039989)
(3.010456 -0.002265601 0.003488588)
(4.019287 0.0234488 -0.02684619)
(2.681156 0.1286275 -0.08124331)
(0.8401568 0.0004455807 -0.0005616459)
(1.939011 -0.001480595 0.001258133)
(2.831818 0.002555825 -0.003782842)
(3.017402 -0.004703837 0.0008219754)
(3.679744 0.02900613 -0.01153047)
(2.420376 0.1819108 0.005993588)
(0.6327548 -0.000208098 0.0001969791)
(1.474042 0.0007460007 -0.001038267)
(1.941024 -0.001714442 0.0007609284)
(2.370939 0.002322227 -0.003145372)
(2.291004 -0.005150823 -0.001227629)
(2.658277 0.0240461 0.002895172)
(1.831068 0.1789403 0.06861592)
(0.3123797 0.0001038279 -9.571646e-05)
(0.6329561 -0.0002139373 0.000150201)
(0.8411759 0.0005123524 -0.0007171061)
(0.9235004 -0.0008589714 -4.202479e-05)
(1.033967 0.001468774 -0.001377423)
(0.9317979 -0.002768291 -0.001641669)
(1.080805 0.006720487 0.005345771)
(0.8013054 0.0783695 0.06273553)
(0.0004214923 -0.005081787 -0.0005153873)
(0.0004752287 -0.002522593 -0.0004438021)
(0.0004059228 -0.002827953 -0.0009413163)
(0.0003466456 -0.0008309282 -0.0004046465)
(0.0004633391 -0.0008735841 -0.0008391552)
(0.0003933814 -0.0009699292 -0.002464126)
(0.6560542 -0.09984348 -0.0808209)
(0.9552941 -0.01077025 -0.007692206)
(1.629275 -0.1587295 -0.1900914)
(0.8724177 0.0008177513 0.002496684)
(2.496392 -0.01779399 -0.02599454)
(2.307031 -0.1264669 -0.2019138)
(1.027776 -0.0003040234 -0.001598202)
(2.274741 0.0004572787 0.004238125)
(3.660868 -0.008059708 -0.03209404)
(2.673051 -0.04634454 -0.1564895)
(0.9714763 -0.0001694545 0.0007878234)
(2.512073 0.0005629582 -0.002973068)
(3.220395 -0.0007245289 0.003930627)
(4.277135 0.008820665 -0.02801364)
(2.793805 0.04588011 -0.08320661)
(0.9519721 0.0002876121 -0.0005757036)
(2.246706 -0.001039183 0.001301236)
(3.307844 0.001712279 -0.003826064)
(3.560532 -0.002995136 0.001148849)
(4.291919 0.0234175 -0.0135256)
(2.69594 0.1269014 0.003302134)
(0.8235095 -0.0002027321 0.0001946712)
(2.000448 0.0007451128 -0.001254974)
(2.695743 -0.001894697 0.0007948238)
(3.314917 0.002259133 -0.003801767)
(3.240877 -0.005631846 -0.001436454)
(3.701567 0.02787768 0.003148934)
(2.347995 0.1811375 0.08180237)
(0.6397138 0.0001728974 -0.0001944142)
(1.44597 -0.0004264743 0.0001674194)
(2.002481 0.0007558738 -0.001536664)
(2.253687 -0.001943323 -0.0003033414)
(2.528583 0.001984134 -0.002952142)
(2.305252 -0.005678918 -0.003129786)
(2.547414 0.02261759 0.01251757)
(1.681733 0.178382 0.1192546)
(0.3098962 -2.527301e-05 3.332597e-05)
(0.6399158 0.0001767073 -0.0002331804)
(0.8245178 -0.000238435 -3.56159e-05)
(0.9548125 0.0004980274 -0.0008677859)
(0.9774785 -0.0009045401 -0.000766798)
(1.039161 0.001370839 -0.001448969)
(0.8910237 -0.002944027 -0.003231965)
(0.9854255 0.006620189 0.006598434)
(0.692666 0.07914358 0.06993817)
(0.000456974 -0.006662485 -0.0007949587)
(0.0005016083 -0.004530357 -0.0004733661)
(0.0004249507 -0.005012526 -0.001016817)
(0.000355969 -0.002406554 -0.0004163631)
(0.0004782789 -0.002534503 -0.0008703226)
(0.0004040583 -0.002802971 -0.002519499)
(0.0004602328 -0.0007828505 -0.0003838021)
(0.0003488643 -0.0008337148 -0.0007878592)
(0.0004608645 -0.0008693681 -0.002290884)
(0.0003882211 -0.0009490816 -0.0008446336)
(0.3712925 -0.0524313 -0.05252009)
(0.7550245 -0.01026313 -0.007347427)
(1.30101 -0.1680126 -0.1712949)
(0.7691572 0.001428947 0.002413452)
(2.202928 -0.02275266 -0.02315545)
(2.089236 -0.1825675 -0.1944953)
(0.9755443 -0.0008968628 -0.001609896)
(2.136945 0.001466124 0.003912503)
(3.450811 -0.02153338 -0.03128901)
(2.567149 -0.1303442 -0.1553852)
(0.9714763 0.0001694549 0.0007878233)
(2.512073 -0.0005629583 -0.002973068)
(3.220395 0.000724529 0.003930627)
(4.277135 -0.008820665 -0.02801364)
(2.793805 -0.04588011 -0.08320661)
(1.00374 9.734373e-05 -0.0005796044)
(2.391277 -0.0003686557 0.001322041)
(3.532718 0.0005914629 -0.003754826)
(3.819773 -0.0009828107 0.001403476)
(4.57369 0.008819131 -0.01436004)
(2.810107 0.0452436 0.001435409)
(0.9339831 -0.0001343257 0.0001858707)
(2.314403 0.0004905313 -0.001329119)
(3.158337 -0.001375252 0.0008082451)
(3.897151 0.001472281 -0.00393219)
(3.835642 -0.003677545 -0.001434329)
(4.318102 0.02247867 0.003170762)
(2.615145 0.1257813 0.08264672)
(0.8318986 0.0001720917 -0.0002313543)
(1.96513 -0.000450717 0.0001112339)
(2.774564 0.0007396151 -0.001941886)
(3.165207 -0.002218506 -0.0005005454)
(3.553605 0.001809743 -0.003631674)
(3.262354 -0.006273349 -0.003726041)
(3.526612 0.02594753 0.01563625)
(2.157698 0.1760501 0.1387541)
(0.6351095 -4.978253e-05 3.437157e-05)
(1.460061 0.0002561609 -0.0005180471)
(1.967141 -0.000562537 -0.0002607024)
(2.321456 0.000639426 -0.001953633)
(2.40732 -0.002208807 -0.001747171)
(2.543354 0.001551789 -0.002924065)
(2.188256 -0.006164433 -0.005480205)
(2.28866 0.01841086 0.01594695)
(1.398791 0.161315 0.1247412)
(0.3109544 4.717377e-05 -3.994453e-05)
(0.6353106 -5.055897e-05 -5.443199e-06)
(0.8329085 0.0001871101 -0.0004139628)
(0.9367924 -0.0002566885 -0.000385181)
(1.009805 0.0004585592 -0.001101047)
(0.9824808 -0.0009962212 -0.00170996)
(0.9947007 0.001180823 -0.001870928)
(0.7983038 -0.00314891 -0.005324902)
(0.8042254 0.006676946 0.003095024)
(0.4448838 0.05540715 0.004535187)
(0.0004946193 -0.01329891 -0.00105505)
(0.0005505998 -0.005942103 -0.000711482)
(0.0004593381 -0.006520661 -0.001532696)
(0.0003723589 -0.004316907 -0.0004434942)
(0.0005046213 -0.00447408 -0.000932829)
(0.0004228157 -0.004901517 -0.002627246)
(0.0004690647 -0.002267015 -0.0003946114)
(0.0003582135 -0.002418729 -0.000816539)
(0.0004756144 -0.002513786 -0.00233453)
(0.000398575 -0.002761067 -0.0008754163)
(0.0004365945 -0.0007501428 -0.0003664827)
(0.0004641717 -0.0007856148 -0.0007470848)
(0.0003469382 -0.0008299202 -0.002151321)
(0.0004504404 -0.000852344 -0.000784412)
(0.0003864928 -0.0009499312 -0.008429262)
(0.3845643 -0.004059663 -0.003933168)
(0.6562517 -0.08047676 -0.1010397)
(0.5892701 0.001701906 0.002237853)
(1.663676 -0.01999363 -0.01967565)
(1.630512 -0.1851563 -0.1669681)
(0.8623229 -0.001372367 -0.001608831)
(1.843299 0.002620336 0.003402246)
(2.985395 -0.02870692 -0.02971338)
(2.310653 -0.1870205 -0.1473028)
(0.9206912 0.0004889579 0.0007867563)
(2.363747 -0.001631118 -0.003039989)
(3.010456 0.002265601 0.003488588)
(4.019287 -0.0234488 -0.02684619)
(2.681156 -0.1286275 -0.08124331)
(1.00374 -9.734403e-05 -0.0005796043)
(2.391277 0.0003686556 0.001322041)
(3.532718 -0.0005914627 -0.003754826)
(3.819773 0.0009828105 0.001403476)
(4.57369 -0.008819131 -0.01436004)
(2.810107 -0.0452436 0.001435409)
(0.9852205 -4.661426e-05 0.0001821404)
(2.461569 0.0001671429 -0.001347177)
(3.378047 -0.0004959792 0.0008251555)
(4.174353 0.0005014629 -0.003900744)
(4.120497 -0.001232458 -0.001367425)
(4.601897 0.00846461 0.003002511)
(2.725865 0.04468096 0.0809772)
(0.9430225 0.0001121899 -0.0002441503)
(2.275607 -0.0003186603 6.938314e-05)
(3.245864 0.0004747654 -0.002102028)
(3.732256 -0.001650215 -0.0005689505)
(4.190543 0.001112605 -0.00380905)
(3.861867 -0.004163912 -0.003930317)
(4.101393 0.02086816 0.01761883)
(2.399724 0.1207503 0.1407916)
(0.8263003 -4.772114e-05 1.894612e-05)
(1.982751 0.0002566138 -0.0006738587)
(2.72937 -0.0006306128 -0.000462927)
(3.252804 0.0005746997 -0.002520939)
(3.398386 -0.002575294 -0.002223011)
(3.575907 0.001295284 -0.003471132)
(3.083723 -0.006634283 -0.006223239)
(3.116853 0.02282456 0.02166833)
(1.775371 0.1518693 0.1400479)
(0.6369327 8.017059e-05 -9.425117e-05)
(1.450597 -0.0001384757 -0.0001063983)
(1.984764 0.0002215326 -0.0009715008)
(2.282584 -0.0007012256 -0.001007587)
(2.477759 0.0004182747 -0.002444905)
(2.42157 -0.002607742 -0.003452741)
(2.416953 0.0009226855 -0.003193308)
(1.923415 -0.00674499 -0.008336958)
(1.795087 0.01509009 0.01200026)
(0.8223295 0.1063545 0.0266208)
(0.3098414 9.377924e-06 -1.572334e-06)
(0.6371332 7.745871e-05 -0.0001373867)
(0.8273051 -6.033267e-05 -0.0001779124)
(0.9458353 0.000173501 -0.0006346023)
(0.9912188 -0.0002945046 -0.0008641654)
(1.014889 0.0003711005 -0.001516479)
(0.9391312 -0.001185977 -0.002947261)
(0.8928877 0.0009312222 -0.002703121)
(0.6340959 -0.003076347 -0.008651546)
(0.4723517 0.0002082789 -0.01921548)
(0.002198811 -0.009693555 -0.008633026)
(0.000601929 -0.01168294 -0.0009548829)
(0.0004945945 -0.01041809 -0.002011654)
(0.000401545 -0.005659827 -0.0006675352)
(0.0005519388 -0.005821587 -0.001372572)
(0.00045587 -0.006339734 -0.003116029)
(0.0004841008 -0.004064897 -0.0004196646)
(0.0003746138 -0.004265116 -0.0008740495)
(0.0005015776 -0.004379557 -0.002418638)
(0.0004166736 -0.004768045 -0.000939902)
(0.0004438296 -0.002172254 -0.0003766705)
(0.0004730471 -0.002278939 -0.0007736434)
(0.0003561905 -0.002399746 -0.002190304)
(0.0004647171 -0.002482082 -0.0008094538)
(0.0003968292 -0.002734935 -0.008519029)
(0.0004804274 -0.0007177454 -0.0003515634)
(0.0004405139 -0.0007529095 -0.0007133181)
(0.0004625572 -0.0007822008 -0.002040432)
(0.0003386335 -0.0008146639 -0.0007365996)
(0.0004517454 -0.000852605 -0.007842988)
(4.128245e-05 -0.0001034341 -0.003219178)
(0.2856002 0.001317302 0.001330116)
(0.7552142 -0.007480629 -0.009850476)
(0.7831426 -0.08015075 -0.08875336)
(0.6651371 -0.001397749 -0.001472582)
(1.352665 0.003026272 0.002871536)
(2.204687 -0.02302737 -0.022721)
(1.804991 -0.1839232 -0.1191278)
(0.8112901 0.0007341189 0.0007843867)
(2.046246 -0.002425004 -0.00304917)
(2.56751 0.003617576 0.002786741)
(3.457024 -0.02929805 -0.02361459)
(2.408666 -0.1841283 -0.07463279)
(0.9519721 -0.0002876125 -0.0005757035)
(2.246706 0.001039183 0.001301236)
(3.307844 -0.001712278 -0.003826064)
(3.560532 0.002995136 0.001148849)
(4.291919 -0.0234175 -0.0135256)
(2.69594 -0.1269014 0.003302134)
(0.9852205 4.661442e-05 0.0001821404)
(2.461569 -0.0001671429 -0.001347177)
(3.378047 0.0004959795 0.0008251554)
(4.174353 -0.0005014628 -0.003900744)
(4.120497 0.001232457 -0.001367425)
(4.601897 -0.00846461 0.003002511)
(2.725865 -0.04468096 0.0809772)
(0.9945156 3.802163e-05 -0.0002487246)
(2.421377 -0.0001137664 5.159915e-05)
(3.469237 0.0001591434 -0.00214881)
(4.00364 -0.0006023257 -0.0005729915)
(4.495004 0.0003666489 -0.003811945)
(4.14901 -0.001413406 -0.003989411)
(4.365384 0.007869057 0.01809179)
(2.498611 0.04255125 0.1390642)
(0.936957 -3.271225e-05 9.066036e-06)
(2.294889 0.0001672928 -0.0007454118)
(3.195843 -0.0004660715 -0.0005778637)
(3.829922 0.0003346746 -0.002753067)
(4.019466 -0.001943008 -0.002371745)
(4.217855 0.0007259566 -0.003582789)
(3.641244 -0.004400251 -0.006450525)
(3.598542 0.01831064 0.02460134)
(1.962706 0.1015797 0.1413145)
(0.8283903 8.256714e-05 -0.0001211674)
(1.970789 -0.0001521226 -0.0002001783)
(2.751735 0.0002042629 -0.00129809)
(3.202709 -0.0008234692 -0.001402459)
(3.489736 0.0002846931 -0.00310801)
(3.419949 -0.003045963 -0.004106053)
(3.384017 0.0006779745 -0.003360521)
(2.683234 -0.006757483 -0.008679355)
(2.384472 0.01987331 0.01924497)
(1.000458 0.09422949 0.03464348)
(0.6349538 1.885039e-05 -2.667081e-05)
(1.454002 9.614443e-05 -0.0003407072)
(1.972792 -0.0002254477 -0.0005192519)
(2.301871 0.0001162507 -0.001494759)
(2.437396 -0.0009119377 -0.001964679)
(2.492229 3.895907e-05 -0.003096178)
(2.298031 -0.003248938 -0.00531772)
(2.130629 -1.627737e-05 -0.003739028)
(1.472416 -0.006958086 -0.01088608)
(0.9663913 0.007155097 -0.01140994)
(0.003515517 0.0005313207 -0.005975651)
(0.3099782 2.345595e-05 -1.625355e-05)
(0.6351541 1.165088e-05 -7.032772e-05)
(0.8293913 7.984164e-05 -0.0003091486)
(0.939755 -7.580413e-05 -0.0004579391)
(1.00052 0.0001378725 -0.0009475586)
(0.9962351 -0.0003787157 -0.00152884)
(0.9707191 0.0001850098 -0.002226992)
(0.8405313 -0.001428585 -0.004431682)
(0.7134143 0.0008287451 -0.005199765)
(0.3578368 -0.006080008 -0.02119833)
(0.002444631 -0.008751235 -0.007496029)
(0.0005899119 -0.007999194 -0.01184081)
(0.0004338377 -0.01109365 -0.0008988594)
(0.0006003519 -0.00920916 -0.001789629)
(0.0004899797 -0.00933865 -0.003586511)
(0.0005105517 -0.005326474 -0.0006296739)
(0.0004030014 -0.005547405 -0.001287649)
(0.0005470752 -0.005665059 -0.002824887)
(0.0004478397 -0.006130571 -0.001277551)
(0.0004559113 -0.003893453 -0.0004003418)
(0.000488118 -0.004016981 -0.0008268055)
(0.0003723894 -0.004176703 -0.002265142)
(0.0004897372 -0.004272492 -0.0008622905)
(0.0004149385 -0.004688247 -0.008687474)
(0.0004871014 -0.002078311 -0.0003612068)
(0.0004477897 -0.002184013 -0.0007384313)
(0.000471356 -0.002261503 -0.002075988)
(0.000347652 -0.002372217 -0.0007595367)
(0.0004660251 -0.002455887 -0.007905963)
(4.230262e-05 -0.0002966155 -0.003247975)
(0.0004781515 -0.0006916443 -0.0003384079)
(0.0004850537 -0.0007204679 -0.0006841776)
(0.0004391585 -0.0007497403 -0.00194848)
(0.0004557592 -0.0007682205 -0.0006984658)
(0.0003399638 -0.000814358 -0.007365729)
(4.730399e-05 -9.329135e-05 -0.002995613)
(3.732291e-05 -9.321652e-05 -0.003814805)
(0.3263532 -0.0008264857 -0.0008192326)
(0.5894902 0.00224042 0.001687032)
(0.9561878 -0.007787884 -0.01023672)
(0.8443558 -0.07783684 -0.05935638)
(0.6227347 0.0007404146 0.0007346581)
(1.511219 -0.00239539 -0.00269749)
(1.845373 0.003739568 0.002140943)
(2.502503 -0.02523039 -0.01864193)
(1.878871 -0.1805718 -0.0579152)
(0.8401568 -0.000445581 -0.0005616456)
(1.939011 0.001480595 0.001258133)
(2.831818 -0.002555825 -0.003782842)
(3.017402 0.004703837 0.0008219755)
(3.679744 -0.02900613 -0.01153047)
(2.420376 -0.1819108 0.005993588)
(0.9339831 0.0001343258 0.0001858708)
(2.314403 -0.0004905315 -0.001329119)
(3.158337 0.001375253 0.0008082452)
(3.897151 -0.001472281 -0.00393219)
(3.835642 0.003677544 -0.001434329)
(4.318102 -0.02247867 0.003170761)
(2.615145 -0.1257813 0.08264672)
(0.9945156 -3.802158e-05 -0.0002487247)
(2.421377 0.0001137662 5.159902e-05)
(3.469237 -0.0001591436 -0.00214881)
(4.00364 0.0006023262 -0.0005729915)
(4.495004 -0.0003666487 -0.003811945)
(4.14901 0.001413405 -0.003989412)
(4.365384 -0.007869057 0.01809179)
(2.498611 -0.04255125 0.1390642)
(0.9882627 -1.177117e-05 5.150393e-06)
(2.441322 5.640611e-05 -0.0007709561)
(3.417254 -0.0001699342 -0.000623193)
(4.105593 0.0001050897 -0.002822475)
(4.317872 -0.0007137436 -0.002389946)
(4.524782 0.0002256646 -0.003569825)
(3.907423 -0.001499503 -0.006535997)
(3.819641 0.006918477 0.02523572)
(2.034548 0.03546336 0.1403547)
(0.9391233 5.474927e-05 -0.0001328491)
(2.281709 -0.0001131279 -0.0002540663)
(3.220475 0.0001200071 -0.001455008)
(3.774272 -0.0006286311 -0.001592149)
(4.121504 0.0001010719 -0.003353887)
(4.045932 -0.00229463 -0.004243809)
(3.981446 0.0003258863 -0.003237956)
(3.150189 -0.004389049 -0.008650453)
(2.719493 0.01541573 0.02141199)
(1.084762 0.06071618 0.03553678)
(0.8260636 2.332002e-05 -4.707478e-05)
(1.974764 9.531818e-05 -0.0004680143)
(2.73635 -0.0002688728 -0.0007619179)
(3.227347 5.864103e-05 -0.001986217)
(3.437555 -0.001099819 -0.002530208)
(3.511619 -0.0001617886 -0.003711572)
(3.231969 -0.003683476 -0.005859589)
(2.953786 -7.780216e-05 -0.003158303)
(2.016301 -0.006361964 -0.009426343)
(1.24265 0.009082829 -0.005003737)
(0.004133658 0.0004353222 -0.004216799)
(0.6350842 3.434198e-05 -5.013928e-05)
(1.450149 -7.701677e-06 -0.0002227969)
(1.976758 4.753183e-05 -0.0007606157)
(2.288655 -0.0003408769 -0.001137375)
(2.45735 -7.973196e-05 -0.002128773)
(2.451685 -0.001276323 -0.003111378)
(2.366529 -0.0006021603 -0.00394181)
(2.019951 -0.004144346 -0.007044271)
(1.640308 -0.001078459 -0.005198744)
(0.7666799 -0.005790307 -0.01577196)
(0.004173589 -3.521442e-05 -0.005216818)
(0.0006001112 -0.001551739 -0.00853555)
(0.309596 1.589348e-05 -8.944619e-06)
(0.6352841 3.513528e-05 -8.566118e-05)
(0.8270628 8.281464e-06 -0.0002353824)
(0.9419104 6.706833e-05 -0.0005422651)
(0.9942364 -0.0001106933 -0.0008468987)
(1.005552 5.677125e-05 -0.001431533)
(0.952479 -0.0005576797 -0.002470234)
(0.8700254 -5.80642e-05 -0.003241204)
(0.668544 -0.001451981 -0.007011068)
(0.4066435 -0.00310483 -0.01893907)
(0.001794582 -0.008334312 -0.00708362)
(0.0007251357 -0.007120167 -0.01023645)
(0.0005615422 -0.007311903 -0.008306634)
(0.0005401994 -0.0104335 -0.0008445065)
(0.0004332842 -0.008754545 -0.001679745)
(0.0005939436 -0.008273885 -0.003214459)
(0.0004798556 -0.008337683 -0.001594189)
(0.0004771404 -0.005101173 -0.0006006584)
(0.0005139096 -0.005222109 -0.001214371)
(0.0003998337 -0.005400479 -0.002642187)
(0.0005326175 -0.005496237 -0.001148408)
(0.0004456577 -0.006011253 -0.009013518)
(0.000497958 -0.003724237 -0.0003836337)
(0.0004599055 -0.003848259 -0.000788714)
(0.0004862669 -0.003934552 -0.002143988)
(0.0003633961 -0.004079615 -0.0008079602)
(0.0004910949 -0.004197057 -0.008018451)
(4.416551e-05 -0.0005086267 -0.003306958)
(0.0004840644 -0.002002693 -0.0003476171)
(0.0004917712 -0.0020898 -0.0007079971)
(0.0004463754 -0.002167625 -0.001981703)
(0.0004643956 -0.002236895 -0.0007196369)
(0.0003489598 -0.002345916 -0.007417294)
(4.871338e-05 -0.0002677692 -0.003014737)
(3.822573e-05 -0.0002697667 -0.0038495)
(0.0004962809 -0.0006669325 -0.0003266244)
(0.0004828933 -0.0006943319 -0.0006585193)
(0.0004838608 -0.000717518 -0.001869114)
(0.0004334199 -0.0007366745 -0.0006669593)
(0.0004549731 -0.0007678195 -0.006986826)
(3.546108e-05 -8.932212e-05 -0.002813563)
(4.219862e-05 -8.425623e-05 -0.003549762)
(3.654775e-05 -9.304847e-05 -0.003762651)
(0.3031819 0.0004227277 0.000431169)
(0.6653447 -0.001451082 -0.001473382)
(0.7702258 0.002438932 0.001294225)
(1.065259 -0.007389026 -0.007250117)
(0.8700275 -0.07648923 -0.02760736)
(0.6465009 -0.0004572392 -0.0004981722)
(1.425357 0.001399851 0.001136825)
(2.04832 -0.00253617 -0.003239765)
(2.144067 0.004484575 0.0004852878)
(2.644202 -0.0249063 -0.008553045)
(1.886884 -0.1788131 0.007078426)
(0.8235095 0.0002027321 0.0001946713)
(2.000448 -0.0007451129 -0.001254974)
(2.695743 0.001894697 0.0007948238)
(3.314917 -0.002259133 -0.003801767)
(3.240877 0.005631846 -0.001436454)
(3.701567 -0.02787768 0.003148934)
(2.347995 -0.1811375 0.08180237)
(0.9430225 -0.0001121898 -0.0002441504)
(2.275607 0.0003186602 6.938315e-05)
(3.245864 -0.0004747655 -0.002102027)
(3.732256 0.001650215 -0.0005689504)
(4.190543 -0.001112605 -0.00380905)
(3.861867 0.004163912 -0.003930317)
(4.101393 -0.02086816 0.01761883)
(2.399724 -0.1207503 0.1407916)
(0.9882627 1.177106e-05 5.150351e-06)
(2.441322 -5.64063e-05 -0.0007709561)
(3.417254 0.0001699343 -0.0006231931)
(4.105593 -0.0001050898 -0.002822475)
(4.317872 0.0007137441 -0.002389946)
(4.524782 -0.0002256643 -0.003569825)
(3.907423 0.001499503 -0.006535997)
(3.819641 -0.006918477 0.02523572)
(2.034548 -0.03546336 0.1403547)
(0.9904438 1.861098e-05 -0.000137361)
(2.427645 -4.168693e-05 -0.0002757665)
(3.442803 3.760121e-05 -0.001512917)
(4.047669 -0.0002325972 -0.001658685)
(4.424499 1.716538e-05 -0.003415622)
(4.346747 -0.0008415473 -0.004230573)
(4.266087 9.013455e-05 -0.003134366)
(3.371718 -0.001491575 -0.008642253)
(2.875793 0.005614865 0.02114831)
(1.117633 0.02078464 0.03546999)
(0.9366633 1.642604e-05 -5.756064e-05)
(2.285824 5.977358e-05 -0.0005325347)
(3.203389 -0.0002100547 -0.0008915804)
(3.801486 -2.139428e-06 -0.002212219)
(4.063452 -0.00085184 -0.002749729)
(4.148353 -0.0002316552 -0.003856157)
(3.813888 -0.002706707 -0.005805935)
(3.455355 -7.210466e-05 -0.002639426)
(2.343685 -0.003933364 -0.008774784)
(1.393806 0.00669281 -0.003960896)
(0.004425802 0.0002710783 -0.003694535)
(0.826122 3.409922e-05 -7.064389e-05)
(1.970104 -7.908348e-06 -0.0003344242)
(2.740954 2.690508e-05 -0.001041488)
(3.210227 -0.0004282783 -0.001550855)
(3.46311 -0.0001961434 -0.00272962)
(3.459183 -0.001528587 -0.003723339)
(3.320609 -0.0008147686 -0.004251511)
(2.813026 -0.004396613 -0.006992449)
(2.232735 -0.0007396307 -0.003090793)
(1.013318 -0.004388135 -0.009630307)
(0.005139445 2.079204e-05 -0.003670735)
(0.0006060042 -0.0007925459 -0.006294401)
(0.6343342 2.525666e-05 -3.700265e-05)
(1.450128 1.576825e-05 -0.0002409255)
(1.972095 -6.701078e-05 -0.0006252783)
(2.292742 -5.129461e-05 -0.001293021)
(2.443594 -0.0005327213 -0.001916237)
(2.471681 -0.0004307001 -0.002918459)
(2.327073 -0.001895547 -0.00442166)
(2.083018 -0.00154736 -0.004859466)
(1.548295 -0.004818345 -0.008567221)
(0.8611526 -0.001891962 -0.0131908)
(0.003238183 -0.0001001489 -0.004917191)
(0.0007397381 -0.001528772 -0.007405706)
(0.0005679162 -0.002075566 -0.006922637)
(0.3094099 1.93413e-05 -1.26123e-05)
(0.6345333 2.234507e-05 -7.547015e-05)
(0.8271183 3.267576e-05 -0.0002419983)
(0.9394449 -5.132041e-06 -0.0004783826)
(0.9963954 3.416666e-05 -0.0008659789)
(0.9992396 -0.0001891973 -0.001406337)
(0.9615782 -0.0001166531 -0.002187262)
(0.8529252 -0.0007894363 -0.003670875)
(0.6935849 -0.0001338768 -0.005576214)
(0.3785344 -0.004511847 -0.01872036)
(0.002063532 -0.007822911 -0.006657786)
(0.0005057914 -0.00677123 -0.00966682)
(0.0006907866 -0.006525425 -0.007256409)
(0.0005383489 -0.006659059 -0.004669974)
(0.0005010067 -0.009981824 -0.0008063345)
(0.0005415087 -0.008235455 -0.00157968)
(0.000429172 -0.007871011 -0.003001205)
(0.0005766838 -0.007426698 -0.001416834)
(0.0004774563 -0.007894427 -0.009395437)
(0.0005169675 -0.00487833 -0.0005748101)
(0.0004806135 -0.005002089 -0.001158367)
(0.0005112613 -0.005085162 -0.002494936)
(0.0003895751 -0.005246622 -0.001076237)
(0.0005334222 -0.005383093 -0.008243279)
(4.734537e-05 -0.0006513702 -0.003399425)
(0.0004934821 -0.003588004 -0.0003690639)
(0.0005026633 -0.003681459 -0.0007556659)
(0.0004583687 -0.003769939 -0.002045175)
(0.0004789964 -0.00384542 -0.0007643239)
(0.0003646703 -0.004005667 -0.007506973)
(5.129117e-05 -0.000457886 -0.003053054)
(3.987602e-05 -0.0004625301 -0.00391955)
(0.0005017868 -0.001931072 -0.0003354438)
(0.000488848 -0.002013949 -0.0006813077)
(0.0004905279 -0.002074351 -0.001900373)
(0.000440517 -0.002144982 -0.0006869416)
(0.0004635522 -0.002211593 -0.007031564)
(3.635379e-05 -0.000256456 -0.002828612)
(4.344356e-05 -0.0002441895 -0.003572951)
(3.742368e-05 -0.0002664746 -0.003796481)
(0.0004994093 -0.0006453569 -0.000315947)
(0.0005013532 -0.000669571 -0.00063552)
(0.000481838 -0.0006915478 -0.001799191)
(0.0004788368 -0.0007052093 -0.00063972)
(0.0004322813 -0.0007361476 -0.006672066)
(4.860717e-05 -8.432399e-05 -0.002669037)
(3.156543e-05 -8.078579e-05 -0.003333929)
(4.109231e-05 -8.427885e-05 -0.003501327)
(3.603818e-05 -9.061408e-05 -0.003394084)
(0.3160356 -0.0002757832 -0.0002677328)
(0.6229353 0.0007520392 0.0006802498)
(0.8633628 -0.001558252 -0.001658787)
(0.8753463 0.002554616 0.0004505726)
(1.11553 -0.006875687 -0.002700063)
(0.8726564 -0.07604411 0.004290749)
(0.6327548 0.000208098 0.0001969791)
(1.474042 -0.0007460002 -0.001038267)
(1.941024 0.001714442 0.0007609282)
(2.370939 -0.002322226 -0.003145372)
(2.291004 0.005150823 -0.001227628)
(2.658277 -0.0240461 0.002895172)
(1.831068 -0.1789403 0.06861592)
(0.8318986 -0.0001720916 -0.0002313542)
(1.96513 0.0004507169 0.0001112338)
(2.774564 -0.0007396153 -0.001941886)
(3.165207 0.002218506 -0.0005005454)
(3.553605 -0.001809743 -0.003631674)
(3.262354 0.006273348 -0.003726041)
(3.526612 -0.02594753 0.01563625)
(2.157698 -0.1760501 0.1387541)
(0.936957 3.271215e-05 9.066036e-06)
(2.294889 -0.000167293 -0.0007454119)
(3.195843 0.0004660715 -0.0005778639)
(3.829922 -0.0003346748 -0.002753067)
(4.019466 0.001943008 -0.002371745)
(4.217855 -0.0007259563 -0.003582789)
(3.641244 0.00440025 -0.006450525)
(3.598542 -0.01831064 0.02460134)
(1.962706 -0.1015797 0.1413145)
(0.9904438 -1.861075e-05 -0.000137361)
(2.427645 4.168685e-05 -0.0002757666)
(3.442803 -3.760121e-05 -0.001512917)
(4.047669 0.0002325974 -0.001658685)
(4.424499 -1.716555e-05 -0.003415622)
(4.346747 0.0008415477 -0.004230573)
(4.266087 -9.01343e-05 -0.003134366)
(3.371718 0.001491576 -0.008642253)
(2.875793 -0.005614865 0.02114831)
(1.117633 -0.02078464 0.03546999)
(0.9879402 5.58454e-06 -6.159845e-05)
(2.431774 1.942974e-05 -0.0005574507)
(3.425016 -7.884383e-05 -0.0009425493)
(4.075936 -9.298894e-06 -0.002291113)
(4.36403 -0.000316851 -0.002808783)
(4.453795 -0.0001034454 -0.003853873)
(4.092538 -0.0009801955 -0.005687193)
(3.692602 -2.908646e-05 -0.002393337)
(2.497624 -0.001326764 -0.008599372)
(1.462074 0.002353195 -0.003733288)
(0.004539416 9.037549e-05 -0.003466854)
(0.9366502 2.073417e-05 -7.994305e-05)
(2.280852 -8.660825e-06 -0.0003947985)
(3.208101 8.75102e-07 -0.001183125)
(3.782403 -0.0003437319 -0.001748755)
(4.091712 -0.000206318 -0.002965204)
(4.09001 -0.001171379 -0.003865916)
(3.912792 -0.0006647083 -0.004130865)
(3.300519 -0.003065092 -0.006557611)
(2.585948 -0.0003055122 -0.002123469)
(1.158107 -0.002390242 -0.008173666)
(0.005667974 2.152893e-05 -0.003194145)
(0.0006064558 -0.0002405422 -0.005534592)
(0.8251573 2.659299e-05 -5.63063e-05)
(1.969827 7.144554e-06 -0.0003467755)
(2.735268 -8.759324e-05 -0.0008857233)
(3.214913 -0.000109888 -0.001729586)
(3.445232 -0.0006783165 -0.002464698)
(3.484803 -0.0006089771 -0.003495487)
(3.269703 -0.002160183 -0.004821611)
(2.894125 -0.001623209 -0.004486097)
(2.117212 -0.004620981 -0.006981178)
(1.132548 -0.00073647 -0.007309197)
(0.004108373 -3.600357e-05 -0.003443401)
(0.0007491991 -0.0007994398 -0.005440918)
(0.0005723871 -0.001104967 -0.005962194)
(0.6339322 3.203053e-05 -4.28655e-05)
(1.448464 2.47843e-06 -0.0002217916)
(1.971811 -4.345003e-05 -0.0006233282)
(2.287757 -0.0001666087 -0.001171248)
(2.447662 -0.0002320076 -0.001943173)
(2.457848 -0.0008723836 -0.002861702)
(2.346506 -0.001033671 -0.00388166)
(2.046523 -0.002786383 -0.005700802)
(1.600169 -0.002460385 -0.006197017)
(0.8077101 -0.004265523 -0.01362575)
(0.003669544 -7.404388e-05 -0.004613352)
(0.0005230971 -0.001472739 -0.006977373)
(0.0007003939 -0.001979653 -0.006048871)
(0.0005471562 -0.002496319 -0.003766467)