/*--------------------------------*- C++ -*----------------------------------*\
| =========                 |                                                 |
| \\      /  F ield         | OpenFOAM: The Open Source CFD Toolbox           |
|  \\    /   O peration     | Version:  2306                                  |
|   \\  /    A nd           | Website:  www.openfoam.com                      |
|    \\/     M anipulation  |                                                 |
\*---------------------------------------------------------------------------*/
FoamFile
{
    version     2.0;
    format      ascii;
    arch        "LSB;label=32;scalar=64";
    class       volScalarField;
    location    "0.3/air";
    object      X.N2;
}
// * * * * * * * * * * * * * * * * * * * * * * * * * * * * * * * * * * * * * //

dimensions      [0 0 0 0 0 0 0];

internalField   nonuniform List<scalar> 
16000
(
0.7929728
0.792968
0.7939712
0.7930043
0.7929609
0.7938949
0.7929966
0.7959193
0.7940729
0.7930789
0.7929542
0.7937961
0.7929869
0.7958243
0.7939706
0.7930628
0.7979894
0.7960435
0.7943359
0.7932224
0.7929501
0.7937122
0.7929781
0.7956946
0.7938445
0.7930453
0.7978921
0.7959199
0.7941994
0.7931888
0.8000468
0.7981184
0.7963533
0.7948176
0.7934852
0.7929501
0.7936652
0.7929728
0.7955797
0.7937413
0.7930314
0.7977588
0.7957586
0.7940316
0.7931525
0.7999516
0.7979927
0.7961957
0.7946465
0.7934226
0.802045
0.800173
0.7984379
0.7969029
0.7955687
0.7939554
0.8253445
0.7929542
0.7936652
0.7929728
0.7955137
0.7936848
0.7930231
0.7976402
0.7956193
0.7938951
0.7931256
0.7998213
0.7978278
0.7959928
0.794432
0.7933517
0.8019535
0.8000503
0.7982797
0.7967139
0.7953671
0.7938611
0.8039715
0.8021669
0.800485
0.7990003
0.7977369
0.7966274
0.7947304
0.8242379
0.8270332
0.8255189
0.7929609
0.7937122
0.7929781
0.7955137
0.7936848
0.7930231
0.7975718
0.7955404
0.7938213
0.7931115
0.7997053
0.7976848
0.7958195
0.7942548
0.7932972
0.8018281
0.7998894
0.7980751
0.79647
0.7951075
0.7937398
0.8038836
0.802049
0.8003314
0.7988141
0.7975214
0.7963922
0.7945996
0.8058279
0.8040885
0.8024681
0.8010325
0.799845
0.7988907
0.7980483
0.7959421
0.8220013
0.8260296
0.8244164
0.8279288
0.8271951
0.8258672
0.792968
0.7937961
0.7929869
0.7955797
0.7937413
0.7930314
0.7975718
0.7955404
0.7938213
0.7931115
0.7996385
0.7976033
0.7957219
0.7941575
0.7932683
0.8017166
0.7997499
0.7978994
0.7962617
0.7948888
0.7936378
0.8037633
0.8018944
0.800133
0.7985728
0.7972406
0.7960894
0.7944209
0.8057434
0.8039752
0.8023207
0.8008531
0.7996374
0.7986514
0.7977706
0.7957447
0.8076192
0.8059404
0.8043776
0.8029961
0.8018515
0.8009991
0.8003924
0.7998905
0.7977916
0.8185502
0.8240058
0.8221942
0.8269824
0.8261946
0.8247719
0.8286419
0.8280806
0.8275185
0.8263881
0.7929728
0.7938949
0.7929966
0.7956946
0.7938445
0.7930453
0.7976402
0.7956193
0.7938951
0.7931256
0.7996385
0.7976033
0.7957219
0.7941575
0.7932683
0.8016523
0.7996705
0.7978
0.7961445
0.7947672
0.7935809
0.8036562
0.8017604
0.7999627
0.7983655
0.7969996
0.795833
0.7942656
0.8056278
0.8038269
0.8021303
0.8006209
0.7993659
0.7983365
0.797411
0.7954748
0.8075378
0.8058315
0.8042361
0.8028243
0.8016531
0.8007741
0.8001246
0.799543
0.7974214
0.8093515
0.8077275
0.8062183
0.8048842
0.8037849
0.8029655
0.80248
0.8022694
0.8022309
0.8006516
0.8135568
0.8208969
0.818797
0.8250747
0.8241823
0.8225734
0.827744
0.827137
0.8265234
0.8253016
0.8293463
0.8287856
0.8283838
0.8280024
0.8270805
0.7939712
0.7930043
0.7958243
0.7939706
0.7930628
0.7977588
0.7957586
0.7940316
0.7931525
0.7997053
0.7976848
0.7958195
0.7942548
0.7932972
0.8016523
0.7996705
0.7978
0.7961445
0.7947672
0.7935809
0.8035945
0.8016841
0.7998664
0.7982483
0.7968637
0.7956895
0.7941774
0.8055249
0.8036982
0.801967
0.8004217
0.7991315
0.7980646
0.7971057
0.7952439
0.8074264
0.8056889
0.8040534
0.8026022
0.8013943
0.8004765
0.7997696
0.7990985
0.7969746
0.8092729
0.8076226
0.8060823
0.8047194
0.8035955
0.802752
0.8022329
0.8019465
0.801724
0.7997683
0.8110303
0.809456
0.8079951
0.8067055
0.8056409
0.8048562
0.8043885
0.8043041
0.8045692
0.8052196
0.8054087
0.8164352
0.8140671
0.8221462
0.8211183
0.8192567
0.8259346
0.8252396
0.8245299
0.82313
0.8284893
0.8278903
0.8274449
0.8270138
0.8260029
0.8301198
0.8294834
0.8290727
0.8288375
0.8286459
0.8280807
0.7959193
0.7940729
0.7930789
0.7978921
0.7959199
0.7941994
0.7931888
0.7998213
0.7978278
0.7959928
0.794432
0.7933517
0.8017166
0.7997499
0.7978994
0.7962617
0.7948888
0.7936378
0.8035945
0.8016841
0.7998664
0.7982483
0.7968637
0.7956895
0.7941774
0.8054656
0.803625
0.8018747
0.8003092
0.7989987
0.7979108
0.7969346
0.7951144
0.8073273
0.8055653
0.8038968
0.8024116
0.8011711
0.8002179
0.7994626
0.7987258
0.7966231
0.8091653
0.8074853
0.8059068
0.8045063
0.8033485
0.8024704
0.8019032
0.8015248
0.8011257
0.7989775
0.8109543
0.8093547
0.807864
0.806547
0.8054591
0.8046528
0.804155
0.8040075
0.8041014
0.8042627
0.8028752
0.8126601
0.8111313
0.8097143
0.8084643
0.8074334
0.8066684
0.8062225
0.8061347
0.8065097
0.8074201
0.8092666
0.8077794
0.8179479
0.8168799
0.8148275
0.8231582
0.8223526
0.8215322
0.8198937
0.8267626
0.8260905
0.8255645
0.825041
0.8238555
0.8292989
0.8286288
0.8281817
0.8279042
0.8276636
0.8270123
0.8309435
0.8302511
0.8297571
0.8295024
0.829441
0.829576
0.828287
0.7979894
0.7960435
0.7943359
0.7932224
0.7999516
0.7979927
0.7961957
0.7946465
0.7934226
0.8018281
0.7998894
0.7980751
0.79647
0.7951075
0.7937398
0.8036562
0.8017604
0.7999627
0.7983655
0.7969996
0.795833
0.7942656
0.8054656
0.803625
0.8018747
0.8003092
0.7989987
0.7979108
0.7969346
0.7951144
0.8072702
0.805495
0.8038083
0.8023039
0.8010447
0.8000709
0.7992891
0.7985188
0.796435
0.8090697
0.8073662
0.8057563
0.8043237
0.8031356
0.8022262
0.8016164
0.8011659
0.8006497
0.7984396
0.8108502
0.8092221
0.8076949
0.8063423
0.8052223
0.8043845
0.8038443
0.8036179
0.8035432
0.8033711
0.8015308
0.8125864
0.8110333
0.8095877
0.8083115
0.8072585
0.8064731
0.8060002
0.8058542
0.8060753
0.806527
0.8068932
0.8048034
0.8142451
0.812758
0.8113813
0.8101674
0.8091655
0.8084219
0.8079789
0.8078967
0.8082407
0.8092175
0.8112137
0.8112956
0.809622
0.8191806
0.8183629
0.8175474
0.815712
0.8241137
0.8233531
0.8227385
0.8221083
0.8206811
0.827645
0.8269111
0.8263976
0.8260422
0.8257085
0.8248857
0.8301542
0.8294324
0.8289066
0.8286164
0.8285129
0.8285997
0.8272204
0.8318137
0.8310698
0.8305134
0.830167
0.830074
0.8303134
0.8297678
0.828495
0.8000468
0.7981184
0.7963533
0.7948176
0.7934852
0.8019535
0.8000503
0.7982797
0.7967139
0.7953671
0.7938611
0.8037633
0.8018944
0.800133
0.7985728
0.7972406
0.7960894
0.7944209
0.8055249
0.8036982
0.801967
0.8004217
0.7991315
0.7980646
0.7971057
0.7952439
0.8072702
0.805495
0.8038083
0.8023039
0.8010447
0.8000709
0.7992891
0.7985188
0.796435
0.8090146
0.8072985
0.8056712
0.8042206
0.803015
0.8020875
0.8014535
0.8009652
0.8003927
0.7981715
0.8107576
0.8091072
0.8075499
0.8061667
0.8050184
0.804152
0.8035745
0.8032848
0.8030951
0.8027387
0.8007533
0.8124856
0.810905
0.8094244
0.8081141
0.8070307
0.8062159
0.8057043
0.8054867
0.8055557
0.805693
0.8055456
0.8031747
0.8141736
0.8126631
0.8112587
0.8100197
0.8089967
0.8082339
0.8077653
0.8076293
0.8078281
0.808377
0.808983
0.8085425
0.8065113
0.8157888
0.8143401
0.8130002
0.8118195
0.8108446
0.810118
0.8096831
0.8095853
0.8099136
0.8108226
0.8128054
0.8131126
0.8128824
0.8111293
0.82032
0.8195722
0.8189849
0.8183299
0.81666
0.8251081
0.8242992
0.8237173
0.8232755
0.822824
0.8217505
0.8285639
0.8277871
0.8272037
0.8268492
0.8266662
0.8266583
0.825098
0.8310527
0.8302826
0.8296985
0.829321
0.8291927
0.82939
0.8287927
0.8274303
0.8327137
0.8319355
0.831322
0.8309061
0.8307122
0.8309005
0.8304933
0.8299612
0.8287048
0.802045
0.800173
0.7984379
0.7969029
0.7955687
0.7939554
0.8038836
0.802049
0.8003314
0.7988141
0.7975214
0.7963922
0.7945996
0.8056278
0.8038269
0.8021303
0.8006209
0.7993659
0.7983365
0.797411
0.7954748
0.8073273
0.8055653
0.8038968
0.8024116
0.8011711
0.8002179
0.7994626
0.7987258
0.7966231
0.8090146
0.8072985
0.8056712
0.8042206
0.803015
0.8020875
0.8014535
0.8009652
0.8003927
0.7981715
0.8107043
0.8090418
0.807468
0.8060676
0.804903
0.80402
0.8034215
0.8030978
0.8028523
0.8024154
0.8003896
0.8123959
0.8107938
0.8092844
0.807945
0.8068346
0.8059931
0.8054476
0.8051731
0.8051378
0.8050995
0.8047261
0.8022563
0.8140756
0.8125387
0.8111006
0.809829
0.808777
0.8079863
0.8074814
0.8072788
0.8073358
0.8075929
0.8077153
0.806958
0.8046979
0.8157192
0.8142479
0.8128814
0.8116765
0.8106815
0.8099364
0.8094772
0.8093281
0.8095193
0.8100219
0.8106948
0.8105214
0.8100106
0.8080068
0.8172942
0.8158812
0.8145753
0.8134251
0.8124749
0.8117651
0.811334
0.8112296
0.8115215
0.8123846
0.8142415
0.8146
0.8145941
0.8141901
0.8124015
0.8214755
0.8206927
0.820159
0.819713
0.8191756
0.817803
0.826125
0.8252855
0.8246458
0.8242242
0.8239424
0.8238001
0.8219705
0.8295196
0.8287006
0.8280672
0.8276339
0.8274393
0.8275542
0.826854
0.8253119
0.8319782
0.8311765
0.8305384
0.8300956
0.8298705
0.8300232
0.8295709
0.8289873
0.827642
0.8336364
0.8328314
0.8321787
0.8316997
0.8314286
0.8315005
0.831071
0.8306747
0.8301563
0.8289164
0.8039715
0.8021669
0.800485
0.7990003
0.7977369
0.7966274
0.7947304
0.8057434
0.8039752
0.8023207
0.8008531
0.7996374
0.7986514
0.7977706
0.7957447
0.8074264
0.8056889
0.8040534
0.8026022
0.8013943
0.8004765
0.7997696
0.7990985
0.7969746
0.8090697
0.8073662
0.8057563
0.8043237
0.8031356
0.8022262
0.8016164
0.8011659
0.8006497
0.7984396
0.8107043
0.8090418
0.807468
0.8060676
0.804903
0.80402
0.8034215
0.8030978
0.8028523
0.8024154
0.8003896
0.8123442
0.8107306
0.8092053
0.8078495
0.8067237
0.8058667
0.8053019
0.8049974
0.8049109
0.8047953
0.8043311
0.8018347
0.8139886
0.8124309
0.8109651
0.8096656
0.8085879
0.8077719
0.8072351
0.8069798
0.8069408
0.8070351
0.8069431
0.8060255
0.8036725
0.815624
0.8141272
0.8127281
0.8114919
0.810469
0.8096973
0.8092037
0.8089912
0.8090487
0.8092761
0.8094969
0.8090281
0.8082701
0.8060888
0.8172264
0.8157915
0.8144599
0.8132864
0.8123168
0.8115893
0.8111349
0.8109815
0.811142
0.811618
0.8122288
0.8121462
0.8118877
0.8113026
0.809305
0.8187639
0.8173841
0.8161097
0.8149877
0.8140604
0.8133659
0.8129404
0.8128258
0.8130942
0.8138953
0.8156564
0.8159511
0.8159988
0.8158117
0.8153038
0.8136592
0.822633
0.8218319
0.821251
0.8208456
0.820499
0.8202039
0.818037
0.8271685
0.8262954
0.8256172
0.8251283
0.8248539
0.8248522
0.824001
0.8221918
0.8304967
0.8296513
0.8289697
0.8284791
0.8281961
0.8282791
0.8277372
0.8270513
0.8255276
0.8329243
0.8320979
0.8314232
0.8309201
0.8306219
0.8306623
0.8301944
0.8297532
0.8291836
0.8278553
0.8345735
0.8337504
0.8330665
0.8325429
0.8322021
0.832184
0.8316631
0.8312429
0.8308577
0.8303531
0.8291745
0.8058279
0.8040885
0.8024681
0.8010325
0.799845
0.7988907
0.7980483
0.7959421
0.8075378
0.8058315
0.8042361
0.8028243
0.8016531
0.8007741
0.8001246
0.799543
0.7974214
0.8091653
0.8074853
0.8059068
0.8045063
0.8033485
0.8024704
0.8019032
0.8015248
0.8011257
0.7989775
0.8107576
0.8091072
0.8075499
0.8061667
0.8050184
0.804152
0.8035745
0.8032848
0.8030951
0.8027387
0.8007533
0.8123442
0.8107306
0.8092053
0.8078495
0.8067237
0.8058667
0.8053019
0.8049974
0.8049109
0.8047953
0.8043311
0.8018347
0.8139384
0.8123696
0.8108886
0.8095734
0.8084809
0.8076503
0.8070955
0.8068123
0.8067268
0.8067492
0.8065702
0.8055853
0.8032048
0.8155394
0.8140225
0.8125968
0.8113337
0.8102862
0.8094904
0.8089664
0.8087042
0.8086711
0.8087465
0.8087677
0.8081478
0.8072495
0.8049926
0.8171338
0.8156741
0.814311
0.8131072
0.8121109
0.8113579
0.8108704
0.8106566
0.8106894
0.810904
0.8110872
0.8107329
0.8102448
0.8094706
0.8073423
0.8186979
0.8172968
0.8159975
0.8148529
0.8139069
0.8131954
0.8127475
0.8125857
0.8127281
0.8131577
0.8137288
0.8136104
0.8134342
0.8130868
0.81243
0.8105954
0.8202004
0.8188516
0.8176066
0.8165107
0.8156046
0.8149244
0.814504
0.8143831
0.8146258
0.8153811
0.8170393
0.817292
0.8172827
0.8171471
0.8168453
0.8164162
0.8139146
0.8238026
0.8229753
0.8223658
0.8219041
0.8215866
0.8214535
0.8204145
0.8182713
0.8282246
0.8273327
0.826614
0.8260788
0.8257276
0.8257128
0.8250394
0.8242031
0.8224145
0.8314898
0.8306239
0.8299107
0.8293656
0.8290174
0.8289962
0.8284522
0.8279216
0.8272501
0.8257449
0.8338828
0.8330401
0.8323362
0.8317912
0.8314262
0.8313806
0.8308256
0.8303671
0.8299372
0.8293815
0.8281156
0.8355204
0.8346841
0.833978
0.8334184
0.8330274
0.8329286
0.8323398
0.831827
0.8314162
0.8310423
0.8305931
0.8294389
0.8076192
0.8059404
0.8043776
0.8029961
0.8018515
0.8009991
0.8003924
0.7998905
0.7977916
0.8092729
0.8076226
0.8060823
0.8047194
0.8035955
0.802752
0.8022329
0.8019465
0.801724
0.7997683
0.8108502
0.8092221
0.8076949
0.8063423
0.8052223
0.8043845
0.8038443
0.8036179
0.8035432
0.8033711
0.8015308
0.8123959
0.8107938
0.8092844
0.807945
0.8068346
0.8059931
0.8054476
0.8051731
0.8051378
0.8050995
0.8047261
0.8022563
0.8139384
0.8123696
0.8108886
0.8095734
0.8084809
0.8076503
0.8070955
0.8068123
0.8067268
0.8067492
0.8065702
0.8055853
0.8032048
0.8154906
0.813963
0.8125226
0.8112443
0.8101828
0.809373
0.808832
0.8085435
0.8084665
0.8084754
0.8084158
0.8077316
0.8067722
0.8044931
0.8170514
0.8155723
0.8141835
0.8129538
0.8119338
0.8111577
0.8106412
0.8103798
0.8103266
0.810397
0.810393
0.8099002
0.8092798
0.8083896
0.8062109
0.8186076
0.8171825
0.8158528
0.8146789
0.8137072
0.812971
0.8124914
0.8122714
0.8122914
0.812471
0.8126353
0.8122627
0.8118777
0.811355
0.8105543
0.8086359
0.820136
0.8187665
0.8174973
0.8163796
0.8154555
0.8147589
0.8143168
0.8141504
0.8142714
0.8146696
0.8151857
0.8150501
0.8148358
0.8145634
0.8141295
0.8135568
0.8108574
0.8216057
0.8202859
0.8190684
0.8179969
0.8171107
0.8164438
0.8160286
0.8159017
0.8161245
0.8168345
0.8184109
0.8186109
0.8185657
0.8183752
0.8181206
0.8178736
0.8166422
0.8141684
0.824972
0.8241323
0.823488
0.8229904
0.8226088
0.8224859
0.8216489
0.8206255
0.8185061
0.8292899
0.8283832
0.8276396
0.8270574
0.8266522
0.8265452
0.8258895
0.8252277
0.8244064
0.8226386
0.8324914
0.8316129
0.8308745
0.8302923
0.829883
0.8297836
0.8291611
0.8286266
0.8281075
0.8274505
0.8260098
0.8348494
0.8339952
0.8332709
0.8326919
0.8322792
0.8321556
0.831537
0.8309902
0.8305412
0.8301226
0.8296229
0.8283823
0.8364733
0.8356278
0.8349049
0.8343189
0.8338868
0.833728
0.8330784
0.8324969
0.8319924
0.831591
0.8312674
0.8308388
0.8296403
0.8093515
0.8077275
0.8062183
0.8048842
0.8037849
0.8029655
0.80248
0.8022694
0.8022309
0.8006516
0.8109543
0.8093547
0.807864
0.806547
0.8054591
0.8046528
0.804155
0.8040075
0.8041014
0.8042627
0.8028752
0.8124856
0.810905
0.8094244
0.8081141
0.8070307
0.8062159
0.8057043
0.8054867
0.8055557
0.805693
0.8055456
0.8031747
0.8139886
0.8124309
0.8109651
0.8096656
0.8085879
0.8077719
0.8072351
0.8069798
0.8069408
0.8070351
0.8069431
0.8060255
0.8036725
0.8154906
0.813963
0.8125226
0.8112443
0.8101828
0.809373
0.808832
0.8085435
0.8084665
0.8084754
0.8084158
0.8077316
0.8067722
0.8044931
0.8170039
0.8155145
0.8141114
0.8128672
0.8118336
0.8110441
0.8105113
0.8102247
0.8101301
0.8101374
0.8100582
0.8095067
0.808828
0.8078857
0.805695
0.8185273
0.8170834
0.8157287
0.8145299
0.8135353
0.8127769
0.8122694
0.8120037
0.8119413
0.8119834
0.8119705
0.8114692
0.8109637
0.8103313
0.8094403
0.8075035
0.8200479
0.8186551
0.8173564
0.8162104
0.8152613
0.814541
0.8140682
0.8138458
0.8138489
0.8140071
0.8141339
0.813759
0.813351
0.8129212
0.8123535
0.8116734
0.808899
0.8215429
0.8202029
0.8189619
0.8178693
0.8169655
0.8162828
0.8158466
0.8156757
0.8157811
0.8161465
0.8166235
0.816455
0.8162218
0.8159095
0.8155439
0.8151666
0.8137856
0.8111177
0.8229818
0.8216892
0.8204974
0.8194488
0.8185811
0.8179269
0.8175166
0.817385
0.8175895
0.8182623
0.8197619
0.8199253
0.8198345
0.8196104
0.8193007
0.8190878
0.8180825
0.8168668
0.8144205
0.8261408
0.8252904
0.8246261
0.8240878
0.8236642
0.8234637
0.82267
0.8218447
0.8208369
0.8187411
0.8303577
0.8294433
0.8286796
0.8280669
0.8276083
0.8274345
0.8267134
0.8260674
0.8254173
0.8246111
0.8229112
0.8334979
0.8326108
0.8318556
0.8312432
0.830791
0.8306194
0.8299415
0.8293273
0.8288024
0.8282949
0.8276948
0.8262812
0.8358207
0.8349586
0.834219
0.8336154
0.8331635
0.8329825
0.832306
0.8316947
0.8311562
0.8307168
0.8303488
0.82987
0.8285854
0.8374295
0.8365777
0.8358423
0.8352355
0.8347724
0.8345639
0.8338724
0.8332295
0.8326554
0.8321591
0.8318043
0.8314978
0.8310259
0.8297773
0.8110303
0.809456
0.8079951
0.8067055
0.8056409
0.8048562
0.8043885
0.8043041
0.8045692
0.8052196
0.8054087
0.8125864
0.8110333
0.8095877
0.8083115
0.8072585
0.8064731
0.8060002
0.8058542
0.8060753
0.806527
0.8068932
0.8048034
0.8140756
0.8125387
0.8111006
0.809829
0.808777
0.8079863
0.8074814
0.8072788
0.8073358
0.8075929
0.8077153
0.806958
0.8046979
0.8155394
0.8140225
0.8125968
0.8113337
0.8102862
0.8094904
0.8089664
0.8087042
0.8086711
0.8087465
0.8087677
0.8081478
0.8072495
0.8049926
0.8170039
0.8155145
0.8141114
0.8128672
0.8118336
0.8110441
0.8105113
0.8102247
0.8101301
0.8101374
0.8100582
0.8095067
0.808828
0.8078857
0.805695
0.818481
0.8170271
0.8156587
0.8144458
0.8134381
0.8126668
0.8121436
0.8118539
0.8117516
0.8117339
0.8116498
0.8110944
0.8105358
0.8098533
0.8089212
0.806987
0.8199695
0.8185585
0.8172356
0.8160654
0.8150943
0.8143525
0.8138529
0.8135864
0.8135103
0.8135367
0.8134945
0.8129989
0.8124794
0.8119507
0.8112967
0.8105518
0.8077667
0.8214568
0.8200942
0.8188245
0.8177044
0.8167766
0.8160709
0.8156051
0.81538
0.8153716
0.8155057
0.815609
0.8152132
0.8147992
0.8143424
0.8138587
0.8133796
0.811901
0.8091609
0.8229203
0.8216081
0.8203935
0.8193244
0.8184396
0.8177701
0.8173395
0.8171652
0.8172561
0.8175957
0.818034
0.8178464
0.8175804
0.8172481
0.816841
0.8165175
0.8153772
0.814013
0.8113764
0.8243304
0.8230634
0.8218958
0.8208686
0.8200182
0.819376
0.8189706
0.8188348
0.8190235
0.8196623
0.8210963
0.8212249
0.821104
0.8208377
0.8204951
0.8202193
0.8192842
0.8182901
0.8170901
0.8146711
0.8273035
0.8264489
0.8257674
0.8252039
0.8247348
0.8244816
0.8236388
0.8228545
0.8220409
0.8210486
0.819026
0.8314253
0.8305065
0.8297303
0.8290924
0.8285977
0.8283598
0.8275954
0.8268826
0.8262463
0.825608
0.8248602
0.8231906
0.8345061
0.8336139
0.8328462
0.8322125
0.8317251
0.8315008
0.8307711
0.8301006
0.8294948
0.8289796
0.8285233
0.827945
0.8264881
0.8367939
0.8359268
0.835176
0.8345531
0.834072
0.8338432
0.8331275
0.8324577
0.8318537
0.8313236
0.8309309
0.8305802
0.8300582
0.8287236
0.8383867
0.8375312
0.8367864
0.8361635
0.8356755
0.8354282
0.8347036
0.8340181
0.8333819
0.8328151
0.8323625
0.8320225
0.831673
0.831153
0.8298475
0.8135568
0.8126601
0.8111313
0.8097143
0.8084643
0.8074334
0.8066684
0.8062225
0.8061347
0.8065097
0.8074201
0.8092666
0.8077794
0.8141736
0.8126631
0.8112587
0.8100197
0.8089967
0.8082339
0.8077653
0.8076293
0.8078281
0.808377
0.808983
0.8085425
0.8065113
0.815624
0.8141272
0.8127281
0.8114919
0.810469
0.8096973
0.8092037
0.8089912
0.8090487
0.8092761
0.8094969
0.8090281
0.8082701
0.8060888
0.8170514
0.8155723
0.8141835
0.8129538
0.8119338
0.8111577
0.8106412
0.8103798
0.8103266
0.810397
0.810393
0.8099002
0.8092798
0.8083896
0.8062109
0.818481
0.8170271
0.8156587
0.8144458
0.8134381
0.8126668
0.8121436
0.8118539
0.8117516
0.8117339
0.8116498
0.8110944
0.8105358
0.8098533
0.8089212
0.806987
0.8199244
0.8185036
0.8171674
0.8159836
0.8149999
0.8142456
0.8137308
0.8134412
0.8133269
0.8132959
0.8131861
0.8126398
0.8120716
0.8114976
0.8108035
0.8100289
0.8072503
0.8213803
0.82
0.8187068
0.8175633
0.816614
0.8158877
0.8153958
0.8151282
0.8150434
0.8150507
0.8149922
0.8144821
0.8139641
0.8134164
0.8128559
0.8123131
0.8107781
0.808029
0.8228362
0.821502
0.8202594
0.8191636
0.8182555
0.8175638
0.8171044
0.8168777
0.8168585
0.8169748
0.8170531
0.8166487
0.816212
0.8157465
0.8152323
0.8148204
0.8135883
0.8121275
0.8094215
0.8242703
0.8229841
0.8217942
0.8207471
0.8198803
0.8192231
0.818798
0.8186208
0.8186993
0.8190154
0.8194228
0.8192154
0.8189305
0.8185658
0.8181383
0.8177649
0.8167152
0.8155864
0.814239
0.8116333
0.8256529
0.8244102
0.8232653
0.8222583
0.8214242
0.8207932
0.8203925
0.8202534
0.8204278
0.8210364
0.8224107
0.8225125
0.8223635
0.8220705
0.8216872
0.8213728
0.8204058
0.8194794
0.8184963
0.817312
0.8149723
0.8284586
0.8276022
0.8269104
0.8263253
0.8258271
0.8255196
0.824649
0.8238142
0.8230394
0.8222374
0.8213053
0.8193179
0.8324902
0.8315698
0.8307847
0.8301297
0.8296051
0.8293217
0.8285144
0.8277574
0.8270529
0.8264263
0.8258401
0.8251152
0.8234036
0.8355137
0.8346189
0.8338424
0.8331923
0.832679
0.8324109
0.8316471
0.8309241
0.830261
0.8296636
0.8291956
0.8287571
0.8281354
0.8266288
0.8377671
0.8368973
0.8361383
0.8355005
0.834996
0.8347302
0.8339834
0.8332737
0.8326106
0.8320141
0.8315278
0.83115
0.8307564
0.8301861
0.8287945
0.8393434
0.8384859
0.8377344
0.8370988
0.8365909
0.8363116
0.8355634
0.8348444
0.8341651
0.8335355
0.8330101
0.8325705
0.8321884
0.831792
0.831218
0.8185502
0.8164352
0.8140671
0.8142451
0.812758
0.8113813
0.8101674
0.8091655
0.8084219
0.8079789
0.8078967
0.8082407
0.8092175
0.8112137
0.8112956
0.809622
0.8157192
0.8142479
0.8128814
0.8116765
0.8106815
0.8099364
0.8094772
0.8093281
0.8095193
0.8100219
0.8106948
0.8105214
0.8100106
0.8080068
0.8171338
0.8156741
0.814311
0.8131072
0.8121109
0.8113579
0.8108704
0.8106566
0.8106894
0.810904
0.8110872
0.8107329
0.8102448
0.8094706
0.8073423
0.8185273
0.8170834
0.8157287
0.8145299
0.8135353
0.8127769
0.8122694
0.8120037
0.8119413
0.8119834
0.8119705
0.8114692
0.8109637
0.8103313
0.8094403
0.8075035
0.8199244
0.8185036
0.8171674
0.8159836
0.8149999
0.8142456
0.8137308
0.8134412
0.8133269
0.8132959
0.8131861
0.8126398
0.8120716
0.8114976
0.8108035
0.8100289
0.8072503
0.8213362
0.8199464
0.8186403
0.8174836
0.8165221
0.8157837
0.8152772
0.8149872
0.8148656
0.8148179
0.8146947
0.8141368
0.8135733
0.8129843
0.8123879
0.8118151
0.8102546
0.8075128
0.8227614
0.82141
0.8201446
0.819026
0.8180972
0.8173854
0.8169009
0.8166329
0.8165399
0.8165339
0.8164567
0.8159434
0.8154088
0.8148592
0.8142752
0.8138074
0.81252
0.8110036
0.8082903
0.824188
0.8228803
0.8216633
0.8205902
0.8197007
0.819022
0.8185691
0.818341
0.8183128
0.8184127
0.8184726
0.8180574
0.8176108
0.8171215
0.8165966
0.8161443
0.8150159
0.8137959
0.8123529
0.8096808
0.8255941
0.8243327
0.823166
0.8221396
0.8212895
0.820644
0.8202243
0.8200449
0.8201122
0.8204077
0.8207872
0.8205663
0.8202625
0.8198797
0.8194204
0.8190206
0.8179525
0.8169115
0.8157942
0.8144635
0.8119422
0.8269513
0.8257311
0.8246077
0.8236196
0.822801
0.8221805
0.8217845
0.8216425
0.8218041
0.8223853
0.8237059
0.8237841
0.8236145
0.8232969
0.8228886
0.8225296
0.821551
0.8205912
0.8196733
0.8187013
0.817579
0.8152809
0.8296046
0.8287486
0.8280496
0.8274504
0.8269271
0.826583
0.8256803
0.8248167
0.8239899
0.8232245
0.8224756
0.8215682
0.8195404
0.8335506
0.8326307
0.83184
0.831172
0.830626
0.8303044
0.8294707
0.8286699
0.8279203
0.8272243
0.8266455
0.8260777
0.8253095
0.8235486
0.8365191
0.8356236
0.8348411
0.8341786
0.8336447
0.833343
0.8325522
0.8317945
0.8310782
0.8304226
0.8298694
0.8294166
0.828935
0.8282649
0.826701
0.8387388
0.8378679
0.8371033
0.8364539
0.8359308
0.8356344
0.8348659
0.8341247
0.8334211
0.8327648
0.8322097
0.8317366
0.8313166
0.830876
0.8302515
0.8402985
0.8394402
0.838684
0.8380386
0.8375146
0.8372088
0.8364428
0.8356998
0.8349864
0.8343132
0.8337229
0.8332093
0.8327286
0.8323009
0.8318529
0.8220013
0.8208969
0.818797
0.8179479
0.8168799
0.8148275
0.8157888
0.8143401
0.8130002
0.8118195
0.8108446
0.810118
0.8096831
0.8095853
0.8099136
0.8108226
0.8128054
0.8131126
0.8128824
0.8111293
0.8172264
0.8157915
0.8144599
0.8132864
0.8123168
0.8115893
0.8111349
0.8109815
0.811142
0.811618
0.8122288
0.8121462
0.8118877
0.8113026
0.809305
0.8186076
0.8171825
0.8158528
0.8146789
0.8137072
0.812971
0.8124914
0.8122714
0.8122914
0.812471
0.8126353
0.8122627
0.8118777
0.811355
0.8105543
0.8086359
0.8199695
0.8185585
0.8172356
0.8160654
0.8150943
0.8143525
0.8138529
0.8135864
0.8135103
0.8135367
0.8134945
0.8129989
0.8124794
0.8119507
0.8112967
0.8105518
0.8077667
0.8213362
0.8199464
0.8186403
0.8174836
0.8165221
0.8157837
0.8152772
0.8149872
0.8148656
0.8148179
0.8146947
0.8141368
0.8135733
0.8129843
0.8123879
0.8118151
0.8102546
0.8075128
0.8227183
0.8213577
0.8200797
0.8189483
0.8180077
0.8172842
0.8167855
0.8164959
0.8163673
0.8163083
0.816169
0.8156103
0.8150329
0.8144451
0.8138287
0.8133344
0.8120211
0.8104796
0.8077745
0.8241148
0.8227904
0.8215512
0.8204559
0.8195463
0.8188481
0.8183707
0.8181028
0.818003
0.8179848
0.8178947
0.8173755
0.816836
0.816268
0.8156794
0.8151771
0.8140011
0.812726
0.8112282
0.8085508
0.8255135
0.8242311
0.823038
0.8219864
0.8211142
0.8204478
0.820001
0.8197722
0.8197359
0.8198219
0.8198651
0.8194446
0.8189866
0.8184867
0.8179374
0.8174673
0.8163297
0.8152105
0.8140023
0.8125772
0.8099931
0.8268936
0.8256551
0.8245106
0.8235035
0.8226693
0.8220348
0.8216202
0.821439
0.8214966
0.8217735
0.8221285
0.821896
0.8215797
0.8211792
0.8207026
0.820267
0.8191998
0.8181387
0.8171065
0.8160006
0.8147334
0.8122587
0.8282263
0.8270279
0.8259245
0.8249544
0.8241501
0.8235398
0.8231482
0.8230036
0.8231537
0.8237101
0.8249817
0.8250398
0.8248527
0.8245179
0.824087
0.8236997
0.8227007
0.8217282
0.8207754
0.8198661
0.8189479
0.8178523
0.8155162
0.8307406
0.8298866
0.8291831
0.8285731
0.8280328
0.827657
0.8267378
0.8258413
0.8249847
0.8241659
0.8234489
0.8227194
0.8217684
0.8196919
0.8346052
0.8336874
0.8328934
0.8322161
0.8316532
0.8313029
0.8304483
0.8296206
0.8288265
0.8280843
0.8274329
0.8268697
0.8262585
0.8254416
0.8236229
0.8375208
0.8366261
0.83584
0.8351681
0.834618
0.8342886
0.8334798
0.8326947
0.8319431
0.8312335
0.8306197
0.8300799
0.8295847
0.8290558
0.8283312
0.8397079
0.8388371
0.8380687
0.8374106
0.8368724
0.8365509
0.835766
0.8350027
0.8342672
0.8335698
0.8329528
0.8324097
0.8318953
0.8314296
0.8309371
0.8412512
0.840393
0.8396335
0.8389806
0.8384435
0.8381156
0.8373362
0.836575
0.8358373
0.8351296
0.834494
0.8339145
0.8333607
0.8328359
0.8323584
0.8242379
0.8240058
0.8221941
0.8221462
0.8211183
0.8192567
0.8191806
0.8183629
0.8175474
0.815712
0.8172942
0.8158812
0.8145753
0.8134251
0.8124749
0.8117651
0.811334
0.8112296
0.8115215
0.8123846
0.8142415
0.8146
0.8145941
0.8141901
0.8124015
0.8186979
0.8172968
0.8159975
0.8148529
0.8139069
0.8131954
0.8127475
0.8125857
0.8127281
0.8131577
0.8137288
0.8136104
0.8134342
0.8130868
0.81243
0.8105954
0.8200479
0.8186551
0.8173564
0.8162104
0.8152613
0.814541
0.8140682
0.8138458
0.8138489
0.8140071
0.8141339
0.813759
0.813351
0.8129212
0.8123535
0.8116734
0.808899
0.8213803
0.82
0.8187068
0.8175633
0.816614
0.8158877
0.8153958
0.8151282
0.8150434
0.8150507
0.8149922
0.8144821
0.8139641
0.8134164
0.8128559
0.8123131
0.8107781
0.808029
0.8227183
0.8213577
0.8200797
0.8189483
0.8180077
0.8172842
0.8167855
0.8164959
0.8163673
0.8163083
0.816169
0.8156103
0.8150329
0.8144451
0.8138287
0.8133344
0.8120211
0.8104796
0.8077745
0.8240727
0.8227393
0.8214878
0.8203801
0.819459
0.8187495
0.8182584
0.8179694
0.8178353
0.8177658
0.817616
0.8170534
0.8164735
0.8158697
0.8152514
0.8147256
0.8135272
0.8122264
0.8107037
0.8080354
0.8254418
0.8241432
0.8229283
0.8218552
0.8209635
0.8202781
0.8198076
0.8195401
0.8194344
0.8194059
0.8193043
0.818784
0.8182375
0.8176634
0.8170551
0.8165403
0.8153607
0.814194
0.8129313
0.8114519
0.8088648
0.8268147
0.8255557
0.8243854
0.8233537
0.822498
0.8218432
0.8214023
0.821173
0.8211299
0.8212033
0.8212324
0.8208076
0.8203439
0.8198325
0.8192723
0.8187728
0.8176444
0.8165141
0.8154039
0.8142077
0.8128471
0.8103131
0.8281697
0.8269535
0.8258293
0.8248408
0.8240214
0.8233974
0.8229876
0.8228049
0.8228537
0.823114
0.823447
0.8232054
0.8228787
0.8224668
0.8219738
0.8215177
0.8204389
0.8193777
0.8183238
0.8173002
0.8162487
0.8150098
0.8125
0.8294801
0.8283013
0.8272174
0.8262639
0.8254735
0.8248725
0.8244852
0.8243384
0.824478
0.8250116
0.8262385
0.826279
0.8260776
0.8257285
0.8252824
0.8248701
0.8238645
0.8228707
0.8219041
0.8209584
0.8200978
0.8192002
0.8180605
0.8156763
0.8318658
0.8310151
0.8303091
0.8296914
0.8291377
0.828739
0.8278065
0.8268928
0.8260026
0.8251529
0.8243792
0.8236785
0.8229049
0.8219045
0.8197696
0.8356532
0.8347386
0.8339432
0.8332591
0.8326833
0.8323095
0.8314421
0.8305931
0.8297714
0.8289839
0.8282839
0.8276462
0.8270403
0.8263814
0.8255092
0.8385183
0.8376253
0.8368371
0.8361583
0.8355954
0.8352433
0.8344213
0.8336177
0.8328382
0.8320928
0.831423
0.8308212
0.8302399
0.8296988
0.8291176
0.8406739
0.839804
0.8390331
0.8383683
0.8378182
0.8374756
0.8366787
0.8358987
0.8351407
0.8344108
0.8337511
0.833145
0.8325616
0.832003
0.8314874
0.8422011
0.8413437
0.8405819
0.839923
0.8393753
0.8390289
0.8382396
0.8374647
0.8367084
0.835976
0.8353043
0.8346787
0.83406
0.8334634
0.8328906
0.8253445
0.8260296
0.8244164
0.8250747
0.8241823
0.8225734
0.8231582
0.8223526
0.8215322
0.8198937
0.82032
0.8195722
0.8189849
0.8183299
0.81666
0.8187639
0.8173841
0.8161097
0.8149877
0.8140604
0.8133659
0.8129404
0.8128258
0.8130942
0.8138953
0.8156564
0.8159511
0.8159988
0.8158117
0.8153038
0.8136592
0.820136
0.8187665
0.8174973
0.8163796
0.8154555
0.8147589
0.8143168
0.8141504
0.8142714
0.8146696
0.8151857
0.8150501
0.8148358
0.8145634
0.8141295
0.8135568
0.8108574
0.8214568
0.8200942
0.8188245
0.8177044
0.8167766
0.8160709
0.8156051
0.81538
0.8153716
0.8155057
0.815609
0.8152132
0.8147992
0.8143424
0.8138587
0.8133796
0.811901
0.8091609
0.8227614
0.82141
0.8201446
0.819026
0.8180972
0.8173854
0.8169009
0.8166329
0.8165399
0.8165339
0.8164567
0.8159434
0.8154088
0.8148592
0.8142752
0.8138074
0.81252
0.8110036
0.8082903
0.8240727
0.8227393
0.8214878
0.8203801
0.819459
0.8187495
0.8182584
0.8179694
0.8178353
0.8177658
0.817616
0.8170534
0.8164735
0.8158697
0.8152514
0.8147256
0.8135272
0.8122264
0.8107037
0.8080354
0.8254006
0.8240932
0.8228664
0.8217811
0.8208782
0.8201819
0.8196981
0.8194102
0.8192712
0.8191931
0.8190338
0.8184719
0.8178869
0.8172792
0.8166434
0.8161075
0.8149082
0.8137193
0.812431
0.8109272
0.8083503
0.8267445
0.8254696
0.8242781
0.8232254
0.8223508
0.8216775
0.8212135