/*--------------------------------*- C++ -*----------------------------------*\
| =========                 |                                                 |
| \\      /  F ield         | OpenFOAM: The Open Source CFD Toolbox           |
|  \\    /   O peration     | Version:  2306                                  |
|   \\  /    A nd           | Website:  www.openfoam.com                      |
|    \\/     M anipulation  |                                                 |
\*---------------------------------------------------------------------------*/
FoamFile
{
    version     2.0;
    format      ascii;
    arch        "LSB;label=32;scalar=64";
    class       volScalarField;
    location    "0.3/air";
    object      X.O2;
}
// * * * * * * * * * * * * * * * * * * * * * * * * * * * * * * * * * * * * * //

dimensions      [0 0 0 0 0 0 0];

internalField   nonuniform List<scalar> 
16000
(
0.2070272
0.207032
0.2060288
0.2069957
0.2070391
0.2061051
0.2070034
0.2040807
0.2059271
0.2069211
0.2070458
0.2062039
0.2070131
0.2041757
0.2060294
0.2069372
0.2020106
0.2039565
0.2056641
0.2067776
0.2070499
0.2062878
0.2070219
0.2043054
0.2061555
0.2069547
0.2021079
0.2040801
0.2058006
0.2068112
0.1999532
0.2018816
0.2036467
0.2051824
0.2065148
0.2070499
0.2063348
0.2070272
0.2044203
0.2062587
0.2069686
0.2022412
0.2042414
0.2059684
0.2068475
0.2000484
0.2020073
0.2038043
0.2053535
0.2065774
0.197955
0.199827
0.2015621
0.2030971
0.2044313
0.2060446
0.1746555
0.2070458
0.2063348
0.2070272
0.2044863
0.2063152
0.2069769
0.2023598
0.2043807
0.2061049
0.2068744
0.2001787
0.2021722
0.2040072
0.205568
0.2066483
0.1980465
0.1999497
0.2017203
0.2032861
0.2046329
0.2061389
0.1960285
0.1978331
0.199515
0.2009997
0.2022631
0.2033726
0.2052696
0.1757621
0.1729668
0.1744811
0.2070391
0.2062878
0.2070219
0.2044863
0.2063152
0.2069769
0.2024282
0.2044596
0.2061787
0.2068885
0.2002947
0.2023152
0.2041805
0.2057452
0.2067028
0.1981719
0.2001106
0.2019249
0.20353
0.2048925
0.2062602
0.1961164
0.197951
0.1996686
0.2011859
0.2024786
0.2036078
0.2054004
0.1941721
0.1959115
0.1975319
0.1989675
0.200155
0.2011093
0.2019517
0.2040579
0.1779987
0.1739704
0.1755836
0.1720712
0.1728049
0.1741328
0.207032
0.2062039
0.2070131
0.2044203
0.2062587
0.2069686
0.2024282
0.2044596
0.2061787
0.2068885
0.2003615
0.2023967
0.2042781
0.2058425
0.2067317
0.1982834
0.2002501
0.2021006
0.2037383
0.2051112
0.2063622
0.1962367
0.1981056
0.199867
0.2014272
0.2027594
0.2039106
0.2055791
0.1942566
0.1960248
0.1976793
0.1991469
0.2003626
0.2013486
0.2022294
0.2042553
0.1923808
0.1940596
0.1956224
0.1970039
0.1981485
0.1990009
0.1996076
0.2001095
0.2022084
0.1814498
0.1759942
0.1778058
0.1730176
0.1738054
0.1752281
0.1713581
0.1719194
0.1724815
0.1736119
0.2070272
0.2061051
0.2070034
0.2043054
0.2061555
0.2069547
0.2023598
0.2043807
0.2061049
0.2068744
0.2003615
0.2023967
0.2042781
0.2058425
0.2067317
0.1983477
0.2003295
0.2022
0.2038555
0.2052328
0.2064191
0.1963438
0.1982396
0.2000373
0.2016345
0.2030004
0.204167
0.2057344
0.1943722
0.1961731
0.1978697
0.1993791
0.2006341
0.2016635
0.202589
0.2045252
0.1924622
0.1941685
0.1957639
0.1971757
0.1983469
0.1992259
0.1998754
0.200457
0.2025786
0.1906485
0.1922725
0.1937817
0.1951158
0.1962151
0.1970345
0.19752
0.1977306
0.1977691
0.1993484
0.1864432
0.1791031
0.181203
0.1749253
0.1758177
0.1774266
0.172256
0.172863
0.1734766
0.1746984
0.1706537
0.1712144
0.1716162
0.1719976
0.1729195
0.2060288
0.2069957
0.2041757
0.2060294
0.2069372
0.2022412
0.2042414
0.2059684
0.2068475
0.2002947
0.2023152
0.2041805
0.2057452
0.2067028
0.1983477
0.2003295
0.2022
0.2038555
0.2052328
0.2064191
0.1964055
0.1983159
0.2001336
0.2017517
0.2031363
0.2043105
0.2058226
0.1944751
0.1963018
0.198033
0.1995783
0.2008685
0.2019354
0.2028943
0.2047561
0.1925736
0.1943111
0.1959466
0.1973978
0.1986057
0.1995235
0.2002304
0.2009015
0.2030254
0.1907271
0.1923774
0.1939177
0.1952806
0.1964045
0.197248
0.1977671
0.1980535
0.198276
0.2002317
0.1889697
0.190544
0.1920049
0.1932945
0.1943591
0.1951438
0.1956115
0.1956959
0.1954308
0.1947804
0.1945913
0.1835648
0.1859329
0.1778538
0.1788817
0.1807433
0.1740654
0.1747604
0.1754701
0.17687
0.1715107
0.1721097
0.1725551
0.1729862
0.1739971
0.1698802
0.1705166
0.1709273
0.1711625
0.1713541
0.1719193
0.2040807
0.2059271
0.2069211
0.2021079
0.2040801
0.2058006
0.2068112
0.2001787
0.2021722
0.2040072
0.205568
0.2066483
0.1982834
0.2002501
0.2021006
0.2037383
0.2051112
0.2063622
0.1964055
0.1983159
0.2001336
0.2017517
0.2031363
0.2043105
0.2058226
0.1945344
0.196375
0.1981253
0.1996908
0.2010013
0.2020892
0.2030654
0.2048856
0.1926727
0.1944347
0.1961032
0.1975884
0.1988289
0.1997821
0.2005374
0.2012742
0.2033769
0.1908347
0.1925147
0.1940932
0.1954937
0.1966515
0.1975296
0.1980968
0.1984752
0.1988743
0.2010225
0.1890457
0.1906453
0.192136
0.193453
0.1945409
0.1953472
0.195845
0.1959925
0.1958986
0.1957373
0.1971248
0.1873399
0.1888687
0.1902857
0.1915357
0.1925666
0.1933316
0.1937775
0.1938653
0.1934903
0.1925799
0.1907334
0.1922206
0.1820521
0.1831201
0.1851725
0.1768418
0.1776474
0.1784678
0.1801063
0.1732374
0.1739095
0.1744355
0.174959
0.1761445
0.1707011
0.1713712
0.1718183
0.1720958
0.1723364
0.1729877
0.1690565
0.1697489
0.1702429
0.1704976
0.170559
0.170424
0.171713
0.2020106
0.2039565
0.2056641
0.2067776
0.2000484
0.2020073
0.2038043
0.2053535
0.2065774
0.1981719
0.2001106
0.2019249
0.20353
0.2048925
0.2062602
0.1963438
0.1982396
0.2000373
0.2016345
0.2030004
0.204167
0.2057344
0.1945344
0.196375
0.1981253
0.1996908
0.2010013
0.2020892
0.2030654
0.2048856
0.1927298
0.194505
0.1961917
0.1976961
0.1989553
0.1999291
0.2007109
0.2014812
0.203565
0.1909303
0.1926338
0.1942437
0.1956763
0.1968644
0.1977738
0.1983836
0.1988341
0.1993503
0.2015604
0.1891498
0.1907779
0.1923051
0.1936577
0.1947777
0.1956155
0.1961557
0.1963821
0.1964568
0.1966289
0.1984692
0.1874136
0.1889667
0.1904123
0.1916885
0.1927415
0.1935269
0.1939998
0.1941458
0.1939247
0.193473
0.1931068
0.1951966
0.1857549
0.187242
0.1886187
0.1898326
0.1908345
0.1915781
0.1920211
0.1921033
0.1917593
0.1907825
0.1887863
0.1887044
0.190378
0.1808194
0.1816371
0.1824526
0.184288
0.1758863
0.1766469
0.1772615
0.1778917
0.1793189
0.172355
0.1730889
0.1736024
0.1739578
0.1742915
0.1751143
0.1698458
0.1705676
0.1710934
0.1713836
0.1714871
0.1714003
0.1727796
0.1681863
0.1689302
0.1694866
0.169833
0.169926
0.1696866
0.1702322
0.171505
0.1999532
0.2018816
0.2036467
0.2051824
0.2065148
0.1980465
0.1999497
0.2017203
0.2032861
0.2046329
0.2061389
0.1962367
0.1981056
0.199867
0.2014272
0.2027594
0.2039106
0.2055791
0.1944751
0.1963018
0.198033
0.1995783
0.2008685
0.2019354
0.2028943
0.2047561
0.1927298
0.194505
0.1961917
0.1976961
0.1989553
0.1999291
0.2007109
0.2014812
0.203565
0.1909854
0.1927015
0.1943288
0.1957794
0.196985
0.1979125
0.1985465
0.1990348
0.1996073
0.2018285
0.1892424
0.1908928
0.1924501
0.1938333
0.1949816
0.195848
0.1964255
0.1967152
0.1969049
0.1972613
0.1992467
0.1875144
0.189095
0.1905756
0.1918859
0.1929693
0.1937841
0.1942957
0.1945133
0.1944443
0.194307
0.1944544
0.1968253
0.1858264
0.1873369
0.1887413
0.1899803
0.1910033
0.1917661
0.1922347
0.1923707
0.1921719
0.191623
0.191017
0.1914575
0.1934887
0.1842112
0.1856599
0.1869998
0.1881805
0.1891554
0.189882
0.1903169
0.1904147
0.1900864
0.1891774
0.1871946
0.1868874
0.1871176
0.1888707
0.17968
0.1804278
0.1810151
0.1816701
0.18334
0.1748919
0.1757008
0.1762827
0.1767245
0.177176
0.1782495
0.1714361
0.1722129
0.1727963
0.1731508
0.1733338
0.1733417
0.174902
0.1689473
0.1697174
0.1703015
0.170679
0.1708073
0.17061
0.1712073
0.1725697
0.1672863
0.1680645
0.168678
0.1690939
0.1692878
0.1690995
0.1695067
0.1700388
0.1712952
0.197955
0.199827
0.2015621
0.2030971
0.2044313
0.2060446
0.1961164
0.197951
0.1996686
0.2011859
0.2024786
0.2036078
0.2054004
0.1943722
0.1961731
0.1978697
0.1993791
0.2006341
0.2016635
0.202589
0.2045252
0.1926727
0.1944347
0.1961032
0.1975884
0.1988289
0.1997821
0.2005374
0.2012742
0.2033769
0.1909854
0.1927015
0.1943288
0.1957794
0.196985
0.1979125
0.1985465
0.1990348
0.1996073
0.2018285
0.1892957
0.1909582
0.192532
0.1939324
0.195097
0.19598
0.1965785
0.1969022
0.1971477
0.1975846
0.1996104
0.1876041
0.1892062
0.1907156
0.192055
0.1931654
0.1940069
0.1945524
0.1948269
0.1948622
0.1949005
0.1952739
0.1977437
0.1859244
0.1874613
0.1888994
0.190171
0.191223
0.1920137
0.1925186
0.1927212
0.1926642
0.1924071
0.1922847
0.193042
0.1953021
0.1842808
0.1857521
0.1871186
0.1883235
0.1893185
0.1900636
0.1905228
0.1906719
0.1904807
0.1899781
0.1893052
0.1894786
0.1899894
0.1919932
0.1827058
0.1841188
0.1854247
0.1865749
0.1875251
0.1882349
0.188666
0.1887704
0.1884785
0.1876154
0.1857585
0.1854
0.1854059
0.1858099
0.1875985
0.1785245
0.1793073
0.179841
0.180287
0.1808244
0.182197
0.173875
0.1747145
0.1753542
0.1757758
0.1760576
0.1761999
0.1780295
0.1704804
0.1712994
0.1719328
0.1723661
0.1725607
0.1724458
0.173146
0.1746881
0.1680218
0.1688235
0.1694616
0.1699044
0.1701295
0.1699768
0.1704291
0.1710127
0.172358
0.1663636
0.1671686
0.1678213
0.1683003
0.1685714
0.1684995
0.168929
0.1693253
0.1698437
0.1710836
0.1960285
0.1978331
0.199515
0.2009997
0.2022631
0.2033726
0.2052696
0.1942566
0.1960248
0.1976793
0.1991469
0.2003626
0.2013486
0.2022294
0.2042553
0.1925736
0.1943111
0.1959466
0.1973978
0.1986057
0.1995235
0.2002304
0.2009015
0.2030254
0.1909303
0.1926338
0.1942437
0.1956763
0.1968644
0.1977738
0.1983836
0.1988341
0.1993503
0.2015604
0.1892957
0.1909582
0.192532
0.1939324
0.195097
0.19598
0.1965785
0.1969022
0.1971477
0.1975846
0.1996104
0.1876558
0.1892694
0.1907947
0.1921505
0.1932763
0.1941333
0.1946981
0.1950026
0.1950891
0.1952047
0.1956689
0.1981653
0.1860114
0.1875691
0.1890349
0.1903344
0.1914121
0.1922281
0.1927649
0.1930202
0.1930592
0.1929649
0.1930569
0.1939745
0.1963275
0.184376
0.1858728
0.1872719
0.1885081
0.189531
0.1903027
0.1907963
0.1910088
0.1909513
0.1907239
0.1905031
0.1909719
0.1917299
0.1939112
0.1827736
0.1842085
0.1855401
0.1867136
0.1876832
0.1884107
0.1888651
0.1890185
0.188858
0.188382
0.1877712
0.1878538
0.1881123
0.1886974
0.190695
0.1812361
0.1826159
0.1838903
0.1850123
0.1859396
0.1866341
0.1870596
0.1871742
0.1869058
0.1861047
0.1843436
0.1840489
0.1840012
0.1841883
0.1846962
0.1863408
0.177367
0.1781681
0.178749
0.1791544
0.179501
0.1797961
0.181963
0.1728315
0.1737046
0.1743828
0.1748717
0.1751461
0.1751478
0.175999
0.1778082
0.1695033
0.1703487
0.1710303
0.1715209
0.1718039
0.1717209
0.1722628
0.1729487
0.1744724
0.1670757
0.1679021
0.1685768
0.1690799
0.1693781
0.1693377
0.1698056
0.1702468
0.1708164
0.1721447
0.1654265
0.1662496
0.1669335
0.1674571
0.1677979
0.167816
0.1683369
0.1687571
0.1691423
0.1696469
0.1708255
0.1941721
0.1959115
0.1975319
0.1989675
0.200155
0.2011093
0.2019517
0.2040579
0.1924622
0.1941685
0.1957639
0.1971757
0.1983469
0.1992259
0.1998754
0.200457
0.2025786
0.1908347
0.1925147
0.1940932
0.1954937
0.1966515
0.1975296
0.1980968
0.1984752
0.1988743
0.2010225
0.1892424
0.1908928
0.1924501
0.1938333
0.1949816
0.195848
0.1964255
0.1967152
0.1969049
0.1972613
0.1992467
0.1876558
0.1892694
0.1907947
0.1921505
0.1932763
0.1941333
0.1946981
0.1950026
0.1950891
0.1952047
0.1956689
0.1981653
0.1860616
0.1876304
0.1891114
0.1904266
0.1915191
0.1923497
0.1929045
0.1931877
0.1932732
0.1932508
0.1934298
0.1944147
0.1967952
0.1844606
0.1859775
0.1874032
0.1886663
0.1897138
0.1905096
0.1910336
0.1912958
0.1913289
0.1912535
0.1912323
0.1918522
0.1927505
0.1950074
0.1828662
0.1843259
0.185689
0.1868928
0.1878891
0.1886421
0.1891296
0.1893434
0.1893106
0.189096
0.1889128
0.1892671
0.1897552
0.1905294
0.1926577
0.1813021
0.1827032
0.1840025
0.1851471
0.1860931
0.1868046
0.1872525
0.1874143
0.1872719
0.1868423
0.1862712
0.1863896
0.1865658
0.1869132
0.18757
0.1894046
0.1797996
0.1811484
0.1823934
0.1834893
0.1843954
0.1850756
0.185496
0.1856169
0.1853742
0.1846189
0.1829607
0.182708
0.1827173
0.1828529
0.1831547
0.1835838
0.1860854
0.1761974
0.1770247
0.1776342
0.1780959
0.1784134
0.1785465
0.1795855
0.1817287
0.1717754
0.1726673
0.173386
0.1739212
0.1742724
0.1742872
0.1749606
0.1757969
0.1775855
0.1685102
0.1693761
0.1700893
0.1706344
0.1709826
0.1710038
0.1715478
0.1720784
0.1727499
0.1742551
0.1661172
0.1669599
0.1676638
0.1682088
0.1685738
0.1686194
0.1691744
0.1696329
0.1700628
0.1706185
0.1718844
0.1644796
0.1653159
0.166022
0.1665816
0.1669726
0.1670714
0.1676602
0.168173
0.1685838
0.1689577
0.1694069
0.1705611
0.1923808
0.1940596
0.1956224
0.1970039
0.1981485
0.1990009
0.1996076
0.2001095
0.2022084
0.1907271
0.1923774
0.1939177
0.1952806
0.1964045
0.197248
0.1977671
0.1980535
0.198276
0.2002317
0.1891498
0.1907779
0.1923051
0.1936577
0.1947777
0.1956155
0.1961557
0.1963821
0.1964568
0.1966289
0.1984692
0.1876041
0.1892062
0.1907156
0.192055
0.1931654
0.1940069
0.1945524
0.1948269
0.1948622
0.1949005
0.1952739
0.1977437
0.1860616
0.1876304
0.1891114
0.1904266
0.1915191
0.1923497
0.1929045
0.1931877
0.1932732
0.1932508
0.1934298
0.1944147
0.1967952
0.1845094
0.186037
0.1874774
0.1887557
0.1898172
0.190627
0.191168
0.1914565
0.1915335
0.1915246
0.1915842
0.1922684
0.1932278
0.1955069
0.1829486
0.1844277
0.1858165
0.1870462
0.1880662
0.1888423
0.1893588
0.1896202
0.1896734
0.189603
0.189607
0.1900998
0.1907202
0.1916104
0.1937891
0.1813924
0.1828175
0.1841472
0.1853211
0.1862928
0.187029
0.1875086
0.1877286
0.1877086
0.187529
0.1873647
0.1877373
0.1881223
0.188645
0.1894457
0.1913641
0.179864
0.1812335
0.1825027
0.1836204
0.1845445
0.1852411
0.1856832
0.1858496
0.1857286
0.1853304
0.1848143
0.1849499
0.1851642
0.1854366
0.1858705
0.1864432
0.1891426
0.1783943
0.1797141
0.1809316
0.1820031
0.1828893
0.1835562
0.1839714
0.1840983
0.1838755
0.1831655
0.1815891
0.1813891
0.1814343
0.1816248
0.1818794
0.1821264
0.1833578
0.1858316
0.175028
0.1758677
0.176512
0.1770096
0.1773912
0.1775141
0.1783511
0.1793745
0.1814939
0.1707101
0.1716168
0.1723604
0.1729426
0.1733478
0.1734548
0.1741105
0.1747723
0.1755936
0.1773614
0.1675086
0.1683871
0.1691255
0.1697077
0.170117
0.1702164
0.1708389
0.1713734
0.1718925
0.1725495
0.1739902
0.1651506
0.1660048
0.1667291
0.1673081
0.1677208
0.1678444
0.168463
0.1690098
0.1694588
0.1698774
0.1703771
0.1716177
0.1635267
0.1643722
0.1650951
0.1656811
0.1661132
0.166272
0.1669216
0.1675031
0.1680076
0.168409
0.1687326
0.1691612
0.1703597
0.1906485
0.1922725
0.1937817
0.1951158
0.1962151
0.1970345
0.19752
0.1977306
0.1977691
0.1993484
0.1890457
0.1906453
0.192136
0.193453
0.1945409
0.1953472
0.195845
0.1959925
0.1958986
0.1957373
0.1971248
0.1875144
0.189095
0.1905756
0.1918859
0.1929693
0.1937841
0.1942957
0.1945133
0.1944443
0.194307
0.1944544
0.1968253
0.1860114
0.1875691
0.1890349
0.1903344
0.1914121
0.1922281
0.1927649
0.1930202
0.1930592
0.1929649
0.1930569
0.1939745
0.1963275
0.1845094
0.186037
0.1874774
0.1887557
0.1898172
0.190627
0.191168
0.1914565
0.1915335
0.1915246
0.1915842
0.1922684
0.1932278
0.1955069
0.1829961
0.1844855
0.1858886
0.1871328
0.1881664
0.1889559
0.1894887
0.1897753
0.1898699
0.1898626
0.1899418
0.1904933
0.191172
0.1921143
0.194305
0.1814727
0.1829166
0.1842713
0.1854701
0.1864647
0.1872231
0.1877306
0.1879963
0.1880587
0.1880166
0.1880295
0.1885308
0.1890363
0.1896687
0.1905597
0.1924965
0.1799521
0.1813449
0.1826436
0.1837896
0.1847387
0.185459
0.1859318
0.1861542
0.1861511
0.1859929
0.1858661
0.186241
0.186649
0.1870788
0.1876465
0.1883266
0.191101
0.1784571
0.1797971
0.1810381
0.1821307
0.1830345
0.1837172
0.1841534
0.1843243
0.1842189
0.1838535
0.1833765
0.183545
0.1837782
0.1840905
0.1844561
0.1848334
0.1862144
0.1888823
0.1770182
0.1783108
0.1795026
0.1805512
0.1814189
0.1820731
0.1824834
0.182615
0.1824105
0.1817377
0.1802381
0.1800747
0.1801655
0.1803896
0.1806993
0.1809122
0.1819175
0.1831332
0.1855795
0.1738592
0.1747096
0.1753739
0.1759122
0.1763358
0.1765363
0.17733
0.1781553
0.1791631
0.1812589
0.1696423
0.1705567
0.1713204
0.1719331
0.1723917
0.1725655
0.1732866
0.1739326
0.1745827
0.1753889
0.1770888
0.1665021
0.1673892
0.1681444
0.1687568
0.169209
0.1693806
0.1700585
0.1706727
0.1711976
0.1717051
0.1723052
0.1737188
0.1641793
0.1650414
0.165781
0.1663846
0.1668365
0.1670175
0.167694
0.1683053
0.1688438
0.1692832
0.1696512
0.17013
0.1714146
0.1625705
0.1634223
0.1641577
0.1647645
0.1652276
0.1654361
0.1661276
0.1667705
0.1673446
0.1678409
0.1681957
0.1685022
0.1689741
0.1702227
0.1889697
0.190544
0.1920049
0.1932945
0.1943591
0.1951438
0.1956115
0.1956959
0.1954308
0.1947804
0.1945913
0.1874136
0.1889667
0.1904123
0.1916885
0.1927415
0.1935269
0.1939998
0.1941458
0.1939247
0.193473
0.1931068
0.1951966
0.1859244
0.1874613
0.1888994
0.190171
0.191223
0.1920137
0.1925186
0.1927212
0.1926642
0.1924071
0.1922847
0.193042
0.1953021
0.1844606
0.1859775
0.1874032
0.1886663
0.1897138
0.1905096
0.1910336
0.1912958
0.1913289
0.1912535
0.1912323
0.1918522
0.1927505
0.1950074
0.1829961
0.1844855
0.1858886
0.1871328
0.1881664
0.1889559
0.1894887
0.1897753
0.1898699
0.1898626
0.1899418
0.1904933
0.191172
0.1921143
0.194305
0.181519
0.1829729
0.1843413
0.1855542
0.1865619
0.1873332
0.1878564
0.1881461
0.1882484
0.1882661
0.1883502
0.1889056
0.1894642
0.1901467
0.1910788
0.193013
0.1800305
0.1814415
0.1827644
0.1839346
0.1849057
0.1856475
0.1861471
0.1864136
0.1864897
0.1864633
0.1865055
0.1870011
0.1875206
0.1880493
0.1887033
0.1894482
0.1922333
0.1785432
0.1799058
0.1811755
0.1822956
0.1832234
0.1839291
0.1843949
0.18462
0.1846284
0.1844943
0.184391
0.1847868
0.1852008
0.1856576
0.1861413
0.1866204
0.188099
0.1908391
0.1770797
0.1783919
0.1796065
0.1806756
0.1815604
0.1822299
0.1826605
0.1828348
0.1827439
0.1824043
0.181966
0.1821536
0.1824196
0.1827519
0.183159
0.1834825
0.1846228
0.185987
0.1886236
0.1756696
0.1769366
0.1781042
0.1791314
0.1799818
0.180624
0.1810294
0.1811652
0.1809765
0.1803377
0.1789037
0.1787751
0.178896
0.1791623
0.1795049
0.1797807
0.1807158
0.1817099
0.1829099
0.1853289
0.1726965
0.1735511
0.1742326
0.1747961
0.1752652
0.1755184
0.1763612
0.1771455
0.1779591
0.1789514
0.180974
0.1685747
0.1694935
0.1702697
0.1709076
0.1714023
0.1716402
0.1724046
0.1731174
0.1737537
0.174392
0.1751398
0.1768094
0.1654939
0.1663861
0.1671538
0.1677875
0.1682749
0.1684992
0.1692289
0.1698994
0.1705052
0.1710204
0.1714767
0.172055
0.1735119
0.1632061
0.1640732
0.164824
0.1654469
0.165928
0.1661568
0.1668725
0.1675423
0.1681463
0.1686764
0.1690691
0.1694198
0.1699418
0.1712764
0.1616133
0.1624688
0.1632136
0.1638365
0.1643245
0.1645718
0.1652964
0.1659819
0.1666181
0.1671849
0.1676375
0.1679775
0.168327
0.168847
0.1701525
0.1864432
0.1873399
0.1888687
0.1902857
0.1915357
0.1925666
0.1933316
0.1937775
0.1938653
0.1934903
0.1925799
0.1907334
0.1922206
0.1858264
0.1873369
0.1887413
0.1899803
0.1910033
0.1917661
0.1922347
0.1923707
0.1921719
0.191623
0.191017
0.1914575
0.1934887
0.184376
0.1858728
0.1872719
0.1885081
0.189531
0.1903027
0.1907963
0.1910088
0.1909513
0.1907239
0.1905031
0.1909719
0.1917299
0.1939112
0.1829486
0.1844277
0.1858165
0.1870462
0.1880662
0.1888423
0.1893588
0.1896202
0.1896734
0.189603
0.189607
0.1900998
0.1907202
0.1916104
0.1937891
0.181519
0.1829729
0.1843413
0.1855542
0.1865619
0.1873332
0.1878564
0.1881461
0.1882484
0.1882661
0.1883502
0.1889056
0.1894642
0.1901467
0.1910788
0.193013
0.1800756
0.1814964
0.1828326
0.1840164
0.1850001
0.1857544
0.1862692
0.1865588
0.1866731
0.1867041
0.1868139
0.1873602
0.1879284
0.1885024
0.1891965
0.1899711
0.1927497
0.1786197
0.18
0.1812932
0.1824367
0.183386
0.1841123
0.1846042
0.1848718
0.1849566
0.1849493
0.1850078
0.1855179
0.1860359
0.1865836
0.1871441
0.1876869
0.1892219
0.191971
0.1771638
0.178498
0.1797406
0.1808364
0.1817445
0.1824362
0.1828956
0.1831223
0.1831415
0.1830252
0.1829469
0.1833513
0.183788
0.1842535
0.1847677
0.1851796
0.1864117
0.1878725
0.1905785
0.1757297
0.1770159
0.1782058
0.1792529
0.1801197
0.1807769
0.181202
0.1813792
0.1813007
0.1809846
0.1805772
0.1807846
0.1810695
0.1814342
0.1818617
0.1822351
0.1832848
0.1844136
0.185761
0.1883667
0.1743471
0.1755898
0.1767347
0.1777417
0.1785758
0.1792068
0.1796075
0.1797466
0.1795722
0.1789636
0.1775893
0.1774875
0.1776365
0.1779295
0.1783128
0.1786272
0.1795942
0.1805206
0.1815037
0.182688
0.1850277
0.1715414
0.1723978
0.1730896
0.1736747
0.1741729
0.1744804
0.175351
0.1761858
0.1769606
0.1777626
0.1786947
0.1806821
0.1675098
0.1684302
0.1692153
0.1698703
0.1703949
0.1706783
0.1714856
0.1722426
0.1729471
0.1735737
0.1741599
0.1748848
0.1765964
0.1644863
0.1653811
0.1661576
0.1668077
0.167321
0.1675891
0.1683529
0.1690759
0.169739
0.1703364
0.1708044
0.1712429
0.1718646
0.1733712
0.1622329
0.1631027
0.1638617
0.1644995
0.165004
0.1652698
0.1660166
0.1667263
0.1673894
0.1679859
0.1684722
0.16885
0.1692436
0.1698139
0.1712055
0.1606566
0.1615141
0.1622656
0.1629012
0.1634091
0.1636884
0.1644366
0.1651556
0.1658349
0.1664645
0.1669899
0.1674295
0.1678116
0.168208
0.168782
0.1814498
0.1835648
0.1859329
0.1857549
0.187242
0.1886187
0.1898326
0.1908345
0.1915781
0.1920211
0.1921033
0.1917593
0.1907825
0.1887863
0.1887044
0.190378
0.1842808
0.1857521
0.1871186
0.1883235
0.1893185
0.1900636
0.1905228
0.1906719
0.1904807
0.1899781
0.1893052
0.1894786
0.1899894
0.1919932
0.1828662
0.1843259
0.185689
0.1868928
0.1878891
0.1886421
0.1891296
0.1893434
0.1893106
0.189096
0.1889128
0.1892671
0.1897552
0.1905294
0.1926577
0.1814727
0.1829166
0.1842713
0.1854701
0.1864647
0.1872231
0.1877306
0.1879963
0.1880587
0.1880166
0.1880295
0.1885308
0.1890363
0.1896687
0.1905597
0.1924965
0.1800756
0.1814964
0.1828326
0.1840164
0.1850001
0.1857544
0.1862692
0.1865588
0.1866731
0.1867041
0.1868139
0.1873602
0.1879284
0.1885024
0.1891965
0.1899711
0.1927497
0.1786638
0.1800536
0.1813597
0.1825164
0.1834779
0.1842163
0.1847228
0.1850128
0.1851344
0.1851821
0.1853053
0.1858632
0.1864267
0.1870157
0.1876121
0.1881849
0.1897454
0.1924872
0.1772386
0.17859
0.1798554
0.180974
0.1819028
0.1826146
0.1830991
0.1833671
0.1834601
0.1834661
0.1835433
0.1840566
0.1845912
0.1851408
0.1857248
0.1861926
0.18748
0.1889964
0.1917097
0.175812
0.1771197
0.1783367
0.1794098
0.1802993
0.180978
0.1814309
0.181659
0.1816872
0.1815873
0.1815274
0.1819426
0.1823892
0.1828785
0.1834034
0.1838557
0.1849841
0.1862041
0.1876471
0.1903192
0.1744059
0.1756673
0.176834
0.1778604
0.1787105
0.179356
0.1797757
0.1799551
0.1798878
0.1795923
0.1792128
0.1794337
0.1797375
0.1801203
0.1805796
0.1809794
0.1820475
0.1830885
0.1842058
0.1855365
0.1880578
0.1730487
0.1742689
0.1753923
0.1763804
0.177199
0.1778195
0.1782155
0.1783575
0.1781959
0.1776147
0.1762941
0.1762159
0.1763855
0.1767031
0.1771114
0.1774704
0.178449
0.1794088
0.1803267
0.1812987
0.182421
0.1847191
0.1703954
0.1712514
0.1719504
0.1725496
0.1730729
0.173417
0.1743197
0.1751833
0.1760101
0.1767755
0.1775244
0.1784318
0.1804596
0.1664494
0.1673693
0.16816
0.168828
0.169374
0.1696956
0.1705293
0.1713301
0.1720797
0.1727757
0.1733545
0.1739223
0.1746905
0.1764514
0.1634809
0.1643764
0.1651589
0.1658214
0.1663553
0.166657
0.1674478
0.1682055
0.1689218
0.1695774
0.1701306
0.1705834
0.171065
0.1717351
0.173299
0.1612612
0.1621321
0.1628967
0.1635461
0.1640692
0.1643656
0.1651341
0.1658753
0.1665789
0.1672352
0.1677903
0.1682634
0.1686834
0.169124
0.1697485
0.1597015
0.1605598
0.161316
0.1619614
0.1624854
0.1627912
0.1635572
0.1643002
0.1650136
0.1656868
0.1662771
0.1667907
0.1672714
0.1676991
0.1681471
0.1779987
0.1791031
0.181203
0.1820521
0.1831201
0.1851725
0.1842112
0.1856599
0.1869998
0.1881805
0.1891554
0.189882
0.1903169
0.1904147
0.1900864
0.1891774
0.1871946
0.1868874
0.1871176
0.1888707
0.1827736
0.1842085
0.1855401
0.1867136
0.1876832
0.1884107
0.1888651
0.1890185
0.188858
0.188382
0.1877712
0.1878538
0.1881123
0.1886974
0.190695
0.1813924
0.1828175
0.1841472
0.1853211
0.1862928
0.187029
0.1875086
0.1877286
0.1877086
0.187529
0.1873647
0.1877373
0.1881223
0.188645
0.1894457
0.1913641
0.1800305
0.1814415
0.1827644
0.1839346
0.1849057
0.1856475
0.1861471
0.1864136
0.1864897
0.1864633
0.1865055
0.1870011
0.1875206
0.1880493
0.1887033
0.1894482
0.1922333
0.1786638
0.1800536
0.1813597
0.1825164
0.1834779
0.1842163
0.1847228
0.1850128
0.1851344
0.1851821
0.1853053
0.1858632
0.1864267
0.1870157
0.1876121
0.1881849
0.1897454
0.1924872
0.1772817
0.1786423
0.1799203
0.1810517
0.1819923
0.1827158
0.1832145
0.1835041
0.1836327
0.1836917
0.183831
0.1843897
0.1849671
0.1855549
0.1861713
0.1866656
0.1879789
0.1895204
0.1922255
0.1758852
0.1772096
0.1784488
0.1795441
0.1804537
0.1811519
0.1816293
0.1818972
0.181997
0.1820152
0.1821053
0.1826245
0.183164
0.183732
0.1843206
0.1848229
0.1859989
0.187274
0.1887718
0.1914492
0.1744865
0.1757689
0.176962
0.1780136
0.1788858
0.1795522
0.179999
0.1802278
0.1802641
0.1801781
0.1801349
0.1805554
0.1810134
0.1815133
0.1820626
0.1825327
0.1836703
0.1847895
0.1859977
0.1874228
0.1900069
0.1731064
0.1743449
0.1754894
0.1764965
0.1773307
0.1779652
0.1783798
0.178561
0.1785034
0.1782265
0.1778715
0.178104
0.1784203
0.1788208
0.1792974
0.179733
0.1808002
0.1818613
0.1828935
0.1839994
0.1852666
0.1877413
0.1717737
0.1729721
0.1740755
0.1750456
0.1758499
0.1764602
0.1768518
0.1769964
0.1768463
0.1762899
0.1750183
0.1749602
0.1751473
0.1754821
0.175913
0.1763003
0.1772993
0.1782718
0.1792246
0.1801339
0.1810521
0.1821477
0.1844838
0.1692594
0.1701134
0.1708169
0.1714269
0.1719672
0.172343
0.1732622
0.1741587
0.1750153
0.1758341
0.1765511
0.1772806
0.1782316
0.1803081
0.1653948
0.1663126
0.1671066
0.1677839
0.1683468
0.1686971
0.1695517
0.1703794
0.1711735
0.1719157
0.1725671
0.1731303
0.1737415
0.1745584
0.1763771
0.1624792
0.1633739
0.16416
0.1648319
0.165382
0.1657114
0.1665202
0.1673053
0.1680569
0.1687665
0.1693803
0.1699201
0.1704153
0.1709442
0.1716688
0.1602921
0.1611629
0.1619313
0.1625894
0.1631276
0.1634491
0.164234
0.1649973
0.1657328
0.1664302
0.1670472
0.1675903
0.1681047
0.1685704
0.1690629
0.1587488
0.159607
0.1603665
0.1610194
0.1615565
0.1618844
0.1626638
0.163425
0.1641627
0.1648704
0.165506
0.1660855
0.1666393
0.1671641
0.1676416
0.1757621
0.1759942
0.1778059
0.1778538
0.1788817
0.1807433
0.1808194
0.1816371
0.1824526
0.184288
0.1827058
0.1841188
0.1854247
0.1865749
0.1875251
0.1882349
0.188666
0.1887704
0.1884785
0.1876154
0.1857585
0.1854
0.1854059
0.1858099
0.1875985
0.1813021
0.1827032
0.1840025
0.1851471
0.1860931
0.1868046
0.1872525
0.1874143
0.1872719
0.1868423
0.1862712
0.1863896
0.1865658
0.1869132
0.18757
0.1894046
0.1799521
0.1813449
0.1826436
0.1837896
0.1847387
0.185459
0.1859318
0.1861542
0.1861511
0.1859929
0.1858661
0.186241
0.186649
0.1870788
0.1876465
0.1883266
0.191101
0.1786197
0.18
0.1812932
0.1824367
0.183386
0.1841123
0.1846042
0.1848718
0.1849566
0.1849493
0.1850078
0.1855179
0.1860359
0.1865836
0.1871441
0.1876869
0.1892219
0.191971
0.1772817
0.1786423
0.1799203
0.1810517
0.1819923
0.1827158
0.1832145
0.1835041
0.1836327
0.1836917
0.183831
0.1843897
0.1849671
0.1855549
0.1861713
0.1866656
0.1879789
0.1895204
0.1922255
0.1759273
0.1772607
0.1785122
0.1796199
0.180541
0.1812505
0.1817416
0.1820306
0.1821647
0.1822342
0.182384
0.1829466
0.1835265
0.1841303
0.1847486
0.1852744
0.1864728
0.1877736
0.1892963
0.1919646
0.1745582
0.1758568
0.1770717
0.1781448
0.1790365
0.1797219
0.1801924
0.1804599
0.1805656
0.1805941
0.1806957
0.181216
0.1817625
0.1823366
0.1829449
0.1834597
0.1846393
0.185806
0.1870687
0.1885481
0.1911352
0.1731853
0.1744443
0.1756146
0.1766463
0.177502
0.1781568
0.1785977
0.178827
0.1788701
0.1787967
0.1787676
0.1791924
0.1796561
0.1801675
0.1807277
0.1812272
0.1823556
0.1834859
0.1845961
0.1857923
0.1871529
0.1896869
0.1718303
0.1730465
0.1741707
0.1751592
0.1759786
0.1766026
0.1770124
0.1771951
0.1771463
0.176886
0.176553
0.1767946
0.1771213
0.1775332
0.1780262
0.1784823
0.1795611
0.1806223
0.1816762
0.1826998
0.1837513
0.1849902
0.1875
0.1705199
0.1716987
0.1727826
0.1737361
0.1745265
0.1751275
0.1755148
0.1756616
0.175522
0.1749884
0.1737615
0.173721
0.1739224
0.1742715
0.1747176
0.1751299
0.1761355
0.1771293
0.1780959
0.1790416
0.1799022
0.1807998
0.1819395
0.1843237
0.1681342
0.1689849
0.1696909
0.1703086
0.1708623
0.171261
0.1721935
0.1731072
0.1739974
0.1748471
0.1756208
0.1763215
0.1770951
0.1780955
0.1802304
0.1643468
0.1652614
0.1660568
0.1667409
0.1673167
0.1676905
0.1685579
0.1694069
0.1702286
0.1710161
0.1717161
0.1723538
0.1729597
0.1736186
0.1744908
0.1614817
0.1623747
0.1631629
0.1638417
0.1644046
0.1647567
0.1655787
0.1663823
0.1671618
0.1679072
0.168577
0.1691788
0.1697601
0.1703012
0.1708824
0.1593261
0.160196
0.1609669
0.1616317
0.1621818
0.1625244
0.1633213
0.1641013
0.1648593
0.1655892
0.1662489
0.166855
0.1674384
0.167997
0.1685126
0.1577989
0.1586563
0.1594181
0.160077
0.1606247
0.1609711
0.1617604
0.1625353
0.1632916
0.164024
0.1646957
0.1653213
0.16594
0.1665366
0.1671094
0.1746555
0.1739704
0.1755836
0.1749253
0.1758177
0.1774266
0.1768418
0.1776474
0.1784678
0.1801063
0.17968
0.1804278
0.1810151
0.1816701
0.18334
0.1812361
0.1826159
0.1838903
0.1850123
0.1859396
0.1866341
0.1870596
0.1871742
0.1869058
0.1861047
0.1843436
0.1840489
0.1840012
0.1841883
0.1846962
0.1863408
0.179864
0.1812335
0.1825027
0.1836204
0.1845445
0.1852411
0.1856832
0.1858496
0.1857286
0.1853304
0.1848143
0.1849499
0.1851642
0.1854366
0.1858705
0.1864432
0.1891426
0.1785432
0.1799058
0.1811755
0.1822956
0.1832234
0.1839291
0.1843949
0.18462
0.1846284
0.1844943
0.184391
0.1847868
0.1852008
0.1856576
0.1861413
0.1866204
0.188099
0.1908391
0.1772386
0.17859
0.1798554
0.180974
0.1819028
0.1826146
0.1830991
0.1833671
0.1834601
0.1834661
0.1835433
0.1840566
0.1845912
0.1851408
0.1857248
0.1861926
0.18748
0.1889964
0.1917097
0.1759273
0.1772607
0.1785122
0.1796199
0.180541
0.1812505
0.1817416
0.1820306
0.1821647
0.1822342
0.182384
0.1829466
0.1835265
0.1841303
0.1847486
0.1852744
0.1864728
0.1877736
0.1892963
0.1919646
0.1745994
0.1759068
0.1771336
0.1782189
0.1791218
0.1798181
0.1803019
0.1805898
0.1807288
0.1808069
0.1809662
0.1815281
0.1821131
0.1827208
0.1833566
0.1838925
0.1850918
0.1862807
0.187569
0.1890728
0.1916497
0.1732555
0.1745304
0.1757219
0.1767746
0.1776492
0.1783225
0.1787865