/*--------------------------------*- C++ -*----------------------------------*\
| =========                 |                                                 |
| \\      /  F ield         | OpenFOAM: The Open Source CFD Toolbox           |
|  \\    /   O peration     | Version:  2306                                  |
|   \\  /    A nd           | Website:  www.openfoam.com                      |
|    \\/     M anipulation  |                                                 |
\*---------------------------------------------------------------------------*/
FoamFile
{
    version     2.0;
    format      ascii;
    arch        "LSB;label=32;scalar=64";
    class       volScalarField;
    location    "1.5/air";
    object      diffSp.O2;
}
// * * * * * * * * * * * * * * * * * * * * * * * * * * * * * * * * * * * * * //

dimensions      [0 2 -1 0 0 0 0];

internalField   nonuniform List<scalar> 
16000
(
0.0002203566
0.0002162636
0.000225173
0.0002161938
0.0002140285
0.0002241161
0.0002064183
0.0002263889
0.0002241
0.0002138978
0.0002127697
0.0002232052
0.0002004606
0.0002259497
0.0002209944
0.0002003649
0.0002273791
0.0002259662
0.0002231702
0.0002125656
0.0002121882
0.0002225371
0.0001969387
0.0002255567
0.0002182907
0.0001915645
0.0002271685
0.0002246776
0.0002182475
0.0001966842
0.0002282494
0.0002271978
0.0002255841
0.0002224735
0.0002118865
0.0002121882
0.0002221835
0.0001952853
0.0002252567
0.0002162976
0.0001861515
0.0002269845
0.0002235057
0.0002139011
0.0001859397
0.0002281327
0.0002265994
0.0002235125
0.0002161735
0.0001947791
0.0002290401
0.000228165
0.000227037
0.0002252921
0.000222081
0.0002117523
0.0001309572
0.0002127697
0.0002221835
0.0001952853
0.0002250936
0.0002152403
0.0001835523
0.0002268453
0.0002226026
0.0002106673
0.0001791538
0.0002280352
0.0002260614
0.0002215999
0.0002105529
0.0001829642
0.0002289648
0.0002278487
0.0002260889
0.0002226065
0.0002149947
0.000194418
0.0002297643
0.000228996
0.0002280937
0.0002269212
0.0002251376
0.0002220379
0.0002121547
0.0001309423
0.0001314845
0.0001312974
0.0002140285
0.0002225371
0.0001969387
0.0002250936
0.0002152403
0.0001835523
0.0002267698
0.0002221094
0.0002089446
0.0001758447
0.0002279634
0.0002256482
0.0002201103
0.0002063362
0.0001753933
0.0002289048
0.0002275726
0.0002252202
0.0002200988
0.0002086357
0.0001823941
0.000229708
0.0002288022
0.0002276062
0.0002257074
0.0002221078
0.000214849
0.0001955844
0.0002304343
0.0002297369
0.0002289618
0.0002280495
0.0002268737
0.0002251536
0.0002223594
0.0002131771
0.0001309098
0.0001314815
0.0001312762
0.0001320036
0.0001317978
0.0001316401
0.0002162636
0.0002232052
0.0002004606
0.0002252567
0.0002162976
0.0001861515
0.0002267698
0.0002221094
0.0002089446
0.0001758447
0.0002279251
0.0002254224
0.0002192926
0.00020408
0.00017167
0.0002288621
0.0002273654
0.0002245439
0.0002181287
0.0002038408
0.0001746637
0.0002296648
0.0002286388
0.0002271712
0.0002245794
0.0002192582
0.0002083849
0.0001842181
0.0002303877
0.0002295974
0.0002286724
0.0002274418
0.0002255262
0.0002221176
0.0002157775
0.0001984639
0.0002310563
0.000230414
0.0002297176
0.0002289464
0.0002280444
0.0002269114
0.0002253521
0.0002230329
0.0002150703
0.0001308473
0.0001314761
0.0001312265
0.0001320033
0.0001317949
0.0001316138
0.0001324867
0.0001322804
0.0001321114
0.0001319872
0.0002203566
0.0002241161
0.0002064183
0.0002255567
0.0002182907
0.0001915645
0.0002268453
0.0002226026
0.0002106673
0.0001791538
0.0002279251
0.0002254224
0.0002192926
0.00020408
0.00017167
0.0002288398
0.0002272536
0.0002241715
0.0002170419
0.0002012675
0.0001708544
0.0002296349
0.0002285197
0.0002268394
0.0002236911
0.0002170063
0.0002035023
0.0001769647
0.0002303528
0.0002294835
0.0002284227
0.0002268904
0.0002242609
0.00021925
0.0002098637
0.0001886404
0.0002310153
0.000230301
0.000229515
0.0002285973
0.0002273902
0.0002255969
0.0002226672
0.0002177249
0.0002035565
0.0002316363
0.0002310392
0.0002304008
0.0002297133
0.000228957
0.0002280873
0.0002270428
0.0002257279
0.0002240383
0.0002185562
0.0001306807
0.0001314704
0.0001311205
0.0001320041
0.0001317901
0.0001315509
0.0001324874
0.000132282
0.0001321085
0.0001319573
0.0001329307
0.0001327294
0.0001325569
0.0001324264
0.0001323363
0.000225173
0.0002161938
0.0002259497
0.0002209944
0.0002003649
0.0002269845
0.0002235057
0.0002139011
0.0001859397
0.0002279634
0.0002256482
0.0002201103
0.0002063362
0.0001753933
0.0002288398
0.0002272536
0.0002241715
0.0002170419
0.0002012675
0.0001708544
0.0002296196
0.0002284566
0.0002266589
0.0002231987
0.0002157599
0.0002008792
0.000173405
0.000230329
0.0002294028
0.0002282375
0.0002264643
0.0002232561
0.0002169764
0.0002054013
0.0001824793
0.0002309849
0.0002302106
0.0002293457
0.0002282909
0.0002267888
0.0002243517
0.0002201196
0.0002129587
0.0001961818
0.0002315991
0.0002309406
0.0002302395
0.000229476
0.0002285962
0.0002274781
0.00022594
0.0002237192
0.0002205586
0.0002120554
0.0002321783
0.0002316208
0.0002310285
0.0002304005
0.0002297287
0.0002289991
0.000228185
0.0002272724
0.0002262827
0.0002254173
0.0001295227
0.000131485
0.0001308519
0.0001320102
0.0001317871
0.0001314184
0.0001324899
0.0001322878
0.0001321036
0.0001318864
0.0001329316
0.0001327323
0.00013256
0.0001324233
0.0001323045
0.0001333427
0.0001331436
0.0001329714
0.0001328337
0.0001327398
5.604881e-05
0.0002263889
0.0002241
0.0002138978
0.0002271685
0.0002246776
0.0002182475
0.0001966842
0.0002280352
0.0002260614
0.0002215999
0.0002105529
0.0001829642
0.0002288621
0.0002273654
0.0002245439
0.0002181287
0.0002038408
0.0001746637
0.0002296196
0.0002284566
0.0002266589
0.0002231987
0.0002157599
0.0002008792
0.000173405
0.000230317
0.0002293609
0.0002281386
0.0002262306
0.0002226963
0.0002157157
0.0002030055
0.0001794838
0.0002309645
0.0002301478
0.0002292239
0.0002280605
0.0002263187
0.0002233561
0.0002180945
0.0002093675
0.0001916612
0.0002315716
0.0002308627
0.0002301076
0.0002292747
0.0002282748
0.0002269094
0.0002248793
0.0002217821
0.000217387
0.0002079962
0.000232144
0.0002315316
0.0002308889
0.000230215
0.0002294928
0.0002286846
0.0002277202
0.0002265481
0.0002251952
0.0002240951
0.0001281398
0.0002326859
0.0002321638
0.0002316113
0.0002310293
0.0002304166
0.0002297678
0.0002290781
0.0002283456
0.0002276211
0.0002271127
0.0001317464
0.0001299546
0.0001320572
0.0001318079
0.0001311207
0.0001324993
0.0001323072
0.0001320999
0.0001317426
0.0001329346
0.0001327411
0.0001325692
0.0001324178
0.0001322303
0.0001333436
0.0001331468
0.0001329762
0.0001328377
0.0001327366
5.603506e-05
0.0001337249
0.0001335304
0.0001333559
0.0001332134
0.000133108
5.621396e-05
5.60581e-05
0.0002273791
0.0002259662
0.0002231702
0.0002125656
0.0002281327
0.0002265994
0.0002235125
0.0002161735
0.0001947791
0.0002289048
0.0002275726
0.0002252202
0.0002200988
0.0002086357
0.0001823941
0.0002296349
0.0002285197
0.0002268394
0.0002236911
0.0002170063
0.0002035023
0.0001769647
0.000230317
0.0002293609
0.0002281386
0.0002262306
0.0002226963
0.0002157157
0.0002030055
0.0001794838
0.0002309542
0.0002301156
0.00022916
0.0002279363
0.0002260592
0.0002227992
0.0002169703
0.0002074415
0.0001894874
0.0002315532
0.000230809
0.0002300146
0.0002291279
0.0002280299
0.0002264592
0.0002240224
0.0002202292
0.0002149819
0.0002055094
0.0002321187
0.0002314613
0.0002307761
0.0002300615
0.0002292899
0.0002283983
0.0002272703
0.0002258104
0.0002240481
0.0002227093
0.0001270469
0.0002326541
0.0002320814
0.0002314852
0.0002308703
0.0002302369
0.0002295759
0.0002288744
0.0002281237
0.0002274067
0.0002270359
0.0001315851
0.0001288651
0.0002331621
0.0002326722
0.0002321548
0.0002316122
0.0002310446
0.0002304524
0.0002298354
0.0002292035
0.0002285972
0.0002282064
0.0001325444
0.0001319363
0.0001304131
0.0001325528
0.0001323839
0.0001321127
0.0001314538
0.0001329444
0.0001327661
0.0001325949
0.0001324114
0.0001320866
0.0001333466
0.0001331562
0.0001329894
0.0001328488
0.0001327301
5.600321e-05
0.0001337258
0.0001335336
0.000133361
0.0001332195
0.0001331125
5.621255e-05
5.604435e-05
0.0001340814
0.0001338913
0.0001337174
0.0001335679
0.0001334526
5.636364e-05
5.622221e-05
5.606728e-05
0.0002282494
0.0002271978
0.0002255841
0.0002224735
0.0002118865
0.0002289648
0.0002278487
0.0002260889
0.0002226065
0.0002149947
0.000194418
0.0002296648
0.0002286388
0.0002271712
0.0002245794
0.0002192582
0.0002083849
0.0001842181
0.000230329
0.0002294028
0.0002282375
0.0002264643
0.0002232561
0.0002169764
0.0002054013
0.0001824793
0.0002309542
0.0002301156
0.00022916
0.0002279363
0.0002260592
0.0002227992
0.0002169703
0.0002074415
0.0001894874
0.000231544
0.0002307818
0.0002299666
0.0002290504
0.0002278968
0.0002262089
0.0002235406
0.0002193642
0.0002136894
0.0002043108
0.0002321017
0.0002314132
0.0002306977
0.0002299521
0.0002291401
0.0002281761
0.000226905
0.0002251953
0.0002230936
0.000221606
0.0001263144
0.0002326305
0.0002320167
0.0002313839
0.0002307404
0.0002300865
0.0002294068
0.0002286754
0.0002278661
0.0002270701
0.0002266929
0.0001313138
0.0001279554
0.0002331324
0.0002325955
0.0002320385
0.000231469
0.0002308923
0.0002303132
0.0002297355
0.000229178
0.000228703
0.0002285356
0.0001326764
0.0001318228
0.0001295567
0.0002336094
0.0002331491
0.0002326637
0.0002321556
0.0002316263
0.0002310772
0.000230512
0.0002299407
0.0002294039
0.000229057
0.0001330729
0.0001326949
0.0001321652
0.0001308953
0.0001329965
0.0001328548
0.0001326721
0.0001324119
0.0001318255
0.0001333559
0.0001331816
0.0001330227
0.0001328753
0.0001327198
5.594296e-05
0.0001337285
0.0001335426
0.0001333749
0.0001332352
0.0001331239
5.620952e-05
5.601254e-05
0.0001340822
0.0001338943
0.0001337224
0.0001335744
0.0001334594
5.636561e-05
5.622081e-05
5.605355e-05
0.0001344143
0.0001342298
0.000134057
0.0001339042
0.0001337773
5.650429e-05
5.637086e-05
5.623036e-05
5.607658e-05
0.0002290401
0.000228165
0.000227037
0.0002252921
0.000222081
0.0002117523
0.000229708
0.0002288022
0.0002276062
0.0002257074
0.0002221078
0.000214849
0.0001955844
0.0002303528
0.0002294835
0.0002284227
0.0002268904
0.0002242609
0.00021925
0.0002098637
0.0001886404
0.0002309645
0.0002301478
0.0002292239
0.0002280605
0.0002263187
0.0002233561
0.0002180945
0.0002093675
0.0001916612
0.000231544
0.0002307818
0.0002299666
0.0002290504
0.0002278968
0.0002262089
0.0002235406
0.0002193642
0.0002136894
0.0002043108
0.0002320933
0.0002313889
0.0002306575
0.0002298953
0.0002290603
0.0002280538
0.0002266991
0.0002248445
0.000222554
0.0002210017
0.0001259487
0.0002326148
0.0002319725
0.0002313138
0.0002306493
0.0002299783
0.0002292792
0.0002285127
0.0002276363
0.0002267464
0.0002263393
0.0001310707
0.0001273299
0.0002331104
0.0002325353
0.0002319453
0.0002313529
0.000230767
0.0002301943
0.000229637
0.0002291113
0.0002286768
0.0002285784
0.0001326752
0.0001316159
0.0001288137
0.0002335816
0.0002330774
0.0002325553
0.0002320235
0.0002314896
0.000230962
0.000230453
0.0002299852
0.0002296193
0.0002295061
0.0001332903
0.0001328186
0.0001320769
0.0001302286
0.0002340299
0.0002335971
0.000233141
0.0002326642
0.0002321684
0.000231656
0.0002311309
0.0002306042
0.000230111
0.0002297892
0.000133492
0.0001331995
0.0001328741
0.0001324201
0.0001313906
0.0001334042
0.0001332687
0.0001331148
0.0001329406
0.0001327079
5.583845e-05
0.000133737
0.0001335667
0.0001334089
0.0001332706
0.0001331476
5.620421e-05
5.595253e-05
0.0001340847
0.0001339027
0.0001337359
0.000133591
0.000133476
5.637037e-05
5.621776e-05
5.60218e-05
0.000134415
0.0001342326
0.0001340617
0.0001339105
0.0001337845
5.650728e-05
5.637284e-05
5.622895e-05
5.606287e-05
0.0001347261
0.0001345475
0.0001343776
0.0001342225
0.0001340883
5.66376e-05
5.651061e-05
5.637797e-05
5.62386e-05
5.608567e-05
0.0002297643
0.000228996
0.0002280937
0.0002269212
0.0002251376
0.0002220379
0.0002121547
0.0002303877
0.0002295974
0.0002286724
0.0002274418
0.0002255262
0.0002221176
0.0002157775
0.0001984639
0.0002309849
0.0002302106
0.0002293457
0.0002282909
0.0002267888
0.0002243517
0.0002201196
0.0002129587
0.0001961818
0.0002315532
0.000230809
0.0002300146
0.0002291279
0.0002280299
0.0002264592
0.0002240224
0.0002202292
0.0002149819
0.0002055094
0.0002320933
0.0002313889
0.0002306575
0.0002298953
0.0002290603
0.0002280538
0.0002266991
0.0002248445
0.000222554
0.0002210017
0.0001259487
0.0002326069
0.0002319502
0.0002312781
0.0002306024
0.0002299217
0.0002292101
0.0002284207
0.0002275012
0.0002265519
0.0002261257
0.0001309316
0.0001270142
0.0002330957
0.0002324942
0.000231881
0.0002312719
0.0002306784
0.0002301067
0.0002295562
0.0002290366
0.0002286033
0.0002285276
0.0001326335
0.000131425
0.000128291
0.000233561
0.0002330211
0.0002324686
0.0002319167
0.0002313781
0.0002308655
0.0002303948
0.0002299897
0.000229708
0.0002296828
0.0001333814
0.0001328348
0.0001319185
0.0001296351
0.0002340039
0.0002335299
0.0002330396
0.000232541
0.0002320423
0.0002315533
0.0002310874
0.0002306697
0.0002303514
0.000230254
0.0001337252
0.0001333914
0.000132977
0.0001323458
0.0001308837
0.0002344255
0.0002340183
0.0002335893
0.0002331413
0.0002326759
0.0002321957
0.0002317048
0.0002312136
0.0002307542
0.0002304466
0.0001338592
0.0001336017
0.0001333493
0.0001330712
0.0001326874
5.567528e-05
0.000133781
0.0001336479
0.0001335005
0.0001333523
0.0001331962
5.619641e-05
5.584893e-05
0.0001340924
0.000133925
0.0001337682
0.0001336276
0.0001335093
5.637953e-05
5.621237e-05
5.596203e-05
0.0001344172
0.0001342403
0.0001340744
0.0001339267
0.0001338022
5.651433e-05
5.637758e-05
5.62259e-05
5.60312e-05
0.0001347267
0.00013455
0.000134382
0.0001342286
0.0001340955
5.664081e-05
5.65136e-05
5.637996e-05
5.62372e-05
5.607198e-05
0.0001350186
0.0001348464
0.0001346801
0.0001345252
0.0001343855
5.676617e-05
5.664316e-05
5.651683e-05
5.638517e-05
5.624662e-05
3.661436e-05
0.0002304343
0.0002297369
0.0002289618
0.0002280495
0.0002268737
0.0002251536
0.0002223594
0.0002131771
0.0002310153
0.000230301
0.000229515
0.0002285973
0.0002273902
0.0002255969
0.0002226672
0.0002177249
0.0002035565
0.0002315716
0.0002308627
0.0002301076
0.0002292747
0.0002282748
0.0002269094
0.0002248793
0.0002217821
0.000217387
0.0002079962
0.0002321017
0.0002314132
0.0002306977
0.0002299521
0.0002291401
0.0002281761
0.000226905
0.0002251953
0.0002230936
0.000221606
0.0001263144
0.0002326069
0.0002319502
0.0002312781
0.0002306024
0.0002299217
0.0002292101
0.0002284207
0.0002275012
0.0002265519
0.0002261257
0.0001309316
0.0001270142
0.0002330884
0.0002324735
0.0002318483
0.0002312305
0.0002306325
0.0002300602
0.0002295104
0.0002289888
0.0002285488
0.00022848
0.0001326011
0.0001313143
0.0001280242
0.0002335473
0.0002329827
0.0002324088
0.0002318425
0.0002312999
0.0002307958
0.0002303469
0.0002299744
0.0002297305
0.0002297443
0.0001334148
0.0001328121
0.0001317702
0.0001292092
0.0002339846
0.0002334772
0.0002329584
0.0002324416
0.0002319398
0.0002314681
0.0002310448
0.0002306983
0.0002304751
0.0002304691
0.0001338436
0.0001334825
0.0001330007
0.0001322241
0.0001304244
0.0002344011
0.0002339553
0.0002334943
0.0002330259
0.0002325582
0.0002321007
0.0002316673
0.0002312811
0.0002309889
0.0002308888
0.0001340841
0.0001338052
0.0001335074
0.0001331496
0.0001326218
5.548836e-05
0.0002347978
0.0002344146
0.000234011
0.0002335895
0.000233152
0.000232701
0.0002322404
0.0002317801
0.0002313485
0.0002310532
0.0001341936
0.0001339559
0.0001337308
0.0001335129
0.000133275
5.618264e-05
5.568838e-05
0.0001341323
0.0001339994
0.0001338543
0.0001337102
0.0001335747
5.639649e-05
5.62043e-05
5.585937e-05
0.0001344242
0.0001342608
0.0001341045
0.0001339619
0.0001338373
5.652775e-05
5.638663e-05
5.622042e-05
5.597171e-05
0.0001347288
0.0001345572
0.0001343938
0.0001342438
0.0001341127
5.664837e-05
5.652065e-05
5.638468e-05
5.623413e-05
5.604039e-05
0.0001350191
0.0001348488
0.0001346843
0.0001345308
0.0001343923
5.676933e-05
5.664637e-05
5.651982e-05
5.638716e-05
5.624522e-05
3.660548e-05
0.0001352934
0.0001351279
0.0001349662
0.0001348126
0.0001346704
5.688969e-05
5.677108e-05
5.664862e-05
5.652312e-05
5.639216e-05
3.671838e-05
3.66222e-05
0.0002310563
0.000230414
0.0002297176
0.0002289464
0.0002280444
0.0002269114
0.0002253521
0.0002230329
0.0002150703
0.0002315991
0.0002309406
0.0002302395
0.000229476
0.0002285962
0.0002274781
0.00022594
0.0002237192
0.0002205586
0.0002120554
0.0002321187
0.0002314613
0.0002307761
0.0002300615
0.0002292899
0.0002283983
0.0002272703
0.0002258104
0.0002240481
0.0002227093
0.0001270469
0.0002326148
0.0002319725
0.0002313138
0.0002306493
0.0002299783
0.0002292792
0.0002285127
0.0002276363
0.0002267464
0.0002263393
0.0001310707
0.0001273299
0.0002330884
0.0002324735
0.0002318483
0.0002312305
0.0002306325
0.0002300602
0.0002295104
0.0002289888
0.0002285488
0.00022848
0.0001326011
0.0001313143
0.0001280242
0.0002335404
0.0002329633
0.0002323784
0.0002318046
0.0002312596
0.0002307592
0.0002303199
0.0002299606
0.0002297307
0.0002297605
0.000133424
0.000132791
0.0001316834
0.0001289894
0.0002339717
0.0002334412
0.0002329025
0.0002323726
0.0002318681
0.0002314072
0.0002310102
0.0002307045
0.0002305302
0.0002305684
0.0001339021
0.000133521
0.0001329907
0.0001321105
0.0001300892
0.000234383
0.0002339058
0.0002334182
0.0002329328
0.0002324626
0.0002320223
0.000231631
0.0002313152
0.0002311174
0.0002311049
0.0001342057
0.0001339174
0.0001335914
0.0001331739
0.0001325288
5.531801e-05
0.0002347749
0.0002343555
0.0002339218
0.0002334813
0.0002330416
0.0002326119
0.0002322052
0.0002318433
0.0002315672
0.0002314619
0.0001344024
0.0001341516
0.0001338985
0.0001336362
0.0001333288
5.615569e-05
5.550481e-05
0.0002351481
0.0002347875
0.0002344077
0.000234011
0.0002335994
0.0002331752
0.0002327423
0.0002323095
0.0002319029
0.0002316184
0.0001345057
0.0001342798
0.0001340692
0.0001338714
0.0001336807
5.64208e-05
5.619004e-05
5.570136e-05
0.0001344605
0.0001343287
0.0001341838
0.0001340403
0.0001339052
5.655191e-05
5.640317e-05
5.621208e-05
5.586999e-05
0.0001347351
0.000134576
0.0001344216
0.0001342768
0.0001341469
5.666269e-05
5.653396e-05
5.639361e-05
5.622857e-05
5.59812e-05
0.000135021
0.0001348555
0.0001346952
0.0001345451
0.0001344087
5.677677e-05
5.665393e-05
5.652686e-05
5.639186e-05
5.624214e-05
3.6585e-05
0.0001352939
0.0001351301
0.0001349701
0.0001348179
0.0001346768
5.68927e-05
5.677425e-05
5.665184e-05
5.652612e-05
5.639415e-05
3.671747e-05
3.661336e-05
0.0001355519
0.0001353934
0.0001352368
0.0001350859
0.0001349428
5.700867e-05
5.689407e-05
5.677591e-05
5.665415e-05
5.652922e-05
3.681239e-05
3.672539e-05
3.662729e-05
0.0002316363
0.0002310392
0.0002304008
0.0002297133
0.000228957
0.0002280873
0.0002270428
0.0002257279
0.0002240383
0.0002185562
0.000232144
0.0002315316
0.0002308889
0.000230215
0.0002294928
0.0002286846
0.0002277202
0.0002265481
0.0002251952
0.0002240951
0.0001281398
0.0002326305
0.0002320167
0.0002313839
0.0002307404
0.0002300865
0.0002294068
0.0002286754
0.0002278661
0.0002270701
0.0002266929
0.0001313138
0.0001279554
0.0002330957
0.0002324942
0.000231881
0.0002312719
0.0002306784
0.0002301067
0.0002295562
0.0002290366
0.0002286033
0.0002285276
0.0001326335
0.000131425
0.000128291
0.0002335404
0.0002329633
0.0002323784
0.0002318046
0.0002312596
0.0002307592
0.0002303199
0.0002299606
0.0002297307
0.0002297605
0.000133424
0.000132791
0.0001316834
0.0001289894
0.0002339652
0.000233423
0.0002328741
0.0002323374
0.0002318313
0.0002313755
0.0002309907
0.0002307033
0.0002305499
0.0002306072
0.000133926
0.0001335339
0.0001329779
0.0001320438
0.0001299143
0.0002343709
0.0002338721
0.0002333658
0.0002328682
0.0002323958
0.0002319665
0.0002316018
0.0002313278
0.0002311808
0.0002312121
0.0001342703
0.0001339758
0.0001336308
0.0001331717
0.0001324441
5.519263e-05
0.0002347579
0.0002343091
0.0002338505
0.0002333939
0.0002329519
0.0002325385
0.0002321717
0.0002318766
0.0002316896
0.0002316663
0.0001345184
0.0001342653
0.0001339992
0.0001337086
0.0001333497
5.612091e-05
5.533739e-05
0.0002351266
0.0002347322
0.0002343241
0.0002339095
0.0002334957
0.0002330913
0.0002327085
0.000232367
0.0002321038
0.0002319929
0.0001346973
0.0001344615
0.0001342308
0.0001340034
0.000133771
5.643871e-05
5.616324e-05
5.552108e-05
0.0002354777
0.0002351386
0.0002347811
0.0002344078
0.0002340203
0.000233621
0.0002332135
0.0002328061
0.0002324223
0.000232149
0.0001347994
0.0001345833
0.0001343805
0.0001341924
0.0001340149
5.658734e-05
5.642648e-05
5.619734e-05
5.571449e-05
0.0001347682
0.000134638
0.0001344943
0.0001343496
0.0001342124
5.668826e-05
5.655768e-05
5.640972e-05
5.621997e-05
5.588044e-05
0.0001350267
0.0001348728
0.0001347209
0.0001345757
0.000134441
5.679081e-05
5.666816e-05
5.654006e-05
5.640067e-05
5.623649e-05
3.654669e-05
0.0001352956
0.0001351363
0.0001349803
0.0001348312
0.0001346922
5.68998e-05
5.678169e-05
5.665939e-05
5.653314e-05
5.639883e-05
3.671546e-05
3.659299e-05
0.0001355524
0.0001353954
0.0001352404
0.0001350908
0.0001349488
5.701152e-05
5.689709e-05
5.677908e-05
5.665737e-05
5.653222e-05
3.681369e-05
3.67245e-05
3.661848e-05
0.0001357953
0.0001356438
0.0001354928
0.0001353455
0.0001352033
5.712292e-05
5.70126e-05
5.689836e-05
5.67808e-05
5.66595e-05
3.690099e-05
3.681863e-05
3.672986e-05
3.663128e-05
0.0002321783
0.0002316208
0.0002310285
0.0002304005
0.0002297287
0.0002289991
0.000228185
0.0002272724
0.0002262827
0.0002254173
0.0001295227
0.0002326541
0.0002320814
0.0002314852
0.0002308703
0.0002302369
0.0002295759
0.0002288744
0.0002281237
0.0002274067
0.0002270359
0.0001315851
0.0001288651
0.0002331104
0.0002325353
0.0002319453
0.0002313529
0.000230767
0.0002301943
0.000229637
0.0002291113
0.0002286768
0.0002285784
0.0001326752
0.0001316159
0.0001288137
0.0002335473
0.0002329827
0.0002324088
0.0002318425
0.0002312999
0.0002307958
0.0002303469
0.0002299744
0.0002297305
0.0002297443
0.0001334148
0.0001328121
0.0001317702
0.0001292092
0.0002339652
0.000233423
0.0002328741
0.0002323374
0.0002318313
0.0002313755
0.0002309907
0.0002307033
0.0002305499
0.0002306072
0.000133926
0.0001335339
0.0001329779
0.0001320438
0.0001299143
0.0002343648
0.000233855
0.0002333392
0.0002328353
0.0002323616
0.0002319376
0.0002315855
0.0002313307
0.0002312062
0.0002312569
0.0001342985
0.0001340005
0.0001336456
0.0001331649
0.0001323946
5.512684e-05
0.0002347466
0.0002342775
0.0002338013
0.0002333334
0.0002328894
0.0002324865
0.000232145
0.0002318899
0.0002317519
0.0002317704
0.0001345818
0.0001343279
0.0001340544
0.0001337459
0.0001333521
5.609e-05
5.521405e-05
0.0002351107
0.0002346887
0.0002342571
0.0002338275
0.0002334115
0.0002330223
0.0002326766
0.0002323973
0.0002322171
0.000232182
0.0001348051
0.0001345695
0.0001343322
0.0001340892
0.0001338297
5.644646e-05
5.612901e-05
5.535656e-05
0.0002354575
0.0002350867
0.0002347027
0.0002343125
0.0002339229
0.000233542
0.000233181
0.0002328581
0.0002326064
0.0002324921
0.0001349747
0.0001347501
0.000134531
0.0001343205
0.0001341136
5.661936e-05
5.644383e-05
5.617067e-05
5.553743e-05
0.0002357876
0.0002354689
0.0002351326
0.0002347812
0.0002344164
0.0002340404
0.0002336567
0.0002332728
0.0002329104
0.0002326483
0.0001350771
0.0001348696
0.0001346737
0.00013449
0.0001343178
5.672589e-05
5.659206e-05
5.643206e-05
5.620477e-05
5.572738e-05
0.0001350571
0.0001349296
0.0001347876
0.000134643
0.0001345026
5.681577e-05
5.669333e-05
5.656334e-05
5.641635e-05
5.622764e-05
3.648175e-05
0.0001353009
0.0001351524
0.0001350041
0.0001348597
0.0001347225
5.691316e-05
5.679566e-05
5.667351e-05
5.654621e-05
5.640751e-05
3.671175e-05
3.655494e-05
0.0001355539
0.0001354012
0.0001352499
0.0001351033
0.0001349633
5.701822e-05
5.690419e-05
5.678652e-05
5.666491e-05
5.653921e-05
3.681673e-05
3.672251e-05
3.659819e-05
0.0001357957
0.0001356458
0.0001354963
0.0001353502
0.000135209
5.71256e-05
5.701546e-05
5.690139e-05
5.678398e-05
5.666272e-05
3.690294e-05
3.681994e-05
3.672897e-05
3.662249e-05
0.0001360246
0.0001358802
0.0001357352
0.0001355922
0.0001354521
5.723257e-05
5.712646e-05
5.701645e-05
5.690272e-05
5.678552e-05
3.698526e-05
3.690658e-05
3.682253e-05
3.673333e-05
3.663356e-05
0.0001306807
0.0002326859
0.0002321638
0.0002316113
0.0002310293
0.0002304166
0.0002297678
0.0002290781
0.0002283456
0.0002276211
0.0002271127
0.0001317464
0.0001299546
0.0002331324
0.0002325955
0.0002320385
0.000231469
0.0002308923
0.0002303132
0.0002297355
0.000229178
0.000228703
0.0002285356
0.0001326764
0.0001318228
0.0001295567
0.000233561
0.0002330211
0.0002324686
0.0002319167
0.0002313781
0.0002308655
0.0002303948
0.0002299897
0.000229708
0.0002296828
0.0001333814
0.0001328348
0.0001319185
0.0001296351
0.0002339717
0.0002334412
0.0002329025
0.0002323726
0.0002318681
0.0002314072
0.0002310102
0.0002307045
0.0002305302
0.0002305684
0.0001339021
0.000133521
0.0001329907
0.0001321105
0.0001300892
0.0002343648
0.000233855
0.0002333392
0.0002328353
0.0002323616
0.0002319376
0.0002315855
0.0002313307
0.0002312062
0.0002312569
0.0001342985
0.0001340005
0.0001336456
0.0001331649
0.0001323946
5.512684e-05
0.0002347409
0.0002342615
0.0002337763
0.0002333025
0.0002328573
0.0002324595
0.0002321301
0.0002318938
0.0002317777
0.000231815
0.00013461
0.0001343557
0.0001340785
0.000133761
0.0001333495
5.607208e-05
5.51493e-05
0.0002351001
0.000234659
0.000234211
0.0002337707
0.0002333527
0.0002329733
0.0002326514
0.0002324096
0.0002322755
0.0002322796
0.0001348649
0.0001346304
0.0001343904
0.0001341389
0.0001338627
5.644809e-05
5.60987e-05
5.523524e-05
0.0002354426
0.0002350459
0.00023464
0.0002342356
0.0002338438
0.0002334769
0.0002331505
0.0002328853
0.0002327105
0.0002326662
0.0001350743
0.0001348505
0.0001346273
0.0001344069
0.0001341831
5.664138e-05
5.645143e-05
5.613699e-05
5.537576e-05
0.0002357687
0.0002354203
0.0002350592
0.000234692
0.0002343251
0.0002339662
0.0002336257
0.0002333201
0.0002330797
0.0002329635
0.0001352381
0.0001350226
0.0001348123
0.00013461
0.0001344148
5.676151e-05
5.662333e-05
5.644884e-05
5.617822e-05
5.555348e-05
0.0002360787
0.0002357795
0.0002354634
0.0002351328
0.0002347894
0.0002344353
0.0002340739
0.000233712
0.0002333697
0.0002331191
0.0001353403
0.0001351413
0.0001349514
0.0001347718
0.0001346011
5.685247e-05
5.672996e-05
5.659667e-05
5.643774e-05
5.621198e-05
3.638365e-05
0.0001353289
0.0001352048
0.0001350656
0.0001349218
0.0001347799
5.693681e-05
5.682026e-05
5.669828e-05
5.656906e-05
5.642276e-05
3.670585e-05
3.649064e-05
0.0001355588
0.0001354161
0.0001352721
0.0001351298
0.0001349917
5.70308e-05
5.691748e-05
5.68004e-05
5.667893e-05
5.655216e-05
3.68223e-05
3.67188e-05
3.656034e-05
0.0001357972
0.0001356512
0.0001355052
0.0001353619
0.0001352226
5.713191e-05
5.702216e-05
5.690849e-05
5.67914e-05
5.667024e-05
3.690748e-05
3.682298e-05
3.672699e-05
3.660227e-05
0.000136025
0.0001358821
0.0001357385
0.0001355967
0.0001354575
5.723511e-05
5.712916e-05
5.701931e-05
5.690576e-05
5.67887e-05
3.698736e-05
3.690854e-05
3.682383e-05
3.673243e-05
3.662478e-05
0.0001362407
0.0001361035
0.0001359647
0.0001358266
0.0001356896
5.73376e-05
5.723579e-05
5.712993e-05
5.702035e-05
5.690691e-05
3.706684e-05
3.69903e-05
3.690997e-05
3.682548e-05
3.673521e-05
0.0001308473
0.000131485
0.0001308519
0.0002331621
0.0002326722
0.0002321548
0.0002316122
0.0002310446
0.0002304524
0.0002298354
0.0002292035
0.0002285972
0.0002282064
0.0001325444
0.0001319363
0.0001304131
0.0002335816
0.0002330774
0.0002325553
0.0002320235
0.0002314896
0.000230962
0.000230453
0.0002299852
0.0002296193
0.0002295061
0.0001332903
0.0001328186
0.0001320769
0.0001302286
0.0002339846
0.0002334772
0.0002329584
0.0002324416
0.0002319398
0.0002314681
0.0002310448
0.0002306983
0.0002304751
0.0002304691
0.0001338436
0.0001334825
0.0001330007
0.0001322241
0.0001304244
0.0002343709
0.0002338721
0.0002333658
0.0002328682
0.0002323958
0.0002319665
0.0002316018
0.0002313278
0.0002311808
0.0002312121
0.0001342703
0.0001339758
0.0001336308
0.0001331717
0.0001324441
5.519263e-05
0.0002347409
0.0002342615
0.0002337763
0.0002333025
0.0002328573
0.0002324595
0.0002321301
0.0002318938
0.0002317777
0.000231815
0.00013461
0.0001343557
0.0001340785
0.000133761
0.0001333495
5.607208e-05
5.51493e-05
0.0002350947
0.000234644
0.0002341875
0.0002337417
0.0002333226
0.0002329479
0.0002326374
0.0002324132
0.0002323
0.0002323218
0.0001348918
0.0001346579
0.0001344168
0.0001341613
0.0001338771
5.644767e-05
5.608114e-05
5.51715e-05
0.0002354327
0.0002350181
0.0002345967
0.0002341823
0.0002337886
0.0002334309
0.0002331265
0.0002328962
0.0002327643
0.0002327566
0.0001351298
0.0001349078
0.0001346837
0.0001344588
0.0001342259
5.665444e-05
5.645312e-05
5.610727e-05
5.525643e-05
0.0002357547
0.0002353821
0.0002350004
0.0002346199
0.0002342509
0.000233905
0.0002335966
0.0002333446
0.0002331755
0.0002331241
0.00013533
0.0001351153
0.0001349019
0.0001346923
0.0001344853
5.67878e-05
5.6645e-05
5.64563e-05
5.614508e-05
5.539461e-05
0.000236061
0.000235734
0.0002353947
0.0002350493
0.0002347039
0.0002343657
0.0002340445
0.0002337556
0.0002335263
0.0002334102
0.0001354886
0.0001352818
0.0001350789
0.000134883
0.000134693
5.688788e-05
5.676484e-05
5.662722e-05
5.645397e-05
5.618555e-05
3.62724e-05
0.0002363519
0.0002360713
0.0002357745
0.0002354637
0.0002351406
0.0002348072
0.0002344667
0.0002341257
0.0002338025
0.0002335634
0.0001355898
0.0001353991
0.0001352157
0.0001350402
0.0001348713
5.697151e-05
5.685605e-05
5.673393e-05
5.660138e-05
5.644322e-05
3.66954e-05
3.639395e-05
0.0001355848
0.0001354647
0.000135329
0.0001351874
0.0001350451
5.705302e-05
5.694083e-05
5.682464e-05
5.670329e-05
5.657457e-05
3.683197e-05
3.671281e-05
3.64966e-05
0.0001358017
0.0001356651
0.0001355259
0.0001353867
0.0001352492
5.714375e-05
5.703469e-05
5.692171e-05
5.680519e-05
5.668414e-05
3.691583e-05
3.682852e-05
3.672323e-05
3.656461e-05
0.0001360263
0.0001358872
0.0001357469
0.0001356077
0.0001354704
5.724107e-05
5.713547e-05
5.702601e-05
5.691284e-05
5.679611e-05
3.699224e-05
3.691308e-05
3.682686e-05
3.673043e-05
3.660459e-05
0.0001362411
0.0001361052
0.0001359678
0.0001358308
0.0001356947
5.734e-05
5.723834e-05
5.713263e-05
5.702322e-05
5.690995e-05
3.706891e-05
3.699241e-05
3.691193e-05
3.682678e-05
3.67343e-05
0.0001364444
0.0001363143
0.0001361819
0.0001360491
0.000135916
5.74381e-05