/*--------------------------------*- C++ -*----------------------------------*\
| =========                 |                                                 |
| \\      /  F ield         | OpenFOAM: The Open Source CFD Toolbox           |
|  \\    /   O peration     | Version:  2306                                  |
|   \\  /    A nd           | Website:  www.openfoam.com                      |
|    \\/     M anipulation  |                                                 |
\*---------------------------------------------------------------------------*/
FoamFile
{
    version     2.0;
    format      ascii;
    arch        "LSB;label=32;scalar=64";
    class       volScalarField;
    location    "1.5/air";
    object      N2;
}
// * * * * * * * * * * * * * * * * * * * * * * * * * * * * * * * * * * * * * //

dimensions      [0 0 0 0 0 0 0];

internalField   nonuniform List<scalar> 
16000
(
0.7702763
0.7702705
0.7713315
0.7703125
0.7702618
0.7712439
0.7703038
0.7735086
0.7714488
0.7703966
0.7702537
0.7711304
0.7702919
0.7733939
0.7713301
0.7703799
0.7758455
0.7736579
0.7717551
0.7705565
0.7702488
0.7710339
0.770281
0.7732372
0.7711845
0.77036
0.7757283
0.7735085
0.7715926
0.7705211
0.7781632
0.7760009
0.7740303
0.7723228
0.7708497
0.7702488
0.7709798
0.7702746
0.7730982
0.7710654
0.7703425
0.7755675
0.7733131
0.7713948
0.770482
0.7780495
0.7758495
0.7738393
0.7721141
0.7707802
0.7803941
0.7783141
0.7763857
0.7746921
0.7732204
0.7713834
0.8104604
0.7702537
0.7709798
0.7702746
0.7730182
0.771
0.7703326
0.7754242
0.7731442
0.7712359
0.7704523
0.7778936
0.7756504
0.7735925
0.7718543
0.7707003
0.7802861
0.7781676
0.776195
0.7744623
0.7729697
0.7712703
0.7825207
0.7805382
0.7786868
0.7770628
0.7756988
0.7745004
0.7722884
0.8090654
0.8120418
0.8106812
0.7702618
0.7710339
0.770281
0.7730182
0.771
0.7703326
0.7753415
0.7730482
0.7711497
0.7704364
0.7777548
0.7754774
0.7733814
0.771641
0.7706384
0.780138
0.7779752
0.7759478
0.7741645
0.7726494
0.7711245
0.7824183
0.7803991
0.7785037
0.7768386
0.7754358
0.7742095
0.7721286
0.7845443
0.7826573
0.780894
0.7793403
0.7780798
0.7770945
0.7762278
0.7737338
0.8062483
0.8107923
0.8092912
0.8124451
0.8122437
0.8111219
0.7702705
0.7711304
0.7702919
0.7730982
0.7710654
0.7703425
0.7753415
0.7730482
0.7711497
0.7704364
0.7776748
0.7753789
0.7732625
0.7715243
0.7706054
0.7800062
0.7778082
0.7757351
0.7739096
0.7723805
0.7710017
0.782278
0.7802167
0.7782666
0.776547
0.7750923
0.7738346
0.7719105
0.7844472
0.7825254
0.7807205
0.7791269
0.7778302
0.7768026
0.7758846
0.7734929
0.7864725
0.7846739
0.7829943
0.7815169
0.7803167
0.7794684
0.778914
0.7784779
0.7759777
0.8019074
0.8082745
0.8064918
0.8112858
0.810998
0.8097408
0.8126217
0.812631
0.8126469
0.8117813
0.7702763
0.7712439
0.7703038
0.7732372
0.7711845
0.77036
0.7754242
0.7731442
0.7712359
0.7704523
0.7776748
0.7753789
0.7732625
0.7715243
0.7706054
0.7799301
0.7777132
0.7756147
0.7737661
0.7722313
0.7709333
0.7821531
0.7800582
0.7780629
0.776296
0.7747966
0.7735164
0.7717212
0.7843142
0.7823526
0.7804961
0.7788502
0.7775028
0.7764173
0.7754382
0.7731632
0.7863802
0.7845489
0.78283
0.7813155
0.7800817
0.779199
0.7785883
0.7780493
0.7755258
0.7883141
0.7865956
0.7849937
0.7835842
0.7824461
0.7816422
0.781248
0.7811902
0.7813462
0.7794966
0.7956392
0.8044115
0.8022184
0.8089505
0.8084943
0.8069708
0.8115398
0.811475
0.8114078
0.8104109
0.8128205
0.8127949
0.8130023
0.8132503
0.8126579
0.7713315
0.7703125
0.7733939
0.7713301
0.7703799
0.7755675
0.7733131
0.7713948
0.770482
0.7777548
0.7754774
0.7733814
0.771641
0.7706384
0.7799301
0.7777132
0.7756147
0.7737661
0.7722313
0.7709333
0.7820811
0.779968
0.7779476
0.7761539
0.7746296
0.7733381
0.7716138
0.7841958
0.7822026
0.7803033
0.7786123
0.7772194
0.7760836
0.7750577
0.7728813
0.7862538
0.784385
0.7826176
0.7810544
0.7797744
0.7788414
0.7781551
0.7774981
0.7749796
0.7882261
0.7864768
0.7848379
0.7833936
0.782225
0.7813909
0.7809539
0.7807991
0.7807222
0.7784096
0.7900771
0.7884314
0.7868996
0.7855536
0.7844638
0.7837049
0.7833314
0.7834362
0.7839789
0.7850176
0.7854404
0.7988771
0.7962803
0.8053697
0.8046868
0.8027977
0.8093609
0.8091523
0.8089271
0.8076738
0.8118037
0.811716
0.811852
0.8120189
0.8112981
0.8131445
0.8129831
0.8131407
0.8135581
0.8140528
0.8139227
0.7735086
0.7714488
0.7703966
0.7757283
0.7735085
0.7715926
0.7705211
0.7778936
0.7756504
0.7735925
0.7718543
0.7707003
0.7800062
0.7778082
0.7757351
0.7739096
0.7723805
0.7710017
0.7820811
0.779968
0.7779476
0.7761539
0.7746296
0.7733381
0.7716138
0.7841276
0.7821172
0.7801943
0.7784778
0.7770584
0.7758946
0.774844
0.7727233
0.7861412
0.7842429
0.7824353
0.7808302
0.7795089
0.7785298
0.7777793
0.7770342
0.7745498
0.7881056
0.786321
0.7846365
0.7831467
0.7819361
0.7810584
0.7805599
0.7802865
0.7799833
0.7774376
0.789993
0.7883181
0.7867514
0.7853727
0.7842547
0.7834691
0.7830583
0.7830848
0.7834137
0.7838408
0.782289
0.7917686
0.7901892
0.7887212
0.7874318
0.7863886
0.7856552
0.7853058
0.7853983
0.786076
0.7874342
0.7900098
0.7884073
0.8002441
0.7994292
0.7972357
0.8060209
0.805622
0.8052014
0.8036004
0.809756
0.8095485
0.8095498
0.8095635
0.8085904
0.8121845
0.811969
0.8120669
0.8124144
0.8128288
0.8125738
0.8135632
0.813298
0.8133078
0.8136583
0.8142974
0.8152111
0.8141834
0.7758455
0.7736579
0.7717551
0.7705565
0.7780495
0.7758495
0.7738393
0.7721141
0.7707802
0.780138
0.7779752
0.7759478
0.7741645
0.7726494
0.7711245
0.7821531
0.7800582
0.7780629
0.776296
0.7747966
0.7735164
0.7717212
0.7841276
0.7821172
0.7801943
0.7784778
0.7770584
0.7758946
0.774844
0.7727233
0.7860764
0.7841619
0.7823322
0.7807033
0.7793584
0.7783523
0.7775665
0.7767759
0.7743198
0.7879983
0.7861858
0.7844637
0.7829348
0.7816867
0.7807694
0.780216
0.7798492
0.7793935
0.7767773
0.7898778
0.7881696
0.7865599
0.7851387
0.7839816
0.7831574
0.7826939
0.7826214
0.7827376
0.782743
0.7806229
0.791688
0.7900809
0.7885798
0.7872596
0.78619
0.785432
0.7850499
0.7850717
0.7855613
0.786354
0.7870838
0.7846972
0.7933947
0.7918759
0.790466
0.7892286
0.7882257
0.7875197
0.7871702
0.787261
0.7878835
0.7893099
0.7920427
0.7925184
0.790715
0.8012424
0.8007509
0.8002575
0.7983472
0.8066176
0.8062552
0.8060937
0.8059178
0.8045931
0.8102513
0.809932
0.809918
0.8101342
0.8103947
0.8098904
0.8126526
0.8123405
0.8122983
0.8125904
0.8131598
0.8139941
0.8128367
0.8140662
0.8137088
0.8136046
0.8137939
0.814347
0.8153647
0.8154499
0.8144464
0.7781632
0.7760009
0.7740303
0.7723228
0.7708497
0.7802861
0.7781676
0.776195
0.7744623
0.7729697
0.7712703
0.782278
0.7802167
0.7782666
0.776547
0.7750923
0.7738346
0.7719105
0.7841958
0.7822026
0.7803033
0.7786123
0.7772194
0.7760836
0.7750577
0.7728813
0.7860764
0.7841619
0.7823322
0.7807033
0.7793584
0.7783523
0.7775665
0.7767759
0.7743198
0.7879365
0.7861089
0.784366
0.7828151
0.7815453
0.7806051
0.7800202
0.7796042
0.779075
0.7764482
0.7897754
0.7880408
0.7863956
0.7849378
0.7837462
0.7828867
0.7823766
0.7822241
0.7821937
0.7819631
0.7796613
0.7915777
0.7899389
0.7883972
0.7870369
0.7859309
0.7851374
0.7847083
0.7846425
0.7849444
0.7853451
0.7854241
0.7826727
0.7933174
0.7917721
0.7903308
0.7890643
0.7880365
0.7873076
0.7869276
0.7869543
0.7874025
0.7883103
0.7893357
0.7891208
0.7868314
0.7949607
0.7934977
0.792141
0.7909509
0.7899858
0.7893017
0.7889586
0.7890209
0.7896083
0.7909225
0.7936005
0.7943546
0.7944823
0.7926036
0.8021287
0.801713
0.8015103
0.8012288
0.799539
0.8072887
0.8068372
0.8066931
0.8067501
0.8068077
0.8059397
0.8108192
0.8104173
0.8102785
0.8104615
0.8108977
0.8115757
0.8101583
0.8131998
0.8128006
0.8126515
0.8127897
0.8132843
0.8142324
0.8142343
0.8131019
0.8146273
0.8142048
0.8139996
0.8140637
0.8144406
0.8153413
0.8155848
0.8156907
0.8147116
0.7803941
0.7783141
0.7763857
0.7746921
0.7732204
0.7713834
0.7824183
0.7803991
0.7785037
0.7768386
0.7754358
0.7742095
0.7721286
0.7843142
0.7823526
0.7804961
0.7788502
0.7775028
0.7764173
0.7754382
0.7731632
0.7861412
0.7842429
0.7824353
0.7808302
0.7795089
0.7785298
0.7777793
0.7770342
0.7745498
0.7879365
0.7861089
0.784366
0.7828151
0.7815453
0.7806051
0.7800202
0.7796042
0.779075
0.7764482
0.7897163
0.7879675
0.7863027
0.7848243
0.7836128
0.7827327
0.7821964
0.7820006
0.7818987
0.7815642
0.7792119
0.7914796
0.7898159
0.7882406
0.7868459
0.7857076
0.7848817
0.7844111
0.7842755
0.7844474
0.7846264
0.7844145
0.7815333
0.7932116
0.7916362
0.7901563
0.7888518
0.7877898
0.7870278
0.7866043
0.7865512
0.7868278
0.7873783
0.7877998
0.7871679
0.7845729
0.7948864
0.7933981
0.7920115
0.7907937
0.7898051
0.7890993
0.7887277
0.7887297
0.7891552
0.7899846
0.79108
0.7912069
0.7909356
0.7887009
0.796471
0.7950597
0.7937521
0.7926055
0.7916747
0.7910126
0.7906712
0.7907171
0.791244
0.7924761
0.7949508
0.7957513
0.7961597
0.7961021
0.7941983
0.8030518
0.8025697
0.8024179
0.8023994
0.8022788
0.8009743
0.8080095
0.8074958
0.8072476
0.8073026
0.8075653
0.8080198
0.8062167
0.8114552
0.8109765
0.8107443
0.8107883
0.8111715
0.8119827
0.811819
0.8104282
0.8138004
0.8133407
0.8130955
0.8131154
0.8134412
0.814283
0.8144535
0.8144765
0.8133692
0.8152334
0.8147596
0.8144817
0.8144351
0.8146746
0.8153744
0.8155463
0.8158067
0.8159336
0.8149791
0.7825207
0.7805382
0.7786868
0.7770628
0.7756988
0.7745004
0.7722884
0.7844472
0.7825254
0.7807205
0.7791269
0.7778302
0.7768026
0.7758846
0.7734929
0.7862538
0.784385
0.7826176
0.7810544
0.7797744
0.7788414
0.7781551
0.7774981
0.7749796
0.7879983
0.7861858
0.7844637
0.7829348
0.7816867
0.7807694
0.780216
0.7798492
0.7793935
0.7767773
0.7897163
0.7879675
0.7863027
0.7848243
0.7836128
0.7827327
0.7821964
0.7820006
0.7818987
0.7815642
0.7792119
0.7914231
0.7897458
0.7881521
0.7867379
0.7855811
0.7847365
0.7842423
0.7840696
0.7841773
0.7842579
0.7839277
0.7810106
0.7931174
0.7915183
0.7900066
0.7886695
0.7875772
0.786785
0.7863234
0.7862067
0.7863662
0.786715
0.7868644
0.7860188
0.7832977
0.7947846
0.7932677
0.7918443
0.7905904
0.7895695
0.7888325
0.7884203
0.7883476
0.7886138
0.7891119
0.7896524
0.7893959
0.788789
0.7863084
0.7963994
0.7949639
0.7936277
0.7924548
0.7915016
0.790819
0.7904507
0.7904397
0.7908136
0.7915908
0.7925828
0.7928177
0.7928699
0.7925339
0.7903242
0.7979296
0.7965662
0.7953042
0.7941978
0.793299
0.7926566
0.7923201
0.7923462
0.7928304
0.7939622
0.7962769
0.7969692
0.7974287
0.7976442
0.7974822
0.7957733
0.8039913
0.8034674
0.8032302
0.8032427
0.8033591
0.8035537
0.8012681
0.8087817
0.8082056
0.8078827
0.8078188
0.8080595
0.8086755
0.8082692
0.8064953
0.8121353
0.8116049
0.8112865
0.8112254
0.8114543
0.8121805
0.8122062
0.8120642
0.8107002
0.8144424
0.8139348
0.8136213
0.8135356
0.8137306
0.8143788
0.8144889
0.8146765
0.8147207
0.8136388
0.8158706
0.81536
0.8150239
0.8148962
0.8150146
0.8155565
0.8155669
0.815753
0.8160304
0.8161785
0.8153054
0.7845443
0.7826573
0.780894
0.7793403
0.7780798
0.7770945
0.7762278
0.7737338
0.7863802
0.7845489
0.78283
0.7813155
0.7800817
0.779199
0.7785883
0.7780493
0.7755258
0.7881056
0.786321
0.7846365
0.7831467
0.7819361
0.7810584
0.7805599
0.7802865
0.7799833
0.7774376
0.7897754
0.7880408
0.7863956
0.7849378
0.7837462
0.7828867
0.7823766
0.7822241
0.7821937
0.7819631
0.7796613
0.7914231
0.7897458
0.7881521
0.7867379
0.7855811
0.7847365
0.7842423
0.7840696
0.7841773
0.7842579
0.7839277
0.7810106
0.7930631
0.7914513
0.789922
0.7885666
0.7874568
0.7866471
0.786164
0.7860133
0.7861158
0.7863749
0.7864129
0.7854764
0.7827165
0.7946941
0.7931545
0.7917008
0.7904161
0.7893665
0.7886011
0.7881531
0.7880214
0.788179
0.7884921
0.7887842
0.7883292
0.7875309
0.7849428
0.7963015
0.7948385
0.7934672
0.7922599
0.7912761
0.7905638
0.7901571
0.7900757
0.7902997
0.7907669
0.7912427
0.7911314
0.7908763
0.7902732
0.7878728
0.7978607
0.7964741
0.7951846
0.7940531
0.793133
0.7924711
0.7921089
0.7920809
0.7924202
0.7931215
0.7940406
0.7942123
0.7943607
0.7943304
0.7939295
0.791936
0.7993401
0.7980215
0.7968017
0.7957327
0.7948636
0.7942401
0.7939076
0.7939202
0.7943608
0.7954155
0.797566
0.7981808
0.7985422
0.7988064
0.7989047
0.7988595
0.796093
0.8049584
0.8043851
0.8040899
0.8040028
0.8041326
0.8045226
0.8038147
0.8015624
0.8095838
0.8089682
0.8085723
0.8084214
0.8085282
0.8090904
0.8089039
0.80852
0.8067757
0.8128495
0.8122781
0.8118998
0.8117426
0.811854
0.8124009
0.8123884
0.8124315
0.8123114
0.8109744
0.8151122
0.814571
0.8142026
0.8140401
0.814119
0.8146159
0.814572
0.8146965
0.8149013
0.814967
0.8139677
0.8165307
0.8159919
0.8156129
0.8154195
0.8154478
0.8158513
0.8157383
0.815761
0.8159615
0.8162561
0.8164773
0.8156392
0.7864725
0.7846739
0.7829943
0.7815169
0.7803167
0.7794684
0.778914
0.7784779
0.7759777
0.7882261
0.7864768
0.7848379
0.7833936
0.782225
0.7813909
0.7809539
0.7807991
0.7807222
0.7784096
0.7898778
0.7881696
0.7865599
0.7851387
0.7839816
0.7831574
0.7826939
0.7826214
0.7827376
0.782743
0.7806229
0.7914796
0.7898159
0.7882406
0.7868459
0.7857076
0.7848817
0.7844111
0.7842755
0.7844474
0.7846264
0.7844145
0.7815333
0.7930631
0.7914513
0.789922
0.7885666
0.7874568
0.7866471
0.786164
0.7860133
0.7861158
0.7863749
0.7864129
0.7854764
0.7827165
0.794642
0.7930902
0.7916198
0.7903177
0.7892515
0.7884697
0.7880016
0.7878384
0.7879431
0.7881748
0.7883652
0.7878251
0.7869427
0.784321
0.7962143
0.7947298
0.7933295
0.7920929
0.7910818
0.7903426
0.7899021
0.7897651
0.7898874
0.790182
0.7904287
0.790139
0.7897064
0.7889403
0.7864613
0.7977662
0.7963533
0.7950302
0.7938659
0.7929166
0.7922265
0.7918278
0.791733
0.7919305
0.7923393
0.7927749
0.7926282
0.7925022
0.7922279
0.791614
0.7894855
0.7992735
0.7979326
0.7966865
0.7955935
0.794704
0.794062
0.7937049
0.7936659
0.7939685
0.7946147
0.7954437
0.795577
0.7956583
0.7957141
0.795601
0.7953232
0.7922632
0.8007055
0.7994287
0.7982484
0.7972143
0.7963729
0.7957673
0.7954398
0.7954395
0.7958458
0.7968269
0.7988441
0.7993708
0.799664
0.7998331
0.7999746
0.8001572
0.7991392
0.7964107
0.805935
0.8053328
0.8049748
0.8048181
0.8048362
0.8052109
0.8047608
0.8040762
0.801857
0.8104086
0.8097617
0.8093169
0.8090826
0.8090904
0.8094943
0.8093025
0.8091337
0.8087725
0.8070577
0.8135852
0.8129861
0.8125596
0.8123337
0.8123385
0.8127473
0.8125959
0.8125979
0.8126585
0.8125604
0.8113086
0.8158023
0.8152355
0.8148272
0.8146023
0.8145954
0.8149586
0.8147984
0.8147669
0.8149058
0.8151279
0.8152674
0.8143042
0.8172063
0.8166472
0.8162344
0.8159915
0.8159461
0.8162442
0.8160238
0.8159217
0.8159568
0.8161717
0.8165314
0.8167829
0.8158932
0.7883141
0.7865956
0.7849937
0.7835842
0.7824461
0.7816422
0.781248
0.7811902
0.7813462
0.7794966
0.789993
0.7883181
0.7867514
0.7853727
0.7842547
0.7834691
0.7830583
0.7830848
0.7834137
0.7838408
0.782289
0.7915777
0.7899389
0.7883972
0.7870369
0.7859309
0.7851374
0.7847083
0.7846425
0.7849444
0.7853451
0.7854241
0.7826727
0.7931174
0.7915183
0.7900066
0.7886695
0.7875772
0.786785
0.7863234
0.7862067
0.7863662
0.786715
0.7868644
0.7860188
0.7832977
0.794642
0.7930902
0.7916198
0.7903177
0.7892515
0.7884697
0.7880016
0.7878384
0.7879431
0.7881748
0.7883652
0.7878251
0.7869427
0.784321
0.7961641
0.7946679
0.7932517
0.7919985
0.7909718
0.7902171
0.7897575
0.7895909
0.789664
0.7898825
0.7900363
0.7896703
0.7891589
0.788319
0.785818
0.7976822
0.7962486
0.7948979
0.7937055
0.7927302
0.7920145
0.7915837
0.7914362
0.7915376
0.7917842
0.7920061
0.7916967
0.7914122
0.7909864
0.7902399
0.7880704
0.7991823
0.7978161
0.7965378
0.7954134
0.794496
0.7938271
0.7934352
0.7933326
0.7935003
0.7938694
0.7942422
0.7940806
0.7939117
0.7937524
0.7934443
0.7929975
0.7898134
0.8006411
0.7993429
0.7981374
0.7970801
0.7962193
0.7955959
0.7952449
0.7951953
0.7954699
0.7960616
0.7968235
0.7968999
0.79694
0.7969258
0.7968899
0.7968635
0.7956062
0.7925882
0.8020285
0.8007911
0.7996478
0.7986463
0.7978308
0.7972422
0.7969197
0.7969094
0.7972841
0.7982043
0.800099
0.8005609
0.8007763
0.8008807
0.8009269
0.8011334
0.8004115
0.7994172
0.7967263
0.806918
0.8062919
0.8058934
0.8056645
0.8056035
0.8058456
0.8054317
0.8049994
0.8043382
0.8021522
0.8112452
0.8105787
0.8100942
0.8098022
0.8097166
0.8100015
0.809693
0.8095158
0.8093649
0.8090265
0.807401
0.8143358
0.8137161
0.8132553
0.8129735
0.8129007
0.8131855
0.8129314
0.8127925
0.8128091
0.8128873
0.8128642
0.8116507
0.8165057
0.8159207
0.8154811
0.8152096
0.8151323
0.8153945
0.8151317
0.8149824
0.8149634
0.8151168
0.8154045
0.8155746
0.8145602
0.8178925
0.8173184
0.81688
0.8165974
0.8164953
0.8167063
0.8164084
0.8161977
0.8161066
0.8161542
0.8164282
0.8168129
0.8170151
0.8160655
0.7900771
0.7884314
0.7868996
0.7855536
0.7844638
0.7837049
0.7833314
0.7834362
0.7839789
0.7850176
0.7854404
0.791688
0.7900809
0.7885798
0.7872596
0.78619
0.785432
0.7850499
0.7850717
0.7855613
0.786354
0.7870838
0.7846972
0.7932116
0.7916362
0.7901563
0.7888518
0.7877898
0.7870278
0.7866043
0.7865512
0.7868278
0.7873783
0.7877998
0.7871679
0.7845729
0.7946941
0.7931545
0.7917008
0.7904161
0.7893665
0.7886011
0.7881531
0.7880214
0.788179
0.7884921
0.7887842
0.7883292
0.7875309
0.7849428
0.7961641
0.7946679
0.7932517
0.7919985
0.7909718
0.7902171
0.7897575
0.7895909
0.789664
0.7898825
0.7900363
0.7896703
0.7891589
0.788319
0.785818
0.7976338
0.796189
0.7948231
0.7936149
0.7926247
0.7918942
0.7914453
0.7912698
0.7913246
0.7915002
0.7916356
0.7912571
0.7909023
0.7904072
0.7895999
0.7874253
0.7991012
0.7977152
0.7964104
0.7952591
0.7943169
0.7936236
0.7932011
0.7930482
0.7931247
0.7933404
0.7935124
0.7932006
0.7928878
0.7925944
0.7921625
0.7916137
0.788398
0.800553
0.7992305
0.797994
0.7969067
0.7960191
0.79537
0.7949857
0.7948752
0.7950212
0.7953493
0.7956789
0.7954794
0.7952898
0.7950815
0.7948762
0.7946932
0.7932788
0.7901397
0.8019662
0.8007082
0.7995405
0.7985169
0.7976827
0.797077
0.7967321
0.7966745
0.7969231
0.7974714
0.7981692
0.7982084
0.7981913
0.7981342
0.7980259
0.7980559
0.7971197
0.7958874
0.7929112
0.8033119
0.8021114
0.8010029
0.8000319
0.7992409
0.7986682
0.798351
0.7983321
0.7986799
0.7995445
0.8013344
0.8017372
0.8018977
0.8019291
0.8019112
0.8020106
0.8013686
0.8006642
0.7996936
0.79704
0.8078988
0.8072593
0.8068266
0.8065491
0.8064085
0.8065547
0.8060522
0.8056528
0.8052384
0.8046007
0.8025099
0.8120885
0.8114082
0.8108967
0.8105572
0.8104052
0.81058
0.8101889
0.809893
0.8097305
0.8095975
0.8093357
0.8077524
0.815095
0.8144615
0.8139741
0.8136513
0.8135146
0.8137065
0.81336
0.8131169
0.8129905
0.8130218
0.8131663
0.8131748
0.811911
0.8172176
0.8166196
0.8161566
0.8158477
0.8157167
0.815895
0.8155592
0.8153062
0.8151679
0.8151615
0.8153742
0.8156871
0.8158081
0.8147339
0.8185853
0.8180005
0.8175424
0.8172287
0.8170805
0.8172227
0.816863
0.816574
0.8163731
0.816293
0.8163951
0.8166903
0.8170266
0.8171726
0.8161536
0.7956392
0.7917686
0.7901892
0.7887212
0.7874318
0.7863886
0.7856552
0.7853058
0.7853983
0.786076
0.7874342
0.7900098
0.7884073
0.7933174
0.7917721
0.7903308
0.7890643
0.7880365
0.7873076
0.7869276
0.7869543
0.7874025
0.7883103
0.7893357
0.7891208
0.7868314
0.7947846
0.7932677
0.7918443
0.7905904
0.7895695
0.7888325
0.7884203
0.7883476
0.7886138
0.7891119
0.7896524
0.7893959
0.788789
0.7863084
0.7962143
0.7947298
0.7933295
0.7920929
0.7910818
0.7903426
0.7899021
0.7897651
0.7898874
0.790182
0.7904287
0.790139
0.7897064
0.7889403
0.7864613
0.7976338
0.796189
0.7948231
0.7936149
0.7926247
0.7918942
0.7914453
0.7912698
0.7913246
0.7915002
0.7916356
0.7912571
0.7909023
0.7904072
0.7895999
0.7874253
0.7990544
0.7976578
0.7963383
0.795172
0.7942155
0.7935082
0.7930684
0.7928888
0.7929212
0.7930696
0.7931607
0.7927853
0.7924091
0.7920544
0.7915647
0.7909689
0.7877527
0.8004746
0.799133
0.7978711
0.796758
0.7958467
0.7951743
0.7947608
0.7946022
0.7946613
0.7948438
0.7949837
0.794644
0.7943223
0.7939932
0.7936796
0.7933997
0.7918933
0.7887244
0.8018809
0.8005995
0.7994021
0.7983496
0.7974898
0.7968595
0.7964826
0.7963667
0.7964923
0.796789
0.7970758
0.7968554
0.7966248
0.7963915
0.796132
0.7960279
0.7949471
0.7935588
0.7904644
0.8032516
0.8020311
0.8008992
0.7999069
0.7990979
0.7985089
0.7981701
0.7981058
0.7983328
0.7988412
0.7994873
0.7994906
0.7994364
0.7993225
0.7991704
0.7991154
0.7982925
0.7973743
0.7961668
0.793232
0.8045577
0.8033922
0.8023163
0.8013742
0.800606
0.8000486
0.7997367
0.7997105
0.8000344
0.8008504
0.8025453
0.8029014
0.8030124
0.8029937
0.8029051
0.8029318
0.8022306
0.8016024
0.8009153
0.7999683
0.7974171
0.8088746
0.8082258
0.8077705
0.807452
0.8072564
0.8073092
0.8067494
0.8062592
0.8058743
0.8054779
0.8049188
0.802876
0.8129332
0.8122449
0.8117129
0.8113394
0.8111324
0.8112262
0.8107575
0.8103775
0.8100942
0.8099465
0.8098807
0.809652
0.8080199
0.8158586
0.8152159
0.8147093
0.8143537
0.8141688
0.8142835
0.8138725
0.8135358
0.8133038
0.8131902
0.8132813
0.8134515
0.8134109
0.8120877
0.8179343
0.8173273
0.8168465
0.8165087
0.8163339
0.8164464
0.8160522
0.8157253
0.8154822
0.8153549
0.8154032
0.8156373
0.8159018
0.8159664
0.8148227
0.8192819
0.8186895
0.8182163
0.8178778
0.8176927
0.8177779
0.8173726
0.8170211
0.8167409
0.81655
0.8165205
0.8166411
0.8168893
0.8171715
0.817253
0.8019074
0.7988771
0.7962803
0.7933947
0.7918759
0.790466
0.7892286
0.7882257
0.7875197
0.7871702
0.787261
0.7878835
0.7893099
0.7920427
0.7925184
0.790715
0.7948864
0.7933981
0.7920115
0.7907937
0.7898051
0.7890993
0.7887277
0.7887297
0.7891552
0.7899846
0.79108
0.7912069
0.7909356
0.7887009
0.7963015
0.7948385
0.7934672
0.7922599
0.7912761
0.7905638
0.7901571
0.7900757
0.7902997
0.7907669
0.7912427
0.7911314
0.7908763
0.7902732
0.7878728
0.7976822
0.7962486
0.7948979
0.7937055
0.7927302
0.7920145
0.7915837
0.7914362
0.7915376
0.7917842
0.7920061
0.7916967
0.7914122
0.7909864
0.7902399
0.7880704
0.7990544
0.7976578
0.7963383
0.795172
0.7942155
0.7935082
0.7930684
0.7928888
0.7929212
0.7930696
0.7931607
0.7927853
0.7924091
0.7920544
0.7915647
0.7909689
0.7877527
0.8004294
0.7990776
0.7978016
0.7966741
0.7957492
0.7950633
0.7946332
0.7944493
0.7944663
0.7945851
0.7946485
0.7942497
0.7938699
0.7934857
0.7931216
0.7927961
0.7912477
0.7880791
0.8018051
0.8005053
0.7992834
0.7982062
0.7973237
0.796671
0.7962661
0.7961042
0.7961467
0.7963047
0.7964115
0.7960596
0.7957063
0.795363
0.7950069
0.7948192
0.7936514
0.7921719
0.7890497
0.803169
0.801926
0.8007654
0.7997453
0.7989117
0.7982991
0.7979296
0.7978094
0.7979184
0.7981862
0.7984402
0.7981982
0.7979444
0.7976681
0.7973805
0.7972074
0.796262
0.7951997
0.7938373
0.7907876
0.8044992
0.8033145
0.8022159
0.8012532
0.8004679
0.7998948
0.7995621
0.7994923
0.7997
0.8001743
0.8007736
0.8007511
0.8006621
0.8005119
0.8003036
0.8001958
0.7993365
0.7985276
0.7976272
0.7964444
0.7936178
0.8057685
0.8046355
0.8035906
0.8026755
0.8019292
0.8013861
0.8010796
0.8010471
0.8013497
0.802122
0.8037325
0.8040474
0.8041209
0.8040578
0.8039215
0.8038712
0.803139
0.8024492
0.8018347
0.8011649
0.8002987
0.7978032
0.8098415
0.8091885
0.8087156
0.8083684
0.8081265
0.8081127
0.8074936
0.8069445
0.8064665
0.8060962
0.8057681
0.8052443
0.8031548
0.8137761
0.8130836
0.8125375
0.8121372
0.8118894
0.8119156
0.8113951
0.8109362
0.8105672
0.8102966
0.8102094
0.8101702
0.8098926
0.8082015
0.8166235
0.8159751
0.8154542
0.8150737
0.8148498
0.8149043
0.8144419
0.8140398
0.813713
0.8134922
0.8134336
0.8135465
0.8136682
0.8135711
0.8121781
0.8186532
0.8180401
0.8175459
0.8171852
0.8169756
0.8170334
0.8165968
0.8162108
0.8158927
0.8156596
0.8155831
0.8156501
0.8158371
0.8160473
0.8160472
0.8199798
0.8193825
0.8188976
0.8185394
0.8183242
0.8183626
0.8179216
0.8175239
0.8171804
0.8169093
0.8167658
0.8167529
0.8168279
0.817024
0.8172453
0.8062483
0.8044115
0.8022184
0.8002441
0.7994292
0.7972357
0.7949607
0.7934977
0.792141
0.7909509
0.7899858
0.7893017
0.7889586
0.7890209
0.7896083
0.7909225
0.7936005
0.7943546
0.7944823
0.7926036
0.7963994
0.7949639
0.7936277
0.7924548
0.7915016
0.790819
0.7904507
0.7904397
0.7908136
0.7915908
0.7925828
0.7928177
0.7928699
0.7925339
0.7903242
0.7977662
0.7963533
0.7950302
0.7938659
0.7929166
0.7922265
0.7918278
0.791733
0.7919305
0.7923393
0.7927749
0.7926282
0.7925022
0.7922279
0.791614
0.7894855
0.7991012
0.7977152
0.7964104
0.7952591
0.7943169
0.7936236
0.7932011
0.7930482
0.7931247
0.7933404
0.7935124
0.7932006
0.7928878
0.7925944
0.7921625
0.7916137
0.788398
0.8004294
0.7990776
0.7978016
0.7966741
0.7957492
0.7950633
0.7946332
0.7944493
0.7944663
0.7945851
0.7946485
0.7942497
0.7938699
0.7934857
0.7931216
0.7927961
0.7912477
0.7880791
0.8017614
0.8004518
0.7992164
0.7981252
0.7972296
0.796564
0.7961433
0.7959572
0.7959595
0.7960569
0.7960913
0.7956839
0.7952769
0.7948834
0.7944824
0.7942553
0.7930468
0.7915256
0.7884046
0.8030956
0.8018348
0.8006507
0.7996068
0.7987514
0.7981173
0.7977209
0.7975566
0.7975861
0.7977214
0.7978041
0.7974379
0.7970695
0.7966917
0.7963171
0.7960704
0.7950511
0.7939022
0.7924495
0.7893738
0.8044192
0.8032126
0.8020864
0.801097
0.800288
0.7996921
0.7993299
0.7992063
0.7993009
0.7995447
0.799769
0.7995137
0.799237
0.7989363
0.7986045
0.7983923
0.7974259
0.7964948
0.795451
0.7941145
0.7911769
0.8057118
0.8045601
0.8034934
0.8025584
0.8017955
0.8012374
0.8009108
0.8008364
0.8010272
0.8014711
0.8020301
0.801985
0.8018714
0.8016879
0.8014444
0.8012741
0.800404
0.7995561
0.7987611
0.7978784
0.7967782
0.7940127
0.8069454
0.805844
0.8048279
0.8039386
0.8032126
0.8026834
0.802382
0.8023443
0.8026277
0.8033605
0.8048946
0.805175
0.8052163
0.8051205
0.8049426
0.8048397
0.8040673
0.8033448
0.8026664
0.8020655
0.801465
0.8006368
0.798097
0.8107977
0.8101434
0.8096587
0.8092885
0.8090132
0.808943
0.808288
0.8076784
0.8071399
0.8066742
0.8063651
0.8060649
0.8054919
0.8033441
0.8146147
0.813921
0.813365
0.8129448
0.8126642
0.8126383
0.8120766
0.811565
0.811116
0.8107581
0.810543
0.8104782
0.8103903
0.8100557
0.8082944
0.8173873
0.8167358
0.8162046
0.8158047
0.8155501
0.8155547
0.8150558
0.8146016
0.8142085
0.8138916
0.8137219
0.8136823
0.8137479
0.8138151
0.8136529
0.819372
0.8187554
0.818251
0.8178721
0.8176343
0.8176475
0.8171776
0.8167484
0.8163706
0.8160616
0.815876
0.8158162
0.8158375
0.8159724
0.8161215
0.8206775
0.8200771
0.8195835
0.8192093
0.8189694
0.8189686
0.8185006
0.8180666
0.8176763
0.8173411
0.8171147
0.8169861
0.8169292
0.8169543
0.8170927
0.8090654
0.8082745
0.8064918
0.8053697
0.8046868
0.8027977
0.8012424
0.8007509
0.8002575
0.7983472
0.796471
0.7950597
0.7937521
0.7926055
0.7916747
0.7910126
0.7906712
0.7907171
0.791244
0.7924761
0.7949508
0.7957513
0.7961597
0.7961021
0.7941983
0.7978607
0.7964741
0.7951846
0.7940531
0.793133
0.7924711
0.7921089
0.7920809
0.7924202
0.7931215
0.7940406
0.7942123
0.7943607
0.7943304
0.7939295
0.791936
0.7991823
0.7978161
0.7965378
0.7954134
0.794496
0.7938271
0.7934352
0.7933326
0.7935003
0.7938694
0.7942422
0.7940806
0.7939117
0.7937524
0.7934443
0.7929975
0.7898134
0.8004746
0.799133
0.7978711
0.796758
0.7958467
0.7951743
0.7947608
0.7946022
0.7946613
0.7948438
0.7949837
0.794644
0.7943223
0.7939932
0.7936796
0.7933997
0.7918933
0.7887244
0.8017614
0.8004518
0.7992164
0.7981252
0.7972296
0.796564
0.7961433
0.7959572
0.7959595
0.7960569
0.7960913
0.7956839
0.7952769
0.7948834
0.7944824
0.7942553
0.7930468
0.7915256
0.7884046
0.8030533
0.801783
0.8005858
0.7995286
0.7986607
0.7980141
0.7976026
0.797415
0.7974061
0.7974835
0.7974974
0.797079
0.7966604
0.7962364
0.7958213
0.7955401
0.7944862
0.7932967
0.7918026
0.7887292
0.804348
0.8031244
0.8019754
0.8009631
0.800133
0.7995166
0.7991285
0.7989626
0.7989809
0.7990977
0.7991585
0.7987856
0.7984011
0.7980061
0.7975947
0.7973175
0.7962868
0.7952821
0.794152
0.7927259
0.7897647
0.8056341
0.8044614
0.803368
0.8024072
0.8016215
0.8010415
0.8006865
0.8005603
0.8006422
0.8008648
0.8010645
0.8007978
0.800507
0.8001829
0.7998261
0.7995618
0.798598
0.7976433
0.7967265
0.7957009
0.7944483
0.7915754
0.8068903
0.8057708
0.8047336
0.8038252
0.8030832
0.8025395
0.8022188
0.8021406
0.8023163
0.802733
0.8032562
0.8031934
0.8030587
0.8028522
0.8025771
0.8023666
0.8014711
0.8006107
0.7997742
0.7989929
0.7981803
0.7971198
0.7943134
0.8080914
0.8070187
0.8060306
0.8051652
0.8044588
0.8039426
0.8036466
0.8036042
0.8038703
0.8045672
0.8060316
0.8062822
0.8062974
0.8061742
0.8059664
0.8058179
0.8050261
0.8042622
0.8035494
0.8028822
0.8023431
0.8017719
0.8008938
0.7982967
0.8117417
0.8110884
0.8105955
0.8102087
0.8099064
0.8097938
0.8091102
0.8084636
0.8078634
0.8073355
0.8069259
0.80664
0.8062904
0.8056598
0.803441
0.8154473
0.8147544
0.8141919
0.8137567
0.8134508
0.8133819
0.8127924
0.8122387
0.811736
0.8112968
0.8109905
0.8107948
0.8106823
0.8105394
0.810139
0.8181481
0.8174957
0.8169571
0.8165422
0.8162629
0.816227
0.8156999
0.8152085
0.8147625
0.8143784
0.8141094
0.8139565
0.813871
0.8138842
0.81389
0.8200892
0.8194708
0.818959
0.8185657
0.8183048
0.8182806
0.8177859
0.817323
0.8169013
0.8165317
0.8162675
0.816097
0.8159931
0.8159643
0.8160413
0.8213734
0.8207716
0.8202714
0.8198845
0.8196242
0.8195902
0.8191014
0.8186399
0.8182128
0.8178301
0.8175372
0.8173244
0.8171533
0.8170485
0.8170187
0.8104604
0.8107923
0.8092912
0.8089505
0.8084943
0.8069708
0.8060209
0.805622
0.8052014
0.8036004
0.8021287
0.801713
0.8015103
0.8012288
0.799539
0.7979296
0.7965662
0.7953042
0.7941978
0.793299
0.7926566
0.7923201
0.7923462
0.7928304
0.7939622
0.7962769
0.7969692
0.7974287
0.7976442
0.7974822
0.7957733
0.7992735
0.7979326
0.7966865
0.7955935
0.794704
0.794062
0.7937049
0.7936659
0.7939685
0.7946147
0.7954437
0.795577
0.7956583
0.7957141
0.795601
0.7953232
0.7922632
0.800553
0.7992305
0.797994
0.7969067
0.7960191
0.79537
0.7949857
0.7948752
0.7950212
0.7953493
0.7956789
0.7954794
0.7952898
0.7950815
0.7948762
0.7946932
0.7932788
0.7901397
0.8018051
0.8005053
0.7992834
0.7982062
0.7973237
0.796671
0.7962661
0.7961042
0.7961467
0.7963047
0.7964115
0.7960596
0.7957063
0.795363
0.7950069
0.7948192
0.7936514
0.7921719
0.7890497
0.8030533
0.801783
0.8005858
0.7995286
0.7986607
0.7980141
0.7976026
0.797415
0.7974061
0.7974835
0.7974974
0.797079
0.7966604
0.7962364
0.7958213
0.7955401
0.7944862
0.7932967
0.7918026
0.7887292
0.8043069
0.8030742
0.8019127
0.8008875
0.8000454
0.799417
0.7990144
0.798826
0.7988075
0.798869
0.7988642
0.7984419
0.7980102
0.7975724
0.797124
0.7968161
0.7957555
0.7947162
0.7935457
0.7920787
0.7891208
0.805565
0.8043759
0.8032605