/*--------------------------------*- C++ -*----------------------------------*\
| =========                 |                                                 |
| \\      /  F ield         | OpenFOAM: The Open Source CFD Toolbox           |
|  \\    /   O peration     | Version:  2306                                  |
|   \\  /    A nd           | Website:  www.openfoam.com                      |
|    \\/     M anipulation  |                                                 |
\*---------------------------------------------------------------------------*/
FoamFile
{
    version     2.0;
    format      ascii;
    arch        "LSB;label=32;scalar=64";
    class       volScalarField;
    location    "1.5/air";
    object      nernst;
}
// * * * * * * * * * * * * * * * * * * * * * * * * * * * * * * * * * * * * * //

dimensions      [1 2 -3 0 0 -1 0];

internalField   nonuniform List<scalar> 
16000
(
-0.7045149
-0.6962402
-0.7143162
-0.6961042
-0.6916964
-0.7121921
-0.6761168
-0.7169681
-0.7121815
-0.6914485
-0.689129
-0.7103547
-0.6637702
-0.7160775
-0.705934
-0.6635824
-0.7191928
-0.7161413
-0.7103501
-0.6887536
-0.6879411
-0.7090039
-0.6564102
-0.7152736
-0.7004657
-0.6451037
-0.7187592
-0.7135475
-0.7004207
-0.6559088
-0.7211845
-0.7188493
-0.7154207
-0.7090121
-0.6874045
-0.6879411
-0.7082882
-0.6529388
-0.7146571
-0.6964186
-0.633589
-0.7183736
-0.7111767
-0.6915828
-0.6331547
-0.7209388
-0.7176378
-0.7112515
-0.6962752
-0.6519412
-0.7230052
-0.7210339
-0.718573
-0.7149126
-0.7083199
-0.6871942
-0.7190944
-0.689129
-0.7082882
-0.6529388
-0.7143213
-0.6942661
-0.6280181
-0.7180794
-0.7093444
-0.6849659
-0.6185458
-0.7207262
-0.7165405
-0.707382
-0.6847942
-0.6268036
-0.7228427
-0.7203867
-0.7166582
-0.7095044
-0.6939712
-0.651239
-0.724685
-0.7229346
-0.7209355
-0.7184204
-0.7147186
-0.7083744
-0.6881197
-0.7188582
-0.7211748
-0.7203385
-0.6916964
-0.7090039
-0.6564102
-0.7143213
-0.6942661
-0.6280181
-0.7179192
-0.7083422
-0.6814264
-0.6113514
-0.720567
-0.7156948
-0.7043579
-0.6761093
-0.6103949
-0.7227058
-0.7198139
-0.7148931
-0.7044246
-0.6809443
-0.6256285
-0.7245609
-0.7225323
-0.7199426
-0.7159701
-0.7086127
-0.6938081
-0.6537865
-0.7262453
-0.7246469
-0.7229085
-0.7209241
-0.7184436
-0.7149109
-0.7092147
-0.6903683
-0.7183763
-0.7209982
-0.7200799
-0.7230805
-0.7223191
-0.7216204
-0.6962402
-0.7103547
-0.6637702
-0.7146571
-0.6964186
-0.633589
-0.7179192
-0.7083422
-0.6814264
-0.6113514
-0.7204814
-0.7152321
-0.7026942
-0.6714368
-0.6022345
-0.7226053
-0.7193812
-0.713515
-0.7004174
-0.6710275
-0.6088476
-0.7244583
-0.7221855
-0.7190473
-0.7136794
-0.702833
-0.6805527
-0.6296333
-0.726141
-0.7243538
-0.722312
-0.7196876
-0.7157225
-0.708788
-0.6958794
-0.6599687
-0.7277008
-0.7262206
-0.7246488
-0.7229518
-0.7210287
-0.7186809
-0.7155185
-0.7108248
-0.694475
-0.7176011
-0.720648
-0.7195377
-0.7229252
-0.7221431
-0.721344
-0.724814
-0.7240918
-0.7234917
-0.722944
-0.7045149
-0.7121921
-0.6761168
-0.7152736
-0.7004657
-0.6451037
-0.7180794
-0.7093444
-0.6849659
-0.6185458
-0.7204814
-0.7152321
-0.7026942
-0.6714368
-0.6022345
-0.7225518
-0.7191474
-0.7127553
-0.698201
-0.6656715
-0.6004826
-0.724384
-0.7219297
-0.7183615
-0.7118706
-0.6982448
-0.6704422
-0.6139427
-0.7260555
-0.7241066
-0.7217881
-0.7185551
-0.7131515
-0.7029659
-0.6837619
-0.6392143
-0.7276082
-0.725981
-0.7242264
-0.7222329
-0.7196968
-0.716023
-0.7100973
-0.7000717
-0.6707899
-0.7290635
-0.7276818
-0.7262331
-0.724711
-0.7230834
-0.721271
-0.7191526
-0.7165366
-0.7131756
-0.701945
-0.7162249
-0.7201297
-0.7186145
-0.7226193
-0.721796
-0.7207574
-0.7246716
-0.7239432
-0.723316
-0.7226554
-0.7264142
-0.7257008
-0.7251269
-0.7246932
-0.7243105
-0.7143162
-0.6961042
-0.7160775
-0.705934
-0.6635824
-0.7183736
-0.7111767
-0.6915828
-0.6331547
-0.720567
-0.7156948
-0.7043579
-0.6761093
-0.6103949
-0.7225518
-0.7191474
-0.7127553
-0.698201
-0.6656715
-0.6004826
-0.7243449
-0.7217935
-0.7179878
-0.7108666
-0.6956978
-0.664975
-0.6061592
-0.725994
-0.7239282
-0.7213965
-0.7176765
-0.7111039
-0.6983283
-0.6745355
-0.6259979
-0.7275323
-0.7257816
-0.7238642
-0.7215915
-0.7184605
-0.7134883
-0.7049187
-0.6903207
-0.655347
-0.7289789
-0.7274716
-0.7258936
-0.7242162
-0.7223387
-0.7200264
-0.7169146
-0.7124663
-0.7061046
-0.6886026
-0.7303427
-0.7290472
-0.7276978
-0.7263002
-0.7248475
-0.7233178
-0.7216667
-0.7198705
-0.7179763
-0.7163739
-0.7108952
-0.7194799
-0.7169142
-0.7221767
-0.7212928
-0.7197506
-0.7243918
-0.7236563
-0.7229703
-0.7220426
-0.726281
-0.7255667
-0.7249838
-0.7245173
-0.7240158
-0.7279127
-0.7271931
-0.726609
-0.7261856
-0.7259227
-0.7251531
-0.7169681
-0.7121815
-0.6914485
-0.7187592
-0.7135475
-0.7004207
-0.6559088
-0.7207262
-0.7165405
-0.707382
-0.6847942
-0.6268036
-0.7226053
-0.7193812
-0.713515
-0.7004174
-0.6710275
-0.6088476
-0.7243449
-0.7217935
-0.7179878
-0.7108666
-0.6956978
-0.664975
-0.6061592
-0.7259619
-0.7238346
-0.7211865
-0.7171941
-0.7099615
-0.6957492
-0.6695524
-0.6195141
-0.727478
-0.7256395
-0.7235999
-0.7211059
-0.7174905
-0.7114555
-0.7007842
-0.6829188
-0.6457715
-0.7289094
-0.7272978
-0.7256071
-0.7237861
-0.7216641
-0.7188521
-0.7147456
-0.7085137
-0.6996074
-0.6801691
-0.7302642
-0.7288561
-0.7274024
-0.7259097
-0.724353
-0.7226633
-0.7207073
-0.718382
-0.7157329
-0.7135836
-0.7055782
-0.7315462
-0.7303278
-0.729064
-0.7277645
-0.7264338
-0.7250694
-0.7236679
-0.7222351
-0.7208834
-0.720051
-0.7193425
-0.7127764
-0.7216891
-0.7206982
-0.7179912
-0.7239896
-0.7232659
-0.7224736
-0.7210058
-0.7260191
-0.7253099
-0.7247109
-0.7241711
-0.7233932
-0.7277867
-0.7270684
-0.7264818
-0.7260461
-0.7257463
-0.7248582
-0.7293186
-0.7286
-0.7279919
-0.727538
-0.7272663
-0.7266771
-0.7252615
-0.7191928
-0.7161413
-0.7103501
-0.6887536
-0.7209388
-0.7176378
-0.7112515
-0.6962752
-0.6519412
-0.7227058
-0.7198139
-0.7148931
-0.7044246
-0.6809443
-0.6256285
-0.724384
-0.7219297
-0.7183615
-0.7118706
-0.6982448
-0.6704422
-0.6139427
-0.7259619
-0.7238346
-0.7211865
-0.7171941
-0.7099615
-0.6957492
-0.6695524
-0.6195141
-0.7274496
-0.7255658
-0.7234605
-0.7208434
-0.7169543
-0.7103169
-0.6984829
-0.6789305
-0.6411371
-0.7288597
-0.7271748
-0.7254014
-0.7234686
-0.7211465
-0.717919
-0.7129881
-0.7053342
-0.6946564
-0.6749687
-0.7301997
-0.7286984
-0.7271551
-0.7255761
-0.7239165
-0.7220556
-0.7197663
-0.7168519
-0.7133535
-0.7106706
-0.7014667
-0.7314729
-0.730151
-0.7287963
-0.7274276
-0.7260524
-0.7246605
-0.7232313
-0.7217534
-0.7203934
-0.7197666
-0.7184129
-0.7084453
-0.7326806
-0.7315324
-0.7303446
-0.7291286
-0.7278924
-0.7266431
-0.7253882
-0.7241548
-0.7230383
-0.7224453
-0.7224226
-0.7203129
-0.7146863
-0.7235655
-0.7229147
-0.7218877
-0.7193137
-0.7256429
-0.7249685
-0.7243509
-0.7236724
-0.7223638
-0.7275389
-0.7268298
-0.7262423
-0.725781
-0.7253977
-0.7242379
-0.7291986
-0.7284823
-0.7278742
-0.7274156
-0.7271286
-0.7265003
-0.7249666
-0.7306426
-0.7299288
-0.7293062
-0.7288098
-0.7284863
-0.7279318
-0.7267744
-0.7253702
-0.7211845
-0.7188493
-0.7154207
-0.7090121
-0.6874045
-0.7228427
-0.7203867
-0.7166582
-0.7095044
-0.6939712
-0.651239
-0.7244583
-0.7221855
-0.7190473
-0.7136794
-0.702833
-0.6805527
-0.6296333
-0.725994
-0.7239282
-0.7213965
-0.7176765
-0.7111039
-0.6983283
-0.6745355
-0.6259979
-0.7274496
-0.7255658
-0.7234605
-0.7208434
-0.7169543
-0.7103169
-0.6984829
-0.6789305
-0.6411371
-0.7288338
-0.7271113
-0.7252942
-0.7233
-0.7208643
-0.7173994
-0.7119987
-0.7035597
-0.6919879
-0.6724536
-0.7301534
-0.7285871
-0.7269791
-0.7253345
-0.7235901
-0.7215804
-0.7189993
-0.7155741
-0.7113732
-0.7083593
-0.6987248
-0.7314124
-0.730005
-0.7285728
-0.7271424
-0.725722
-0.7242885
-0.7227937
-0.7211879
-0.7196469
-0.7189597
-0.7172484
-0.7049544
-0.7326119
-0.7313674
-0.730097
-0.728824
-0.7275667
-0.7263405
-0.7251598
-0.7240667
-0.7231905
-0.7229795
-0.7225564
-0.7194951
-0.7111658
-0.7337513
-0.7326678
-0.7315489
-0.7304066
-0.7292505
-0.7280899
-0.7269385
-0.7258246
-0.7248419
-0.7243287
-0.7244736
-0.723232
-0.7213659
-0.7166282
-0.7252476
-0.7246979
-0.7240359
-0.7230727
-0.7207921
-0.7271821
-0.726514
-0.7259376
-0.7254313
-0.7248904
-0.7232254
-0.7289622
-0.7282567
-0.7276534
-0.7271865
-0.7268655
-0.7261498
-0.7243468
-0.7305278
-0.7298165
-0.7291953
-0.7286972
-0.7283664
-0.727794
-0.7265976
-0.7250755
-0.7318908
-0.7311878
-0.7305569
-0.7300304
-0.7296455
-0.7290746
-0.7280183
-0.7268721
-0.7254796
-0.7230052
-0.7210339
-0.718573
-0.7149126
-0.7083199
-0.6871942
-0.7245609
-0.7225323
-0.7199426
-0.7159701
-0.7086127
-0.6938081
-0.6537865
-0.7260555
-0.7241066
-0.7217881
-0.7185551
-0.7131515
-0.7029659
-0.6837619
-0.6392143
-0.727478
-0.7256395
-0.7235999
-0.7211059
-0.7174905
-0.7114555
-0.7007842
-0.6829188
-0.6457715
-0.7288338
-0.7271113
-0.7252942
-0.7233
-0.7208643
-0.7173994
-0.7119987
-0.7035597
-0.6919879
-0.6724536
-0.7301292
-0.7285297
-0.726888
-0.7252078
-0.7234153
-0.7213183
-0.7185666
-0.7148451
-0.7102541
-0.7070953
-0.6973581
-0.731369
-0.7299021
-0.7284144
-0.7269381
-0.7254798
-0.7240035
-0.7224339
-0.7206854
-0.7189408
-0.7181667
-0.7162631
-0.7025804
-0.7325549
-0.731231
-0.7298904
-0.7285673
-0.7272875
-0.7260698
-0.7249245
-0.7238848
-0.7230684
-0.722951
-0.7223641
-0.7185253
-0.708246
-0.7336867
-0.7325132
-0.7313178
-0.7301249
-0.7289568
-0.7278361
-0.7267928
-0.7258773
-0.725215
-0.7251073
-0.7249294
-0.7232821
-0.7206162
-0.7137808
-0.7347632
-0.7337395
-0.732684
-0.7316084
-0.7305227
-0.7294373
-0.7283664
-0.7273395
-0.7264386
-0.7259653
-0.7261176
-0.7251813
-0.7240906
-0.7224672
-0.7185914
-0.7268024
-0.7262698
-0.7257118
-0.7251012
-0.7242634
-0.7217281
-0.7286209
-0.7279571
-0.727375
-0.7268962
-0.7265102
-0.7256361
-0.7233365
-0.7303014
-0.7296011
-0.728987
-0.7284875
-0.728141
-0.7275295
-0.7262469
-0.7244562
-0.7317805
-0.7310803
-0.7304512
-0.7299245
-0.7295356
-0.728955
-0.7278805
-0.7266952
-0.725185
-0.7330696
-0.732381
-0.7317501
-0.7312023
-0.7307713
-0.7301688
-0.7291518
-0.728105
-0.7269701
-0.7255892
-0.724685
-0.7229346
-0.7209355
-0.7184204
-0.7147186
-0.7083744
-0.6881197
-0.726141
-0.7243538
-0.722312
-0.7196876
-0.7157225
-0.708788
-0.6958794
-0.6599687
-0.7275323
-0.7257816
-0.7238642
-0.7215915
-0.7184605
-0.7134883
-0.7049187
-0.6903207
-0.655347
-0.7288597
-0.7271748
-0.7254014
-0.7234686
-0.7211465
-0.717919
-0.7129881
-0.7053342
-0.6946564
-0.6749687
-0.7301292
-0.7285297
-0.726888
-0.7252078
-0.7234153
-0.7213183
-0.7185666
-0.7148451
-0.7102541
-0.7070953
-0.6973581
-0.7313462
-0.729849
-0.7283326
-0.7268317
-0.7253518
-0.7238486
-0.7222302
-0.7203911
-0.7185198
-0.7176954
-0.7157101
-0.7013872
-0.7325139
-0.7311348
-0.7297442
-0.7283841
-0.7270853
-0.7258662
-0.7247294
-0.7236942
-0.7228658
-0.7227689
-0.7221026
-0.7177089
-0.706227
-0.733633
-0.7323851
-0.7311249
-0.7298877
-0.7287062
-0.7276114
-0.7266391
-0.7258393
-0.7253249
-0.7253515
-0.7250755
-0.723119
-0.7197941
-0.7113798
-0.7347024
-0.7335943
-0.7324673
-0.7313453
-0.7302509
-0.7292092
-0.7282526
-0.7274352
-0.7268634
-0.7267798
-0.7266453
-0.7254955
-0.7240467
-0.721762
-0.7163148
-0.7357203
-0.7347524
-0.7337555
-0.7327412
-0.7317193
-0.7307001
-0.7296979
-0.72874
-0.7279019
-0.7274471
-0.7275712
-0.7267509
-0.7259209
-0.7249712
-0.7235926
-0.7197427
-0.7282512
-0.72772
-0.7271777
-0.7266587
-0.7261369
-0.7249915
-0.7218479
-0.7299734
-0.7293131
-0.7287235
-0.7282249
-0.7278477
-0.7271661
-0.7257327
-0.7234483
-0.7315629
-0.7308734
-0.7302521
-0.7297271
-0.7293303
-0.7287286
-0.7276158
-0.7263443
-0.7245664
-0.7329634
-0.7322776
-0.7316488
-0.7311013
-0.7306682
-0.7300593
-0.7290322
-0.7279672
-0.7267932
-0.7252949
-0.7341839
-0.7335132
-0.7328877
-0.732329
-0.7318634
-0.73124
-0.7302382
-0.7292292
-0.7281921
-0.7270683
-0.7257034
-0.7262453
-0.7246469
-0.7229085
-0.7209241
-0.7184436
-0.7149109
-0.7092147
-0.6903683
-0.7276082
-0.725981
-0.7242264
-0.7222329
-0.7196968
-0.716023
-0.7100973
-0.7000717
-0.6707899
-0.7289094
-0.7272978
-0.7256071
-0.7237861
-0.7216641
-0.7188521
-0.7147456
-0.7085137
-0.6996074
-0.6801691
-0.7301534
-0.7285871
-0.7269791
-0.7253345
-0.7235901
-0.7215804
-0.7189993
-0.7155741
-0.7113732
-0.7083593
-0.6987248
-0.7313462
-0.729849
-0.7283326
-0.7268317
-0.7253518
-0.7238486
-0.7222302
-0.7203911
-0.7185198
-0.7176954
-0.7157101
-0.7013872
-0.7324924
-0.7310852
-0.7296688
-0.7282891
-0.7269793
-0.7257569
-0.724619
-0.7235756
-0.7227268
-0.7226327
-0.7219328
-0.7172506
-0.7052039
-0.7335942
-0.7322947
-0.7309883
-0.7297188
-0.7285256
-0.7274444
-0.7265112
-0.7257689
-0.7253163
-0.7253978
-0.7250867
-0.7229084
-0.7191153
-0.709698
-0.7346516
-0.7334738
-0.7322862
-0.7311236
-0.7300192
-0.7290083
-0.7281316
-0.7274469
-0.7270455
-0.7271051
-0.7268969
-0.7256103
-0.7238864
-0.7210547
-0.7143856
-0.735663
-0.7346159
-0.733552
-0.7324942
-0.7314648
-0.7304882
-0.7295969
-0.7288408
-0.7283168
-0.7282207
-0.7280833
-0.7271253
-0.7260963
-0.7248348
-0.7229174
-0.7177303
-0.7366261
-0.7357106
-0.7347683
-0.7338107
-0.7328473
-0.7318882
-0.7309469
-0.730049
-0.7292621
-0.728823
-0.7289066
-0.7281461
-0.7274053
-0.7266704
-0.7258563
-0.7242891
-0.719886
-0.7296116
-0.7290759
-0.728533
-0.7280198
-0.7275673
-0.7267629
-0.7250865
-0.7219683
-0.7312467
-0.7305949
-0.7299983
-0.7294798
-0.7290665
-0.7284275
-0.7272515
-0.7258294
-0.723561
-0.7327537
-0.7320782
-0.7314574
-0.7309129
-0.7304755
-0.7298534
-0.7288056
-0.7277023
-0.7264421
-0.724677
-0.7340815
-0.7334135
-0.7327901
-0.7322322
-0.7317653
-0.7311373
-0.7301287
-0.7291095
-0.7280542
-0.7268913
-0.7254093
-0.7352386
-0.7345878
-0.7339727
-0.7334104
-0.732923
-0.7322863
-0.7313029
-0.7303077
-0.7293069
-0.7282792
-0.7271708
-0.725808
-0.7277008
-0.7262206
-0.7246488
-0.7229518
-0.7210287
-0.7186809
-0.7155185
-0.7108248
-0.694475
-0.7289789
-0.7274716
-0.7258936
-0.7242162
-0.7223387
-0.7200264
-0.7169146
-0.7124663
-0.7061046
-0.6886026
-0.7301997
-0.7286984
-0.7271551
-0.7255761
-0.7239165
-0.7220556
-0.7197663
-0.7168519
-0.7133535
-0.7106706
-0.7014667
-0.731369
-0.7299021
-0.7284144
-0.7269381
-0.7254798
-0.7240035
-0.7224339
-0.7206854
-0.7189408
-0.7181667
-0.7162631
-0.7025804
-0.7324924
-0.7310852
-0.7296688
-0.7282891
-0.7269793
-0.7257569
-0.724619
-0.7235756
-0.7227268
-0.7226327
-0.7219328
-0.7172506
-0.7052039
-0.7335739
-0.7322481
-0.7309179
-0.7296313
-0.7284315
-0.7273555
-0.7264388
-0.725719
-0.7252878
-0.725391
-0.7250679
-0.7227723
-0.7187363
-0.7088397
-0.7346149
-0.7333887
-0.7321579
-0.7309657
-0.7298527
-0.7288599
-0.7280311
-0.7274207
-0.7271041
-0.72723
-0.7270026
-0.7256243
-0.7237076
-0.7204894
-0.7130223
-0.7356149
-0.7345024
-0.7333816
-0.732286
-0.7312479
-0.730302
-0.7294896
-0.7288651
-0.7285109
-0.7285519
-0.728354
-0.7273255
-0.7261638
-0.7246618
-0.7223034
-0.7160293
-0.7365721
-0.7355822
-0.7345769
-0.7335785
-0.7326081
-0.731689
-0.7308515
-0.7301425
-0.7296468
-0.7295337
-0.7293737
-0.728509
-0.727635
-0.7267176
-0.7256318
-0.7236241
-0.7179014
-0.7374838
-0.7366175
-0.7357265
-0.7348217
-0.7339126
-0.7330088
-0.732123
-0.7312788
-0.7305379
-0.7301129
-0.7301611
-0.7294338
-0.7287345
-0.7280633
-0.7274167
-0.7264106
-0.7243815
-0.7200293
-0.730892
-0.7303558
-0.7298066
-0.7292852
-0.7288234
-0.7281167
-0.7268454
-0.7251816
-0.7220896
-0.7324483
-0.731808
-0.7312111
-0.7306751
-0.7302285
-0.729583
-0.7285038
-0.727337
-0.7259265
-0.7236742
-0.7338791
-0.7332209
-0.7326054
-0.732051
-0.7315817
-0.7309444
-0.7299227
-0.7288828
-0.727789
-0.7265401
-0.7247923
-0.7351396
-0.7344915
-0.7338785
-0.7333171
-0.7328289
-0.7321886
-0.7312002
-0.7301983
-0.7291872
-0.7281413
-0.7269937
-0.7255141
-0.7362375
-0.7356084
-0.735007
-0.7344476
-0.7339476
-0.7333072
-0.7323436
-0.7313659
-0.7303776
-0.7293847
-0.7283705
-0.7272644
-0.7258881
-0.7290635
-0.7276818
-0.7262331
-0.724711
-0.7230834
-0.721271
-0.7191526
-0.7165366
-0.7131756
-0.701945
-0.7302642
-0.7288561
-0.7274024
-0.7259097
-0.724353
-0.7226633
-0.7207073
-0.718382
-0.7157329
-0.7135836
-0.7055782
-0.7314124
-0.730005
-0.7285728
-0.7271424
-0.725722
-0.7242885
-0.7227937
-0.7211879
-0.7196469
-0.7189597
-0.7172484
-0.7049544
-0.7325139
-0.7311348
-0.7297442
-0.7283841
-0.7270853
-0.7258662
-0.7247294
-0.7236942
-0.7228658
-0.7227689
-0.7221026
-0.7177089
-0.706227
-0.7335739
-0.7322481
-0.7309179
-0.7296313
-0.7284315
-0.7273555
-0.7264388
-0.725719
-0.7252878
-0.725391
-0.7250679
-0.7227723
-0.7187363
-0.7088397
-0.7345956
-0.7333448
-0.7320918
-0.730884
-0.7297659
-0.7287813
-0.7279744
-0.7273968
-0.7271156
-0.72727
-0.7270386
-0.7256126
-0.7235955
-0.7201776
-0.7123223
-0.7355801
-0.7344222
-0.7332608
-0.7321376
-0.731092
-0.7301647
-0.7294011
-0.7288529
-0.7285877
-0.7286953
-0.728486
-0.7274163
-0.7261686
-0.7245015
-0.7218348
-0.7148242
-0.7365266
-0.7354752
-0.7344165
-0.7333825
-0.7324039
-0.7315137
-0.7307509
-0.7301664
-0.7298307
-0.7298451
-0.7296312
-0.7287236
-0.7277733
-0.7267302
-0.7254382
-0.723051
-0.7162242
-0.7374328
-0.7364967
-0.7355465
-0.7346034
-0.7336873
-0.7328205
-0.7320311
-0.7313617
-0.7308887
-0.7307587
-0.7305778
-0.7297612
-0.72896
-0.7281619
-0.7273459
-0.7261408
-0.7237174
-0.7180718
-0.738296
-0.7374762
-0.7366335
-0.7357784
-0.7349199
-0.7340673
-0.7332328
-0.732438
-0.7317393
-0.7313297
-0.7313485
-0.7306483
-0.729969
-0.7293226
-0.7287144
-0.7278889
-0.7264861
-0.7244738
-0.7201727
-0.7321005
-0.7315672
-0.7310162
-0.7304825
-0.7300014
-0.7293121
-0.7281899
-0.7269277
-0.725277
-0.7222114
-0.7335835
-0.7329583
-0.7323655
-0.7318205
-0.7313454
-0.7306919
-0.7296516
-0.72858
-0.7274227
-0.7260238
-0.7237922
-0.7349439
-0.7343052
-0.7336998
-0.7331421
-0.7326526
-0.732005
-0.7310072
-0.729992
-0.7289602
-0.7278758
-0.7266423
-0.7248979
-0.7361418
-0.7355153
-0.734916
-0.7343575
-0.733857
-0.7332136
-0.732246
-0.7312632
-0.730268
-0.7292649
-0.7282325
-0.7270873
-0.7255944
-0.7371844
-0.7365781
-0.7359932
-0.7354411
-0.7349365
-0.7342988
-0.7333598
-0.7324011
-0.7314291
-0.7304475
-0.7294664
-0.7284538
-0.7273355
-0.7259457
-0.7303427
-0.7290472
-0.7276978
-0.7263002
-0.7248475
-0.7233178
-0.7216667
-0.7198705
-0.7179763
-0.7163739
-0.7108952
-0.7314729
-0.730151
-0.7287963
-0.7274276
-0.7260524
-0.7246605
-0.7232313
-0.7217534
-0.7203934
-0.7197666
-0.7184129
-0.7084453
-0.7325549
-0.731231
-0.7298904
-0.7285673
-0.7272875
-0.7260698
-0.7249245
-0.7238848
-0.7230684
-0.722951
-0.7223641
-0.7185253
-0.708246
-0.7335942
-0.7322947
-0.7309883
-0.7297188
-0.7285256
-0.7274444
-0.7265112
-0.7257689
-0.7253163
-0.7253978
-0.7250867
-0.7229084
-0.7191153
-0.709698
-0.7345956
-0.7333448
-0.7320918
-0.730884
-0.7297659
-0.7287813
-0.7279744
-0.7273968
-0.7271156
-0.72727
-0.7270386
-0.7256126
-0.7235955
-0.7201776
-0.7123223
-0.7355619
-0.7343807
-0.7331985
-0.7320608
-0.7310109
-0.7300922
-0.7293513
-0.7288379
-0.7286116
-0.7287487
-0.7285391
-0.7274491
-0.7261581
-0.7244063
-0.7215812
-0.7142039
-0.7364936
-0.7353995
-0.7343027
-0.7332427
-0.7322571
-0.7313847
-0.7306682
-0.730157
-0.7299071
-0.7299851
-0.7297629
-0.7288348
-0.7278407
-0.7267182
-0.7252883
-0.7226267
-0.7150358
-0.7373897
-0.7363959
-0.7353954
-0.7344187
-0.7334948
-0.7326548
-0.7319348
-0.731381
-0.7310564
-0.7310431
-0.7308125
-0.7299636
-0.7291108
-0.7282344
-0.7273018
-0.7259334
-0.7231483
-0.7164183
-0.7382478
-0.7373627
-0.7364643
-0.735573
-0.7347078
-0.7338895
-0.7331442
-0.7325109
-0.7320581
-0.7319161
-0.7317175
-0.7309357
-0.73017
-0.729425
-0.7286939
-0.7277592
-0.7262114
-0.7238106
-0.7182419
-0.739065
-0.7382895
-0.7374924
-0.7366841
-0.7358731
-0.7350686
-0.7342817
-0.7335329
-0.7328738
-0.7324805
-0.7324777
-0.7318017
-0.7311392
-0.7305011
-0.7299019
-0.7291304
-0.7279545
-0.7265616
-0.7245663
-0.7203159
-0.7332425
-0.7327166
-0.7321675
-0.7316273
-0.7311256
-0.7304404
-0.7293778
-0.7282629
-0.7270102
-0.7253724
-0.7223375
-0.7346575
-0.7340497
-0.7334659
-0.7329177
-0.7324245
-0.7317643
-0.7307541
-0.7297201
-0.7286563
-0.7275083
-0.7261253
-0.7239003
-0.7359523
-0.7353348
-0.7347428
-0.7341882
-0.7336869
-0.7330375
-0.7320623
-0.7310701
-0.7300616
-0.7290376
-0.7279666
-0.7267356
-0.7249789
-0.7370916
-0.7364879
-0.735905
-0.7353541
-0.7348491
-0.7342087
-0.7332662
-0.7323034
-0.7313264
-0.7303379
-0.7293466
-0.7283157
-0.7271583
-0.7256521
-0.7380823
-0.7374997
-0.7369331
-0.7363923
-0.7358888
-0.7352595
-0.7343474
-0.7334125
-0.7324588
-0.7314924
-0.7305213
-0.7295411
-0.7285164
-0.7273858
-0.725979
-0.7162249
-0.7315462
-0.7303278
-0.729064
-0.7277645
-0.7264338
-0.7250694
-0.7236679
-0.7222351
-0.7208834
-0.720051
-0.7193425
-0.7127764
-0.7326119
-0.7313674
-0.730097
-0.728824
-0.7275667
-0.7263405
-0.7251598
-0.7240667
-0.7231905
-0.7229795
-0.7225564
-0.7194951
-0.7111658
-0.733633
-0.7323851
-0.7311249
-0.7298877
-0.7287062
-0.7276114
-0.7266391
-0.7258393
-0.7253249
-0.7253515
-0.7250755
-0.723119
-0.7197941
-0.7113798
-0.7346149
-0.7333887
-0.7321579
-0.7309657
-0.7298527
-0.7288599
-0.7280311
-0.7274207
-0.7271041
-0.72723
-0.7270026
-0.7256243
-0.7237076
-0.7204894
-0.7130223
-0.7355619
-0.7343807
-0.7331985
-0.7320608
-0.7310109
-0.7300922
-0.7293513
-0.7288379
-0.7286116
-0.7287487
-0.7285391
-0.7274491
-0.7261581
-0.7244063
-0.7215812
-0.7142039
-0.7364762
-0.7353604
-0.734244
-0.7331704
-0.7321807
-0.7313166
-0.730622
-0.7301445
-0.7299327
-0.7300395
-0.7298181
-0.728881
-0.7278664
-0.7267048
-0.7252054
-0.7224003
-0.7144238
-0.7373584
-0.7363245
-0.7352882
-0.7342869
-0.7333563
-0.7325328
-0.7318561
-0.7313707
-0.7311265
-0.7311723
-0.7309349
-0.7300733
-0.7291949
-0.7282738
-0.7272692
-0.7257857
-0.7227284
-0.7152462
-0.738207
-0.7372677
-0.7363221
-0.7353991
-0.7345263
-0.7337326
-0.7330516
-0.7325253
-0.7322092
-0.7321737
-0.7319281
-0.7311182
-0.7303117
-0.7295104
-0.7287015
-0.7276846
-0.7260023
-0.7232454
-0.7166116
-0.7390196
-0.7381828
-0.7373335
-0.7364911
-0.7356736
-0.7349008
-0.7341967
-0.7335973
-0.7331645
-0.7330145
-0.7328045
-0.7320513
-0.7313115
-0.7305901
-0.7298934
-0.7290511
-0.7278185
-0.7262819
-0.7239039
-0.7184113
-0.739793
-0.7390597
-0.738306
-0.7375418
-0.7367758
-0.7360163
-0.7352742
-0.7345685
-0.7339468
-0.7335711
-0.7335528
-0.7329016
-0.7322551
-0.731625
-0.7310233
-0.7302754
-0.7291891
-0.72802
-0.726637
-0.7246586
-0.7204617
-0.7343233
-0.733808
-0.7332656
-0.7327236
-0.7322087
-0.7315233
-0.7305002
-0.7294435
-0.728336
-0.7270925
-0.7254721
-0.7224532
-0.7356744
-0.7350861
-0.7345146
-0.7339693
-0.7334656
-0.7328057
-0.7318211
-0.7308162
-0.7297888
-0.7287326
-0.727598
-0.7262179
-0.7239836
-0.7369079
-0.7363129
-0.735737
-0.7351899
-0.7346846
-0.734039
-0.7330901
-0.7321197
-0.7311331
-0.7301312
-0.7291189
-0.7280495
-0.7268062
-0.7250371
-0.7379923
-0.7374122
-0.7368477
-0.7363079
-0.7358043
-0.7351727
-0.7342574
-0.733319
-0.7323611
-0.7313896
-0.7304117
-0.7294211
-0.7283781
-0.7272084
-0.7256855
-0.7389341
-0.7383756
-0.737829
-0.7373021
-0.7368045
-0.7361877
-0.7353047
-0.7343961
-0.7334655
-0.7325165
-0.7315596
-0.7305887
-0.7295963
-0.7285597
-0.7274138
-0.7176011
-0.7194799
-0.7169142
-0.7326806
-0.7315324
-0.7303446
-0.7291286
-0.7278924
-0.7266431
-0.7253882
-0.7241548
-0.7230383
-0.7224453
-0.7224226
-0.7203129
-0.7146863
-0.7336867
-0.7325132
-0.7313178
-0.7301249
-0.7289568
-0.7278361
-0.7267928
-0.7258773
-0.725215
-0.7251073
-0.7249294
-0.7232821
-0.7206162
-0.7137808
-0.7346516
-0.7334738
-0.7322862
-0.7311236
-0.7300192
-0.7290083
-0.7281316
-0.7274469
-0.7270455
-0.7271051
-0.7268969
-0.7256103
-0.7238864
-0.7210547
-0.7143856
-0.7355801
-0.7344222
-0.7332608
-0.7321376
-0.731092
-0.7301647
-0.7294011
-0.7288529
-0.7285877
-0.7286953
-0.728486
-0.7274163
-0.7261686
-0.7245015
-0.7218348
-0.7148242
-0.7364762
-0.7353604
-0.734244
-0.7331704
-0.7321807
-0.7313166
-0.730622
-0.7301445
-0.7299327
-0.7300395
-0.7298181
-0.728881
-0.7278664
-0.7267048
-0.7252054
-0.7224003
-0.7144238
-0.7373419
-0.7362876
-0.7352328
-0.7342187
-0.7332842
-0.7324683
-0.7318122
-0.7313585
-0.7311502
-0.7312231
-0.7309871
-0.7301209
-0.7292315
-0.7282897
-0.7272506
-0.7257074
-0.7225048
-0.7146426
-0.7381773
-0.7372003
-0.736221
-0.7352749
-0.7343955
-0.733617
-0.7329761
-0.7325133
-0.7322716
-0.7322909
-0.732039
-0.7312194
-0.7303946
-0.7295642
-0.7287111
-0.7276397
-0.7258545
-0.7228299
-0.7154559
-0.738981
-0.7380934
-0.7371996
-0.7363273
-0.7355026
-0.7347524
-0.734108
-0.7336075
-0.7333007
-0.7332479
-0.732993
-0.7322131
-0.7314378
-0.7306708
-0.7299155
-0.7290247
-0.7277403
-0.726071
-0.7233425
-0.7168039
-0.7397501
-0.7389595
-0.7381568
-0.7373607
-0.7365884
-0.7358584
-0.7351933
-0.7346262
-0.7342135
-0.7340598
-0.7338432
-0.7331178
-0.7324001
-0.7316964
-0.7310121
-0.7302125
-0.7291034
-0.7278776
-0.7263524
-0.7239968
-0.7185811
-0.7404817
-0.7397888
-0.7390764
-0.7383543
-0.7376308
-0.7369139
-0.7362141
-0.7355489
-0.7349629
-0.7346055
-0.7345775
-0.7339513
-0.7333229
-0.732702
-0.7321003
-0.7313631
-0.7303288
-0.7292475
-0.7280854
-0.7267122
-0.7247555
-0.7205953
-0.735347
-0.7348452
-0.7343129
-0.7337747
-0.7332528
-0.7325717
-0.731578
-0.7305597
-0.7295091
-0.7284088
-0.727179
-0.7255631
-0.7225436
-0.7366381
-0.7360706
-0.7355142
-0.7349763
-0.7344694
-0.7338148
-0.732858
-0.7318778
-0.7308785
-0.7298573
-0.7288128
-0.7276797
-0.7262876
-0.724044
-0.737814
-0.7372422
-0.7366845
-0.7361486
-0.7356449
-0.7350087
-0.7340876
-0.7331428
-0.7321772
-0.7311961
-0.7302047
-0.7291931
-0.7281113
-0.7268559
-0.7250709
-0.7388467
-0.7382907
-0.737746
-0.7372203
-0.7367227
-0.7361037
-0.7352179
-0.7343061
-0.733372
-0.7324188
-0.7314568
-0.7304789
-0.7294761
-0.7284212
-0.7272361
-0.7397423
-0.7392082
-0.7386825
-0.7381718
-0.7376838
-0.7370825
-0.7362299
-0.73535
-0.7344451
-0.7335185
-0.7325781
-0.7316209
-0.7306378
-0.7296336
-0.7285824
-0.7183763
-0.7201297
-0.7186145
-0.7216891
-0.7206982
-0.7179912
-0.7337513
-0.7326678
-0.7315489
-0.7304066
-0.7292505
-0.7280899
-0.7269385
-0.7258246
-0.7248419
-0.7243287
-0.7244736
-0.723232
-0.7213659
-0.7166282
-0.7347024
-0.7335943
-0.7324673
-0.7313453
-0.7302509
-0.7292092
-0.7282526
-0.7274352
-0.7268634
-0.7267798
-0.7266453
-0.7254955
-0.7240467
-0.721762
-0.7163148
-0.7356149
-0.7345024
-0.7333816
-0.732286
-0.7312479
-0.730302
-0.7294896
-0.7288651
-0.7285109
-0.7285519
-0.728354
-0.7273255
-0.7261638
-0.7246618
-0.7223034
-0.7160293
-0.7364936
-0.7353995
-0.7343027
-0.7332427
-0.7322571
-0.7313847
-0.7306682
-0.730157
-0.7299071
-0.7299851
-0.7297629
-0.7288348
-0.7278407
-0.7267182
-0.7252883
-0.7226267
-0.7150358
-0.7373419
-0.7362876
-0.7352328
-0.7342187
-0.7332842
-0.7324683
-0.7318122
-0.7313585
-0.7311502
-0.7312231
-0.7309871
-0.7301209
-0.7292315
-0.7282897
-0.7272506
-0.7257074
-0.7225048
-0.7146426
-0.7381616
-0.7371655
-0.7361687
-0.7352105
-0.7343274
-0.733556
-0.7329341
-0.7325007
-0.7322925
-0.732337
-0.7320866
-0.7312639
-0.730432
-0.7295892
-0.7287161
-0.7276173
-0.7257766
-0.722609
-0.7148605
-0.7389527
-0.7380299
-0.7371044
-0.7362103
-0.7353792
-0.734643
-0.7340357
-0.733594
-0.733356
-0.7333537
-0.7330926
-0.7323039
-0.7315137
-0.7307245
-0.7299384
-0.7290179
-0.7276938
-0.7259232
-0.7229312
-0.7156643
-0.7397135
-0.7388754
-0.7380309
-0.7372067
-0.7364273
-0.7357184
-0.7351087
-0.7346333
-0.7343368
-0.7342721
-0.7340121
-0.7332606
-0.7325101
-0.7317668
-0.7310344
-0.730202
-0.7290731
-0.7277959
-0.7261397
-0.7234392
-0.716995
-0.7404414
-0.7396948
-0.7389366
-0.7381845
-0.737455
-0.7367657
-0.7361377
-0.7356016
-0.7352092
-0.7350553
-0.7348367
-0.7341387
-0.7334437
-0.732756
-0.7320819
-0.7313029
-0.73026
-0.7291556
-0.7279367
-0.7264227
-0.7240942
-0.7187365
-0.7411329
-0.7404787
-0.7398059
-0.7391239
-0.7384408
-0.7377644
-0.7371045
-0.7364778
-0.7359258
-0.7355873
-0.7355541
-0.7349536
-0.7343449
-0.7337366
-0.7331379
-0.7324122
-0.7314122
-0.730382
-0.729306
-0.7281505
-0.726792
-0.7248438
-0.7207025
-0.7363173
-0.7358312
-0.7353122
-0.7347817
-0.7342594
-0.7335863
-0.7326222
-0.7316325
-0.7306193
-0.7295744
-0.7284857
-0.7272576
-0.7256309
-0.7226106
-0.7375518
-0.7370061
-0.736467
-0.7359401
-0.7354354
-0.7347913
-0.7338632
-0.7329102
-0.7319347
-0.7309407
-0.7299298
-0.7288858
-0.7277403
-0.7263363
-0.7240797
-0.7386735
-0.7381255
-0.7375875
-0.7370655
-0.7365681
-0.7359449
-0.7350539
-0.7341363
-0.7331956
-0.7322347
-0.7312631
-0.7302716
-0.7292477
-0.7281539
-0.726883
-0.7396573
-0.7391257
-0.738602
-0.7380924
-0.7376044
-0.7370012
-0.7361459
-0.7352632
-0.7343551
-0.7334249
-0.7324804
-0.731518
-0.7305279
-0.7295132
-0.7284437
-0.740509
-0.7399995
-0.7394956
-0.7390026
-0.7385269
-0.7379436
-0.7371221
-0.7362721
-0.7353955
-0.734494
-0.7335754
-0.7326343
-0.7316649
-0.7306701
-0.7296517
-0.7188582
-0.720648
-0.7195377
-0.7221767
-0.7212928
-0.7197506
-0.7235655
-0.7229147
-0.7218877
-0.7193137
-0.7347632
-0.7337395
-0.732684
-0.7316084
-0.7305227
-0.7294373
-0.7283664
-0.7273395
-0.7264386
-0.7259653
-0.7261176
-0.7251813
-0.7240906
-0.7224672
-0.7185914
-0.735663
-0.7346159
-0.733552
-0.7324942
-0.7314648
-0.7304882
-0.7295969
-0.7288408
-0.7283168
-0.7282207
-0.7280833
-0.7271253
-0.7260963
-0.7248348
-0.7229174
-0.7177303
-0.7365266
-0.7354752
-0.7344165
-0.7333825
-0.7324039
-0.7315137
-0.7307509
-0.7301664
-0.7298307
-0.7298451
-0.7296312
-0.7287236
-0.7277733
-0.7267302
-0.7254382
-0.723051
-0.7162242
-0.7373584
-0.7363245
-0.7352882
-0.7342869
-0.7333563
-0.7325328
-0.7318561
-0.7313707
-0.7311265
-0.7311723
-0.7309349
-0.7300733
-0.7291949
-0.7282738
-0.7272692
-0.7257857
-0.7227284
-0.7152462
-0.7381616
-0.7371655
-0.7361687
-0.7352105
-0.7343274
-0.733556
-0.7329341
-0.7325007
-0.7322925
-0.732337
-0.7320866
-0.7312639
-0.730432
-0.7295892
-0.7287161
-0.7276173
-0.7257766
-0.722609
-0.7148605
-0.7389379
-0.737997
-0.7370551
-0.7361496
-0.7353149
-0.7345852
-0.7339955
-0.7335811
-0.7333741
-0.7333952
-0.7331355
-0.7323441
-0.7315485
-0.7307504
-0.7299512
-0.7290166
-0.727671
-0.7258456
-0.7227131
-0.7150771
-0.7396868
-0.7388155
-0.7379413
-0.7370965
-0.7363111
-0.735615
-0.7350398
-0.7346189
-0.734386
-0.7343678
-0.7341017
-0.7333415
-0.7325775
-0.7318156
-0.7310589
-0.7302083
-0.7290644
-0.7277479
-0.7259919
-0.7230322
-0.7158703
-0.7404067
-0.7396157
-0.7388184