/*--------------------------------*- C++ -*----------------------------------*\
| =========                 |                                                 |
| \\      /  F ield         | OpenFOAM: The Open Source CFD Toolbox           |
|  \\    /   O peration     | Version:  2306                                  |
|   \\  /    A nd           | Website:  www.openfoam.com                      |
|    \\/     M anipulation  |                                                 |
\*---------------------------------------------------------------------------*/
FoamFile
{
    version     2.0;
    format      ascii;
    arch        "LSB;label=32;scalar=64";
    class       volScalarField;
    location    "1.5/air";
    object      O2;
}
// * * * * * * * * * * * * * * * * * * * * * * * * * * * * * * * * * * * * * //

dimensions      [0 0 0 0 0 0 0];

internalField   nonuniform List<scalar> 
16000
(
0.2300112
0.2300363
0.2285123
0.2299855
0.2300684
0.2285947
0.2300218
0.2264884
0.2284025
0.2299018
0.2300949
0.2287015
0.2300652
0.2266076
0.2285155
0.2299548
0.2241548
0.2263369
0.228115
0.2297181
0.2301094
0.2287918
0.2300993
0.2267727
0.228653
0.230017
0.2242724
0.2264903
0.2282716
0.2297917
0.2218368
0.2239992
0.2259616
0.2275785
0.2293747
0.2301094
0.2288421
0.2301174
0.2269207
0.2287646
0.2300639
0.2244339
0.2266951
0.228461
0.2298786
0.2219505
0.224151
0.2261545
0.2277819
0.2294728
0.2196057
0.2216859
0.223614
0.2252985
0.2267216
0.2287866
0.1895466
0.2300949
0.2288421
0.2301174
0.2270063
0.2288254
0.2300877
0.224578
0.2268746
0.2286115
0.2299433
0.2221064
0.2243507
0.2264081
0.2280346
0.2295925
0.2197137
0.2218324
0.2238048
0.2255287
0.226971
0.2289136
0.217479
0.2194616
0.2213131
0.2229364
0.2242928
0.2254736
0.227836
0.1909428
0.1879593
0.1893257
0.2300684
0.2287918
0.2300993
0.2270063
0.2288254
0.2300877
0.2246612
0.2269773
0.2286923
0.229977
0.2222453
0.2245245
0.2266296
0.2282418
0.2296861
0.2198618
0.2220248
0.2240526
0.2258285
0.227286
0.2290772
0.2175814
0.2196007
0.2214962
0.2231607
0.2245559
0.2257685
0.2280023
0.2154554
0.2173425
0.2191058
0.2206595
0.2219192
0.2228994
0.2237651
0.2263559
0.1937625
0.1892091
0.1907168
0.1875545
0.1877574
0.1888846
0.2300363
0.2287015
0.2300652
0.2269207
0.2287646
0.2300639
0.2246612
0.2269773
0.2286923
0.229977
0.2223254
0.2246236
0.2267557
0.2283537
0.2297363
0.2199937
0.2221919
0.2242661
0.2260868
0.2275492
0.2292122
0.2177218
0.2197832
0.2217334
0.2234525
0.2248999
0.2261464
0.2282283
0.2155525
0.2174743
0.2192793
0.2208729
0.2221688
0.2231916
0.2241121
0.2266
0.2135271
0.2153258
0.2170054
0.2184829
0.2196831
0.2205306
0.2210822
0.2215246
0.2240875
0.1981079
0.1917274
0.1935187
0.1887138
0.1890033
0.1902668
0.1873776
0.1873685
0.1873541
0.1882247
0.2300112
0.2285947
0.2300218
0.2267727
0.228653
0.230017
0.224578
0.2268746
0.2286115
0.2299433
0.2223254
0.2246236
0.2267557
0.2283537
0.2297363
0.2200697
0.222287
0.2243871
0.2262342
0.2276948
0.2292872
0.2178466
0.2199416
0.2219372
0.2237039
0.2251966
0.2264659
0.2284219
0.2156855
0.2176472
0.2195037
0.2211496
0.2224963
0.2235775
0.2245622
0.2269338
0.2136194
0.2154508
0.2171698
0.2186843
0.219918
0.2208
0.2214084
0.2219558
0.2245413
0.2116855
0.213404
0.215006
0.2164155
0.2175537
0.2183575
0.2187511
0.2188078
0.2186604
0.2205523
0.2043838
0.1955912
0.1977964
0.1910491
0.1915075
0.1930392
0.1884595
0.1885245
0.1885935
0.1895962
0.1871788
0.1872045
0.1869972
0.1867507
0.1873476
0.2285123
0.2299855
0.2266076
0.2285155
0.2299548
0.2244339
0.2266951
0.228461
0.2298786
0.2222453
0.2245245
0.2266296
0.2282418
0.2296861
0.2200697
0.222287
0.2243871
0.2262342
0.2276948
0.2292872
0.2179186
0.2200318
0.2220525
0.2238464
0.2253646
0.2266446
0.2285312
0.2158039
0.2177972
0.2196965
0.2213875
0.2227799
0.2239118
0.2249452
0.2272177
0.2137459
0.2156147
0.2173822
0.2189454
0.2202253
0.2211577
0.2218423
0.2225097
0.2250899
0.2117735
0.2135229
0.2151618
0.2166062
0.2177748
0.2186088
0.2190453
0.2191994
0.2192859
0.2216413
0.2099225
0.2115682
0.2131001
0.2144461
0.2155359
0.2162948
0.2166683
0.2165631
0.2160202
0.2149897
0.2145978
0.2011268
0.2037415
0.19463
0.1953158
0.1972164
0.1906385
0.1908473
0.1910746
0.1923355
0.1881957
0.1882834
0.1881475
0.1879822
0.1887083
0.1868549
0.1870163
0.1868587
0.1864414
0.185948
0.186082
0.2264884
0.2284025
0.2299018
0.2242724
0.2264903
0.2282716
0.2297917
0.2221064
0.2243507
0.2264081
0.2280346
0.2295925
0.2199937
0.2221919
0.2242661
0.2260868
0.2275492
0.2292122
0.2179186
0.2200318
0.2220525
0.2238464
0.2253646
0.2266446
0.2285312
0.2158721
0.2178826
0.2198055
0.2215221
0.2229411
0.2241012
0.22516
0.2273765
0.2138584
0.2157568
0.2175645
0.2191696
0.2204909
0.2214694
0.2222186
0.2229755
0.2255214
0.2118941
0.2136787
0.2153632
0.216853
0.2180637
0.2189413
0.2194393
0.2197125
0.2200265
0.2226154
0.2100066
0.2116815
0.2132483
0.214627
0.2157451
0.2165306
0.2169413
0.2169145
0.2165858
0.2161675
0.2177537
0.208231
0.2098104
0.2112784
0.2125679
0.2136111
0.2143445
0.2146939
0.2146013
0.2139234
0.2125653
0.2099964
0.2116255
0.1997556
0.2005746
0.2027845
0.1939785
0.1943776
0.194801
0.1964125
0.1902434
0.1904509
0.1904498
0.1904381
0.1914181
0.1878149
0.1880304
0.1879325
0.1875851
0.1871721
0.1874317
0.1864362
0.1867014
0.1866916
0.186341
0.1857021
0.1847895
0.1858211
0.2241548
0.2263369
0.228115
0.2297181
0.2219505
0.224151
0.2261545
0.2277819
0.2294728
0.2198618
0.2220248
0.2240526
0.2258285
0.227286
0.2290772
0.2178466
0.2199416
0.2219372
0.2237039
0.2251966
0.2264659
0.2284219
0.2158721
0.2178826
0.2198055
0.2215221
0.2229411
0.2241012
0.22516
0.2273765
0.2139233
0.2158378
0.2176676
0.2192965
0.2206414
0.2216469
0.2224318
0.2232347
0.2257523
0.2120013
0.2138138
0.215536
0.2170649
0.2183131
0.2192303
0.2197833
0.2201504
0.2206175
0.2232772
0.2101218
0.21183
0.2134398
0.214861
0.2160181
0.2168423
0.2173058
0.217378
0.2172623
0.2172665
0.2194223
0.2083115
0.2099187
0.2114198
0.21274
0.2138097
0.2145677
0.2149499
0.2149279
0.2144381
0.2136458
0.2129235
0.2153404
0.2066048
0.2081237
0.2095336
0.210771
0.211774
0.2124799
0.2128295
0.2127387
0.2121162
0.2106896
0.207957
0.207487
0.2093135
0.198757
0.1992488
0.1997459
0.2016711
0.1933818
0.1937442
0.1939059
0.1940844
0.1954186
0.1897481
0.1900675
0.1900814
0.1898654
0.1896067
0.1901168
0.1873467
0.1876589
0.187701
0.187409
0.1868397
0.1860067
0.1871686
0.1859331
0.1862906
0.1863948
0.1862055
0.1856523
0.1846347
0.1845507
0.185558
0.2218368
0.2239992
0.2259616
0.2275785
0.2293747
0.2197137
0.2218324
0.2238048
0.2255287
0.226971
0.2289136
0.2177218
0.2197832
0.2217334
0.2234525
0.2248999
0.2261464
0.2282283
0.2158039
0.2177972
0.2196965
0.2213875
0.2227799
0.2239118
0.2249452
0.2272177
0.2139233
0.2158378
0.2176676
0.2192965
0.2206414
0.2216469
0.2224318
0.2232347
0.2257523
0.2120631
0.2138907
0.2156337
0.2171846
0.2184545
0.2193946
0.2199791
0.2203956
0.2209367
0.223607
0.2102242
0.2119588
0.2136041
0.2150619
0.2162535
0.2171131
0.2176231
0.2177754
0.2178066
0.2180473
0.2203854
0.2084218
0.2100607
0.2116024
0.2129628
0.2140687
0.2148623
0.2152914
0.2153572
0.2150551
0.2146551
0.2145842
0.2173675
0.2066821
0.2082274
0.2096688
0.2109353
0.2119632
0.212692
0.2130721
0.2130454
0.2125971
0.2116891
0.2106642
0.2108858
0.2132017
0.2050388
0.2065019
0.2078586
0.2090487
0.2100138
0.2106979
0.2110411
0.2109788
0.2103914
0.2090771
0.2063989
0.2056452
0.2055226
0.2074213
0.1978708
0.1982864
0.1984894
0.1987744
0.2004774
0.1927107
0.1931622
0.1933063
0.1932496
0.1931943
0.1940704
0.1891802
0.1895821
0.1897209
0.1895379
0.1891018
0.1884254
0.1898488
0.1867996
0.1871987
0.1873479
0.1872096
0.186715
0.185767
0.1857664
0.1869033
0.1853721
0.1857945
0.1859997
0.1859357
0.1855587
0.184658
0.1844147
0.1843098
0.1852927
0.2196057
0.2216859
0.223614
0.2252985
0.2267216
0.2287866
0.2175814
0.2196007
0.2214962
0.2231607
0.2245559
0.2257685
0.2280023
0.2156855
0.2176472
0.2195037
0.2211496
0.2224963
0.2235775
0.2245622
0.2269338
0.2138584
0.2157568
0.2175645
0.2191696
0.2204909
0.2214694
0.2222186
0.2229755
0.2255214
0.2120631
0.2138907
0.2156337
0.2171846
0.2184545
0.2193946
0.2199791
0.2203956
0.2209367
0.223607
0.2102833
0.2120321
0.2136969
0.2151754
0.2163869
0.217267
0.2178033
0.2179989
0.2181018
0.2184468
0.2208356
0.20852
0.2101837
0.211759
0.2131538
0.2142921
0.215118
0.2155886
0.2157242
0.2155522
0.2153741
0.2155946
0.2185085
0.206788
0.2083634
0.2098433
0.2111478
0.2122099
0.2129719
0.2133954
0.2134485
0.2131718
0.2126212
0.2122003
0.2128396
0.2154629
0.2051131
0.2066014
0.2079881
0.2092059
0.2101945
0.2109003
0.2112719
0.2112699
0.2108445
0.210015
0.2089195
0.208793
0.2090704
0.2113282
0.2035285
0.2049399
0.2062475
0.2073941
0.2083249
0.208987
0.2093284
0.2092826
0.2087556
0.2075235
0.2050487
0.2042481
0.20384
0.2039023
0.2058235
0.1969477
0.1974298
0.1975815
0.1976003
0.197724
0.1990398
0.19199
0.1925037
0.1927518
0.1926968
0.1924343
0.1919818
0.1937931
0.1885442
0.1890229
0.1892551
0.1892111
0.1888279
0.1880169
0.1881821
0.1895786
0.186199
0.1866587
0.1869038
0.1868839
0.1865582
0.1857163
0.1855459
0.1855242
0.1866358
0.1847659
0.1852398
0.1855177
0.1855642
0.1853248
0.1846249
0.184453
0.1841928
0.1840669
0.1850251
0.217479
0.2194616
0.2213131
0.2229364
0.2242928
0.2254736
0.227836
0.2155525
0.2174743
0.2192793
0.2208729
0.2221688
0.2231916
0.2241121
0.2266
0.2137459
0.2156147
0.2173822
0.2189454
0.2202253
0.2211577
0.2218423
0.2225097
0.2250899
0.2120013
0.2138138
0.215536
0.2170649
0.2183131
0.2192303
0.2197833
0.2201504
0.2206175
0.2232772
0.2102833
0.2120321
0.2136969
0.2151754
0.2163869
0.217267
0.2178033
0.2179989
0.2181018
0.2184468
0.2208356
0.2085765
0.2102538
0.2118476
0.2132617
0.2144186
0.2152632
0.2157574
0.2159301
0.2158223
0.2157427
0.2160818
0.2190319
0.2068821
0.2084812
0.209993
0.2113301
0.2124225
0.2132147
0.2136763
0.213793
0.2136335
0.2132845
0.2131359
0.2139894
0.2167396
0.2052149
0.2067319
0.2081553
0.2094092
0.2104301
0.2111672
0.2115794
0.2116521
0.2113859
0.2108877
0.2103471
0.2106042
0.2112178
0.2137232
0.2036
0.2050356
0.2063718
0.2075448
0.2084979
0.2091806
0.209549
0.2095599
0.2091861
0.2084089
0.2074168
0.2071818
0.20713
0.2074714
0.2097014
0.2020698
0.2034332
0.2046953
0.2058017
0.2067006
0.207343
0.2076795
0.2076534
0.2071692
0.2060374
0.2037227
0.2030304
0.2025707
0.2023556
0.2025216
0.2042454
0.1960081
0.196532
0.1967693
0.1967567
0.1966406
0.1964487
0.1987455
0.1912178
0.1917938
0.1921167
0.1921806
0.1919399
0.191324
0.1917324
0.1935142
0.1878641
0.1883945
0.1887129
0.188774
0.1885451
0.1878189
0.1877933
0.1879368
0.1893064
0.185557
0.1860646
0.1863781
0.1864638
0.1862688
0.1856206
0.1855105
0.185323
0.1852799
0.1863661
0.1841288
0.1846393
0.1849755
0.1851031
0.1849847
0.1844428
0.1844324
0.1842463
0.183969
0.183822
0.1846987
0.2154554
0.2173425
0.2191058
0.2206595
0.2219192
0.2228994
0.2237651
0.2263559
0.2136194
0.2154508
0.2171698
0.2186843
0.219918
0.2208
0.2214084
0.2219558
0.2245413
0.2118941
0.2136787
0.2153632
0.216853
0.2180637
0.2189413
0.2194393
0.2197125
0.2200265
0.2226154
0.2102242
0.2119588
0.2136041
0.2150619
0.2162535
0.2171131
0.2176231
0.2177754
0.2178066
0.2180473
0.2203854
0.2085765
0.2102538
0.2118476
0.2132617
0.2144186
0.2152632
0.2157574
0.2159301
0.2158223
0.2157427
0.2160818
0.2190319
0.2069364
0.2085483
0.2100776
0.211433
0.2125429
0.2133525
0.2138357
0.2139864
0.2138839
0.2136247
0.2135876
0.2145321
0.2173214
0.2053054
0.206845
0.2082987
0.2095835
0.2106332
0.2113986
0.2118465
0.2119783
0.2118207
0.2115075
0.2112154
0.2116711
0.2124765
0.2150903
0.203698
0.205161
0.2065323
0.2077396
0.2087235
0.2094358
0.2098426
0.2099239
0.2096999
0.2092327
0.2087569
0.2088681
0.2091237
0.2097328
0.2121551
0.2021388
0.2035254
0.2048149
0.2059465
0.2068666
0.2075285
0.2078907
0.2079187
0.2075794
0.2068781
0.205959
0.2057873
0.2056388
0.2056695
0.2060752
0.208086
0.2006594
0.201978
0.2031978
0.2042668
0.205136
0.2057594
0.206092
0.2060794
0.2056388
0.204584
0.2024336
0.2018188
0.2014573
0.2011931
0.2010951
0.2011437
0.2039251
0.195041
0.1956144
0.1959095
0.1959967
0.1958668
0.1954771
0.1961876
0.1984509
0.1904157
0.1910312
0.1914272
0.1915781
0.1914712
0.190909
0.1910957
0.1914815
0.1932336
0.1871499
0.1877212
0.1880996
0.1882568
0.1881454
0.1875985
0.187611
0.187568
0.1876896
0.1890321
0.1848871
0.1854284
0.1857967
0.1859593
0.1858804
0.1853835
0.1854273
0.1853029
0.1850982
0.1850337
0.1860371
0.1834687
0.1840074
0.1843865
0.1845798
0.1845515
0.184148
0.184261
0.1842383
0.1840378
0.1837434
0.1835231
0.1843648
0.2135271
0.2153258
0.2170054
0.2184829
0.2196831
0.2205306
0.2210822
0.2215246
0.2240875
0.2117735
0.2135229
0.2151618
0.2166062
0.2177748
0.2186088
0.2190453
0.2191994
0.2192859
0.2216413
0.2101218
0.21183
0.2134398
0.214861
0.2160181
0.2168423
0.2173058
0.217378
0.2172623
0.2172665
0.2194223
0.20852
0.2101837
0.211759
0.2131538
0.2142921
0.215118
0.2155886
0.2157242
0.2155522
0.2153741
0.2155946
0.2185085
0.2069364
0.2085483
0.2100776
0.211433
0.2125429
0.2133525
0.2138357
0.2139864
0.2138839
0.2136247
0.2135876
0.2145321
0.2173214
0.2053576
0.2069094
0.2083798
0.2096819
0.2107481
0.2115299
0.2119981
0.2121612
0.2120565
0.2118248
0.2116344
0.2121753
0.213065
0.2157128
0.2037852
0.2052698
0.20667
0.2079067
0.2089178
0.209657
0.2100975
0.2102346
0.2101122
0.2098177
0.2095709
0.2098606
0.2102938
0.2110663
0.213568
0.2022333
0.2036462
0.2049693
0.2061336
0.207083
0.2077731
0.2081718
0.2082666
0.2080691
0.2076603
0.2072247
0.2073713
0.2074974
0.2077721
0.2083914
0.2105385
0.200726
0.2020669
0.203313
0.2044061
0.2052955
0.2059376
0.2062947
0.2063336
0.2060311
0.2053849
0.2045559
0.2044225
0.2043412
0.2042854
0.2043988
0.2046808
0.2077581
0.199294
0.2005708
0.201751
0.2027852
0.2036266
0.2042322
0.2045598
0.2045601
0.2041537
0.2031726
0.2011554
0.2006288
0.2003356
0.2001664
0.2000249
0.1998426
0.2008639
0.2036069
0.1940645
0.1946667
0.1950247
0.1951814
0.1951633
0.1947885
0.1952388
0.195926
0.1981559
0.1895908
0.1902377
0.1906825
0.1909168
0.190909
0.1905051
0.1906969
0.1908659
0.191229
0.1929514
0.1864142
0.1870133
0.1874398
0.1876657
0.1876609
0.1872521
0.1874035
0.1874015
0.187341
0.1874405
0.1886977
0.184197
0.1847639
0.1851722
0.185397
0.185404
0.1850407
0.185201
0.1852325
0.1850936
0.1848715
0.1847332
0.1857005
0.1827931
0.1833521
0.183765
0.1840079
0.1840532
0.1837551
0.1839756
0.1840776
0.1840425
0.1838276
0.183468
0.1832175
0.1841107
0.2116855
0.213404
0.215006
0.2164155
0.2175537
0.2183575
0.2187511
0.2188078
0.2186604
0.2205523
0.2100066
0.2116815
0.2132483
0.214627
0.2157451
0.2165306
0.2169413
0.2169145
0.2165858
0.2161675
0.2177537
0.2084218
0.2100607
0.2116024
0.2129628
0.2140687
0.2148623
0.2152914
0.2153572
0.2150551
0.2146551
0.2145842
0.2173675
0.2068821
0.2084812
0.209993
0.2113301
0.2124225
0.2132147
0.2136763
0.213793
0.2136335
0.2132845
0.2131359
0.2139894
0.2167396
0.2053576
0.2069094
0.2083798
0.2096819
0.2107481
0.2115299
0.2119981
0.2121612
0.2120565
0.2118248
0.2116344
0.2121753
0.213065
0.2157128
0.2038354
0.2053316
0.2067478
0.208001
0.2090278
0.2097825
0.2102422
0.2104088
0.2103357
0.2101171
0.2099633
0.2103293
0.2108414
0.2116878
0.2142118
0.2023173
0.2037509
0.2051016
0.206294
0.2072694
0.207985
0.2084159
0.2085635
0.2084621
0.2082154
0.2079935
0.2083029
0.2085874
0.2090138
0.2097659
0.2119548
0.2008172
0.2021833
0.2034617
0.2045861
0.2055035
0.2061724
0.2065644
0.206667
0.2064993
0.2061302
0.2057574
0.205919
0.2060879
0.2062472
0.2065557
0.2070071
0.2102099
0.1993583
0.2006566
0.2018621
0.2029194
0.2037802
0.2044036
0.2047546
0.2048043
0.2045296
0.2039379
0.2031761
0.2030997
0.2030596
0.2030738
0.2031096
0.2031363
0.2043977
0.2074324
0.1979709
0.1992083
0.2003517
0.2013532
0.2021686
0.2027573
0.2030798
0.2030901
0.2027154
0.2017952
0.1999005
0.1994386
0.1992232
0.1991188
0.1990726
0.1988661
0.1995882
0.2005858
0.2032908
0.1930815
0.1937075
0.1941061
0.1943349
0.1943959
0.1941539
0.1945678
0.1950002
0.1956639
0.1978605
0.1887542
0.1894207
0.1899052
0.1901972
0.1902828
0.1899979
0.1903064
0.1904836
0.1906347
0.190975
0.1926079
0.1856636
0.1862832
0.1867441
0.1870258
0.1870987
0.1868139
0.187068
0.1872069
0.1871903
0.1871122
0.1871367
0.1883555
0.1834937
0.1840786
0.1845182
0.1847898
0.184867
0.1846049
0.1848676
0.185017
0.185036
0.1848826
0.184595
0.184426
0.1854444
0.1821069
0.1826809
0.1831193
0.183402
0.183504
0.183293
0.1835909
0.1838016
0.1838927
0.1838451
0.1835711
0.1831866
0.1829853
0.1839384
0.2099225
0.2115682
0.2131001
0.2144461
0.2155359
0.2162948
0.2166683
0.2165631
0.2160202
0.2149897
0.2145978
0.2083115
0.2099187
0.2114198
0.21274
0.2138097
0.2145677
0.2149499
0.2149279
0.2144381
0.2136458
0.2129235
0.2153404
0.206788
0.2083634
0.2098433
0.2111478
0.2122099
0.2129719
0.2133954
0.2134485
0.2131718
0.2126212
0.2122003
0.2128396
0.2154629
0.2053054
0.206845
0.2082987
0.2095835
0.2106332
0.2113986
0.2118465
0.2119783
0.2118207
0.2115075
0.2112154
0.2116711
0.2124765
0.2150903
0.2038354
0.2053316
0.2067478
0.208001
0.2090278
0.2097825
0.2102422
0.2104088
0.2103357
0.2101171
0.2099633
0.2103293
0.2108414
0.2116878
0.2142118
0.2023657
0.2038105
0.2051765
0.2063846
0.2073749
0.2081053
0.2085543
0.2087298
0.208675
0.2084995
0.2083641
0.2087425
0.2090973
0.209593
0.2104062
0.2126004
0.2008983
0.2022843
0.2035891
0.2047404
0.2056826
0.2063759
0.2067985
0.2069514
0.2068749
0.2066592
0.2064872
0.206799
0.2071118
0.2074051
0.2078376
0.2083913
0.2116264
0.1994465
0.200769
0.2020055
0.2030928
0.2039804
0.2046295
0.2050138
0.2051244
0.2049784
0.2046502
0.2043207
0.2045202
0.2047098
0.2049181
0.2051234
0.2053067
0.2067256
0.2098829
0.1980332
0.1992913
0.2004589
0.2014826
0.2023167
0.2029225
0.2032674
0.203325
0.2030764
0.2025282
0.2018303
0.2017912
0.2018082
0.2018653
0.2019736
0.2019436
0.2028801
0.2041163
0.207109
0.1966875
0.1978881
0.1989966
0.1999675
0.2007586
0.2013313
0.2016485
0.2016674
0.2013196
0.200455
0.1986651
0.1982623
0.1981018
0.1980704
0.1980883
0.1979889
0.1986308
0.1993355
0.2003093
0.2029768
0.1921006
0.1927402
0.1931728
0.1934503
0.193591
0.1934447
0.1939473
0.1943466
0.1947612
0.1954014
0.1975026
0.1879109
0.1885912
0.1891027
0.1894422
0.1895942
0.1894194
0.1898105
0.1901064
0.1902689
0.1904021
0.1906657
0.1922563
0.1849044
0.1855378
0.1860252
0.1863481
0.1864848
0.1862928
0.1866394
0.1868825
0.1870088
0.1869775
0.1868332
0.1868261
0.1880951
0.1827818
0.1833798
0.1838427
0.1841516
0.1842827
0.1841043
0.1844402
0.1846931
0.1848315
0.1848379
0.1846251
0.1843123
0.1841925
0.1852706
0.1814141
0.1819989
0.182457
0.1827706
0.1829189
0.1827766
0.1831363
0.1834254
0.1836262
0.1837063
0.1836043
0.183309
0.1829728
0.1828278
0.1838503
0.2043838
0.208231
0.2098104
0.2112784
0.2125679
0.2136111
0.2143445
0.2146939
0.2146013
0.2139234
0.2125653
0.2099964
0.2116255
0.2066821
0.2082274
0.2096688
0.2109353
0.2119632
0.212692
0.2130721
0.2130454
0.2125971
0.2116891
0.2106642
0.2108858
0.2132017
0.2052149
0.2067319
0.2081553
0.2094092
0.2104301
0.2111672
0.2115794
0.2116521
0.2113859
0.2108877
0.2103471
0.2106042
0.2112178
0.2137232
0.2037852
0.2052698
0.20667
0.2079067
0.2089178
0.209657
0.2100975
0.2102346
0.2101122
0.2098177
0.2095709
0.2098606
0.2102938
0.2110663
0.213568
0.2023657
0.2038105
0.2051765
0.2063846
0.2073749
0.2081053
0.2085543
0.2087298
0.208675
0.2084995
0.2083641
0.2087425
0.2090973
0.209593
0.2104062
0.2126004
0.200945
0.2023417
0.2036612
0.2048275
0.205784
0.2064914
0.2069312
0.2071108
0.2070784
0.20693
0.2068389
0.2072143
0.2075905
0.2079452
0.2084355
0.2090363
0.2122722
0.1995249
0.2008664
0.2021284
0.2032414
0.2041528
0.2048252
0.2052388
0.2053973
0.2053382
0.2051558
0.2050159
0.2053556
0.2056773
0.2060064
0.20632
0.2066004
0.2081115
0.2112993
0.1981185
0.1993999
0.2005974
0.2016499
0.2025097
0.20314
0.2035169
0.2036328
0.2035073
0.2032105
0.2029238
0.2031442
0.2033748
0.2036081
0.2038675
0.2039717
0.2050528
0.2064455
0.2095576
0.1967478
0.1979683
0.1991003
0.2000926
0.2009015
0.2014906
0.2018294
0.2018937
0.2016668
0.2011584
0.2005123
0.2005089
0.2005631
0.200677
0.2008292
0.2008842
0.201707
0.2026255
0.2038368
0.2067877
0.1954417
0.1966072
0.1976832
0.1986253
0.1993934
0.1999508
0.2002628
0.200289
0.1999651
0.1991491
0.1974541
0.1970981
0.1969871
0.1970058
0.1970944
0.1970677
0.1977689
0.1983971
0.1990844
0.2000346
0.2025993
0.1911249
0.1917736
0.192229
0.1925474
0.192743
0.1926902
0.19325
0.1937403
0.1941251
0.1945218
0.1950832
0.1971361
0.1870662
0.1877545
0.1882865
0.18866
0.188867
0.1887732
0.1892419
0.1896219
0.1899052
0.1900529
0.1901189
0.1903493
0.1919887
0.1841408
0.1847835
0.1852901
0.1856457
0.1858306
0.1857158
0.1861268
0.1864635
0.1866956
0.1868092
0.1867181
0.186548
0.1865899
0.1879183
0.1820651
0.1826721
0.1831529
0.1834906
0.1836655
0.183553
0.1839471
0.1842741
0.1845172
0.1846444
0.1845962
0.184362
0.1840976
0.1840341
0.1851818
0.1807176
0.1813099
0.1817831
0.1821215
0.1823066
0.1822215
0.1826267
0.1829782
0.1832584
0.1834494
0.1834788
0.1833582
0.18311
0.1828279
0.1827474
0.1981079
0.2011268
0.2037415
0.2066048
0.2081237
0.2095336
0.210771
0.211774
0.2124799
0.2128295
0.2127387
0.2121162
0.2106896
0.207957
0.207487
0.2093135
0.2051131
0.2066014
0.2079881
0.2092059
0.2101945
0.2109003
0.2112719
0.2112699
0.2108445
0.210015
0.2089195
0.208793
0.2090704
0.2113282
0.203698
0.205161
0.2065323
0.2077396
0.2087235
0.2094358
0.2098426
0.2099239
0.2096999
0.2092327
0.2087569
0.2088681
0.2091237
0.2097328
0.2121551
0.2023173
0.2037509
0.2051016
0.206294
0.2072694
0.207985
0.2084159
0.2085635
0.2084621
0.2082154
0.2079935
0.2083029
0.2085874
0.2090138
0.2097659
0.2119548
0.200945
0.2023417
0.2036612
0.2048275
0.205784
0.2064914
0.2069312
0.2071108
0.2070784
0.20693
0.2068389
0.2072143
0.2075905
0.2079452
0.2084355
0.2090363
0.2122722
0.19957
0.2009219
0.2021979
0.2033254
0.2042503
0.2049363
0.2053663
0.2055503
0.2055333
0.2054145
0.205351
0.2057499
0.2061297
0.2065139
0.206878
0.207204
0.2087573
0.211945
0.1981943
0.1994941
0.200716
0.2017933
0.2026758
0.2033285
0.2037335
0.2038953
0.2038528
0.2036948
0.2035881
0.20394
0.2042933
0.2046366
0.2049927
0.2051804
0.2063486
0.2078327
0.2109734
0.1968304
0.1980735
0.1992341
0.2002542
0.2010877
0.2017004
0.2020699
0.2021902
0.2020811
0.2018133
0.2015593
0.2018014
0.2020551
0.2023314
0.202619
0.2027922
0.2037376
0.2048002
0.2061668
0.2092339
0.1955002
0.196685
0.1977835
0.1987462
0.1995316
0.2001047
0.2004374
0.2005072
0.2002995
0.1998252
0.1992259
0.1992484
0.1993374
0.1994876
0.1996959
0.1998037
0.2006631
0.2014719
0.2023726
0.2035592
0.2064015
0.1942309
0.1953639
0.1964088
0.1973239
0.1980703
0.1986133
0.1989199
0.1989523
0.1986498
0.1978775
0.1962669
0.1959521
0.1958785
0.1959417
0.196078
0.1961283
0.1968605
0.1975503
0.1981648
0.1988348
0.1997041
0.2022129
0.1901579
0.1908109
0.1912838
0.191631
0.191873
0.1918867
0.1925058
0.193055
0.1935329
0.1939033
0.1942315
0.1947577
0.1968572
0.1862233
0.1869158
0.1874619
0.1878622
0.18811
0.1880838
0.1886043
0.1890632
0.1894322
0.1897028
0.18979
0.1898293
0.1901088
0.1918069
0.1833759
0.1840243
0.1845452
0.1849256
0.1851496
0.1850951
0.1855574
0.1859595
0.1862863
0.1865072
0.1865658
0.1864529
0.1863313
0.1864297
0.1878279
0.1813462
0.1819593
0.1824535
0.1828142
0.1830237
0.1829659
0.1834026
0.1837886
0.1841066
0.1843398
0.1844162
0.1843493
0.1841622
0.1839521
0.1839533
0.1800196
0.1806169
0.1811017
0.18146
0.1816751
0.1816368
0.1820777
0.1824755
0.1828189
0.18309
0.1832336
0.1832464
0.1831714
0.1829753
0.1827541
0.1937625
0.1955912
0.1977964
0.1997556
0.2005746
0.2027845
0.2050388
0.2065019
0.2078586
0.2090487
0.2100138
0.2106979
0.2110411
0.2109788
0.2103914
0.2090771
0.2063989
0.2056452
0.2055226
0.2074213
0.2036
0.2050356
0.2063718
0.2075448
0.2084979
0.2091806
0.209549
0.2095599
0.2091861
0.2084089
0.2074168
0.2071818
0.20713
0.2074714
0.2097014
0.2022333
0.2036462
0.2049693
0.2061336
0.207083
0.2077731
0.2081718
0.2082666
0.2080691
0.2076603
0.2072247
0.2073713
0.2074974
0.2077721
0.2083914
0.2105385
0.2008983
0.2022843
0.2035891
0.2047404
0.2056826
0.2063759
0.2067985
0.2069514
0.2068749
0.2066592
0.2064872
0.206799
0.2071118
0.2074051
0.2078376
0.2083913
0.2116264
0.19957
0.2009219
0.2021979
0.2033254
0.2042503
0.2049363
0.2053663
0.2055503
0.2055333
0.2054145
0.205351
0.2057499
0.2061297
0.2065139
0.206878
0.207204
0.2087573
0.211945
0.198238
0.1995477
0.2007831
0.2018743
0.2027699
0.2034355
0.2038562
0.2040424
0.20404
0.2039427
0.2039083
0.2043156
0.2047227
0.2051161
0.2055172
0.2057443
0.2069532
0.2084793
0.211619
0.1969038
0.1981646
0.1993488
0.2003927
0.2012481
0.2018822
0.2022786
0.2024429
0.2024134
0.2022782
0.2021955
0.2025617
0.20293
0.2033079
0.2036825
0.2039292
0.2049485
0.2060978
0.2075551
0.2106488
0.1955802
0.1967868
0.197913
0.1989024
0.1997115
0.2003073
0.2006695
0.2007931
0.2006986
0.2004548
0.2002305
0.2004859
0.2007625
0.2010633
0.2013951
0.2016072
0.2025736
0.2035047
0.2045489
0.2058896
0.2088442
0.1942876
0.1954393
0.196506
0.197441
0.1982039
0.1987621
0.1990886
0.1991631
0.1989723
0.1985284
0.1979694
0.1980145
0.1981281
0.1983116
0.1985551
0.1987254
0.1995956
0.2004434
0.2012384
0.2021214
0.2032253
0.2060062
0.193054
0.1941554
0.1951715
0.1960608
0.1967869
0.197316
0.1976174
0.1976551
0.1973718
0.1966389
0.1951049
0.1948244
0.1947832
0.1948789
0.1950569
0.1951598
0.1959322
0.1966546
0.1973331
0.197934
0.1985346
0.1993659
0.2019188
0.1892017
0.189856
0.1903407
0.1907109
0.1909862
0.1910564
0.1917114
0.1923211
0.1928596
0.1933253
0.1936343
0.1939347
0.1945101
0.1966677
0.1853847
0.1860784
0.1866344
0.1870546
0.1873352
0.187361
0.1879227
0.1884344
0.1888834
0.1892413
0.1894564
0.1895212
0.1896093
0.1899456
0.191714
0.1826122
0.1832636
0.1837948
0.1841947
0.1844493
0.1844446
0.1849436
0.1853978
0.1857909
0.1861077
0.1862775
0.1863171
0.1862515
0.1861844
0.186348
0.1806274
0.181244
0.1817484
0.1821272
0.182365
0.1823519
0.1828217
0.1832509
0.1836287
0.1839378
0.1841233
0.1841831
0.1841619
0.184027
0.1838779
0.179322
0.1799223
0.1804159
0.18079
0.1810299
0.1810308
0.1814987
0.1819327
0.182323
0.1826582
0.1828846
0.1830132
0.1830701
0.183045
0.1829066
0.1909428
0.1917274
0.1935187
0.19463
0.1953158
0.1972164
0.198757
0.1992488
0.1997459
0.2016711
0.2035285
0.2049399
0.2062475
0.2073941
0.2083249
0.208987
0.2093284
0.2092826
0.2087556
0.2075235
0.2050487
0.2042481
0.20384
0.2039023
0.2058235
0.2021388
0.2035254
0.2048149
0.2059465
0.2068666
0.2075285
0.2078907
0.2079187
0.2075794
0.2068781
0.205959
0.2057873
0.2056388
0.2056695
0.2060752
0.208086
0.2008172
0.2021833
0.2034617
0.2045861
0.2055035
0.2061724
0.2065644
0.206667
0.2064993
0.2061302
0.2057574
0.205919
0.2060879
0.2062472
0.2065557
0.2070071
0.2102099
0.1995249
0.2008664
0.2021284
0.2032414
0.2041528
0.2048252
0.2052388
0.2053973
0.2053382
0.2051558
0.2050159
0.2053556
0.2056773
0.2060064
0.20632
0.2066004
0.2081115
0.2112993
0.198238
0.1995477
0.2007831
0.2018743
0.2027699
0.2034355
0.2038562
0.2040424
0.20404
0.2039427
0.2039083
0.2043156
0.2047227
0.2051161
0.2055172
0.2057443
0.2069532
0.2084793
0.211619
0.1969462
0.1982164
0.1994136
0.2004708
0.2013388
0.2019853
0.2023969
0.2025845
0.2025934
0.2025161
0.2025022
0.2029206
0.2033392
0.2037632
0.2041783
0.2044595
0.2055134
0.2067033
0.2082021
0.2112939
0.1956514
0.196875
0.198024
0.1990363
0.1998664
0.2004829
0.2008709
0.2010369
0.2010186
0.2009018
0.200841
0.2012139
0.2015984
0.2019934
0.2024048
0.2026821
0.2037128
0.2047175
0.205848
0.2072785
0.2102574
0.1943653
0.195538
0.1966314
0.1975922
0.198378
0.198958
0.199313
0.1994392
0.1993572
0.1991347
0.1989349
0.1992017
0.1994925
0.1998166
0.2001734
0.2004378
0.2014016
0.2023562
0.2032731
0.204299
0.2055557
0.2084452
0.1931091
0.1942286
0.1952658
0.1961743
0.1969163
0.19746
0.1977806
0.1978588
0.1976832
0.1972665
0.1967433
0.196806
0.1969408
0.1971473
0.1974224
0.1976329
0.1985285
0.1993889
0.2002253
0.2010066
0.2018195
0.2028836
0.2057052
0.191908
0.1929807
0.1939688
0.1948342
0.1955406
0.1960568
0.1963529
0.1963953
0.1961291
0.1954323
0.1939678
0.1937173
0.193702
0.1938252
0.194033
0.1941815
0.1949734
0.1957373
0.1964501
0.1971173
0.1976564
0.1982277
0.1991088
0.201719
0.1882577
0.188911
0.1894039
0.1897907
0.190093
0.1902056
0.1908893
0.1915358
0.1921361
0.1926639
0.1930735
0.1933594
0.1937092
0.1943421
0.1965708
0.1845522
0.185245
0.1858075
0.1862427
0.1865486
0.1866175
0.187207
0.1877607
0.1882634
0.1887026
0.1890089
0.1892046
0.1893171
0.1894602
0.1898622
0.1818513
0.1825037
0.1830423
0.1834572
0.1837365
0.1837723
0.1842994
0.1847909
0.1852369
0.185621
0.1858899
0.1860428
0.1861283
0.1861151
0.1861095
0.1799102
0.1805286
0.1810404
0.1814337
0.1816946
0.1817188
0.1822134
0.1826764
0.183098
0.1834676
0.1837318
0.1839023
0.1840062
0.184035
0.1839581
0.1786261
0.1792278
0.179728
0.1801149
0.1803752
0.1804092
0.1808979
0.1813595
0.1817866
0.1821692
0.1824621
0.1826749
0.182846
0.1829508
0.1829806
0.1895466
0.1892091
0.1907168
0.1910491
0.1915075
0.1930392
0.1939785
0.1943776
0.194801
0.1964125
0.1978708
0.1982864
0.1984894
0.1987744
0.2004774
0.2020698
0.2034332
0.2046953
0.2058017
0.2067006
0.207343
0.2076795
0.2076534
0.2071692
0.2060374
0.2037227
0.2030304
0.2025707
0.2023556
0.2025216
0.2042454
0.200726
0.2020669
0.203313
0.2044061
0.2052955
0.2059376
0.2062947
0.2063336
0.2060311
0.2053849
0.2045559
0.2044225
0.2043412
0.2042854
0.2043989
0.2046808
0.2077581
0.1994465
0.200769
0.2020055
0.2030928
0.2039804
0.2046295
0.2050138
0.2051244
0.2049784
0.2046502
0.2043207
0.2045202
0.2047098
0.2049181
0.2051234
0.2053067
0.2067256
0.2098829
0.1981943
0.1994941
0.200716
0.2017933
0.2026758
0.2033285
0.2037335
0.2038953
0.2038528
0.2036948
0.2035881
0.20394
0.2042933
0.2046366
0.2049927
0.2051804
0.2063486
0.2078327
0.2109734
0.1969462
0.1982164
0.1994136
0.2004708
0.2013388
0.2019853
0.2023969
0.2025845
0.2025934
0.2025161
0.2025022
0.2029206
0.2033392
0.2037632
0.2041783
0.2044595
0.2055134
0.2067033
0.2082021
0.2112939
0.1956925
0.1969252
0.1980868
0.1991119
0.1999541
0.2005825
0.2009851
0.2011734
0.201192
0.2011305
0.2011354
0.2015577
0.2019893
0.2024272
0.2028755
0.2031834
0.2042441
0.2052834
0.2064543
0.2079259
0.2109018
0.1944344
0.1956235
0.196739
0.1977218
0.1985278
0.1991277
0.1995075
0.1996745