/*--------------------------------*- C++ -*----------------------------------*\
| =========                 |                                                 |
| \\      /  F ield         | OpenFOAM: The Open Source CFD Toolbox           |
|  \\    /   O peration     | Version:  2306                                  |
|   \\  /    A nd           | Website:  www.openfoam.com                      |
|    \\/     M anipulation  |                                                 |
\*---------------------------------------------------------------------------*/
FoamFile
{
    version     2.0;
    format      ascii;
    arch        "LSB;label=32;scalar=64";
    class       volVectorField;
    location    "1.5/air";
    object      U;
}
// * * * * * * * * * * * * * * * * * * * * * * * * * * * * * * * * * * * * * //

dimensions      [0 1 -1 0 0 0 0];

internalField   nonuniform List<vector> 
16000
(
(0.4305691 0.06210511 -0.06224416)
(0.7565674 0.1168485 -0.09603199)
(0.4572822 0.005141743 -0.004961585)
(0.7567469 0.09559439 -0.1183751)
(0.8985978 0.1001608 -0.09630649)
(0.8948024 0.01270653 -0.009269371)
(1.491714 0.1959123 -0.1998833)
(0.331749 -0.001764306 0.001787114)
(0.8950709 0.009455887 -0.01213362)
(0.8991223 0.09562451 -0.1042187)
(0.9608717 0.06299768 -0.09390758)
(1.129913 0.01296885 -0.009613031)
(1.862692 0.1830256 -0.2191674)
(0.685557 -0.002461455 0.003019746)
(1.964272 0.02505188 -0.02465161)
(1.863554 0.2133184 -0.1927995)
(0.3866271 0.001084224 -0.001080671)
(0.6858231 -0.002995113 0.002534446)
(1.131198 0.00975147 -0.01225268)
(0.9618244 0.09300574 -0.07044182)
(0.981615 0.02151036 -0.09263565)
(1.259533 0.008573679 -0.00924551)
(2.035116 0.1211259 -0.2203391)
(0.8956183 -0.002314839 0.003276515)
(2.592623 0.03002002 -0.03109792)
(2.344903 0.212577 -0.2268298)
(0.7875456 0.001793296 -0.001934646)
(1.575598 -0.004413585 0.004462959)
(2.59513 0.0308613 -0.03012275)
(2.037324 0.212873 -0.1383773)
(0.3563201 -0.0005521477 0.0005618614)
(0.7877904 0.001903662 -0.001901029)
(0.8969179 -0.003269745 0.002383451)
(1.263156 0.009288771 -0.008041863)
(0.9830963 0.09139342 -0.03306281)
(0.981615 -0.02151036 -0.09263565)
(1.319731 0.002818673 -0.008909834)
(2.08567 0.04233559 -0.2205208)
(1.016311 -0.001598046 0.003415722)
(2.949666 0.02271763 -0.03249902)
(2.57897 0.1451312 -0.2329927)
(1.020621 0.001737776 -0.002106255)
(2.148842 -0.004299474 0.005424056)
(3.534903 0.03490098 -0.03622158)
(2.581223 0.215384 -0.1696046)
(0.7325027 -0.0009740038 0.0009594147)
(1.788324 0.00304219 -0.003417688)
(2.151365 -0.005520662 0.004262137)
(2.958623 0.03146996 -0.02393251)
(2.088734 0.211447 -0.06827517)
(0.3734188 0.0003571256 -0.0003474004)
(0.7327369 -0.0009802739 0.0009016928)
(1.02186 0.002042464 -0.002103771)
(1.019873 -0.003448677 0.001534918)
(1.327778 0.008828745 -0.002834602)
(0.9848216 0.09081682 0.005106544)
(0.0004572901 -0.001236791 -0.0005922897)
(0.9608717 -0.06299768 -0.09390758)
(1.319731 -0.002818673 -0.008909834)
(2.08567 -0.04233559 -0.2205208)
(1.072798 -0.0005876118 0.003530634)
(3.126367 0.008018609 -0.03006816)
(2.667256 0.05098855 -0.2323767)
(1.154331 0.001118034 -0.002102043)
(2.492511 -0.002943263 0.006043156)
(4.074839 0.02783624 -0.03938876)
(2.850057 0.1493259 -0.1785077)
(0.95475 -0.0009678724 0.00102622)
(2.420508 0.003016942 -0.00379015)
(2.99588 -0.005689257 0.005373008)
(4.083332 0.03661352 -0.03092605)
(2.673852 0.211896 -0.08618575)
(0.7640789 0.0005802817 -0.000644624)
(1.677884 -0.001845911 0.001533739)
(2.422986 0.00317838 -0.003997404)
(2.501178 -0.006404111 0.002611955)
(3.148737 0.02792306 -0.01060092)
(2.092409 0.2097015 0.007546596)
(0.3638706 -0.0001502693 0.0001611591)
(0.7643175 0.0006202435 -0.0006631735)
(0.9559372 -0.001078705 0.0006779392)
(1.157795 0.002003774 -0.001875537)
(1.080303 -0.003645024 0.0001564866)
(1.334589 0.008639502 0.001711288)
(0.9693479 0.09131463 0.04111816)
(0.0004723199 -0.003579489 -0.0006122068)
(0.0004818421 -0.001092857 -0.00054252)
(0.0004607483 -0.001239505 -0.001150741)
(0.8985978 -0.1001608 -0.09630649)
(1.259533 -0.00857368 -0.00924551)
(2.035116 -0.1211259 -0.2203391)
(1.072798 0.0005876116 0.003530634)
(3.126367 -0.008018609 -0.03006816)
(2.667256 -0.05098855 -0.2323767)
(1.215983 0.0003744756 -0.002083409)
(2.654199 -0.001095523 0.006429874)
(4.323504 0.01051083 -0.03950768)
(2.955643 0.05293431 -0.1797461)
(1.083815 -0.0006464867 0.001031492)
(2.795319 0.001983287 -0.003720429)
(3.513779 -0.003731839 0.006092833)
(4.737474 0.02938969 -0.03443503)
(2.961379 0.1473652 -0.09336682)
(0.9930785 0.0005621929 -0.0007256617)
(2.283547 -0.001959338 0.001727962)
(3.348484 0.003115382 -0.004549337)
(3.522193 -0.006832535 0.003026254)
(4.348878 0.03513135 -0.01560901)
(2.683557 0.2092174 0.005708197)
(0.7466085 -0.0002687034 0.0002508802)
(1.742469 0.0009413366 -0.001289788)
(2.285928 -0.002266811 0.001108002)
(2.803922 0.002876558 -0.00378173)
(2.673974 -0.007230475 0.00011236)
(3.169695 0.02639342 0.003465048)
(2.057257 0.2073328 0.07869858)
(0.3689962 0.0001311159 -0.0001211549)
(0.7468449 -0.000270024 0.0002035268)
(0.9942832 0.0006668881 -0.0008852515)
(1.087138 -0.001116891 1.711491e-05)
(1.223386 0.001926941 -0.001685182)
(1.086268 -0.003802609 -0.001807144)
(1.283685 0.008577781 0.005631109)
(0.9181926 0.09317477 0.0725493)
(0.0004992045 -0.006456373 -0.000657327)
(0.0005033578 -0.003164172 -0.0005586458)
(0.0004758091 -0.003593446 -0.001198399)
(0.000329179 -0.001028075 -0.0005009913)
(0.0004837335 -0.001095872 -0.001053723)
(0.0004581738 -0.001232347 -0.00314555)
(0.7565674 -0.1168485 -0.09603199)
(1.129913 -0.01296885 -0.009613031)
(1.862692 -0.1830256 -0.2191674)
(1.016311 0.001598045 0.003415722)
(2.949666 -0.02271763 -0.03249902)
(2.57897 -0.1451312 -0.2329927)
(1.215983 -0.0003744755 -0.002083409)
(2.654199 0.001095523 0.006429874)
(4.323504 -0.01051083 -0.03950768)
(2.955643 -0.05293431 -0.1797461)
(1.143754 -0.0002244729 0.001034227)
(2.970325 0.0006725865 -0.003605719)
(3.759319 -0.00129509 0.006433179)
(5.036633 0.01112042 -0.03514807)
(3.074452 0.05237958 -0.09541483)
(1.12534 0.000360448 -0.0007426289)
(2.646618 -0.001380483 0.001813207)
(3.910225 0.002032816 -0.004500782)
(4.15697 -0.004505807 0.003364732)
(5.055583 0.0283921 -0.0182541)
(2.973552 0.1452198 0.003084691)
(0.9720396 -0.0002608097 0.0002477359)
(2.364984 0.0009302415 -0.001542132)
(3.176089 -0.002516876 0.001221554)
(3.918678 0.002692222 -0.004453564)
(3.784084 -0.007786369 -4.283875e-05)
(4.376389 0.03358062 0.003589193)
(2.616583 0.2077061 0.09241232)
(0.7560161 0.0002118273 -0.0002451514)
(1.70711 -0.0005478223 0.0002472968)
(2.367394 0.000946745 -0.001874288)
(2.654891 -0.002570304 -0.0002055253)
(2.990063 0.002437122 -0.003507497)
(2.690984 -0.007935858 -0.003303211)
(3.019154 0.02747863 0.01557293)
(1.918138 0.2040152 0.1353139)
(0.3659038 -2.908313e-05 3.886831e-05)
(0.7562536 0.0002251873 -0.000279544)
(0.9732314 -0.0002985356 -1.409634e-05)
(1.128706 0.0006500891 -0.001050887)
(1.150864 -0.001172708 -0.0008853496)
(1.229584 0.001806223 -0.001764661)
(1.038193 -0.003970654 -0.004160082)
(1.16831 0.008615352 0.008064356)
(0.7961844 0.09426807 0.08103362)
(0.0005486044 -0.008464216 -0.001010248)
(0.0005421349 -0.005683865 -0.0005956519)
(0.0005027147 -0.006368059 -0.00129332)
(0.0003434957 -0.002976552 -0.0005155135)
(0.0005052691 -0.003178459 -0.001092829)
(0.0004730553 -0.003561073 -0.003215412)
(0.0004857497 -0.0009534425 -0.0004678155)
(0.0003300231 -0.001031311 -0.0009732666)
(0.0004799724 -0.001090346 -0.002882257)
(0.0004501155 -0.001205596 -0.001075242)
(0.4305691 -0.06210511 -0.06224416)
(0.8948024 -0.01270653 -0.009269371)
(1.491714 -0.1959123 -0.1998833)
(0.8956183 0.002314839 0.003276515)
(2.592623 -0.03002002 -0.03109792)
(2.344903 -0.212577 -0.2268298)
(1.154331 -0.001118034 -0.002102043)
(2.492511 0.002943263 0.006043156)
(4.074839 -0.02783624 -0.03938876)
(2.850057 -0.1493259 -0.1785077)
(1.143754 0.0002244729 0.001034227)
(2.970325 -0.0006725863 -0.003605719)
(3.759319 0.00129509 0.006433179)
(5.036633 -0.01112042 -0.03514807)
(3.074452 -0.05237958 -0.09541483)
(1.186583 0.0001215153 -0.0007470584)
(2.81727 -0.0004909611 0.001856342)
(4.175406 0.0006886056 -0.004361352)
(4.459722 -0.001537838 0.003574059)
(5.379647 0.01077336 -0.01920148)
(3.087548 0.05157798 0.00133243)
(1.102698 -0.0001724146 0.0002364865)
(2.736332 0.0006058213 -0.001618292)
(3.72206 -0.001835014 0.00129229)
(4.605515 0.00168362 -0.004492296)
(4.478857 -0.005267532 -1.392572e-05)
(5.088311 0.02718584 0.002502669)
(2.891565 0.1434975 0.09405488)
(0.9834043 0.000210758 -0.0002918081)
(2.320797 -0.0005772683 0.0001910246)
(3.280481 0.0009099825 -0.002344784)
(3.730205 -0.00294911 -0.0003710121)
(4.200338 0.002107109 -0.004214566)
(3.809699 -0.008654942 -0.003605741)
(4.168262 0.03266836 0.01970465)
(2.421406 0.2022028 0.1584291)
(0.7503205 -5.750464e-05 3.816428e-05)
(1.726213 0.0003134774 -0.0006149396)
(2.32318 -0.0007185747 -0.0002525249)
(2.744701 0.0007959273 -0.002350684)
(2.836294 -0.002904876 -0.002010871)
(3.007662 0.001901409 -0.003494794)
(2.553616 -0.008618953 -0.006974756)
(2.696325 0.02582147 0.021691)
(1.594712 0.1878975 0.144384)
(0.3673306 5.905971e-05 -4.991151e-05)
(0.7505569 -5.614201e-05 -3.610289e-06)
(0.9845988 0.0002408117 -0.0004877954)
(1.106026 -0.0003192583 -0.000430981)
(1.193778 0.0006030705 -0.001315665)
(1.156789 -0.001282796 -0.002055144)
(1.177172 0.001574452 -0.002265169)
(0.9285773 -0.004216084 -0.006799997)
(0.955226 0.008398732 0.004162465)
(0.5141505 0.06554888 0.002507561)
(0.0006014694 -0.01685551 -0.001341052)
(0.0006131284 -0.007451508 -0.0008945767)
(0.0005507223 -0.00828384 -0.001944461)
(0.000369399 -0.005340748 -0.0005490512)
(0.0005440344 -0.005612015 -0.001170983)
(0.0004996054 -0.0062264 -0.003350577)
(0.0004991945 -0.002760146 -0.0004809936)
(0.0003443793 -0.002991053 -0.001008786)
(0.0005012504 -0.003151777 -0.002937075)
(0.0004645795 -0.003507522 -0.001114023)
(0.0004601458 -0.000900822 -0.0004402713)
(0.0004890039 -0.0009566446 -0.0009087871)
(0.0003270464 -0.001026407 -0.002662105)
(0.0004638669 -0.001068659 -0.000984562)
(0.0004491386 -0.001206402 -0.01074852)
(0.4572822 -0.005141743 -0.004961585)
(0.7567469 -0.09559439 -0.1183751)
(0.685557 0.002461455 0.003019746)
(1.964272 -0.02505188 -0.02465161)
(1.863554 -0.2133184 -0.1927995)
(1.020621 -0.001737776 -0.002106255)
(2.148842 0.004299474 0.005424056)
(3.534903 -0.03490098 -0.03622158)
(2.581223 -0.215384 -0.1696046)
(1.083815 0.0006464867 0.001031492)
(2.795319 -0.001983287 -0.003720429)
(3.513779 0.003731839 0.006092833)
(4.737474 -0.02938969 -0.03443503)
(2.961379 -0.1473652 -0.09336682)
(1.186583 -0.0001215152 -0.0007470584)
(2.81727 0.0004909613 0.001856342)
(4.175406 -0.0006886054 -0.004361352)
(4.459722 0.001537838 0.003574059)
(5.379647 -0.01077336 -0.01920148)
(3.087548 -0.05157798 0.00133243)
(1.163323 -5.975744e-05 0.0002317119)
(2.910425 0.0002050911 -0.001631593)
(3.981443 -0.0006636179 0.001342969)
(4.93225 0.0005575574 -0.004389073)
(4.811241 -0.001814072 4.477382e-05)
(5.414911 0.0103162 0.001627521)
(2.999981 0.0508192 0.09268656)
(1.114965 0.0001370826 -0.0003080136)
(2.688036 -0.0004074858 0.0001471062)
(3.837959 0.0005730343 -0.002516235)
(4.399542 -0.002203937 -0.0003961494)
(4.951544 0.001207428 -0.004323436)
(4.510197 -0.005957445 -0.003580789)
(4.840349 0.02629539 0.02017434)
(2.661892 0.1382058 0.1615015)
(0.9765108 -5.19544e-05 1.767949e-05)
(2.344746 0.0003127638 -0.0007960151)
(3.22437 -0.0008033738 -0.0004788183)
(3.846193 0.0006937851 -0.003015381)
(4.00556 -0.003402128 -0.002536746)
(4.226865 0.001466286 -0.004067227)
(3.601023 -0.009477056 -0.00730193)
(3.686839 0.02985019 0.02713561)
(2.00275 0.1768367 0.1625563)
(0.7528982 9.362542e-05 -0.0001167919)
(1.714594 -0.0001594038 -0.0001190255)
(2.347132 0.0002719047 -0.001139496)
(2.69631 -0.0008881724 -0.001143825)
(2.929635 0.0005251068 -0.002921189)
(2.853165 -0.003384841 -0.004148978)
(2.858698 0.001145775 -0.003831105)
(2.243272 -0.009418773 -0.01045597)
(2.127283 0.01875941 0.01531352)
(0.9426896 0.1245347 0.02891644)
(0.3662644 5.718928e-06 3.099171e-06)
(0.7531346 9.898668e-05 -0.0001541603)
(0.9776983 -6.477853e-05 -0.0002032037)
(1.118299 0.0002261507 -0.0007389673)
(1.170435 -0.0003632834 -0.001001741)
(1.199808 0.0004995462 -0.001797441)
(1.105642 -0.001509354 -0.003577625)
(1.056978 0.001275348 -0.003221726)
(0.7380624 -0.004109944 -0.01080625)
(0.5625675 0.0001783147 -0.02389792)
(0.002595795 -0.01231772 -0.01092762)
(0.000688081 -0.01465427 -0.001198748)
(0.0006006654 -0.01321899 -0.002550438)
(0.0004153332 -0.006998866 -0.0008266454)
(0.0006128015 -0.007299095 -0.001722663)
(0.0005458592 -0.00805327 -0.003966742)
(0.0005228558 -0.004950254 -0.0005114686)
(0.0003703206 -0.005275518 -0.001079813)
(0.0005395004 -0.00549221 -0.003042204)
(0.0004902933 -0.00605693 -0.001195096)
(0.0004711756 -0.002607828 -0.0004524977)
(0.0005025091 -0.002774232 -0.0009411505)
(0.0003412579 -0.002966972 -0.002710399)
(0.0004845195 -0.003111309 -0.001015972)
(0.0004635634 -0.003473143 -0.01086177)
(0.0005233466 -0.0008501661 -0.0004166482)
(0.0004635207 -0.0009040207 -0.0008553878)
(0.0004864782 -0.0009523231 -0.002485842)
(0.0003139344 -0.00100728 -0.0009096121)
(0.0004683208 -0.001068785 -0.009856683)
(4.742084e-05 -0.0001314046 -0.004108841)
(0.331749 0.001764306 0.001787114)
(0.8950709 -0.009455887 -0.01213362)
(0.8991223 -0.09562451 -0.1042187)
(0.7875456 -0.001793296 -0.001934646)
(1.575598 0.004413585 0.004462959)
(2.59513 -0.0308613 -0.03012275)
(2.037324 -0.212873 -0.1383773)
(0.95475 0.0009678725 0.00102622)
(2.420508 -0.003016942 -0.00379015)
(2.99588 0.005689257 0.005373008)
(4.083332 -0.03661352 -0.03092605)
(2.673852 -0.211896 -0.08618575)
(1.12534 -0.000360448 -0.0007426289)
(2.646618 0.001380483 0.001813207)
(3.910225 -0.002032816 -0.004500782)
(4.15697 0.004505807 0.003364732)
(5.055583 -0.0283921 -0.0182541)
(2.973552 -0.1452198 0.003084691)
(1.163323 5.975754e-05 0.0002317119)
(2.910425 -0.0002050911 -0.001631593)
(3.981443 0.0006636179 0.001342969)
(4.93225 -0.0005575573 -0.004389073)
(4.811241 0.001814072 4.477377e-05)
(5.414911 -0.0103162 0.001627521)
(2.999981 -0.0508192 0.09268656)
(1.17595 4.639958e-05 -0.000313903)
(2.860525 -0.0001453766 0.0001288581)
(4.102206 0.0001897461 -0.002559095)
(4.719948 -0.0008066596 -0.0003685118)
(5.310303 0.0003783963 -0.004269505)
(4.845339 -0.002069751 -0.003560127)
(5.147611 0.009924398 0.01951107)
(2.75623 0.04857926 0.1599505)
(1.107519 -3.398981e-05 4.482852e-06)
(2.7143 0.0002028549 -0.0008779098)
(3.77621 -0.0005931011 -0.0006076792)
(4.528853 0.0003880296 -0.003275158)
(4.738708 -0.002578002 -0.002676462)
(4.983992 0.0007221915 -0.004124033)
(4.253237 -0.006530396 -0.00713562)
(4.263169 0.02381473 0.02856506)
(2.171521 0.1194731 0.1662376)
(0.9795876 9.599306e-05 -0.0001498963)
(2.330138 -0.000169457 -0.0002292049)
(3.254859 0.0002487773 -0.001519784)
(3.784352 -0.001040051 -0.001601976)
(4.126516 0.0003361991 -0.003710684)
(4.031063 -0.003968822 -0.004927309)
(4.00081 0.0007270551 -0.003978316)
(3.132812 -0.01006973 -0.01052517)
(2.830389 0.02449335 0.02334113)
(1.13706 0.1106301 0.03904555)
(0.7509172 1.562029e-06 -2.164039e-05)
(1.719727 0.0001126713 -0.0003839911)
(2.332509 -0.0002580927 -0.000597694)
(2.722582 0.0001468845 -0.001741854)
(2.879523 -0.001138719 -0.002289691)
(2.946788 7.556493e-05 -0.003685264)
(2.707374 -0.004139895 -0.006475906)
(2.520793 3.44908e-05 -0.004438784)
(1.716671 -0.009705975 -0.01353696)
(1.148934 0.008279131 -0.01411743)
(0.004090196 0.0006134803 -0.00757274)
(0.3666045 3.395539e-05 -2.607503e-05)
(0.7511529 4.972233e-06 -5.832831e-05)
(0.9807728 0.0001040191 -0.0003452456)
(1.110832 -8.084805e-05 -0.0005242867)
(1.183071 0.0001853753 -0.001097231)
(1.17638 -0.0004617887 -0.001790379)
(1.14757 0.0002795222 -0.002627359)
(0.9893066 -0.001798417 -0.005389673)
(0.8448627 0.001152546 -0.006214782)
(0.4161601 -0.007715443 -0.02624864)
(0.00291916 -0.01097872 -0.009401441)
(0.0007286271 -0.01016059 -0.01496427)
(0.0004655618 -0.01372558 -0.001112053)
(0.000684012 -0.01154911 -0.002243328)
(0.0005942293 -0.01185255 -0.004559897)
(0.0005644494 -0.006483557 -0.0007676107)
(0.0004150531 -0.006858552 -0.001591986)
(0.0006057756 -0.0071015 -0.003551796)
(0.0005341305 -0.007788231 -0.001621472)
(0.0004903361 -0.004674978 -0.0004808594)
(0.0005262342 -0.004890964 -0.001005771)
(0.0003669011 -0.005165015 -0.002802785)
(0.000521547 -0.005356614 -0.001082023)
(0.0004892382 -0.005953455 -0.01107117)
(0.000533393 -0.002461081 -0.0004280428)
(0.0004746062 -0.002621621 -0.000885525)
(0.0004998656 -0.002752528 -0.002529139)
(0.0003278131 -0.002932311 -0.0009380167)
(0.0004889498 -0.003077687 -0.009935825)
(4.886843e-05 -0.0003768766 -0.004145179)
(0.0005245865 -0.0008088731 -0.0003959204)
(0.0005277693 -0.000853301 -0.0008095087)
(0.0004614035 -0.0009000892 -0.002339755)
(0.0004756916 -0.0009351156 -0.0008493703)
(0.0003183689 -0.001006701 -0.009105086)
(4.763522e-05 -0.0001169601 -0.003767989)
(4.262853e-05 -0.0001183996 -0.00486823)
(0.3866271 -0.001084224 -0.001080671)
(0.6858231 0.002995113 0.002534446)
(1.131198 -0.00975147 -0.01225268)
(0.9618244 -0.09300574 -0.07044182)
(0.7325027 0.0009740037 0.0009594146)
(1.788324 -0.00304219 -0.003417688)
(2.151365 0.005520662 0.004262138)
(2.958623 -0.03146996 -0.02393251)
(2.088734 -0.211447 -0.06827517)
(0.9930785 -0.0005621929 -0.0007256617)
(2.283547 0.001959338 0.001727962)
(3.348484 -0.003115382 -0.004549338)
(3.522193 0.006832535 0.003026254)
(4.348878 -0.03513135 -0.01560901)
(2.683557 -0.2092174 0.005708197)
(1.102698 0.0001724147 0.0002364865)
(2.736332 -0.0006058213 -0.001618292)
(3.72206 0.001835014 0.00129229)
(4.605515 -0.00168362 -0.004492296)
(4.478857 0.005267532 -1.392558e-05)
(5.088311 -0.02718584 0.002502669)
(2.891565 -0.1434975 0.09405488)
(1.17595 -4.63995e-05 -0.000313903)
(2.860525 0.0001453767 0.0001288581)
(4.102206 -0.0001897461 -0.002559095)
(4.719948 0.0008066597 -0.0003685118)
(5.310303 -0.0003783963 -0.004269505)
(4.845339 0.002069751 -0.003560127)
(5.147611 -0.009924398 0.01951107)
(2.75623 -0.04857926 0.1599505)
(1.168286 -1.198389e-05 -8.931814e-07)
(2.887728 6.818485e-05 -0.0009067169)
(4.038233 -0.0002161788 -0.0006577607)
(4.854966 0.000118116 -0.003346511)
(5.091014 -0.0009494398 -0.002675543)
(5.345658 0.0002012989 -0.004068365)
(4.564359 -0.002270974 -0.007078321)
(4.525365 0.008952793 0.02808102)
(2.238661 0.04140094 0.164726)
(1.110811 6.296815e-05 -0.0001639705)
(2.698259 -0.0001233715 -0.000293678)
(3.80988 0.0001445169 -0.001701771)
(4.460592 -0.0007932168 -0.00182286)
(4.873818 9.86109e-05 -0.003999691)
(4.769981 -0.00300165 -0.005083525)
(4.705604 0.0002490716 -0.003786487)
(3.680021 -0.006872108 -0.01009818)
(3.2534 0.01774719 0.02310136)
(1.219765 0.07129532 0.04002957)
(0.977176 4.543674e-06 -4.477752e-05)
(2.336476 0.0001112492 -0.0005286563)
(3.23617 -0.0003014059 -0.0008822955)
(3.818031 7.500737e-05 -0.002317085)
(4.0623 -0.001369725 -0.002959599)
(4.152429 -0.0001931398 -0.004433603)
(3.809147 -0.004711225 -0.007157592)
(3.493231 -0.0001427832 -0.003716975)
(2.353188 -0.009696947 -0.01172609)
(1.478748 0.01041682 -0.006214197)
(0.004763089 0.0005114843 -0.005340184)
(0.7514533 5.319957e-05 -7.199373e-05)
(1.715644 -4.92949e-05 -0.0002069872)
(2.338841 5.59291e-05 -0.0008564367)
(2.706489 -0.0003892874 -0.00130905)
(2.906739 -8.184218e-05 -0.002474087)
(2.896448 -0.00156515 -0.00365972)
(2.798122 -0.0006750171 -0.004675392)
(2.379193 -0.005185362 -0.008611768)
(1.941474 -0.001199024 -0.006170203)
(0.8931525 -0.007808382 -0.01957414)
(0.004972934 -4.893626e-05 -0.006546386)
(0.0007434423 -0.001990642 -0.01079102)
(0.3660456 1.923332e-05 -1.079019e-05)
(0.7516883 5.505229e-05 -0.0001108564)
(0.9783567 1.436705e-06 -0.0002398793)
(1.114116 9.001447e-05 -0.0006058553)
(1.175362 -0.0001199262 -0.00096766)
(1.189037 9.171759e-05 -0.001653343)
(1.124611 -0.0006712584 -0.002901957)
(1.028461 -7.99647e-06 -0.003813842)
(0.7865263 -0.001822173 -0.008491984)
(0.4818242 -0.003674914 -0.02300227)
(0.002084625 -0.01031349 -0.008765166)
(0.0008586244 -0.008930699 -0.0128318)
(0.0006922992 -0.009289143 -0.01052318)
(0.0006103601 -0.01270722 -0.001028429)
(0.0004626999 -0.01082807 -0.002075247)
(0.0006747987 -0.01037512 -0.004038881)
(0.000579833 -0.01058684 -0.002021423)
(0.0005239979 -0.006122434 -0.0007216536)
(0.0005668085 -0.006355476 -0.001478231)
(0.0004101964 -0.006675588 -0.003269775)
(0.0005843687 -0.006888103 -0.001440983)
(0.0005323816 -0.007633642 -0.01147685)
(0.0005504593 -0.004410679 -0.0004545128)
(0.0004938264 -0.004619992 -0.0009457411)
(0.0005233467 -0.004789673 -0.0026117)
(0.0003528225 -0.005043662 -0.0009978077)
(0.0005259538 -0.00526065 -0.01007566)
(5.153578e-05 -0.0006463222 -0.004218512)
(0.00053344 -0.002341548 -0.0004066437)
(0.0005378742 -0.002474455 -0.0008376651)
(0.000472397 -0.002601582 -0.002379544)
(0.0004888391 -0.002722131 -0.0008751633)
(0.0003321972 -0.002899143 -0.009168866)
(4.97197e-05 -0.0003356361 -0.003792056)
(4.39153e-05 -0.0003427515 -0.004912011)
(0.0005518539 -0.0007703906 -0.000377449)
(0.0005292593 -0.0008119543 -0.0007692914)
(0.0005259064 -0.0008497147 -0.002214259)
(0.0004523211 -0.0008842885 -0.0007995734)
(0.0004769936 -0.0009344529 -0.008503993)
(3.178388e-05 -0.0001104339 -0.003480657)
(4.182555e-05 -0.0001056025 -0.004464297)
(4.154315e-05 -0.000118198 -0.004802253)
(0.3563201 0.0005521477 0.0005618614)
(0.7877904 -0.001903662 -0.001901029)
(0.8969179 0.003269745 0.002383451)
(1.263156 -0.009288771 -0.008041863)
(0.9830963 -0.09139342 -0.03306281)
(0.7640789 -0.0005802816 -0.0006446241)
(1.677884 0.001845912 0.001533739)
(2.422986 -0.00317838 -0.003997404)
(2.501178 0.006404111 0.002611955)
(3.148737 -0.02792306 -0.01060092)
(2.092409 -0.2097015 0.007546596)
(0.9720396 0.0002608097 0.0002477358)
(2.364984 -0.0009302416 -0.001542132)
(3.176089 0.002516876 0.001221554)
(3.918678 -0.002692222 -0.004453564)
(3.784084 0.007786368 -4.28387e-05)
(4.376389 -0.03358062 0.003589193)
(2.616583 -0.2077061 0.09241232)
(1.114965 -0.0001370826 -0.0003080135)
(2.688036 0.0004074858 0.0001471063)
(3.837959 -0.0005730342 -0.002516235)
(4.399542 0.002203937 -0.0003961494)
(4.951544 -0.001207428 -0.004323436)
(4.510197 0.005957445 -0.003580789)
(4.840349 -0.02629539 0.02017434)
(2.661892 -0.1382058 0.1615015)
(1.168286 1.198404e-05 -8.93199e-07)
(2.887728 -6.818484e-05 -0.0009067168)
(4.038233 0.0002161788 -0.0006577607)
(4.854966 -0.000118116 -0.003346511)
(5.091014 0.0009494398 -0.002675543)
(5.345658 -0.0002012989 -0.004068365)
(4.564359 0.002270974 -0.007078321)
(4.525365 -0.008952793 0.02808102)
(2.238661 -0.04140094 0.164726)
(1.171659 2.125178e-05 -0.0001693683)
(2.871112 -4.505289e-05 -0.0003200725)
(4.073213 4.4901e-05 -0.001768728)
(4.784161 -0.0002934491 -0.001900156)
(5.232247 8.925681e-06 -0.004069849)
(5.125112 -0.001103471 -0.005061334)
(5.041105 4.287844e-05 -0.003642893)
(3.939484 -0.002376992 -0.009958151)
(3.441822 0.006659287 0.02267642)
(1.250911 0.02418226 0.03971278)
(1.108196 2.439691e-06 -5.69917e-05)
(2.705132 6.896896e-05 -0.0006015909)
(3.789201 -0.0002328447 -0.00103682)
(4.497911 -1.748406e-06 -0.002583272)
(4.802859 -0.001060209 -0.003224446)
(4.905584 -0.0002958972 -0.004619795)
(4.495989 -0.003475271 -0.007111873)
(4.085147 -0.000187296 -0.003080039)
(2.737414 -0.006481606 -0.01091988)
(1.6643 0.007675257 -0.004731798)
(0.005048028 0.0003184598 -0.004674327)
(0.9777409 5.613123e-05 -9.887723e-05)
(2.331307 -5.719304e-05 -0.0003215344)
(3.244084 3.189109e-05 -0.001178616)
(3.797302 -0.0004826547 -0.001792968)
(4.09729 -0.0002231189 -0.003182495)
(4.087898 -0.001871699 -0.004397395)
(3.926478 -0.0009527506 -0.005073053)
(3.314568 -0.005522372 -0.008600542)
(2.641499 -0.0008616043 -0.003614549)
(1.181279 -0.006472338 -0.01202747)
(0.006126344 1.903005e-05 -0.004608241)
(0.0007520116 -0.001019082 -0.007947404)
(0.7504613 3.138101e-05 -4.445014e-05)
(1.71651 4.574631e-05 -0.0002971572)
(2.333662 -0.0001260809 -0.0006478546)
(2.71334 -5.907539e-05 -0.001457677)
(2.890009 -0.0006078982 -0.002200151)
(2.923721 -0.0004872784 -0.003386596)
(2.748997 -0.002285462 -0.005217666)
(2.462756 -0.001780027 -0.005740707)
(1.822904 -0.0059494 -0.01044287)
(1.019781 -0.00218518 -0.01600656)
(0.003770133 -0.0001269871 -0.006088871)
(0.0008803707 -0.001917997 -0.009287577)
(0.0007035508 -0.00265343 -0.008771982)
(0.3659937 2.226201e-05 -1.457245e-05)
(0.7506958 2.941878e-05 -8.285606e-05)
(0.9789163 5.636548e-05 -0.0002882272)
(1.111488 -1.318739e-05 -0.0005164422)
(1.17872 5.281127e-05 -0.0009710245)
(1.181289 -0.0002094563 -0.001604482)
(1.136958 -0.0001089255 -0.002522712)
(1.006851 -0.0009426923 -0.004314276)
(0.8197865 -9.988622e-05 -0.006565275)
(0.4450338 -0.005471387 -0.02247867)
(0.002447159 -0.00952803 -0.008110204)
(0.0005726595 -0.008375621 -0.01195526)
(0.0008128035 -0.008183693 -0.009106175)
(0.0006608412 -0.008464411 -0.005908981)
(0.0005611835 -0.01198564 -0.0009679306)
(0.0006100769 -0.01002684 -0.00192147)
(0.0004564285 -0.009733564 -0.003713257)
(0.0006497433 -0.0093097 -0.001776358)
(0.0005776026 -0.01002109 -0.01194943)
(0.0005803588 -0.005775032 -0.0006810785)
(0.0005266721 -0.006002716 -0.001389886)
(0.0005626826 -0.006187752 -0.003039523)
(0.0003942703 -0.006483508 -0.001330037)
(0.0005878468 -0.006744879 -0.01035704)
(5.604678e-05 -0.0008278547 -0.004333088)
(0.0005482372 -0.004195357 -0.0004316023)
(0.0005549999 -0.004359485 -0.0008939109)
(0.0004914278 -0.004525248 -0.002455377)
(0.0005118698 -0.004680171 -0.0009294677)
(0.0003570983 -0.004951123 -0.009278897)
(5.356953e-05 -0.0005740419 -0.003839721)
(4.62895e-05 -0.00058777 -0.004999083)
(0.0005600188 -0.00223011 -0.0003875746)
(0.0005381685 -0.002354554 -0.0007958486)
(0.0005359328 -0.002455891 -0.002251084)
(0.0004631341 -0.002574141 -0.0008235445)
(0.0004900486 -0.002690778 -0.008558208)
(3.320111e-05 -0.0003169932 -0.003499287)
(4.367788e-05 -0.0003060255 -0.004493474)
(4.27952e-05 -0.0003386014 -0.004844954)
(0.0005588672 -0.0007366987 -0.0003607921)
(0.0005570385 -0.0007733988 -0.0007334222)
(0.0005276172 -0.0008086331 -0.00210422)
(0.0005179884 -0.0008350828 -0.0007567215)
(0.0004529151 -0.00088349 -0.00800511)
(4.999262e-05 -0.0001026438 -0.003250883)
(2.7608e-05 -9.985815e-05 -0.004123791)
(4.023457e-05 -0.0001056321 -0.004403863)
(4.07716e-05 -0.0001150936 -0.004330951)
(0.3734188 -0.0003571256 -0.0003474005)
(0.7327369 0.0009802739 0.0009016928)
(1.02186 -0.002042464 -0.002103771)
(1.019873 0.003448677 0.001534918)
(1.327778 -0.008828745 -0.002834602)
(0.9848216 -0.09081682 0.005106544)
(0.7466085 0.0002687034 0.0002508801)
(1.742469 -0.0009413364 -0.001289788)
(2.285928 0.002266811 0.001108002)
(2.803922 -0.002876558 -0.00378173)
(2.673974 0.007230475 0.00011236)
(3.169695 -0.02639342 0.003465048)
(2.057257 -0.2073328 0.07869858)
(0.9834043 -0.000210758 -0.0002918081)
(2.320797 0.0005772683 0.0001910246)
(3.280481 -0.0009099825 -0.002344784)
(3.730205 0.00294911 -0.0003710122)
(4.200338 -0.002107108 -0.004214566)
(3.809699 0.008654943 -0.003605741)
(4.168262 -0.03266836 0.01970465)
(2.421406 -0.2022028 0.1584291)
(1.107519 3.398994e-05 4.482848e-06)
(2.7143 -0.0002028549 -0.0008779097)
(3.77621 0.0005931012 -0.0006076793)
(4.528853 -0.0003880295 -0.003275158)
(4.738708 0.002578002 -0.002676462)
(4.983992 -0.0007221915 -0.004124033)
(4.253237 0.006530396 -0.00713562)
(4.263169 -0.02381473 0.02856506)
(2.171521 -0.1194731 0.1662376)
(1.171659 -2.125196e-05 -0.0001693683)
(2.871112 4.50528e-05 -0.0003200725)
(4.073213 -4.490107e-05 -0.001768728)
(4.784161 0.0002934493 -0.001900156)
(5.232247 -8.925596e-06 -0.004069849)
(5.125112 0.001103471 -0.005061334)
(5.041105 -4.28783e-05 -0.003642892)
(3.939484 0.002376992 -0.009958151)
(3.441822 -0.006659287 0.02267642)
(1.250911 -0.02418226 0.03971278)
(1.168963 4.218141e-07 -6.184145e-05)
(2.878188 2.222653e-05 -0.0006295145)
(4.051723 -8.702375e-05 -0.001098555)
(4.822996 -1.135158e-05 -0.002677014)
(5.158605 -0.0003943768 -0.003297946)
(5.266887 -0.0001340788 -0.004624676)
(4.824921 -0.001261431 -0.006978509)
(4.364897 -8.186987e-05 -0.002783582)
(2.917981 -0.002212326 -0.01069544)
(1.747133 0.002856387 -0.004225309)
(0.005154926 0.0001039699 -0.004385347)
(1.108741 3.703329e-05 -0.0001113505)
(2.699431 -4.684244e-05 -0.0003844188)
(3.797819 7.935246e-07 -0.001342495)
(4.474889 -0.0003850545 -0.002028919)
(4.84169 -0.0002411256 -0.003466378)
(4.83427 -0.001434377 -0.004582247)
(4.626895 -0.00079624 -0.004958407)
(3.889825 -0.003864974 -0.008111025)
(3.058449 -0.0003947299 -0.00245867)
(1.350948 -0.003872746 -0.01033188)
(0.006775408 2.337639e-05 -0.004011837)
(0.0007529156 -0.0003136695 -0.006977612)
(0.9765772 3.580418e-05 -6.825078e-05)
(2.332172 4.296922e-05 -0.0004215465)
(3.237414 -0.0001610218 -0.0009252199)
(3.805901 -0.0001267313 -0.001961422)
(4.07567 -0.0007677336 -0.002841661)
(4.122978 -0.0007002224 -0.004074139)
(3.863633 -0.002604466 -0.005716946)
(3.421927 -0.001887343 -0.005329782)
(2.493623 -0.005727958 -0.008582516)
(1.340487 -0.0008089792 -0.008855957)
(0.004787299 -4.971087e-05 -0.004266809)
(0.0008945117 -0.001005061 -0.006826252)
(0.000711277 -0.001416173 -0.007548812)
(0.7502896 3.170029e-05 -4.910593e-05)
(1.714584 1.077568e-05 -0.0002465798)
(2.334516 -1.319005e-05 -0.0007296034)
(2.707606 -0.0002425557 -0.001268826)
(2.897039 -0.0002660381 -0.002195432)
(2.906888 -0.0009952503 -0.003278649)
(2.775465 -0.001181258 -0.004496768)
(2.417094 -0.003319262 -0.006729497)
(1.891683 -0.00285094 -0.007299956)
(0.9503638 -0.005214946 -0.01639911)
(0.00434968 -8.949349e-05 -0.005623734)
(0.0005966065 -0.001820154 -0.008634729)
(0.000829777 -0.002481629 -0.007596136)
(0.0006755742 -0.003189529 -0.00476589)
(0.3657626 1.967629e-05 -1.232472e-05)
(0.7505237 3.412581e-05 -8.287217e-05)
(0.9777501 2.857019e-05 -0.0002518843)
(1.112018 4.326046e-05 -0.0005391418)
(1.175996 -4.919519e-05 -0.000901764)
(1.18464 -3.29128e-05 -0.001518516)