/*--------------------------------*- C++ -*----------------------------------*\
| =========                 |                                                 |
| \\      /  F ield         | OpenFOAM: The Open Source CFD Toolbox           |
|  \\    /   O peration     | Version:  2306                                  |
|   \\  /    A nd           | Website:  www.openfoam.com                      |
|    \\/     M anipulation  |                                                 |
\*---------------------------------------------------------------------------*/
FoamFile
{
    version     2.0;
    format      ascii;
    arch        "LSB;label=32;scalar=64";
    class       volScalarField;
    location    "1.5/air";
    object      X.N2;
}
// * * * * * * * * * * * * * * * * * * * * * * * * * * * * * * * * * * * * * //

dimensions      [0 0 0 0 0 0 0];

internalField   nonuniform List<scalar> 
16000
(
0.7929644
0.792959
0.7939433
0.7929979
0.7929509
0.793862
0.7929899
0.795962
0.7940521
0.793076
0.7929434
0.7937567
0.7929789
0.7958557
0.7939419
0.7930605
0.7981277
0.7961004
0.7943361
0.7932244
0.7929388
0.7936672
0.7929687
0.7957104
0.7938069
0.7930421
0.7980192
0.7959619
0.7941854
0.7931915
0.8002743
0.7982717
0.7964456
0.7948626
0.7934963
0.7929388
0.7936171
0.7929628
0.7955815
0.7936964
0.7930258
0.7978701
0.7957808
0.794002
0.7931552
0.8001691
0.7981314
0.7962685
0.794669
0.7934318
0.8023393
0.800414
0.7986281
0.797059
0.7956948
0.7939914
0.8300554
0.7929434
0.7936171
0.7929628
0.7955073
0.7936357
0.7930166
0.7977373
0.7956242
0.7938546
0.7931276
0.8000247
0.797947
0.7960398
0.7944281
0.7933577
0.8022394
0.8002783
0.7984515
0.796846
0.7954624
0.7938865
0.8043068
0.8024727
0.8007591
0.7992553
0.7979918
0.7968813
0.7948307
0.8287741
0.8315073
0.8302581
0.7929509
0.7936672
0.7929687
0.7955073
0.7936357
0.7930166
0.7976607
0.7955352
0.7937746
0.793113
0.7998962
0.7977867
0.7958441
0.7942303
0.7933003
0.8021023
0.8001003
0.7982225
0.7965699
0.7951654
0.7937512
0.804212
0.802344
0.8005895
0.7990476
0.7977481
0.7966117
0.7946825
0.8061778
0.804433
0.8028019
0.801364
0.8001971
0.7992847
0.7984819
0.7961708
0.8261853
0.8303602
0.8289816
0.8318775
0.8316927
0.8306628
0.792959
0.7937567
0.7929789
0.7955815
0.7936964
0.7930258
0.7976607
0.7955352
0.7937746
0.793113
0.7998221
0.7976954
0.7957338
0.7941221
0.7932697
0.8019803
0.7999456
0.7980254
0.7963338
0.7949161
0.7936374
0.8040822
0.8021751
0.80037
0.7987776
0.7974298
0.7962642
0.7944803
0.8060881
0.8043111
0.8026414
0.8011665
0.799966
0.7990143
0.7981639
0.7959474
0.8079598
0.8062976
0.8047447
0.8033782
0.8022677
0.8014826
0.8009695
0.8005657
0.7982501
0.8221926
0.8280475
0.8264092
0.8308133
0.8305491
0.8293945
0.8320396
0.8320481
0.8320627
0.8312682
0.7929644
0.793862
0.7929899
0.7957104
0.7938069
0.7930421
0.7977373
0.7956242
0.7938546
0.7931276
0.7998221
0.7976954
0.7957338
0.7941221
0.7932697
0.80191
0.7998576
0.7979138
0.7962007
0.7947777
0.7935739
0.8039667
0.8020285
0.8001814
0.7985451
0.7971558
0.7959692
0.7943047
0.8059651
0.8041512
0.8024337
0.8009104
0.7996628
0.7986574
0.7977504
0.7956418
0.8078745
0.806182
0.8045928
0.8031918
0.8020503
0.8012332
0.8006679
0.8001689
0.7978315
0.8096609
0.8080736
0.8065932
0.8052902
0.8042377
0.8034941
0.8031295
0.8030759
0.8032202
0.8015087
0.8164193
0.8244964
0.8224789
0.8286686
0.8282495
0.8268495
0.8310465
0.830987
0.8309253
0.8300099
0.832222
0.8321985
0.8323889
0.8326164
0.8320728
0.7939433
0.7929979
0.7958557
0.7939419
0.7930605
0.7978701
0.7957808
0.794002
0.7931552
0.7998962
0.7977867
0.7958441
0.7942303
0.7933003
0.80191
0.7998576
0.7979138
0.7962007
0.7947777
0.7935739
0.8039001
0.801945
0.8000747
0.7984134
0.797001
0.795804
0.7942051
0.8058557
0.8040125
0.8022554
0.8006902
0.7994003
0.7983483
0.7973977
0.7953805
0.8077577
0.8060306
0.8043963
0.8029503
0.8017658
0.8009022
0.8002668
0.7996585
0.7973254
0.8095797
0.8079637
0.8064492
0.8051139
0.8040332
0.8032616
0.8028573
0.8027141
0.8026429
0.8005025
0.8112887
0.8097693
0.8083544
0.8071107
0.8061034
0.8054018
0.8050564
0.8051533
0.8056551
0.8066153
0.8070061
0.8194028
0.8170103
0.8253776
0.8247496
0.8230119
0.8290456
0.828854
0.8286471
0.8274956
0.8312887
0.8312082
0.8313331
0.8314863
0.8308246
0.8325193
0.8323712
0.8325159
0.8328989
0.8333527
0.8332334
0.795962
0.7940521
0.793076
0.7980192
0.7959619
0.7941854
0.7931915
0.8000247
0.797947
0.7960398
0.7944281
0.7933577
0.8019803
0.7999456
0.7980254
0.7963338
0.7949161
0.7936374
0.8039001
0.801945
0.8000747
0.7984134
0.797001
0.795804
0.7942051
0.8057926
0.8039335
0.8021544
0.8005656
0.7992512
0.7981732
0.7971997
0.7952339
0.8076537
0.8058992
0.8042277
0.8027428
0.8015201
0.8006137
0.7999189
0.7992288
0.7969271
0.8094683
0.8078198
0.8062631
0.8048857
0.803766
0.802954
0.8024927
0.8022398
0.8019592
0.7996024
0.8112111
0.8096646
0.8082174
0.8069435
0.8059101
0.8051838
0.8048039
0.8048284
0.8051325
0.8055274
0.8040924
0.8128497
0.8113921
0.8100368
0.808846
0.8078822
0.8072046
0.8068817
0.8069672
0.8075934
0.8088483
0.8112265
0.809747
0.8206616
0.8199112
0.8178907
0.8259763
0.8256096
0.8252229
0.8237504
0.8294085
0.8292179
0.8292191
0.8292317
0.8283377
0.8316382
0.8314405
0.8315303
0.8318493
0.8322297
0.8319956
0.8329035
0.8326602
0.8326692
0.8329909
0.8335772
0.8344153
0.8334726
0.7981277
0.7961004
0.7943361
0.7932244
0.8001691
0.7981314
0.7962685
0.794669
0.7934318
0.8021023
0.8001003
0.7982225
0.7965699
0.7951654
0.7937512
0.8039667
0.8020285
0.8001814
0.7985451
0.7971558
0.7959692
0.7943047
0.8057926
0.8039335
0.8021544
0.8005656
0.7992512
0.7981732
0.7971997
0.7952339
0.8075938
0.8058243
0.8041323
0.8026255
0.8013807
0.8004494
0.7997218
0.7989896
0.7967139
0.8093693
0.8076949
0.8061033
0.8046897
0.8035353
0.8026867
0.8021745
0.8018351
0.8014133
0.7989909
0.8111047
0.8095275
0.8080405
0.8067272
0.8056577
0.8048956
0.8044669
0.8043999
0.8045073
0.8045123
0.8025511
0.8127754
0.8112922
0.8099063
0.808687
0.8076988
0.8069983
0.8066451
0.8066653
0.8071178
0.8078503
0.8085246
0.8063192
0.8143499
0.8129488
0.8116477
0.8105054
0.8095793
0.8089272
0.8086044
0.8086882
0.8092632
0.8105804
0.8131027
0.8135416
0.8118775
0.8215806
0.8211282
0.820674
0.8189147
0.8265249
0.8261917
0.8260432
0.8258815
0.8246634
0.8298634
0.8295701
0.8295573
0.8297559
0.829995
0.829532
0.832068
0.8317815
0.8317428
0.8320108
0.8325334
0.8332989
0.8322369
0.8333651
0.8330371
0.8329416
0.8331152
0.8336227
0.8345562
0.8346343
0.8337139
0.8002743
0.7982717
0.7964456
0.7948626
0.7934963
0.8022394
0.8002783
0.7984515
0.796846
0.7954624
0.7938865
0.8040822
0.8021751
0.80037
0.7987776
0.7974298
0.7962642
0.7944803
0.8058557
0.8040125
0.8022554
0.8006902
0.7994003
0.7983483
0.7973977
0.7953805
0.8075938
0.8058243
0.8041323
0.8026255
0.8013807
0.8004494
0.7997218
0.7989896
0.7967139
0.8093122
0.8076239
0.806013
0.804579
0.8034045
0.8025346
0.8019934
0.8016083
0.8011185
0.7986861
0.8110102
0.8094085
0.8078887
0.8065415
0.80544
0.8046452
0.8041734
0.8040324
0.8040043
0.803791
0.8016611
0.8126736
0.8111612
0.8097377
0.8084812
0.8074594
0.806726
0.8063294
0.8062686
0.8065476
0.806918
0.806991
0.8044473
0.8142786
0.812853
0.8115229
0.8103537
0.8094045
0.8087313
0.8083802
0.8084049
0.808819
0.8096575
0.8106042
0.8104059
0.8082914
0.8157939
0.8144448
0.8131934
0.8120952
0.8112044
0.8105729
0.8102561
0.8103136
0.8108559
0.812069
0.8145397
0.815235
0.8153528
0.8136202
0.8223963
0.8220137
0.8218272
0.821568
0.8200123
0.8271417
0.8267267
0.8265943
0.8266466
0.8266995
0.8259017
0.8303848
0.8300158
0.8298884
0.8300564
0.830457
0.8310794
0.8297779
0.8325701
0.8322038
0.8320669
0.8321938
0.8326477
0.8335176
0.8335193
0.8324802
0.8338798
0.8334923
0.833304
0.8333628
0.8337086
0.8345348
0.834758
0.8348552
0.8339572
0.8023393
0.800414
0.7986281
0.797059
0.7956948
0.7939914
0.804212
0.802344
0.8005895
0.7990476
0.7977481
0.7966117
0.7946825
0.8059651
0.8041512
0.8024337
0.8009104
0.7996628
0.7986574
0.7977504
0.7956418
0.8076537
0.8058992
0.8042277
0.8027428
0.8015201
0.8006137
0.7999189
0.7992288
0.7969271
0.8093122
0.8076239
0.806013
0.804579
0.8034045
0.8025346
0.8019934
0.8016083
0.8011185
0.7986861
0.8109556
0.8093408
0.8078029
0.8064366
0.8053167
0.8045028
0.8040067
0.8038257
0.8037314
0.803422
0.8012452
0.8125831
0.8110476
0.809593
0.8083047
0.807253
0.8064897
0.8060547
0.8059293
0.8060882
0.8062537
0.8060579
0.8033933
0.8141809
0.8127276
0.8113618
0.8101575
0.8091767
0.8084728
0.8080816
0.8080325
0.8082881
0.8087966
0.8091859
0.8086023
0.8062043
0.8157254
0.814353
0.8130739
0.8119501
0.8110376
0.810386
0.8100429
0.8100447
0.8104376
0.8112033
0.8122144
0.8123314
0.8120811
0.8100181
0.817186
0.8158851
0.8146794
0.8136219
0.8127631
0.8121521
0.8118371
0.8118794
0.8123657
0.8135026
0.8157848
0.8165227
0.8168992
0.816846
0.8150909
0.8232457
0.8228021
0.8226624
0.8226454
0.8225344
0.8213338
0.827804
0.827332
0.8271039
0.8271544
0.8273958
0.8278135
0.8261563
0.8309688
0.8305293
0.8303161
0.8303565
0.8307083
0.831453
0.8313028
0.8300258
0.8331212
0.8326994
0.8324744
0.8324927
0.8327916
0.833564
0.8337204
0.8337415
0.8327256
0.8344358
0.8340012
0.8337462
0.8337035
0.8339232
0.8345651
0.8347228
0.8349615
0.8350779
0.8342025
0.8043068
0.8024727
0.8007591
0.7992553
0.7979918
0.7968813
0.7948307
0.8060881
0.8043111
0.8026414
0.8011665
0.799966
0.7990143
0.7981639
0.7959474
0.8077577
0.8060306
0.8043963
0.8029503
0.8017658
0.8009022
0.8002668
0.7996585
0.7973254
0.8093693
0.8076949
0.8061033
0.8046897
0.8035353
0.8026867
0.8021745
0.8018351
0.8014133
0.7989909
0.8109556
0.8093408
0.8078029
0.8064366
0.8053167
0.8045028
0.8040067
0.8038257
0.8037314
0.803422
0.8012452
0.8125309
0.8109829
0.8095113
0.808205
0.8071361
0.8063555
0.8058986
0.8057389
0.8058385
0.8059131
0.8056078
0.8029098
0.8140941
0.8126189
0.8112236
0.8099892
0.8089803
0.8082485
0.8078221
0.8077142
0.8078616
0.8081839
0.8083219
0.8075406
0.8050252
0.8156316
0.8142327
0.8129196
0.8117625
0.8108201
0.8101396
0.809759
0.8096919
0.8099377
0.8103976
0.8108967
0.8106599
0.8100995
0.8078082
0.8171201
0.8157969
0.8145648
0.8134828
0.8126034
0.8119735
0.8116335
0.8116234
0.8119685
0.8126857
0.8136009
0.8138176
0.8138658
0.8135558
0.8115168
0.81853
0.8172738
0.8161106
0.8150905
0.8142616
0.813669
0.8133586
0.8133827
0.8138294
0.8148732
0.8170072
0.8176451
0.8180685
0.818267
0.8181178
0.816543
0.82411
0.8236281
0.8234098
0.8234213
0.8235284
0.8237074
0.8216042
0.8285135
0.8279842
0.8276876
0.8276288
0.82785
0.828416
0.8280426
0.8264124
0.8315931
0.8311062
0.830814
0.8307578
0.830968
0.8316346
0.8316582
0.8315279
0.8302756
0.8337102
0.8332445
0.8329569
0.8328782
0.8330571
0.8336518
0.8337528
0.8339249
0.8339655
0.8329729
0.8350201
0.8345519
0.8342436
0.8341265
0.8342351
0.8347321
0.8347416
0.8349123
0.8351667
0.8353025
0.8345018
0.8061778
0.804433
0.8028019
0.801364
0.8001971
0.7992847
0.7984819
0.7961708
0.8078745
0.806182
0.8045928
0.8031918
0.8020503
0.8012332
0.8006679
0.8001689
0.7978315
0.8094683
0.8078198
0.8062631
0.8048857
0.803766
0.802954
0.8024927
0.8022398
0.8019592
0.7996024
0.8110102
0.8094085
0.8078887
0.8065415
0.80544
0.8046452
0.8041734
0.8040324
0.8040043
0.803791
0.8016611
0.8125309
0.8109829
0.8095113
0.808205
0.8071361
0.8063555
0.8058986
0.8057389
0.8058385
0.8059131
0.8056078
0.8029098
0.814044
0.812557
0.8111455
0.8098941
0.8088691
0.8081211
0.8076748
0.8075355
0.8076302
0.8078696
0.8079047
0.8070394
0.8044878
0.8155481
0.8141283
0.8127873
0.8116016
0.8106327
0.809926
0.8095123
0.8093906
0.8095361
0.8098253
0.810095
0.8096748
0.8089376
0.8065461
0.8170298
0.8156812
0.8144167
0.8133031
0.8123953
0.811738
0.8113625
0.8112874
0.8114942
0.8119254
0.8123645
0.8122618
0.8120264
0.8114697
0.8092534
0.8184665
0.8171888
0.8160003
0.814957
0.8141084
0.8134979
0.8131637
0.8131379
0.8134509
0.8140978
0.8149456
0.8151038
0.8152406
0.8152127
0.8148431
0.8130042
0.8198291
0.8186146
0.8174908
0.8165056
0.8157043
0.8151295
0.8148229
0.8148345
0.8152408
0.8162132
0.818195
0.8187614
0.8190943
0.8193376
0.8194282
0.8193866
0.8168377
0.8249994
0.8244721
0.8242007
0.8241205
0.82424
0.8245986
0.8239475
0.8218751
0.8292503
0.8286848
0.8283211
0.8281825
0.8282806
0.8287972
0.8286258
0.8282731
0.8266701
0.8322486
0.8317242
0.831377
0.8312326
0.8313349
0.8318369
0.8318254
0.831865
0.8317547
0.8305274
0.8343246
0.8338281
0.8334902
0.8333411
0.8334135
0.8338693
0.8338291
0.8339433
0.8341311
0.8341914
0.8332747
0.8356254
0.8351314
0.8347838
0.8346065
0.8346324
0.8350024
0.8348989
0.8349197
0.8351035
0.8353736
0.8355765
0.834808
0.8079598
0.8062976
0.8047447
0.8033782
0.8022677
0.8014826
0.8009695
0.8005657
0.7982501
0.8095797
0.8079637
0.8064492
0.8051139
0.8040332
0.8032616
0.8028573
0.8027141
0.8026429
0.8005025
0.8111047
0.8095275
0.8080405
0.8067272
0.8056577
0.8048956
0.8044669
0.8043999
0.8045073
0.8045123
0.8025511
0.8125831
0.8110476
0.809593
0.8083047
0.807253
0.8064897
0.8060547
0.8059293
0.8060882
0.8062537
0.8060579
0.8033933
0.814044
0.812557
0.8111455
0.8098941
0.8088691
0.8081211
0.8076748
0.8075355
0.8076302
0.8078696
0.8079047
0.8070394
0.8044878
0.8155
0.814069
0.8127125
0.8115108
0.8105265
0.8098046
0.8093723
0.8092216
0.8093183
0.8095323
0.8097081
0.8092093
0.8083942
0.8059714
0.8169495
0.815581
0.8142897
0.813149
0.812216
0.8115338
0.8111271
0.8110006
0.8111136
0.8113855
0.8116132
0.8113458
0.8109465
0.8102391
0.8079494
0.8183794
0.8170776
0.815858
0.8147844
0.8139088
0.8132722
0.8129044
0.8128169
0.8129991
0.8133763
0.8137782
0.8136429
0.8135265
0.8132735
0.8127071
0.8107425
0.8197678
0.8185327
0.8173846
0.8163772
0.8155572
0.8149652
0.8146359
0.8146
0.814879
0.8154749
0.8162392
0.8163621
0.816437
0.8164884
0.8163842
0.8161281
0.8133061
0.8210863
0.8199107
0.8188237
0.817871
0.8170956
0.8165375
0.8162355
0.8162353
0.8166098
0.817514
0.8193724
0.8198574
0.8201274
0.8202832
0.8204134
0.8205815
0.8196442
0.8171305
0.8258973
0.8253436
0.8250144
0.8248704
0.824887
0.8252316
0.8248177
0.8241881
0.8221463
0.8300078
0.8294137
0.8290051
0.82879
0.8287971
0.8291682
0.8289919
0.8288369
0.8285051
0.8269293
0.8329237
0.832374
0.8319825
0.8317752
0.8317797
0.8321549
0.8320159
0.8320177
0.8320733
0.8319833
0.8308343
0.8349575
0.8344377
0.8340632
0.8338569
0.8338505
0.8341838
0.8340367
0.8340079
0.8341352
0.834339
0.8344669
0.8335834
0.8362448
0.8357322
0.8353537
0.835131
0.8350894
0.8353628
0.8351606
0.835067
0.8350992
0.8352962
0.8356261
0.8358566
0.8350408
0.8096609
0.8080736
0.8065932
0.8052902
0.8042377
0.8034941
0.8031295
0.8030759
0.8032202
0.8015087
0.8112111
0.8096646
0.8082174
0.8069435
0.8059101
0.8051838
0.8048039
0.8048284
0.8051325
0.8055274
0.8040924
0.8126736
0.8111612
0.8097377
0.8084812
0.8074594
0.806726
0.8063294
0.8062686
0.8065476
0.806918
0.806991
0.8044473
0.8140941
0.8126189
0.8112236
0.8099892
0.8089803
0.8082485
0.8078221
0.8077142
0.8078616
0.8081839
0.8083219
0.8075406
0.8050252
0.8155
0.814069
0.8127125
0.8115108
0.8105265
0.8098046
0.8093723
0.8092216
0.8093183
0.8095323
0.8097081
0.8092093
0.8083942
0.8059714
0.8169032
0.8155239
0.814218
0.8130619
0.8121145
0.8114179
0.8109936
0.8108398
0.8109073
0.8111091
0.8112511
0.8109131
0.810441
0.8096655
0.8073551
0.818302
0.8169811
0.815736
0.8146365
0.8137369
0.8130767
0.8126792
0.812543
0.8126366
0.8128642
0.8130689
0.8127835
0.8125209
0.812128
0.811439
0.8094359
0.8196838
0.8184255
0.8172476
0.8162113
0.8153655
0.8147487
0.8143872
0.8142925
0.8144472
0.8147876
0.8151314
0.8149824
0.8148266
0.8146797
0.8143956
0.8139835
0.8110453
0.8210271
0.8198317
0.8187214
0.8177473
0.816954
0.8163795
0.8160559
0.8160102
0.8162633
0.8168087
0.8175108
0.8175812
0.8176182
0.8176051
0.8175721
0.8175477
0.8163889
0.813606
0.8223041
0.8211652
0.8201125
0.8191902
0.818439
0.8178966
0.8175995
0.81759
0.8179353
0.818783
0.820528
0.8209533
0.8211516
0.8212476
0.8212901
0.8214802
0.8208157
0.8199002
0.8174213
0.8268009
0.8262255
0.8258591
0.8256487
0.8255926
0.8258151
0.8254346
0.8250371
0.824429
0.8224179
0.830776
0.830164
0.8297191
0.8294509
0.8293723
0.829634
0.8293507
0.8291879
0.8290492
0.8287384
0.8272449
0.8336124
0.8330439
0.832621
0.8323625
0.8322956
0.832557
0.8323238
0.8321963
0.8322115
0.8322833
0.8322621
0.8311483
0.8356025
0.8350661
0.834663
0.8344139
0.8343431
0.8345835
0.8343425
0.8342055
0.8341881
0.8343288
0.8345926
0.8347487
0.8338182
0.8368738
0.8363476
0.8359457
0.8356865
0.835593
0.8357865
0.8355133
0.8353201
0.8352365
0.8352802
0.8355314
0.8358841
0.8360696
0.8351989
0.8112887
0.8097693
0.8083544
0.8071107
0.8061034
0.8054018
0.8050564
0.8051533
0.8056551
0.8066153
0.8070061
0.8127754
0.8112922
0.8099063
0.808687
0.8076988
0.8069983
0.8066451
0.8066653
0.8071178
0.8078503
0.8085246
0.8063192
0.8141809
0.8127276
0.8113618
0.8101575
0.8091767
0.8084728
0.8080816
0.8080325
0.8082881
0.8087966
0.8091859
0.8086023
0.8062043
0.8155481
0.8141283
0.8127873
0.8116016
0.8106327
0.809926
0.8095123
0.8093906
0.8095361
0.8098253
0.810095
0.8096748
0.8089376
0.8065461
0.8169032
0.8155239
0.814218
0.8130619
0.8121145
0.8114179
0.8109936
0.8108398
0.8109073
0.8111091
0.8112511
0.8109131
0.810441
0.8096655
0.8073551
0.8182574
0.8169262
0.815667
0.8145529
0.8136396
0.8129657
0.8125515
0.8123895
0.8124401
0.8126021
0.812727
0.8123778
0.8120503
0.8115934
0.8108481
0.80884
0.8196091
0.8183325
0.8171301
0.816069
0.8152003
0.814561
0.8141713
0.8140302
0.8141008
0.8142997
0.8144584
0.8141708
0.8138823
0.8136117
0.8132132
0.8127068
0.8097384
0.8209459
0.8197282
0.8185893
0.8175875
0.8167695
0.8161712
0.8158169
0.8157151
0.8158497
0.8161522
0.816456
0.816272
0.8160973
0.8159052
0.8157159
0.8155473
0.814243
0.8113465
0.8222468
0.8210888
0.8200137
0.819071
0.8183026
0.8177445
0.8174266
0.8173736
0.8176026
0.8181078
0.8187507
0.8187868
0.8187711
0.8187185
0.8186187
0.8186463
0.8177839
0.8166481
0.8139039
0.823485
0.8223803
0.8213601
0.8204662
0.8197378
0.8192104
0.8189182
0.8189008
0.8192212
0.8200174
0.8216653
0.822036
0.8221837
0.8222126
0.8221962
0.8222876
0.8216968
0.8210483
0.8201547
0.8177103
0.8277023
0.8271146
0.826717
0.8264619
0.8263326
0.826467
0.8260051
0.8256379
0.8252569
0.8246704
0.822747
0.8315501
0.8309256
0.830456
0.8301443
0.8300047
0.8301652
0.8298061
0.8295343
0.8293851
0.8292629
0.8290225
0.8275678
0.8343088
0.8337277
0.8332806
0.8329844
0.832859
0.8330351
0.8327171
0.832494
0.8323781
0.8324068
0.8325394
0.8325471
0.8313873
0.8362551
0.8357069
0.8352824
0.8349992
0.834879
0.8350426
0.8347346
0.8345025
0.8343757
0.8343698
0.8345649
0.8348519
0.8349628
0.8339776
0.8375087
0.8369728
0.8365529
0.8362653
0.8361294
0.8362598
0.8359301
0.8356651
0.8354809
0.8354075
0.8355011
0.8357717
0.8360801
0.8362139
0.8352796
0.8164193
0.8128497
0.8113921
0.8100368
0.808846
0.8078822
0.8072046
0.8068817
0.8069672
0.8075934
0.8088483
0.8112265
0.809747
0.8142786
0.812853
0.8115229
0.8103537
0.8094045
0.8087313
0.8083802
0.8084049
0.808819
0.8096575
0.8106042
0.8104059
0.8082914
0.8156316
0.8142327
0.8129196
0.8117625
0.8108201
0.8101396
0.809759
0.8096919
0.8099377
0.8103976
0.8108967
0.8106599
0.8100995
0.8078082
0.8169495
0.815581
0.8142897
0.813149
0.812216
0.8115338
0.8111271
0.8110006
0.8111136
0.8113855
0.8116132
0.8113458
0.8109465
0.8102391
0.8079494
0.8182574
0.8169262
0.815667
0.8145529
0.8136396
0.8129657
0.8125515
0.8123895
0.8124401
0.8126021
0.812727
0.8123778
0.8120503
0.8115934
0.8108481
0.80884
0.8195661
0.8182796
0.8170638
0.8159887
0.8151068
0.8144545
0.8140488
0.8138832
0.8139131
0.81405
0.8141341
0.8137877
0.8134407
0.8131134
0.8126616
0.8121118
0.8091424
0.8208738
0.8196384
0.8184761
0.8174506
0.8166107
0.8159908
0.8156096
0.8154634
0.8155179
0.8156861
0.8158151
0.8155019
0.8152053
0.8149018
0.8146126
0.8143544
0.8129649
0.8100398
0.8221683
0.8209888
0.8198863
0.8189169
0.8181248
0.817544
0.8171967
0.8170899
0.8172056
0.8174791
0.8177433
0.8175403
0.8173277
0.8171128
0.8168736
0.8167776
0.8157814
0.8145012
0.8116462
0.8234295
0.8223065
0.8212647
0.8203511
0.8196062
0.8190636
0.8187516
0.8186924
0.8189014
0.8193697
0.8199647
0.8199678
0.8199179
0.819813
0.8196729
0.8196222
0.8188643
0.8180184
0.8169056
0.8141998
0.8246309
0.8235588
0.8225689
0.8217019
0.8209948
0.8204816
0.8201944
0.8201703
0.8204685
0.8212198
0.8227797
0.8231073
0.8232094
0.8231922
0.8231107
0.8231353
0.82249
0.8219119
0.8212795
0.8204076
0.8180578
0.8285988
0.8280028
0.8275844
0.8272917
0.827112
0.8271605
0.826646
0.8261954
0.8258415
0.825477
0.824963
0.823084
0.8323254
0.8316938
0.8312054
0.8308625
0.8306724
0.8307586
0.8303282
0.8299793
0.8297191
0.8295834
0.829523
0.829313
0.8278136
0.8350091
0.8344197
0.833955
0.8336288
0.8334592
0.8335645
0.8331874
0.8328784
0.8326655
0.8325612
0.8326449
0.8328011
0.8327638
0.8315495
0.8369121
0.8363557
0.835915
0.8356053
0.835445
0.8355481
0.8351867
0.8348869
0.8346639
0.8345472
0.8345914
0.8348062
0.8350488
0.835108
0.8340591
0.838147
0.8376042
0.8371705
0.8368603
0.8366907
0.8367687
0.8363973
0.836075
0.8358182
0.8356431
0.8356161
0.8357267
0.8359542
0.8362129
0.8362876
0.8221926
0.8194028
0.8170103
0.8143499
0.8129488
0.8116477
0.8105054
0.8095793
0.8089272
0.8086044
0.8086882
0.8092632
0.8105804
0.8131027
0.8135416
0.8118775
0.8157254
0.814353
0.8130739
0.8119501
0.8110376
0.810386
0.8100429
0.8100447
0.8104376
0.8112033
0.8122144
0.8123314
0.8120811
0.8100181
0.8170298
0.8156812
0.8144167
0.8133031
0.8123953
0.811738
0.8113625
0.8112874
0.8114942
0.8119254
0.8123645
0.8122618
0.8120264
0.8114697
0.8092534
0.818302
0.8169811
0.815736
0.8146365
0.8137369
0.8130767
0.8126792
0.812543
0.8126366
0.8128642
0.8130689
0.8127835
0.8125209
0.812128
0.811439
0.8094359
0.8195661
0.8182796
0.8170638
0.8159887
0.8151068
0.8144545
0.8140488
0.8138832
0.8139131
0.81405
0.8141341
0.8137877
0.8134407
0.8131134
0.8126616
0.8121118
0.8091424
0.8208322
0.8195874
0.8184121
0.8173732
0.8165207
0.8158884
0.8154919
0.8153223
0.8153381
0.8154476
0.8155061
0.8151384
0.8147881
0.8144338
0.814098
0.8137977
0.8123691
0.8094439
0.8220985
0.8209021
0.819777
0.8187848
0.8179717
0.8173703
0.8169971
0.816848
0.8168872
0.8170328
0.8171312
0.8168068
0.8164813
0.8161648
0.8158365
0.8156634
0.8145866
0.8132219
0.8103402
0.8233535
0.8222097
0.8211415
0.8202023
0.8194346
0.8188703
0.81853
0.8184192
0.8185197
0.8187664
0.8190004
0.8187774
0.8185437
0.8182891
0.8180241
0.8178646
0.8169934
0.8160142
0.8147581
0.8119445
0.8245771
0.8234873
0.8224765
0.8215906
0.8208676
0.8203399
0.8200336
0.8199693
0.8201606
0.8205973
0.821149
0.8211283
0.8210464
0.8209081
0.8207164
0.8206171
0.8198258
0.8190808
0.8182514
0.8171615
0.8145556
0.8257443
0.8247025
0.8237414
0.8228994
0.8222127
0.8217129
0.8214307
0.8214008
0.8216793
0.8223901
0.8238719
0.8241616
0.8242292
0.8241711
0.8240457
0.8239995
0.8233259
0.8226912
0.8221257
0.8215092
0.8207119
0.8184135
0.829487
0.8288872
0.8284528
0.8281338
0.8279115
0.8278989
0.82733
0.8268253
0.826386
0.8260455
0.8257439
0.8252623
0.8233404
0.8330989
0.8324635
0.8319623
0.8315948
0.8313674
0.8313914
0.8309136
0.8304923
0.8301535
0.8299049
0.8298249
0.8297889
0.8295339
0.8279805
0.8357105
0.8351159
0.8346382
0.8342893
0.8340839
0.8341339
0.8337098
0.8333409
0.8330411
0.8328384
0.8327846
0.8328882
0.8329999
0.8329108
0.8316324
0.8375709
0.8370091
0.8365561
0.8362255
0.8360333
0.8360863
0.835686
0.8353321
0.8350404
0.8348266
0.8347565
0.8348179
0.8349894
0.8351822
0.8351821
0.8387864
0.8382392
0.837795
0.8374667
0.8372695
0.8373046
0.8369005
0.8365359
0.8362211
0.8359725
0.8358409
0.8358291
0.8358979
0.8360777
0.8362806
0.8261853
0.8244964
0.8224789
0.8206616
0.8199112
0.8178907
0.8157939
0.8144448
0.8131934
0.8120952
0.8112044
0.8105729
0.8102561
0.8103136
0.8108559
0.812069
0.8145397
0.815235
0.8153528
0.8136202
0.8171201
0.8157969
0.8145648
0.8134828
0.8126034
0.8119735
0.8116335
0.8116234
0.8119685
0.8126857
0.8136009
0.8138176
0.8138658
0.8135558
0.8115168
0.8183794
0.8170776
0.815858
0.8147844
0.8139088
0.8132722
0.8129044
0.8128169
0.8129991
0.8133763
0.8137782
0.8136429
0.8135265
0.8132735
0.8127071
0.8107425
0.8196091
0.8183325
0.8171301
0.816069
0.8152003
0.814561
0.8141713
0.8140302
0.8141008
0.8142997
0.8144584
0.8141708
0.8138823
0.8136117
0.8132132
0.8127068
0.8097384
0.8208322
0.8195874
0.8184121
0.8173732
0.8165207
0.8158884
0.8154919
0.8153223
0.8153381
0.8154476
0.8155061
0.8151384
0.8147881
0.8144338
0.814098
0.8137977
0.8123691
0.8094439
0.8220583
0.8208528
0.8197152
0.8187102
0.8178851
0.8172718
0.816884
0.8167125
0.8167146
0.8168043
0.8168361
0.8164606
0.8160854
0.8157227
0.8153529
0.8151435
0.814029
0.8126255
0.8097445
0.823286
0.8221259
0.8210359
0.8200748
0.819287
0.8187029
0.8183377
0.8181863
0.8182136
0.8183382
0.8184143
0.818077
0.8177376
0.8173894
0.8170442
0.8168168
0.8158772
0.8148179
0.8134779
0.8106395
0.8245035
0.8233937
0.8223574
0.8214467
0.8207019
0.8201533
0.8198198
0.819706
0.819793
0.8200176
0.8202241
0.819989
0.8197342
0.8194573
0.8191516
0.8189563
0.818066
0.817208
0.8162459
0.8150137
0.8123037
0.8256921
0.8246331
0.8236519
0.8227917
0.8220897
0.821576
0.8212754
0.8212068
0.8213825
0.8217911
0.8223056
0.822264
0.8221595
0.8219906
0.8217665
0.8216098
0.8208087
0.8200281
0.8192959
0.8184828
0.8174691
0.8149198
0.8268261
0.8258137
0.8248793
0.8240614
0.8233936
0.8229067
0.8226294
0.8225947
0.8228555
0.8235297
0.8249407
0.8251986
0.8252365
0.8251485
0.8249848
0.8248902
0.8241799
0.8235153
0.8228911
0.8223381
0.8217855
0.8210231
0.8186842
0.8303652
0.8297643
0.8293191
0.8289791
0.8287262
0.8286617
0.82806
0.8274998
0.8270049
0.8265769
0.8262928
0.8260167
0.8254899
0.8235146
0.8338682
0.8332318
0.8327217
0.8323361
0.8320786
0.8320548
0.8315393
0.8310696
0.8306574
0.8303287
0.8301312
0.8300717
0.829991
0.8296838
0.8280659
0.8364107
0.8358135
0.8353264
0.8349597
0.8347262
0.8347304
0.8342729
0.8338562
0.8334956
0.8332049
0.8330492
0.8330128
0.833073
0.8331347
0.8329858
0.8382296
0.8376646
0.8372024
0.8368551
0.8366372
0.8366492
0.8362185
0.835825
0.8354786
0.8351952
0.8350251
0.8349703
0.8349898
0.8351134
0.8352502
0.8394255
0.8388755
0.8384234
0.8380806
0.8378608
0.83786
0.8374311
0.8370334
0.8366757
0.8363684
0.8361608
0.836043
0.8359908
0.8360138
0.8361406
0.8287741
0.8280475
0.8264092
0.8253776
0.8247496
0.8230119
0.8215806
0.8211282
0.820674
0.8189147
0.817186
0.8158851
0.8146794
0.8136219
0.8127631
0.8121521
0.8118371
0.8118794
0.8123657
0.8135026
0.8157848
0.8165227
0.8168992
0.816846
0.8150909
0.8184665
0.8171888
0.8160003
0.814957
0.8141084
0.8134979
0.8131637
0.8131379
0.8134509
0.8140978
0.8149456
0.8151038
0.8152406
0.8152127
0.8148431
0.8130042
0.8196838
0.8184255
0.8172476
0.8162113
0.8153655
0.8147487
0.8143872
0.8142925
0.8144472
0.8147876
0.8151314
0.8149824
0.8148266
0.8146797
0.8143956
0.8139835
0.8110453
0.8208738
0.8196384
0.8184761
0.8174506
0.8166107
0.8159908
0.8156096
0.8154634
0.8155179
0.8156861
0.8158151
0.8155019
0.8152053
0.8149018
0.8146126
0.8143544
0.8129649
0.8100398
0.8220583
0.8208528
0.8197152
0.8187102
0.8178851
0.8172718
0.816884
0.8167125
0.8167146
0.8168043
0.8168361
0.8164606
0.8160854
0.8157227
0.8153529
0.8151435
0.814029
0.8126255
0.8097445
0.823247
0.8220782
0.8209762
0.8200028
0.8192034
0.8186079
0.8182287
0.8180559
0.8180477
0.818119
0.8181318
0.8177463
0.8173605
0.8169698
0.8165872
0.816328
0.8153564
0.8142595
0.8128811
0.8100443
0.824438
0.8233125
0.8222552
0.8213235
0.8205593
0.8199917
0.8196343
0.8194815
0.8194983
0.8196059
0.8196619
0.8193185
0.8189644
0.8186005
0.8182215
0.8179661
0.8170163
0.8160902
0.8150482
0.813733
0.8110003
0.8256207
0.8245424
0.8235366
0.8226526
0.8219295
0.8213956
0.8210689
0.8209527
0.8210281
0.821233
0.8214169
0.8211713
0.8209036
0.8206052
0.8202767
0.8200333
0.8191457
0.8182663
0.8174215
0.8164763
0.8153215
0.8126715
0.8267755
0.8257464
0.8247927
0.8239571
0.8232745
0.8227743
0.8224792
0.8224073
0.8225689
0.8229524
0.8234337
0.823376
0.823252
0.823062
0.8228089
0.8226152
0.8217911
0.820999
0.8202289
0.8195094
0.818761
0.8177839
0.8151971
0.8278793
0.8268935
0.8259852
0.8251895
0.82454
0.8240652
0.8237928
0.8237539
0.8239987
0.8246396
0.8259862
0.8262165
0.8262305
0.8261173
0.8259262
0.8257897
0.8250616
0.8243591
0.8237034
0.8230896
0.8225936
0.822068
0.8212597
0.8188681
0.8312319
0.8306321
0.8301795
0.8298242
0.8295466
0.8294432
0.8288153
0.8282213
0.8276698
0.8271847
0.8268082
0.8265455
0.8262241
0.8256443
0.8236038
0.8346319
0.8339964
0.8334804
0.8330811
0.8328004
0.8327372
0.8321962
0.8316881
0.8312266
0.8308234
0.8305421
0.8303625
0.8302592
0.8301279
0.8297603
0.8371081
0.8365101
0.8360164
0.835636
0.8353799
0.835347
0.8348636
0.8344129
0.8340038
0.8336515
0.8334047
0.8332645
0.833186
0.8331981
0.8332034
0.8388867
0.8383201
0.8378512
0.8374908
0.8372517
0.8372295
0.8367761
0.8363518
0.8359652
0.8356264
0.8353841
0.8352278
0.8351325
0.8351061
0.8351767
0.8400628
0.8395117
0.8390536
0.8386992
0.8384606
0.8384295
0.8379817
0.8375587
0.8371673
0.8368166
0.8365481
0.8363531
0.8361962
0.8361001
0.8360728
0.8300554
0.8303602
0.8289816
0.8286686
0.8282495
0.8268495
0.8259763
0.8256096
0.8252229
0.8237504
0.8223963
0.8220137
0.8218272
0.821568
0.8200123
0.81853
0.8172738
0.8161106
0.8150905
0.8142616
0.813669
0.8133586
0.8133827
0.8138294
0.8148732
0.8170072
0.8176451
0.8180685
0.818267
0.8181178
0.816543
0.8197678
0.8185327
0.8173846
0.8163772
0.8155572
0.8149652
0.8146359
0.8146
0.814879
0.8154749
0.8162392
0.8163621
0.816437
0.8164884
0.8163842
0.8161281
0.8133061
0.8209459
0.8197282
0.8185893
0.8175875
0.8167695
0.8161712
0.8158169
0.8157151
0.8158497
0.8161522
0.816456
0.816272
0.8160973
0.8159052
0.8157159
0.8155473
0.814243
0.8113465
0.8220985
0.8209021
0.819777
0.8187848
0.8179717
0.8173703
0.8169971
0.816848
0.8168872
0.8170328
0.8171312
0.8168068
0.8164813
0.8161648
0.8158365
0.8156634
0.8145866
0.8132219
0.8103402
0.823247
0.8220782
0.8209762
0.8200028
0.8192034
0.8186079
0.8182287
0.8180559
0.8180477
0.818119
0.8181318
0.8177463
0.8173605
0.8169698
0.8165872
0.816328
0.8153564
0.8142595
0.8128811
0.8100443
0.8244003
0.8232663
0.8221975
0.8212539
0.8204786
0.8199
0.8195292
0.8193557
0.8193386
0.8193953
0.8193908
0.8190019
0.8186043
0.8182009
0.8177878
0.8175041
0.8165265
0.8155684
0.8144891
0.8131359
0.8104059
0.8255572
0.8244637
0.8234376
0.8225333
0.8217916
0.8212394