/*--------------------------------*- C++ -*----------------------------------*\
| =========                 |                                                 |
| \\      /  F ield         | OpenFOAM: The Open Source CFD Toolbox           |
|  \\    /   O peration     | Version:  2306                                  |
|   \\  /    A nd           | Website:  www.openfoam.com                      |
|    \\/     M anipulation  |                                                 |
\*---------------------------------------------------------------------------*/
FoamFile
{
    version     2.0;
    format      ascii;
    arch        "LSB;label=32;scalar=64";
    class       volScalarField;
    location    "1.5/air";
    object      X.O2;
}
// * * * * * * * * * * * * * * * * * * * * * * * * * * * * * * * * * * * * * //

dimensions      [0 0 0 0 0 0 0];

internalField   nonuniform List<scalar> 
16000
(
0.2070356
0.207041
0.2060567
0.2070021
0.2070491
0.206138
0.2070101
0.204038
0.2059479
0.206924
0.2070566
0.2062433
0.2070211
0.2041443
0.2060581
0.2069395
0.2018723
0.2038996
0.2056639
0.2067756
0.2070612
0.2063328
0.2070313
0.2042896
0.2061931
0.2069579
0.2019808
0.2040381
0.2058146
0.2068085
0.1997257
0.2017283
0.2035544
0.2051374
0.2065037
0.2070612
0.2063829
0.2070372
0.2044185
0.2063036
0.2069742
0.2021299
0.2042192
0.205998
0.2068448
0.1998309
0.2018686
0.2037315
0.205331
0.2065682
0.1976607
0.199586
0.2013719
0.202941
0.2043052
0.2060086
0.1699446
0.2070566
0.2063829
0.2070372
0.2044927
0.2063643
0.2069834
0.2022627
0.2043758
0.2061454
0.2068724
0.1999753
0.202053
0.2039602
0.2055719
0.2066423
0.1977606
0.1997217
0.2015485
0.203154
0.2045376
0.2061135
0.1956932
0.1975273
0.1992409
0.2007447
0.2020082
0.2031187
0.2051693
0.1712259
0.1684927
0.1697419
0.2070491
0.2063328
0.2070313
0.2044927
0.2063643
0.2069834
0.2023393
0.2044648
0.2062254
0.206887
0.2001038
0.2022133
0.2041559
0.2057697
0.2066997
0.1978977
0.1998997
0.2017775
0.2034301
0.2048346
0.2062488
0.195788
0.197656
0.1994105
0.2009524
0.2022519
0.2033883
0.2053175
0.1938222
0.195567
0.1971981
0.198636
0.1998029
0.2007153
0.2015181
0.2038292
0.1738147
0.1696398
0.1710184
0.1681225
0.1683073
0.1693372
0.207041
0.2062433
0.2070211
0.2044185
0.2063036
0.2069742
0.2023393
0.2044648
0.2062254
0.206887
0.2001779
0.2023046
0.2042662
0.2058779
0.2067303
0.1980197
0.2000544
0.2019746
0.2036662
0.2050839
0.2063626
0.1959178
0.1978249
0.19963
0.2012224
0.2025702
0.2037358
0.2055197
0.1939119
0.1956889
0.1973586
0.1988335
0.200034
0.2009857
0.2018361
0.2040526
0.1920402
0.1937024
0.1952553
0.1966218
0.1977323
0.1985174
0.1990305
0.1994343
0.2017499
0.1778074
0.1719525
0.1735908
0.1691867
0.1694509
0.1706055
0.1679604
0.1679519
0.1679373
0.1687318
0.2070356
0.206138
0.2070101
0.2042896
0.2061931
0.2069579
0.2022627
0.2043758
0.2061454
0.2068724
0.2001779
0.2023046
0.2042662
0.2058779
0.2067303
0.19809
0.2001424
0.2020862
0.2037993
0.2052223
0.2064261
0.1960333
0.1979715
0.1998186
0.2014549
0.2028442
0.2040308
0.2056953
0.1940349
0.1958488
0.1975663
0.1990896
0.2003372
0.2013426
0.2022496
0.2043582
0.1921255
0.193818
0.1954072
0.1968082
0.1979497
0.1987668
0.1993321
0.1998311
0.2021685
0.1903391
0.1919264
0.1934068
0.1947098
0.1957623
0.1965059
0.1968705
0.1969241
0.1967798
0.1984913
0.1835807
0.1755036
0.1775211
0.1713314
0.1717505
0.1731505
0.1689535
0.169013
0.1690747
0.1699901
0.167778
0.1678015
0.1676111
0.1673836
0.1679272
0.2060567
0.2070021
0.2041443
0.2060581
0.2069395
0.2021299
0.2042192
0.205998
0.2068448
0.2001038
0.2022133
0.2041559
0.2057697
0.2066997
0.19809
0.2001424
0.2020862
0.2037993
0.2052223
0.2064261
0.1960999
0.198055
0.1999253
0.2015866
0.202999
0.204196
0.2057949
0.1941443
0.1959875
0.1977446
0.1993098
0.2005997
0.2016517
0.2026023
0.2046195
0.1922423
0.1939694
0.1956037
0.1970497
0.1982342
0.1990978
0.1997332
0.2003415
0.2026746
0.1904203
0.1920363
0.1935508
0.1948861
0.1959668
0.1967384
0.1971427
0.1972859
0.1973571
0.1994975
0.1887113
0.1902307
0.1916456
0.1928893
0.1938966
0.1945982
0.1949436
0.1948467
0.1943449
0.1933847
0.1929939
0.1805972
0.1829897
0.1746224
0.1752504
0.1769881
0.1709544
0.171146
0.1713529
0.1725044
0.1687113
0.1687918
0.1686669
0.1685137
0.1691754
0.1674807
0.1676288
0.1674841
0.1671011
0.1666473
0.1667666
0.204038
0.2059479
0.206924
0.2019808
0.2040381
0.2058146
0.2068085
0.1999753
0.202053
0.2039602
0.2055719
0.2066423
0.1980197
0.2000544
0.2019746
0.2036662
0.2050839
0.2063626
0.1960999
0.198055
0.1999253
0.2015866
0.202999
0.204196
0.2057949
0.1942074
0.1960665
0.1978456
0.1994344
0.2007488
0.2018268
0.2028003
0.2047661
0.1923463
0.1941008
0.1957723
0.1972572
0.1984799
0.1993863
0.2000811
0.2007712
0.2030729
0.1905317
0.1921802
0.1937369
0.1951143
0.196234
0.197046
0.1975073
0.1977602
0.1980408
0.2003976
0.1887889
0.1903354
0.1917826
0.1930565
0.1940899
0.1948162
0.1951961
0.1951716
0.1948675
0.1944726
0.1959076
0.1871503
0.1886079
0.1899632
0.191154
0.1921178
0.1927954
0.1931183
0.1930328
0.1924066
0.1911517
0.1887735
0.190253
0.1793384
0.1800888
0.1821093
0.1740237
0.1743904
0.1747771
0.1762496
0.1705915
0.1707821
0.1707809
0.1707683
0.1716623
0.1683618
0.1685595
0.1684697
0.1681507
0.1677703
0.1680044
0.1670965
0.1673398
0.1673308
0.1670091
0.1664228
0.1655847
0.1665274
0.2018723
0.2038996
0.2056639
0.2067756
0.1998309
0.2018686
0.2037315
0.205331
0.2065682
0.1978977
0.1998997
0.2017775
0.2034301
0.2048346
0.2062488
0.1960333
0.1979715
0.1998186
0.2014549
0.2028442
0.2040308
0.2056953
0.1942074
0.1960665
0.1978456
0.1994344
0.2007488
0.2018268
0.2028003
0.2047661
0.1924062
0.1941757
0.1958677
0.1973745
0.1986193
0.1995506
0.2002782
0.2010104
0.2032861
0.1906307
0.1923051
0.1938967
0.1953103
0.1964647
0.1973133
0.1978255
0.1981649
0.1985867
0.2010091
0.1888953
0.1904725
0.1919595
0.1932728
0.1943423
0.1951044
0.1955331
0.1956001
0.1954927
0.1954877
0.1974489
0.1872246
0.1887078
0.1900937
0.191313
0.1923012
0.1930017
0.1933549
0.1933347
0.1928822
0.1921497
0.1914754
0.1936808
0.1856501
0.1870512
0.1883523
0.1894946
0.1904207
0.1910728
0.1913956
0.1913118
0.1907368
0.1894196
0.1868973
0.1864584
0.1881225
0.1784194
0.1788718
0.179326
0.1810853
0.1734751
0.1738083
0.1739568
0.1741185
0.1753366
0.1701366
0.1704299
0.1704427
0.1702441
0.170005
0.170468
0.167932
0.1682185
0.1682572
0.1679892
0.1674666
0.1667011
0.1677631
0.1666349
0.1669629
0.1670584
0.1668848
0.1663773
0.1654438
0.1653657
0.1662861
0.1997257
0.2017283
0.2035544
0.2051374
0.2065037
0.1977606
0.1997217
0.2015485
0.203154
0.2045376
0.2061135
0.1959178
0.1978249
0.19963
0.2012224
0.2025702
0.2037358
0.2055197
0.1941443
0.1959875
0.1977446
0.1993098
0.2005997
0.2016517
0.2026023
0.2046195
0.1924062
0.1941757
0.1958677
0.1973745
0.1986193
0.1995506
0.2002782
0.2010104
0.2032861
0.1906878
0.1923761
0.193987
0.195421
0.1965955
0.1974654
0.1980066
0.1983917
0.1988815
0.2013139
0.1889898
0.1905915
0.1921113
0.1934585
0.19456
0.1953548
0.1958266
0.1959676
0.1959957
0.196209
0.1983389
0.1873264
0.1888388
0.1902623
0.1915188
0.1925406
0.193274
0.1936706
0.1937314
0.1934524
0.193082
0.193009
0.1955527
0.1857214
0.187147
0.1884771
0.1896463
0.1905955
0.1912687
0.1916198
0.1915951
0.191181
0.1903425
0.1893958
0.1895941
0.1917086
0.1842061
0.1855552
0.1868066
0.1879048
0.1887956
0.1894271
0.1897439
0.1896864
0.1891441
0.187931
0.1854603
0.184765
0.1846472
0.1863798
0.1776037
0.1779863
0.1781728
0.178432
0.1799877
0.1728583
0.1732733
0.1734057
0.1733534
0.1733005
0.1740983
0.1696152
0.1699842
0.1701116
0.1699436
0.169543
0.1689206
0.1702221
0.1674299
0.1677962
0.1679331
0.1678062
0.1673523
0.1664824
0.1664807
0.1675198
0.1661202
0.1665077
0.166696
0.1666372
0.1662914
0.1654652
0.165242
0.1651448
0.1660428
0.1976607
0.199586
0.2013719
0.202941
0.2043052
0.2060086
0.195788
0.197656
0.1994105
0.2009524
0.2022519
0.2033883
0.2053175
0.1940349
0.1958488
0.1975663
0.1990896
0.2003372
0.2013426
0.2022496
0.2043582
0.1923463
0.1941008
0.1957723
0.1972572
0.1984799
0.1993863
0.2000811
0.2007712
0.2030729
0.1906878
0.1923761
0.193987
0.195421
0.1965955
0.1974654
0.1980066
0.1983917
0.1988815
0.2013139
0.1890444
0.1906592
0.1921971
0.1935634
0.1946833
0.1954972
0.1959933
0.1961743
0.1962686
0.196578
0.1987548
0.1874169
0.1889524
0.190407
0.1916953
0.192747
0.1935103
0.1939453
0.1940707
0.1939118
0.1937463
0.1939421
0.1966067
0.1858191
0.1872724
0.1886382
0.1898425
0.1908233
0.1915272
0.1919184
0.1919675
0.1917119
0.1912034
0.1908141
0.1913977
0.1937957
0.1842746
0.185647
0.1869261
0.1880499
0.1889624
0.189614
0.1899571
0.1899553
0.1895624
0.1887967
0.1877856
0.1876686
0.1879189
0.1899819
0.182814
0.1841149
0.1853206
0.1863781
0.1872369
0.1878479
0.1881629
0.1881206
0.1876343
0.1864974
0.1842152
0.1834773
0.1831008
0.183154
0.1849091
0.1767543
0.1771979
0.1773376
0.1773546
0.1774656
0.1786662
0.172196
0.172668
0.1728961
0.1728456
0.1726042
0.1721865
0.1738437
0.1690312
0.1694707
0.1696839
0.1696435
0.1692917
0.168547
0.1686972
0.1699742
0.1668788
0.1673006
0.1675256
0.1675073
0.1672084
0.166436
0.1662796
0.1662585
0.1672744
0.1655642
0.1659988
0.1662538
0.1662965
0.1660768
0.1654349
0.1652772
0.1650385
0.1649221
0.1657975
0.1956932
0.1975273
0.1992409
0.2007447
0.2020082
0.2031187
0.2051693
0.1939119
0.1956889
0.1973586
0.1988335
0.200034
0.2009857
0.2018361
0.2040526
0.1922423
0.1939694
0.1956037
0.1970497
0.1982342
0.1990978
0.1997332
0.2003415
0.2026746
0.1906307
0.1923051
0.1938967
0.1953103
0.1964647
0.1973133
0.1978255
0.1981649
0.1985867
0.2010091
0.1890444
0.1906592
0.1921971
0.1935634
0.1946833
0.1954972
0.1959933
0.1961743
0.1962686
0.196578
0.1987548
0.1874691
0.1890171
0.1904887
0.191795
0.1928639
0.1936445
0.1941014
0.1942611
0.1941615
0.1940869
0.1943922
0.1970902
0.1859059
0.1873811
0.1887764
0.1900108
0.1910197
0.1917515
0.1921779
0.1922858
0.1921384
0.1918161
0.1916781
0.1924594
0.1949748
0.1843684
0.1857673
0.1870804
0.1882375
0.1891799
0.1898604
0.190241
0.1903081
0.1900623
0.1896024
0.1891033
0.1893401
0.1899005
0.1921918
0.1828799
0.1842031
0.1854352
0.1865172
0.1873966
0.1880265
0.1883665
0.1883766
0.1880315
0.1873143
0.1863991
0.1861824
0.1861342
0.1864442
0.1884832
0.18147
0.1827262
0.1838894
0.1849095
0.1857384
0.186331
0.1866414
0.1866173
0.1861706
0.1851268
0.1829928
0.1823549
0.1819315
0.181733
0.1818822
0.183457
0.17589
0.1763719
0.1765902
0.1765787
0.1764716
0.1762926
0.1783958
0.1714865
0.1720158
0.1723124
0.1723712
0.17215
0.171584
0.1719574
0.1735876
0.1684069
0.1688938
0.169186
0.1692422
0.169032
0.1683654
0.1683418
0.1684721
0.1697244
0.1662898
0.1667555
0.1670431
0.1671218
0.1669429
0.1663482
0.1662472
0.1660751
0.1660345
0.1670271
0.1649799
0.1654481
0.1657564
0.1658735
0.1657649
0.1652679
0.1652584
0.1650877
0.1648333
0.1646975
0.1654982
0.1938222
0.195567
0.1971981
0.198636
0.1998029
0.2007153
0.2015181
0.2038292
0.1921255
0.193818
0.1954072
0.1968082
0.1979497
0.1987668
0.1993321
0.1998311
0.2021685
0.1905317
0.1921802
0.1937369
0.1951143
0.196234
0.197046
0.1975073
0.1977602
0.1980408
0.2003976
0.1889898
0.1905915
0.1921113
0.1934585
0.19456
0.1953548
0.1958266
0.1959676
0.1959957
0.196209
0.1983389
0.1874691
0.1890171
0.1904887
0.191795
0.1928639
0.1936445
0.1941014
0.1942611
0.1941615
0.1940869
0.1943922
0.1970902
0.185956
0.187443
0.1888545
0.1901059
0.1911309
0.1918789
0.1923252
0.1924645
0.1923698
0.1921304
0.1920953
0.1929606
0.1955122
0.1844519
0.1858717
0.1872127
0.1883984
0.1893673
0.190074
0.1904877
0.1906094
0.1904639
0.1901747
0.189905
0.1903252
0.1910624
0.1934539
0.1829702
0.1843188
0.1855833
0.1866969
0.1876047
0.188262
0.1886375
0.1887126
0.1885058
0.1880746
0.1876355
0.1877382
0.1879736
0.1885303
0.1907466
0.1815335
0.1828112
0.1839997
0.185043
0.1858916
0.1865021
0.1868363
0.1868621
0.1865491
0.1859022
0.1850544
0.1848962
0.1847594
0.1847873
0.1851569
0.1869958
0.1801709
0.1813854
0.1825092
0.1834944
0.1842957
0.1848705
0.1851771
0.1851655
0.1847592
0.1837868
0.181805
0.1812386
0.1809057
0.1806624
0.1805718
0.1806134
0.1831623
0.1750006
0.1755279
0.1757993
0.1758795
0.17576
0.1754014
0.1760525
0.1781249
0.1707497
0.1713152
0.1716789
0.1718175
0.1717194
0.1712028
0.1713742
0.1717269
0.1733299
0.1677514
0.1682758
0.168623
0.1687674
0.1686651
0.1681631
0.1681746
0.168135
0.1682453
0.1694726
0.1656754
0.1661719
0.1665098
0.1666589
0.1665865
0.1661307
0.1661709
0.1660567
0.1658689
0.1658086
0.1667253
0.1643746
0.1648686
0.1652162
0.1653935
0.1653676
0.1649976
0.1651011
0.1650803
0.1648965
0.1646264
0.1644235
0.165192
0.1920402
0.1937024
0.1952553
0.1966218
0.1977323
0.1985174
0.1990305
0.1994343
0.2017499
0.1904203
0.1920363
0.1935508
0.1948861
0.1959668
0.1967384
0.1971427
0.1972859
0.1973571
0.1994975
0.1888953
0.1904725
0.1919595
0.1932728
0.1943423
0.1951044
0.1955331
0.1956001
0.1954927
0.1954877
0.1974489
0.1874169
0.1889524
0.190407
0.1916953
0.192747
0.1935103
0.1939453
0.1940707
0.1939118
0.1937463
0.1939421
0.1966067
0.185956
0.187443
0.1888545
0.1901059
0.1911309
0.1918789
0.1923252
0.1924645
0.1923698
0.1921304
0.1920953
0.1929606
0.1955122
0.1845
0.185931
0.1872875
0.1884892
0.1894735
0.1901954
0.1906277
0.1907784
0.1906817
0.1904677
0.1902919
0.1907907
0.1916058
0.1940286
0.1830505
0.184419
0.1857103
0.186851
0.187784
0.1884662
0.1888729
0.1889994
0.1888864
0.1886145
0.1883868
0.1886542
0.1890535
0.1897609
0.1920506
0.1816206
0.1829224
0.184142
0.1852156
0.1860912
0.1867278
0.1870956
0.1871831
0.1870009
0.1866237
0.1862218
0.1863571
0.1864735
0.1867265
0.1872929
0.1892575
0.1802322
0.1814673
0.1826154
0.1836228
0.1844428
0.1850348
0.1853641
0.1854
0.185121
0.1845251
0.1837608
0.1836379
0.183563
0.1835116
0.1836158
0.1838719
0.1866939
0.1789137
0.1800893
0.1811763
0.182129
0.1829044
0.1834625
0.1837645
0.1837647
0.1833902
0.182486
0.1806276
0.1801426
0.1798726
0.1797168
0.1795866
0.1794185
0.1803558
0.1828695
0.1741027
0.1746564
0.1749856
0.1751296
0.175113
0.1747684
0.1751823
0.1758119
0.1778537
0.1699922
0.1705863
0.1709949
0.17121
0.1712029
0.1708318
0.1710081
0.1711631
0.1714949
0.1730707
0.1670763
0.167626
0.1680175
0.1682248
0.1682203
0.1678451
0.1679841
0.1679823
0.1679267
0.1680167
0.1691657
0.1650425
0.1655623
0.1659368
0.1661431
0.1661495
0.1658162
0.1659633
0.1659921
0.1658648
0.165661
0.1655331
0.1664166
0.1637552
0.1642678
0.1646463
0.164869
0.1649106
0.1646372
0.1648394
0.164933
0.1649008
0.1647038
0.1643739
0.1641434
0.1649592
0.1903391
0.1919264
0.1934068
0.1947098
0.1957623
0.1965059
0.1968705
0.1969241
0.1967798
0.1984913
0.1887889
0.1903354
0.1917826
0.1930565
0.1940899
0.1948162
0.1951961
0.1951716
0.1948675
0.1944726
0.1959076
0.1873264
0.1888388
0.1902623
0.1915188
0.1925406
0.193274
0.1936706
0.1937314
0.1934524
0.193082
0.193009
0.1955527
0.1859059
0.1873811
0.1887764
0.1900108
0.1910197
0.1917515
0.1921779
0.1922858
0.1921384
0.1918161
0.1916781
0.1924594
0.1949748
0.1845
0.185931
0.1872875
0.1884892
0.1894735
0.1901954
0.1906277
0.1907784
0.1906817
0.1904677
0.1902919
0.1907907
0.1916058
0.1940286
0.1830968
0.1844761
0.185782
0.1869381
0.1878855
0.1885821
0.1890064
0.1891602
0.1890927
0.1888909
0.1887489
0.1890869
0.189559
0.1903345
0.1926449
0.181698
0.1830189
0.184264
0.1853635
0.1862631
0.1869233
0.1873208
0.187457
0.1873634
0.1871358
0.1869311
0.1872165
0.1874791
0.187872
0.188561
0.1905641
0.1803162
0.1815745
0.1827524
0.1837887
0.1846345
0.1852513
0.1856128
0.1857075
0.1855528
0.1852124
0.1848686
0.1850176
0.1851734
0.1853203
0.1856044
0.1860165
0.1889547
0.1789729
0.1801683
0.1812786
0.1822527
0.183046
0.1836205
0.1839441
0.1839898
0.1837367
0.1831913
0.1824892
0.1824188
0.1823818
0.1823949
0.1824279
0.1824523
0.1836111
0.186394
0.1776959
0.1788348
0.1798875
0.1808098
0.181561
0.1821034
0.1824005
0.18241
0.1820647
0.181217
0.179472
0.1790467
0.1788484
0.1787524
0.1787099
0.1785198
0.1791843
0.1800998
0.1825787
0.1731991
0.1737745
0.1741409
0.1743513
0.1744074
0.1741849
0.1745654
0.1749629
0.175571
0.1775821
0.169224
0.169836
0.1702809
0.1705491
0.1706277
0.170366
0.1706493
0.1708121
0.1709508
0.1712616
0.1727551
0.1663876
0.1669561
0.167379
0.1676375
0.1677044
0.167443
0.1676762
0.1678037
0.1677885
0.1677167
0.1677379
0.1688517
0.1643975
0.1649339
0.165337
0.1655861
0.1656569
0.1654165
0.1656575
0.1657945
0.1658119
0.1656712
0.1654074
0.1652513
0.1661818
0.1631262
0.1636524
0.1640543
0.1643135
0.164407
0.1642135
0.1644867
0.1646799
0.1647635
0.1647198
0.1644686
0.1641159
0.1639304
0.1648011
0.1887113
0.1902307
0.1916456
0.1928893
0.1938966
0.1945982
0.1949436
0.1948467
0.1943449
0.1933847
0.1929939
0.1872246
0.1887078
0.1900937
0.191313
0.1923012
0.1930017
0.1933549
0.1933347
0.1928822
0.1921497
0.1914754
0.1936808
0.1858191
0.1872724
0.1886382
0.1898425
0.1908233
0.1915272
0.1919184
0.1919675
0.1917119
0.1912034
0.1908141
0.1913977
0.1937957
0.1844519
0.1858717
0.1872127
0.1883984
0.1893673
0.190074
0.1904877
0.1906094
0.1904639
0.1901747
0.189905
0.1903252
0.1910624
0.1934539
0.1830968
0.1844761
0.185782
0.1869381
0.1878855
0.1885821
0.1890064
0.1891602
0.1890927
0.1888909
0.1887489
0.1890869
0.189559
0.1903345
0.1926449
0.1817426
0.1830738
0.184333
0.1854471
0.1863604
0.1870343
0.1874485
0.1876105
0.1875599
0.1873979
0.187273
0.1876222
0.1879497
0.1884066
0.1891519
0.19116
0.1803909
0.1816675
0.1828699
0.183931
0.1847997
0.185439
0.1858287
0.1859698
0.1858992
0.1857003
0.1855416
0.1858292
0.1861177
0.1863883
0.1867868
0.1872932
0.1902616
0.1790541
0.1802718
0.1814107
0.1824125
0.1832305
0.1838288
0.1841831
0.1842849
0.1841503
0.1838478
0.183544
0.183728
0.1839027
0.1840948
0.1842841
0.1844527
0.185757
0.1886535
0.1777532
0.1789112
0.1799863
0.180929
0.1816974
0.1822555
0.1825734
0.1826264
0.1823974
0.1818922
0.1812493
0.1812132
0.1812289
0.1812815
0.1813813
0.1813537
0.1822161
0.1833519
0.1860961
0.176515
0.1776197
0.1786399
0.1795338
0.1802622
0.1807896
0.1810818
0.1810992
0.1807788
0.1799826
0.1783347
0.177964
0.1778163
0.1777874
0.1778038
0.1777124
0.1783032
0.1789517
0.1798453
0.1822897
0.1722977
0.1728854
0.173283
0.1735381
0.1736674
0.173533
0.1739949
0.1743621
0.1747431
0.1753296
0.177253
0.1684499
0.1690744
0.169544
0.1698557
0.1699953
0.1698348
0.1701939
0.1704657
0.1706149
0.1707371
0.1709775
0.1724322
0.1656912
0.1662723
0.1667194
0.1670156
0.167141
0.1669649
0.1672829
0.167506
0.1676219
0.1675932
0.1674606
0.1674529
0.1686127
0.1637449
0.1642931
0.1647176
0.1650008
0.165121
0.1649574
0.1652654
0.1654975
0.1656243
0.1656302
0.1654351
0.1651481
0.1650372
0.1660224
0.1624913
0.1630272
0.1634471
0.1637347
0.1638706
0.1637402
0.1640699
0.1643349
0.1645191
0.1645925
0.1644989
0.1642283
0.1639199
0.1637861
0.1647204
0.1835807
0.1871503
0.1886079
0.1899632
0.191154
0.1921178
0.1927954
0.1931183
0.1930328
0.1924066
0.1911517
0.1887735
0.190253
0.1857214
0.187147
0.1884771
0.1896463
0.1905955
0.1912687
0.1916198
0.1915951
0.191181
0.1903425
0.1893958
0.1895941
0.1917086
0.1843684
0.1857673
0.1870804
0.1882375
0.1891799
0.1898604
0.190241
0.1903081
0.1900623
0.1896024
0.1891033
0.1893401
0.1899005
0.1921918
0.1830505
0.184419
0.1857103
0.186851
0.187784
0.1884662
0.1888729
0.1889994
0.1888864
0.1886145
0.1883868
0.1886542
0.1890535
0.1897609
0.1920506
0.1817426
0.1830738
0.184333
0.1854471
0.1863604
0.1870343
0.1874485
0.1876105
0.1875599
0.1873979
0.187273
0.1876222
0.1879497
0.1884066
0.1891519
0.19116
0.1804339
0.1817204
0.1829362
0.1840113
0.1848932
0.1855455
0.1859512
0.1861168
0.1860869
0.18595
0.1858659
0.1862123
0.1865593
0.1868866
0.1873384
0.1878882
0.1908576
0.1791262
0.1803616
0.1815239
0.1825494
0.1833893
0.1840092
0.1843904
0.1845366
0.1844821
0.1843139
0.1841849
0.1844981
0.1847947
0.1850982
0.1853874
0.1856456
0.1870351
0.1899602
0.1778317
0.1790112
0.1801137
0.1810831
0.1818752
0.182456
0.1828033
0.1829101
0.1827944
0.1825209
0.1822567
0.1824597
0.1826723
0.1828872
0.1831264
0.1832224
0.1842186
0.1854988
0.1883538
0.1765705
0.1776935
0.1787353
0.1796489
0.1803938
0.1809364
0.1812484
0.1813076
0.1810986
0.1806303
0.1800353
0.1800322
0.1800821
0.180187
0.1803271
0.1803778
0.1811357
0.1819816
0.1830944
0.1858002
0.1753691
0.1764412
0.1774311
0.1782981
0.1790052
0.1795184
0.1798056
0.1798297
0.1795315
0.1787802
0.1772203
0.1768927
0.1767906
0.1768078
0.1768893
0.1768647
0.17751
0.1780881
0.1787205
0.1795924
0.1819422
0.1714012
0.1719972
0.1724156
0.1727083
0.172888
0.1728395
0.173354
0.1738046
0.1741585
0.174523
0.175037
0.176916
0.1676746
0.1683062
0.1687946
0.1691375
0.1693276
0.1692414
0.1696718
0.1700207
0.1702809
0.1704166
0.170477
0.170687
0.1721864
0.1649909
0.1655803
0.166045
0.1663712
0.1665408
0.1664355
0.1668126
0.1671216
0.1673345
0.1674388
0.1673551
0.1671989
0.1672362
0.1684505
0.1630879
0.1636443
0.164085
0.1643947
0.164555
0.1644519
0.1648133
0.1651131
0.1653361
0.1654528
0.1654086
0.1651938
0.1649512
0.164892
0.1659409
0.161853
0.1623958
0.1628295
0.1631397
0.1633093
0.1632313
0.1636027
0.163925
0.1641818
0.1643569
0.1643839
0.1642733
0.1640458
0.1637871
0.1637124
0.1778074
0.1805972
0.1829897
0.1856501
0.1870512
0.1883523
0.1894946
0.1904207
0.1910728
0.1913956
0.1913118
0.1907368
0.1894196
0.1868973
0.1864584
0.1881225
0.1842746
0.185647
0.1869261
0.1880499
0.1889624
0.189614
0.1899571
0.1899553
0.1895624
0.1887967
0.1877856
0.1876686
0.1879189
0.1899819
0.1829702
0.1843188
0.1855833
0.1866969
0.1876047
0.188262
0.1886375
0.1887126
0.1885058
0.1880746
0.1876355
0.1877382
0.1879736
0.1885303
0.1907466
0.181698
0.1830189
0.184264
0.1853635
0.1862631
0.1869233
0.1873208
0.187457
0.1873634
0.1871358
0.1869311
0.1872165
0.1874791
0.187872
0.188561
0.1905641
0.1804339
0.1817204
0.1829362
0.1840113
0.1848932
0.1855455
0.1859512
0.1861168
0.1860869
0.18595
0.1858659
0.1862123
0.1865593
0.1868866
0.1873384
0.1878882
0.1908576
0.1791678
0.1804126
0.1815879
0.1826268
0.1834793
0.1841116
0.1845081
0.1846777
0.1846619
0.1845524
0.1844939
0.1848616
0.1852119
0.1855662
0.185902
0.1862023
0.1876309
0.1905561
0.1779015
0.1790979
0.180223
0.1812152
0.1820283
0.1826297
0.1830029
0.183152
0.1831128
0.1829672
0.1828688
0.1831932
0.1835187
0.1838352
0.1841635
0.1843366
0.1854134
0.1867781
0.1896598
0.1766465
0.1777903
0.1788585
0.1797977
0.1805654
0.1811297
0.18147
0.1815808
0.1814803
0.1812336
0.1809996
0.1812226
0.1814563
0.1817109
0.1819759
0.1821354
0.1830066
0.1839858
0.1852419
0.1880555
0.1754229
0.1765127
0.1775235
0.1784094
0.1791324
0.1796601
0.1799664
0.1800307
0.1798394
0.1794027
0.178851
0.1788717
0.1789536
0.1790919
0.1792836
0.1793829
0.1801742
0.1809192
0.1817486
0.1828385
0.1854444
0.1742557
0.1752975
0.1762586
0.1771006
0.1777873
0.1782871
0.1785693
0.1785992
0.1783207
0.1776099
0.1761281
0.1758384
0.1757708
0.1758289
0.1759543
0.1760005
0.1766741
0.1773088
0.1778743
0.1784908
0.1792881
0.1815865
0.170513
0.1711128
0.1715472
0.1718662
0.1720885
0.1721011
0.17267
0.1731747
0.173614
0.1739545
0.1742561
0.1747377
0.1766596
0.1669011
0.1675365
0.1680377
0.1684052
0.1686326
0.1686086
0.1690864
0.1695077
0.1698465
0.1700951
0.1701751
0.1702111
0.1704661
0.1720195
0.1642895
0.1648841
0.1653618
0.1657107
0.1659161
0.1658661
0.1662902
0.1666591
0.1669589
0.1671616
0.1672154
0.1671118
0.1670001
0.1670892
0.1683676
0.1624291
0.1629909
0.1634439
0.1637745
0.1639667
0.1639137
0.164314
0.1646679
0.1649596
0.1651734
0.1652435
0.1651821
0.1650106
0.1648178
0.1648179
0.1612136
0.1617608
0.162205
0.1625333
0.1627305
0.1626954
0.1630995
0.1634641
0.1637789
0.1640275
0.1641591
0.1641709
0.1641021
0.1639223
0.1637194
0.1738147
0.1755036
0.1775211
0.1793384
0.1800888
0.1821093
0.1842061
0.1855552
0.1868066
0.1879048
0.1887956
0.1894271
0.1897439
0.1896864
0.1891441
0.187931
0.1854603
0.184765
0.1846472
0.1863798
0.1828799
0.1842031
0.1854352
0.1865172
0.1873966
0.1880265
0.1883665
0.1883766
0.1880315
0.1873143
0.1863991
0.1861824
0.1861342
0.1864442
0.1884832
0.1816206
0.1829224
0.184142
0.1852156
0.1860912
0.1867278
0.1870956
0.1871831
0.1870009
0.1866237
0.1862218
0.1863571
0.1864735
0.1867265
0.1872929
0.1892575
0.1803909
0.1816675
0.1828699
0.183931
0.1847997
0.185439
0.1858287
0.1859698
0.1858992
0.1857003
0.1855416
0.1858292
0.1861177
0.1863883
0.1867868
0.1872932
0.1902616
0.1791678
0.1804126
0.1815879
0.1826268
0.1834793
0.1841116
0.1845081
0.1846777
0.1846619
0.1845524
0.1844939
0.1848616
0.1852119
0.1855662
0.185902
0.1862023
0.1876309
0.1905561
0.1779417
0.1791472
0.1802848
0.1812898
0.1821149
0.1827282
0.183116
0.1832875
0.1832854
0.1831957
0.1831639
0.1835394
0.1839146
0.1842773
0.1846471
0.1848565
0.185971
0.1873745
0.1902555
0.176714
0.1778741
0.1789641
0.1799252
0.180713
0.1812971
0.1816623
0.1818137
0.1817864
0.1816618
0.1815857
0.181923
0.1822624
0.1826106
0.1829558
0.1831832
0.1841228
0.1851821
0.1865221
0.1893605
0.1754965
0.1766063
0.1776426
0.1785533
0.1792981
0.1798467
0.1801802
0.180294
0.180207
0.1799824
0.1797759
0.180011
0.1802658
0.1805427
0.1808484
0.1810437
0.181934
0.182792
0.1837541
0.1849863
0.1876963
0.1743079
0.1753669
0.1763481
0.1772083
0.1779103
0.178424
0.1787246
0.1787932
0.1786175
0.1782089
0.1776944
0.177736
0.1778405
0.1780094
0.1782335
0.1783902
0.1791913
0.1799719
0.1807041
0.1815172
0.1825309
0.1850802
0.1731739
0.1741863
0.1751207
0.1759386
0.1766064
0.1770933
0.1773706
0.1774053
0.1771445
0.1764703
0.1750593
0.1748014
0.1747635
0.1748515
0.1750152
0.1751098
0.1758201
0.1764847
0.1771089
0.1776619
0.1782145
0.1789769
0.1813158
0.1696348
0.1702357
0.1706809
0.1710209
0.1712738
0.1713383
0.17194
0.1725002
0.1729951
0.1734231
0.1737072
0.1739833
0.1745101
0.1764854
0.1661318
0.1667682
0.1672783
0.1676639
0.1679214
0.1679452
0.1684607
0.1689304
0.1693426
0.1696713
0.1698688
0.1699283
0.170009
0.1703162
0.1719341
0.1635893
0.1641865
0.1646736
0.1650403
0.1652738
0.1652696
0.1657271
0.1661438
0.1665044
0.1667951
0.1669508
0.1669872
0.166927
0.1668653
0.1670142
0.1617704
0.1623354
0.1627976
0.1631449
0.1633628
0.1633508
0.1637815
0.164175
0.1645214
0.1648048
0.1649749
0.1650297
0.1650102
0.1648866
0.1647498
0.1605745
0.1611245
0.1615766
0.1619194
0.1621392
0.16214
0.1625689
0.1629666
0.1633243
0.1636316
0.1638392
0.163957
0.1640092
0.1639862
0.1638594
0.1712259
0.1719525
0.1735908
0.1746224
0.1752504
0.1769881
0.1784194
0.1788718
0.179326
0.1810853
0.182814
0.1841149
0.1853206
0.1863781
0.1872369
0.1878479
0.1881629
0.1881206
0.1876343
0.1864974
0.1842152
0.1834773
0.1831008
0.183154
0.1849091
0.1815335
0.1828112
0.1839997
0.185043
0.1858916
0.1865021
0.1868363
0.1868621
0.1865491
0.1859022
0.1850544
0.1848962
0.1847594
0.1847873
0.1851569
0.1869958
0.1803162
0.1815745
0.1827524
0.1837887
0.1846345
0.1852513
0.1856128
0.1857075
0.1855528
0.1852124
0.1848686
0.1850176
0.1851734
0.1853203
0.1856044
0.1860165
0.1889547
0.1791262
0.1803616
0.1815239
0.1825494
0.1833893
0.1840092
0.1843904
0.1845366
0.1844821
0.1843139
0.1841849
0.1844981
0.1847947
0.1850982
0.1853874
0.1856456
0.1870351
0.1899602
0.1779417
0.1791472
0.1802848
0.1812898
0.1821149
0.1827282
0.183116
0.1832875
0.1832854
0.1831957
0.1831639
0.1835394
0.1839146
0.1842773
0.1846471
0.1848565
0.185971
0.1873745
0.1902555
0.176753
0.1779218
0.1790238
0.1799972
0.1807966
0.1813921
0.1817713
0.1819441
0.1819523
0.181881
0.1818682
0.1822537
0.1826395
0.1830302
0.1834128
0.183672
0.1846436
0.1857405
0.1871189
0.1899557
0.175562
0.1766875
0.1777448
0.1786765
0.1794407
0.1800083
0.1803657
0.1805185
0.1805017
0.1803941
0.1803381
0.1806815
0.1810356
0.1813995
0.1817785
0.1820339
0.1829837
0.1839098
0.1849518
0.186267
0.1889997
0.1743793
0.1754576
0.1764634
0.1773474
0.1780705
0.1786044
0.1789311
0.1790473
0.1789719
0.178767
0.1785831
0.1788287
0.1790964
0.1793948
0.1797233
0.1799667
0.1808543
0.1817337
0.1825785
0.1835237
0.1846785
0.1873285
0.1732245
0.1742536
0.1752073
0.1760429
0.1767255
0.1772257
0.1775208
0.1775927
0.1774311
0.1770476
0.1765663
0.176624
0.176748
0.176938
0.1771911
0.1773848
0.1782089
0.179001
0.1797711
0.1804906
0.181239
0.1822161
0.1848029
0.1721207
0.1731065
0.1740148
0.1748105
0.17546
0.1759348
0.1762072
0.1762461
0.1760013
0.1753604
0.1740138
0.1737835
0.1737695
0.1738827
0.1740738
0.1742103
0.1749384
0.1756409
0.1762966
0.1769104
0.1774064
0.177932
0.1787403
0.1811319
0.1687681
0.1693679
0.1698205
0.1701758
0.1704534
0.1705568
0.1711847
0.1717787
0.1723302
0.1728153
0.1731918
0.1734545
0.1737759
0.1743557
0.1763962
0.1653681
0.1660036
0.1665196
0.1669189
0.1671996
0.1672628
0.1678038
0.1683119
0.1687734
0.1691766
0.1694579
0.1696375
0.1697408
0.1698721
0.1702397
0.1628919
0.1634899
0.1639836
0.164364
0.1646201
0.164653
0.1651364
0.1655871
0.1659962
0.1663485
0.1665953
0.1667355
0.166814
0.1668019
0.1667966
0.1611133
0.1616799
0.1621488
0.1625092
0.1627483
0.1627705
0.1632239
0.1636482
0.1640348
0.1643736
0.1646159
0.1647722
0.1648675
0.1648939
0.1648233
0.1599372
0.1604883
0.1609464
0.1613008
0.1615394
0.1615705
0.1620183
0.1624413
0.1628327
0.1631834
0.1634519
0.1636469
0.1638038
0.1638999
0.1639272
0.1699446
0.1696398
0.1710184
0.1713314
0.1717505
0.1731505
0.1740237
0.1743904
0.1747771
0.1762496
0.1776037
0.1779863
0.1781728
0.178432
0.1799877
0.18147
0.1827262
0.1838894
0.1849095
0.1857384
0.186331
0.1866414
0.1866173
0.1861706
0.1851268
0.1829928
0.1823549
0.1819315
0.181733
0.1818822
0.183457
0.1802322
0.1814673
0.1826154
0.1836228
0.1844428
0.1850348
0.1853641
0.1854
0.185121
0.1845251
0.1837608
0.1836379
0.183563
0.1835116
0.1836158
0.1838719
0.1866939
0.1790541
0.1802718
0.1814107
0.1824125
0.1832305
0.1838288
0.1841831
0.1842849
0.1841503
0.1838478
0.183544
0.183728
0.1839027
0.1840948
0.1842841
0.1844527
0.185757
0.1886535
0.1779015
0.1790979
0.180223
0.1812152
0.1820283
0.1826297
0.1830029
0.183152
0.1831128
0.1829672
0.1828688
0.1831932
0.1835187
0.1838352
0.1841635
0.1843366
0.1854134
0.1867781
0.1896598
0.176753
0.1779218
0.1790238
0.1799972
0.1807966
0.1813921
0.1817713
0.1819441
0.1819523
0.181881
0.1818682
0.1822537
0.1826395
0.1830302
0.1834128
0.183672
0.1846436
0.1857405
0.1871189
0.1899557
0.1755997
0.1767337
0.1778025
0.1787461
0.1795214
0.1801
0.1804708
0.1806443
0.1806614
0.1806047
0.1806092
0.1809981
0.1813957
0.1817991
0.1822122
0.1824959
0.1834735
0.1844316
0.1855109
0.1868641
0.1895941
0.1744428
0.1755363
0.1765624
0.1774667
0.1782084
0.1787606