/*--------------------------------*- C++ -*----------------------------------*\
| =========                 |                                                 |
| \\      /  F ield         | OpenFOAM: The Open Source CFD Toolbox           |
|  \\    /   O peration     | Version:  2306                                  |
|   \\  /    A nd           | Website:  www.openfoam.com                      |
|    \\/     M anipulation  |                                                 |
\*---------------------------------------------------------------------------*/
FoamFile
{
    version     2.0;
    format      ascii;
    arch        "LSB;label=32;scalar=64";
    class       volVectorField;
    location    "1.5/phiEC";
    object      i;
}
// * * * * * * * * * * * * * * * * * * * * * * * * * * * * * * * * * * * * * //

dimensions      [0 -2 0 0 0 1 0];

internalField   nonuniform List<vector> 
20000
(
(38.68626 85.99236 18634.03)
(38.27082 251.4727 18448.96)
(93.08535 81.8379 17847.41)
(118.6395 284.1607 19405.81)
(37.47089 397.012 18090.96)
(92.12546 239.319 17671.31)
(117.2578 834.6688 19171.73)
(109.0172 76.39342 16745.44)
(284.6343 270.344 18564.38)
(206.9708 554.1349 21147.52)
(36.35083 508.4129 17586.27)
(90.27761 377.812 17330.72)
(114.5787 1328.357 18708.16)
(107.9525 223.3953 16581.08)
(281.4493 794.0605 18341.85)
(204.2478 1646.769 20845.73)
(103.7411 71.1903 15641.52)
(332.159 252.3105 17402.92)
(493.6622 526.9047 20184.3)
(311.2842 887.7418 24134.92)
(35.0104 571.9039 16977.83)
(87.69093 483.8079 16850.58)
(110.7884 1717.863 18030.73)
(105.9032 352.6667 16263.2)
(275.2754 1263.662 17901.16)
(198.8695 2679.02 20213.03)
(102.7654 208.1792 15488.37)
(328.6358 741.0794 17195.32)
(487.409 1565.755 19897.66)
(306.8724 2703.639 23881.26)
(91.90443 66.63593 14649.79)
(315.3888 235.1117 16249.64)
(571.9655 491.603 18890.5)
(736.0383 843.6234 22963.99)
(441.1575 1061.457 28183.81)
(33.58155 577.3877 16325.9)
(84.59618 544.2111 16271.76)
(106.2023 1948.848 17179.99)
(103.0356 451.5987 15815.09)
(266.5449 1634.099 17257.28)
(191.0418 3564.745 19199.37)
(100.8877 328.6436 15192.15)
(321.8089 1179.313 16784.22)
(475.0658 2546.96 19296.83)
(297.8193 4621.07 23278.42)
(91.05703 194.861 14506.43)
(312.1648 690.5597 16056.21)
(565.0799 1460.805 18623.23)
(725.9481 2568.99 22723.26)
(435.8486 3359.765 28359.82)
(79.97473 62.71623 13786.47)
(279.1066 220.0697 15218.06)
(540.7134 458.0483 17626.61)
(843.6968 786.8404 21445.94)
(1031.459 1008.368 26720.49)
(563.2498 667.1567 31118.44)
(32.21406 522.6472 15702.04)
(81.29778 549.4243 15651.6)
(101.2771 1974.178 16240.57)
(99.60581 507.9723 15274.91)
(255.9862 1853.735 16448.76)
(181.2557 4152.215 17766.12)
(98.26057 420.8337 14774.6)
(312.1604 1524.971 16183.6)
(457.1175 3388.608 18334.47)
(283.7692 6611.693 22080.98)
(89.4264 307.6185 14229.17)
(305.9188 1098.908 15673.19)
(551.4983 2376.105 18063.07)
(705.2674 4390.039 22151.35)
(424.2846 6279.589 28767.34)
(79.24329 183.3988 13651.55)
(276.3082 646.3787 15037.01)
(534.4272 1361.083 17377.63)
(832.6406 2395.931 21221.58)
(1019.345 3191.036 26887.32)
(559.9918 1992.374 31634.75)
(69.83139 59.32144 13036.02)
(242.7785 207.1271 14321.64)
(477.5045 428.7411 16505.14)
(792.4609 733.0613 19993.77)
(1166.009 940.3187 24896.18)
(1303.038 634.5769 29419.29)
(651.7698 413.7115 32320.81)
(31.05082 414.379 15173.04)
(78.14097 497.34 15058.15)
(96.56521 1783.065 15348.38)
(95.95096 512.8355 14696.16)
(244.6495 1877.808 15556.05)
(170.4862 4240.601 15993.72)
(95.11888 473.3645 14271.25)
(300.4975 1729.894 15429.48)
(434.6992 3946.66 16974.1)
(264.6053 8360.142 19740.49)
(87.14506 393.9104 13838.32)
(297.0935 1420.984 15113.6)
(531.77 3161.079 17165.96)
(673.2268 6279.553 21015.81)
(404.0755 10640.62 29577.37)
(77.83581 289.524 13390.59)
(270.8872 1028.601 14678.49)
(522.0325 2213.861 16855.82)
(810.0109 4093.856 20688.67)
(993.017 5961.859 27273.82)
(553.4641 3209.378 32832.43)
(69.19408 173.4717 12908.4)
(240.3634 608.3649 14151.23)
(472.0532 1273.996 16272.09)
(782.3925 2232.132 19784.79)
(1152.773 2975.347 25051.56)
(1295.537 1894.517 29908.36)
(649.8682 1189.971 32776.34)
(61.62213 56.34312 12377.48)
(211.966 195.9182 13542.82)
(415.0223 403.5346 15533.75)
(697.6788 686.1566 18718.39)
(1086.224 876.0089 23189.79)
(1453.88 592.1417 27363.47)
(1497.482 394.6955 30485.61)
(746.7696 211.6202 33085.99)
(30.20841 265.3536 14791.37)
(75.45529 394.3226 14554.9)
(92.57706 1406.969 14608.45)
(92.45292 464.2223 14142.32)
(233.803 1696.065 14708.17)
(160.2573 3786.891 14411.3)
(91.77135 477.8954 13731.95)
(287.9789 1752.346 14596.85)
(410.042 4030.617 15292.16)
(241.5901 8683.809 15015.05)
(84.41707 443.0801 13367.18)
(286.4286 1611.92 14411.02)
(507.155 3681.461 15898.01)
(629.6075 7938.35 18797.12)
(369.9285 18284.07 31292.35)
(75.86671 370.7404 13022.73)
(263.2283 1330.069 14154.71)
(504.0373 2945.174 16020.16)
(775.0215 5855.094 19630.78)
(947.1569 10097.06 28042.53)
(544.0711 3831.405 35131.8)
(67.96774 273.8528 12661.56)
(235.685 968.11 13813.79)
(461.306 2072.207 15783.68)
(761.7984 3813.848 19288.44)
(1124.081 5557.709 25411.67)
(1280.556 3050.17 31043.4)
(646.2474 1759.138 33717.97)
(61.05955 164.7624 12256.27)
(209.8617 575.4431 13381.63)
(410.3188 1199.098 15314.39)
(688.9559 2089.305 18522.77)
(1074.189 2771.757 23334.47)
(1445.601 1767.548 27818.85)
(1492.999 1134.748 30915.97)
(746.0296 595.2128 33450.45)
(55.01544 53.69563 11792.65)
(187.0526 186.084 12859.39)
(362.282 381.7058 14690.58)
(605.6905 645.8318 17618.13)
(952.6332 819.9666 21707.08)
(1344.266 551.7815 25472.16)
(1656.679 368.8803 28318.45)
(1703.275 204.2209 31124.89)
(847.8797 49.25051 33506.33)
(29.76702 91.25665 14591.93)
(73.50997 252.5155 14191.8)
(89.7058 896.8603 14086.4)
(89.47644 368.0691 13672.67)
(224.6197 1338.375 14004.91)
(151.7602 2938.351 13196.49)
(88.56742 432.5948 13215.88)
(276.0005 1582.767 13806.02)
(386.6138 3599.631 13790.19)
(220.7879 7377.525 12028.61)
(81.51045 447.321 12862.39)
(274.9829 1632.837 13635.31)
(480.0994 3759.747 14330.48)
(577.2985 8245.636 14318.78)
(309.7403 19664.35 7108.252)
(73.51213 417.0183 12579.29)
(253.9739 1508.787 13497.09)
(481.5967 3429.955 14839.11)
(727.4951 7400.86 17564.19)
(869.9591 17340.72 29670.34)
(534.239 1947.245 39403.28)
(66.25207 350.6736 12313.61)
(229.0755 1251.851 13320.8)
(445.7057 2756.721 15001.49)
(729.9871 5454.395 18303.19)
(1074.294 9410.045 26128.12)
(1259.096 3639.154 33223.49)
(641.5717 1800.036 35147.72)
(59.97701 260.104 12021.82)
(205.7855 915.7224 13062.44)
(401.0463 1950.387 14854.67)
(671.1181 3569.802 18058.17)
(1048.131 5177.074 23669.83)
(1429.127 2844.968 28875.95)
(1484.512 1676.174 31806.33)
(744.628 837.9985 34134.49)
(54.51262 157.0205 11677.13)
(185.195 546.5591 12706.28)
(358.1838 1134.236 14483.08)
(598.1661 1966.524 17434)
(942.212 2594.422 21842.47)
(1336.704 1646.981 25896.15)
(1651.603 1060.27 28718.61)
(1701.311 573.7971 31466.93)
(848.2206 141.4756 33824.83)
(49.63723 51.31494 11267.36)
(167.0085 177.3419 12252.34)
(319.7189 362.5532 13950.66)
(528.5834 610.9124 16664.19)
(825.8612 771.7965 20433.19)
(1174.908 516.5225 23841.31)
(1524.453 343.9423 26349.74)
(1867.467 191.9813 28871.28)
(1918.954 52.66036 31425.07)
(954.8956 -106.8773 33628.98)
(29.76702 -91.25665 14591.93)
(72.49054 86.8427 14002.06)
(88.20789 307.612 13817.79)
(87.32002 235.7061 13333.79)
(218.006 853.1686 13508.67)
(145.7542 1846.674 12390.75)
(85.84097 342.9936 12778.24)
(265.8553 1248.999 13150.04)
(367.1382 2793.321 12636.85)
(204.505 5448.083 10170.68)
(78.72851 404.9185 12379.33)
(264.0305 1474.829 12898.53)
(454.3815 3357.853 12930.53)
(529.9574 7006.674 11487.21)
(268.5382 13475.63 5153.533)
(71.0034 421.0097 12104.19)
(244.0425 1528.365 12771.01)
(456.939 3502.882 13379.06)
(670.5984 7687.308 13393.36)
(734.3803 18650.45 6767.5)
(64.20053 394.447 11894.17)
(221.0893 1420.061 12701.83)
(426.2555 3210.477 13896.03)
(686.8243 6894.119 16378.6)
(990.8587 16156.3 27645.39)
(1236.74 1848.924 37274.2)
(637.607 817.1574 36756.07)
(58.46251 333.0684 11691.34)
(200.0267 1184.112 12596.11)
(387.5874 2594.67 14118.43)
(643.5746 5105.353 17135.97)
(1002.998 8764.842 24337.13)
(1405.649 3393.247 30906.8)
(1473.636 1713.632 33159.71)
(742.8721 793.3083 35004.94)
(53.54508 247.8823 11453.69)
(181.5965 869.7596 12403.11)
(350.1048 1844.893 14048.2)
(582.7803 3360.035 16996.67)
(919.6594 4845.808 22156.33)
(1321.683 2650.656 26880.49)
(1642.054 1565.508 29546.88)
(1697.665 806.423 32109.71)
(848.7251 204.6501 34384.84)
(49.18304 150.0588 11156.96)
(165.3481 520.8823 12106.42)
(316.1009 1077.326 13753.56)
(522.0274 1860.203 16490)
(816.8729 2442.019 20560.61)
(1168.349 1541.718 24238.11)
(1519.768 988.5019 26722.13)
(1864.985 539.1165 29188.25)
(1919.22 149.9296 31720.1)
(956.5026 -283.2955 33978.73)
(45.18272 49.15372 10791)
(150.6915 169.4803 11707)
(285.4939 345.5259 13293.22)
(466.5236 580.272 15827.01)
(720.5068 730.0835 19329.89)
(1017.312 486.1892 22444.08)
(1329.533 322.0265 24661.58)
(1709.953 179.3979 26852.14)
(2083.954 51.91291 29104.8)
(2143.428 -90.80715 31432.6)
(1067.517 -300.5022 33423.84)
(30.20841 -265.3536 14791.37)
(72.49054 -86.8427 14002.06)
(88.20789 -307.612 13817.79)
(86.18978 81.06235 13156.71)
(214.5549 292.6329 13253.33)
(142.6599 628.4692 11991.8)
(83.86549 219.6489 12462.47)
(258.546 796.2117 12687.14)
(353.3623 1755.671 11871.72)
(193.5118 3306.242 9088.629)
(76.36109 321.0498 11969.7)
(254.7528 1163.83 12287.37)
(432.9843 2605.837 11855.4)
(492.8393 5175.322 9724.896)
(240.9176 8818.316 4059.2)
(68.60228 381.1012 11649.54)
(234.5389 1380.466 12081.38)
(433.4956 3128.48 12075.06)
(619.0254 6532.933 10755.62)
(641.2126 12787.4 4914.782)
(62.01468 398.2224 11444.78)
(212.519 1438.488 12018.43)
(404.8863 3278.736 12529.42)
(635.1937 7160.939 12494.52)
(844.9507 17376.88 6322.843)
(56.65151 374.6444 11292.95)
(193.0683 1343.222 12010.61)
(370.8079 3021.76 13077.9)
(606.2175 6452.926 15334.57)
(927.5201 15047.28 25750.4)
(1381.326 1723.685 34680.64)
(1464.484 777.5103 34683.52)
(741.4937 338.9024 35737.92)
(52.19145 317.4186 11138.74)
(176.5128 1124.68 11960.17)
(338.3783 2454.338 13351.75)
(559.0254 4805.389 16128.6)
(880.6236 8203.934 22780.88)
(1300.326 3161.143 28771.77)
(1629.918 1599.751 30806.58)
(1693.211 761.965 32929.17)
(849.1491 196.6093 35020.4)
(48.30906 236.8923 10943.44)
(162.1317 828.9002 11817.48)
(308.9684 1752.331 13340.48)
(508.6219 3178.395 16076.29)
(797.4239 4561.19 20856)
(1155.328 2481.191 25159.34)
(1510.975 1459.318 27493.05)
(1860.455 756.9965 29784.32)
(1919.529 213.9343 32239.43)
(959.169 -357.5759 34581.09)
(44.76887 143.7388 10685.25)
(149.1916 497.7919 11567.55)
(282.2598 1026.731 13105.38)
(460.7353 1766.91 15661.54)
(712.6751 2310.049 19450.42)
(1011.651 1451.179 22817.54)
(1325.452 925.491 25010.01)
(1707.564 503.6784 27146.73)
(2083.624 147.2261 29376.4)
(2146.153 -240.5617 31751.35)
(1070.959 -810.6319 33902.31)
(41.42706 47.1765 10355.57)
(137.1756 162.3432 11212.36)
(257.6332 330.2128 12702.4)
(416.6609 553.0293 15082.82)
(635.9936 693.4794 18361.49)
(887.3192 459.9143 21234.79)
(1150.33 303.1323 23218.01)
(1488.082 168.0889 25130.96)
(1898.485 49.35618 27056.97)
(2304.277 -79.62472 29063.99)
(2375.453 -266.0855 31123.12)
(1184.968 -585.3458 32763.24)
(31.05082 -414.379 15173.04)
(73.50997 -252.5155 14191.8)
(89.7058 -896.8603 14086.4)
(86.18978 -81.06235 13156.71)
(214.5549 -292.6329 13253.33)
(142.6599 -628.4692 11991.8)
(82.83 75.54024 12297.46)
(254.7307 273.1004 12448.94)
(346.2614 597.5261 11492.83)
(188.0034 1105.497 8590.004)
(74.64568 205.5964 11674.13)
(248.0672 741.9227 11856.09)
(417.8365 1637.906 11142.05)
(467.7441 3141.226 8698.189)
(223.8421 5008.032 3468.417)
(66.55892 302.1653 11264)
(226.4881 1089.366 11509.33)
(413.9828 2427.87 11073.58)
(578.5101 4825.95 9113.597)
(578.5553 8371.356 3877.137)
(59.9226 360.4737 11014.73)
(204.3179 1299.285 11369.33)
(384.5679 2928.291 11308.88)
(588.3598 6085.792 10037.97)
(744.2281 11917.38 4597.257)
(54.72195 378.2304 10866.11)
(185.6011 1360.652 11364.16)
(352.3735 3086.006 11791.55)
(561.5451 6702.663 11699.1)
(795.7919 16184.14 5895.739)
(50.57282 357.0414 10759.06)
(170.37 1275.806 11404.04)
(323.7586 2858.339 12367.43)
(526.8102 6073.824 14432.92)
(815.3922 14084.24 24103.68)
(1278.255 1605.686 32286.45)
(1619.79 725.6327 32225.56)
(1689.791 325.1183 33620.5)
(849.3489 84.18433 35473.91)
(47.08633 303.3458 10642.44)
(157.5878 1071.847 11395.34)
(298.6155 2331.207 12678.94)
(487.9246 4545.651 15255.08)
(763.7665 7722.17 21443.84)
(1136.832 2958.97 26929.47)
(1499.841 1490.987 28665.79)
(1855.042 714.5646 30544.95)
(1919.635 202.8474 32829.84)
(961.9284 -295.7677 35239.82)
(43.97253 226.9153 10480.72)
(146.2862 792.1563 11291.41)
(275.8841 1670.039 12711.68)
(448.8993 3019.008 15268.55)
(695.729 4314.744 19729.83)
(1000.416 2335.483 23684.63)
(1317.801 1366.236 25731.4)
(1703.231 706.9964 27700.86)
(2082.939 208.803 29854.8)
(2150.669 -303.3186 32300.45)
(1076.788 -1056.433 34743.77)
(41.04732 137.9569 10254.08)
(135.8089 476.8293 11078.78)
(254.7116 981.2287 12522.87)
(411.4864 1683.961 14925.12)
(629.0785 2194.241 18475.96)
(882.3859 1372.758 21588.07)
(1146.803 871.1853 23545.94)
(1485.968 471.8966 25406.48)
(1897.945 139.7809 27308.76)
(2306.118 -210.8807 29355.02)
(2381.592 -717.9203 31553.94)
(1191.34 -1603.224 33486.38)
(38.20881 45.35624 9954.973)
(125.7787 155.8136 10760.16)
(234.5504 316.3099 12166.33)
(376.0702 528.5271 14413.7)
(568.1549 660.9319 17500.22)
(783.3414 436.856 20173.18)
(1003.201 286.7542 21969.14)
(1286.555 158.2618 23662.06)
(1648.541 46.50667 25322.3)
(2088.203 -72.39495 27006.87)
(2526.527 -239.1163 28729.03)
(2612.908 -521.6256 30383.75)
(1305.467 -1023.64 31403.3)
(32.21406 -522.6472 15702.04)
(75.45529 -394.3226 14554.9)
(92.57706 -1406.969 14608.45)
(87.32002 -235.7061 13333.79)
(218.006 -853.1686 13508.67)
(145.7542 -1846.674 12390.75)
(82.83 -75.54024 12297.46)
(254.7307 -273.1004 12448.94)
(346.2614 -597.5261 11492.83)
(188.0034 -1105.497 8590.004)
(73.74648 70.70738 11519.67)
(244.577 254.4802 11634.16)
(410.0237 557.46 10788.79)
(455.1579 1050.412 8224.967)
(215.6672 1625.719 3208.305)
(65.07831 193.5029 10985.81)
(220.6861 694.4532 11105.65)
(400.1633 1526.065 10409.08)
(551.0723 2929.428 8156.808)
(539.7266 4755.528 3316.765)
(58.14223 285.8101 10650.05)
(197.3703 1025.302 10830.9)
(367.6536 2272.514 10371.5)
(551.5329 4495.79 8508.658)
(676.2319 7803.456 3630.62)
(52.87516 342.3767 10457.65)
(178.4557 1228.98 10750.16)
(334.8454 2756.153 10642.7)
(521.0122 5696.324 9399.779)
(704.6632 11100.21 4288.769)
(48.84821 360.4589 10352.28)
(163.778 1292.361 10790.02)
(307.697 2919.111 11150.57)
(488.2898 6308.886 11010.8)
(701.6308 15148.31 5519.852)
(45.62422 341.212 10279.6)
(152.0972 1215.874 10865.32)
(285.7083 2714.948 11743.96)
(459.8562 5745.57 13650.93)
(707.5348 13257.35 22688.91)
(1117.735 1502.975 30219.14)
(1490.582 676.2286 29987.07)
(1850.971 304.7034 31187.26)
(1919.549 86.1823 33251.96)
(963.6888 -114.6101 35685.64)
(42.85841 290.5701 10192.4)
(142.1815 1024.334 10887.98)
(266.6297 2221.737 12081.18)
(430.6248 4317.731 14488.47)
(666.4035 7305.043 20285.88)
(984.4605 2785.211 25350.77)
(1308.126 1395.818 26828.89)
(1698.095 667.1233 28408.23)
(2082.012 196.8083 30399.16)
(2155.334 -250.5695 32901.2)
(1083.011 -907.9463 35695.52)
(40.31658 217.7877 10057.77)
(133.1615 758.7983 10814.27)
(248.9518 1596.03 12146.61)
(400.9054 2877.29 14550.55)
(614.1152 4098.474 18741.36)
(872.595 2209.288 22408.3)
(1140.192 1286.058 24224.89)
(1482.144 662.3136 25924.8)
(1896.928 197.8126 27752.36)
(2309.161 -265.7602 29856.47)
(2391.99 -935.9103 32311.48)
(1202.398 -2150.783 34820.49)
(37.85835 132.634 9857.394)
(124.5246 457.6509 10631.95)
(231.8881 939.9171 11994.36)
(371.3952 1609.355 14262.98)
(561.9727 2091.265 17609.33)
(778.9853 1303.938 20508.74)
(1000.125 824.1161 22279.34)
(1284.718 444.2995 23921.33)
(1647.992 131.651 25557.59)
(2089.445 -191.7169 27275.82)
(2531.176 -645.2587 29120.03)
(2624.381 -1428.923 31030.65)
(1316.532 -2867.879 32484.04)
(35.41216 43.67186 9584.469)
(116.0114 149.8022 10344.09)
(215.0815 303.5898 11676.13)
(342.4298 506.28 13806.34)
(512.9289 631.6566 16725.42)
(699.944 416.3534 19228.65)
(885.7235 272.3788 20872.59)
(1121.861 149.7204 22391.77)
(1424.248 43.86426 23844.86)
(1809.292 -67.20861 25275.76)
(2277.308 -219.5936 26684.57)
(2748.132 -470.6234 27999.58)
(2851.819 -912.9919 28997.51)
(1425.547 -1666.083 28986.68)
(33.58155 -577.3877 16325.9)
(78.14097 -497.34 15058.15)
(96.56521 -1783.065 15348.38)
(89.47644 -368.0691 13672.67)
(224.6197 -1338.375 14004.91)
(151.7602 -2938.351 13196.49)
(83.86549 -219.6489 12462.47)
(258.546 -796.2117 12687.14)
(353.3623 -1755.671 11871.72)
(193.5118 -3306.242 9088.629)
(73.74648 -70.70738 11519.67)
(244.577 -254.4802 11634.16)
(410.0237 -557.46 10788.79)
(455.1579 -1050.412 8224.967)
(215.6672 -1625.719 3208.305)
(64.30218 66.54822 10840.44)
(217.6571 238.1982 10897.92)
(393.0337 519.3989 10080)
(537.296 979.634 7715.762)
(521.1099 1543.971 3069.986)
(56.85219 183.029 10386.92)
(192.3634 653.6124 10450.95)
(355.6727 1428.415 9749.527)
(526.5728 2729.085 7617.497)
(633.975 4433.577 3108.505)
(51.30354 271.4612 10111.27)
(172.4023 969.82 10240.86)
(320.2533 2138.918 9760.376)
(489.1289 4208.08 7968.348)
(643.0327 7268.825 3388.528)
(47.19759 326.2896 9963.006)
(157.47 1167.296 10206.82)
(292.4251 2607.089 10063.79)
(453.3364 5361.629 8846.46)
(622.8707 10389.79 4015.74)
(44.06637 344.4781 9890.845)
(146.205 1231.652 10280.13)
(271.528 2772.672 10588.08)
(426.2943 5967.926 10413.52)
(609.4878 14258.92 5195.311)
(41.52617 326.8417 9844.833)
(137.2216 1161.979 10381.44)
(255.0918 2587.463 11190.07)
(405.8414 5457.521 12964.66)
(617.4098 12541.45 21463.67)
(967.9924 1414.719 28447.25)
(1300.092 633.0471 28065.48)
(1694.263 284.4074 29005.8)
(2081.26 83.31843 30788.77)
(2158.305 -97.0055 33307.96)
(1087.117 -361.643 36366.98)
(39.29425 278.8821 9781.042)
(129.4212 981.2 10427.82)
(240.5913 2123.284 11544.04)
(384.5681 4115.073 13807.06)
(588.2202 6938.978 19269.52)
(858.6918 2634.738 23984.42)
(1131.837 1313.894 25257.86)
(1477.625 624.8881 26586.54)
(1895.682 186.0501 28257.33)
(2312.293 -219.4058 30405.24)
(2403.093 -804.6608 33168.1)
(1214.67 -1918.974 36456.78)
(37.18396 209.3846 9668.659)
(122.0952 728.2792 10378.08)
(226.6395 1528.836 11633.94)
(361.8356 2749.825 13905)
(548.5949 3906.161 17862.25)
(770.3399 2098.542 21287.85)
(994.3625 1216.576 22921.58)
(1281.397 623.5619 24409.1)
(1646.978 186.1748 25972.17)
(2091.493 -241.5705 27739.28)
(2539.056 -841.4237 29807.57)
(2644.289 -1917.481 32224.14)
(1336.423 -4026.834 34620.99)
(35.08719 127.7084 9490.514)
(114.854 439.9945 10220.83)
(212.6384 902.1197 11511.07)
(338.1695 1541.615 13661.96)
(507.3431 1998.64 16829.69)
(696.0496 1242.744 19548.46)
(883.0078 782.8033 21167.23)
(1120.257 420.3189 22637.01)
(1423.749 124.153 24066.22)
(1810.222 -177.9806 25526.83)
(2280.763 -592.629 27045.07)
(2757.004 -1289.414 28584.92)
(2871.737 -2558.318 29960.68)
(1443.675 -4820.912 30450.71)
(32.95281 42.10655 9240.298)
(107.5229 144.2394 9959.239)
(198.3926 291.8788 11225)
(314.0456 485.9245 13250.75)
(467.14 605.0743 16021.81)
(632.0471 397.9124 18378.6)
(791.5427 259.5968 19896.67)
(990.5885 142.2188 21276.16)
(1241.791 41.5184 22567.62)
(1562.022 -63.09641 23804.3)
(1968.798 -204.5584 24975.57)
(2463.549 -432.899 25998.41)
(2965.061 -824.454 26680.97)
(3085.141 -1484.795 26647.22)
(1539.412 -2487.674 49010.61)
(35.0104 -571.9039 16977.83)
(81.29778 -549.4243 15651.6)
(101.2771 -1974.178 16240.57)
(92.45292 -464.2223 14142.32)
(233.803 -1696.065 14708.17)
(160.2573 -3786.891 14411.3)
(85.84097 -342.9936 12778.24)
(265.8553 -1248.999 13150.04)
(367.1382 -2793.321 12636.85)
(204.505 -5448.083 10170.68)
(74.64568 -205.5964 11674.13)
(248.0672 -741.9227 11856.09)
(417.8365 -1637.906 11142.05)
(467.7441 -3141.226 8698.189)
(223.8421 -5008.032 3468.417)
(64.30218 -66.54822 10840.44)
(217.6571 -238.1982 10897.92)
(393.0337 -519.3989 10080)
(537.296 -979.634 7715.762)
(521.1099 -1543.971 3069.986)
(56.17595 62.94608 10249.41)
(189.7493 224.1895 10255.44)
(349.4909 486.1635 9441.503)
(514.0339 912.6497 7206.69)
(613.6791 1439.552 2878.546)
(50.16476 173.84 9861.349)
(168.0398 618.2428 9881.455)
(309.9168 1344.438 9174.949)
(467.5131 2554.438 7134.226)
(604.6797 4130 2902.252)
(45.79291 258.7061 9632.902)
(152.1262 921.1428 9723.058)
(279.7113 2023.228 9229.15)
(425.8396 3960.799 7499.076)
(569.57 6803.621 3173.121)
(42.57535 311.8236 9518.829)
(140.5668 1112.461 9724.315)
(258.0449 2476.296 9555.775)
(395.8403 5071.823 8366.037)
(541.5938 9779.605 3779.477)
(40.1067 329.9703 9472.451)
(131.8989 1177.057 9822.18)
(242.4157 2642.477 10088.43)
(376.207 5668.728 9889.369)
(531.9837 13488.9 4913.862)
(38.07176 313.6948 9447.457)
(124.9017 1113.049 9942.607)
(230.1677 2472.808 10692.39)
(362.4111 5201.391 12354.7)
(544.9556 11913.15 20388.26)
(844.3424 1338.294 26913.66)
(1124.902 595.889 26421.79)
(1474.262 266.3821 27145.63)
(1894.745 78.66216 28618.88)
(2314.279 -84.90157 30776.94)
(2410.419 -320.5853 33772.27)
(1223.16 -786.0694 37745.72)
(36.24046 268.122 9402.61)
(118.663 941.7365 10007.17)
(219.0208 2033.895 11056.72)
(347.075 3932.789 13194.41)
(525.4424 6613.446 18365.62)
(758.0631 2502.685 22784.98)
(987.0788 1242.911 23898.72)
(1277.477 588.3074 25031.86)
(1645.764 174.9817 26444.16)
(2093.595 -199.3946 28246.55)
(2547.476 -723.6582 30585.03)
(2666.383 -1711.355 33688.01)
(1359.888 -3833.174 37593.09)
(34.46187 201.6088 9308.787)
(112.6119 700.1822 9976.743)
(207.8219 1467.358 11165.13)
(329.4577 2634.088 13319.03)
(495.2558 3733.172 17071.4)
(688.3204 2000.066 20291.01)
(877.9189 1155.592 21777.27)
(1117.357 589.9019 23098.38)
(1422.834 175.5321 24456.26)
(1811.755 -224.257 25959.49)
(2286.626 -772.9142 27679.02)
(2772.407 -1730.758 29664.98)
(2907.541 -3593.27 31866.06)
(1477.891 -7259.835 33613.89)
(32.65029 123.131 9149.71)
(106.4496 423.6558 9840.554)
(196.1377 867.3207 11066.31)
(310.1359 1479.634 13112.17)
(462.0494 1914.534 16121.68)
(628.5285 1187.702 18684.24)
(789.1149 746.0693 20177.48)
(989.1713 399.2587 21509.09)
(1241.35 117.5079 22776.98)
(1562.779 -167.0925 24040.42)
(1971.532 -552.0791 25311.84)
(2470.264 -1186.17 26537.46)
(2980.496 -2310.654 27551.11)
(3117.673 -4297.468 27947.37)
(1566.866 -7495.087 52284.47)
(30.7683 40.64671 8919.418)
(100.0575 139.0699 9601.719)
(183.8856 281.0415 10807.65)
(289.7058 467.183 12739.32)
(428.4867 580.751 15377.94)
(575.7303 381.1682 17606.39)
(714.8619 248.1009 19018.09)
(885.3942 135.5487 20282.91)
(1096.61 39.44806 21445.57)
(1361.791 -59.639 22532.56)
(1698.568 -192.2473 23525.64)
(2125.186 -403.4771 24336.52)
(2643.614 -758.6479 24769.8)
(3170.903 -1340.766 24488.16)
(3301.671 -2213.141 44789.76)
(210.6199 -504.5119 15437.95)
(36.35083 -508.4129 17586.27)
(84.59618 -544.2111 16271.76)
(106.2023 -1948.848 17179.99)
(95.95096 -512.8355 14696.16)
(244.6495 -1877.808 15556.05)
(170.4862 -4240.601 15993.72)
(88.56742 -432.5948 13215.88)
(276.0005 -1582.767 13806.02)
(386.6138 -3599.631 13790.19)
(220.7879 -7377.525 12028.61)
(76.36109 -321.0498 11969.7)
(254.7528 -1163.83 12287.37)
(432.9843 -2605.837 11855.4)
(492.8393 -5175.322 9724.896)
(240.9176 -8818.316 4059.2)
(65.07831 -193.5029 10985.81)
(220.6861 -694.4532 11105.65)
(400.1633 -1526.065 10409.08)
(551.0723 -2929.428 8156.808)
(539.7266 -4755.528 3316.765)
(56.17595 -62.94608 10249.41)
(189.7493 -224.1896 10255.44)
(349.4909 -486.1635 9441.503)
(514.0339 -912.6497 7206.69)
(613.6791 -1439.552 2878.546)
(49.56781 59.78584 9730.749)
(165.7622 212.0576 9696.513)
(304.5833 457.5809 8885.024)
(456.6521 854.2454 6749.712)
(586.2435 1341.012 2688.07)
(44.77509 165.6717 9394.718)
(148.275 587.2112 9381.686)
(270.7053 1271.715 8675.363)
(407.1962 2404.317 6713.939)
(536.3843 3865.686 2717.97)
(41.30651 247.2362 9203.358)
(135.7903 877.8701 9263.272)
(246.8205 1921.72 8762.972)
(371.8831 3746.679 7091.419)
(495.6391 6403.961 2986.323)
(38.74812 298.691 9116.101)
(126.8056 1063.149 9290.989)
(230.363 2360.014 9104.555)
(349.3173 4817.518 7944.438)
(472.8295 9251.3 3574.453)
(36.76923 316.6975 9090.053)
(120.0516 1127.493 9406.887)
(218.7157 2525.383 9639.525)
(335.9166 5402.684 9423.591)
(469.5148 12813.12 4666.864)
(35.11224 301.5915 9081.895)
(114.5157 1068.283 9541.462)
(209.5221 2368.708 10240.9)
(327.0558 4971.006 11806.33)
(486.7579 11354.39 19431.86)
(745.392 1271.224 25567.45)
(981.0344 563.6977 24999.77)
(1274.563 250.7833 25558.05)
(1644.867 73.95117 26782.16)
(2094.924 -77.1461 28590.19)
(2553.037 -288.377 31133.37)
(2681.666 -701.1718 34841.18)
(1377.571 -1650.579 40442.44)
(33.587 258.1649 9052.618)
(109.4443 905.4048 9620.139)
(200.8304 1952.11 10611.12)
(316.0059 3767.274 12638.33)
(474.3359 6320.609 17552.47)
(677.3443 2385.258 21717.89)
(871.4869 1180.613 22705.43)
(1113.935 556.5471 23687.46)
(1421.744 164.9426 24900.33)
(1813.325 -185.0976 26433.09)
(2292.897 -664.8547 28395.95)
(2789.508 -1545.204 30990)
(2949.77 -3421.693 34517.92)
(1522.187 -7740.425 38882.9)
(32.06817 194.3827 8974.496)
(104.3706 674.1819 9605.534)
(191.6924 1410.756 10733.71)
(302.1409 2528.188 12783.02)
(451.0335 3576.089 16353.22)
(621.5452 1911.488 19393.9)
(784.5654 1101.367 20758.88)
(986.6098 560.3438 21947.31)
(1240.541 166.1253 23145.88)
(1564.026 -210.5416 24447.33)
(1976.174 -720.0886 25903.21)
(2481.929 -1592.446 27532.26)
(3008.245 -3246.505 29273.16)
(3179.072 -6474.721 30759.86)
(1621.825 -12459.02 60122.08)
(30.48575 118.8621 8831.97)
(99.0584 408.4719 9487.287)
(181.7947 835.1178 10654.85)
(286.0972 1422.568 12606.08)
(423.8149 1837.575 15473.79)
(572.5237 1137.725 17899.16)
(712.6685 713.0306 19286.45)
(884.1274 380.5328 20504.9)
(1096.219 111.6456 21644.41)
(1362.438 -157.9389 22755.85)
(1700.847 -518.8677 23841.79)
(2130.55 -1105.616 24839.12)
(2655.344 -2126.481 25570.61)
(3196.011 -3881.607 25661.1)
(3350.699 -6670.96 47673.09)
(216.4116 -1608.143 16486.88)
(28.81157 39.2811 8619.327)
(93.42597 134.2486 9268.377)
(171.1252 270.9699 10419.9)
(268.542 449.8392 12266.09)
(395.326 558.3558 14785.06)
(528.1683 365.8473 16899.54)
(651.2427 237.6632 18219.75)
(799.7395 129.5508 19388.41)
(980.3171 37.60703 20446.17)
(1202.733 -56.62639 21414.91)
(1480.731 -181.7701 22272.67)
(1832.312 -379.2539 22928.84)
(2275.754 -707.1594 23192.32)
(2812.414 -1233.717 22737.03)
(3356.08 -1997.398 41132.11)
(444.1914 -446.5948 14087.96)
(249.8248 -806.3766 22096.37)
(37.47089 -397.012 18090.96)
(87.69093 -483.8079 16850.58)
(110.7884 -1717.863 18030.73)
(99.60581 -507.9723 15274.91)
(255.9862 -1853.735 16448.76)
(181.2557 -4152.215 17766.12)
(91.77135 -477.8954 13731.95)
(287.9789 -1752.346 14596.85)
(410.042 -4030.617 15292.16)
(241.5901 -8683.809 15015.05)
(78.72851 -404.9185 12379.33)
(264.0305 -1474.829 12898.53)
(454.3815 -3357.853 12930.53)
(529.9574 -7006.674 11487.21)
(268.5382 -13475.63 5153.533)
(66.55892 -302.1653 11264)
(226.4881 -1089.366 11509.33)
(413.9828 -2427.87 11073.58)
(578.5101 -4825.951 9113.597)
(578.5553 -8371.356 3877.137)
(56.85219 -183.029 10386.92)
(192.3634 -653.6124 10450.95)
(355.6727 -1428.415 9749.527)
(526.5728 -2729.085 7617.497)
(633.975 -4433.577 3108.505)
(49.56781 -59.78584 9730.749)
(165.7622 -212.0576 9696.513)
(304.5833 -457.5809 8885.024)
(456.6521 -854.2454 6749.712)
(586.2435 -1341.012 2688.07)
(44.24156 56.97664 9270.254)
(146.2644 201.4135 9206.023)
(266.0584 432.829 8401.108)
(397.8283 804.0399 6352.009)
(520.4271 1255.19 2517.498)
(40.38711 158.3265 8975.733)
(132.3481 559.625 8937.931)
(238.8696 1207.908 8236.95)
(355.6396 2274.325 6348.693)
(467.0234 3638.571 2557.896)
(37.59197 236.8237 8813.916)
(122.4908 838.9559 8850.375)
(220.3294 1831.475 8348.957)
(328.1646 3558.792 6733.68)
(432.7905 6057.917 2824.124)
(35.52257 286.6764 8748.036)
(115.4105 1018.38 8898.057)
(207.827 2255.433 8699.225)
(311.8766 4591.399 7569.87)
(417.2784 8787.674 3394.531)
(33.91014 304.4784 8738.28)
(110.065 1082.146 9027.282)
(199.0862 2419.07 9232.336)
(303.117 5163.382 9004.949)
(419.2996 12212.13 4447.323)
(32.54085 290.3916 8743.813)
(105.6167 1027.069 9172.398)
(192.1135 2273.461 9828.089)
(297.7614 4761.811 11308.64)
(439.3798 10851.72 18571.48)
(666.0151 1211.583 24369.84)
(866.1494 535.4448 23751.29)
(1111.392 237.2437 24185.2)
(1420.945 69.69928 25218.34)
(1814.316 -71.61257 26753.95)
(2297.044 -264.9759 28901.63)
(2801.342 -633.2371 32034.06)
(2981.585 -1473.749 37062.27)
(1561.176 -3635.419 46022.31)
(31.25376 248.9118 8727.509)
(101.4334 871.7842 9262.17)
(185.2396 1876.811 10201.05)
(289.7957 3615.826 12129.68)
(431.9673 6054.687 16814.04)
(611.6278 2279.631 20757.59)
(778.8152 1125.216 21643.48)
(983.5872 528.6596 22506.85)
(1239.58 156.0928 23565.9)
(1565.303 -173.7801 24892.75)
(1981.143 -619.4727 26572.03)
(2494.895 -1422 28752.94)
(3040.983 -3092.735 31671.34)
(3258.558 -6907.572 35453.06)
(1702.872 -16241.6 77275.04)
(29.94206 187.6435 8662.831)
(97.123 650.0194 9260.689)
(177.6726 1358.377 10334.6)
(278.718 2430.685 12289.62)
(413.7049 3432.35 15696.02)
(566.1595 1831.058 18578.95)
(708.5583 1052.595 19842.1)
(881.8377 534.0615 20922.55)
(1095.502 157.8319 21994.79)
(1363.504 -199.0127 23140.67)
(1704.716 -676.8039 24397.82)
(2139.875 -1484.45 25766.75)
(2676.448 -2988.396 27155.94)
(3243.419 -5850.987 28200.46)
(3448.884 -11098.96 54596.62)
(228.9424 -3157.559 18998.74)
(28.54693 114.8687 8534.817)
(92.49282 394.311 9157.912)
(169.1787 805.1904 10272.57)
(265.1958 1369.757 12137.79)
(391.0139 1766.716 14877.22)
(525.2256 1091.995 17180.54)
(649.2439 683.033 18476.81)
(798.5952 363.6937 19600.56)
(979.9677 106.4328 20635.67)
(1203.302 -149.9626 21626.97)
(1482.694 -490.5998 22571.63)
(1836.8 -1039.278 23401.3)
(2285.148 -1982.314 23938.76)
(2831.499 -3572.31 23815.78)
(3393.655 -6022.954 43724.25)
(454.4156 -1424.918 15008.67)
(259.3184 -2627.469 23522.73)
(27.04628 38.0003 8337.932)
(87.48562 129.7384 8956.618)
(159.7886 261.5767 10058.33)
(249.9218 433.7205 11826.33)
(366.4817 537.6301 14236.35)