/*--------------------------------*- C++ -*----------------------------------*\
| =========                 |                                                 |
| \\      /  F ield         | OpenFOAM: The Open Source CFD Toolbox           |
|  \\    /   O peration     | Version:  2306                                  |
|   \\  /    A nd           | Website:  www.openfoam.com                      |
|    \\/     M anipulation  |                                                 |
\*---------------------------------------------------------------------------*/
FoamFile
{
    version     2.0;
    format      ascii;
    arch        "LSB;label=32;scalar=64";
    class       volScalarField;
    location    "1.5/phiEC";
    object      phi;
}
// * * * * * * * * * * * * * * * * * * * * * * * * * * * * * * * * * * * * * //

dimensions      [1 2 -3 0 0 -1 0];

internalField   nonuniform List<scalar> 
20000
(
0.8078177
0.8078169
0.8078138
0.8080059
0.8078152
0.807813
0.808003
0.8078084
0.807994
0.8082058
0.8078129
0.8078115
0.8079975
0.8078076
0.8079913
0.8082003
0.8078029
0.8079774
0.8081851
0.8084288
0.8078101
0.8078092
0.8079897
0.8078062
0.807986
0.8081894
0.8078022
0.8079749
0.8081799
0.8084199
0.807798
0.8079608
0.8081565
0.8083977
0.8086885
0.8078072
0.8078066
0.8079803
0.8078041
0.8079786
0.8081735
0.8078009
0.80797
0.8081695
0.8084018
0.8077974
0.8079584
0.8081515
0.8083892
0.8086779
0.8077938
0.8079459
0.8081279
0.8083552
0.8086444
0.8089165
0.8078043
0.8078038
0.8079702
0.8078017
0.8079697
0.8081537
0.8077989
0.8079631
0.8081544
0.8083737
0.8077961
0.8079539
0.8081419
0.808372
0.8086549
0.8077931
0.8079436
0.8081234
0.8083473
0.8086343
0.8089098
0.80779
0.8079329
0.8081024
0.8083133
0.8085854
0.8088602
0.8090757
0.8078019
0.8078011
0.8079606
0.807799
0.8079601
0.808132
0.8077967
0.8079547
0.8081356
0.8083356
0.8077943
0.8079474
0.8081278
0.8083453
0.8086151
0.8077919
0.8079394
0.8081143
0.8083312
0.8086125
0.8088966
0.8077894
0.8079308
0.8080981
0.808306
0.808576
0.8088538
0.8090716
0.8077868
0.8079216
0.8080802
0.808276
0.8085278
0.8087862
0.8090105
0.8092397
0.8078002
0.8077988
0.8079524
0.8077965
0.8079509
0.8081113
0.8077942
0.8079458
0.8081149
0.8082901
0.8077921
0.8079397
0.8081102
0.8083092
0.8085485
0.8077902
0.8079334
0.8081012
0.8083064
0.8085747
0.8088777
0.8077883
0.8079268
0.8080897
0.808291
0.8085556
0.8088412
0.8090638
0.8077862
0.8079196
0.8080762
0.8082691
0.8085191
0.8087803
0.8090066
0.8092376
0.8077839
0.8079117
0.8080609
0.8082435
0.8084768
0.8087148
0.808926
0.809165
0.8094066
0.8077993
0.8077972
0.8079465
0.8077944
0.8079432
0.8080941
0.8077919
0.8079372
0.8080953
0.8082488
0.8077899
0.8079313
0.808091
0.808266
0.8084323
0.8077882
0.8079261
0.8080849
0.8082727
0.8085115
0.8088583
0.8077867
0.8079211
0.8080774
0.8082678
0.8085204
0.8088233
0.809054
0.8077851
0.8079158
0.8080682
0.8082551
0.8085001
0.8087685
0.8089992
0.8092337
0.8077833
0.8079098
0.8080571
0.8082371
0.8084686
0.8087093
0.8089223
0.809163
0.8094061
0.8077813
0.8079029
0.808044
0.8082154
0.8084325
0.8086518
0.8088449
0.8090694
0.8093218
0.8095748
0.8077993
0.8077963
0.8079434
0.8077928
0.8079375
0.8080819
0.8077899
0.8079299
0.8080789
0.8082163
0.8077877
0.8079233
0.8080726
0.8082267
0.8083519
0.8077861
0.8079183
0.8080669
0.8082324
0.8084013
0.8077848
0.8079143
0.8080621
0.8082364
0.8084615
0.8088048
0.8090458
0.8077836
0.8079105
0.8080566
0.8082334
0.8084673
0.8087518
0.8089898
0.8092292
0.8077823
0.8079062
0.8080495
0.8082239
0.8084508
0.8086983
0.8089154
0.8091593
0.8094051
0.8077808
0.8079011
0.8080403
0.8082093
0.8084248
0.8086466
0.8088414
0.8090675
0.8093212
0.8095758
0.8077789
0.807895
0.8080289
0.8081907
0.8083942
0.8085973
0.8087735
0.8089783
0.8092147
0.8094793
0.8097429
0.8078002
0.8077963
0.8079434
0.807792
0.8079346
0.8080756
0.8077884
0.8079247
0.8080674
0.8081943
0.8077858
0.8079166
0.8080574
0.8081959
0.8082975
0.807784
0.8079108
0.8080498
0.8081958
0.808325
0.8077828
0.8079069
0.8080453
0.8081989
0.8083588
0.8077818
0.807904
0.8080422
0.808204
0.8084124
0.8087346
0.808982
0.8092258
0.8077809
0.8079011
0.8080386
0.8082035
0.8084201
0.8086828
0.8089066
0.8091549
0.809404
0.8077798
0.8078977
0.8080332
0.8081968
0.8084081
0.8086363
0.808835
0.809064
0.8093203
0.8095776
0.8077784
0.8078933
0.8080255
0.8081849
0.8083869
0.8085924
0.8087703
0.8089765
0.8092141
0.8094802
0.8097459
0.8077768
0.8078878
0.8080154
0.8081687
0.8083605
0.80855
0.8087119
0.8088984
0.8091134
0.8093604
0.8096361
0.809909
0.8078019
0.8077972
0.8079465
0.807792
0.8079346
0.8080756
0.8077877
0.807922
0.8080614
0.8081833
0.8077845
0.8079117
0.8080466
0.808175
0.8082637
0.8077823
0.8079045
0.8080356
0.8081671
0.8082734
0.8077808
0.8078999
0.8080293
0.8081648
0.8082878
0.8077799
0.807897
0.8080264
0.8081689
0.8083168
0.8077791
0.807895
0.808025
0.8081758
0.8083688
0.8086667
0.8088994
0.8091517
0.8094032
0.8077784
0.8078928
0.8080228
0.8081775
0.8083792
0.8086218
0.8088268
0.8090599
0.8093191
0.8095794
0.8077775
0.80789
0.8080187
0.808173
0.8083711
0.8085828
0.8087643
0.8089732
0.8092132
0.8094817
0.809751
0.8077763
0.8078862
0.8080121
0.8081632
0.8083536
0.8085454
0.8087089
0.8088967
0.8091129
0.8093612
0.8096388
0.8099149
0.8077748
0.8078812
0.8080032
0.808149
0.8083306
0.8085086
0.8086585
0.8088295
0.8090248
0.8092488
0.8095053
0.8097905
0.8100705
0.8078043
0.8077988
0.8079524
0.8077928
0.8079375
0.8080819
0.8077877
0.807922
0.8080614
0.8081833
0.8077838
0.8079091
0.808041
0.8081645
0.8082474
0.807781
0.8078999
0.8080256
0.8081476
0.8082413
0.8077792
0.8078939
0.808016
0.808138
0.8082397
0.807778
0.8078904
0.8080114
0.808137
0.8082506
0.8077773
0.8078883
0.80801
0.8081427
0.8082793
0.8077767
0.8078869
0.8080099
0.8081513
0.8083309
0.8086068
0.8088201
0.8090568
0.8093182
0.8095806
0.8077761
0.8078853
0.8080088
0.8081547
0.8083437
0.8085691
0.8087566
0.8089694
0.8092121
0.8094832
0.8097564
0.8077754
0.807883
0.8080056
0.8081519
0.8083386
0.8085363
0.8087032
0.8088937
0.809112
0.8093625
0.8096433
0.809925
0.8077743
0.8078797
0.808
0.8081437
0.808324
0.8085042
0.8086556
0.8088279
0.8090244
0.8092496
0.8095077
0.8097957
0.8100807
0.8077729
0.8078752
0.807992
0.8081311
0.8083037
0.8084717
0.8086116
0.8087697
0.8089485
0.8091516
0.8093834
0.8096477
0.8099399
0.810223
0.8078072
0.8078011
0.8079606
0.8077944
0.8079432
0.8080941
0.8077884
0.8079247
0.8080674
0.8081943
0.8077838
0.8079091
0.808041
0.8081645
0.8082474
0.8077803
0.8078975
0.8080204
0.8081378
0.8082259
0.807778
0.8078896
0.8080066
0.8081199
0.8082097
0.8077764
0.8078847
0.8079989
0.8081119
0.8082058
0.8077755
0.807882
0.8079958
0.8081127
0.8082173
0.807775
0.8078806
0.8079957
0.80812
0.8082466
0.8077746
0.8078797
0.8079964
0.8081298
0.808298
0.8085549
0.8087503
0.8089666
0.8092112
0.8094842
0.80976
0.8077741
0.8078786
0.8079961
0.8081344
0.8083126
0.8085233
0.808696
0.8088901
0.8091109
0.8093639
0.8096481
0.8099364
0.8077734
0.8078767
0.8079938
0.8081329
0.8083097
0.8084955
0.8086502
0.808825
0.8090235
0.8092508
0.8095118
0.8098048
0.8100992
0.8077725
0.8078737
0.8079889
0.8081261
0.8082974
0.8084675
0.8086089
0.8087682
0.8089481
0.8091523
0.8093856
0.8096524
0.8099491
0.8102397
0.8077712
0.8078696
0.8079816
0.8081148
0.8082793
0.8084386
0.8085699
0.8087173
0.8088824
0.8090679
0.8092776
0.8095157
0.8097853
0.8100805
0.8103604
0.8078101
0.8078038
0.8079702
0.8077965
0.8079509
0.8081113
0.8077899
0.8079299
0.8080789
0.8082163
0.8077845
0.8079117
0.8080466
0.808175
0.8082637
0.8077803
0.8078975
0.8080204
0.8081378
0.8082259
0.8077773
0.8078874
0.8080017
0.8081107
0.8081953
0.8077753
0.8078807
0.80799
0.8080949
0.8081779
0.807774
0.8078767
0.807984
0.8080891
0.8081754
0.8077733
0.8078746
0.8079821
0.8080916
0.8081883
0.8077729
0.8078737
0.8079829
0.8081001
0.8082183
0.8077726
0.8078732
0.8079844
0.8081107
0.8082692
0.80851
0.8086901
0.8088874
0.8091101
0.8093647
0.8096513
0.8099442
0.8077722
0.8078724
0.8079847
0.8081162
0.8082849
0.8084832
0.8086434
0.8088216
0.8090225
0.809252
0.8095161
0.8098149
0.810121
0.8077717
0.8078708
0.8079829
0.8081157
0.8082837
0.8084593
0.8086038
0.8087655
0.8089473
0.8091534
0.8093894
0.8096606
0.8099655
0.8102712
0.8077708
0.8078682
0.8079787
0.8081099
0.8082732
0.8084346
0.8085673
0.8087159
0.808882
0.8090685
0.8092796
0.80952
0.8097935
0.8100953
0.8103852
0.8077696
0.8078645
0.8079721
0.8080997
0.808257
0.8084085
0.8085324
0.8086707
0.8088243
0.8089954
0.8091866
0.8094014
0.8096434
0.8099145
0.8102064
0.8106073
0.8078129
0.8078066
0.8079803
0.807799
0.8079601
0.808132
0.8077919
0.8079372
0.8080953
0.8082488
0.8077858
0.8079166
0.8080574
0.8081959
0.8082975
0.807781
0.8078999
0.8080256
0.8081476
0.8082413
0.8077773
0.8078874
0.8080017
0.8081107
0.8081953
0.8077747
0.8078786
0.8079854
0.8080864
0.8081645
0.8077729
0.8078728
0.8079756
0.8080731
0.8081493
0.8077719
0.8078695
0.8079709
0.8080693
0.8081488
0.8077713
0.807868
0.80797
0.8080731
0.8081631
0.807771
0.8078675
0.8079714
0.8080824
0.8081934
0.8077708
0.8078673
0.8079734
0.8080936
0.8082435
0.8084705
0.8086378
0.8088191
0.8090218
0.8092528
0.809519
0.8098219
0.8101375
0.8077705
0.8078667
0.8079742
0.8080997
0.80826
0.8084475
0.8085973
0.8087623
0.8089463
0.8091545
0.8093934
0.8096697
0.809985
0.8103123
0.80777
0.8078654
0.807973
0.8081
0.8082601
0.8084267
0.8085624
0.8087133
0.8088812
0.8090696
0.8092831
0.8095276
0.8098084
0.8101235
0.8104353
0.8077692
0.8078631
0.8079693
0.808095
0.8082512
0.8084047
0.8085299
0.8086693
0.8088239
0.808996
0.8091885
0.8094054
0.809651
0.8099279
0.8102285
0.8106493
0.8077681
0.8078596
0.8079633
0.8080858
0.8082364
0.808381
0.8084984
0.8086287
0.8087727
0.8089317
0.8091077
0.8093032
0.8095209
0.8097634
0.8100302
0.8104318
0.8109808
0.8078152
0.8078092
0.8079897
0.8078017
0.8079697
0.8081537
0.8077942
0.8079458
0.8081149
0.8082901
0.8077877
0.8079233
0.8080726
0.8082267
0.8083519
0.8077823
0.8079045
0.8080356
0.8081671
0.8082734
0.807778
0.8078896
0.8080066
0.8081199
0.8082097
0.8077747
0.8078786
0.8079854
0.8080864
0.8081645
0.8077724
0.8078708
0.8079713
0.8080651
0.8081367
0.8077708
0.8078658
0.8079629
0.8080542
0.8081243
0.8077699
0.8078631
0.8079593
0.8080519
0.8081258
0.8077694
0.8078619
0.8079591
0.8080567
0.808141
0.8077692
0.8078617
0.807961
0.8080665
0.8081714
0.8077691
0.8078618
0.8079634
0.808078
0.8082205
0.8084354
0.8085919
0.80876
0.8089456
0.8091552
0.809396
0.8096761
0.8099997
0.8103486
0.8077689
0.8078615
0.8079646
0.8080846
0.8082375
0.8084155
0.8085563
0.8087103
0.8088803
0.8090707
0.8092868
0.8095359
0.809826
0.8101601
0.8105098
0.8077684
0.8078604
0.8079638
0.8080855
0.8082386
0.8083971
0.8085253
0.8086669
0.8088232
0.808997
0.8091918
0.8094124
0.8096647
0.8099533
0.8102731
0.8107413
0.8077678
0.8078583
0.8079605
0.8080813
0.8082309
0.8083773
0.808496
0.8086274
0.8087724
0.8089323
0.8091095
0.809307
0.809528
0.8097757
0.8100502
0.810469
0.811048
0.8077668
0.8078551
0.807955
0.8080729
0.8082174
0.8083557
0.8084673
0.8085907
0.8087263
0.8088751
0.8090385
0.8092181
0.8094159
0.8096333
0.8098708
0.8102371
0.8107726
0.8113438
0.8078169
0.8078115
0.8079975
0.8078041
0.8079786
0.8081735
0.8077967
0.8079547
0.8081356
0.8083356
0.8077899
0.8079313
0.808091
0.808266
0.8084323
0.807784
0.8079108
0.8080498
0.8081958
0.808325
0.8077792
0.8078939
0.808016
0.808138
0.8082397
0.8077753
0.8078807
0.80799
0.8080949
0.8081779
0.8077724
0.8078708
0.8079713
0.8080651
0.8081367
0.8077703
0.8078639
0.8079588
0.8080466
0.8081125
0.8077689
0.8078596
0.8079517
0.8080376
0.8081026
0.8077681
0.8078573
0.8079489
0.8080365
0.8081056
0.8077677
0.8078564
0.8079492
0.808042
0.8081214
0.8077676
0.8078564
0.8079515
0.8080521
0.8081515
0.8077675
0.8078567
0.8079542
0.8080638
0.8081996
0.8084039
0.8085512
0.808708
0.8088797
0.8090713
0.8092893
0.8095418
0.8098393
0.8101925
0.8105977
0.8077674
0.8078566
0.8079557
0.8080707
0.8082168
0.8083864
0.8085194
0.808664
0.8088224
0.808998
0.8091953
0.8094202
0.8096809
0.8099864
0.8103395
0.8109125
0.807767
0.8078557
0.8079552
0.8080721
0.8082188
0.8083701
0.8084916
0.8086251
0.8087717
0.8089332
0.8091126
0.8093136
0.8095408
0.8097991
0.8100904
0.8105505
0.8111997
0.8077664
0.8078538
0.8079524
0.8080685
0.8082121
0.8083522
0.808465
0.8085894
0.808726
0.8088757
0.8090402
0.8092217
0.8094225
0.8096448
0.8098892
0.8102707
0.8108319
0.8114334
0.8077654
0.8078509
0.8079473
0.8080608
0.8081998
0.8083323
0.8084387
0.8085559
0.8086842
0.8088242
0.8089769
0.8091434
0.8093248
0.8095217
0.8097339
0.8100632
0.8105501
0.8111039
0.811693
0.8078177
0.807813
0.808003
0.8078062
0.807986
0.8081894
0.8077989
0.8079631
0.8081544
0.8083737
0.8077921
0.8079397
0.8081102
0.8083092
0.8085485
0.8077861
0.8079183
0.8080669
0.8082324
0.8084013
0.8077808
0.8078999
0.8080293
0.8081648
0.8082878
0.8077764
0.8078847
0.8079989
0.8081119
0.8082058
0.8077729
0.8078728
0.8079756
0.8080731
0.8081493
0.8077703
0.8078639
0.8079588
0.8080466
0.8081125
0.8077684
0.8078577
0.8079478
0.8080303
0.8080914
0.8077671
0.8078539
0.8079416
0.8080228
0.8080835
0.8077664
0.8078519
0.8079394
0.8080226
0.8080876
0.8077661
0.8078514
0.8079402
0.8080286
0.8081038
0.8077661
0.8078516
0.8079428
0.8080389
0.8081335
0.807766
0.807852
0.8079457
0.8080507
0.8081805
0.8083753
0.8085145
0.8086618
0.8088217
0.8089986
0.8091976
0.8094257
0.8096932
0.8100158
0.810418
0.8113317
0.8077659
0.807852
0.8079475
0.8080579
0.8081979
0.8083598
0.808486
0.8086223
0.8087709
0.8089342
0.8091159
0.8093209
0.8095559
0.8098296
0.8101504
0.8107027
0.8114926
0.8077656
0.8078513
0.8079472
0.8080597
0.8082004
0.8083452
0.8084607
0.8085872
0.8087253
0.8088766
0.8090432
0.809228
0.8094345
0.8096666
0.8099262
0.8103442
0.810966
0.811636
0.8077651
0.8078496
0.8079448
0.8080566
0.8081946
0.8083289
0.8084365
0.8085547
0.8086838
0.8088247
0.8089786
0.8091469
0.8093311
0.8095326
0.8097511
0.810094
0.8106035
0.8111828
0.8118012
0.8077642
0.8078469
0.80794
0.8080495
0.8081833
0.8083105
0.8084122
0.8085238
0.8086456
0.808778
0.8089215
0.809077
0.8092449
0.8094252
0.8096167
0.8099145
0.8103543
0.8108546
0.8114227
0.8120252
0.8078138
0.8080059
0.8078076
0.8079913
0.8082003
0.8078009
0.80797
0.8081695
0.8084018
0.8077943
0.8079474
0.8081278
0.8083453
0.8086151
0.8077882
0.8079261
0.8080849
0.8082727
0.8085115
0.8088583
0.8077828
0.8079069
0.8080453
0.8081989
0.8083588
0.807778
0.8078904
0.8080114
0.808137
0.8082506
0.807774
0.8078767
0.807984
0.8080891
0.8081754
0.8077708
0.8078658
0.8079629
0.8080542
0.8081243
0.8077684
0.8078577
0.8079478
0.8080303
0.8080914
0.8077666
0.8078521
0.8079379
0.8080159
0.8080729
0.8077655
0.8078487
0.8079325
0.8080095
0.8080666
0.8077649
0.8078471
0.8079308
0.8080101
0.8080715
0.8077647
0.8078467
0.8079319
0.8080163
0.8080878
0.8077646
0.807847
0.8079347
0.8080268
0.8081171
0.8137888
0.8077647
0.8078476
0.8079378
0.8080386
0.8081629
0.8083491
0.8084813
0.8086203
0.8087703
0.8089348
0.8091181
0.809326
0.8095673
0.8098566
0.8102214
0.8110768
0.8121353
0.8077646
0.8078478
0.8079397
0.808046
0.8081803
0.8083353
0.8084553
0.8085846
0.8087245
0.8088775
0.8090463
0.8092349
0.8094487
0.809695
0.8099815
0.8104816
0.8112258
0.8120172
0.8077644
0.8078472
0.8079398
0.8080481
0.8081834
0.8083221
0.8084324
0.8085525
0.8086832
0.8088256
0.8089814
0.8091528
0.8093425
0.8095531
0.8097856
0.8101616
0.8107243
0.8113615
0.812044
0.8077639
0.8078457
0.8079376
0.8080455
0.8081783
0.8083072
0.8084101
0.8085227
0.8086453
0.8087785
0.8089231
0.8090803
0.8092509
0.8094354
0.8096328
0.8099432
0.8104033
0.8109254
0.8115178
0.8121479
0.807763
0.8078432
0.8079332
0.808039
0.8081679
0.8082902
0.8083875
0.8084942
0.8086101
0.8087356
0.8088712
0.8090172
0.8091738
0.8093403
0.8095151
0.8097872
0.8101877
0.8106375
0.8111476
0.8117262
0.8121895
0.8078084
0.807994
0.8082058
0.8078022
0.8079749
0.8081799
0.8084199
0.8077961
0.8079539
0.8081419
0.808372
0.8086549
0.8077902
0.8079334
0.8081012
0.8083064
0.8085747
0.8088777
0.8077848
0.8079143
0.8080621
0.8082364
0.8084615
0.8088048
0.8090458
0.8077799
0.807897
0.8080264
0.8081689
0.8083168
0.8077755
0.807882
0.8079958
0.8081127
0.8082173
0.8077719
0.8078695
0.8079709
0.8080693
0.8081488
0.8077689
0.8078596
0.8079517
0.8080376
0.8081026
0.8077666
0.8078521
0.8079379
0.8080159
0.8080729
0.807765
0.807847
0.8079289
0.808003
0.8080564
0.807764
0.8078439
0.8079241
0.8079975
0.8080514
0.8077635
0.8078425
0.8079228
0.8079986
0.8080568
0.8077633
0.8078423
0.8079242
0.8080051
0.8080732
0.8152105
0.8077633
0.8078428
0.8079272
0.8080156
0.8081019
0.8132762
0.8139553
0.8077634
0.8078435
0.8079304
0.8080274
0.8081466
0.808325
0.8084509
0.8085826
0.8087239
0.808878
0.8090484
0.8092397
0.8094595
0.8097202
0.8100469
0.8108204
0.8117984
0.812751
0.8077634
0.8078438
0.8079325
0.8080348
0.808164
0.8083126
0.8084272
0.80855
0.8086824
0.8088264
0.8089844
0.8091594
0.8093559
0.8095798
0.8098371
0.8102881
0.8109587
0.8116989
0.8124858
0.8077632
0.8078433
0.8079328
0.8080372
0.8081675
0.8083007
0.8084061
0.8085206
0.8086447
0.8087793
0.8089258
0.8090859
0.8092616
0.8094548
0.8096652
0.8100061
0.8105143
0.8110862
0.8117315
0.8124208
0.8077627
0.807842
0.8079309
0.808035
0.8081631
0.808287
0.8083855
0.8084931
0.8086098
0.8087361
0.8088727
0.8090203
0.8091795
0.80935
0.8095304
0.8098141
0.8102332
0.8107025
0.811233
0.8118338
0.8123176
0.8077619
0.8078396
0.8079268
0.808029
0.8081535
0.8082712
0.8083646
0.8084666
0.8085773
0.8086967
0.8088252
0.8089629
0.8091098
0.8092648
0.8094259
0.8096769
0.8100451
0.8104535
0.8109102
0.8114269
0.8118766
0.812205
0.8078029
0.8079774
0.8081851
0.8084288
0.8077974
0.8079584
0.8081515
0.8083892
0.8086779
0.8077919
0.8079394
0.8081143
0.8083312
0.8086125
0.8088966
0.8077867
0.8079211
0.8080774
0.8082678
0.8085204
0.8088233
0.809054
0.8077818
0.807904
0.8080422
0.808204
0.8084124
0.8087346
0.808982
0.8092258
0.8077773
0.8078883
0.80801
0.8081427
0.8082793
0.8077733
0.8078746
0.8079821
0.8080916
0.8081883
0.8077699
0.8078631
0.8079593
0.8080519
0.8081258
0.8077671
0.8078539
0.8079416
0.8080228
0.8080835
0.807765
0.807847
0.8079289
0.808003
0.8080564
0.8077636
0.8078423
0.8079207
0.8079912
0.8080417
0.8077626
0.8078395
0.8079164
0.8079865
0.8080376
0.8077622
0.8078383
0.8079155
0.807988
0.8080435
0.8161683
0.807762
0.8078383
0.8079171
0.8079947
0.8080597
0.8145447
0.8152857
0.8077621
0.8078389
0.8079202
0.8080052
0.8080879
0.8128155
0.813425
0.8142009
0.8077622
0.8078396
0.8079235
0.8080169
0.8081315
0.8083027
0.8084229
0.8085481
0.8086819
0.808827
0.8089863
0.809164
0.8093661
0.8096035
0.8098982
0.8106004
0.8114767
0.8123513
0.8132529
0.8077622
0.80784
0.8079258
0.8080244
0.8081487
0.8082915
0.8084011
0.8085182
0.808644
0.8087801
0.8089286
0.8090922
0.8092744
0.80948
0.8097137
0.810124
0.81073
0.8113905
0.8121217
0.812903
0.807762
0.8078397
0.8079262
0.808027
0.8081526
0.8082808
0.8083817
0.8084911
0.8086092
0.8087369
0.8088753
0.8090257
0.8091897
0.8093684
0.809561
0.8098733
0.8103366
0.8108502
0.8114251
0.8120733
0.8126013
0.8077616
0.8078385
0.8079245
0.8080252
0.8081488
0.8082682
0.8083626
0.8084656
0.808577
0.8086971
0.8088266
0.8089659
0.8091152
0.8092741
0.8094404
0.8097023
0.8100879
0.810514
0.8109885
0.8115234
0.8119885
0.8123335
0.8077609
0.8078363
0.8079208
0.8080196
0.8081399
0.8082534
0.8083431
0.8084409
0.8085467
0.8086606
0.8087828
0.8089132
0.8090516
0.8091968
0.8093465
0.8095799
0.8099216
0.8102962
0.8107096
0.8111704
0.8115654
0.8118907
0.8122203
0.807798
0.8079608
0.8081565
0.8083977
0.8086885
0.8077931
0.8079436
0.8081234
0.8083473
0.8086343
0.8089098
0.8077883
0.8079268
0.8080897
0.808291
0.8085556
0.8088412
0.8090638
0.8077836
0.8079105
0.8080566
0.8082334
0.8084673
0.8087518
0.8089898
0.8092292
0.8077791
0.807895
0.808025
0.8081758
0.8083688
0.8086667
0.8088994
0.8091517
0.8094032
0.807775
0.8078806
0.8079957
0.80812
0.8082466
0.8077713
0.807868
0.80797
0.8080731
0.8081631
0.8077681
0.8078573
0.8079489
0.8080365
0.8081056
0.8077655
0.8078487
0.8079325
0.8080095
0.8080666
0.8077636
0.8078423
0.8079207
0.8079912
0.8080417
0.8077622
0.807838
0.8079131
0.8079805
0.8080283
0.8077614
0.8078354
0.8079093
0.8079764
0.808025
0.8167833
0.8077609
0.8078344
0.8079087
0.8079782
0.8080312
0.8153973
0.8162244
0.8077608
0.8078345
0.8079104
0.807985
0.8080473
0.8139636
0.8146111
0.8154248
0.8077609
0.8078352
0.8079136
0.8079955
0.8080749
0.8124418
0.8129509
0.8136443
0.8144837
0.8077611
0.807836
0.807917
0.8080071
0.8081174
0.808282
0.8083969
0.8085164
0.8086434
0.8087806
0.8089305
0.8090966
0.8092841
0.8095025
0.8097711
0.8104155
0.8112072
0.8119799
0.8128016
0.8136812
0.8077611
0.8078365
0.8079194
0.8080147
0.8081345
0.8082719
0.8083769
0.8084887
0.8086085
0.8087377
0.808878
0.8090317
0.8092019
0.8093924
0.8096069
0.8099841
0.8105376
0.8111299
0.8117765
0.812498
0.8130975
0.807761
0.8078363
0.80792
0.8080175
0.8081387
0.8082621
0.8083589
0.8084636
0.8085764
0.8086979
0.8088291
0.8089711
0.809125
0.8092916
0.8094695
0.8097582
0.810185
0.8106514
0.8111649
0.8117384
0.8122372
0.8126181
0.8077606
0.8078352
0.8079186
0.808016
0.8081354
0.8082505
0.8083412
0.8084399
0.8085464
0.8086611
0.8087842
0.8089161
0.8090568
0.8092057
0.8093603
0.8096041
0.809962
0.810353
0.8107824
0.8112587
0.8116658
0.8120031
0.8123492
0.8077599
0.8078331
0.8079151
0.8080108
0.8081271
0.8082367
0.808323
0.8084169
0.8085183
0.8086271
0.8087435
0.8088675
0.8089984
0.8091351
0.809275
0.8094935
0.809813
0.8101599
0.8105382
0.810954
0.8112995
0.8115785
0.8119047
0.8122353
0.8077938
0.8079459
0.8081279
0.8083552
0.8086444
0.8089165
0.8077894
0.8079308
0.8080981
0.808306
0.808576
0.8088538
0.8090716
0.8077851
0.8079158
0.8080682
0.8082551
0.8085001
0.8087685
0.8089992
0.8092337
0.8077809
0.8079011
0.8080386
0.8082035
0.8084201
0.8086828
0.8089066
0.8091549
0.809404
0.8077767
0.8078869
0.8080099
0.8081513
0.8083309
0.8086068
0.8088201
0.8090568
0.8093182
0.8095806
0.8077729
0.8078737
0.8079829
0.8081001
0.8082183
0.8077694
0.8078619
0.8079591
0.8080567
0.808141
0.8077664
0.8078519
0.8079394
0.8080226
0.8080876
0.807764
0.8078439
0.8079241
0.8079975
0.8080514
0.8077622
0.807838
0.8079131
0.8079805
0.8080283
0.8077609
0.8078339
0.8079061
0.8079706
0.8080161
0.8170868
0.8077601
0.8078316
0.8079027
0.8079671
0.8080134
0.8159439
0.8168345
0.8077598
0.8078307
0.8079023
0.8079692
0.8080198
0.814734
0.8154461
0.8163343
0.8077597
0.8078309
0.8079042
0.807976
0.8080357
0.8135
0.8140238
0.8147335
0.8156152
0.8077598
0.8078317
0.8079075
0.8079864
0.8080628
0.8121352
0.812567
0.8131503
0.813896
0.8147832
0.80776
0.8078326
0.807911
0.8079979
0.8081042
0.8082627
0.8083729
0.808487
0.808608
0.8087382
0.8088798
0.8090359
0.8092111
0.8094137
0.8096612
0.8102583
0.8109828
0.8116727
0.8123902
0.8131856
0.8138793
0.8077601
0.8078331
0.8079134
0.8080055
0.8081212
0.8082535
0.8083543
0.8084614
0.8085757
0.8086987
0.8088317
0.8089768
0.8091366
0.8093145
0.809513
0.809863
0.8103739
0.8109121
0.8114878
0.8121205
0.8126734
0.8131156
0.80776
0.807833
0.8079142
0.8080085
0.8081256
0.8082446
0.8083376
0.808438
0.8085459
0.8086618
0.8087865
0.808921
0.8090662
0.8092224
0.809388
0.8096572
0.8100538
0.8104821
0.8109465
0.811456
0.8118889
0.8122525
0.8126347
0.8077596
0.8078321
0.8079129
0.8080073
0.8081228
0.8082338
0.8083211
0.8084159
0.808518
0.8086276
0.8087449
0.8088702
0.8090034
0.8091435
0.8092881
0.8095166
0.8098513
0.8102135
0.8106065
0.8110361
0.8113914
0.8116792
0.8120174
0.8123646
0.807759
0.8078301
0.8079097
0.8080025
0.8081151
0.8082209
0.808304
0.8083943
0.8084916
0.8085959
0.8087071
0.8088251
0.8089494
0.8090785
0.80921
0.8094157
0.8097161
0.8100398
0.8103895
0.8107692
0.8110754
0.8113116
0.8115913
0.8119184
0.8122502
0.80779
0.8079329
0.8081024
0.8083133
0.8085854
0.8088602
0.8090757
0.8077862
0.8079196
0.8080762
0.8082691
0.8085191
0.8087803
0.8090066
0.8092376
0.8077823
0.8079062
0.8080495
0.8082239
0.8084508
0.8086983
0.8089154
0.8091593
0.8094051
0.8077784
0.8078928
0.8080228
0.8081775
0.8083792
0.8086218
0.8088268
0.8090599
0.8093191
0.8095794
0.8077746
0.8078797
0.8079964
0.8081298
0.808298
0.8085549
0.8087503
0.8089666
0.8092112
0.8094842
0.80976
0.807771
0.8078675
0.8079714
0.8080824
0.8081934
0.8077677
0.8078564
0.8079492
0.808042
0.8081214
0.8077649
0.8078471
0.8079308
0.8080101
0.8080715
0.8077626
0.8078395
0.8079164
0.8079865
0.8080376
0.8077609
0.8078339
0.8079061
0.8079706
0.8080161
0.8170868
0.8077597
0.8078302
0.8078996
0.8079615
0.8080048
0.8162133
0.8171367
0.807759
0.807828
0.8078965
0.8079584
0.8080027
0.8152272
0.815988
0.8169363
0.8077587
0.8078273
0.8078963
0.8079607
0.8080092
0.8142093
0.8147781
0.8155416
0.8164947
0.8077587
0.8078276
0.8078983
0.8079676
0.808025
0.8131227
0.8135557
0.8141349
0.8149008
0.8158471
0.8077588
0.8078284
0.8079017
0.8079779
0.8080514
0.8118769
0.8122523
0.8127515
0.8133793
0.8141619
0.8149442
0.807759
0.8078294
0.8079052
0.8079893
0.8080919
0.8082447
0.8083504
0.8084597
0.8085752
0.8086991
0.8088334
0.8089808
0.8091454
0.8093348
0.8095646
0.8101224
0.8107927
0.8114182
0.8120524
0.8127402
0.8133629
0.8138977
0.8077591
0.80783
0.8079078
0.8079969
0.8081086
0.8082363
0.8083331
0.8084358
0.8085453
0.8086625
0.8087891
0.8089266
0.8090773
0.8092443
0.8094295
0.8097567
0.8102324
0.8107269
0.8112472
0.8118068
0.812281
0.8126897
0.8131332
0.807759
0.80783
0.8079086
0.808
0.8081133
0.8082282
0.8083177
0.8084141
0.8085175
0.8086282
0.8087472
0.808875
0.8090124
0.8091596
0.8093147
0.8095671
0.8099384
0.8103354
0.8107605
0.8112196
0.811596
0.8119029
0.8122675
0.8126508
0.8077587
0.8078291
0.8079076
0.807999
0.8081108
0.8082182
0.8083022
0.8083934
0.8084914
0.8085963
0.8087084
0.8088277
0.8089542
0.8090866
0.8092226
0.8094377
0.8097526
0.8100907
0.810454
0.8108462
0.8111608
0.8114039
0.8116923
0.8120315
0.8123798
0.8077581
0.8078273
0.8079045
0.8079946
0.8081037
0.8082061
0.8082862
0.8083731
0.8084667
0.8085666
0.8086731
0.8087857
0.808904
0.8090264
0.8091505
0.809345
0.8096287
0.8099327
0.8102585
0.8106088
0.810884
0.8110868
0.8113236
0.811604
0.811932
0.8122675
0.8077868
0.8079216
0.8080802
0.808276
0.8085278
0.8087862
0.8090105
0.8092397
0.8077833
0.8079098
0.8080571
0.8082371
0.8084686
0.8087093
0.8089223
0.809163
0.8094061
0.8077798
0.8078977
0.8080332
0.8081968
0.8084081
0.8086363
0.808835
0.809064
0.8093203
0.8095776
0.8077761
0.8078853
0.8080088
0.8081547
0.8083437
0.8085691
0.8087566
0.8089694
0.8092121
0.8094832
0.8097564
0.8077726
0.8078732
0.8079844
0.8081107
0.8082692
0.80851
0.8086901
0.8088874
0.8091101
0.8093647
0.8096513
0.8099442
0.8077692
0.8078617
0.807961
0.8080665
0.8081714
0.8077661
0.8078514
0.8079402
0.8080286
0.8081038
0.8077635
0.8078425
0.8079228
0.8079986
0.8080568
0.8077614
0.8078354
0.8079093
0.8079764
0.808025
0.8167833
0.8077597
0.8078302
0.8078996
0.8079615
0.8080048
0.8162133
0.8171367
0.8077586
0.8078266
0.8078936
0.807953
0.8079944
0.8154703
0.8162562
0.8172365
0.8077579
0.8078247
0.8078908
0.8079503
0.8079927
0.8146632
0.815267
0.8160757
0.8170878
0.8077577
0.8078241
0.8078908
0.8079528
0.8079994
0.8137842
0.81425
0.8148644
0.8156807
0.8167022
0.8077577
0.8078244
0.8078929
0.8079597
0.8080149
0.8128058
0.8131748
0.8136584
0.8142866
0.8151039
0.8159869
0.8077578
0.8078253
0.8078962
0.8079698
0.8080408
0.8116544
0.8119872
0.8124249
0.8129633
0.8136212
0.8143044
0.8149596
0.807758
0.8078263
0.8078998
0.8079811
0.8080803
0.8082277
0.8083294
0.8084342
0.8085448
0.808663
0.8087907
0.8089304
0.8090858
0.8092637
0.8094787
0.8100031
0.8106284
0.8112028
0.8117735
0.8123766
0.8129019
0.8133794
0.8139157
0.8077581
0.807827
0.8079025
0.8079887
0.8080968
0.8082201
0.8083133
0.808412
0.8085168
0.808629
0.8087496
0.8088803
0.8090231
0.8091805
0.8093543
0.8096619
0.8101079
0.8105669
0.811043
0.8115462
0.8119559
0.812296
0.8127056
0.8131504
0.8077581
0.8078271
0.8079034
0.8079919
0.8081016
0.8082127
0.8082989
0.8083916
0.8084909
0.808597
0.8087106
0.8088323
0.8089628
0.809102
0.809248
0.809486
0.8098355
0.8102064
0.8105995
0.8110184
0.811351
0.811609
0.8119167
0.8122822
0.8126667
0.8077578
0.8078263
0.8079025
0.8079912
0.8080996
0.8082034
0.8082845
0.8083722
0.8084664
0.808567
0.8086743
0.8087883
0.8089086
0.8090342
0.8091626
0.809366
0.8096636
0.8099811
0.8103197
0.8106815
0.8109641
0.8111725
0.8114162
0.8117053
0.8120453
0.8123975
0.8077573
0.8078246
0.8078997
0.8079871
0.8080929
0.808192
0.8082694
0.8083532
0.8084432
0.8085392
0.8086412
0.808749
0.8088618
0.8089782
0.8090957
0.8092801
0.8095492
0.8098361
0.8101416
0.8104674
0.8107178
0.8108948
0.8110981
0.8113355
0.8116166
0.8119479
0.8122837
0.8077839
0.8079117
0.8080609
0.8082435
0.8084768
0.8087148
0.808926
0.809165
0.8094066
0.8077808
0.8079011
0.8080403
0.8082093
0.8084248
0.8086466
0.8088414
0.8090675
0.8093212
0.8095758
0.8077775
0.80789
0.8080187
0.808173
0.8083711
0.8085828
0.8087643
0.8089732
0.8092132
0.8094817
0.809751
0.8077741
0.8078786
0.8079961
0.8081344
0.8083126
0.8085233
0.808696
0.8088901
0.8091109
0.8093639
0.8096481
0.8099364
0.8077708
0.8078673
0.8079734
0.8080936
0.8082435
0.8084705
0.8086378
0.8088191
0.8090218
0.8092528
0.809519
0.8098219
0.8101375
0.8077676
0.8078564
0.8079515
0.8080521
0.8081515
0.8077647
0.8078467
0.8079319
0.8080163
0.8080878
0.8077622
0.8078383
0.8079155
0.807988
0.8080435
0.8161683
0.8077601
0.8078316
0.8079027
0.8079671
0.8080134
0.8159439
0.8168345
0.8077586
0.8078266
0.8078936
0.807953
0.8079944
0.8154703
0.8162562
0.8172365
0.8077576
0.8078233
0.8078879
0.8079451
0.8079848
0.8148868
0.8155089
0.8163418
0.8173856
0.8077569
0.8078215
0.8078854
0.8079428
0.8079834
0.8142073
0.8146999
0.8153461
0.8162061
0.817288
0.8077567
0.807821
0.8078855
0.8079454
0.8079901
0.8134278
0.8138222
0.8143297
0.8149901
0.8158604
0.8168345
0.8077567
0.8078214
0.8078877
0.8079522
0.8080054
0.8125331
0.8128548
0.8132707
0.8137985
0.8144707
0.815226
0.8160006
0.8077569
0.8078224
0.8078911
0.8079623
0.8080308
0.8114589
0.8117588
0.8121498
0.8126231
0.8131872
0.8137507
0.814318
0.814975
0.8077571
0.8078235
0.8078947
0.8079735
0.8080693
0.8082118
0.8083097
0.8084104
0.8085164
0.8086294
0.8087512
0.808884
0.8090312
0.8091991
0.8094013
0.8098968
0.8104842
0.8110169
0.8115376
0.8120769
0.8125265
0.812917
0.8133955
0.8139332
0.8077573
0.8078242
0.8078974
0.807981
0.8080857
0.8082049
0.8082947
0.8083896
0.8084903
0.8085976
0.8087129