/*--------------------------------*- C++ -*----------------------------------*\
| =========                 |                                                 |
| \\      /  F ield         | OpenFOAM: The Open Source CFD Toolbox           |
|  \\    /   O peration     | Version:  2306                                  |
|   \\  /    A nd           | Website:  www.openfoam.com                      |
|    \\/     M anipulation  |                                                 |
\*---------------------------------------------------------------------------*/
FoamFile
{
    version     2.0;
    format      ascii;
    arch        "LSB;label=32;scalar=64";
    class       volScalarField;
    location    "1.2/air";
    object      diffSp.O2;
}
// * * * * * * * * * * * * * * * * * * * * * * * * * * * * * * * * * * * * * //

dimensions      [0 2 -1 0 0 0 0];

internalField   nonuniform List<scalar> 
16000
(
0.0002185634
0.0002145537
0.0002232804
0.0002144855
0.0002123649
0.0002222436
0.0002049089
0.0002244694
0.0002222278
0.0002122372
0.0002111325
0.0002213502
0.0001990737
0.0002240379
0.0002191812
0.0001989801
0.000225438
0.0002240539
0.0002213158
0.000210933
0.0002105632
0.000220695
0.0001956247
0.0002236518
0.0002165293
0.0001903608
0.0002252307
0.0002227876
0.0002164869
0.0001953761
0.0002262897
0.0002252592
0.0002236783
0.0002206326
0.0002102683
0.0002105632
0.0002203483
0.0001940055
0.000223357
0.0002145748
0.00018506
0.0002250495
0.0002216361
0.000212224
0.0001848531
0.0002261747
0.0002246699
0.0002216425
0.000214453
0.0001935111
0.0002270641
0.0002262061
0.0002251006
0.0002233912
0.0002202477
0.0002101371
0.000129892
0.0002111325
0.0002203483
0.0001940055
0.0002231968
0.0002135382
0.0001825148
0.0002249125
0.0002207487
0.000209053
0.0001782083
0.0002260784
0.00022414
0.0002197631
0.0002089408
0.0001819402
0.0002269897
0.0002258939
0.0002241667
0.000220752
0.0002132973
0.000193158
0.0002277738
0.0002270201
0.0002261354
0.0002249863
0.0002232392
0.0002202054
0.0002105313
0.0001298774
0.0001304072
0.0001302241
0.0002123649
0.000220695
0.0001956247
0.0002231968
0.0002135382
0.0001825148
0.0002248382
0.0002202642
0.0002073641
0.0001749685
0.0002260076
0.0002237331
0.0002182996
0.0002048064
0.0001745273
0.0002269304
0.0002256213
0.0002233112
0.0002182879
0.0002070613
0.000181383
0.0002277181
0.0002268283
0.000225654
0.0002237906
0.0002202616
0.0002131543
0.0001943008
0.0002284309
0.0002277462
0.0002269858
0.0002260914
0.0002249391
0.0002232545
0.0002205204
0.0002115327
0.0001298458
0.0001304043
0.0001302034
0.0001309146
0.0001307129
0.0001305585
0.0002145537
0.0002213502
0.0001990737
0.000223357
0.0002145748
0.00018506
0.0002248382
0.0002202642
0.0002073641
0.0001749685
0.0002259698
0.0002235108
0.0002174962
0.0002025945
0.0001708824
0.0002268882
0.0002254167
0.0002226451
0.0002163522
0.0002023601
0.0001738143
0.0002276753
0.0002266666
0.0002252244
0.0002226795
0.0002174614
0.0002068153
0.00018317
0.0002283848
0.0002276079
0.0002266993
0.000225491
0.0002236114
0.0002202706
0.0002140644
0.0001971217
0.0002290415
0.0002284103
0.0002277267
0.0002269702
0.0002260859
0.0002249757
0.000223449
0.0002211804
0.000213387
0.0001297846
0.000130399
0.0001301547
0.0001309143
0.0001307101
0.0001305328
0.0001313873
0.0001311847
0.000131019
0.0001308973
0.0002185634
0.0002222436
0.0002049089
0.0002236518
0.0002165293
0.0001903608
0.0002249125
0.0002207487
0.000209053
0.0001782083
0.0002259698
0.0002235108
0.0002174962
0.0002025945
0.0001708824
0.0002268661
0.0002253064
0.0002222784
0.0002152845
0.0001998374
0.0001700853
0.0002276457
0.0002265487
0.0002248968
0.0002218047
0.0002152489
0.0002020281
0.0001760685
0.0002283501
0.0002274949
0.000226452
0.0002249464
0.0002223649
0.0002174524
0.0002082648
0.000187502
0.0002290008
0.0002282981
0.0002275256
0.0002266243
0.0002254392
0.00022368
0.0002208094
0.0002159732
0.0002021105
0.0002296113
0.000229024
0.0002283969
0.000227722
0.0002269802
0.0002261277
0.0002251045
0.0002238175
0.0002221656
0.0002168021
0.0001296216
0.0001303934
0.0001300511
0.0001309151
0.0001307054
0.0001304713
0.0001313879
0.0001311863
0.0001310161
0.0001308681
0.000131822
0.000131624
0.0001314545
0.0001313263
0.000131238
0.0002232804
0.0002144855
0.0002240379
0.0002191812
0.0001989801
0.0002250495
0.0002216361
0.000212224
0.0001848531
0.0002260076
0.0002237331
0.0002182996
0.0002048064
0.0001745273
0.0002268661
0.0002253064
0.0002222784
0.0002152845
0.0001998374
0.0001700853
0.0002276305
0.0002264863
0.0002247186
0.0002213198
0.0002140245
0.0001994566
0.000172584
0.0002283265
0.0002274148
0.0002262686
0.0002245255
0.0002213752
0.0002152185
0.0002038893
0.0001814701
0.0002289706
0.0002282082
0.0002273575
0.0002263206
0.0002248449
0.0002224529
0.0002183054
0.0002112986
0.0001948898
0.0002295744
0.000228926
0.0002282363
0.0002274861
0.0002266221
0.0002255247
0.0002240164
0.0002218415
0.0002187511
0.0002104378
0.0002301443
0.0002295955
0.000229013
0.0002283961
0.0002277367
0.0002270211
0.0002262232
0.0002253295
0.0002243613
0.0002235164
0.0001284879
0.0001304075
0.0001297883
0.000130921
0.0001307023
0.0001303417
0.0001313904
0.000131192
0.0001310113
0.0001307987
0.0001318229
0.0001316269
0.0001314575
0.0001313233
0.0001312069
0.0001322258
0.0001320298
0.0001318602
0.0001317246
0.0001316322
5.557268e-05
0.0002244694
0.0002222278
0.0002122372
0.0002252307
0.0002227876
0.0002164869
0.0001953761
0.0002260784
0.00022414
0.0002197631
0.0002089408
0.0001819402
0.0002268882
0.0002254167
0.0002226451
0.0002163522
0.0002023601
0.0001738143
0.0002276305
0.0002264863
0.0002247186
0.0002213198
0.0002140245
0.0001994566
0.000172584
0.0002283146
0.0002273732
0.0002261707
0.0002242948
0.0002208239
0.0002139799
0.0002015405
0.0001785378
0.0002289502
0.0002281458
0.0002272365
0.0002260923
0.0002243804
0.0002214719
0.0002163152
0.0002077771
0.0001904645
0.000229547
0.0002288483
0.000228105
0.000227286
0.0002263032
0.0002249621
0.0002229704
0.0002199366
0.00021564
0.0002064655
0.0002301102
0.0002295065
0.0002288739
0.0002282112
0.0002275017
0.0002267082
0.0002257619
0.000224613
0.0002232893
0.0002222177
0.0001271351
0.0002306441
0.0002301295
0.0002295856
0.0002290134
0.0002284115
0.0002277748
0.0002270985
0.0002263806
0.0002256712
0.000225174
0.0001306616
0.0001289099
0.0001309668
0.0001307224
0.0001300505
0.0001313995
0.0001312108
0.0001310076
0.0001306581
0.0001318258
0.0001316355
0.0001314665
0.0001313179
0.0001311344
0.0001322266
0.0001320329
0.0001318648
0.0001317285
0.0001316291
5.555925e-05
0.0001326006
0.0001324089
0.0001322368
0.0001320963
0.0001319923
5.573394e-05
5.558173e-05
0.000225438
0.0002240539
0.0002213158
0.000210933
0.0002261747
0.0002246699
0.0002216425
0.000214453
0.0001935111
0.0002269304
0.0002256213
0.0002233112
0.0002182879
0.0002070613
0.000181383
0.0002276457
0.0002265487
0.0002248968
0.0002218047
0.0002152489
0.0002020281
0.0001760685
0.0002283146
0.0002273732
0.0002261707
0.0002242948
0.0002208239
0.0002139799
0.0002015405
0.0001785378
0.00022894
0.0002281137
0.0002271731
0.0002259692
0.000224124
0.0002209233
0.0002152106
0.0002058888
0.000188337
0.0002295287
0.0002287949
0.0002280125
0.0002271401
0.0002260604
0.000224517
0.0002221257
0.0002184101
0.0002132815
0.0002040326
0.000230085
0.0002294364
0.0002287614
0.0002280581
0.0002272996
0.0002264235
0.0002253159
0.0002238843
0.0002221601
0.0002208583
0.0001260663
0.0002306123
0.0002300472
0.0002294597
0.0002288545
0.0002282318
0.0002275826
0.0002268941
0.0002261577
0.0002254553
0.000225094
0.0001305028
0.0001278441
0.0002311134
0.00023063
0.0002301202
0.0002295861
0.0002290281
0.0002284464
0.000227841
0.0002272213
0.0002266271
0.000226244
0.0001314418
0.0001308469
0.0001293579
0.0001314517
0.0001312855
0.0001310198
0.0001303755
0.0001318353
0.0001316599
0.0001314915
0.0001313115
0.0001309939
0.0001322296
0.000132042
0.0001318778
0.0001317393
0.0001316227
5.552814e-05
0.0001326014
0.000132412
0.0001322418
0.0001321022
0.0001319967
5.573257e-05
5.556831e-05
0.0001329505
0.0001327629
0.0001325913
0.0001324438
0.0001323297
5.588029e-05
5.574199e-05
5.559069e-05
0.0002262897
0.0002252592
0.0002236783
0.0002206326
0.0002102683
0.0002269897
0.0002258939
0.0002241667
0.000220752
0.0002132973
0.000193158
0.0002276753
0.0002266666
0.0002252244
0.0002226795
0.0002174614
0.0002068153
0.00018317
0.0002283265
0.0002274148
0.0002262686
0.0002245255
0.0002213752
0.0002152185
0.0002038893
0.0001814701
0.00022894
0.0002281137
0.0002271731
0.0002259692
0.000224124
0.0002209233
0.0002152106
0.0002058888
0.000188337
0.0002295195
0.0002287677
0.0002279647
0.000227063
0.0002259284
0.0002242695
0.0002216508
0.0002175599
0.0002120142
0.0002028602
0.0002300681
0.0002293884
0.0002286831
0.0002279491
0.0002271504
0.0002262026
0.0002249541
0.0002232773
0.0002212212
0.0002197766
0.0001253499
0.0002305888
0.0002299825
0.0002293585
0.0002287248
0.0002280815
0.0002274134
0.0002266949
0.0002259006
0.0002251208
0.0002247548
0.0001302367
0.0001269544
0.0002310837
0.0002305533
0.0002300038
0.0002294427
0.0002288754
0.0002283062
0.0002277389
0.0002271917
0.0002267258
0.000226562
0.0001315696
0.000130735
0.0001285201
0.0002315547
0.0002311
0.0002306212
0.0002301205
0.0002295997
0.0002290599
0.0002285048
0.0002279441
0.0002274175
0.0002270768
0.0001319589
0.0001315885
0.0001310704
0.000129829
0.0001318862
0.0001317463
0.0001315667
0.0001313118
0.0001307385
0.0001322386
0.0001320668
0.0001319102
0.0001317651
0.0001316126
5.546925e-05
0.0001326041
0.0001324207
0.0001322554
0.0001321176
0.0001320077
5.572962e-05
5.553724e-05
0.0001329513
0.0001327658
0.0001325962
0.0001324501
0.0001323363
5.588223e-05
5.574062e-05
5.557728e-05
0.0001332776
0.0001330953
0.0001329246
0.0001327736
0.000132648
5.601802e-05
5.588733e-05
5.574994e-05
5.559976e-05
0.0002270641
0.0002262061
0.0002251006
0.0002233912
0.0002202477
0.0002101371
0.0002277181
0.0002268283
0.000225654
0.0002237906
0.0002202616
0.0002131543
0.0001943008
0.0002283501
0.0002274949
0.000226452
0.0002249464
0.0002223649
0.0002174524
0.0002082648
0.000187502
0.0002289502
0.0002281458
0.0002272365
0.0002260923
0.0002243804
0.0002214719
0.0002163152
0.0002077771
0.0001904645
0.0002295195
0.0002287677
0.0002279647
0.000227063
0.0002259284
0.0002242695
0.0002216508
0.0002175599
0.0002120142
0.0002028602
0.0002300596
0.0002293641
0.000228643
0.0002278925
0.0002270709
0.0002260812
0.0002247502
0.0002229313
0.0002206906
0.0002191842
0.0001249923
0.0002305731
0.0002299383
0.0002292884
0.0002286337
0.0002279734
0.0002272858
0.0002265326
0.000225672
0.0002248004
0.0002244064
0.0001299984
0.0001263427
0.0002310617
0.000230493
0.0002299105
0.0002293264
0.0002287497
0.0002281865
0.0002276389
0.0002271226
0.0002266963
0.0002266009
0.0001315675
0.000130532
0.0001277933
0.0002315269
0.0002310281
0.0002305125
0.000229988
0.0002294623
0.0002289433
0.0002284431
0.0002279837
0.0002276244
0.0002275127
0.0001321704
0.0001317085
0.0001309832
0.0001291768
0.0002319701
0.000231542
0.0002310915
0.0002306213
0.0002301329
0.0002296286
0.0002291124
0.0002285951
0.0002281108
0.0002277942
0.0001323695
0.0001320824
0.0001317635
0.0001313193
0.0001303129
0.0001322857
0.0001321517
0.000132
0.0001318287
0.0001316007
5.536704e-05
0.0001326124
0.0001324443
0.0001322885
0.0001321521
0.0001320308
5.572441e-05
5.547858e-05
0.0001329537
0.0001327741
0.0001326094
0.0001324663
0.0001323525
5.588687e-05
5.573766e-05
5.554627e-05
0.0001332782
0.000133098
0.0001329293
0.0001327798
0.0001326551
5.602093e-05
5.588927e-05
5.574857e-05
5.558638e-05
0.0001335842
0.0001334076
0.0001332396
0.0001330862
0.0001329533
5.61487e-05
5.602418e-05
5.589427e-05
5.575797e-05
5.560863e-05
0.0002277738
0.0002270201
0.0002261354
0.0002249863
0.0002232392
0.0002202054
0.0002105313
0.0002283848
0.0002276079
0.0002266993
0.000225491
0.0002236114
0.0002202706
0.0002140644
0.0001971217
0.0002289706
0.0002282082
0.0002273575
0.0002263206
0.0002248449
0.0002224529
0.0002183054
0.0002112986
0.0001948898
0.0002295287
0.0002287949
0.0002280125
0.0002271401
0.0002260604
0.000224517
0.0002221257
0.0002184101
0.0002132815
0.0002040326
0.0002300596
0.0002293641
0.000228643
0.0002278925
0.0002270709
0.0002260812
0.0002247502
0.0002229313
0.0002206906
0.0002191842
0.0001249923
0.0002305652
0.000229916
0.0002292527
0.0002285868
0.0002279167
0.0002272168
0.0002264408
0.0002255379
0.0002246081
0.0002241961
0.0001298621
0.0001260339
0.000231047
0.0002304518
0.000229846
0.0002292454
0.0002286608
0.0002280984
0.0002275572
0.0002270467
0.0002266216
0.0002265491
0.0001315261
0.0001303449
0.0001272821
0.0002315062
0.0002309716
0.0002304255
0.0002298808
0.0002293502
0.0002288457
0.0002283829
0.0002279849
0.0002277081
0.0002276832
0.0001322587
0.0001317236
0.0001308278
0.0001285961
0.000231944
0.0002314745
0.0002309897
0.0002304975
0.0002300058
0.0002295243
0.0002290661
0.0002286556
0.0002283427
0.0002282461
0.0001325966
0.0001322692
0.0001318632
0.000131246
0.0001298169
0.0002323613
0.000231958
0.0002315339
0.0002310914
0.0002306325
0.0002301594
0.0002296764
0.0002291934
0.000228742
0.000228439
0.0001327297
0.0001324765
0.0001322285
0.0001319558
0.0001315803
5.520743e-05
0.0001326553
0.0001325235
0.0001323778
0.0001322317
0.0001320782
5.57167e-05
5.537727e-05
0.0001329612
0.0001327958
0.0001326409
0.000132502
0.000132385
5.589579e-05
5.573236e-05
5.548786e-05
0.0001332805
0.0001331056
0.0001329416
0.0001327956
0.0001326723
5.602782e-05
5.58939e-05
5.574559e-05
5.555544e-05
0.0001335848
0.0001334101
0.0001332439
0.0001330921
0.0001329602
5.615183e-05
5.60271e-05
5.589621e-05
5.575661e-05
5.559526e-05
0.0001338722
0.0001337018
0.0001335371
0.0001333837
0.0001332452
5.627487e-05
5.615412e-05
5.603024e-05
5.590129e-05
5.57658e-05
3.630385e-05
0.0002284309
0.0002277462
0.0002269858
0.0002260914
0.0002249391
0.0002232545
0.0002205204
0.0002115327
0.0002290008
0.0002282981
0.0002275256
0.0002266243
0.0002254392
0.00022368
0.0002208094
0.0002159732
0.0002021105
0.000229547
0.0002288483
0.000228105
0.000227286
0.0002263032
0.0002249621
0.0002229704
0.0002199366
0.00021564
0.0002064655
0.0002300681
0.0002293884
0.0002286831
0.0002279491
0.0002271504
0.0002262026
0.0002249541
0.0002232773
0.0002212212
0.0002197766
0.0001253499
0.0002305652
0.000229916
0.0002292527
0.0002285868
0.0002279167
0.0002272168
0.0002264408
0.0002255379
0.0002246081
0.0002241961
0.0001298621
0.0001260339
0.0002310396
0.000230431
0.0002298132
0.0002292038
0.0002286148
0.0002280517
0.000227511
0.0002269985
0.0002265668
0.0002265014
0.0001314941
0.0001302364
0.0001270211
0.0002314924
0.0002309331
0.0002303655
0.0002298063
0.0002292714
0.0002287752
0.0002283338
0.0002279676
0.000227728
0.0002277418
0.0001322908
0.0001317008
0.0001306823
0.0001281796
0.0002319246
0.0002314215
0.0002309081
0.0002303975
0.0002299025
0.0002294378
0.0002290214
0.0002286807
0.0002284611
0.0002284545
0.0001327117
0.0001323575
0.0001318858
0.0001311265
0.0001293676
0.0002323368
0.0002318947
0.0002314382
0.0002309752
0.0002305136
0.0002300627
0.0002296361
0.0002292561
0.0002289686
0.0002288691
0.0001329488
0.0001326748
0.0001323824
0.0001320318
0.0001315156
5.502459e-05
0.0002327299
0.00023235
0.0002319504
0.0002315337
0.0002311018
0.000230657
0.0002302033
0.0002297502
0.0002293256
0.0002290343
0.000133058
0.0001328239
0.0001326024
0.0001323882
0.0001321547
5.570309e-05
5.522022e-05
0.0001330002
0.0001328684
0.0001327249
0.0001325825
0.0001324488
5.591228e-05
5.57244e-05
5.538746e-05
0.0001332872
0.0001331256
0.000132971
0.0001328299
0.0001327066
5.60409e-05
5.590271e-05
5.574021e-05
5.549729e-05
0.0001335868
0.0001334172
0.0001332554
0.0001331069
0.0001329771
5.615922e-05
5.603398e-05
5.590083e-05
5.575361e-05
5.556441e-05
0.0001338727
0.0001337041
0.0001335412
0.0001333892
0.0001332519
5.627796e-05
5.615726e-05
5.603317e-05
5.590323e-05
5.576444e-05
3.629518e-05
0.000134143
0.000133979
0.0001338188
0.0001336665
0.0001335254
5.639623e-05
5.627967e-05
5.615944e-05
5.603638e-05
5.59081e-05
3.640543e-05
3.631148e-05
0.0002290415
0.0002284103
0.0002277267
0.0002269702
0.0002260859
0.0002249757
0.000223449
0.0002211804
0.000213387
0.0002295744
0.000228926
0.0002282363
0.0002274861
0.0002266221
0.0002255247
0.0002240164
0.0002218415
0.0002187511
0.0002104378
0.000230085
0.0002294364
0.0002287614
0.0002280581
0.0002272996
0.0002264235
0.0002253159
0.0002238843
0.0002221601
0.0002208583
0.0001260663
0.0002305731
0.0002299383
0.0002292884
0.0002286337
0.0002279734
0.0002272858
0.0002265326
0.000225672
0.0002248004
0.0002244064
0.0001299984
0.0001263427
0.0002310396
0.000230431
0.0002298132
0.0002292038
0.0002286148
0.0002280517
0.000227511
0.0002269985
0.0002265668
0.0002265014
0.0001314941
0.0001302364
0.0001270211
0.0002314855
0.0002309136
0.0002303349
0.0002297683
0.0002292309
0.0002287383
0.0002283061
0.0002279529
0.0002277271
0.0002277568
0.0001322995
0.0001316798
0.0001305973
0.0001279646
0.0002319116
0.0002313853
0.0002308519
0.000230328
0.0002298302
0.0002293761
0.0002289853
0.0002286847
0.0002285132
0.0002285504
0.0001327684
0.0001323946
0.0001318755
0.000131015
0.0001290396
0.0002323186
0.0002318448
0.0002313616
0.0002308814
0.0002304171
0.0002299829
0.0002295976
0.0002292868
0.000229092
0.0002290787
0.0001330671
0.0001327839
0.0001324639
0.000132055
0.0001314242
5.485795e-05
0.0002327068
0.0002322904
0.0002318604
0.0002314244
0.00023099
0.000230566
0.0002301653
0.0002298089
0.0002295368
0.0002294321
0.0001332615
0.0001330146
0.0001327658
0.0001325082
0.0001322068
5.567657e-05
5.504065e-05
0.0002330772
0.0002327193
0.0002323427
0.0002319501
0.0002315432
0.0002311244
0.0002306974
0.000230271
0.0002298707
0.0002295897
0.0001333647
0.000133142
0.0001329345
0.0001327396
0.0001325519
5.593588e-05
5.571031e-05
5.52329e-05
0.0001333227
0.0001331918
0.0001330484
0.0001329064
0.0001327728
5.606443e-05
5.591879e-05
5.573199e-05
5.539782e-05
0.000133593
0.0001334355
0.0001332825
0.0001331391
0.0001330105
5.617318e-05
5.604696e-05
5.590952e-05
5.574816e-05
5.550655e-05
0.0001338745
0.0001337106
0.0001335518
0.0001334031
0.0001332679
5.628523e-05
5.616464e-05
5.604003e-05
5.590783e-05
5.576143e-05
3.627518e-05
0.0001341435
0.0001339812
0.0001338225
0.0001336716
0.0001335316
5.639917e-05
5.628276e-05
5.616259e-05
5.60393e-05
5.591005e-05
3.640454e-05
3.630286e-05
0.0001343981
0.0001342408
0.0001340854
0.0001339356
0.0001337935
5.651324e-05
5.64005e-05
5.628438e-05
5.616484e-05
5.604232e-05
3.649736e-05
3.641225e-05
3.631644e-05
0.0002296113
0.000229024
0.0002283969
0.000227722
0.0002269802
0.0002261277
0.0002251045
0.0002238175
0.0002221656
0.0002168021
0.0002301102
0.0002295065
0.0002288739
0.0002282112
0.0002275017
0.0002267082
0.0002257619
0.000224613
0.0002232893
0.0002222177
0.0001271351
0.0002305888
0.0002299825
0.0002293585
0.0002287248
0.0002280815
0.0002274134
0.0002266949
0.0002259006
0.0002251208
0.0002247548
0.0001302367
0.0001269544
0.000231047
0.0002304518
0.000229846
0.0002292454
0.0002286608
0.0002280984
0.0002275572
0.0002270467
0.0002266216
0.0002265491
0.0001315261
0.0001303449
0.0001272821
0.0002314855
0.0002309136
0.0002303349
0.0002297683
0.0002292309
0.0002287383
0.0002283061
0.0002279529
0.0002277271
0.0002277568
0.0001322995
0.0001316798
0.0001305973
0.0001279646
0.0002319051
0.000231367
0.0002308233
0.0002302926
0.0002297931
0.0002293439
0.0002289651
0.0002286825
0.0002285316
0.0002285877
0.0001327916
0.0001324071
0.0001318627
0.0001309497
0.0001288685
0.0002323064
0.0002318108
0.0002313088
0.0002308163
0.0002303496
0.0002299262
0.0002295669
0.0002292972
0.0002291524
0.0002291825
0.0001331299
0.0001328406
0.0001325021
0.0001320525
0.0001313411
5.473532e-05
0.0002326897
0.0002322435
0.0002317884
0.0002313362
0.0002308992
0.0002304912
0.0002301296
0.0002298388
0.0002296544
0.0002296304
0.0001333744
0.0001331253
0.0001328637
0.0001325785
0.0001322267
5.564241e-05
5.487689e-05
0.0002330555
0.0002326633
0.0002322582
0.0002318474
0.000231438
0.0002310385
0.0002306609
0.0002303242
0.0002300646
0.0002299542
0.0001335514
0.0001333191
0.000133092
0.0001328682
0.0001326398
5.595319e-05
5.568394e-05
5.505654e-05
0.0002334043
0.0002330673
0.0002327125
0.0002323424
0.000231959
0.0002315643
0.000231162
0.0002307601
0.0002303818
0.0002301116
0.0001336535
0.0001334403
0.0001332403
0.0001330547
0.0001328796
5.609891e-05
5.594142e-05
5.571744e-05
5.524571e-05
0.0001336253
0.000133496
0.0001333535
0.0001332102
0.0001330743
5.61981e-05
5.607006e-05
5.592519e-05
5.573969e-05
5.540802e-05
0.0001338801
0.0001337275
0.0001335769
0.000133433
0.0001332994
5.629893e-05
5.617851e-05
5.60529e-05
5.591641e-05
5.57559e-05
3.623773e-05
0.0001341452
0.0001339873
0.0001338325
0.0001336846
0.0001335467
5.64061e-05
5.629003e-05
5.616996e-05
5.604616e-05
5.591462e-05
3.640259e-05
3.628297e-05
0.0001343985
0.0001342428
0.0001340889
0.0001339405
0.0001337994
5.651602e-05
5.640345e-05
5.628748e-05
5.616799e-05
5.604525e-05
3.649863e-05
3.641139e-05
3.630784e-05
0.0001346385
0.000134488
0.0001343381
0.0001341917
0.0001340503
5.662572e-05
5.651707e-05
5.640469e-05
5.628914e-05
5.617005e-05
3.658412e-05
3.650344e-05
3.641661e-05
3.632033e-05
0.0002301443
0.0002295955
0.000229013
0.0002283961
0.0002277367
0.0002270211
0.0002262232
0.0002253295
0.0002243613
0.0002235164
0.0001284879
0.0002306123
0.0002300472
0.0002294597
0.0002288545
0.0002282318
0.0002275826
0.0002268941
0.0002261577
0.0002254553
0.000225094
0.0001305028
0.0001278441
0.0002310617
0.000230493
0.0002299105
0.0002293264
0.0002287497
0.0002281865
0.0002276389
0.0002271226
0.0002266963
0.0002266009
0.0001315675
0.000130532
0.0001277933
0.0002314924
0.0002309331
0.0002303655
0.0002298063
0.0002292714
0.0002287752
0.0002283338
0.0002279676
0.000227728
0.0002277418
0.0001322908
0.0001317008
0.0001306823
0.0001281796
0.0002319051
0.000231367
0.0002308233
0.0002302926
0.0002297931
0.0002293439
0.0002289651
0.0002286825
0.0002285316
0.0002285877
0.0001327916
0.0001324071
0.0001318627
0.0001309497
0.0001288685
0.0002323003
0.0002317936
0.0002312819
0.0002307831
0.0002303151
0.0002298967
0.0002295499
0.0002292991
0.0002291765
0.0002292257
0.0001331572
0.0001328645
0.0001325163
0.0001320456
0.0001312925
5.467097e-05
0.0002326783
0.0002322116
0.0002317387
0.000231275
0.0002308359
0.0002304381
0.0002301013
0.00022985
0.0002297139
0.0002297313
0.000133436
0.0001331862
0.0001329174
0.0001326146
0.0001322288
5.561208e-05
5.475624e-05
0.0002330394
0.0002326192
0.0002321904
0.0002317644
0.0002313525
0.0002309679
0.0002306268
0.0002303513
0.0002301734
0.0002301378
0.0001336564
0.0001334243
0.0001331907
0.0001329516
0.0001326967
5.596058e-05
5.565032e-05
5.489561e-05
0.000233384
0.0002330147
0.000232633
0.0002322458
0.0002318599
0.0002314832
0.0002311267
0.000230808
0.0002305595
0.0002304455
0.0001338245
0.0001336029
0.000133387
0.0001331795
0.0001329757
5.613003e-05
5.595818e-05
5.56912e-05
5.507251e-05
0.0002337123
0.0002333951
0.000233061
0.0002327122
0.0002323508
0.0002319787
0.0002315994
0.0002312203
0.0002308626
0.0002306031
0.0001339271
0.0001337221
0.0001335285
0.0001333471
0.000133177
5.623475e-05
5.610351e-05
5.594686e-05
5.572469e-05
5.52583e-05
0.0001339098
0.000133783
0.000133642
0.0001334986
0.0001333595
5.632325e-05
5.620304e-05
5.607558e-05
5.593165e-05
5.574718e-05
3.617422e-05
0.0001341503
0.0001340029
0.0001338557
0.0001337124
0.0001335763
5.641913e-05
5.630365e-05
5.618374e-05
5.605891e-05
5.592308e-05
3.639895e-05
3.624578e-05
0.0001344001
0.0001342485
0.0001340983
0.0001339527
0.0001338136
5.652256e-05
5.641038e-05
5.629473e-05
5.617534e-05
5.605208e-05
3.650159e-05
3.640945e-05
3.628802e-05
0.0001346389
0.0001344899
0.0001343414
0.0001341962
0.0001340559
5.662834e-05
5.651986e-05
5.640765e-05
5.629225e-05
5.61732e-05
3.658603e-05
3.650472e-05
3.641575e-05
3.631175e-05
0.0001348653
0.0001347217
0.0001345775
0.0001344353
0.0001342958
5.67338e-05
5.662918e-05
5.652082e-05
5.640893e-05
5.629374e-05
3.666675e-05
3.658957e-05
3.650723e-05
3.641998e-05
3.632253e-05
0.0001296216
0.0002306441
0.0002301295
0.0002295856
0.0002290134
0.0002284115
0.0002277748
0.0002270985
0.0002263806
0.0002256712
0.000225174
0.0001306616
0.0001289099
0.0002310837
0.0002305533
0.0002300038
0.0002294427
0.0002288754
0.0002283062
0.0002277389
0.0002271917
0.0002267258
0.000226562
0.0001315696
0.000130735
0.0001285201
0.0002315062
0.0002309716
0.0002304255
0.0002298808
0.0002293502
0.0002288457
0.0002283829
0.0002279849
0.0002277081
0.0002276832
0.0001322587
0.0001317236
0.0001308278
0.0001285961
0.0002319116
0.0002313853
0.0002308519
0.000230328
0.0002298302
0.0002293761
0.0002289853
0.0002286847
0.0002285132
0.0002285504
0.0001327684
0.0001323946
0.0001318755
0.000131015
0.0001290396
0.0002323003
0.0002317936
0.0002312819
0.0002307831
0.0002303151
0.0002298967
0.0002295499
0.0002292991
0.0002291765
0.0002292257
0.0001331572
0.0001328645
0.0001325163
0.0001320456
0.0001312925
5.467097e-05
0.0002326725
0.0002321954
0.0002317135
0.0002312438
0.0002308034
0.0002304105
0.0002300857
0.0002298529
0.0002297384
0.0002297744
0.0001334634
0.0001332132
0.0001329407
0.0001326292
0.0001322261
5.559449e-05
5.46929e-05
0.0002330287
0.0002325892
0.0002321437
0.0002317068
0.0002312929
0.0002309178
0.0002306
0.0002303616
0.0002302292
0.0002302324
0.0001337146
0.0001334835
0.0001332473
0.0001329999
0.0001327287
5.596205e-05
5.562057e-05
5.477693e-05
0.0002333689
0.0002329733
0.0002325694
0.0002321678
0.0002317795
0.0002314165
0.000231094
0.0002308321
0.0002306594
0.0002306146
0.0001339215
0.0001337007
0.0001334807
0.0001332636
0.0001330434
5.615139e-05
5.596544e-05
5.565812e-05
5.491436e-05
0.0002336932
0.0002333458
0.0002329864
0.0002326215
0.0002322576
0.0002319023
0.0002315655
0.0002312637
0.000231026
0.0002309101
0.000134084
0.0001338712
0.0001336636
0.000133464
0.0001332715
5.626941e-05
5.613391e-05
5.596308e-05
5.569857e-05
5.508818e-05
0.0002340021
0.0002337038
0.0002333893
0.0002330608
0.0002327201
0.0002323693
0.0002320115
0.0002316538
0.0002313156
0.0002310672
0.0001341865
0.0001339897
0.0001338019
0.0001336243
0.0001334555
5.6359e-05
5.623871e-05
5.610801e-05
5.59524e-05
5.573173e-05
3.607825e-05
0.0001341777
0.0001340541
0.0001339158
0.0001337731
0.0001336323
5.644219e-05
5.632763e-05
5.620787e-05
5.608116e-05
5.593791e-05
3.639314e-05
3.618289e-05
0.0001344048
0.0001342631
0.0001341199
0.0001339786
0.0001338413
5.653485e-05
5.642335e-05
5.630827e-05
5.618902e-05
5.606471e-05
3.650703e-05
3.640582e-05
3.625104e-05
0.0001346403
0.0001344953
0.0001343502
0.0001342077
0.0001340692
5.663451e-05
5.652641e-05
5.641457e-05
5.62995e-05
5.618054e-05
3.659046e-05
3.650769e-05
3.641381e-05
3.629199e-05
0.0001348657
0.0001347235
0.0001345807
0.0001344396
0.0001343011
5.673628e-05
5.663181e-05
5.652362e-05
5.64119e-05
5.629685e-05
3.66688e-05
3.659148e-05
3.650851e-05
3.641911e-05
3.631396e-05
0.0001350793
0.0001349426
0.0001348045
0.0001346669
0.0001345305
5.683745e-05
5.673695e-05
5.663256e-05
5.652463e-05
5.641302e-05
3.674683e-05
3.667167e-05
3.659287e-05
3.65101e-05
3.642179e-05
0.0001297846
0.0001304075
0.0001297883
0.0002311134
0.00023063
0.0002301202
0.0002295861
0.0002290281
0.0002284464
0.000227841
0.0002272213
0.0002266271
0.000226244
0.0001314418
0.0001308469
0.0001293579
0.0002315269
0.0002310281
0.0002305125
0.000229988
0.0002294623
0.0002289433
0.0002284431
0.0002279837
0.0002276244
0.0002275127
0.0001321704
0.0001317085
0.0001309832
0.0001291768
0.0002319246
0.0002314215
0.0002309081
0.0002303975
0.0002299025
0.0002294378
0.0002290214
0.0002286807
0.0002284611
0.0002284545
0.0001327117
0.0001323575
0.0001318858
0.0001311265
0.0001293676
0.0002323064
0.0002318108
0.0002313088
0.0002308163
0.0002303496
0.0002299262
0.0002295669
0.0002292972
0.0002291524
0.0002291825
0.0001331299
0.0001328406
0.0001325021
0.0001320525
0.0001313411
5.473532e-05
0.0002326725
0.0002321954
0.0002317135
0.0002312438
0.0002308034
0.0002304105
0.0002300857
0.0002298529
0.0002297384
0.0002297744
0.0001334634
0.0001332132
0.0001329407
0.0001326292
0.0001322261
5.559449e-05
5.46929e-05
0.0002330233
0.000232574
0.00023212
0.0002316774
0.0002312623
0.0002308919
0.0002305853
0.0002303642
0.0002302524
0.0002302731
0.0001337407
0.0001335103
0.0001332729
0.0001330217
0.0001327426
5.596157e-05
5.560334e-05
5.471459e-05
0.0002333588
0.0002329451
0.0002325255
0.0002321137
0.0002317233
0.0002313692
0.0002310684
0.0002308411
0.0002307107
0.0002307022
0.0001339756
0.0001337565
0.0001335356
0.0001333141
0.0001330849
5.616403e-05
5.596696e-05
5.562894e-05
5.479763e-05
0.000233679
0.000233307
0.0002329266
0.0002325482
0.000232182
0.0002318394
0.0002315343
0.0002312852
0.0002311179
0.000231066
0.0001341736
0.0001339616
0.000133751
0.0001335442
0.0001333401
5.629496e-05
5.615492e-05
5.59702e-05
5.566601e-05
5.493277e-05
0.0002339841
0.0002336576
0.0002333193
0.0002329757
0.0002326327
0.0002322975
0.0002319795
0.0002316936
0.0002314667
0.0002313508
0.0001343313
0.0001341268
0.0001339262
0.0001337326
0.000133545
5.639348e-05
5.627265e-05
5.61377e-05
5.596808e-05
5.570573e-05
3.596942e-05
0.0002342743
0.0002339943
0.0002336985
0.0002333893
0.0002330683
0.0002327376
0.0002324002
0.0002320626
0.0002317429
0.0002315057
0.0001344329
0.000134244
0.0001340624
0.0001338885
0.0001337214
5.6476e-05
5.63625e-05
5.624259e-05
5.61126e-05
5.595774e-05
3.638283e-05
3.608831e-05
0.0001344302
0.0001343105
0.0001341755
0.0001340348
0.0001338935
5.655652e-05
5.644611e-05
5.63319e-05
5.621276e-05
5.608653e-05
3.651642e-05
3.639992e-05
3.61887e-05
0.0001346447
0.0001345089
0.0001343704
0.000134232
0.0001340952
5.664607e-05
5.653864e-05
5.642747e-05
5.631295e-05
5.61941e-05
3.659861e-05
3.651308e-05
3.641013e-05
3.625519e-05
0.000134867
0.0001347285
0.0001345889
0.0001344504
0.0001343137
5.67421e-05
5.663798e-05
5.653016e-05
5.641882e-05
5.630409e-05
3.667357e-05
3.659592e-05
3.651146e-05
3.641715e-05
3.629424e-05
0.0001350796
0.0001349444
0.0001348075
0.000134671
0.0001345354
5.68398e-05
5.673943e-05
5.66352e-05
5.652744e-05
5.641599e-05
3.674885e-05
3.667373e-05
3.659479e-05
3.651137e-05
3.642091e-05
0.0001352812
0.0001351515
0.0001350196
0.0001348872
0.0001347544
5.693674e-05