/*--------------------------------*- C++ -*----------------------------------*\
| =========                 |                                                 |
| \\      /  F ield         | OpenFOAM: The Open Source CFD Toolbox           |
|  \\    /   O peration     | Version:  2306                                  |
|   \\  /    A nd           | Website:  www.openfoam.com                      |
|    \\/     M anipulation  |                                                 |
\*---------------------------------------------------------------------------*/
FoamFile
{
    version     2.0;
    format      ascii;
    arch        "LSB;label=32;scalar=64";
    class       volScalarField;
    location    "1.2/air";
    object      N2;
}
// * * * * * * * * * * * * * * * * * * * * * * * * * * * * * * * * * * * * * //

dimensions      [0 0 0 0 0 0 0];

internalField   nonuniform List<scalar> 
16000
(
0.7702736
0.7702678
0.7713174
0.7703094
0.7702592
0.7712304
0.7703009
0.7734736
0.7714339
0.7703929
0.7702511
0.7711178
0.7702891
0.7733596
0.771316
0.7703764
0.7757895
0.7736221
0.7717381
0.7705517
0.7702463
0.7710222
0.7702783
0.7732038
0.7711716
0.7703567
0.7756729
0.7734736
0.7715767
0.7705165
0.7780869
0.775944
0.7739924
0.7723022
0.7708427
0.7702463
0.7709686
0.7702719
0.7730657
0.7710535
0.7703393
0.7755129
0.7732793
0.7713805
0.7704778
0.7779738
0.7757934
0.7738024
0.7720949
0.7707737
0.7802989
0.778237
0.7763269
0.7746505
0.7731943
0.771373
0.8102511
0.7702511
0.7709686
0.7702719
0.7729862
0.7709887
0.7703295
0.7753703
0.7731114
0.7712229
0.7704483
0.7778186
0.7755954
0.7735571
0.7718369
0.7706945
0.7801914
0.7780912
0.7761371
0.7744219
0.7729452
0.7712606
0.782408
0.7804423
0.778608
0.7770006
0.7756517
0.7744669
0.7722725
0.808864
0.811809
0.8104706
0.7702592
0.7710222
0.7702783
0.7729862
0.7709887
0.7703295
0.7752881
0.7730161
0.7711374
0.7704327
0.7776805
0.7754233
0.7733473
0.7716253
0.7706332
0.7800439
0.7778998
0.7758912
0.7741258
0.7726269
0.7711158
0.782306
0.7803039
0.7784257
0.7767774
0.7753901
0.7741776
0.7721137
0.7844153
0.7825439
0.7807965
0.7792584
0.7780124
0.77704
0.7761847
0.77371
0.8060627
0.8105667
0.8090886
0.812203
0.8120097
0.8109089
0.7702678
0.7711178
0.7702891
0.7730657
0.7710535
0.7703393
0.7752881
0.7730161
0.7711374
0.7704327
0.7776009
0.7753253
0.7732291
0.7715095
0.7706004
0.7799127
0.7777337
0.7756796
0.7738725
0.77236
0.7709941
0.7821662
0.7801222
0.7781898
0.7764873
0.7750484
0.7738049
0.771897
0.7843186
0.7824126
0.7806238
0.779046
0.777764
0.7767495
0.7758432
0.7734703
0.7863286
0.7845443
0.7828796
0.7814166
0.7802301
0.779394
0.77885
0.7784229
0.7759424
0.8017454
0.8080632
0.806305
0.8110503
0.8107712
0.8095357
0.8123765
0.8123879
0.8124106
0.8115647
0.7702736
0.7712304
0.7703009
0.7732038
0.7711716
0.7703567
0.7753703
0.7731114
0.7712229
0.7704483
0.7776009
0.7753253
0.7732291
0.7715095
0.7706004
0.779837
0.777639
0.7755598
0.7737298
0.7722118
0.7709263
0.7820419
0.7799645
0.777987
0.7762376
0.7747544
0.7734887
0.771709
0.7841861
0.7822405
0.7804004
0.7787706
0.7774382
0.7763661
0.7753992
0.7731425
0.7862366
0.7844198
0.7827159
0.7812161
0.7799963
0.7791259
0.7785258
0.7779963
0.7754928
0.7881563
0.7864512
0.784863
0.783467
0.7823417
0.7815494
0.7811648
0.7811145
0.7812767
0.7794447
0.7955099
0.8042219
0.802055
0.8087283
0.8082818
0.8067815
0.8113005
0.8112385
0.8111786
0.8102022
0.812574
0.8125486
0.8127571
0.8130104
0.8124363
0.7713174
0.7703094
0.7733596
0.771316
0.7703764
0.7755129
0.7732793
0.7713805
0.7704778
0.7776805
0.7754233
0.7733473
0.7716253
0.7706332
0.779837
0.777639
0.7755598
0.7737298
0.7722118
0.7709263
0.7819702
0.7798747
0.7778723
0.7760962
0.7745883
0.7733116
0.7716025
0.7840682
0.7820911
0.7802085
0.7785339
0.7771562
0.7760342
0.7750208
0.7728624
0.7861105
0.7842566
0.7825044
0.7809562
0.7796904
0.77877
0.7780946
0.7774479
0.7749496
0.7880686
0.7863327
0.7847077
0.7832771
0.7821216
0.7812992
0.780872
0.7807252
0.7806556
0.7783632
0.7899067
0.7882733
0.7867541
0.7854206
0.7843429
0.7835949
0.7832306
0.7833422
0.7838893
0.7849302
0.7853613
0.7987178
0.7961481
0.8051674
0.8044958
0.8026315
0.8091335
0.808929
0.8087122
0.8074809
0.8115625
0.8114757
0.8116134
0.8117863
0.8110846
0.8128972
0.8127357
0.8128925
0.8133097
0.8138082
0.8136941
0.7734736
0.7714339
0.7703929
0.7756729
0.7734736
0.7715767
0.7705165
0.7778186
0.7755954
0.7735571
0.7718369
0.7706945
0.7799127
0.7777337
0.7756796
0.7738725
0.77236
0.7709941
0.7819702
0.7798747
0.7778723
0.7760962
0.7745883
0.7733116
0.7716025
0.7840002
0.7820061
0.7800999
0.7784
0.776996
0.7758462
0.7748083
0.7727054
0.7859984
0.784115
0.7823228
0.7807329
0.7794261
0.7784599
0.7777207
0.7769863
0.7745222
0.7879485
0.7861775
0.7845071
0.7830313
0.7818339
0.7809683
0.7804799
0.7802151
0.7799203
0.7773963
0.7898229
0.7881603
0.7866063
0.7852404
0.7841346
0.7833601
0.7829588
0.7829925
0.7833267
0.7837591
0.7822258
0.7915868
0.7900185
0.7885621
0.7872843
0.7862523
0.7855293
0.7851887
0.7852879
0.7859692
0.7873274
0.7898972
0.7883147
0.8000698
0.799267
0.7970993
0.8058115
0.8054184
0.8050077
0.8034305
0.8095254
0.8093201
0.8093242
0.8093451
0.8083927
0.8119419
0.8117269
0.8118246
0.8121726
0.8125915
0.8123534
0.8133156
0.8130499
0.8130587
0.8134073
0.8140447
0.8149599
0.8139534
0.7757895
0.7736221
0.7717381
0.7705517
0.7779738
0.7757934
0.7738024
0.7720949
0.7707737
0.7800439
0.7778998
0.7758912
0.7741258
0.7726269
0.7711158
0.7820419
0.7799645
0.777987
0.7762376
0.7747544
0.7734887
0.771709
0.7840002
0.7820061
0.7800999
0.7784
0.776996
0.7758462
0.7748083
0.7727054
0.7859338
0.7840344
0.7822202
0.7806067
0.7792763
0.7782833
0.777509
0.7767294
0.7742935
0.7878416
0.7860429
0.784335
0.7828203
0.7815856
0.7806806
0.7801377
0.7797798
0.7793335
0.7767396
0.789708
0.7880123
0.7864155
0.7850073
0.7838627
0.7830498
0.782596
0.7825313
0.7826538
0.7826668
0.7805685
0.7915064
0.7899105
0.7884211
0.7871128
0.7860545
0.785307
0.7849338
0.7849628
0.7854569
0.7862526
0.7869864
0.7846238
0.7932026
0.7916938
0.7902945
0.7890678
0.7880754
0.7873791
0.787038
0.7871352
0.7877615
0.7891874
0.7919121
0.7923931
0.7906123
0.8010584
0.8005739
0.8000911
0.7982059
0.8064032
0.8060446
0.8058875
0.8057202
0.8044184
0.8100182
0.8097005
0.8096876
0.8099054
0.8101717
0.8096862
0.8124093
0.8120972
0.8120546
0.8123453
0.8129137
0.8137502
0.8126149
0.813819
0.8134606
0.813355
0.8135422
0.8140922
0.8151061
0.8151973
0.814215
0.7780869
0.775944
0.7739924
0.7723022
0.7708427
0.7801914
0.7780912
0.7761371
0.7744219
0.7729452
0.7712606
0.7821662
0.7801222
0.7781898
0.7764873
0.7750484
0.7738049
0.771897
0.7840682
0.7820911
0.7802085
0.7785339
0.7771562
0.7760342
0.7750208
0.7728624
0.7859338
0.7840344
0.7822202
0.7806067
0.7792763
0.7782833
0.777509
0.7767294
0.7742935
0.78778
0.7859662
0.7842377
0.782701
0.7814449
0.7805171
0.7799428
0.779536
0.7790165
0.7764124
0.7896058
0.7878839
0.7862518
0.7848072
0.7836282
0.7827802
0.7822802
0.7821358
0.7821126
0.7818908
0.7796122
0.7913964
0.7897689
0.7882391
0.7868908
0.7857965
0.7850136
0.7845938
0.7845355
0.784843
0.7852486
0.7853352
0.7826102
0.7931255
0.7915903
0.7901597
0.7889041
0.7878869
0.7871678
0.7867963
0.7868299
0.7872828
0.7881928
0.7892192
0.7890134
0.7867492
0.7947594
0.7933054
0.7919583
0.790778
0.7898226
0.7891476
0.7888124
0.788881
0.7894721
0.7907863
0.7934564
0.7942119
0.794347
0.7924929
0.8019371
0.8015266
0.8013294
0.8010574
0.7993925
0.80707
0.8066217
0.8064802
0.8065404
0.8066054
0.8057588
0.8105842
0.8101834
0.8100453
0.8102281
0.8106647
0.8113463
0.8099527
0.8129562
0.8125566
0.8124066
0.8125434
0.8130355
0.8139804
0.8139891
0.8128787
0.8143812
0.813957
0.8137501
0.8138118
0.8141856
0.8150812
0.8153249
0.8154368
0.8144787
0.7802989
0.778237
0.7763269
0.7746505
0.7731943
0.771373
0.782306
0.7803039
0.7784257
0.7767774
0.7753901
0.7741776
0.7721137
0.7841861
0.7822405
0.7804004
0.7787706
0.7774382
0.7763661
0.7753992
0.7731425
0.7859984
0.784115
0.7823228
0.7807329
0.7794261
0.7784599
0.7777207
0.7769863
0.7745222
0.78778
0.7859662
0.7842377
0.782701
0.7814449
0.7805171
0.7799428
0.779536
0.7790165
0.7764124
0.7895469
0.7878108
0.7861593
0.7846941
0.7834954
0.7826269
0.7821008
0.7819134
0.781819
0.7814938
0.7791653
0.7912985
0.7896462
0.788083
0.7867005
0.785574
0.784759
0.7842979
0.7841702
0.7843484
0.7845334
0.7843308
0.7814771
0.7930198
0.7914547
0.7899856
0.7886922
0.787641
0.786889
0.7864744
0.7864285
0.7867107
0.7872653
0.7876912
0.7870707
0.7845031
0.7946852
0.793206
0.7918291
0.7906212
0.7896425
0.7889459
0.7885824
0.788591
0.789021
0.7898529
0.7909487
0.7910808
0.7908192
0.7886113
0.7962617
0.7948582
0.7935593
0.7924216
0.7914998
0.7908461
0.7905123
0.7905642
0.791095
0.7923274
0.7947951
0.7955961
0.7960077
0.7959587
0.794081
0.8028534
0.8023759
0.8022278
0.8022138
0.8021021
0.8008219
0.8077872
0.8072761
0.8070301
0.8070865
0.8073512
0.8078113
0.8060345
0.8112189
0.8107408
0.8105089
0.8105524
0.8109343
0.8117438
0.8115883
0.8102213
0.8135574
0.8130965
0.8128501
0.8128683
0.8131915
0.8140288
0.8142003
0.81423
0.8131446
0.8149893
0.814513
0.8142327
0.8141836
0.8144197
0.8151146
0.815285
0.8155455
0.8156783
0.8147447
0.782408
0.7804423
0.778608
0.7770006
0.7756517
0.7744669
0.7722725
0.7843186
0.7824126
0.7806238
0.779046
0.777764
0.7767495
0.7758432
0.7734703
0.7861105
0.7842566
0.7825044
0.7809562
0.7796904
0.77877
0.7780946
0.7774479
0.7749496
0.7878416
0.7860429
0.784335
0.7828203
0.7815856
0.7806806
0.7801377
0.7797798
0.7793335
0.7767396
0.7895469
0.7878108
0.7861593
0.7846941
0.7834954
0.7826269
0.7821008
0.7819134
0.781819
0.7814938
0.7791653
0.7912421
0.7895764
0.7879948
0.7865929
0.785448
0.7846144
0.7841298
0.7839652
0.7840795
0.7841668
0.7838465
0.7809574
0.7929258
0.7913371
0.7898363
0.7885105
0.7874291
0.7866472
0.7861946
0.7860855
0.7862512
0.7866052
0.7867606
0.7859277
0.783235
0.7945836
0.7930758
0.7916622
0.7904185
0.7894076
0.7886799
0.7882761
0.7882104
0.788482
0.7889843
0.7895282
0.7892793
0.7886841
0.7862322
0.7961902
0.7947626
0.7934351
0.7922713
0.7913272
0.7906532
0.7902925
0.7902878
0.7906663
0.791446
0.7924386
0.7926775
0.7927354
0.7924098
0.7902285
0.7977134
0.7963568
0.7951024
0.7940042
0.7931135
0.792479
0.7921496
0.7921815
0.7926695
0.7938019
0.7961107
0.7968035
0.7972649
0.7974844
0.7973321
0.7956502
0.8037871
0.8032671
0.8030331
0.8030484
0.8031685
0.8033708
0.8011145
0.8085566
0.8079825
0.8076612
0.8075984
0.8078395
0.8084557
0.8080593
0.8063118
0.8118987
0.811368
0.8110494
0.8109876
0.8112151
0.8119381
0.8119661
0.8118322
0.810492
0.8142009
0.8136913
0.8133759
0.8132881
0.8134804
0.8141243
0.8142336
0.814422
0.8144728
0.8134127
0.8156294
0.8151154
0.8147762
0.8146455
0.8147604
0.8152974
0.8153061
0.8154907
0.815768
0.8159218
0.8150692
0.7844153
0.7825439
0.7807965
0.7792584
0.7780124
0.77704
0.7761847
0.77371
0.7862366
0.7844198
0.7827159
0.7812161
0.7799963
0.7791259
0.7785258
0.7779963
0.7754928
0.7879485
0.7861775
0.7845071
0.7830313
0.7818339
0.7809683
0.7804799
0.7802151
0.7799203
0.7773963
0.7896058
0.7878839
0.7862518
0.7848072
0.7836282
0.7827802
0.7822802
0.7821358
0.7821126
0.7818908
0.7796122
0.7912421
0.7895764
0.7879948
0.7865929
0.785448
0.7846144
0.7841298
0.7839652
0.7840795
0.7841668
0.7838465
0.7809574
0.7928716
0.7912702
0.789752
0.7884079
0.7873092
0.7865098
0.7860359
0.7858929
0.786002
0.7862667
0.7863113
0.7853881
0.7826573
0.7944932
0.7929628
0.7915191
0.7902447
0.7892052
0.7884494
0.78801
0.7878855
0.7880491
0.7883674
0.7886643
0.788218
0.7874327
0.7848745
0.7960923
0.7946374
0.7932749
0.7920769
0.7911022
0.7903987
0.7899998
0.7899252
0.7901545
0.7906257
0.7911049
0.7909998
0.7907522
0.7901614
0.7877912
0.7976444
0.7962647
0.794983
0.7938597
0.7929479
0.7922939
0.791939
0.7919171
0.7922608
0.7929647
0.7938847
0.7940601
0.7942127
0.7941884
0.7937988
0.7918349
0.799118
0.7978052
0.7965921
0.7955304
0.7946687
0.7940525
0.7937266
0.7937447
0.7941891
0.7952448
0.7973902
0.7980055
0.7983687
0.7986355
0.7987385
0.7987029
0.7959687
0.8047491
0.8041791
0.8038867
0.8038019
0.8039338
0.8043262
0.8036305
0.8014075
0.8093567
0.8087423
0.8083475
0.8081973
0.8083042
0.8088652
0.8086829
0.8083089
0.8065909
0.8126133
0.812041
0.8116617
0.8115034
0.8116131
0.812157
0.8121449
0.8121902
0.812078
0.8107647
0.8148732
0.814329
0.8139581
0.813793
0.8138689
0.8143615
0.8143166
0.8144401
0.8146456
0.8147177
0.8137399
0.8162934
0.8157504
0.8153674
0.8151704
0.8151948
0.8155933
0.8154784
0.8154992
0.815698
0.8159924
0.8162189
0.8154012
0.7863286
0.7845443
0.7828796
0.7814166
0.7802301
0.779394
0.77885
0.7784229
0.7759424
0.7880686
0.7863327
0.7847077
0.7832771
0.7821216
0.7812992
0.780872
0.7807252
0.7806556
0.7783632
0.789708
0.7880123
0.7864155
0.7850073
0.7838627
0.7830498
0.782596
0.7825313
0.7826538
0.7826668
0.7805685
0.7912985
0.7896462
0.788083
0.7867005
0.785574
0.784759
0.7842979
0.7841702
0.7843484
0.7845334
0.7843308
0.7814771
0.7928716
0.7912702
0.789752
0.7884079
0.7873092
0.7865098
0.7860359
0.7858929
0.786002
0.7862667
0.7863113
0.7853881
0.7826573
0.7944411
0.7928986
0.7914383
0.7901465
0.7890906
0.7883185
0.787859
0.7877034
0.7878143
0.7880515
0.7882473
0.7877165
0.7868476
0.7842564
0.7960052
0.7945288
0.7931375
0.7919102
0.7909084
0.7901782
0.7897457
0.7896157
0.7897439
0.7900434
0.7902948
0.7900123
0.7895884
0.7888356
0.7863881
0.79755
0.7961441
0.7948288
0.7936728
0.7927319
0.79205
0.7916587
0.7915703
0.7917729
0.7921858
0.7926247
0.7924838
0.7923636
0.792097
0.791496
0.789399
0.7990514
0.7977163
0.796477
0.7953913
0.7945093
0.7938747
0.7935244
0.7934912
0.7937982
0.794447
0.795277
0.7954139
0.7954991
0.7955593
0.7954527
0.7951863
0.792161
0.8004788
0.7992067
0.7980322
0.7970044
0.7961697
0.7955708
0.7952495
0.7952544
0.7956645
0.7966468
0.7986598
0.799187
0.7994817
0.7996533
0.7997978
0.7999848
0.7989813
0.7962852
0.8057215
0.8051219
0.8047662
0.8046114
0.8046312
0.8050067
0.8045632
0.8038908
0.801701
0.8101805
0.809534
0.8090896
0.8088556
0.8088631
0.8092657
0.8090761
0.8089115
0.8085601
0.8068716
0.8133505
0.8127495
0.8123213
0.8120938
0.8120967
0.8125023
0.812351
0.8123534
0.812416
0.8123257
0.8110973
0.8155668
0.8149961
0.8145844
0.8143563
0.8143459
0.8147049
0.8145431
0.8145105
0.8146483
0.814871
0.8150164
0.8140746
0.8169741
0.8164097
0.8159921
0.8157448
0.815695
0.8159879
0.815765
0.8156608
0.815694
0.8159071
0.8162662
0.8165228
0.8156538
0.7881563
0.7864512
0.784863
0.783467
0.7823417
0.7815494
0.7811648
0.7811145
0.7812767
0.7794447
0.7898229
0.7881603
0.7866063
0.7852404
0.7841346
0.7833601
0.7829588
0.7829925
0.7833267
0.7837591
0.7822258
0.7913964
0.7897689
0.7882391
0.7868908
0.7857965
0.7850136
0.7845938
0.7845355
0.784843
0.7852486
0.7853352
0.7826102
0.7929258
0.7913371
0.7898363
0.7885105
0.7874291
0.7866472
0.7861946
0.7860855
0.7862512
0.7866052
0.7867606
0.7859277
0.783235
0.7944411
0.7928986
0.7914383
0.7901465
0.7890906
0.7883185
0.787859
0.7877034
0.7878143
0.7880515
0.7882473
0.7877165
0.7868476
0.7842564
0.795955
0.794467
0.7930598
0.7918161
0.7907987
0.790053
0.7896016
0.7894422
0.7895214
0.7897452
0.7899043
0.7895459
0.7890437
0.7882177
0.7857488
0.797466
0.7960394
0.7946966
0.7935127
0.792546
0.7918386
0.7914154
0.7912744
0.7913814
0.791633
0.7918593
0.7915567
0.7912791
0.790862
0.7901294
0.7879927
0.7989602
0.7975999
0.7963284
0.7952115
0.7943017
0.7936403
0.7932554
0.7931588
0.7933315
0.7937045
0.7940806
0.7939243
0.793761
0.7936076
0.7933074
0.7928734
0.7897259
0.8004144
0.7991208
0.7979211
0.7968703
0.7960162
0.7953996
0.795055
0.7950108
0.7952897
0.7958841
0.7966471
0.7967268
0.7967705
0.7967604
0.7967292
0.796709
0.795468
0.792485
0.8017983
0.8005646
0.7994259
0.79843
0.7976205
0.7970379
0.7967212
0.7967159
0.7970943
0.7980159
0.7999071
0.8003696
0.8005864
0.8006928
0.8007417
0.8009509
0.8002379
0.7992581
0.7965997
0.8067014
0.8060772
0.8056802
0.8054529
0.8053932
0.8056358
0.8052264
0.8048006
0.8041515
0.8019949
0.8110171
0.8103501
0.8098653
0.8095729
0.8094868
0.8097701
0.8094634
0.8092884
0.8091415
0.8088128
0.8072133
0.8141036
0.8134811
0.8130178
0.8127337
0.8126585
0.81294
0.8126855
0.8125466
0.8125634
0.8126436
0.8126278
0.8114377
0.8162747
0.8156849
0.8152411
0.8149655
0.8148843
0.8151418
0.8148772
0.8147263
0.8147059
0.8148582
0.815146
0.8153219
0.8143293
0.8176664
0.817086
0.816642
0.8163541
0.8162469
0.8164524
0.8161514
0.8159382
0.8158449
0.8158904
0.8161622
0.8165461
0.8167537
0.8158253
0.7899067
0.7882733
0.7867541
0.7854206
0.7843429
0.7835949
0.7832306
0.7833422
0.7838893
0.7849302
0.7853613
0.7915064
0.7899105
0.7884211
0.7871128
0.7860545
0.785307
0.7849338
0.7849628
0.7854569
0.7862526
0.7869864
0.7846238
0.7930198
0.7914547
0.7899856
0.7886922
0.787641
0.786889
0.7864744
0.7864285
0.7867107
0.7872653
0.7876912
0.7870707
0.7845031
0.7944932
0.7929628
0.7915191
0.7902447
0.7892052
0.7884494
0.78801
0.7878855
0.7880491
0.7883674
0.7886643
0.788218
0.7874327
0.7848745
0.795955
0.794467
0.7930598
0.7918161
0.7907987
0.790053
0.7896016
0.7894422
0.7895214
0.7897452
0.7899043
0.7895459
0.7890437
0.7882177
0.7857488
0.7974176
0.7959799
0.7946219
0.7934223
0.7924407
0.7917186
0.7912773
0.7911086
0.7911693
0.7913501
0.7914904
0.7911192
0.7907718
0.7902858
0.7894928
0.7873517
0.798879
0.797499
0.796201
0.7950573
0.7941229
0.7934373
0.7930219
0.7928752
0.7929572
0.7931775
0.7933539
0.7930483
0.792742
0.7924555
0.7920324
0.7914973
0.7883194
0.8003261
0.7990084
0.7977777
0.7966969
0.7958163
0.7951741
0.7947963
0.7946915
0.7948423
0.7951743
0.795507
0.7953124
0.7951279
0.7949251
0.7947258
0.7945504
0.7931535
0.7900513
0.8017359
0.8004815
0.7993186
0.7983005
0.7974724
0.7968729
0.7965338
0.7964815
0.7967341
0.7972852
0.7979843
0.7980264
0.7980126
0.7979592
0.7978551
0.7978895
0.7969641
0.795748
0.7928069
0.8030794
0.8018814
0.8007766
0.7998103
0.7990245
0.7984573
0.7981455
0.7981313
0.7984827
0.7993489
0.8011361
0.8015392
0.8017009
0.8017341
0.8017185
0.8018203
0.801185
0.8004894
0.7995332
0.7969122
0.8076802
0.8070416
0.8066099
0.8063333
0.8061936
0.8063401
0.8058414
0.8054464
0.8050384
0.8044127
0.8023511
0.8118615
0.8111797
0.8106671
0.8103266
0.8101734
0.8103464
0.8099567
0.8096624
0.809502
0.8093729
0.8091204
0.8075632
0.8148664
0.8142291
0.8137384
0.8134124
0.8132728
0.8134611
0.8131137
0.8128701
0.8127437
0.8127751
0.8129211
0.8129368
0.8116967
0.8169922
0.8163884
0.8159203
0.8156066
0.8154709
0.8156442
0.8153058
0.8150509
0.8149109
0.814903
0.8151143
0.8154271
0.8155541
0.8145021
0.8183664
0.8177743
0.8173096
0.8169898
0.8168358
0.816972
0.8166085
0.8163163
0.8161128
0.8160304
0.8161301
0.8164229
0.8167587
0.8169103
0.8159129
0.7955099
0.7915868
0.7900185
0.7885621
0.7872843
0.7862523
0.7855293
0.7851887
0.7852879
0.7859692
0.7873274
0.7898972
0.7883147
0.7931255
0.7915903
0.7901597
0.7889041
0.7878869
0.7871678
0.7867963
0.7868299
0.7872828
0.7881928
0.7892192
0.7890134
0.7867492
0.7945836
0.7930758
0.7916622
0.7904185
0.7894076
0.7886799
0.7882761
0.7882104
0.788482
0.7889843
0.7895282
0.7892793
0.7886841
0.7862322
0.7960052
0.7945288
0.7931375
0.7919102
0.7909084
0.7901782
0.7897457
0.7896157
0.7897439
0.7900434
0.7902948
0.7900123
0.7895884
0.7888356
0.7863881
0.7974176
0.7959799
0.7946219
0.7934223
0.7924407
0.7917186
0.7912773
0.7911086
0.7911693
0.7913501
0.7914904
0.7911192
0.7907718
0.7902858
0.7894928
0.7873517
0.7988322
0.7974416
0.796129
0.7949703
0.7940217
0.793322
0.7928894
0.7927163
0.7927543
0.7929078
0.7930036
0.7926348
0.7922655
0.7919181
0.7914377
0.790856
0.7876783
0.8002476
0.7989109
0.7976548
0.7965484
0.7956441
0.7949787
0.7945718
0.7944192
0.7944834
0.7946704
0.7948144
0.7944805
0.7941648
0.793842
0.7935352
0.7932636
0.7917757
0.7886449
0.8016504
0.8003727
0.7991801
0.7981332
0.7972796
0.7966555
0.7962847
0.7961742
0.7963043
0.7966048
0.7968946
0.7966787
0.7964528
0.7962245
0.7959705
0.7958719
0.7948031
0.7934323
0.7903751
0.8030189
0.8018009
0.8006727
0.7996851
0.7988815
0.7982981
0.7979647
0.7979053
0.7981362
0.7986473
0.7992947
0.7993008
0.7992495
0.7991389
0.7989905
0.7989395
0.798125
0.7972175
0.7960261
0.7931268
0.8043239
0.8031599
0.8020866
0.8011483
0.8003847
0.7998322
0.7995252
0.7995035
0.7998309
0.8006488
0.8023417
0.8026979
0.8028098
0.8027924
0.8027058
0.8027345
0.8020392
0.8014177
0.8007393
0.7998066
0.797288
0.8086549
0.8080062
0.8075511
0.807233
0.8070377
0.8070906
0.8065339
0.8060475
0.8056669
0.8052767
0.8047293
0.8027158
0.8127083
0.8120176
0.8114836
0.8111083
0.8108996
0.8109913
0.8105233
0.8101444
0.8098626
0.8097169
0.8096546
0.8094351
0.8078294
0.8156348
0.8149871
0.8144763
0.8141168
0.8139283
0.8140389
0.8136264
0.8132888
0.8130562
0.8129423
0.8130332
0.8132048
0.8131717
0.8118726
0.8177157
0.8171018
0.8166149
0.8162716
0.8160914
0.8161983
0.8158009
0.8154713
0.8152261
0.8150971
0.8151435
0.815376
0.8156407
0.8157116
0.8145905
0.8190713
0.8184706
0.8179898
0.8176444
0.8174528
0.8175313
0.8171214
0.816766
0.8164826
0.8162889
0.8162568
0.8163749
0.8166209
0.8169028
0.8169903
0.8017454
0.7987178
0.7961481
0.7932026
0.7916938
0.7902945
0.7890678
0.7880754
0.7873791
0.787038
0.7871352
0.7877615
0.7891874
0.7919121
0.7923931
0.7906123
0.7946852
0.793206
0.7918291
0.7906212
0.7896425
0.7889459
0.7885824
0.788591
0.789021
0.7898529
0.7909487
0.7910808
0.7908192
0.7886113
0.7960923
0.7946374
0.7932749
0.7920769
0.7911022
0.7903987
0.7899998
0.7899252
0.7901545
0.7906257
0.7911049
0.7909998
0.7907522
0.7901614
0.7877912
0.797466
0.7960394
0.7946966
0.7935127
0.792546
0.7918386
0.7914154
0.7912744
0.7913814
0.791633
0.7918593
0.7915567
0.7912791
0.790862
0.7901294
0.7879927
0.7988322
0.7974416
0.796129
0.7949703
0.7940217
0.793322
0.7928894
0.7927163
0.7927543
0.7929078
0.7930036
0.7926348
0.7922655
0.7919181
0.7914377
0.790856
0.7876783
0.8002024
0.7988554
0.7975853
0.7964645
0.7955466
0.7948678
0.7944445
0.7942666
0.794289
0.7944126
0.7944805
0.7940879
0.7937144
0.793337
0.7929801
0.7926632
0.7911336
0.7880038
0.8015745
0.8002784
0.7990613
0.7979898
0.7971135
0.7964672
0.7960684
0.7959122
0.7959597
0.7961219
0.7962326
0.795886
0.7955382
0.7952006
0.7948508
0.7946693
0.7935142
0.7920531
0.7889693
0.802936
0.8016956
0.8005387
0.7995234
0.7986952
0.7980882
0.7977243
0.7976092
0.7977226
0.7979941
0.7982509
0.7980129
0.7977634
0.7974916
0.7972089
0.7970408
0.7961049
0.7950545
0.7937097
0.7906974
0.8042652
0.8030819
0.8019861
0.8010272
0.8002465
0.7996783
0.7993506
0.7992854
0.799497
0.799974
0.8005746
0.8005545
0.800468
0.8003206
0.8001157
0.8000114
0.7991596
0.798359
0.7974691
0.7963025
0.7935113
0.8055345
0.804402
0.8033588
0.8024466
0.8017041
0.8011654
0.8008633
0.8008351
0.8011411
0.8019154
0.8035246
0.8038395
0.8039135
0.8038513
0.8037165
0.8036679
0.8029408
0.8022568
0.8016488
0.8009877
0.8001355
0.7976727
0.809622
0.8089681
0.8084947
0.8081471
0.807905
0.8078907
0.8072742
0.8067281
0.8062538
0.8058877
0.8055655
0.8050532
0.8029935
0.8135545
0.8128586
0.8123095
0.8119066
0.8116565
0.81168
0.8111595
0.8107012
0.8103332
0.8100641
0.8099785
0.8099427
0.8096745
0.8080103
0.8164054
0.8157511
0.815225
0.8148399
0.8146115
0.8146614
0.8141968
0.8137931
0.8134652
0.8132437
0.8131845
0.8132971
0.8134204
0.813331
0.8119625
0.8184424
0.8178215
0.8173202
0.816953
0.8167374
0.816789
0.8163482
0.8159588
0.815638
0.8154027
0.8153242
0.8153892
0.8155747
0.8157854
0.815792
0.8197787
0.819172
0.8186786
0.8183126
0.81809
0.8181211
0.8176747
0.8172722
0.8169248
0.8166502
0.8165037
0.8164881
0.8165607
0.8167549
0.8169763
0.8060627
0.8042219
0.802055
0.8000698
0.799267
0.7970993
0.7947594
0.7933054
0.7919583
0.790778
0.7898226
0.7891476
0.7888124
0.788881
0.7894721
0.7907863
0.7934564
0.7942119
0.794347
0.7924929
0.7961902
0.7947626
0.7934351
0.7922713
0.7913272
0.7906532
0.7902925
0.7902878
0.7906663
0.791446
0.7924386
0.7926775
0.7927354
0.7924098
0.7902285
0.79755
0.7961441
0.7948288
0.7936728
0.7927319
0.79205
0.7916587
0.7915703
0.7917729
0.7921858
0.7926247
0.7924838
0.7923636
0.792097
0.791496
0.789399
0.798879
0.797499
0.796201
0.7950573
0.7941229
0.7934373
0.7930219
0.7928752
0.7929572
0.7931775
0.7933539
0.7930483
0.792742
0.7924555
0.7920324
0.7914973
0.7883194
0.8002024
0.7988554
0.7975853
0.7964645
0.7955466
0.7948678
0.7944445
0.7942666
0.794289
0.7944126
0.7944805
0.7940879
0.7937144
0.793337
0.7929801
0.7926632
0.7911336
0.7880038
0.8015307
0.8002248
0.7989942
0.7979088
0.7970195
0.7963604
0.7959459
0.7957655
0.7957729
0.7958748
0.7959135
0.7955118
0.7951106
0.7947233
0.7943288
0.7941083
0.7929128
0.7914104
0.7883285
0.8028624
0.8016042
0.8004239
0.7993848
0.7985349
0.7979065
0.7975158
0.7973568
0.797391
0.7975303
0.7976166
0.7972552
0.7968919
0.7965193
0.7961503
0.7959093
0.7949001
0.7937638
0.7923295
0.7892926
0.8041848
0.8029798
0.8018563
0.8008707
0.8000663
0.7994756
0.7991185
0.7989997
0.7990984
0.7993456
0.7995726
0.7993209
0.7990479
0.7987512
0.7984239
0.7982162
0.7972583
0.7963367
0.7953046
0.7939857
0.7910855
0.8054775
0.8043263
0.8032613
0.8023293
0.8015702
0.8010165
0.8006944
0.8006243
0.8008188
0.8012654
0.8018258
0.8017827
0.8016711
0.80149
0.8012494
0.8010821
0.8002186
0.7993782
0.7985913
0.7977191
0.7966348
0.793905
0.8067124
0.8056103
0.804595
0.8037078
0.8029849
0.8024594
0.8021621
0.8021284
0.8024151
0.8031502
0.8046835
0.8049638
0.8050051
0.8049098
0.8047328
0.8046311
0.8038632
0.8031457
0.802473
0.8018786
0.8012864
0.800472
0.7979655
0.8105794
0.8099233
0.8094373
0.809066
0.8087898
0.8087186
0.8080654
0.8074581
0.8069226
0.8064605
0.8061553
0.8058608
0.8052996
0.8031821
0.8143975
0.8136992
0.8131394
0.8127159
0.8124322
0.8124031
0.8118405
0.8113287
0.8108802
0.8105232
0.8103093
0.810246
0.8101616
0.8098368
0.8081028
0.8171761
0.8165177
0.8159803
0.8155749
0.8153152
0.8153146
0.8148125
0.8143559
0.813961
0.8136431
0.8134724
0.813432
0.8134974
0.8135665
0.8134124
0.8191702
0.8185447
0.8180322
0.8176461
0.8174014
0.8174077
0.8169328
0.8164994
0.8161181
0.8158062
0.8156182
0.8155562
0.8155757
0.8157093
0.8158592
0.8204869
0.8198761
0.819373
0.8189902
0.8187421
0.8187334
0.8182589
0.8178192
0.8174242
0.8170849
0.8168548
0.8167231
0.8166636
0.8166865
0.8168232
0.808864
0.8080632
0.806305
0.8051674
0.8044958
0.8026315
0.8010584
0.8005739
0.8000911
0.7982059
0.7962617
0.7948582
0.7935593
0.7924216
0.7914998
0.7908461
0.7905123
0.7905642
0.791095
0.7923274
0.7947951
0.7955961
0.7960077
0.7959587
0.794081
0.7976444
0.7962647
0.794983
0.7938597
0.7929479
0.7922939
0.791939
0.7919171
0.7922608
0.7929647
0.7938847
0.7940601
0.7942127
0.7941884
0.7937988
0.7918349
0.7989602
0.7975999
0.7963284
0.7952115
0.7943017
0.7936403
0.7932554
0.7931588
0.7933315
0.7937045
0.7940806
0.7939243
0.793761
0.7936076
0.7933074
0.7928734
0.7897259
0.8002476
0.7989109
0.7976548
0.7965484
0.7956441
0.7949787
0.7945718
0.7944192
0.7944834
0.7946704
0.7948144
0.7944805
0.7941648
0.793842
0.7935352
0.7932636
0.7917757
0.7886449
0.8015307
0.8002248
0.7989942
0.7979088
0.7970195
0.7963604
0.7959459
0.7957655
0.7957729
0.7958748
0.7959135
0.7955118
0.7951106
0.7947233
0.7943288
0.7941083
0.7929128
0.7914104
0.7883285
0.8028199
0.8015523
0.8003589
0.7993066
0.7984441
0.7978034
0.7973976
0.7972154
0.7972113
0.797293
0.7973109
0.7968976
0.7964843
0.7960659
0.7956568
0.7953815
0.794338
0.7931615
0.7916862
0.7886522
0.8041133
0.8028912
0.801745
0.8007366
0.7999113
0.7993
0.7989171
0.7987561
0.7987788
0.7988995
0.7989637
0.798595
0.798215
0.7978247
0.7974184
0.7971462
0.7961247
0.79513
0.7940124
0.7926048
0.7896824
0.8053995
0.8042272
0.8031355
0.8021777
0.8013958
0.8008203
0.80047
0.8003482
0.8004341
0.80066
0.8008622
0.8005986
0.800311
0.7999903
0.7996375
0.7993771
0.7984209
0.7974747
0.7965672
0.7955533
0.794318
0.7914829
0.806657
0.8055369
0.8045004
0.803594
0.8028551
0.8023152
0.8019987
0.8019245
0.8021037
0.8025231
0.8030477
0.8029865
0.8028534
0.8026487
0.8023759
0.802168
0.8012783
0.8004244
0.7995952
0.7988221
0.7980196
0.7969749
0.7942047
0.8078605
0.8067861
0.8057978
0.8049336
0.8042296
0.8037165
0.8034241
0.8033854
0.8036549
0.8043542
0.8058185
0.8060687
0.8060836
0.8059603
0.805753
0.8056051
0.8048168
0.8040572
0.8033494
0.8026878
0.8021548
0.8015918
0.8007279
0.7981645
0.8115258
0.8108698
0.8103747
0.809986
0.8096821
0.809568
0.8088852
0.8082403
0.8076424
0.8071174
0.8067111
0.8064289
0.8060852
0.8054668
0.8032786
0.8152356
0.8145372
0.8139699
0.8135304
0.8132208
0.813148
0.8125567
0.812002
0.811499
0.8110603
0.8107546
0.8105599
0.8104491
0.81031
0.8099198
0.817945
0.8172846
0.816739
0.8163176
0.8160323
0.8159906
0.8154594
0.8149647
0.8145162
0.8141303
0.8138599
0.8137059
0.8136199
0.8136331
0.813641
0.8198976
0.8192691
0.8187483
0.8183468
0.8180782
0.8180466
0.8175459
0.8170778
0.8166518
0.8162786
0.8160113
0.8158383
0.8157323
0.815702
0.8157779
0.8211945
0.8205813
0.8200706
0.8196742
0.8194048
0.8193623
0.818866
0.8183979
0.817965
0.8175774
0.8172802
0.8170637
0.8168896
0.8167823
0.8167506
0.8102511
0.8105667
0.8090886
0.8087283
0.8082818
0.8067815
0.8058115
0.8054184
0.8050077
0.8034305
0.8019371
0.8015266
0.8013294
0.8010574
0.7993925
0.7977134
0.7963568
0.7951024
0.7940042
0.7931135
0.792479
0.7921496
0.7921815
0.7926695
0.7938019
0.7961107
0.7968035
0.7972649
0.7974844
0.7973321
0.7956502
0.7990514
0.7977163
0.796477
0.7953913
0.7945093
0.7938747
0.7935244
0.7934912
0.7937982
0.794447
0.795277
0.7954139
0.7954991
0.7955593
0.7954527
0.7951863
0.792161
0.8003261
0.7990084
0.7977777
0.7966969
0.7958163
0.7951741
0.7947963
0.7946915
0.7948423
0.7951743
0.795507
0.7953124
0.7951279
0.7949251
0.7947258
0.7945504
0.7931535
0.7900513
0.8015745
0.8002784
0.7990613
0.7979898
0.7971135
0.7964672
0.7960684
0.7959122
0.7959597
0.7961219
0.7962326
0.795886
0.7955382
0.7952006
0.7948508
0.7946693
0.7935142
0.7920531
0.7889693
0.8028199
0.8015523
0.8003589
0.7993066
0.7984441
0.7978034
0.7973976
0.7972154
0.7972113
0.797293
0.7973109
0.7968976
0.7964843
0.7960659
0.7956568
0.7953815
0.794338
0.7931615
0.7916862
0.7886522
0.8040721
0.8028409
0.8016822
0.8006609
0.7998236
0.7992004
0.798803
0.7986197
0.7986056
0.7986712
0.7986701
0.7982523
0.7978255
0.7973926
0.7969496
0.7966471
0.7955958
0.7945669
0.7934093
0.7919612
0.7890428
0.8053301
0.8041413
0.8030276
0.8020478
0.8012458
0.8006504
0.8002753