/*--------------------------------*- C++ -*----------------------------------*\
| =========                 |                                                 |
| \\      /  F ield         | OpenFOAM: The Open Source CFD Toolbox           |
|  \\    /   O peration     | Version:  2306                                  |
|   \\  /    A nd           | Website:  www.openfoam.com                      |
|    \\/     M anipulation  |                                                 |
\*---------------------------------------------------------------------------*/
FoamFile
{
    version     2.0;
    format      ascii;
    arch        "LSB;label=32;scalar=64";
    class       volScalarField;
    location    "1.2/air";
    object      nernst;
}
// * * * * * * * * * * * * * * * * * * * * * * * * * * * * * * * * * * * * * //

dimensions      [1 2 -3 0 0 -1 0];

internalField   nonuniform List<scalar> 
16000
(
-0.7008936
-0.6927643
-0.7105208
-0.692631
-0.6883023
-0.7084309
-0.6729977
-0.7131228
-0.7084205
-0.6880594
-0.6857819
-0.7066235
-0.6608747
-0.7122452
-0.7022739
-0.6606909
-0.7153067
-0.7123077
-0.7066191
-0.6854142
-0.6846157
-0.705295
-0.6536499
-0.7114529
-0.6968949
-0.6425503
-0.7148786
-0.7097511
-0.6968507
-0.6531592
-0.7172629
-0.7149668
-0.7115973
-0.7053035
-0.6840905
-0.6846157
-0.7045912
-0.6502425
-0.7108453
-0.6929148
-0.6312502
-0.7144978
-0.7074145
-0.6881584
-0.6308253
-0.7170198
-0.7137702
-0.7074879
-0.6927743
-0.6492663
-0.7190523
-0.7171131
-0.7146935
-0.7110965
-0.7046234
-0.683885
-0.7152534
-0.6857819
-0.7045912
-0.6502425
-0.7105144
-0.6907986
-0.6257841
-0.7142071
-0.7056088
-0.6816521
-0.6164921
-0.7168095
-0.7126862
-0.7036744
-0.6814837
-0.6245956
-0.7188913
-0.7164723
-0.7128018
-0.705766
-0.6905095
-0.6485788
-0.7207043
-0.7189814
-0.717015
-0.7145424
-0.7109054
-0.7046776
-0.6847947
-0.7150204
-0.7172907
-0.7164709
-0.6883023
-0.705295
-0.6536499
-0.7105144
-0.6907986
-0.6257841
-0.714049
-0.7046214
-0.6781727
-0.6094356
-0.7166519
-0.7118509
-0.7006944
-0.6729454
-0.6084996
-0.7187556
-0.7159052
-0.7110582
-0.7007598
-0.6776997
-0.6234452
-0.7205812
-0.7185822
-0.7160316
-0.7121214
-0.704887
-0.6903499
-0.6510813
-0.7222398
-0.7206655
-0.7189547
-0.717003
-0.7145648
-0.7110948
-0.7055047
-0.6870043
-0.7145449
-0.7171163
-0.716216
-0.7191577
-0.7184105
-0.7177258
-0.6927643
-0.7066235
-0.6608747
-0.7108453
-0.6929148
-0.6312502
-0.714049
-0.7046214
-0.6781727
-0.6094356
-0.7165671
-0.7113939
-0.6990552
-0.6683529
-0.6004975
-0.7186559
-0.7154767
-0.709697
-0.6968113
-0.6679512
-0.6069852
-0.7204792
-0.718238
-0.7151448
-0.7098583
-0.6991909
-0.6773155
-0.6273774
-0.7221362
-0.720374
-0.7183623
-0.7157777
-0.7118756
-0.705059
-0.6923869
-0.6571529
-0.7236734
-0.7222143
-0.7206665
-0.7189967
-0.7171056
-0.7147985
-0.7116935
-0.707089
-0.6910396
-0.7137801
-0.7167702
-0.7156813
-0.7190042
-0.7182366
-0.7174533
-0.7208577
-0.7201472
-0.7195582
-0.7190217
-0.7008936
-0.7084309
-0.6729977
-0.7114529
-0.6968949
-0.6425503
-0.7142071
-0.7056088
-0.6816521
-0.6164921
-0.7165671
-0.7113939
-0.6990552
-0.6683529
-0.6004975
-0.7186029
-0.7152452
-0.7089466
-0.6946276
-0.6626873
-0.5987832
-0.7204055
-0.717984
-0.7144656
-0.7080715
-0.6946699
-0.6673766
-0.6119862
-0.7220512
-0.7201282
-0.717842
-0.7146558
-0.7093352
-0.6993206
-0.6804705
-0.6367833
-0.7235813
-0.7219756
-0.7202459
-0.7182821
-0.715785
-0.7121707
-0.7063479
-0.6965095
-0.6677813
-0.7250166
-0.7236535
-0.7222258
-0.7207272
-0.719126
-0.7173443
-0.7152634
-0.7126963
-0.7094018
-0.6983817
-0.7124234
-0.7162577
-0.7147715
-0.7187017
-0.7178935
-0.7168753
-0.7207169
-0.7200003
-0.7193845
-0.7187374
-0.7224286
-0.7217254
-0.7211603
-0.7207343
-0.7203599
-0.7105208
-0.692631
-0.7122452
-0.7022739
-0.6606909
-0.7144978
-0.7074145
-0.6881584
-0.6308253
-0.7166519
-0.7118509
-0.7006944
-0.6729454
-0.6084996
-0.7186029
-0.7152452
-0.7089466
-0.6946276
-0.6626873
-0.5987832
-0.7203666
-0.7178489
-0.7140956
-0.7070799
-0.6921605
-0.6620034
-0.6043539
-0.7219901
-0.7199507
-0.7174532
-0.7137855
-0.7073123
-0.6947506
-0.6713998
-0.6238173
-0.7235057
-0.7217769
-0.7198853
-0.7176447
-0.7145596
-0.7096653
-0.7012426
-0.6869187
-0.652624
-0.7249323
-0.7234438
-0.7218872
-0.720234
-0.7183849
-0.7161088
-0.7130487
-0.7086802
-0.7024425
-0.6852825
-0.7262786
-0.7249994
-0.7236684
-0.7222914
-0.7208614
-0.7193569
-0.7177344
-0.715971
-0.714114
-0.7125471
-0.707182
-0.715614
-0.7130972
-0.7182638
-0.7173958
-0.7158835
-0.7204401
-0.7197164
-0.7190429
-0.7181338
-0.7222968
-0.7215928
-0.7210187
-0.7205606
-0.7200696
-0.723901
-0.7231907
-0.7226142
-0.7221966
-0.7219383
-0.7211861
-0.7131228
-0.7084205
-0.6880594
-0.7148786
-0.7097511
-0.6968507
-0.6531592
-0.7168095
-0.7126862
-0.7036744
-0.6814837
-0.6245956
-0.7186559
-0.7154767
-0.709697
-0.6968113
-0.6679512
-0.6069852
-0.7203666
-0.7178489
-0.7140956
-0.7070799
-0.6921605
-0.6620034
-0.6043539
-0.7219581
-0.7198576
-0.7172446
-0.7133077
-0.7061838
-0.6922095
-0.666502
-0.6174583
-0.7234516
-0.7216354
-0.7196223
-0.7171622
-0.7135984
-0.7076565
-0.6971676
-0.6796406
-0.6432291
-0.7248631
-0.7232703
-0.7216013
-0.7198052
-0.7177136
-0.7149437
-0.7109033
-0.7047817
-0.6960506
-0.6770068
-0.7262004
-0.7248085
-0.7233733
-0.7219012
-0.7203675
-0.7187038
-0.7167795
-0.7144943
-0.7118957
-0.7097976
-0.7019648
-0.7274671
-0.7262629
-0.7250152
-0.7237337
-0.7224228
-0.7210801
-0.7197021
-0.7182948
-0.7169688
-0.7161545
-0.7154639
-0.7090287
-0.7177795
-0.7168061
-0.7141519
-0.720042
-0.7193295
-0.7185516
-0.7171128
-0.7220377
-0.7213384
-0.7207486
-0.7202185
-0.7194566
-0.7237763
-0.7230672
-0.7224883
-0.7220586
-0.7217641
-0.7208957
-0.7252838
-0.7245736
-0.7239724
-0.7235237
-0.7232548
-0.7226778
-0.7212924
-0.7153067
-0.7123077
-0.7066191
-0.6854142
-0.7170198
-0.7137702
-0.7074879
-0.6927743
-0.6492663
-0.7187556
-0.7159052
-0.7110582
-0.7007598
-0.6776997
-0.6234452
-0.7204055
-0.717984
-0.7144656
-0.7080715
-0.6946699
-0.6673766
-0.6119862
-0.7219581
-0.7198576
-0.7172446
-0.7133077
-0.7061838
-0.6922095
-0.666502
-0.6174583
-0.7234234
-0.7215619
-0.7194835
-0.7169014
-0.713067
-0.7065315
-0.6948998
-0.6757197
-0.6386832
-0.7248136
-0.7231476
-0.7213961
-0.7194889
-0.7171989
-0.7140184
-0.7091656
-0.7016468
-0.6911813
-0.6719054
-0.726136
-0.7246508
-0.723126
-0.7215679
-0.7199316
-0.718098
-0.7158439
-0.7129784
-0.7095464
-0.7069309
-0.6979323
-0.7273939
-0.7260859
-0.7247472
-0.7233963
-0.7220406
-0.7206697
-0.7192633
-0.7178101
-0.7164751
-0.7158647
-0.7145454
-0.7047773
-0.7285883
-0.7274524
-0.7262786
-0.7250784
-0.7238596
-0.7226292
-0.7213946
-0.7201824
-0.7190862
-0.7185051
-0.718484
-0.7164168
-0.7109024
-0.7196203
-0.7189788
-0.7179707
-0.7154475
-0.7216652
-0.7209998
-0.7203915
-0.7197254
-0.718443
-0.723531
-0.7228309
-0.722251
-0.7217962
-0.7214197
-0.720285
-0.725165
-0.724457
-0.7238559
-0.7234024
-0.7231186
-0.7225032
-0.7210021
-0.7265874
-0.725881
-0.7252648
-0.7247732
-0.7244522
-0.7239072
-0.7227733
-0.7213992
-0.7172629
-0.7149668
-0.7115973
-0.7053035
-0.6840905
-0.7188913
-0.7164723
-0.7128018
-0.705766
-0.6905095
-0.6485788
-0.7204792
-0.718238
-0.7151448
-0.7098583
-0.6991909
-0.6773155
-0.6273774
-0.7219901
-0.7199507
-0.7174532
-0.7137855
-0.7073123
-0.6947506
-0.6713998
-0.6238173
-0.7234234
-0.7215619
-0.7194835
-0.7169014
-0.713067
-0.7065315
-0.6948998
-0.6757197
-0.6386832
-0.7247877
-0.7230842
-0.7212891
-0.7193209
-0.7169183
-0.7135032
-0.7081876
-0.6998976
-0.6885574
-0.6694387
-0.7260897
-0.7245395
-0.7229502
-0.7213264
-0.7196057
-0.7176245
-0.7150821
-0.7117135
-0.7075925
-0.7046576
-0.6952435
-0.7273334
-0.7259397
-0.7245234
-0.7231108
-0.7217096
-0.7202968
-0.7188246
-0.7172446
-0.7157317
-0.7150646
-0.7133992
-0.7013525
-0.7285196
-0.727287
-0.7260303
-0.7247728
-0.7235323
-0.722324
-0.7211615
-0.7200863
-0.7192255
-0.71902
-0.7186079
-0.7156081
-0.7074456
-0.7296478
-0.7285747
-0.7274679
-0.7263393
-0.7251984
-0.7240544
-0.7229207
-0.721825
-0.7208594
-0.7203554
-0.7204971
-0.7192788
-0.71745
-0.7128069
-0.7212719
-0.7207285
-0.7200765
-0.7191314
-0.7168963
-0.7231776
-0.7225175
-0.7219484
-0.7214493
-0.7209183
-0.7192882
-0.724931
-0.7242335
-0.7236371
-0.7231754
-0.7228581
-0.7221571
-0.7203919
-0.7264737
-0.7257698
-0.7251549
-0.7246617
-0.7243335
-0.723771
-0.7225987
-0.721109
-0.7278177
-0.7271211
-0.7264959
-0.7259739
-0.7255915
-0.725029
-0.7239921
-0.7228691
-0.7215065
-0.7190523
-0.7171131
-0.7146935
-0.7110965
-0.7046234
-0.683885
-0.7205812
-0.7185822
-0.7160316
-0.7121214
-0.704887
-0.6903499
-0.6510813
-0.7220512
-0.7201282
-0.717842
-0.7146558
-0.7093352
-0.6993206
-0.6804705
-0.6367833
-0.7234516
-0.7216354
-0.7196223
-0.7171622
-0.7135984
-0.7076565
-0.6971676
-0.6796406
-0.6432291
-0.7247877
-0.7230842
-0.7212891
-0.7193209
-0.7169183
-0.7135032
-0.7081876
-0.6998976
-0.6885574
-0.6694387
-0.7260656
-0.7244822
-0.7228591
-0.7211998
-0.7194312
-0.7173635
-0.7146525
-0.7109922
-0.7064888
-0.7034147
-0.6939034
-0.72729
-0.7258366
-0.7243648
-0.7229062
-0.7214671
-0.7200114
-0.7184647
-0.7167437
-0.7150308
-0.7142808
-0.7124303
-0.699024
-0.7284626
-0.7271502
-0.7258231
-0.7245152
-0.7232519
-0.7220513
-0.720923
-0.7198997
-0.7190974
-0.7189852
-0.7184144
-0.7146527
-0.7045803
-0.7295831
-0.7284194
-0.7272357
-0.7260562
-0.7249027
-0.7237974
-0.7227696
-0.7218686
-0.7212173
-0.7211117
-0.7209373
-0.719321
-0.7167085
-0.7100102
-0.73065
-0.7296351
-0.7285899
-0.7275261
-0.7264537
-0.7253828
-0.7243274
-0.7233165
-0.7224304
-0.7219645
-0.7221124
-0.7211922
-0.7201214
-0.7185301
-0.714732
-0.7228
-0.7222724
-0.7217212
-0.7211199
-0.7202979
-0.7178147
-0.7245928
-0.7239361
-0.7233603
-0.722887
-0.7225059
-0.7216496
-0.7193973
-0.7262495
-0.7255563
-0.7249484
-0.7244537
-0.7241101
-0.7235092
-0.7222525
-0.7204993
-0.7277085
-0.7270146
-0.7263912
-0.7258689
-0.7254827
-0.7249106
-0.7238559
-0.7226945
-0.7212165
-0.7289808
-0.7282977
-0.7276718
-0.727128
-0.7266995
-0.7261048
-0.7251049
-0.7240772
-0.7229653
-0.7216142
-0.7207043
-0.7189814
-0.717015
-0.7145424
-0.7109054
-0.7046776
-0.6847947
-0.7221362
-0.720374
-0.7183623
-0.7157777
-0.7118756
-0.705059
-0.6923869
-0.6571529
-0.7235057
-0.7217769
-0.7198853
-0.7176447
-0.7145596
-0.7096653
-0.7012426
-0.6869187
-0.652624
-0.7248136
-0.7231476
-0.7213961
-0.7194889
-0.7171989
-0.7140184
-0.7091656
-0.7016468
-0.6911813
-0.6719054
-0.7260656
-0.7244822
-0.7228591
-0.7211998
-0.7194312
-0.7173635
-0.7146525
-0.7109922
-0.7064888
-0.7034147
-0.6939034
-0.7272673
-0.7257835
-0.7242829
-0.7227997
-0.7213389
-0.7198563
-0.7182613
-0.7164507
-0.7146133
-0.7138154
-0.7118867
-0.6978538
-0.7284216
-0.7270537
-0.7256764
-0.7243314
-0.7230488
-0.7218464
-0.7207261
-0.7197067
-0.7188925
-0.7188017
-0.7181547
-0.7138494
-0.7025994
-0.7295292
-0.7282907
-0.7270418
-0.7258177
-0.7246504
-0.7235702
-0.722612
-0.7218244
-0.7213185
-0.7213455
-0.7210761
-0.7191562
-0.715898
-0.7076531
-0.730589
-0.729489
-0.7283718
-0.7272611
-0.7261794
-0.7251512
-0.724208
-0.723403
-0.7228401
-0.7227571
-0.7226238
-0.7214938
-0.7200717
-0.7178327
-0.7124949
-0.731599
-0.7306383
-0.7296501
-0.7286459
-0.7276354
-0.7266288
-0.7256402
-0.7246963
-0.723871
-0.7234227
-0.7235422
-0.7227346
-0.7219179
-0.720985
-0.7196336
-0.7158618
-0.7242252
-0.7236982
-0.7231614
-0.7226486
-0.7221345
-0.7210123
-0.7179323
-0.7259245
-0.7252704
-0.7246864
-0.7241925
-0.7238188
-0.7231491
-0.7217444
-0.7195071
-0.7274928
-0.7268095
-0.7261937
-0.7256731
-0.7252791
-0.7246863
-0.7235939
-0.7223481
-0.7206075
-0.7288757
-0.7281952
-0.7275713
-0.7270279
-0.7265973
-0.7259963
-0.7249864
-0.723941
-0.7227907
-0.7213244
-0.7300817
-0.7294154
-0.7287941
-0.7282389
-0.7277756
-0.7271594
-0.7261729
-0.7251808
-0.7241627
-0.7230617
-0.7217263
-0.7222398
-0.7206655
-0.7189547
-0.717003
-0.7145648
-0.7110948
-0.7055047
-0.6870043
-0.7235813
-0.7219756
-0.7202459
-0.7182821
-0.715785
-0.7121707
-0.7063479
-0.6965095
-0.6677813
-0.7248631
-0.7232703
-0.7216013
-0.7198052
-0.7177136
-0.7149437
-0.7109033
-0.7047817
-0.6960506
-0.6770068
-0.7260897
-0.7245395
-0.7229502
-0.7213264
-0.7196057
-0.7176245
-0.7150821
-0.7117135
-0.7075925
-0.7046576
-0.6952435
-0.7272673
-0.7257835
-0.7242829
-0.7227997
-0.7213389
-0.7198563
-0.7182613
-0.7164507
-0.7146133
-0.7138154
-0.7118867
-0.6978538
-0.7284001
-0.7270039
-0.7256008
-0.7242362
-0.7229425
-0.7217365
-0.7206148
-0.7195872
-0.718753
-0.7186656
-0.7179867
-0.7133987
-0.7015958
-0.7294904
-0.7281999
-0.7269046
-0.725648
-0.7244687
-0.7234015
-0.7224816
-0.7217504
-0.7213053
-0.721387
-0.721084
-0.7189466
-0.7152297
-0.7060026
-0.730538
-0.7293677
-0.7281895
-0.7270379
-0.7259457
-0.7249474
-0.7240828
-0.7234082
-0.723013
-0.7230714
-0.7228664
-0.7216019
-0.71991
-0.7171351
-0.7106003
-0.7315414
-0.7305007
-0.7294448
-0.7283967
-0.7273781
-0.7264132
-0.7255335
-0.7247883
-0.7242718
-0.7241759
-0.7240388
-0.7230957
-0.7220839
-0.7208454
-0.7189661
-0.7138839
-0.7324982
-0.7315884
-0.7306533
-0.7297042
-0.7287505
-0.7278023
-0.7268727
-0.7259871
-0.7252114
-0.7247778
-0.7248569
-0.7241071
-0.7233769
-0.7226531
-0.7218529
-0.7203173
-0.7160026
-0.7255646
-0.7250325
-0.7244944
-0.7239862
-0.7235387
-0.7227486
-0.7211056
-0.7180506
-0.7271794
-0.7265329
-0.7259413
-0.725427
-0.7250168
-0.7243875
-0.723233
-0.7218394
-0.7196178
-0.7286678
-0.7279975
-0.7273814
-0.7268408
-0.7264062
-0.7257921
-0.724762
-0.7236788
-0.7224441
-0.7207161
-0.7299802
-0.7293166
-0.7286973
-0.7281428
-0.7276783
-0.7270576
-0.7260645
-0.7250623
-0.7240264
-0.722887
-0.7214368
-0.7311248
-0.7304776
-0.7298658
-0.7293063
-0.728821
-0.7281906
-0.7272211
-0.7262412
-0.7252571
-0.7242483
-0.7231624
-0.721829
-0.7236734
-0.7222143
-0.7206665
-0.7189967
-0.7171056
-0.7147985
-0.7116935
-0.707089
-0.6910396
-0.7249323
-0.7234438
-0.7218872
-0.720234
-0.7183849
-0.7161088
-0.7130487
-0.7086802
-0.7024425
-0.6852825
-0.726136
-0.7246508
-0.723126
-0.7215679
-0.7199316
-0.718098
-0.7158439
-0.7129784
-0.7095464
-0.7069309
-0.6979323
-0.72729
-0.7258366
-0.7243648
-0.7229062
-0.7214671
-0.7200114
-0.7184647
-0.7167437
-0.7150308
-0.7142808
-0.7124303
-0.699024
-0.7284001
-0.7270039
-0.7256008
-0.7242362
-0.7229425
-0.7217365
-0.7206148
-0.7195872
-0.718753
-0.7186656
-0.7179867
-0.7133987
-0.7015958
-0.72947
-0.728153
-0.7268338
-0.7255601
-0.724374
-0.7233119
-0.7224079
-0.7216989
-0.7212749
-0.7213784
-0.7210641
-0.7188116
-0.7148568
-0.7051604
-0.7305012
-0.729282
-0.7280603
-0.726879
-0.7257778
-0.7247971
-0.7239795
-0.7233781
-0.7230665
-0.7231907
-0.7229675
-0.7216128
-0.7197318
-0.7165782
-0.7092619
-0.7314931
-0.7303863
-0.729273
-0.7281866
-0.7271589
-0.7262239
-0.725422
-0.7248062
-0.724457
-0.7244965
-0.7243006
-0.7232881
-0.7221458
-0.7206714
-0.7183602
-0.712213
-0.7324438
-0.7314587
-0.7304599
-0.7294694
-0.7285081
-0.727599
-0.7267717
-0.7260721
-0.7255829
-0.7254699
-0.7253099
-0.7244575
-0.7235966
-0.7226938
-0.7216274
-0.7196601
-0.7140519
-0.7333505
-0.7324886
-0.7316034
-0.7307056
-0.7298047
-0.7289101
-0.7280345
-0.7272008
-0.7264697
-0.7260493
-0.7260932
-0.7253751
-0.7246848
-0.7240224
-0.7233849
-0.7223971
-0.7204081
-0.7161433
-0.7268266
-0.7262934
-0.7257483
-0.7252313
-0.7247735
-0.7240778
-0.7228296
-0.721199
-0.7181697
-0.7283649
-0.7277291
-0.7271364
-0.7266042
-0.7261604
-0.7255235
-0.7244623
-0.7233169
-0.7219348
-0.719729
-0.7297795
-0.7291256
-0.728514
-0.7279629
-0.7274961
-0.7268662
-0.7258602
-0.7248377
-0.723764
-0.7225402
-0.7208294
-0.7310267
-0.7303821
-0.7297724
-0.7292138
-0.7287276
-0.7280938
-0.7271193
-0.7261328
-0.7251386
-0.7241119
-0.7229876
-0.7215397
-0.7321141
-0.7314877
-0.7308887
-0.7303314
-0.729833
-0.7291981
-0.728247
-0.727283
-0.7263098
-0.7253334
-0.7243379
-0.7232543
-0.7219077
-0.7250166
-0.7236535
-0.7222258
-0.7207272
-0.719126
-0.7173443
-0.7152634
-0.7126963
-0.7094018
-0.6983817
-0.7262004
-0.7248085
-0.7233733
-0.7219012
-0.7203675
-0.7187038
-0.7167795
-0.7144943
-0.7118957
-0.7097976
-0.7019648
-0.7273334
-0.7259397
-0.7245234
-0.7231108
-0.7217096
-0.7202968
-0.7188246
-0.7172446
-0.7157317
-0.7150646
-0.7133992
-0.7013525
-0.7284216
-0.7270537
-0.7256764
-0.7243314
-0.7230488
-0.7218464
-0.7207261
-0.7197067
-0.7188925
-0.7188017
-0.7181547
-0.7138494
-0.7025994
-0.72947
-0.728153
-0.7268338
-0.7255601
-0.724374
-0.7233119
-0.7224079
-0.7216989
-0.7212749
-0.7213784
-0.7210641
-0.7188116
-0.7148568
-0.7051604
-0.7304818
-0.7292378
-0.7279937
-0.7267967
-0.7256904
-0.7247176
-0.7239215
-0.7233524
-0.7230757
-0.7232284
-0.7230014
-0.7215998
-0.7196204
-0.7162712
-0.7085748
-0.7314581
-0.7303053
-0.7291512
-0.7280369
-0.7270015
-0.7260846
-0.7253306
-0.7247901
-0.7245288
-0.7246344
-0.7244277
-0.7233745
-0.7221478
-0.7205115
-0.7178982
-0.7110297
-0.732398
-0.7313507
-0.7302978
-0.7292713
-0.7283014
-0.7274206
-0.7266668
-0.7260899
-0.7257586
-0.7257715
-0.725559
-0.7246642
-0.7237282
-0.7227021
-0.7214336
-0.7190944
-0.7124044
-0.733299
-0.7323664
-0.7314211
-0.7304844
-0.729576
-0.7287177
-0.727937
-0.7272757
-0.7268084
-0.7266783
-0.7264971
-0.7256911
-0.7249007
-0.7241139
-0.7233104
-0.7221274
-0.7197518
-0.7142193
-0.7341585
-0.733342
-0.7325037
-0.7316542
-0.7308025
-0.7299578
-0.7291318
-0.7283461
-0.7276558
-0.72725
-0.7272646
-0.7265723
-0.7259007
-0.7252618
-0.7246609
-0.7238486
-0.7224714
-0.7204989
-0.7162842
-0.7280189
-0.727488
-0.7269405
-0.7264106
-0.7259331
-0.7252531
-0.7241497
-0.7229106
-0.7212927
-0.7182894
-0.7294862
-0.7288646
-0.7282754
-0.7277335
-0.727261
-0.7266152
-0.7255908
-0.7245372
-0.7234011
-0.7220303
-0.7198449
-0.7308325
-0.7301972
-0.7295949
-0.72904
-0.7285526
-0.7279116
-0.7269279
-0.7259283
-0.7249137
-0.7238492
-0.7226406
-0.7209331
-0.7320191
-0.7313952
-0.7307983
-0.730242
-0.7297431
-0.7291053
-0.7281501
-0.7271812
-0.7262013
-0.7252149
-0.7242014
-0.7230795
-0.7216185
-0.733053
-0.7324485
-0.7318652
-0.7313146
-0.7308109
-0.7301779
-0.7292498
-0.7283034
-0.7273451
-0.7263784
-0.7254138
-0.7244198
-0.7233241
-0.721964
-0.7262786
-0.7249994
-0.7236684
-0.7222914
-0.7208614
-0.7193569
-0.7177344
-0.715971
-0.714114
-0.7125471
-0.707182
-0.7273939
-0.7260859
-0.7247472
-0.7233963
-0.7220406
-0.7206697
-0.7192633
-0.7178101
-0.7164751
-0.7158647
-0.7145454
-0.7047773
-0.7284626
-0.7271502
-0.7258231
-0.7245152
-0.7232519
-0.7220513
-0.720923
-0.7198997
-0.7190974
-0.7189852
-0.7184144
-0.7146527
-0.7045803
-0.7294904
-0.7281999
-0.7269046
-0.725648
-0.7244687
-0.7234015
-0.7224816
-0.7217504
-0.7213053
-0.721387
-0.721084
-0.7189466
-0.7152297
-0.7060026
-0.7304818
-0.7292378
-0.7279937
-0.7267967
-0.7256904
-0.7247176
-0.7239215
-0.7233524
-0.7230757
-0.7232284
-0.7230014
-0.7215998
-0.7196204
-0.7162712
-0.7085748
-0.7314397
-0.7302636
-0.7290884
-0.7279595
-0.7269195
-0.726011
-0.7252795
-0.7247733
-0.7245504
-0.7246854
-0.7244785
-0.7234054
-0.7221361
-0.7204167
-0.7176484
-0.7104206
-0.7323647
-0.7312742
-0.7301828
-0.72913
-0.7281528
-0.7272893
-0.7265813
-0.7260767
-0.7258302
-0.7259063
-0.725686
-0.7247709
-0.7237919
-0.7226878
-0.7212839
-0.7186759
-0.7112374
-0.7332556
-0.7322644
-0.7312682
-0.7302974
-0.7293807
-0.7285485
-0.7278364
-0.7272892
-0.7269684
-0.7269537
-0.7267242
-0.7258862
-0.725045
-0.7241812
-0.7232634
-0.7219202
-0.7191901
-0.712595
-0.7341098
-0.7332268
-0.7323321
-0.7314457
-0.7305867
-0.7297755
-0.7290377
-0.7284113
-0.7279634
-0.7278211
-0.7276221
-0.7268494
-0.7260929
-0.7253573
-0.724636
-0.7237165
-0.7221968
-0.7198435
-0.7143864
-0.7349245
-0.7341511
-0.7333573
-0.7325533
-0.7317479
-0.7309497
-0.7301701
-0.729429
-0.728777
-0.7283868
-0.7283798
-0.7277105
-0.7270546
-0.726423
-0.72583
-0.7250694
-0.7239131
-0.7225455
-0.7205898
-0.7164249
-0.7291469
-0.7286228
-0.7280764
-0.7275395
-0.7270409
-0.726364
-0.7253177
-0.7242214
-0.7229916
-0.7213864
-0.7184134
-0.7305482
-0.7299432
-0.7293622
-0.7288166
-0.7283255
-0.7276721
-0.7266763
-0.7256582
-0.7246122
-0.7234852
-0.72213
-0.7199512
-0.731831
-0.731216
-0.7306263
-0.7300738
-0.7295741
-0.7289304
-0.7279679
-0.7269896
-0.7259966
-0.7249897
-0.7239384
-0.7227323
-0.7210126
-0.7329609
-0.7323589
-0.7317777
-0.7312281
-0.7307241
-0.7300885
-0.729157
-0.7282066
-0.7272433
-0.7262699
-0.7252951
-0.7242832
-0.7231492
-0.7216751
-0.7339446
-0.7333629
-0.7327972
-0.7322571
-0.731754
-0.7311285
-0.7302257
-0.7293017
-0.7283601
-0.7274073
-0.726451
-0.7254871
-0.7244811
-0.7233734
-0.7219965
-0.7124234
-0.7274671
-0.7262629
-0.7250152
-0.7237337
-0.7224228
-0.7210801
-0.7197021
-0.7182948
-0.7169688
-0.7161545
-0.7154639
-0.7090287
-0.7285196
-0.727287
-0.7260303
-0.7247728
-0.7235323
-0.722324
-0.7211615
-0.7200863
-0.7192255
-0.71902
-0.7186079
-0.7156081
-0.7074456
-0.7295292
-0.7282907
-0.7270418
-0.7258177
-0.7246504
-0.7235702
-0.722612
-0.7218244
-0.7213185
-0.7213455
-0.7210761
-0.7191562
-0.715898
-0.7076531
-0.7305012
-0.729282
-0.7280603
-0.726879
-0.7257778
-0.7247971
-0.7239795
-0.7233781
-0.7230665
-0.7231907
-0.7229675
-0.7216128
-0.7197318
-0.7165782
-0.7092619
-0.7314397
-0.7302636
-0.7290884
-0.7279595
-0.7269195
-0.726011
-0.7252795
-0.7247733
-0.7245504
-0.7246854
-0.7244785
-0.7234054
-0.7221361
-0.7204167
-0.7176484
-0.7104206
-0.7323472
-0.7312347
-0.7301235
-0.7290569
-0.7280755
-0.7272201
-0.7265337
-0.7260624
-0.7258536
-0.7259583
-0.7257391
-0.7248152
-0.7238158
-0.7226733
-0.7212014
-0.7184528
-0.7106365
-0.733224
-0.7321921
-0.7311596
-0.7301639
-0.7292402
-0.7284242
-0.7277547
-0.7272752
-0.7270339
-0.7270781
-0.7268422
-0.7259917
-0.7251252
-0.7242175
-0.723229
-0.7217729
-0.7187759
-0.711444
-0.7340686
-0.7331305
-0.7321878
-0.7312692
-0.7304022
-0.7296151
-0.7289407
-0.7284201
-0.7281073
-0.7280706
-0.7278258
-0.7270253
-0.7262287
-0.7254377
-0.7246399
-0.7236397
-0.721988
-0.7192855
-0.7127848
-0.7348785
-0.7340427
-0.7331957
-0.732357
-0.7315444
-0.7307774
-0.7300796
-0.729486
-0.7290574
-0.7289069
-0.7286963
-0.7279508
-0.727219
-0.7265057
-0.7258171
-0.724987
-0.7237748
-0.7222662
-0.7199351
-0.7145527
-0.7356504
-0.7349183
-0.7341667
-0.7334058
-0.732644
-0.7318897
-0.7311536
-0.7304542
-0.7298386
-0.7294652
-0.7294428
-0.7287971
-0.7281562
-0.7275317
-0.7269353
-0.7261969
-0.7251271
-0.7239775
-0.7226197
-0.7206805
-0.7165682
-0.7302156
-0.7297014
-0.7291611
-0.7286217
-0.7281095
-0.7274314
-0.7264227
-0.7253822
-0.7242932
-0.7230724
-0.7214844
-0.7185271
-0.731555
-0.7309687
-0.7303992
-0.7298559
-0.7293538
-0.7286999
-0.727728
-0.7267373
-0.7257256
-0.7246871
-0.7235733
-0.722221
-0.720033
-0.7327784
-0.732185
-0.7316107
-0.7310649
-0.7305607
-0.72992
-0.7289821
-0.7280242
-0.7270516
-0.726065
-0.7250697
-0.7240198
-0.7228016
-0.7210697
-0.7338552
-0.733276
-0.7327123
-0.7321732
-0.73167
-0.7310422
-0.7301364
-0.7292089
-0.7282633
-0.7273054
-0.7263424
-0.7253683
-0.7243444
-0.7231983
-0.7217076
-0.7347916
-0.7342332
-0.7336866
-0.7331597
-0.732662
-0.7320479
-0.7311729
-0.7302737
-0.7293538
-0.7284169
-0.7274734
-0.7265172
-0.7255413
-0.7245235
-0.7234006
-0.7137801
-0.715614
-0.7130972
-0.7285883
-0.7274524
-0.7262786
-0.7250784
-0.7238596
-0.7226292
-0.7213946
-0.7201824
-0.7190862
-0.7185051
-0.718484
-0.7164168
-0.7109024
-0.7295831
-0.7284194
-0.7272357
-0.7260562
-0.7249027
-0.7237974
-0.7227696
-0.7218686
-0.7212173
-0.7211117
-0.7209373
-0.719321
-0.7167085
-0.7100102
-0.730538
-0.7293677
-0.7281895
-0.7270379
-0.7259457
-0.7249474
-0.7240828
-0.7234082
-0.723013
-0.7230714
-0.7228664
-0.7216019
-0.71991
-0.7171351
-0.7106003
-0.7314581
-0.7303053
-0.7291512
-0.7280369
-0.7270015
-0.7260846
-0.7253306
-0.7247901
-0.7245288
-0.7246344
-0.7244277
-0.7233745
-0.7221478
-0.7205115
-0.7178982
-0.7110297
-0.7323472
-0.7312347
-0.7301235
-0.7290569
-0.7280755
-0.7272201
-0.7265337
-0.7260624
-0.7258536
-0.7259583
-0.7257391
-0.7248152
-0.7238158
-0.7226733
-0.7212014
-0.7184528
-0.7106365
-0.7332073
-0.7321547
-0.7311035
-0.7300949
-0.7291671
-0.7283585
-0.7277094
-0.7272612
-0.7270555
-0.7271267
-0.7268924
-0.7260373
-0.7251599
-0.7242319
-0.7232096
-0.7216949
-0.7185555
-0.7108513
-0.7340386
-0.7330622
-0.7320852
-0.7311432
-0.7302693
-0.729497
-0.7288623
-0.7284045
-0.7281654
-0.7281833
-0.7279327
-0.7271225
-0.7263079
-0.7254883
-0.7246471
-0.7235933
-0.7218406
-0.7188757
-0.7116498
-0.7348394
-0.7339518
-0.7330596
-0.7321904
-0.7313701
-0.7306253
-0.7299865
-0.7294908
-0.7291868
-0.7291329
-0.7288784
-0.7281066
-0.7273398
-0.7265816
-0.7258356
-0.7249578
-0.7236946
-0.7220556
-0.719381
-0.7129736
-0.7356069
-0.7348162
-0.7340147
-0.7332211
-0.7324525
-0.7317271
-0.7310672
-0.7305049
-0.7300956
-0.7299414
-0.7297239
-0.729005
-0.7282941
-0.7275973
-0.72692
-0.7261308
-0.7250385
-0.723833
-0.7223355
-0.7200265
-0.7147196
-0.736338
-0.7356453
-0.7349342
-0.7342142
-0.7334938
-0.732781
-0.7320859
-0.731426
-0.7308449
-0.7304892
-0.730457
-0.7298353
-0.7292115
-0.7285952
-0.7279982
-0.7272692
-0.7262495
-0.7251847
-0.7240418
-0.7226936
-0.7207758
-0.7166995
-0.731229
-0.7307278
-0.7301969
-0.7296606
-0.7291408
-0.7284661
-0.7274852
-0.7264813
-0.7254467
-0.7243647
-0.7231574
-0.7215738
-0.7186159
-0.7325103
-0.731944
-0.7313889
-0.7308522
-0.7303464
-0.7296969
-0.7287512
-0.7277838
-0.7267985
-0.725793
-0.724766
-0.7236536
-0.7222895
-0.7200922
-0.733678
-0.733107
-0.7325501
-0.7320148
-0.7315115
-0.7308792
-0.7299678
-0.7290339
-0.7280808
-0.7271135
-0.7261372
-0.7251425
-0.7240805
-0.7228503
-0.7211027
-0.7347047
-0.7341487
-0.7336042
-0.7330784
-0.7325806
-0.7319645
-0.7310867
-0.7301843
-0.729261
-0.72832
-0.7273715
-0.7264085
-0.7254224
-0.7243866
-0.7232253
-0.7355963
-0.7350616
-0.7345353
-0.7340238
-0.7335349
-0.7329356
-0.7320894
-0.7312175
-0.7303218
-0.7294059
-0.7284775
-0.7275336
-0.7265655
-0.7255778
-0.7245457
-0.7145449
-0.7162577
-0.7147715
-0.7177795
-0.7168061
-0.7141519
-0.7296478
-0.7285747
-0.7274679
-0.7263393
-0.7251984
-0.7240544
-0.7229207
-0.721825
-0.7208594
-0.7203554
-0.7204971
-0.7192788
-0.71745
-0.7128069
-0.730589
-0.729489
-0.7283718
-0.7272611
-0.7261794
-0.7251512
-0.724208
-0.723403
-0.7228401
-0.7227571
-0.7226238
-0.7214938
-0.7200717
-0.7178327
-0.7124949
-0.7314931
-0.7303863
-0.729273
-0.7281866
-0.7271589
-0.7262239
-0.725422
-0.7248062
-0.724457
-0.7244965
-0.7243006
-0.7232881
-0.7221458
-0.7206714
-0.7183602
-0.712213
-0.7323647
-0.7312742
-0.7301828
-0.72913
-0.7281528
-0.7272893
-0.7265813
-0.7260767
-0.7258302
-0.7259063
-0.725686
-0.7247709
-0.7237919
-0.7226878
-0.7212839
-0.7186759
-0.7112374
-0.7332073
-0.7321547
-0.7311035
-0.7300949
-0.7291671
-0.7283585
-0.7277094
-0.7272612
-0.7270555
-0.7271267
-0.7268924
-0.7260373
-0.7251599
-0.7242319
-0.7232096
-0.7216949
-0.7185555
-0.7108513
-0.7340227
-0.7330269
-0.7320322
-0.7310779
-0.7302001
-0.7294347
-0.7288188
-0.7283902
-0.7281843
-0.7282274
-0.7279784
-0.7271652
-0.7263435
-0.7255117
-0.7246509
-0.7235703
-0.721763
-0.718658
-0.7110652
-0.7348108
-0.7338872
-0.7329628
-0.7320714
-0.7312445
-0.7305134
-0.7299112
-0.7294738
-0.7292381
-0.7292345
-0.7289744
-0.7281938
-0.7274122
-0.7266322
-0.7258559
-0.724949
-0.7236467
-0.7219082
-0.7189753
-0.7118545
-0.7355698
-0.7347305
-0.7338864
-0.7330641
-0.732288
-0.7315833
-0.7309782
-0.7305068
-0.7302127
-0.7301469
-0.7298871
-0.7291424
-0.7283991
-0.7276634
-0.7269388
-0.7261174
-0.7250055
-0.7237493
-0.7221232
-0.7194761
-0.7131614
-0.736297
-0.7355494
-0.7347913
-0.7340406
-0.7333138
-0.732628
-0.7320041
-0.731472
-0.7310823
-0.7309277
-0.7307079
-0.7300153
-0.7293259
-0.7286441
-0.727976
-0.727206
-0.7261776
-0.7250899
-0.7238912
-0.7224047
-0.7201223
-0.7148723
-0.7369889
-0.7363342
-0.7356616
-0.7349809
-0.7342999
-0.7336265
-0.7329703
-0.7323477
-0.7317997
-0.7314623
-0.7314249
-0.7308278
-0.7302227
-0.7296181
-0.7290233
-0.7283048
-0.7273176
-0.7263018
-0.7252421
-0.7241058
-0.7227721
-0.7208626
-0.7168048
-0.7321909
-0.7317046
-0.7311863
-0.7306571
-0.7301363
-0.7294685
-0.7285157
-0.7275388
-0.7265398
-0.7255109
-0.7244403
-0.7232347
-0.7216404
-0.7186815
-0.7334172
-0.732872
-0.7323335
-0.7318071
-0.7313029
-0.7306628
-0.7297444
-0.7288026
-0.7278397
-0.7268596
-0.7258642
-0.7248377
-0.7237131
-0.7223371
-0.7201269
-0.7345324
-0.7339844
-0.7334464
-0.7329244
-0.7324268
-0.7318066
-0.7309237
-0.7300157
-0.7290859
-0.7281373
-0.7271793
-0.726203
-0.7251961
-0.7241222
-0.7228767
-0.7355118
-0.7349795
-0.7344551
-0.7339448
-0.733456
-0.7328547
-0.7320061
-0.7311313
-0.7302325
-0.7293131
-0.7283806
-0.7274316
-0.7264566
-0.7254587
-0.7244085
-0.7363608
-0.7358501
-0.7353448
-0.7348504
-0.7343733
-0.7337909
-0.7329746
-0.7321311
-0.7312622
-0.73037
-0.7294619
-0.7285327
-0.7275769
-0.7265971
-0.7255955
-0.7150204
-0.7167702
-0.7156813
-0.7182638
-0.7173958
-0.7158835
-0.7196203
-0.7189788
-0.7179707
-0.7154475
-0.73065
-0.7296351
-0.7285899
-0.7275261
-0.7264537
-0.7253828
-0.7243274
-0.7233165
-0.7224304
-0.7219645
-0.7221124
-0.7211922
-0.7201214
-0.7185301
-0.714732
-0.7315414
-0.7305007
-0.7294448
-0.7283967
-0.7273781
-0.7264132
-0.7255335
-0.7247883
-0.7242718
-0.7241759
-0.7240388
-0.7230957
-0.7220839
-0.7208454
-0.7189661
-0.7138839
-0.732398
-0.7313507
-0.7302978
-0.7292713
-0.7283014
-0.7274206
-0.7266668
-0.7260899
-0.7257586
-0.7257715
-0.725559
-0.7246642
-0.7237282
-0.7227021
-0.7214336
-0.7190944
-0.7124044
-0.733224
-0.7321921
-0.7311596
-0.7301639
-0.7292402
-0.7284242
-0.7277547
-0.7272752
-0.7270339
-0.7270781
-0.7268422
-0.7259917
-0.7251252
-0.7242175
-0.723229
-0.7217729
-0.7187759
-0.711444
-0.7340227
-0.7330269
-0.7320322
-0.7310779
-0.7302001
-0.7294347
-0.7288188
-0.7283902
-0.7281843
-0.7282274
-0.7279784
-0.7271652
-0.7263435
-0.7255117
-0.7246509
-0.7235703
-0.721763
-0.718658
-0.7110652
-0.7347957
-0.7338538
-0.7329128
-0.7320097
-0.7311791
-0.7304542
-0.7298695
-0.7294592
-0.7292542
-0.7292742
-0.7290157
-0.7282324
-0.7274454
-0.7266567
-0.7258674
-0.7249466
-0.7236231
-0.7218309
-0.7187603
-0.7112778
-0.7355427
-0.7346695
-0.7337951
-0.7329518
-0.7321694
-0.7314773
-0.7309063
-0.730489
-0.7302581
-0.7302388
-0.7299733
-0.7292199
-0.7284633
-0.7277093
-0.7269609
-0.7261215
-0.7249948
-0.7236999
-0.7219758
-0.7190746
-0.7120568
-0.7362618
-0.7354687
-0.7346706