/*--------------------------------*- C++ -*----------------------------------*\
| =========                 |                                                 |
| \\      /  F ield         | OpenFOAM: The Open Source CFD Toolbox           |
|  \\    /   O peration     | Version:  2306                                  |
|   \\  /    A nd           | Website:  www.openfoam.com                      |
|    \\/     M anipulation  |                                                 |
\*---------------------------------------------------------------------------*/
FoamFile
{
    version     2.0;
    format      ascii;
    arch        "LSB;label=32;scalar=64";
    class       volScalarField;
    location    "1.2/air";
    object      O2;
}
// * * * * * * * * * * * * * * * * * * * * * * * * * * * * * * * * * * * * * //

dimensions      [0 0 0 0 0 0 0];

internalField   nonuniform List<scalar> 
16000
(
0.2300117
0.2300366
0.2285276
0.2299863
0.2300684
0.2286094
0.2300222
0.2265236
0.2284186
0.2299033
0.2300946
0.2287153
0.2300653
0.226642
0.2285307
0.2299557
0.2242108
0.2263728
0.2281329
0.2297209
0.230109
0.2288049
0.230099
0.2268062
0.2286671
0.2300174
0.2243277
0.2265254
0.2282885
0.2297939
0.2219129
0.2240559
0.2259996
0.2275999
0.2293799
0.230109
0.2288548
0.2301169
0.2269533
0.2287778
0.2300637
0.2244884
0.226729
0.2284765
0.22988
0.222026
0.2242069
0.2261915
0.2278019
0.2294773
0.2197007
0.2217627
0.2236727
0.2253402
0.2267481
0.2287957
0.1897553
0.2300946
0.2288548
0.2301169
0.2270384
0.2288381
0.2300873
0.2246317
0.2269074
0.2286257
0.229944
0.2221813
0.2244056
0.2264437
0.2280529
0.229596
0.2198082
0.2219086
0.2238626
0.2255691
0.226996
0.2289219
0.2175915
0.2195573
0.2213917
0.2229985
0.2243399
0.2255073
0.2278508
0.1911435
0.1881916
0.1895356
0.2300684
0.2288049
0.230099
0.2270384
0.2288381
0.2300873
0.2247145
0.2270095
0.2287058
0.2299773
0.2223194
0.2245785
0.2266638
0.2282585
0.2296886
0.2199557
0.2221
0.2241091
0.2258673
0.227309
0.2290841
0.2176935
0.2196957
0.221574
0.2232218
0.2246016
0.2258006
0.2280162
0.2155841
0.2174556
0.219203
0.2207413
0.2219865
0.2229539
0.2238082
0.2263789
0.1939475
0.1894342
0.1909188
0.187796
0.1879908
0.189097
0.2300366
0.2287153
0.2300653
0.2269533
0.2287778
0.2300637
0.2247145
0.2270095
0.2287058
0.2299773
0.2223991
0.2246772
0.2267891
0.2283695
0.2297383
0.2200869
0.2222663
0.2243214
0.226124
0.2275703
0.229218
0.2178332
0.2198774
0.22181
0.2235121
0.2249438
0.2261762
0.2282406
0.2156808
0.2175868
0.2193758
0.2209536
0.2222349
0.2232447
0.2241535
0.2266217
0.2136708
0.2154551
0.2171199
0.2185829
0.2197694
0.2206048
0.2211462
0.2215795
0.2241222
0.1982693
0.1919381
0.193705
0.1889487
0.1892296
0.1904713
0.1876224
0.1876111
0.1875899
0.1884408
0.2300117
0.2286094
0.2300222
0.2268062
0.2286671
0.2300174
0.2246317
0.2269074
0.2286257
0.229944
0.2223991
0.2246772
0.2267891
0.2283695
0.2297383
0.2201626
0.2223609
0.2244418
0.2262706
0.2277149
0.2292923
0.2179576
0.2200351
0.2220128
0.2237622
0.2252388
0.2264938
0.2284327
0.2158133
0.217759
0.2195992
0.2212291
0.2225608
0.2236286
0.2246012
0.2269535
0.2137628
0.2155796
0.2172836
0.2187835
0.2200033
0.220873
0.2214708
0.2220086
0.2245735
0.2118429
0.2135481
0.2151364
0.2165325
0.2176579
0.2184501
0.2188341
0.2188834
0.2187297
0.2206036
0.2045126
0.1957803
0.1979593
0.1912708
0.1917195
0.1932279
0.1886984
0.1887605
0.1888221
0.1898043
0.1874249
0.1874502
0.1872419
0.1869899
0.1875686
0.2285276
0.2299863
0.226642
0.2285307
0.2299557
0.2244884
0.226729
0.2284765
0.22988
0.2223194
0.2245785
0.2266638
0.2282585
0.2296886
0.2201626
0.2223609
0.2244418
0.2262706
0.2277149
0.2292923
0.2180293
0.2201249
0.2221276
0.223904
0.2254058
0.2266713
0.2285413
0.2159312
0.2179084
0.2197911
0.2214658
0.222843
0.2239611
0.224982
0.2272357
0.2138888
0.2157428
0.2174951
0.2190434
0.2203092
0.2212289
0.2219026
0.2225598
0.2251193
0.2119307
0.2136666
0.2152917
0.2167224
0.217878
0.2187002
0.2191269
0.2192731
0.2193522
0.2216871
0.2100925
0.211726
0.2132453
0.2145788
0.2156565
0.2164046
0.2167688
0.2166568
0.2161096
0.2150769
0.2146764
0.2012857
0.2038732
0.1948318
0.1955063
0.197382
0.1908654
0.1910701
0.1912889
0.1925278
0.1884364
0.1885232
0.1883857
0.1882143
0.1889212
0.1871018
0.1872632
0.1871063
0.1866893
0.186192
0.18631
0.2265236
0.2284186
0.2299033
0.2243277
0.2265254
0.2282885
0.2297939
0.2221813
0.2244056
0.2264437
0.2280529
0.229596
0.2200869
0.2222663
0.2243214
0.226124
0.2275703
0.229218
0.2180293
0.2201249
0.2221276
0.223904
0.2254058
0.2266713
0.2285413
0.2159992
0.2179934
0.2198997
0.2215998
0.2230033
0.2241496
0.2251955
0.2273934
0.2140009
0.2158844
0.2176766
0.2192666
0.2205735
0.2215391
0.2222771
0.2230232
0.2255483
0.2120508
0.2138218
0.2154923
0.2169682
0.2181656
0.2190312
0.2195191
0.2197838
0.2200893
0.2226561
0.2101764
0.211839
0.213393
0.2147589
0.2158649
0.2166393
0.2170406
0.2170066
0.2166725
0.216249
0.2178163
0.2084124
0.2099808
0.2114372
0.212715
0.213747
0.2144701
0.2148107
0.2147115
0.21403
0.2126719
0.2101087
0.2117175
0.1999295
0.2007364
0.2029203
0.1941875
0.1945808
0.1949943
0.196582
0.1904735
0.1906789
0.1906749
0.1906559
0.1916151
0.1880571
0.188272
0.1881742
0.1878264
0.1874089
0.1876515
0.1866833
0.186949
0.1869402
0.1865915
0.1859542
0.1850401
0.1860505
0.2242108
0.2263728
0.2281329
0.2297209
0.222026
0.2242069
0.2261915
0.2278019
0.2294773
0.2199557
0.2221
0.2241091
0.2258673
0.227309
0.2290841
0.2179576
0.2200351
0.2220128
0.2237622
0.2252388
0.2264938
0.2284327
0.2159992
0.2179934
0.2198997
0.2215998
0.2230033
0.2241496
0.2251955
0.2273934
0.2140656
0.215965
0.2177793
0.2193929
0.2207233
0.2217158
0.2224892
0.223281
0.2257779
0.2121577
0.2139565
0.2156644
0.2171792
0.2184139
0.2193189
0.2198615
0.2202196
0.2206774
0.2233143
0.2102912
0.211987
0.2135838
0.2149921
0.2161368
0.2169497
0.2174034
0.2174679
0.2173459
0.2173425
0.2194761
0.2084928
0.2100888
0.2115781
0.2128866
0.2139449
0.2146924
0.2150656
0.2150366
0.2145422
0.213747
0.2130206
0.2154132
0.2067965
0.2083054
0.2097047
0.2109314
0.2119239
0.2126202
0.2129614
0.2128642
0.2122379
0.2108118
0.2080873
0.2076121
0.2094157
0.1989406
0.1994254
0.199912
0.2018119
0.1935958
0.1939544
0.1941117
0.1942815
0.1955928
0.1899808
0.1902985
0.1903113
0.1900936
0.1898292
0.1903204
0.1875897
0.1879018
0.1879443
0.1876536
0.1870852
0.1862499
0.1873898
0.1861799
0.1865384
0.1866439
0.1864566
0.1859066
0.1848928
0.1848026
0.1857888
0.2219129
0.2240559
0.2259996
0.2275999
0.2293799
0.2198082
0.2219086
0.2238626
0.2255691
0.226996
0.2289219
0.2178332
0.2198774
0.22181
0.2235121
0.2249438
0.2261762
0.2282406
0.2159312
0.2179084
0.2197911
0.2214658
0.222843
0.2239611
0.224982
0.2272357
0.2140656
0.215965
0.2177793
0.2193929
0.2207233
0.2217158
0.2224892
0.223281
0.2257779
0.2122193
0.2140331
0.2157617
0.2172984
0.2185547
0.2194824
0.2200564
0.2204637
0.220995
0.2236422
0.2103934
0.2121154
0.2137475
0.2151922
0.2163712
0.2172193
0.2177192
0.2178634
0.2178875
0.2181194
0.220434
0.2086028
0.2102303
0.2117601
0.2131085
0.2142029
0.2149859
0.2154057
0.2154639
0.2151563
0.2147513
0.2146728
0.2174295
0.2068737
0.2084089
0.2098395
0.2110952
0.2121125
0.2128315
0.2132031
0.2131695
0.2127166
0.2118065
0.2107804
0.2109929
0.2132834
0.2052397
0.2066938
0.2080409
0.2092212
0.2101766
0.2108517
0.2111869
0.2111184
0.2105272
0.209213
0.2065428
0.2057875
0.2056575
0.2075315
0.198062
0.1984725
0.1986699
0.1989453
0.2006233
0.192929
0.1933773
0.1935188
0.1934588
0.1933961
0.1942507
0.1894148
0.1898156
0.1899537
0.1897708
0.1893343
0.1886543
0.1900537
0.1870427
0.1874424
0.1875923
0.1874555
0.1869634
0.1860185
0.186011
0.1871259
0.1856178
0.1860419
0.1862488
0.186187
0.1858133
0.1849176
0.184674
0.1845631
0.1855249
0.2197007
0.2217627
0.2236727
0.2253402
0.2267481
0.2287957
0.2176935
0.2196957
0.221574
0.2232218
0.2246016
0.2258006
0.2280162
0.2158133
0.217759
0.2195992
0.2212291
0.2225608
0.2236286
0.2246012
0.2269535
0.2140009
0.2158844
0.2176766
0.2192666
0.2205735
0.2215391
0.2222771
0.2230232
0.2255483
0.2122193
0.2140331
0.2157617
0.2172984
0.2185547
0.2194824
0.2200564
0.2204637
0.220995
0.2236422
0.2104523
0.2121884
0.21384
0.2153053
0.2165041
0.2173726
0.2178987
0.2180859
0.2181813
0.2185169
0.2208816
0.2087007
0.210353
0.2119163
0.2132989
0.2144254
0.2152405
0.2157016
0.2158292
0.215651
0.2154668
0.215678
0.2185642
0.2069793
0.2085445
0.2100136
0.2113071
0.2123583
0.2131104
0.213525
0.2135709
0.2132886
0.212734
0.2123087
0.2129365
0.2155322
0.2053139
0.2067932
0.2081701
0.209378
0.2103568
0.2110534
0.2114169
0.2114083
0.2109783
0.2101464
0.2090505
0.2089188
0.2091864
0.2114174
0.2037374
0.2051409
0.2064399
0.2075775
0.2084994
0.2091531
0.2094869
0.2094351
0.2089044
0.2076719
0.2052041
0.2044031
0.2039918
0.2040453
0.2059403
0.1971457
0.1976232
0.1977712
0.1977855
0.1979003
0.1991917
0.1922118
0.1927229
0.1929689
0.1929125
0.1926479
0.1921898
0.1939747
0.1887801
0.1892582
0.1894901
0.1894465
0.1890645
0.1882552
0.1884122
0.1897849
0.1864416
0.1869025
0.1871488
0.1871306
0.1868074
0.18597
0.1857986
0.1857701
0.1868598
0.1850097
0.185486
0.1857662
0.1858153
0.1855792
0.1848843
0.1847138
0.1844534
0.1843216
0.1852589
0.2175915
0.2195573
0.2213917
0.2229985
0.2243399
0.2255073
0.2278508
0.2156808
0.2175868
0.2193758
0.2209536
0.2222349
0.2232447
0.2241535
0.2266217
0.2138888
0.2157428
0.2174951
0.2190434
0.2203092
0.2212289
0.2219026
0.2225598
0.2251193
0.2121577
0.2139565
0.2156644
0.2171792
0.2184139
0.2193189
0.2198615
0.2202196
0.2206774
0.2233143
0.2104523
0.2121884
0.21384
0.2153053
0.2165041
0.2173726
0.2178987
0.2180859
0.2181813
0.2185169
0.2208816
0.2087571
0.2104229
0.2120045
0.2134064
0.2145514
0.2153851
0.2158697
0.2160342
0.2159199
0.2158336
0.2161628
0.2190846
0.2070733
0.2086621
0.2101629
0.2114887
0.2125702
0.2133522
0.2138048
0.213914
0.2137482
0.2133941
0.2132395
0.2140803
0.2168017
0.2054155
0.2069234
0.208337
0.2095807
0.2105917
0.2113194
0.2117232
0.2117889
0.2115174
0.2110151
0.210471
0.2107205
0.2113224
0.213799
0.2038089
0.2052365
0.206564
0.2077279
0.208672
0.2093461
0.2097068
0.2097115
0.209333
0.2085534
0.2075607
0.2073217
0.2072642
0.2075951
0.2097966
0.2022856
0.2036422
0.2048967
0.205995
0.2068856
0.2075202
0.2078497
0.2078178
0.2073298
0.2061974
0.2038886
0.2031957
0.2027343
0.202515
0.2026714
0.204368
0.196212
0.196732
0.196966
0.1969507
0.1968307
0.1966312
0.1988986
0.1914425
0.1920166
0.1923378
0.1924006
0.1921595
0.1915434
0.1919417
0.1936971
0.1881003
0.188631
0.1889495
0.1890114
0.1887838
0.1880607
0.1880329
0.1881683
0.1895141
0.1857981
0.1863077
0.186623
0.1867108
0.1865185
0.1858746
0.1857652
0.1855769
0.1855272
0.1865916
0.1843696
0.1848835
0.1852227
0.1853535
0.1852385
0.1847014
0.1846927
0.1845081
0.1842308
0.1840781
0.1849343
0.2155841
0.2174556
0.219203
0.2207413
0.2219865
0.2229539
0.2238082
0.2263789
0.2137628
0.2155796
0.2172836
0.2187835
0.2200033
0.220873
0.2214708
0.2220086
0.2245735
0.2120508
0.2138218
0.2154923
0.2169682
0.2181656
0.2190312
0.2195191
0.2197838
0.2200893
0.2226561
0.2103934
0.2121154
0.2137475
0.2151922
0.2163712
0.2172193
0.2177192
0.2178634
0.2178875
0.2181194
0.220434
0.2087571
0.2104229
0.2120045
0.2134064
0.2145514
0.2153851
0.2158697
0.2160342
0.2159199
0.2158336
0.2161628
0.2190846
0.2071275
0.208729
0.2102473
0.2115914
0.2126902
0.2134896
0.2139635
0.2141065
0.2139974
0.2137327
0.213689
0.2146202
0.2173802
0.2055059
0.2070363
0.20848
0.2097545
0.2107941
0.2115499
0.2119894
0.2121138
0.2119503
0.211632
0.211335
0.211782
0.2125744
0.2151582
0.2039068
0.2053617
0.2067242
0.2079223
0.208897
0.2096005
0.2099994
0.2100741
0.2098448
0.2093736
0.2088944
0.2089995
0.2092475
0.2098443
0.2122362
0.2023546
0.2037343
0.2050161
0.2061395
0.2070513
0.2077053
0.2080603
0.2080822
0.2077385
0.2070346
0.2061146
0.2059391
0.2057865
0.2058111
0.2062055
0.2081866
0.200881
0.2021938
0.203407
0.2044687
0.2053305
0.2059467
0.2062726
0.2062545
0.2058101
0.2047544
0.202609
0.2019937
0.2016305
0.2013636
0.2012609
0.2012999
0.2040489
0.19525
0.19582
0.1961124
0.1961972
0.1960653
0.195673
0.1963713
0.1986052
0.1906423
0.1912567
0.1916515
0.1918017
0.1916947
0.1911338
0.1913162
0.1916921
0.1934178
0.1873857
0.187958
0.1883373
0.1884956
0.1883858
0.1878419
0.1878539
0.1878088
0.1879224
0.1892412
0.1851258
0.1856699
0.1860408
0.186206
0.18613
0.1856374
0.1856823
0.1855587
0.1853533
0.1852824
0.1862643
0.1837056
0.1842486
0.1846315
0.1848285
0.1848042
0.1844056
0.1845205
0.1844996
0.1843008
0.1840064
0.1837809
0.1846021
0.2136708
0.2154551
0.2171199
0.2185829
0.2197694
0.2206048
0.2211462
0.2215795
0.2241222
0.2119307
0.2136666
0.2152917
0.2167224
0.217878
0.2187002
0.2191269
0.2192731
0.2193522
0.2216871
0.2102912
0.211987
0.2135838
0.2149921
0.2161368
0.2169497
0.2174034
0.2174679
0.2173459
0.2173425
0.2194761
0.2087007
0.210353
0.2119163
0.2132989
0.2144254
0.2152405
0.2157016
0.2158292
0.215651
0.2154668
0.215678
0.2185642
0.2071275
0.208729
0.2102473
0.2115914
0.2126902
0.2134896
0.2139635
0.2141065
0.2139974
0.2137327
0.213689
0.2146202
0.2173802
0.205558
0.2071005
0.2085609
0.2098527
0.2109087
0.2116809
0.2121404
0.212296
0.2121851
0.2119478
0.211752
0.2122836
0.2131597
0.2157769
0.2039939
0.2054703
0.2068617
0.208089
0.2090908
0.209821
0.2102535
0.2103836
0.2102554
0.209956
0.2097045
0.209987
0.2104115
0.2111707
0.2136407
0.2024491
0.203855
0.2051703
0.2063263
0.2072672
0.2079492
0.2083406
0.208429
0.2082264
0.2078135
0.2073746
0.2075155
0.2076356
0.2079027
0.208509
0.2106245
0.2009476
0.2022827
0.2035221
0.2046078
0.2054898
0.2061245
0.2064748
0.206508
0.2062011
0.2055523
0.2047222
0.2045854
0.2045001
0.2044399
0.2045469
0.2048173
0.2078598
0.1995202
0.2007923
0.2019669
0.2029947
0.2038294
0.2044283
0.2047497
0.2047448
0.2043347
0.2033524
0.2013394
0.2008122
0.2005174
0.2003459
0.2002013
0.2000145
0.2010214
0.2037318
0.1942775
0.1948772
0.1952329
0.1953876
0.1953679
0.1949923
0.195436
0.196111
0.1983114
0.1898185
0.1904651
0.1909095
0.1911434
0.1911358
0.1907333
0.1909228
0.1910876
0.1914409
0.1931369
0.1866485
0.1872495
0.1876777
0.1879052
0.1879023
0.1874966
0.1876479
0.1876455
0.1875829
0.1876746
0.1889085
0.1844322
0.1850029
0.1854146
0.1856426
0.185653
0.185294
0.1854558
0.1854884
0.1853505
0.1851279
0.1849836
0.1859295
0.183025
0.1835893
0.1840069
0.1842542
0.184304
0.184011
0.1842339
0.184338
0.1843048
0.1840917
0.1837326
0.183477
0.1843495
0.2118429
0.2135481
0.2151364
0.2165325
0.2176579
0.2184501
0.2188341
0.2188834
0.2187297
0.2206036
0.2101764
0.211839
0.213393
0.2147589
0.2158649
0.2166393
0.2170406
0.2170066
0.2166725
0.216249
0.2178163
0.2086028
0.2102303
0.2117601
0.2131085
0.2142029
0.2149859
0.2154057
0.2154639
0.2151563
0.2147513
0.2146728
0.2174295
0.2070733
0.2086621
0.2101629
0.2114887
0.2125702
0.2133522
0.2138048
0.213914
0.2137482
0.2133941
0.2132395
0.2140803
0.2168017
0.205558
0.2071005
0.2085609
0.2098527
0.2109087
0.2116809
0.2121404
0.212296
0.2121851
0.2119478
0.211752
0.2122836
0.2131597
0.2157769
0.2040441
0.2055321
0.2069393
0.2081831
0.2092005
0.2099462
0.2103977
0.2105572
0.210478
0.2102541
0.2100951
0.2104534
0.2109563
0.2117888
0.2142806
0.2025331
0.2039596
0.2053025
0.2064864
0.2074532
0.2081606
0.2085839
0.2087248
0.2086178
0.2083663
0.20814
0.2084426
0.2087202
0.2091378
0.2098761
0.212032
0.2010389
0.2023991
0.2036707
0.2047876
0.2056974
0.2063588
0.2067438
0.2068404
0.2066678
0.2062948
0.2059187
0.206075
0.2062383
0.2063916
0.2066922
0.2071308
0.2102969
0.1995846
0.2008782
0.202078
0.2031288
0.2039829
0.2045995
0.2049442
0.2049884
0.2047095
0.2041151
0.2033521
0.2032724
0.2032287
0.2032388
0.20327
0.2032904
0.2045355
0.2075352
0.1982007
0.1994344
0.2005731
0.2015691
0.2023786
0.2029612
0.2032779
0.2032832
0.2029049
0.2019833
0.200092
0.1996296
0.1994128
0.1993064
0.1992575
0.1990482
0.1997614
0.2007445
0.2034169
0.1932976
0.1939219
0.1943188
0.1945462
0.1946059
0.1943633
0.1947726
0.1951986
0.1958502
0.1980172
0.1889819
0.189649
0.1901337
0.1904261
0.1905122
0.1902289
0.1905355
0.1907105
0.1908576
0.1911881
0.192795
0.1858954
0.1865179
0.1869812
0.1872652
0.1873405
0.187059
0.1873134
0.1874523
0.1874354
0.1873554
0.1873725
0.1885679
0.1837244
0.1843141
0.1847579
0.1850334
0.1851146
0.1848571
0.1851217
0.1852726
0.1852929
0.1851406
0.1848529
0.1846781
0.1856747
0.1823327
0.182913
0.183357
0.1836449
0.183752
0.1835465
0.1838475
0.1840607
0.184154
0.1841084
0.1838366
0.1834527
0.1832461
0.184178
0.2100925
0.211726
0.2132453
0.2145788
0.2156565
0.2164046
0.2167688
0.2166568
0.2161096
0.2150769
0.2146764
0.2084928
0.2100888
0.2115781
0.2128866
0.2139449
0.2146924
0.2150656
0.2150366
0.2145422
0.213747
0.2130206
0.2154132
0.2069793
0.2085445
0.2100136
0.2113071
0.2123583
0.2131104
0.213525
0.2135709
0.2132886
0.212734
0.2123087
0.2129365
0.2155322
0.2055059
0.2070363
0.20848
0.2097545
0.2107941
0.2115499
0.2119894
0.2121138
0.2119503
0.211632
0.211335
0.211782
0.2125744
0.2151582
0.2040441
0.2055321
0.2069393
0.2081831
0.2092005
0.2099462
0.2103977
0.2105572
0.210478
0.2102541
0.2100951
0.2104534
0.2109563
0.2117888
0.2142806
0.2025815
0.2040192
0.2053772
0.2065769
0.2075585
0.2082806
0.2087219
0.2088906
0.20883
0.2086492
0.2085089
0.2088802
0.2092275
0.2097141
0.2105129
0.2126735
0.20112
0.2025001
0.203798
0.2049418
0.2058762
0.2065619
0.2069773
0.207124
0.2070421
0.2068218
0.2066454
0.206951
0.2072573
0.2075438
0.2079674
0.2085074
0.2117046
0.1996729
0.2009906
0.2022213
0.2033021
0.2041828
0.204825
0.2052029
0.2053077
0.2051569
0.204825
0.2044923
0.2046869
0.2048714
0.2050742
0.2052734
0.2054492
0.2068505
0.2099709
0.1982631
0.1995175
0.2006804
0.2016986
0.2025266
0.2031262
0.2034653
0.2035177
0.203265
0.202714
0.2020149
0.2019728
0.2019866
0.20204
0.2021441
0.2021096
0.2030354
0.2042554
0.2072128
0.1969196
0.1981176
0.1992224
0.2001888
0.2009746
0.2015418
0.2018536
0.2018678
0.2015164
0.2006502
0.198863
0.1984599
0.1982983
0.1982651
0.1982806
0.1981789
0.198814
0.1995099
0.2004694
0.2031041
0.1923189
0.1929575
0.1933892
0.1936657
0.1938055
0.193659
0.1941576
0.1945526
0.1949607
0.195589
0.1976607
0.1881376
0.1888194
0.189332
0.1896725
0.1898256
0.1896525
0.1900423
0.1903365
0.1904969
0.1906262
0.1908804
0.192445
0.1851326
0.1857699
0.1862607
0.1865866
0.1867262
0.1865379
0.1868852
0.1871288
0.1872552
0.1872238
0.1870779
0.1870635
0.1883088
0.1830069
0.1836107
0.1840787
0.1843924
0.184528
0.1843547
0.1846931
0.184948
0.185088
0.1850958
0.1848845
0.1845718
0.1844458
0.1855018
0.1816327
0.1822248
0.1826894
0.1830092
0.1831632
0.183027
0.1833904
0.1836826
0.1838861
0.1839684
0.1838688
0.1835759
0.1832401
0.1830894
0.1840903
0.2045126
0.2084124
0.2099808
0.2114372
0.212715
0.213747
0.2144701
0.2148107
0.2147115
0.21403
0.2126719
0.2101087
0.2117175
0.2068737
0.2084089
0.2098395
0.2110952
0.2121125
0.2128315
0.2132031
0.2131695
0.2127166
0.2118065
0.2107804
0.2109929
0.2132834
0.2054155
0.2069234
0.208337
0.2095807
0.2105917
0.2113194
0.2117232
0.2117889
0.2115174
0.2110151
0.210471
0.2107205
0.2113224
0.213799
0.2039939
0.2054703
0.2068617
0.208089
0.2090908
0.209821
0.2102535
0.2103836
0.2102554
0.209956
0.2097045
0.209987
0.2104115
0.2111707
0.2136407
0.2025815
0.2040192
0.2053772
0.2065769
0.2075585
0.2082806
0.2087219
0.2088906
0.20883
0.2086492
0.2085089
0.2088802
0.2092275
0.2097141
0.2105129
0.2126735
0.2011668
0.2025575
0.20387
0.2050288
0.2059774
0.2066771
0.2071098
0.2072829
0.2072449
0.2070915
0.2069956
0.2073645
0.2077338
0.2080811
0.2085622
0.2091489
0.2123462
0.1997514
0.2010882
0.2023442
0.2034507
0.204355
0.2050204
0.2054274
0.20558
0.2055158
0.2053288
0.2051848
0.2055187
0.2058345
0.2061573
0.206464
0.2067361
0.2082287
0.2113783
0.1983485
0.1996263
0.200819
0.2018659
0.2027195
0.2033436
0.2037145
0.2038249
0.2036948
0.2033943
0.2031046
0.2033205
0.2035464
0.2037748
0.2040287
0.2041273
0.2051965
0.2065717
0.2096465
0.1969801
0.1981981
0.1993263
0.2003139
0.2011175
0.201701
0.2020344
0.2020938
0.2018629
0.2013518
0.2007044
0.2006984
0.2007497
0.2008603
0.2010087
0.2010597
0.2018741
0.202782
0.2039771
0.2068925
0.1956751
0.1968391
0.1979124
0.1988507
0.1996143
0.2001668
0.2004739
0.2004956
0.2001682
0.1993503
0.1976575
0.1973012
0.1971894
0.1972067
0.1972933
0.1972646
0.1979599
0.1985814
0.19926
0.2001959
0.2027279
0.1913441
0.1919928
0.192448
0.1927661
0.1929613
0.1929085
0.1934651
0.1939516
0.1943321
0.1947225
0.1952723
0.1972958
0.1872907
0.1879814
0.1885155
0.1888907
0.1890994
0.1890077
0.1894757
0.1898546
0.1901363
0.190282
0.1903444
0.1905657
0.1921786
0.1843643
0.1850119
0.1855228
0.1858822
0.1860707
0.18596
0.1863725
0.1867101
0.1869427
0.1870566
0.1869656
0.1867941
0.1868286
0.1881329
0.1822834
0.1828973
0.1833841
0.1837275
0.1839076
0.1838007
0.1841981
0.1845277
0.1847728
0.1849018
0.1848553
0.1846228
0.1843582
0.1842883
0.1854134
0.1809279
0.1815286
0.1820093
0.1823546
0.1825462
0.1824677
0.1828775
0.1832329
0.1835163
0.18371
0.183742
0.1836239
0.1833779
0.183096
0.1830095
0.1982693
0.2012857
0.2038732
0.2067965
0.2083054
0.2097047
0.2109314
0.2119239
0.2126202
0.2129614
0.2128642
0.2122379
0.2108118
0.2080873
0.2076121
0.2094157
0.2053139
0.2067932
0.2081701
0.209378
0.2103568
0.2110534
0.2114169
0.2114083
0.2109783
0.2101464
0.2090505
0.2089188
0.2091864
0.2114174
0.2039068
0.2053617
0.2067242
0.2079223
0.208897
0.2096005
0.2099994
0.2100741
0.2098448
0.2093736
0.2088944
0.2089995
0.2092475
0.2098443
0.2122362
0.2025331
0.2039596
0.2053025
0.2064864
0.2074532
0.2081606
0.2085839
0.2087248
0.2086178
0.2083663
0.20814
0.2084426
0.2087202
0.2091378
0.2098761
0.212032
0.2011668
0.2025575
0.20387
0.2050288
0.2059774
0.2066771
0.2071098
0.2072829
0.2072449
0.2070915
0.2069956
0.2073645
0.2077338
0.2080811
0.2085622
0.2091489
0.2123462
0.1997966
0.2011436
0.2024137
0.2035346
0.2044525
0.2051313
0.2055547
0.2057326
0.2057102
0.2055867
0.2055187
0.2059114
0.2062848
0.2066623
0.2070192
0.2073366
0.208871
0.2120199
0.1984245
0.1997206
0.2009377
0.2020093
0.2028856
0.2035319
0.2039307
0.2040869
0.2040395
0.2038772
0.2037666
0.2041132
0.204461
0.2047986
0.2051485
0.2053299
0.2064855
0.2079512
0.2110534
0.1970629
0.1983034
0.1994603
0.2004756
0.2013038
0.2019108
0.2022747
0.2023899
0.2022765
0.2020051
0.2017483
0.2019863
0.2022358
0.2025076
0.2027903
0.2029584
0.2038943
0.2049451
0.2062942
0.2093238
0.1957338
0.1969171
0.1980129
0.1989718
0.1997526
0.2003207
0.2006485
0.2007137
0.2005022
0.2000251
0.1994245
0.1994447
0.1995312
0.1996785
0.1998835
0.1999878
0.2008396
0.2016402
0.2025303
0.2037007
0.2065076
0.1944645
0.195597
0.1966402
0.1975524
0.1982949
0.1988336
0.1991358
0.199164
0.198858
0.1980837
0.1964745
0.1961596
0.1960856
0.1961478
0.1962826
0.1963312
0.1970583
0.1977423
0.1983502
0.1990116
0.1998669
0.2023429
0.1903771
0.1910309
0.1915044
0.191852
0.1920941
0.1921083
0.1927248
0.1932709
0.1937452
0.1941113
0.1944337
0.1949483
0.197018
0.1864446
0.1871405
0.1876895
0.1880924
0.1883425
0.188319
0.1888395
0.1892978
0.1896657
0.1899349
0.1900204
0.1900563
0.1903263
0.1919976
0.1835937
0.184248
0.1847741
0.1851591
0.1853875
0.1853375
0.1858022
0.1862059
0.1865337
0.1867552
0.1868143
0.1867018
0.1865786
0.1866692
0.1880429
0.1815567
0.1821776
0.1826789
0.183046
0.1832617
0.18321
0.1836508
0.1840401
0.1843609
0.1845962
0.1846747
0.1846096
0.1844241
0.1842135
0.1842079
0.1802205
0.1808272
0.1813205
0.1816865
0.181909
0.1818779
0.1823243
0.1827268
0.1830742
0.1833487
0.1834951
0.1835107
0.1834381
0.1832439
0.1830226
0.1939475
0.1957803
0.1979593
0.1999295
0.2007364
0.2029203
0.2052397
0.2066938
0.2080409
0.2092212
0.2101766
0.2108517
0.2111869
0.2111184
0.2105272
0.209213
0.2065428
0.2057875
0.2056575
0.2075315
0.2038089
0.2052365
0.206564
0.2077279
0.208672
0.2093461
0.2097068
0.2097115
0.209333
0.2085534
0.2075607
0.2073217
0.2072642
0.2075951
0.2097966
0.2024491
0.203855
0.2051703
0.2063263
0.2072672
0.2079492
0.2083406
0.208429
0.2082264
0.2078135
0.2073746
0.2075155
0.2076356
0.2079027
0.208509
0.2106245
0.20112
0.2025001
0.203798
0.2049418
0.2058762
0.2065619
0.2069773
0.207124
0.2070421
0.2068218
0.2066454
0.206951
0.2072573
0.2075438
0.2079674
0.2085074
0.2117046
0.1997966
0.2011436
0.2024137
0.2035346
0.2044525
0.2051313
0.2055547
0.2057326
0.2057102
0.2055867
0.2055187
0.2059114
0.2062848
0.2066623
0.2070192
0.2073366
0.208871
0.2120199
0.1984683
0.1997742
0.2010048
0.2020902
0.2029795
0.2036387
0.2040533
0.2042337
0.2042262
0.2041244
0.2040857
0.2044874
0.2048887
0.205276
0.2056705
0.205891
0.207087
0.2085942
0.2116947
0.1971366
0.1983948
0.1995752
0.2006142
0.2014642
0.2020925
0.2024833
0.2026424
0.2026082
0.2024688
0.2023825
0.202744
0.2031073
0.2034799
0.2038489
0.20409
0.2050991
0.2062359
0.2076747
0.2107296
0.1958142
0.1970192
0.1981427
0.1991283
0.1999327
0.2005235
0.2008806
0.2009994
0.2009007
0.2006535
0.2004265
0.2006783
0.2009512
0.201248
0.2015753
0.201783
0.2027409
0.2036625
0.204695
0.2060181
0.2089352
0.1945215
0.1956727
0.1967377
0.1976697
0.1984288
0.1989826
0.1993046
0.1993747
0.1991803
0.1987337
0.1981733
0.1982165
0.198328
0.1985092
0.1987497
0.198917
0.1997806
0.200621
0.2014078
0.2022803
0.2033682
0.2061135
0.1932866
0.1943886
0.195404
0.1962912
0.1970142
0.1975396
0.1978369
0.1978707
0.1975839
0.1968489
0.1953156
0.1950353
0.194994
0.1950893
0.1952662
0.195368
0.1961359
0.1968534
0.1975261
0.1981205
0.1987129
0.1995303
0.2020498
0.1894197
0.1900758
0.1905618
0.1909331
0.1912092
0.1912804
0.1919337
0.1925409
0.1930764
0.1935385
0.1938437
0.1941384
0.1947019
0.1968292
0.1856016
0.1862998
0.1868596
0.1872832
0.1875668
0.1875959
0.1881585
0.1886702
0.1891188
0.1894757
0.1896896
0.1897529
0.1898374
0.1901639
0.191905
0.182823
0.1834814
0.1840187
0.1844241
0.1846839
0.1846844
0.1851865
0.1856431
0.1860379
0.1863559
0.1865266
0.1865669
0.1865014
0.1864325
0.1865879
0.180829
0.1814545
0.1819669
0.182353
0.1825977
0.1825913
0.1830662
0.1834996
0.1838809
0.1841927
0.1843807
0.1844427
0.1844231
0.1842895
0.1841396
0.1795123
0.1801231
0.1806261
0.1810089
0.1812569
0.1812657
0.1817401
0.1821797
0.1825748
0.182914
0.1831441
0.1832757
0.1833353
0.1833123
0.1831755
0.1911435
0.1919381
0.193705
0.1948318
0.1955063
0.197382
0.1989406
0.1994254
0.199912
0.2018119
0.2037374
0.2051409
0.2064399
0.2075775
0.2084994
0.2091531
0.2094869
0.2094351
0.2089044
0.2076719
0.2052041
0.2044031
0.2039918
0.2040453
0.2059403
0.2023546
0.2037343
0.2050161
0.2061395
0.2070513
0.2077053
0.2080603
0.2080822
0.2077385
0.2070346
0.2061146
0.2059391
0.2057865
0.2058111
0.2062055
0.2081866
0.2010389
0.2023991
0.2036707
0.2047876
0.2056974
0.2063588
0.2067438
0.2068404
0.2066678
0.2062948
0.2059187
0.206075
0.2062383
0.2063916
0.2066922
0.2071308
0.2102969
0.1997514
0.2010882
0.2023442
0.2034507
0.204355
0.2050204
0.2054274
0.20558
0.2055158
0.2053288
0.2051848
0.2055187
0.2058345
0.2061573
0.206464
0.2067361
0.2082287
0.2113783
0.1984683
0.1997742
0.2010048
0.2020902
0.2029795
0.2036387
0.2040533
0.2042337
0.2042262
0.2041244
0.2040857
0.2044874
0.2048887
0.205276
0.2056705
0.205891
0.207087
0.2085942
0.2116947
0.197179
0.1984467
0.1996401
0.2006925
0.2015549
0.2021956
0.2026015
0.2027838
0.2027878
0.2027061
0.2026883
0.2031016
0.2035149
0.2039333
0.2043425
0.2046178
0.2056613
0.2068383
0.2083182
0.2113705
0.1958857
0.1971077
0.198254
0.1992624
0.2000877
0.2006991
0.2010819
0.201243
0.2012203
0.2010996
0.2010355
0.2014042
0.2017842
0.2021745
0.2025808
0.202853
0.2038746
0.2048692
0.2059873
0.2073993
0.2103393
0.1945995
0.1957718
0.1968635
0.1978213
0.1986032
0.1991787
0.1995291
0.1996508
0.1995649
0.1993391
0.1991369
0.1994005
0.1996881
0.2000088
0.2003617
0.200622
0.2015783
0.2025245
0.203432
0.2044462
0.2056856
0.2085373
0.193342
0.1944621
0.1954986
0.196405
0.1971439
0.1976838
0.1980004
0.1980746
0.1978954
0.1974759
0.1969514
0.1970126
0.1971457
0.1973504
0.1976232
0.1978312
0.1987209
0.1995748
0.2004039
0.201177
0.2019798
0.2030281
0.2058134
0.1921385
0.1932129
0.1942012
0.1950654
0.1957694
0.1962825
0.1965749
0.1966136
0.1963442
0.1956449
0.1941806
0.1939304
0.1939155
0.1940387
0.1942461
0.194394
0.1951823
0.1959419
0.1966498
0.1973113
0.1978443
0.1984075
0.1992743
0.2018507
0.1884733
0.1891293
0.1896244
0.1900131
0.1903169
0.190431
0.1911138
0.1917588
0.1923566
0.1928816
0.1932879
0.1935701
0.1939139
0.1945347
0.1967326
0.1847636
0.185462
0.1860292
0.1864686
0.1867783
0.186851
0.1874423
0.1879969
0.1884999
0.1889387
0.1892444
0.189439
0.1895498
0.189689
0.190081
0.1820542
0.1827145
0.1832602
0.1836815
0.1839667
0.1840084
0.1845396
0.1850343
0.1854828
0.1858687
0.186139
0.186293
0.186379
0.1863657
0.1863579
0.1801017
0.1807301
0.1812508
0.1816523
0.1819208
0.1819525
0.1824531
0.1829212
0.1833472
0.1837203
0.1839876
0.1841606
0.1842666
0.1842969
0.1842209
0.1788048
0.179418
0.1799286
0.180325
0.1805943
0.1806368
0.1811331
0.1816012
0.1820339
0.1824215
0.1827187
0.1829352
0.1831093
0.1832165
0.1832482
0.1897553
0.1894342
0.1909188
0.1912708
0.1917195
0.1932279
0.1941875
0.1945808
0.1949943
0.196582
0.198062
0.1984725
0.1986699
0.1989453
0.2006233
0.2022856
0.2036422
0.2048967
0.205995
0.2068856
0.2075202
0.2078497
0.2078178
0.2073298
0.2061974
0.2038886
0.2031957
0.2027343
0.202515
0.2026714
0.204368
0.2009476
0.2022827
0.2035221
0.2046078
0.2054898
0.2061245
0.2064748
0.206508
0.2062011
0.2055523
0.2047222
0.2045854
0.2045001
0.2044399
0.2045469
0.2048173
0.2078598
0.1996729
0.2009906
0.2022213
0.2033021
0.2041828
0.204825
0.2052029
0.2053077
0.2051569
0.204825
0.2044923
0.2046869
0.2048714
0.2050742
0.2052734
0.2054492
0.2068505
0.2099709
0.1984245
0.1997206
0.2009377
0.2020093
0.2028856
0.2035319
0.2039307
0.2040869
0.2040395
0.2038772
0.2037666
0.2041132
0.204461
0.2047986
0.2051485
0.2053299
0.2064855
0.2079512
0.2110534
0.197179
0.1984467
0.1996401
0.2006925
0.2015549
0.2021956
0.2026015
0.2027838
0.2027878
0.2027061
0.2026883
0.2031016
0.2035149
0.2039333
0.2043425
0.2046178
0.2056613
0.2068383
0.2083182
0.2113705
0.1959268
0.1971581
0.1983168
0.1993381
0.2001755
0.2007987
0.2011961
0.2013794
0.2013935
0.2013279
0.2013291
0.2017468
0.2021737
0.2026066
0.2030496
0.2033522
0.2044034
0.2054323
0.2065905
0.2080431
0.2109794
0.1946689
0.1958577
0.1969713
0.1979512
0.1987532
0.1993486
0.1997237
0.1998861