/*--------------------------------*- C++ -*----------------------------------*\
| =========                 |                                                 |
| \\      /  F ield         | OpenFOAM: The Open Source CFD Toolbox           |
|  \\    /   O peration     | Version:  2306                                  |
|   \\  /    A nd           | Website:  www.openfoam.com                      |
|    \\/     M anipulation  |                                                 |
\*---------------------------------------------------------------------------*/
FoamFile
{
    version     2.0;
    format      ascii;
    arch        "LSB;label=32;scalar=64";
    class       volScalarField;
    location    "1.2/air";
    object      T;
}
// * * * * * * * * * * * * * * * * * * * * * * * * * * * * * * * * * * * * * //

dimensions      [0 0 0 1 0 0 0];

internalField   nonuniform List<scalar> 
16000
(
1141.104
1129.092
1155.067
1128.887
1122.494
1151.999
1099.8
1158.566
1151.952
1122.109
1118.766
1149.351
1081.791
1157.292
1142.901
1081.501
1161.39
1157.34
1149.248
1118.163
1117.041
1147.405
1071.04
1156.152
1134.978
1054.474
1160.78
1153.597
1134.851
1070.263
1163.877
1160.864
1156.231
1147.219
1116.148
1117.041
1146.375
1065.965
1155.281
1129.112
1037.592
1160.246
1150.186
1122.026
1036.93
1163.538
1159.127
1150.205
1128.745
1064.413
1166.126
1163.631
1160.397
1155.383
1146.074
1115.751
1155.028
1118.766
1146.375
1065.965
1154.807
1125.992
1029.413
1159.842
1147.552
1112.415
1015.461
1163.255
1157.564
1144.622
1112.073
1027.561
1165.908
1162.713
1157.643
1147.562
1125.264
1063.303
1168.185
1165.997
1163.423
1160.06
1154.933
1145.948
1116.947
1154.96
1157.7
1156.768
1122.494
1147.405
1071.04
1154.807
1125.992
1029.413
1159.623
1146.112
1107.27
1004.87
1163.047
1156.363
1140.259
1099.444
1003.422
1165.733
1161.911
1155.116
1140.225
1106.345
1025.762
1168.022
1165.434
1162.007
1156.533
1146.105
1124.833
1066.894
1170.086
1168.105
1165.896
1163.294
1159.921
1154.978
1146.884
1119.981
1154.808
1157.692
1156.668
1160.355
1159.3
1158.52
1129.092
1149.351
1081.791
1155.281
1129.112
1037.592
1159.623
1146.112
1107.27
1004.87
1162.936
1155.706
1137.859
1092.643
991.3916
1165.609
1161.309
1153.146
1134.436
1091.92
1001.078
1167.897
1164.959
1160.742
1153.248
1137.756
1105.593
1031.526
1169.951
1167.699
1165.055
1161.527
1156.003
1146.131
1127.574
1075.719
1171.85
1170.026
1168.047
1165.85
1163.277
1160.029
1155.553
1148.844
1125.582
1154.514
1157.677
1156.428
1160.36
1159.292
1158.393
1162.806
1161.766
1160.9
1160.287
1141.104
1151.999
1099.8
1156.152
1134.978
1054.474
1159.842
1147.552
1112.415
1015.461
1162.936
1155.706
1137.859
1092.643
991.3916
1165.545
1160.984
1152.06
1131.233
1084.12
988.7472
1167.81
1164.612
1159.777
1150.657
1131.126
1090.895
1008.478
1169.85
1167.368
1164.328
1159.923
1152.317
1137.729
1110.014
1045.398
1171.731
1169.697
1167.458
1164.834
1161.375
1156.206
1147.733
1133.309
1091.194
1173.491
1171.799
1169.987
1168.033
1165.879
1163.4
1160.408
1156.642
1151.766
1135.842
1153.685
1157.671
1155.91
1160.377
1159.281
1158.086
1162.816
1161.781
1160.892
1160.141
1165.064
1164.042
1163.175
1162.501
1162.072
1155.067
1128.887
1157.292
1142.901
1081.501
1160.246
1150.186
1122.026
1036.93
1163.047
1156.363
1140.259
1099.444
1003.422
1165.545
1160.984
1152.06
1131.233
1084.12
988.7472
1167.765
1164.429
1159.252
1149.219
1127.445
1082.938
997.0229
1169.781
1167.133
1163.79
1158.683
1149.383
1131.035
1096.627
1026.044
1171.642
1169.434
1166.965
1163.942
1159.624
1152.577
1140.277
1119.226
1068.742
1173.384
1171.512
1169.517
1167.342
1164.828
1161.626
1157.199
1150.795
1141.617
1116.665
1175.024
1173.445
1171.767
1169.984
1168.077
1166
1163.681
1161.071
1158.247
1155.762
1147.801
1157.77
1154.557
1160.43
1159.287
1157.431
1162.841
1161.823
1160.88
1159.793
1165.074
1164.063
1163.197
1162.492
1161.918
1167.151
1166.146
1165.273
1164.58
1164.102
1163.027
1158.566
1151.952
1122.109
1160.78
1153.597
1134.851
1070.263
1163.255
1157.564
1144.622
1112.073
1027.561
1165.609
1161.309
1153.146
1134.436
1091.92
1001.078
1167.765
1164.429
1159.252
1149.219
1127.445
1082.938
997.0229
1169.746
1167.011
1163.502
1158.002
1147.746
1127.311
1089.389
1016.536
1171.583
1169.251
1166.61
1163.271
1158.255
1149.67
1134.325
1108.528
1054.805
1173.304
1171.285
1169.132
1166.755
1163.891
1159.97
1154.109
1145.138
1132.31
1104.57
1174.925
1173.185
1171.36
1169.443
1167.388
1165.081
1162.325
1158.96
1155.081
1151.92
1140.655
1176.458
1174.981
1173.416
1171.768
1170.03
1168.188
1166.227
1164.144
1162.077
1160.643
1159.171
1149.997
1160.693
1159.416
1155.93
1162.909
1161.943
1160.883
1159.081
1165.101
1164.119
1163.257
1162.477
1161.553
1167.161
1166.169
1165.303
1164.607
1164.093
1162.872
1169.087
1168.104
1167.225
1166.499
1165.98
1164.949
1163.129
1161.39
1157.34
1149.248
1118.163
1163.538
1159.127
1150.205
1128.745
1064.413
1165.733
1161.911
1155.116
1140.225
1106.345
1025.762
1167.81
1164.612
1159.777
1150.657
1131.126
1090.895
1008.478
1169.746
1167.011
1163.502
1158.002
1147.746
1127.311
1089.389
1016.536
1171.553
1169.158
1166.424
1162.909
1157.498
1148.042
1131.011
1102.759
1048.056
1173.25
1171.129
1168.861
1166.327
1163.177
1158.658
1151.608
1140.589
1125.216
1097.113
1174.851
1172.98
1171.031
1168.995
1166.795
1164.245
1161.012
1156.809
1151.74
1147.888
1134.988
1176.366
1174.741
1173.048
1171.303
1169.503
1167.625
1165.627
1163.489
1161.441
1160.407
1158.34
1144.384
1177.802
1176.417
1174.954
1173.418
1171.811
1170.132
1168.382
1166.587
1164.868
1163.761
1163.242
1160.118
1152.342
1163.203
1162.357
1160.97
1157.626
1165.17
1164.266
1163.408
1162.465
1160.842
1167.187
1166.227
1165.382
1164.675
1164.072
1162.51
1169.097
1168.126
1167.257
1166.536
1166.009
1164.939
1162.974
1170.889
1169.931
1169.053
1168.298
1167.719
1166.717
1165.04
1163.232
1163.877
1160.864
1156.231
1147.219
1116.148
1165.908
1162.713
1157.643
1147.562
1125.264
1063.303
1167.897
1164.959
1160.742
1153.248
1137.756
1105.593
1031.526
1169.781
1167.133
1163.79
1158.683
1149.383
1131.035
1096.627
1026.044
1171.553
1169.158
1166.424
1162.909
1157.498
1148.042
1131.011
1102.759
1048.056
1173.223
1171.049
1168.721
1166.101
1162.789
1157.928
1150.2
1138.05
1121.39
1093.505
1174.802
1172.84
1170.802
1168.675
1166.357
1163.596
1159.946
1155.016
1148.955
1144.672
1131.18
1176.297
1174.552
1172.753
1170.924
1169.063
1167.129
1165.042
1162.733
1160.456
1159.408
1156.945
1139.684
1177.716
1176.194
1174.614
1172.999
1171.364
1169.721
1168.083
1166.5
1165.158
1164.696
1163.91
1159.539
1147.942
1179.064
1177.763
1176.391
1174.955
1173.457
1171.903
1170.302
1168.684
1167.163
1166.188
1165.912
1163.986
1161.278
1154.801
1165.456
1164.739
1163.823
1162.489
1159.531
1167.252
1166.375
1165.571
1164.83
1164.041
1161.82
1169.121
1168.182
1167.339
1166.628
1166.079
1164.916
1162.613
1170.898
1169.951
1169.084
1168.337
1167.76
1166.747
1165.03
1163.077
1172.571
1171.641
1170.771
1169.997
1169.365
1168.36
1166.796
1165.13
1163.335
1166.126
1163.631
1160.397
1155.383
1146.074
1115.751
1168.022
1165.434
1162.007
1156.533
1146.105
1124.833
1066.894
1169.85
1167.368
1164.328
1159.923
1152.317
1137.729
1110.014
1045.398
1171.583
1169.251
1166.61
1163.271
1158.255
1149.67
1134.325
1108.528
1054.805
1173.223
1171.049
1168.721
1166.101
1162.789
1157.928
1150.2
1138.05
1121.39
1093.505
1174.777
1172.769
1170.684
1168.509
1166.124
1163.239
1159.345
1153.993
1147.38
1142.908
1129.276
1176.251
1174.423
1172.548
1170.657
1168.746
1166.755
1164.565
1162.06
1159.512
1158.38
1155.696
1136.443
1177.652
1176.018
1174.342
1172.659
1170.997
1169.371
1167.79
1166.298
1165.071
1164.81
1163.899
1158.481
1144.115
1178.983
1177.554
1176.075
1174.568
1173.056
1171.563
1170.122
1168.801
1167.769
1167.467
1167.015
1164.62
1160.831
1151.386
1180.248
1179.027
1177.739
1176.392
1174.991
1173.542
1172.057
1170.567
1169.173
1168.267
1168.034
1166.536
1164.891
1162.565
1157.341
1167.517
1166.838
1166.06
1165.183
1164.001
1160.607
1169.181
1168.322
1167.529
1166.826
1166.22
1164.874
1161.926
1170.92
1170.004
1169.163
1168.432
1167.855
1166.815
1165.007
1162.716
1172.579
1171.66
1170.801
1170.035
1169.407
1168.401
1166.826
1165.121
1163.18
1174.144
1173.246
1172.39
1171.607
1170.935
1169.924
1168.429
1166.875
1165.221
1163.438
1168.185
1165.997
1163.423
1160.06
1154.933
1145.948
1116.947
1169.951
1167.699
1165.055
1161.527
1156.003
1146.131
1127.574
1075.719
1171.642
1169.434
1166.965
1163.942
1159.624
1152.577
1140.277
1119.226
1068.742
1173.25
1171.129
1168.861
1166.327
1163.177
1158.658
1151.608
1140.589
1125.216
1097.113
1174.777
1172.769
1170.684
1168.509
1166.124
1163.239
1159.345
1153.993
1147.38
1142.908
1129.276
1176.228
1174.358
1172.444
1170.52
1168.581
1166.552
1164.296
1161.665
1158.945
1157.76
1154.98
1134.805
1177.609
1175.898
1174.154
1172.422
1170.736
1169.113
1167.551
1166.075
1164.852
1164.658
1163.683
1157.502
1141.414
1178.923
1177.389
1175.821
1174.255
1172.729
1171.277
1169.946
1168.804
1168.015
1167.967
1167.476
1164.703
1160.024
1148.337
1180.172
1178.83
1177.442
1176.031
1174.62
1173.237
1171.922
1170.744
1169.852
1169.591
1169.217
1167.516
1165.421
1162.193
1154.752
1181.362
1180.213
1179.003
1177.738
1176.425
1175.068
1173.682
1172.294
1170.997
1170.134
1169.884
1168.572
1167.289
1165.882
1163.929
1158.71
1169.423
1168.754
1168.014
1167.261
1166.488
1164.804
1160.723
1170.976
1170.134
1169.345
1168.636
1168.043
1166.943
1164.964
1162.032
1172.6
1171.709
1170.875
1170.127
1169.508
1168.496
1166.894
1165.098
1162.82
1174.152
1173.263
1172.417
1171.642
1170.976
1169.968
1168.47
1166.905
1165.212
1163.284
1175.619
1174.753
1173.917
1173.134
1172.436
1171.426
1169.984
1168.497
1166.954
1165.312
1163.535
1170.086
1168.105
1165.896
1163.294
1159.921
1154.978
1146.884
1119.981
1171.731
1169.697
1167.458
1164.834
1161.375
1156.206
1147.733
1133.309
1091.194
1173.304
1171.285
1169.132
1166.755
1163.891
1159.97
1154.109
1145.138
1132.31
1104.57
1174.802
1172.84
1170.802
1168.675
1166.357
1163.596
1159.946
1155.016
1148.955
1144.672
1131.18
1176.228
1174.358
1172.444
1170.52
1168.581
1166.552
1164.296
1161.665
1158.945
1157.76
1154.98
1134.805
1177.587
1175.837
1174.058
1172.301
1170.602
1168.976
1167.415
1165.933
1164.691
1164.518
1163.516
1156.934
1140.034
1178.882
1177.277
1175.646
1174.038
1172.499
1171.071
1169.802
1168.754
1168.073
1168.139
1167.643
1164.586
1159.265
1146.144
1180.116
1178.676
1177.204
1175.739
1174.319
1172.985
1171.791
1170.817
1170.198
1170.201
1169.816
1167.98
1165.544
1161.576
1152.4
1181.291
1180.029
1178.725
1177.4
1176.078
1174.786
1173.564
1172.477
1171.659
1171.392
1171.025
1169.61
1168.099
1166.288
1163.604
1156.502
1182.409
1181.329
1180.191
1179.002
1177.768
1176.496
1175.196
1173.897
1172.68
1171.852
1171.57
1170.356
1169.22
1168.109
1166.92
1164.674
1158.857
1171.197
1170.53
1169.8
1169.074
1168.395
1167.163
1164.89
1160.84
1172.651
1171.829
1171.044
1170.322
1169.704
1168.672
1167.02
1165.053
1162.139
1174.171
1173.309
1172.487
1171.73
1171.074
1170.068
1168.564
1166.973
1165.188
1162.924
1175.626
1174.77
1173.943
1173.168
1172.476
1171.469
1170.028
1168.539
1166.984
1165.302
1163.381
1177.003
1176.172
1175.359
1174.584
1173.873
1172.871
1171.479
1170.044
1168.566
1167.032
1165.397
1163.61
1171.85
1170.026
1168.047
1165.85
1163.277
1160.029
1155.553
1148.844
1125.582
1173.384
1171.512
1169.517
1167.342
1164.828
1161.626
1157.199
1150.795
1141.617
1116.665
1174.851
1172.98
1171.031
1168.995
1166.795
1164.245
1161.012
1156.809
1151.74
1147.888
1134.988
1176.251
1174.423
1172.548
1170.657
1168.746
1166.755
1164.565
1162.06
1159.512
1158.38
1155.696
1136.443
1177.587
1175.837
1174.058
1172.301
1170.602
1168.976
1167.415
1165.933
1164.691
1164.518
1163.516
1156.934
1140.034
1178.862
1177.22
1175.557
1173.927
1172.38
1170.963
1169.721
1168.71
1168.07
1168.183
1167.688
1164.477
1158.821
1145.011
1180.078
1178.571
1177.041
1175.537
1174.108
1172.804
1171.686
1170.829
1170.351
1170.482
1170.111
1168.175
1165.493
1160.996
1150.678
1181.238
1179.884
1178.502
1177.127
1175.796
1174.553
1173.451
1172.567
1172.02
1172.005
1171.64
1170.182
1168.53
1166.417
1163.135
1154.484
1182.342
1181.156
1179.93
1178.685
1177.443
1176.231
1175.085
1174.068
1173.297
1173.014
1172.628
1171.354
1170.078
1168.744
1167.203
1164.365
1156.689
1183.394
1182.378
1181.308
1180.19
1179.03
1177.834
1176.614
1175.394
1174.249
1173.452
1173.141
1171.99
1170.924
1169.922
1168.963
1167.481
1164.754
1159.004
1172.852
1172.191
1171.464
1170.739
1170.067
1168.976
1167.235
1164.976
1160.959
1174.219
1173.42
1172.643
1171.913
1171.264
1170.254
1168.739
1167.097
1165.143
1162.247
1175.644
1174.813
1174.007
1173.249
1172.569
1171.567
1170.128
1168.633
1167.051
1165.279
1163.023
1177.01
1176.188
1175.384
1174.616
1173.91
1172.911
1171.522
1170.088
1168.607
1167.062
1165.388
1163.457
1178.305
1177.509
1176.723
1175.962
1175.246
1174.26
1172.917
1171.532
1170.104
1168.634
1167.106
1165.463
1163.67
1173.491
1171.799
1169.987
1168.033
1165.879
1163.4
1160.408
1156.642
1151.766
1135.842
1174.925
1173.185
1171.36
1169.443
1167.388
1165.081
1162.325
1158.96
1155.081
1151.92
1140.655
1176.297
1174.552
1172.753
1170.924
1169.063
1167.129
1165.042
1162.733
1160.456
1159.408
1156.945
1139.684
1177.609
1175.898
1174.154
1172.422
1170.736
1169.113
1167.551
1166.075
1164.852
1164.658
1163.683
1157.502
1141.414
1178.862
1177.22
1175.557
1173.927
1172.38
1170.963
1169.721
1168.71
1168.07
1168.183
1167.688
1164.477
1158.821
1145.011
1180.059
1178.517
1176.957
1175.433
1173.999
1172.71
1171.627
1170.823
1170.405
1170.591
1170.232
1168.241
1165.427
1160.655
1149.779
1181.202
1179.785
1178.348
1176.937
1175.6
1174.388
1173.362
1172.597
1172.197
1172.309
1171.966
1170.479
1168.73
1166.407
1162.703
1152.994
1182.292
1181.02
1179.72
1178.428
1177.179
1176.013
1174.981
1174.156
1173.641
1173.594
1173.215
1171.933
1170.593
1169.117
1167.314
1163.96
1154.706
1183.331
1182.216
1181.062
1179.892
1178.724
1177.584
1176.507
1175.549
1174.815
1174.516
1174.111
1172.916
1171.751
1170.601
1169.431
1167.701
1164.447
1156.875
1184.319
1183.365
1182.359
1181.307
1180.216
1179.091
1177.944
1176.796
1175.717
1174.952
1174.618
1173.517
1172.494
1171.539
1170.652
1169.422
1167.541
1164.835
1159.152
1174.403
1173.75
1173.029
1172.299
1171.614
1170.573
1169.038
1167.308
1165.063
1161.078
1175.688
1174.915
1174.153
1173.42
1172.749
1171.748
1170.312
1168.806
1167.174
1165.233
1162.349
1177.027
1176.228
1175.444
1174.692
1173.998
1173.005
1171.619
1170.187
1168.701
1167.13
1165.364
1163.099
1178.311
1177.524
1176.746
1175.991
1175.282
1174.298
1172.958
1171.574
1170.148
1168.676
1167.136
1165.453
1163.517
1179.529
1178.77
1178.012
1177.27
1176.559
1175.593
1174.301
1172.964
1171.584
1170.164
1168.698
1167.162
1165.514
1163.715
1175.024
1173.445
1171.767
1169.984
1168.077
1166
1163.681
1161.071
1158.247
1155.762
1147.801
1176.366
1174.741
1173.048
1171.303
1169.503
1167.625
1165.627
1163.489
1161.441
1160.407
1158.34
1144.384
1177.652
1176.018
1174.342
1172.659
1170.997
1169.371
1167.79
1166.298
1165.071
1164.81
1163.899
1158.481
1144.115
1178.882
1177.277
1175.646
1174.038
1172.499
1171.071
1169.802
1168.754
1168.073
1168.139
1167.643
1164.586
1159.265
1146.144
1180.059
1178.517
1176.957
1175.433
1173.999
1172.71
1171.627
1170.823
1170.405
1170.591
1170.232
1168.241
1165.427
1160.655
1149.779
1181.185
1179.735
1178.27
1176.84
1175.499
1174.302
1173.312
1172.603
1172.267
1172.435
1172.108
1170.604
1168.806
1166.372
1162.451
1152.211
1182.259
1180.927
1179.576
1178.25
1176.994
1175.858
1174.899
1174.189
1173.815
1173.888
1173.535
1172.251
1170.874
1169.307
1167.328
1163.596
1153.24
1183.284
1182.088
1180.866
1179.65
1178.475
1177.379
1176.408
1175.628
1175.132
1175.052
1174.656
1173.466
1172.269
1171.042
1169.735
1167.798
1164.049
1154.927
1184.26
1183.212
1182.128
1181.027
1179.928
1178.856
1177.841
1176.936
1176.235
1175.926
1175.505
1174.367
1173.263
1172.196
1171.162
1169.808
1167.755
1164.529
1157.061
1185.188
1184.292
1183.346
1182.358
1181.331
1180.273
1179.194
1178.114
1177.095
1176.362
1176.014
1174.958
1173.968
1173.038
1172.175
1171.043
1169.471
1167.602
1164.915
1159.3
1175.858
1175.219
1174.507
1173.777
1173.078
1172.059
1170.627
1169.1
1167.38
1165.149
1161.19
1177.068
1176.323
1175.579
1174.851
1174.166
1173.177
1171.8
1170.371
1168.873
1167.251
1165.317
1162.428
1178.327
1177.561
1176.802
1176.063
1175.364
1174.386
1173.051
1171.672
1170.247
1168.769
1167.203
1165.429
1163.16
1179.535
1178.784
1178.034
1177.298
1176.592
1175.629
1174.34
1173.005
1171.627
1170.207
1168.74
1167.192
1165.504
1163.561
1180.682
1179.959
1179.232
1178.512
1177.812
1176.871
1175.63
1174.342
1173.01
1171.637
1170.22
1168.746
1167.205
1165.551
1163.743
1153.685
1176.458
1174.981
1173.416
1171.768
1170.03
1168.188
1166.227
1164.144
1162.077
1160.643
1159.171
1149.997
1177.716
1176.194
1174.614
1172.999
1171.364
1169.721
1168.083
1166.5
1165.158
1164.696
1163.91
1159.539
1147.942
1178.923
1177.389
1175.821
1174.255
1172.729
1171.277
1169.946
1168.804
1168.015
1167.967
1167.476
1164.703
1160.024
1148.337
1180.078
1178.571
1177.041
1175.537
1174.108
1172.804
1171.686
1170.829
1170.351
1170.482
1170.111
1168.175
1165.493
1160.996
1150.678
1181.185
1179.735
1178.27
1176.84
1175.499
1174.302
1173.312
1172.603
1172.267
1172.435
1172.108
1170.604
1168.806
1166.372
1162.451
1152.211
1182.243
1180.88
1179.502
1178.159
1176.899
1175.777
1174.853
1174.197
1173.886
1174.014
1173.678
1172.392
1170.996
1169.385
1167.315
1163.385
1152.47
1183.253
1182.001
1180.73
1179.483
1178.302
1177.233
1176.33
1175.658
1175.295
1175.328
1174.958
1173.775
1172.565
1171.295
1169.904
1167.819
1163.692
1153.486
1184.216
1183.092
1181.943
1180.8
1179.694
1178.661
1177.746
1177.006
1176.526
1176.419
1176.009
1174.878
1173.755
1172.64
1171.52
1170.072
1167.85
1164.137
1155.147
1185.133
1184.149
1183.13
1182.094
1181.061
1180.051
1179.095
1178.24
1177.571
1177.257
1176.828
1175.737
1174.677
1173.654
1172.676
1171.47
1169.848
1167.809
1164.611
1157.247
1186.004
1185.164
1184.275
1183.346
1182.381
1181.385
1180.369
1179.352
1178.391
1177.691
1177.336
1176.323
1175.366
1174.456
1173.602
1172.516
1171.085
1169.521
1167.662
1164.996
1159.439
1177.225
1176.604
1175.906
1175.182
1174.473
1173.472
1172.106
1170.68
1169.161
1167.451
1165.23
1161.279
1178.365
1177.651
1176.928
1176.212
1175.522
1174.549
1173.223
1171.851
1170.429
1168.94
1167.323
1165.381
1162.492
1179.55
1178.819
1178.087
1177.365
1176.67
1175.712
1174.428
1173.098
1171.724
1170.307
1168.833
1167.259
1165.48
1163.206
1180.687
1179.972
1179.253
1178.538
1177.843
1176.906
1175.666
1174.381
1173.051
1171.679
1170.263
1168.787
1167.235
1165.541
1163.59
1181.767
1181.081
1180.386
1179.691
1179.007
1178.096
1176.905
1175.667
1174.384
1173.057
1171.686
1170.261
1168.782
1167.235
1165.573
1154.514
1157.77
1154.557
1177.802
1176.417
1174.954
1173.418
1171.811
1170.132
1168.382
1166.587
1164.868
1163.761
1163.242
1160.118
1152.342
1178.983
1177.554
1176.075
1174.568
1173.056
1171.563
1170.122
1168.801
1167.769
1167.467
1167.015
1164.62
1160.831
1151.386
1180.116
1178.676
1177.204
1175.739
1174.319
1172.985
1171.791
1170.817
1170.198
1170.201
1169.816
1167.98
1165.544
1161.576
1152.4
1181.202
1179.785
1178.348
1176.937
1175.6
1174.388
1173.362
1172.597
1172.197
1172.309
1171.966
1170.479
1168.73
1166.407
1162.703
1152.994
1182.243
1180.88
1179.502
1178.159
1176.899
1175.777
1174.853
1174.197
1173.886
1174.014
1173.678
1172.392
1170.996
1169.385
1167.315
1163.385
1152.47
1183.237
1181.956
1180.661
1179.397
1178.213
1177.157
1176.287
1175.666
1175.363
1175.447
1175.093
1173.914
1172.699
1171.409
1169.977
1167.814
1163.485
1152.728
1184.187
1183.01
1181.816
1180.643
1179.531
1178.524
1177.671
1177.033
1176.676
1176.674
1176.289
1175.168
1174.042
1172.904
1171.739
1170.228
1167.872
1163.787
1153.73
1185.092
1184.037
1182.957
1181.882
1180.841
1179.868
1179.004
1178.303
1177.839
1177.711
1177.293
1176.209
1175.135
1174.077
1173.039
1171.785
1170.109
1167.902
1164.226
1155.366
1185.952
1185.03
1184.073
1183.099
1182.127
1181.177
1180.276
1179.468
1178.831
1178.517
1178.086
1177.039
1176.017
1175.026
1174.076
1172.941
1171.504
1169.889
1167.863
1164.694
1157.421
1186.769
1185.982
1185.148
1184.275
1183.368
1182.431
1181.475
1180.517
1179.611
1178.944
1178.589
1177.619
1176.694
1175.806
1174.961
1173.904
1172.553
1171.127
1169.57
1167.723
1165.073
1159.552
1178.512
1177.911
1177.232
1176.518
1175.808
1174.825
1173.514
1172.154
1170.734
1169.223
1167.519
1165.292
1161.353
1179.586
1178.903
1178.206
1177.505
1176.819
1175.866
1174.59
1173.269
1171.903
1170.487
1169.002
1167.377
1165.43
1162.54
1180.702
1180.006
1179.303
1178.603
1177.917
1176.984
1175.75
1174.469
1173.144
1171.777
1170.362
1168.88
1167.301
1165.516
1163.234
1181.773
1181.094
1180.406
1179.716
1179.037
1178.128
1176.939
1175.704
1174.422
1173.098
1171.729
1170.304
1168.823
1167.265
1165.563
1182.79
1182.14
1181.478
1180.81
1180.146
1179.266
1178.126
1176.938
1175.704
1174.425
1173.1
1171.721
1170.29
1168.805
1167.251
1154.808
1157.671
1155.91
1160.693
1159.416
1155.93
1179.064
1177.763
1176.391
1174.955
1173.457
1171.903
1170.302
1168.684
1167.163
1166.188
1165.912
1163.986
1161.278
1154.801
1180.172
1178.83
1177.442
1176.031
1174.62
1173.237
1171.922
1170.744
1169.852
1169.591
1169.217
1167.516
1165.421
1162.193
1154.752
1181.238
1179.884
1178.502
1177.127
1175.796
1174.553
1173.451
1172.567
1172.02
1172.005
1171.64
1170.182
1168.53
1166.417
1163.135
1154.484
1182.259
1180.927
1179.576
1178.25
1176.994
1175.858
1174.899
1174.189
1173.815
1173.888
1173.535
1172.251
1170.874
1169.307
1167.328
1163.596
1153.24
1183.237
1181.956
1180.661
1179.397
1178.213
1177.157
1176.287
1175.666
1175.363
1175.447
1175.093
1173.914
1172.699
1171.409
1169.977
1167.814
1163.485
1152.728
1184.172
1182.969
1181.751
1180.562
1179.447
1178.453
1177.631
1177.039
1176.738
1176.785
1176.416
1175.301
1174.173
1173.027
1171.841
1170.297
1167.868
1163.584
1152.984
1185.064
1183.96
1182.837
1181.734
1180.688
1179.739
1178.933
1178.325
1177.976
1177.947
1177.553
1176.479
1175.405
1174.333
1173.267
1171.983
1170.262
1167.924
1163.883
1153.972
1185.914
1184.924
1183.91
1182.9
1181.921
1181.005
1180.19
1179.525
1179.078
1178.937
1178.516
1177.476
1176.441
1175.421
1174.425
1173.261
1171.814
1170.145
1167.955
1164.314
1155.571
1186.72
1185.856
1184.958
1184.044
1183.13
1182.236
1181.388
1180.625
1180.02
1179.711
1179.284
1178.28
1177.295
1176.333
1175.404
1174.309
1172.969
1171.537
1169.93
1167.917
1164.771
1157.565
1187.485
1186.748
1185.968
1185.149
1184.296
1183.416
1182.516
1181.615
1180.76
1180.127
1179.777
1178.85
1177.959
1177.094
1176.261
1175.231
1173.937
1172.59
1171.169
1169.62
1167.78
1165.129
1159.648
1179.723
1179.146
1178.488
1177.79
1177.086
1176.125
1174.863
1173.556
1172.201
1170.787
1169.28
1167.568
1165.338
1161.41
1180.736
1180.085
1179.415
1178.734
1178.057
1177.129
1175.902
1174.63
1173.314
1171.954
1170.542
1169.048
1167.418
1165.465
1162.572
1181.786
1181.126
1180.454
1179.777
1179.107
1178.203
1177.018
1175.787
1174.51
1173.19
1171.826
1170.403
1168.915
1167.33
1165.537
1182.795
1182.152
1181.497
1180.834
1180.175
1179.297
1178.159
1176.973
1175.741
1174.464
1173.141
1171.764
1170.334
1168.846
1167.28
1183.752
1183.139
1182.51
1181.872
1181.23
1180.384
1179.294
1178.156
1176.972
1175.741
1174.464
1173.131
1171.745
1170.308
1168.816
1154.96
1157.677
1156.428
1160.43
1159.287
1157.431
1163.203
1162.357
1160.97
1157.626
1180.248
1179.027
1177.739
1176.392
1174.991
1173.542
1172.057
1170.567
1169.173
1168.267
1168.034
1166.536
1164.891
1162.565
1157.341
1181.291
1180.029
1178.725
1177.4
1176.078
1174.786
1173.564
1172.477
1171.659
1171.392
1171.025
1169.61
1168.099
1166.288
1163.604
1156.502
1182.292
1181.02
1179.72
1178.428
1177.179
1176.013
1174.981
1174.156
1173.641
1173.594
1173.215
1171.933
1170.593
1169.117
1167.314
1163.96
1154.706
1183.253
1182.001
1180.73
1179.483
1178.302
1177.233
1176.33
1175.658
1175.295
1175.328
1174.958
1173.775
1172.565
1171.295
1169.904
1167.819
1163.692
1153.486
1184.172
1182.969
1181.751
1180.562
1179.447
1178.453
1177.631
1177.039
1176.738
1176.785
1176.416
1175.301
1174.173
1173.027
1171.841
1170.297
1167.868
1163.584
1152.984
1185.051
1183.921
1182.776
1181.659
1180.609
1179.672
1178.895
1178.331
1178.034
1178.05
1177.671
1176.603
1175.53
1174.454
1173.376
1172.078
1170.332
1167.922
1163.684
1153.239
1185.888
1184.852
1183.798
1182.761
1181.777
1180.883
1180.123
1179.545
1179.205
1179.157
1178.758
1177.727
1176.693
1175.664
1174.647
1173.468
1172.01
1170.297
1167.977
1163.978
1154.199
1186.684
1185.758
1184.806
1183.857
1182.937
1182.075
1181.307
1180.678
1180.25
1180.102
1179.684
1178.685
1177.688
1176.701
1175.733
1174.619
1173.285
1171.842
1170.182
1168.007
1164.397
1155.743
1187.439
1186.631
1185.79
1184.933
1184.074
1183.234
1182.435
1181.717
1181.144
1180.843
1180.424
1179.464
1178.515
1177.583
1176.675
1175.613
1174.335
1172.998
1171.571
1169.971
1167.968
1164.828
1157.69
1188.153
1187.466
1186.736
1185.968
1185.169
1184.342
1183.496
1182.648
1181.843
1181.244
1180.903
1180.019
1179.163
1178.325
1177.508
1176.505
1175.26
1173.969
1172.627
1171.211
1169.666
1167.82
1165.17
1159.727
1180.864
1180.313
1179.679
1179.001
1178.309
1177.373
1176.159
1174.9
1173.597
1172.247
1170.837
1169.321
1167.603
1165.369
1161.449
1181.819
1181.201
1180.559
1179.901
1179.24
1178.34
1177.162
1175.939
1174.671
1173.359
1172.002
1170.581
1169.081
1167.444
1165.484
1182.808
1182.183
1181.542
1180.892
1180.241
1179.368
1178.233
1177.051
1175.824
1174.551
1173.234
1171.86
1170.432
1168.938
1167.345
1183.757
1183.151
1182.528
1181.895
1181.258
1180.413
1179.325
1178.189
1177.006
1175.778
1174.502
1173.171
1171.788
1170.352
1168.856
1184.658
1184.081
1183.486
1182.878
1182.262
1181.45
1180.409
1179.321
1178.187
1177.005
1175.776
1174.49
1173.151
1171.759
1170.314
1155.028
1157.692
1156.668
1160.377
1159.281
1158.086
1162.909
1161.943
1160.883
1159.081
1165.456
1164.739
1163.823
1162.489
1159.531
1181.362
1180.213
1179.003
1177.738
1176.425
1175.068
1173.682
1172.294
1170.997
1170.134
1169.884
1168.572
1167.289
1165.882
1163.929
1158.71
1182.342
1181.156
1179.93
1178.685
1177.443
1176.231
1175.085
1174.068
1173.297
1173.014
1172.628
1171.354
1170.078
1168.744
1167.203
1164.365
1156.689
1183.284
1182.088
1180.866
1179.65
1178.475
1177.379
1176.408
1175.628
1175.132
1175.052
1174.656
1173.466
1172.269
1171.042
1169.735
1167.798
1164.049
1154.927
1184.187
1183.01
1181.816
1180.643
1179.531
1178.524
1177.671
1177.033
1176.676
1176.674
1176.289
1175.168
1174.042
1172.904
1171.739
1170.228
1167.872
1163.787
1153.73
1185.051
1183.921
1182.776
1181.659
1180.609
1179.672
1178.895
1178.331
1178.034
1178.05
1177.671
1176.603
1175.53
1174.454
1173.376
1172.078
1170.332
1167.922
1163.684
1153.239
1185.875
1184.816
1183.741
1182.69
1181.703
1180.82
1180.086
1179.549
1179.258
1179.252
1178.868
1177.842
1176.81
1175.778
1174.754
1173.569
1172.104
1170.366
1167.975
1163.783
1153.476
1186.66
1185.69
1184.701
1183.728
1182.802
1181.961
1181.244
1180.697
1180.368
1180.307
1179.91
1178.919
1177.923
1176.928
1175.944
1174.822
1173.49
1172.036
1170.333
1168.03
1164.067
1154.391
1187.405
1186.539
1185.648
1184.758
1183.894
1183.084
1182.361
1181.767
1181.359
1181.209
1180.798
1179.841
1178.881
1177.926
1176.983
1175.907
1174.64
1173.31
1171.871
1170.219
1168.056
1164.459
1155.896
1188.11
1187.357
1186.571
1185.767
1184.962
1184.173
1183.423
1182.746
1182.205
1181.915
1181.509
1180.591
1179.68
1178.78
1177.895
1176.864
1175.635
1174.36
1173.027
1171.605
1170.01
1168.002
1164.87
1157.798
1188.775
1188.136
1187.455
1186.737
1185.988
1185.212
1184.418
1183.621
1182.864
1182.298
1181.97
1181.128
1180.308
1179.499
1178.703
1177.729
1176.531
1175.289
1174.002
1172.663
1171.251
1169.697
1167.846
1165.197
1159.787
1181.94
1181.416
1180.808
1180.153
1179.477
1178.57
1177.404
1176.193
1174.938
1173.639
1172.291
1170.872
1169.349
1167.625
1165.385
1182.839
1182.254
1181.643
1181.01
1180.367
1179.498
1178.37
1177.195
1175.975
1174.711
1173.402
1172.035
1170.608
1169.101
1167.457
1183.77
1183.18
1182.572
1181.95
1181.321
1180.481
1179.396
1178.264
1177.085
1175.861
1174.59
1173.264
1171.884
1170.449
1168.947
1184.663
1184.093
1183.504
1182.9
1182.288
1181.478
1180.439
1179.353
1178.219
1177.04
1175.812
1174.529
1173.192
1171.802
1170.357
1185.51
1184.969
1184.408
1183.831
1183.242
1182.466
1181.474
1180.435
1179.349
1178.217
1177.036
1175.799
1174.507
1173.161
1171.761
1157.7
1156.768
1160.36
1159.292
1158.393
1162.841
1161.823
1160.88
1159.793
1165.17
1164.266
1163.408
1162.465
1160.842
1167.517
1166.838
1166.06
1165.183
1164.001
1160.607
1182.409
1181.329
1180.191
1179.002
1177.768
1176.496
1175.196
1173.897
1172.68
1171.852
1171.57
1170.356
1169.22
1168.109
1166.92
1164.674
1158.857
1183.331
1182.216
1181.062
1179.892
1178.724
1177.584
1176.507
1175.549
1174.815
1174.516
1174.111
1172.916
1171.751
1170.601
1169.431
1167.701
1164.447
1156.875
1184.216
1183.092
1181.943
1180.8
1179.694
1178.661
1177.746
1177.006
1176.526
1176.419
1176.009
1174.878
1173.755
1172.64
1171.52
1170.072
1167.85
1164.137
1155.147
1185.064
1183.96
1182.837
1181.734
1180.688
1179.739
1178.933
1178.325
1177.976
1177.947
1177.553
1176.479
1175.405
1174.333
1173.267
1171.983
1170.262
1167.924
1163.883
1153.972
1185.875
1184.816
1183.741
1182.69
1181.703
1180.82
1180.086
1179.549
1179.258
1179.252
1178.868
1177.842
1176.81
1175.778
1174.754
1173.569
1172.104
1170.366
1167.975
1163.783
1153.476
1186.648
1185.656
1184.648
1183.662
1182.733
1181.902
1181.21
1180.7
1180.418
1180.396
1180.013
1179.027
1178.032
1177.036
1176.046
1174.921
1173.59
1172.129
1170.401
1168.029
1163.876
1153.678
1187.383
1186.476
1185.55
1184.637
1183.768
1182.977
1182.302
1181.785
1181.47
1181.4
1181.01
1180.06
1179.101
1178.139
1177.182
1176.1
1174.841
1173.512
1172.063
1170.368
1168.08
1164.134
1154.563
1188.079
1187.271
1186.438
1185.605
1184.794
1184.034
1183.354
1182.795
1182.408
1182.259
1181.86
1180.944