/*--------------------------------*- C++ -*----------------------------------*\
| =========                 |                                                 |
| \\      /  F ield         | OpenFOAM: The Open Source CFD Toolbox           |
|  \\    /   O peration     | Version:  2306                                  |
|   \\  /    A nd           | Website:  www.openfoam.com                      |
|    \\/     M anipulation  |                                                 |
\*---------------------------------------------------------------------------*/
FoamFile
{
    version     2.0;
    format      ascii;
    arch        "LSB;label=32;scalar=64";
    class       volVectorField;
    location    "1.2/air";
    object      U;
}
// * * * * * * * * * * * * * * * * * * * * * * * * * * * * * * * * * * * * * //

dimensions      [0 1 -1 0 0 0 0];

internalField   nonuniform List<vector> 
16000
(
(0.4295318 0.0617827 -0.06192086)
(0.7546241 0.1162796 -0.09552402)
(0.4554012 0.005123035 -0.004943824)
(0.7548032 0.09508933 -0.1177963)
(0.8962663 0.09966036 -0.0957991)
(0.8910335 0.01268003 -0.009235266)
(1.487629 0.1949758 -0.1989203)
(0.3302423 -0.001751971 0.001775166)
(0.8912992 0.00941985 -0.01211297)
(0.8967927 0.09512155 -0.1036923)
(0.9585052 0.06264929 -0.09341845)
(1.125043 0.01295913 -0.009573865)
(1.857526 0.1821495 -0.2181451)
(0.6824487 -0.002432178 0.002998048)
(1.95581 0.02499516 -0.02460656)
(1.858391 0.2123358 -0.1918598)
(0.3847669 0.001076294 -0.001072657)
(0.6827147 -0.002972971 0.002506824)
(1.126313 0.009709959 -0.0122551)
(0.95947 0.0925224 -0.07004638)
(0.9795195 0.02137272 -0.09214761)
(1.253913 0.008594806 -0.009204187)
(2.029864 0.12053 -0.2193131)
(0.8915568 -0.00227591 0.003253034)
(2.581205 0.02996228 -0.03104897)
(2.338244 0.2116293 -0.2257924)
(0.7837376 0.001780776 -0.001920049)
(1.568459 -0.004355681 0.00440706)
(2.583687 0.03079909 -0.03008736)
(2.032093 0.2119044 -0.1376738)
(0.3546633 -0.0005482517 0.0005576365)
(0.7839812 0.001890123 -0.001884938)
(0.8928552 -0.003245917 0.002347478)
(1.25749 0.0092452 -0.008080967)
(0.9810474 0.09091676 -0.03284023)
(0.9795195 -0.02137272 -0.09214761)
(1.313505 0.00284066 -0.008870568)
(2.08186 0.04209248 -0.2193263)
(1.011685 -0.001558266 0.00339112)
(2.93614 0.02267187 -0.0324983)
(2.571761 0.1445036 -0.2319452)
(1.015672 0.001726488 -0.002090118)
(2.139104 -0.004218614 0.005357578)
(3.519126 0.03483634 -0.03618074)
(2.574036 0.2144506 -0.1688346)
(0.7290759 -0.0009665513 0.000952451)
(1.779639 0.003023656 -0.003388328)
(2.141624 -0.0054531 0.004184499)
(2.945003 0.03145383 -0.02391605)
(2.085006 0.2103453 -0.06785757)
(0.3716316 0.0003539906 -0.000344432)
(0.7293091 -0.0009732641 0.0008944609)
(1.016905 0.002028244 -0.002081797)
(1.015245 -0.003423778 0.001499647)
(1.321429 0.008783479 -0.002889099)
(0.9828816 0.09035631 0.005121228)
(0.0004559747 -0.001220413 -0.0005842359)
(0.9585052 -0.06264929 -0.09341845)
(1.313505 -0.00284066 -0.008870568)
(2.08186 -0.04209248 -0.2193263)
(1.067898 -0.0005686842 0.003501348)
(3.110526 0.008025667 -0.03027285)
(2.660268 0.05077288 -0.231298)
(1.148723 0.00111166 -0.00208582)
(2.481189 -0.002858867 0.005973152)
(4.056346 0.02776676 -0.03940308)
(2.841838 0.148685 -0.1776979)
(0.9502681 -0.0009603566 0.001018985)
(2.408724 0.003001072 -0.003757246)
(2.982326 -0.005599454 0.005284489)
(4.064755 0.03660671 -0.03088606)
(2.666944 0.2109538 -0.08577779)
(0.7604019 0.0005751236 -0.0006388945)
(1.669993 -0.001830793 0.001521985)
(2.41119 0.003162034 -0.003954954)
(2.489843 -0.006334553 0.002532437)
(3.132651 0.02810121 -0.01065306)
(2.088972 0.2086149 0.007552578)
(0.3621577 -0.0001491632 0.0001598963)
(0.7606394 0.0006147786 -0.0006571203)
(0.9514498 -0.001070931 0.0006731891)
(1.152171 0.001990365 -0.001848606)
(1.075406 -0.003615091 0.0001443521)
(1.328018 0.008580281 0.001671564)
(0.9673721 0.0908503 0.04092853)
(0.0004708833 -0.003532123 -0.0006039938)
(0.0004819856 -0.001077725 -0.0005350047)
(0.0004594422 -0.001223067 -0.001135245)
(0.8962663 -0.09966036 -0.0957991)
(1.253913 -0.008594806 -0.009204187)
(2.029864 -0.12053 -0.2193131)
(1.067898 0.0005686842 0.003501348)
(3.110526 -0.008025667 -0.03027285)
(2.660268 -0.05077288 -0.231298)
(1.21007 0.0003725961 -0.002067328)
(2.642095 -0.001054905 0.006357702)
(4.303401 0.01047637 -0.03961664)
(2.94712 0.05271283 -0.1788976)
(1.078716 -0.0006413525 0.001024336)
(2.781689 0.001975465 -0.003687966)
(3.49787 -0.003648316 0.006006323)
(4.715972 0.02938895 -0.03446232)
(2.952865 0.1467049 -0.09292358)
(0.9882846 0.0005570503 -0.0007190297)
(2.272774 -0.001942658 0.001715192)
(3.332146 0.003103268 -0.004500146)
(3.506267 -0.006747806 0.002946204)
(4.328517 0.03523485 -0.01560233)
(2.67679 0.2082804 0.005730871)
(0.7430713 -0.0002665162 0.0002491074)
(1.734044 0.0009332432 -0.00127741)
(2.275144 -0.002247064 0.001101867)
(2.790248 0.002865813 -0.00372794)
(2.661843 -0.007160534 7.955088e-05)
(3.153156 0.02658977 0.003424651)
(2.053734 0.2062453 0.07829694)
(0.3672399 0.0001297831 -0.0001199619)
(0.7433066 -0.0002680239 0.0002021066)
(0.9894832 0.0006609818 -0.0008762237)
(1.082022 -0.001108657 1.924917e-05)
(1.217437 0.001915298 -0.001649908)
(1.081418 -0.00377027 -0.001774866)
(1.277123 0.008514897 0.005624896)
(0.9159963 0.09271813 0.07218162)
(0.0004975372 -0.006372066 -0.000648732)
(0.0005032781 -0.003120437 -0.0005509628)
(0.00047438 -0.003545812 -0.001182481)
(0.0003303728 -0.00101402 -0.0004940863)
(0.00048393 -0.001080689 -0.001039252)
(0.0004568986 -0.001215978 -0.003102755)
(0.7546241 -0.1162796 -0.09552402)
(1.125043 -0.01295913 -0.009573865)
(1.857526 -0.1821495 -0.2181451)
(1.011685 0.001558266 0.00339112)
(2.93614 -0.02267187 -0.0324983)
(2.571761 -0.1445036 -0.2319452)
(1.21007 -0.0003725961 -0.002067328)
(2.642095 0.001054905 0.006357702)
(4.303401 -0.01047637 -0.03961664)
(2.94712 -0.05271283 -0.1788976)
(1.138366 -0.0002226622 0.001027101)
(2.955827 0.0006707186 -0.003574134)
(3.742276 -0.001258972 0.006356922)
(5.01369 0.01111487 -0.03525861)
(3.065314 0.05214987 -0.09494023)
(1.119896 0.00035708 -0.0007357342)
(2.634106 -0.001368274 0.001800069)
(3.891119 0.002028595 -0.004451441)
(4.138192 -0.004430254 0.003290131)
(5.0325 0.02848827 -0.01829005)
(2.964982 0.1445579 0.003138299)
(0.9674172 -0.0002587035 0.0002461709)
(2.353516 0.000922052 -0.001526794)
(3.161061 -0.002493753 0.001216286)
(3.899531 0.002687464 -0.004389471)
(3.766986 -0.007716227 -6.857005e-05)
(4.355691 0.0337306 0.003540872)
(2.609799 0.2068066 0.09207071)
(0.7523963 0.0002096619 -0.0002426169)
(1.698977 -0.0005429959 0.0002462485)
(2.355914 0.0009390228 -0.001854188)
(2.642339 -0.002546539 -0.0001967495)
(2.975467 0.002434637 -0.00343803)
(2.678852 -0.00786678 -0.00324513)
(3.003266 0.02767703 0.01557831)
(1.913285 0.203163 0.1346818)
(0.364174 -2.890063e-05 3.855312e-05)
(0.7526327 0.0002228849 -0.0002765993)
(0.9686032 -0.0002963303 -1.278925e-05)
(1.123245 0.0006443814 -0.001038922)
(1.145442 -0.001163694 -0.0008731936)
(1.223605 0.001798355 -0.001715052)
(1.033868 -0.003932597 -0.004082113)
(1.161394 0.008494378 0.008062055)
(0.7941742 0.09379478 0.08064117)
(0.0005465733 -0.008354299 -0.0009976743)
(0.0005416302 -0.005605755 -0.000587572)
(0.0005010515 -0.006284643 -0.001276574)
(0.0003444773 -0.002935936 -0.0005084455)
(0.0005052401 -0.003134496 -0.001077926)
(0.0004716571 -0.003513792 -0.003172185)
(0.0004860901 -0.0009405316 -0.0004614562)
(0.0003312801 -0.00101721 -0.0009599613)
(0.0004802153 -0.001075232 -0.002842347)
(0.0004489278 -0.001189447 -0.001060786)
(0.4295318 -0.0617827 -0.06192086)
(0.8910335 -0.01268003 -0.009235266)
(1.487629 -0.1949758 -0.1989203)
(0.8915568 0.00227591 0.003253034)
(2.581205 -0.02996228 -0.03104897)
(2.338244 -0.2116293 -0.2257924)
(1.148723 -0.00111166 -0.00208582)
(2.481189 0.002858867 0.005973152)
(4.056346 -0.02776676 -0.03940308)
(2.841838 -0.148685 -0.1776979)
(1.138366 0.0002226621 0.001027101)
(2.955827 -0.0006707187 -0.003574134)
(3.742276 0.001258972 0.006356922)
(5.01369 -0.01111487 -0.03525861)
(3.065314 -0.05214987 -0.09494023)
(1.180837 0.0001203683 -0.0007400765)
(2.803938 -0.0004865176 0.001842999)
(4.15499 0.0006881533 -0.004312805)
(4.43958 -0.001506867 0.003506288)
(5.355251 0.01080569 -0.0192864)
(3.078223 0.05134693 0.001412263)
(1.097441 -0.0001710141 0.0002351101)
(2.723039 0.0006004118 -0.001601824)
(3.704413 -0.001817361 0.00128752)
(4.582987 0.001685531 -0.004426957)
(4.458666 -0.005202812 -3.368442e-05)
(5.065046 0.02732691 0.002438963)
(2.883072 0.1428634 0.09373859)
(0.9786797 0.0002085337 -0.000288698)
(2.309703 -0.0005721109 0.0001910443)
(3.264532 0.0009025168 -0.002318705)
(3.712518 -0.002920174 -0.0003571507)
(4.179801 0.002111699 -0.00413176)
(3.79255 -0.008592248 -0.003542504)
(4.14864 0.03278508 0.01961861)
(2.414574 0.2013927 0.1577843)
(0.7467507 -5.704879e-05 3.799592e-05)
(1.717905 0.0003103857 -0.0006081631)
(2.312074 -0.0007118531 -0.0002471324)
(2.731365 0.0007902132 -0.002322915)
(2.822869 -0.002876357 -0.00198104)
(2.992982 0.001912163 -0.003405225)
(2.542317 -0.008551051 -0.006824002)
(2.683308 0.02580387 0.02168837)
(1.590386 0.1871209 0.1437024)
(0.3655877 5.838972e-05 -4.936367e-05)
(0.7469861 -5.576973e-05 -3.380569e-06)
(0.9798683 0.0002383266 -0.0004822278)
(1.100753 -0.0003168251 -0.0004247744)
(1.187995 0.0005979582 -0.001299376)
(1.151338 -0.001272219 -0.002029253)
(1.171456 0.001574905 -0.002197012)
(0.9260245 -0.004130507 -0.006615115)
(0.9507204 0.008354844 0.004288469)
(0.5128923 0.06526191 0.002717584)
(0.0005990169 -0.01664504 -0.001324539)
(0.0006119297 -0.007349682 -0.0008826379)
(0.0005486932 -0.008175886 -0.001920387)
(0.0003699754 -0.005268125 -0.000541599)
(0.0005435756 -0.005534814 -0.001155228)
(0.0004979728 -0.006144626 -0.00330658)
(0.0004993333 -0.002722833 -0.0004744814)
(0.0003454226 -0.002950227 -0.0009950659)
(0.0005012682 -0.003108159 -0.002896685)
(0.0004632671 -0.003460519 -0.001099245)
(0.0004605418 -0.000888854 -0.0004343943)
(0.0004893937 -0.0009436893 -0.0008965278)
(0.0003283472 -0.001012371 -0.002625444)
(0.0004643129 -0.001053772 -0.0009710598)
(0.0004479298 -0.00119034 -0.0106022)
(0.4554012 -0.005123035 -0.004943824)
(0.7548032 -0.09508933 -0.1177963)
(0.6824487 0.002432178 0.002998048)
(1.95581 -0.02499516 -0.02460656)
(1.858391 -0.2123358 -0.1918598)
(1.015672 -0.001726488 -0.002090118)
(2.139104 0.004218614 0.005357578)
(3.519126 -0.03483634 -0.03618074)
(2.574036 -0.2144506 -0.1688346)
(1.078716 0.0006413525 0.001024336)
(2.781689 -0.001975465 -0.003687966)
(3.49787 0.003648316 0.006006323)
(4.715972 -0.02938895 -0.03446232)
(2.952865 -0.1467049 -0.09292358)
(1.180837 -0.0001203683 -0.0007400765)
(2.803938 0.0004865176 0.001842999)
(4.15499 -0.0006881531 -0.004312805)
(4.43958 0.001506867 0.003506288)
(5.355251 -0.01080569 -0.0192864)
(3.078223 -0.05134693 0.001412263)
(1.157771 -5.926872e-05 0.0002304159)
(2.896274 0.0002032498 -0.001614804)
(3.962547 -0.0006570681 0.001338275)
(4.90811 0.0005593985 -0.004324603)
(4.789573 -0.001787602 2.89349e-05)
(5.390432 0.01036691 0.001549007)
(2.990764 0.05059724 0.09239307)
(1.109596 0.0001356022 -0.0003046764)
(2.675158 -0.0004037836 0.0001478434)
(3.819268 0.0005683745 -0.002487531)
(4.378641 -0.002181257 -0.0003799036)
(4.927313 0.001216609 -0.004238384)
(4.489931 -0.005900184 -0.003517608)
(4.818363 0.0264165 0.02009458)
(2.653872 0.13764 0.1608705)
(0.9718478 -5.157328e-05 1.780856e-05)
(2.333427 0.000309573 -0.0007869992)
(3.208907 -0.0007956701 -0.0004700265)
(3.82746 0.0006891718 -0.002978721)
(3.986547 -0.003366771 -0.002496739)
(4.206203 0.001483964 -0.003964791)
(3.584943 -0.009417419 -0.007152803)
(3.670001 0.02987256 0.02707165)
(1.996949 0.1761247 0.1618245)
(0.749304 9.254423e-05 -0.00011547)
(1.706391 -0.0001578771 -0.000117233)
(2.335801 0.0002693895 -0.001126099)
(2.68339 -0.0008793771 -0.001127678)
(2.915385 0.0005229058 -0.002884227)
(2.839658 -0.003349426 -0.004093727)
(2.844759 0.001178589 -0.003724298)
(2.233743 -0.009365593 -0.01024503)
(2.117672 0.01876412 0.01540661)
(0.9402213 0.1240261 0.02892859)
(0.3645312 5.650304e-06 3.053466e-06)
(0.7495393 9.785683e-05 -0.0001524335)
(0.9730294 -6.434464e-05 -0.000200582)
(1.112913 0.000223828 -0.0007301266)
(1.164847 -0.0003603092 -0.0009887572)
(1.193994 0.0004957759 -0.001774035)
(1.100437 -0.00149559 -0.003533192)
(1.051863 0.001281662 -0.003157386)
(0.735132 -0.004087051 -0.01063583)
(0.5601337 0.0002278016 -0.02354438)
(0.002588016 -0.01216209 -0.01079632)
(0.0006861159 -0.01445665 -0.00118296)
(0.0005982195 -0.01305149 -0.002519507)
(0.0004152196 -0.006904164 -0.0008155527)
(0.0006116545 -0.00719922 -0.001699812)
(0.0005438646 -0.007948019 -0.003916617)
(0.0005226131 -0.004883506 -0.0005045969)
(0.0003709557 -0.005203755 -0.00106527)
(0.0005390895 -0.005416595 -0.003000929)
(0.0004887424 -0.005976578 -0.001179632)
(0.0004713936 -0.002573237 -0.0004464775)
(0.000502696 -0.002736723 -0.0009285034)
(0.0003423462 -0.002926467 -0.002673262)
(0.0004847388 -0.003068021 -0.001002137)
(0.0004622328 -0.003426914 -0.01071548)
(0.0005231949 -0.0008390942 -0.0004112033)
(0.0004639614 -0.0008920101 -0.0008440532)
(0.0004869093 -0.0009394259 -0.002452083)
(0.0003154361 -0.0009934593 -0.000897194)
(0.0004686463 -0.001053962 -0.009720354)
(4.731262e-05 -0.0001296149 -0.004052748)
(0.3302423 0.001751971 0.001775166)
(0.8912992 -0.009419849 -0.01211297)
(0.8967927 -0.09512155 -0.1036923)
(0.7837376 -0.001780776 -0.001920049)
(1.568459 0.004355682 0.00440706)
(2.583687 -0.03079909 -0.03008736)
(2.032093 -0.2119044 -0.1376738)
(0.9502681 0.0009603567 0.001018985)
(2.408724 -0.003001072 -0.003757246)
(2.982326 0.005599454 0.005284489)
(4.064755 -0.03660671 -0.03088606)
(2.666944 -0.2109538 -0.08577779)
(1.119896 -0.00035708 -0.0007357342)
(2.634106 0.001368274 0.001800069)
(3.891119 -0.002028595 -0.004451441)
(4.138192 0.004430254 0.003290131)
(5.0325 -0.02848827 -0.01829005)
(2.964982 -0.1445579 0.003138299)
(1.157771 5.926871e-05 0.0002304159)
(2.896274 -0.0002032498 -0.001614804)
(3.962547 0.0006570679 0.001338275)
(4.90811 -0.0005593984 -0.004324603)
(4.789573 0.001787602 2.893488e-05)
(5.390432 -0.01036691 0.001549007)
(2.990764 -0.05059724 0.09239307)
(1.170282 4.589277e-05 -0.0003104786)
(2.846805 -0.0001440425 0.0001298996)
(4.08221 0.0001882197 -0.002529509)
(4.697503 -0.000798148 -0.0003515417)
(5.284307 0.0003829063 -0.004185237)
(4.82359 -0.002046527 -0.003496948)
(5.124508 0.009969751 0.01944225)
(2.747673 0.04838037 0.159342)
(1.102217 -3.374638e-05 4.792141e-06)
(2.701171 0.0002007362 -0.0008678013)
(3.758063 -0.0005872891 -0.0005969426)
(4.506758 0.0003858111 -0.003234451)
(4.716173 -0.002550021 -0.002632068)
(4.959612 0.0007402407 -0.00402028)
(4.23422 -0.006479228 -0.006994688)
(4.244132 0.02386699 0.02851534)
(2.165017 0.1189945 0.1655149)
(0.9748947 9.485077e-05 -0.000148171)
(2.318953 -0.0001678291 -0.0002259878)
(3.239102 0.0002464188 -0.001501566)
(3.766164 -0.001029448 -0.001579411)
(4.106397 0.0003362325 -0.003662777)
(4.011928 -0.003925334 -0.004858615)
(3.981271 0.0007628588 -0.003865007)
(3.118984 -0.01000965 -0.01033111)
(2.81789 0.02450235 0.02335606)
(1.13395 0.11019 0.03894836)
(0.7473412 1.578063e-06 -2.141182e-05)
(1.711474 0.0001113748 -0.0003795915)
(2.321312 -0.0002554183 -0.000590087)
(2.709411 0.0001458916 -0.001720638)
(2.865707 -0.001126784 -0.002259772)
(2.932451 7.922935e-05 -0.003636635)
(2.694569 -0.004093835 -0.006393017)
(2.508531 9.561735e-05 -0.004335573)
(1.709252 -0.009660967 -0.01333052)
(1.143966 0.0082998 -0.0138719)
(0.00407824 0.0006119903 -0.007483583)
(0.3648669 3.358865e-05 -2.58057e-05)
(0.7475758 4.91483e-06 -5.776847e-05)
(0.976074 0.0001028201 -0.0003412936)
(1.105513 -8.02354e-05 -0.0005178762)
(1.177366 0.0001835422 -0.001083804)
(1.170762 -0.0004575774 -0.00176789)
(1.142012 0.000278603 -0.002592387)
(0.9846606 -0.001780726 -0.005323171)
(0.8407788 0.001158624 -0.006131277)
(0.4143691 -0.007639787 -0.02589434)
(0.002906824 -0.01083101 -0.009276778)
(0.0007254957 -0.01003164 -0.01478569)
(0.0004647106 -0.01354105 -0.001097321)
(0.0006821137 -0.01139277 -0.002213973)
(0.0005918238 -0.01170132 -0.004504125)
(0.0005635491 -0.006396496 -0.0007573726)
(0.0004150102 -0.006765695 -0.001570746)
(0.0006046881 -0.007004225 -0.003504432)
(0.0005322138 -0.007685335 -0.001601311)
(0.0004902174 -0.004613085 -0.0004745027)
(0.0005260374 -0.004825005 -0.0009923552)
(0.0003675836 -0.005094738 -0.00276476)
(0.0005213326 -0.005282481 -0.001067484)
(0.0004876757 -0.005874955 -0.01092532)
(0.0005330763 -0.002429078 -0.0004224647)
(0.000474868 -0.002586845 -0.0008738279)
(0.0005000952 -0.002715311 -0.002494928)
(0.0003291028 -0.002892135 -0.0009252758)
(0.0004890533 -0.003035064 -0.009799313)
(4.874618e-05 -0.0003717356 -0.004089183)
(0.0005243524 -0.0007985955 -0.0003908711)
(0.0005276525 -0.0008421884 -0.0007990039)
(0.0004618808 -0.000888131 -0.002308557)
(0.0004763036 -0.0009224184 -0.0008379264)
(0.0003197363 -0.0009929343 -0.008979908)
(4.772513e-05 -0.0001153138 -0.003715731)
(4.253914e-05 -0.0001167696 -0.004801797)
(0.3847669 -0.001076294 -0.001072657)
(0.6827147 0.002972971 0.002506824)
(1.126313 -0.009709959 -0.0122551)
(0.95947 -0.0925224 -0.07004638)
(0.7290759 0.0009665512 0.000952451)
(1.779639 -0.003023656 -0.003388328)
(2.141624 0.0054531 0.004184499)
(2.945003 -0.03145383 -0.02391605)
(2.085006 -0.2103453 -0.06785757)
(0.9882846 -0.0005570503 -0.0007190297)
(2.272774 0.001942658 0.001715192)
(3.332146 -0.003103268 -0.004500146)
(3.506267 0.006747806 0.002946204)
(4.328517 -0.03523485 -0.01560233)
(2.67679 -0.2082804 0.005730871)
(1.097441 0.0001710141 0.00023511)
(2.723039 -0.0006004117 -0.001601824)
(3.704413 0.001817361 0.00128752)
(4.582987 -0.001685531 -0.004426957)
(4.458666 0.005202812 -3.368439e-05)
(5.065046 -0.02732691 0.002438963)
(2.883072 -0.1428634 0.09373859)
(1.170282 -4.589281e-05 -0.0003104786)
(2.846805 0.0001440426 0.0001298995)
(4.08221 -0.0001882198 -0.002529509)
(4.697503 0.000798148 -0.0003515417)
(5.284307 -0.0003829063 -0.004185237)
(4.82359 0.002046527 -0.003496948)
(5.124508 -0.009969751 0.01944225)
(2.747673 -0.04838037 0.159342)
(1.162687 -1.189749e-05 -5.088521e-07)
(2.873745 6.746445e-05 -0.0008961958)
(4.018807 -0.0002140363 -0.0006462289)
(4.831261 0.0001175367 -0.003304397)
(5.066782 -0.0009389055 -0.002629803)
(5.319502 0.0002088595 -0.003965892)
(4.543953 -0.002250801 -0.006941352)
(4.505328 0.008975824 0.02804871)
(2.231832 0.04123556 0.1640241)
(1.105477 6.219967e-05 -0.0001620654)
(2.685279 -0.0001221724 -0.0002896187)
(3.7914 0.0001431346 -0.001681107)
(4.43911 -0.0007849515 -0.001797053)
(4.850018 0.0001001656 -0.003947136)
(4.747299 -0.002967605 -0.005010069)
(4.682608 0.000277453 -0.003675546)
(3.663662 -0.006826249 -0.009918703)
(3.239197 0.01776863 0.02311083)
(1.216346 0.07101424 0.03991488)
(0.9725052 4.533349e-06 -4.428824e-05)
(2.325227 0.0001099074 -0.000522514)
(3.220587 -0.0002982364 -0.0008710683)
(3.79951 7.475003e-05 -0.002288489)
(4.042752 -0.001354991 -0.002920577)
(4.132179 -0.0001861663 -0.004374217)
(3.791083 -0.004657233 -0.007063226)
(3.476207 -8.772214e-05 -0.003614699)
(2.342812 -0.009645913 -0.01154989)
(1.472415 0.01042164 -0.00608115)
(0.004748948 0.0005097994 -0.005279692)
(0.7478704 5.261224e-05 -7.123462e-05)
(1.707428 -4.86447e-05 -0.0002048257)
(2.32758 5.528443e-05 -0.0008464727)
(2.693467 -0.0003850523 -0.001292923)
(2.89266 -8.00537e-05 -0.00244345)
(2.882548 -0.001547856 -0.003613285)
(2.784516 -0.0006615929 -0.004612371)
(2.367963 -0.005125069 -0.008504363)
(1.932052 -0.001135927 -0.006065516)
(0.8892354 -0.007756424 -0.01931666)
(0.004951655 -4.763526e-05 -0.006460535)
(0.0007401757 -0.001962697 -0.0106651)
(0.3643145 1.900769e-05 -1.066906e-05)
(0.7481043 5.446021e-05 -0.0001097082)
(0.9736803 1.424333e-06 -0.0002373274)
(1.108766 8.896884e-05 -0.000598873)
(1.169728 -0.0001188551 -0.0009560132)
(1.183302 9.10295e-05 -0.001632925)
(1.119245 -0.0006644069 -0.002865922)
(1.023489 -5.196845e-06 -0.003762814)
(0.7828444 -0.001804031 -0.0083858)
(0.4795025 -0.003613472 -0.02269746)
(0.002075441 -0.01017534 -0.008648348)
(0.0008553993 -0.008810089 -0.01266215)
(0.0006893102 -0.009170321 -0.01039768)
(0.0006087604 -0.01253733 -0.001014828)
(0.0004619361 -0.01068231 -0.002047873)
(0.000672972 -0.01023435 -0.003985929)
(0.0005775003 -0.0104498 -0.001996937)
(0.000523296 -0.006041682 -0.000712168)
(0.0005659674 -0.006270114 -0.001458622)
(0.0004102174 -0.006585172 -0.003225945)
(0.0005834785 -0.006793261 -0.001421894)
(0.0005304669 -0.007533419 -0.01133052)
(0.0005498322 -0.004353411 -0.0004486218)
(0.0004937495 -0.004558826 -0.0009333244)
(0.0005231954 -0.004725077 -0.002576644)
(0.0003537065 -0.004974812 -0.0009843854)
(0.0005256346 -0.005188145 -0.009939094)
(5.138647e-05 -0.0006375911 -0.004162763)
(0.000533054 -0.002311839 -0.0004014704)
(0.0005375916 -0.002442277 -0.0008268234)
(0.0004726966 -0.002567073 -0.00234792)
(0.0004892508 -0.002685223 -0.0008634171)
(0.000333356 -0.002859562 -0.009043437)
(4.978411e-05 -0.0003309143 -0.003739812)
(4.381276e-05 -0.0003380215 -0.004845683)
(0.0005513607 -0.0007608683 -0.000372768)
(0.0005290561 -0.0008016377 -0.0007595466)
(0.0005258236 -0.0008386493 -0.002185355)
(0.000452959 -0.0008725156 -0.0007889904)
(0.000477496 -0.0009218003 -0.008388735)
(3.198917e-05 -0.000108907 -0.003432678)
(4.193262e-05 -0.000104106 -0.004402408)
(4.146416e-05 -0.0001165577 -0.004736687)
(0.3546633 0.0005482517 0.0005576365)
(0.7839812 -0.001890123 -0.001884938)
(0.8928552 0.003245917 0.002347478)
(1.25749 -0.0092452 -0.008080967)
(0.9810474 -0.09091676 -0.03284023)
(0.7604019 -0.0005751235 -0.0006388945)
(1.669993 0.001830793 0.001521985)
(2.41119 -0.003162034 -0.003954954)
(2.489843 0.006334553 0.002532437)
(3.132651 -0.02810121 -0.01065306)
(2.088972 -0.2086149 0.007552578)
(0.9674172 0.0002587036 0.0002461709)
(2.353516 -0.0009220519 -0.001526794)
(3.161061 0.002493753 0.001216286)
(3.899531 -0.002687463 -0.004389471)
(3.766986 0.007716227 -6.856989e-05)
(4.355691 -0.0337306 0.003540873)
(2.609799 -0.2068066 0.09207071)
(1.109596 -0.0001356022 -0.0003046764)
(2.675158 0.0004037836 0.0001478434)
(3.819268 -0.0005683745 -0.002487531)
(4.378641 0.002181256 -0.0003799037)
(4.927313 -0.001216609 -0.004238384)
(4.489931 0.005900184 -0.003517608)
(4.818363 -0.0264165 0.02009458)
(2.653872 -0.13764 0.1608705)
(1.162687 1.189764e-05 -5.08902e-07)
(2.873745 -6.746449e-05 -0.0008961958)
(4.018807 0.0002140364 -0.0006462289)
(4.831261 -0.0001175368 -0.003304397)
(5.066782 0.0009389054 -0.002629803)
(5.319502 -0.0002088595 -0.003965892)
(4.543953 0.002250801 -0.006941352)
(4.505328 -0.008975825 0.02804871)
(2.231832 -0.04123556 0.1640241)
(1.166026 2.098865e-05 -0.0001673923)
(2.857285 -4.461128e-05 -0.0003156592)
(4.053437 4.447134e-05 -0.001747109)
(4.761097 -0.0002903593 -0.001873122)
(5.206677 9.773059e-06 -0.004015801)
(5.100721 -0.001090738 -0.004986717)
(5.016464 5.366324e-05 -0.003534576)
(3.92195 -0.002360003 -0.009785108)
(3.426872 0.006669181 0.022692)
(1.24736 0.02408764 0.03959578)
(1.102886 2.44248e-06 -5.636305e-05)
(2.69208 6.809909e-05 -0.0005945364)
(3.770917 -0.000230363 -0.001023578)
(4.476051 -1.366483e-06 -0.002551074)
(4.779702 -0.001048598 -0.003181541)
(4.881627 -0.00028915 -0.004556994)
(4.474632 -0.00343452 -0.007015745)
(4.065224 -0.0001500947 -0.002983696)
(2.725279 -0.006446916 -0.01076042)
(1.657219 0.007678993 -0.004621836)
(0.005032831 0.0003173174 -0.00462297)
(0.9730632 5.550306e-05 -9.782619e-05)
(2.320106 -5.642662e-05 -0.0003180965)
(3.228418 3.144977e-05 -0.001164746)
(3.778978 -0.0004773283 -0.001770719)
(4.077392 -0.0002197576 -0.003142697)
(4.068224 -0.00185065 -0.004341064)
(3.907343 -0.0009358359 -0.005003641)
(3.298884 -0.005457287 -0.008491896)
(2.628662 -0.0008058669 -0.003533647)
(1.176051 -0.006438596 -0.01187369)
(0.006100275 1.929498e-05 -0.004548904)
(0.0007486472 -0.001004262 -0.007858086)
(0.7468893 3.093513e-05 -4.396705e-05)
(1.708284 4.523722e-05 -0.0002940242)
(2.322449 -0.0001245165 -0.000640783)
(2.700248 -5.84e-05 -0.001440644)
(2.876087 -0.0006010675 -0.002173389)
(2.909557 -0.0004805381 -0.003344386)
(2.735815 -0.00225912 -0.005152425)
(2.4508 -0.001752383 -0.005662711)
(1.814325 -0.005878978 -0.01031346)
(1.014849 -0.00212947 -0.01579018)
(0.003753374 -0.0001255642 -0.006008174)
(0.0008769146 -0.001891707 -0.009166153)
(0.0007004088 -0.002616896 -0.008670087)
(0.3642639 2.20609e-05 -1.446071e-05)
(0.7471228 2.90668e-05 -8.196775e-05)
(0.9742329 5.576034e-05 -0.0002852123)
(1.106162 -1.303306e-05 -0.0005107991)
(1.173051 5.218922e-05 -0.0009598206)
(1.175625 -0.0002073235 -0.001585311)
(1.131478 -0.0001071536 -0.002491491)
(1.002056 -0.0009324094 -0.00426091)
(0.8158348 -9.594063e-05 -0.006478608)
(0.44296 -0.005403807 -0.02218677)
(0.002435354 -0.009400832 -0.008002451)
(0.0005704517 -0.008263151 -0.01179632)
(0.0008098399 -0.008072862 -0.008986726)
(0.0006579631 -0.008354277 -0.005838505)
(0.0005598625 -0.01182799 -0.0009553065)
(0.0006085561 -0.009892709 -0.001896183)
(0.0004557435 -0.009602427 -0.003664071)
(0.0006481095 -0.009182725 -0.001753154)
(0.0005752916 -0.009891804 -0.01180297)
(0.000579193 -0.0057003 -0.0006722886)
(0.0005260244 -0.005923534 -0.001371711)
(0.0005619042 -0.006104632 -0.002999073)
(0.0003945047 -0.006395432 -0.001312316)
(0.0005868747 -0.006652356 -0.0102192)
(5.585592e-05 -0.000816703 -0.004277643)
(0.0005475659 -0.004142191 -0.0004261375)
(0.0005544051 -0.004302884 -0.0008824001)
(0.0004913913 -0.00446534 -0.002422955)
(0.0005119023 -0.004616901 -0.0009170837)
(0.0003578592 -0.004883748 -0.009153234)
(5.358519e-05 -0.0005660135 -0.003787531)
(4.616148e-05 -0.0005797384 -0.004933046)
(0.0005593816 -0.002202582 -0.0003827784)
(0.0005378127 -0.002324678 -0.0007857904)
(0.0005356852 -0.002423956 -0.002221782)
(0.0004635957 -0.002539918 -0.0008126785)
(0.0004903535 -0.002654401 -0.00844268)
(3.338271e-05 -0.0003126153 -0.00345129)
(4.376115e-05 -0.0003016896 -0.004431592)
(4.270292e-05 -0.0003338879 -0.004779497)
(0.0005582929 -0.0007278804 -0.0003564591)
(0.000556571 -0.0007638395 -0.0007243857)
(0.0005274453 -0.0007983593 -0.002077416)
(0.0005180518 -0.0008241885 -0.0007469119)
(0.0004534544 -0.0008717558 -0.0078986)
(5.009607e-05 -0.0001012415 -0.00320671)
(2.782101e-05 -9.847096e-05 -0.004066971)
(4.035862e-05 -0.0001041277 -0.004342784)
(4.069955e-05 -0.0001134815 -0.004271859)
(0.3716316 -0.0003539906 -0.000344432)
(0.7293091 0.0009732641 0.0008944609)
(1.016905 -0.002028244 -0.002081797)
(1.015245 0.003423778 0.001499647)
(1.321429 -0.008783479 -0.002889099)
(0.9828816 -0.09035631 0.005121228)
(0.7430713 0.0002665163 0.0002491074)
(1.734044 -0.0009332432 -0.00127741)
(2.275144 0.002247064 0.001101867)
(2.790248 -0.002865813 -0.00372794)
(2.661843 0.007160534 7.955097e-05)
(3.153156 -0.02658977 0.003424651)
(2.053734 -0.2062453 0.07829694)
(0.9786797 -0.0002085337 -0.000288698)
(2.309703 0.0005721108 0.0001910443)
(3.264532 -0.0009025167 -0.002318705)
(3.712518 0.002920174 -0.0003571508)
(4.179801 -0.002111699 -0.00413176)
(3.79255 0.008592248 -0.003542504)
(4.14864 -0.03278508 0.01961861)
(2.414574 -0.2013927 0.1577843)
(1.102217 3.374649e-05 4.792046e-06)
(2.701171 -0.0002007362 -0.0008678014)
(3.758063 0.000587289 -0.0005969427)
(4.506758 -0.0003858111 -0.003234451)
(4.716173 0.002550021 -0.002632068)
(4.959612 -0.0007402406 -0.00402028)
(4.23422 0.006479228 -0.006994688)
(4.244132 -0.02386699 0.02851534)
(2.165017 -0.1189945 0.1655149)
(1.166026 -2.09889e-05 -0.0001673923)
(2.857285 4.461129e-05 -0.0003156591)
(4.053437 -4.447143e-05 -0.001747109)
(4.761097 0.0002903593 -0.001873122)
(5.206677 -9.77307e-06 -0.004015801)
(5.100721 0.001090738 -0.004986717)
(5.016464 -5.366324e-05 -0.003534576)
(3.92195 0.002360003 -0.009785108)
(3.426872 -0.006669181 0.022692)
(1.24736 -0.02408764 0.03959578)
(1.163355 4.276712e-07 -6.115576e-05)
(2.864286 2.193794e-05 -0.0006220979)
(4.032152 -8.609007e-05 -0.00108448)
(4.799536 -1.110339e-05 -0.002643466)
(5.133709 -0.0003900226 -0.003253801)
(5.241148 -0.0001313455 -0.004561211)
(4.801985 -0.001246467 -0.006882835)
(4.343607 -6.874404e-05 -0.00269083)
(2.905029 -0.002200347 -0.01054263)
(1.739724 0.002858458 -0.004121933)
(0.005139281 0.0001036063 -0.00433805)
(1.103425 3.661303e-05 -0.0001101615)
(2.686432 -4.622047e-05 -0.0003802594)
(3.779443 6.936707e-07 -0.001326564)
(4.453251 -0.0003807613 -0.00200357)
(4.818135 -0.00023784 -0.003422671)
(4.81096 -0.001418057 -0.004523029)
(4.604316 -0.0007829107 -0.004889537)
(3.871391 -0.003818879 -0.008007155)
(3.043578 -0.0003600055 -0.002389339)
(1.344953 -0.003857488 -0.01020264)
(0.006746711 2.3415e-05 -0.003960793)
(0.0007495019 -0.0003085181 -0.006901538)
(0.9719117 3.527592e-05 -6.750865e-05)
(2.320962 4.247936e-05 -0.0004170591)
(3.221811 -0.0001590214 -0.0009149829)
(3.787484 -0.0001253552 -0.001938262)
(4.055979 -0.0007590215 -0.002806782)
(4.102952 -0.0006910342 -0.004022925)
(3.845055 -0.002574201 -0.005644941)
(3.40528 -0.001858367 -0.0052559)
(2.481863 -0.005660048 -0.008477238)
(1.333999 -0.0007723332 -0.008733314)
(0.004765892 -4.931602e-05 -0.004210719)
(0.0008908973 -0.0009912518 -0.00673849)
(0.0007080222 -0.001396062 -0.00746392)
(0.7467208 3.137581e-05 -4.868438e-05)
(1.706378 1.042603e-05 -0.000243933)
(2.323294 -1.305942e-05 -0.0007218599)
(2.694566 -0.0002396643 -0.001254724)
(2.883042 -0.0002629906 -0.002169785)
(2.892882 -0.0009838301 -0.003239067)
(2.762029 -0.001166031 -0.004440655)
(2.405526 -0.003279904 -0.006646027)
(1.882524 -0.0028099 -0.007201752)
(0.9459102 -0.005152098 -0.01618755)
(0.004328565 -8.81464e-05 -0.005549184)
(0.0005941377 -0.001795736 -0.008520564)
(0.0008265562 -0.002447636 -0.007497743)
(0.000672491 -0.003145202 -0.004710405)
(0.364035 1.950087e-05 -1.223139e-05)
(0.7469538 3.383008e-05 -8.212479e-05)
(0.973079 2.821614e-05 -0.0002492981)
(1.106686 4.279572e-05 -0.0005334742)
(1.170353 -4.864393e-05 -0.0008918025)
(1.178942 -3.255256e-05 -0.001501012)
(1.123957 -0.0003965571 -0.002507931)