/*--------------------------------*- C++ -*----------------------------------*\
| =========                 |                                                 |
| \\      /  F ield         | OpenFOAM: The Open Source CFD Toolbox           |
|  \\    /   O peration     | Version:  2306                                  |
|   \\  /    A nd           | Website:  www.openfoam.com                      |
|    \\/     M anipulation  |                                                 |
\*---------------------------------------------------------------------------*/
FoamFile
{
    version     2.0;
    format      ascii;
    arch        "LSB;label=32;scalar=64";
    class       volScalarField;
    location    "1.2/air";
    object      X.N2;
}
// * * * * * * * * * * * * * * * * * * * * * * * * * * * * * * * * * * * * * //

dimensions      [0 0 0 0 0 0 0];

internalField   nonuniform List<scalar> 
16000
(
0.7929618
0.7929565
0.7939301
0.7929951
0.7929485
0.7938495
0.7929872
0.7959296
0.7940382
0.7930726
0.792941
0.7937451
0.7929762
0.7958239
0.7939289
0.7930573
0.7980758
0.7960672
0.7943204
0.7932199
0.7929365
0.7936563
0.7929662
0.7956795
0.7937949
0.793039
0.7979678
0.7959295
0.7941707
0.7931872
0.8002037
0.798219
0.7964105
0.7948435
0.7934899
0.7929365
0.7936066
0.7929603
0.7955514
0.7936854
0.7930228
0.7978195
0.7957495
0.7939887
0.7931513
0.8000989
0.7980794
0.7962344
0.7946512
0.7934259
0.8022512
0.8003427
0.7985736
0.7970204
0.7956707
0.7939817
0.8298632
0.792941
0.7936066
0.7929603
0.7954777
0.7936252
0.7930138
0.7976874
0.7955938
0.7938425
0.793124
0.7999553
0.797896
0.796007
0.794412
0.7933524
0.8021517
0.8002077
0.7983979
0.7968086
0.7954397
0.7938775
0.8042025
0.802384
0.8006862
0.7991976
0.7979482
0.7968502
0.794816
0.8285892
0.8312936
0.8300648
0.7929485
0.7936563
0.7929662
0.7954777
0.7936252
0.7930138
0.7976112
0.7955054
0.7937632
0.7931095
0.7998274
0.7977365
0.7958125
0.7942157
0.7932955
0.8020153
0.8000305
0.79817
0.7965341
0.7951446
0.7937432
0.8041081
0.8022558
0.8005174
0.798991
0.7977058
0.7965822
0.7946687
0.8060586
0.8043282
0.8027117
0.8012882
0.8001347
0.7992342
0.7984419
0.7961487
0.8260147
0.830153
0.8287955
0.8316553
0.8314779
0.8304673
0.7929565
0.7937451
0.7929762
0.7955514
0.7936854
0.7930228
0.7976112
0.7955054
0.7937632
0.7931095
0.7997536
0.7976457
0.7957029
0.7941083
0.7932651
0.8018938
0.7998766
0.797974
0.7962993
0.7948971
0.7936303
0.8039789
0.8020878
0.8002989
0.7987223
0.7973891
0.7962367
0.7944678
0.8059692
0.8042068
0.8025519
0.8010916
0.7999047
0.7989651
0.7981256
0.7959265
0.8078268
0.8061779
0.8046386
0.8032855
0.8021876
0.8014138
0.8009102
0.8005147
0.7982174
0.8220435
0.8278534
0.8262374
0.8305971
0.8303408
0.8292062
0.8318145
0.831825
0.8318458
0.8310693
0.7929618
0.7938495
0.7929872
0.7956795
0.7937949
0.793039
0.7976874
0.7955938
0.7938425
0.793124
0.7997536
0.7976457
0.7957029
0.7941083
0.7932651
0.8018238
0.799789
0.797863
0.796167
0.7947597
0.7935673
0.8038639
0.8019418
0.8001112
0.798491
0.7971167
0.7959435
0.7942934
0.8058467
0.8040476
0.8023452
0.8008367
0.799603
0.79861
0.7977142
0.7956226
0.8077418
0.8060628
0.8044872
0.8030999
0.8019712
0.8011656
0.8006101
0.8001198
0.797801
0.8095152
0.8079401
0.8064724
0.8051818
0.8041411
0.8034083
0.8030525
0.8030059
0.803156
0.8014607
0.8163002
0.824322
0.8223285
0.8284644
0.8280542
0.8266755
0.8308268
0.8307699
0.8307149
0.8298183
0.8319958
0.8319725
0.8321638
0.8323963
0.8318694
0.7939301
0.7929951
0.7958239
0.7939289
0.7930573
0.7978195
0.7957495
0.7939887
0.7931513
0.7998274
0.7977365
0.7958125
0.7942157
0.7932955
0.8018238
0.799789
0.797863
0.796167
0.7947597
0.7935673
0.8037975
0.8018587
0.800005
0.79836
0.7969628
0.7957794
0.7941946
0.8057377
0.8039094
0.8021676
0.8006175
0.7993418
0.7983025
0.7973636
0.7953629
0.8076253
0.8059119
0.8042916
0.8028595
0.8016881
0.8008361
0.8002108
0.7996119
0.7972975
0.8094342
0.8078307
0.8063289
0.8050062
0.8039375
0.8031768
0.8027816
0.8026458
0.8025813
0.8004595
0.8111314
0.8096232
0.8082199
0.8069878
0.8059916
0.8053001
0.8049633
0.8050664
0.8055722
0.8065345
0.806933
0.819256
0.8168885
0.8251915
0.8245739
0.822859
0.8288367
0.8286488
0.8284497
0.8273183
0.8310673
0.8309876
0.831114
0.8312728
0.8306285
0.8322924
0.8321442
0.8322881
0.8326709
0.8331284
0.8330237
0.7959296
0.7940382
0.7930726
0.7979678
0.7959295
0.7941707
0.7931872
0.7999553
0.797896
0.796007
0.794412
0.7933524
0.8018938
0.7998766
0.797974
0.7962993
0.7948971
0.7936303
0.8037975
0.8018587
0.800005
0.79836
0.7969628
0.7957794
0.7941946
0.8056748
0.8038307
0.8020671
0.8004935
0.7991935
0.7981284
0.7971667
0.7952174
0.8075218
0.805781
0.8041237
0.8026529
0.8014435
0.8005491
0.7998646
0.7991844
0.7969015
0.8093232
0.8076872
0.8061435
0.8047789
0.8036715
0.8028707
0.8024187
0.8021737
0.8019009
0.7995641
0.811054
0.8095189
0.8080835
0.8068213
0.8057991
0.805083
0.8047119
0.804743
0.8050521
0.8054519
0.804034
0.812682
0.8112346
0.8098899
0.8087098
0.8077564
0.8070882
0.8067735
0.8068652
0.8074947
0.8087496
0.8111226
0.8096615
0.8205011
0.8197618
0.817765
0.8257838
0.8254224
0.8250447
0.823594
0.8291967
0.8290081
0.8290119
0.8290311
0.8281562
0.8314156
0.8312182
0.831308
0.8316273
0.8320119
0.8317933
0.8326764
0.8324325
0.8324406
0.8327605
0.8333454
0.8341849
0.8332616
0.7980758
0.7960672
0.7943204
0.7932199
0.8000989
0.7980794
0.7962344
0.7946512
0.7934259
0.8020153
0.8000305
0.79817
0.7965341
0.7951446
0.7937432
0.8038639
0.8019418
0.8001112
0.798491
0.7971167
0.7959435
0.7942934
0.8056748
0.8038307
0.8020671
0.8004935
0.7991935
0.7981284
0.7971667
0.7952174
0.807462
0.8057064
0.8040287
0.802536
0.8013048
0.8003855
0.7996685
0.7989465
0.7966896
0.8092245
0.8075628
0.8059843
0.8045838
0.8034418
0.8026045
0.802102
0.8017709
0.8013577
0.798956
0.810948
0.8093822
0.8079072
0.8066058
0.8055477
0.804796
0.8043764
0.8043165
0.8044298
0.8044418
0.8025008
0.8126078
0.8111349
0.8097598
0.8085513
0.8075736
0.8068828
0.8065379
0.8065647
0.8070214
0.8077566
0.8084346
0.8062513
0.8141727
0.8127807
0.8114894
0.810357
0.8094405
0.8087974
0.8084822
0.8085721
0.8091506
0.8104673
0.8129822
0.8134259
0.8117827
0.8214112
0.8209652
0.8205207
0.8187846
0.8263278
0.8259981
0.8258537
0.8256999
0.8245028
0.8296493
0.8293575
0.8293457
0.8295457
0.8297902
0.8293444
0.8318446
0.8315581
0.831519
0.8317859
0.8323076
0.8330752
0.8320334
0.8331383
0.8328094
0.8327125
0.8328843
0.833389
0.834319
0.8344027
0.8335015
0.8002037
0.798219
0.7964105
0.7948435
0.7934899
0.8021517
0.8002077
0.7983979
0.7968086
0.7954397
0.7938775
0.8039789
0.8020878
0.8002989
0.7987223
0.7973891
0.7962367
0.7944678
0.8057377
0.8039094
0.8021676
0.8006175
0.7993418
0.7983025
0.7973636
0.7953629
0.807462
0.8057064
0.8040287
0.802536
0.8013048
0.8003855
0.7996685
0.7989465
0.7966896
0.8091676
0.807492
0.8058944
0.8044735
0.8033116
0.8024532
0.8019217
0.8015452
0.8010643
0.7986529
0.8108537
0.8092636
0.8077559
0.8064208
0.8053309
0.8045467
0.8040843
0.8039507
0.8039292
0.8037241
0.8016157
0.8125063
0.8110042
0.8095917
0.8083463
0.8073351
0.8066116
0.8062236
0.8061697
0.8064539
0.8068288
0.8069089
0.8043895
0.8141015
0.8126852
0.8113649
0.8102057
0.8092663
0.8086022
0.808259
0.80829
0.8087084
0.8095489
0.8104967
0.8103067
0.8082154
0.8156083
0.8142675
0.8130248
0.8119356
0.8110538
0.8104306
0.8101211
0.8101844
0.8107302
0.8119433
0.8144067
0.8151035
0.815228
0.813518
0.82222
0.8218421
0.8216606
0.8214103
0.8198775
0.8269407
0.8265286
0.8263985
0.8264538
0.8265136
0.8257353
0.830169
0.829801
0.8296742
0.8298421
0.830243
0.8308688
0.8295892
0.8323466
0.8319798
0.8318421
0.8319677
0.8324193
0.8332864
0.8332943
0.8322754
0.833654
0.8332649
0.833075
0.8331317
0.8334746
0.8342961
0.8345196
0.8346223
0.8337435
0.8022512
0.8003427
0.7985736
0.7970204
0.7956707
0.7939817
0.8041081
0.8022558
0.8005174
0.798991
0.7977058
0.7965822
0.7946687
0.8058467
0.8040476
0.8023452
0.8008367
0.799603
0.79861
0.7977142
0.7956226
0.8075218
0.805781
0.8041237
0.8026529
0.8014435
0.8005491
0.7998646
0.7991844
0.7969015
0.8091676
0.807492
0.8058944
0.8044735
0.8033116
0.8024532
0.8019217
0.8015452
0.8010643
0.7986529
0.8107993
0.8091961
0.8076704
0.8063163
0.8052081
0.804405
0.8039183
0.803745
0.8036577
0.8033569
0.8012021
0.812416
0.8108909
0.8094475
0.8081704
0.8071295
0.8063762
0.80595
0.805832
0.8059967
0.8061678
0.8059805
0.8033414
0.8140041
0.8125601
0.8112043
0.8100101
0.8090393
0.8083446
0.8079616
0.8079192
0.8081799
0.8086922
0.8090856
0.8085125
0.8061397
0.8155399
0.8141758
0.8129055
0.811791
0.8108875
0.8102444
0.8099087
0.8099167
0.8103137
0.8110817
0.8120931
0.8122151
0.8119737
0.8099354
0.8169931
0.8156994
0.8145016
0.8134523
0.8126017
0.8119985
0.8116904
0.8117383
0.8122282
0.8133653
0.8156412
0.8163796
0.816759
0.8167138
0.8149828
0.8230632
0.8226238
0.8224875
0.8224746
0.8223718
0.8211935
0.8275998
0.8271301
0.8269039
0.8269558
0.8271991
0.8276219
0.8259888
0.8307519
0.8303129
0.8300999
0.8301399
0.8304906
0.8312338
0.831091
0.8298358
0.8328982
0.8324753
0.8322492
0.8322659
0.8325625
0.8333308
0.8334881
0.8335153
0.8325195
0.8342119
0.8337749
0.8335178
0.8334727
0.8336894
0.8343268
0.8344831
0.834722
0.8348438
0.8339875
0.8042025
0.802384
0.8006862
0.7991976
0.7979482
0.7968502
0.794816
0.8059692
0.8042068
0.8025519
0.8010916
0.7999047
0.7989651
0.7981256
0.7959265
0.8076253
0.8059119
0.8042916
0.8028595
0.8016881
0.8008361
0.8002108
0.7996119
0.7972975
0.8092245
0.8075628
0.8059843
0.8045838
0.8034418
0.8026045
0.802102
0.8017709
0.8013577
0.798956
0.8107993
0.8091961
0.8076704
0.8063163
0.8052081
0.804405
0.8039183
0.803745
0.8036577
0.8033569
0.8012021
0.8123639
0.8108265
0.809366
0.808071
0.8070131
0.8062426
0.8057946
0.8056425
0.8057481
0.8058288
0.8055327
0.8028606
0.8139174
0.8124516
0.8110665
0.8098423
0.8088436
0.8081212
0.8077031
0.8076022
0.8077553
0.8080824
0.808226
0.8074564
0.8049673
0.8154462
0.8140557
0.8127516
0.8116039
0.8106706
0.8099988
0.8096258
0.8095652
0.809816
0.8102798
0.810782
0.8105522
0.8100026
0.8077378
0.8169272
0.8156113
0.8143871
0.8133135
0.8124425
0.8118204
0.8114875
0.8114832
0.8118325
0.8125521
0.8134679
0.8136883
0.8137417
0.8134414
0.8114284
0.8183308
0.8170808
0.8159245
0.8149119
0.8140905
0.8135052
0.8132013
0.8132307
0.8136809
0.8147254
0.8168539
0.8174924
0.8179176
0.8181199
0.8179795
0.8164295
0.8239221
0.8234438
0.8232285
0.8232425
0.8233531
0.8235391
0.8214628
0.8283067
0.8277792
0.827484
0.8274262
0.8276478
0.828214
0.8278498
0.8262438
0.8313759
0.8308888
0.8305963
0.8305395
0.8307484
0.8314121
0.8314378
0.8313149
0.8300844
0.8334886
0.8330211
0.8327317
0.8326512
0.8328276
0.8334184
0.8335186
0.8336915
0.8337381
0.8327655
0.8347989
0.8343276
0.8340164
0.8338965
0.8340019
0.8344945
0.8345024
0.8346717
0.8349261
0.8350671
0.8342851
0.8060586
0.8043282
0.8027117
0.8012882
0.8001347
0.7992342
0.7984419
0.7961487
0.8077418
0.8060628
0.8044872
0.8030999
0.8019712
0.8011656
0.8006101
0.8001198
0.797801
0.8093232
0.8076872
0.8061435
0.8047789
0.8036715
0.8028707
0.8024187
0.8021737
0.8019009
0.7995641
0.8108537
0.8092636
0.8077559
0.8064208
0.8053309
0.8045467
0.8040843
0.8039507
0.8039292
0.8037241
0.8016157
0.8123639
0.8108265
0.809366
0.808071
0.8070131
0.8062426
0.8057946
0.8056425
0.8057481
0.8058288
0.8055327
0.8028606
0.8138674
0.8123899
0.8109886
0.8097476
0.8087327
0.8079943
0.8075564
0.8074243
0.807525
0.8077696
0.8078108
0.8069577
0.804433
0.8153629
0.8139515
0.8126196
0.8114434
0.8104838
0.8097858
0.8093801
0.8092651
0.8094162
0.8097101
0.8099843
0.8095722
0.8088468
0.806483
0.816837
0.8154958
0.8142393
0.8131342
0.8122349
0.8115856
0.8112174
0.8111485
0.8113602
0.8117951
0.8122374
0.8121403
0.8119119
0.8113665
0.809178
0.8182673
0.8169959
0.8158144
0.8147787
0.8139377
0.8133344
0.813007
0.8129868
0.8133039
0.8139532
0.8148017
0.8149635
0.8151042
0.8150818
0.8147226
0.812911
0.8196247
0.8184154
0.8172976
0.8163191
0.8155247
0.8149565
0.814656
0.8146727
0.8150825
0.8160558
0.818033
0.8185999
0.8189345
0.8191802
0.8192751
0.8192423
0.8167231
0.8248069
0.8242827
0.8240137
0.8239357
0.824057
0.8244179
0.8237781
0.8217326
0.8290417
0.8284773
0.8281146
0.8279766
0.8280749
0.8285902
0.8284227
0.8280792
0.8265003
0.8320319
0.8315065
0.8311584
0.8310131
0.8311138
0.831613
0.831602
0.8316435
0.8315405
0.8303348
0.8341054
0.8336062
0.8332659
0.8331144
0.8331841
0.833636
0.8335948
0.8337081
0.8338966
0.8339627
0.8330657
0.8354079
0.8349099
0.8345587
0.834378
0.8344003
0.8347658
0.8346604
0.8346796
0.8348619
0.8351319
0.8353395
0.8345897
0.8078268
0.8061779
0.8046386
0.8032855
0.8021876
0.8014138
0.8009102
0.8005147
0.7982174
0.8094342
0.8078307
0.8063289
0.8050062
0.8039375
0.8031768
0.8027816
0.8026458
0.8025813
0.8004595
0.810948
0.8093822
0.8079072
0.8066058
0.8055477
0.804796
0.8043764
0.8043165
0.8044298
0.8044418
0.8025008
0.812416
0.8108909
0.8094475
0.8081704
0.8071295
0.8063762
0.80595
0.805832
0.8059967
0.8061678
0.8059805
0.8033414
0.8138674
0.8123899
0.8109886
0.8097476
0.8087327
0.8079943
0.8075564
0.8074243
0.807525
0.8077696
0.8078108
0.8069577
0.804433
0.8153148
0.8138923
0.812545
0.8113528
0.810378
0.8096649
0.8092406
0.8090969
0.8091993
0.8094185
0.8095993
0.809109
0.8083064
0.8059116
0.8167567
0.8153957
0.8141126
0.8129804
0.812056
0.811382
0.8109828
0.8108628
0.8109811
0.8112576
0.8114897
0.8112289
0.8108376
0.8101425
0.8078818
0.8181803
0.8168847
0.8156723
0.8146064
0.8137385
0.8131094
0.8127484
0.8126668
0.8128537
0.8132347
0.8136396
0.8135096
0.8133988
0.8131528
0.8125982
0.8106627
0.8195633
0.8183335
0.8171915
0.8161908
0.8153777
0.8147925
0.8144695
0.8144389
0.8147219
0.8153202
0.8160855
0.8162117
0.8162902
0.8163457
0.8162474
0.8160019
0.8132118
0.8208777
0.8197063
0.8186245
0.8176775
0.8169083
0.8163563
0.8160601
0.8160647
0.8164427
0.8173481
0.8192026
0.8196882
0.8199596
0.8201175
0.8202506
0.8204229
0.8194988
0.8170148
0.8257011
0.8251497
0.8248226
0.8246803
0.8246985
0.8250438
0.8246359
0.8240175
0.8220027
0.8297984
0.8292046
0.8287963
0.8285814
0.8285884
0.8289581
0.828784
0.8286327
0.8283099
0.8267583
0.8327084
0.8321569
0.8317639
0.831555
0.8315577
0.83193
0.8317911
0.8317933
0.8318508
0.8317679
0.8306402
0.8347415
0.8342181
0.8338405
0.8336312
0.8336217
0.833951
0.8338026
0.8337726
0.833899
0.8341034
0.8342367
0.8333728
0.8360319
0.8355145
0.8351316
0.8349047
0.8348591
0.8351277
0.8349233
0.8348278
0.8348582
0.8350536
0.8353829
0.8356181
0.8348213
0.8095152
0.8079401
0.8064724
0.8051818
0.8041411
0.8034083
0.8030525
0.8030059
0.803156
0.8014607
0.811054
0.8095189
0.8080835
0.8068213
0.8057991
0.805083
0.8047119
0.804743
0.8050521
0.8054519
0.804034
0.8125063
0.8110042
0.8095917
0.8083463
0.8073351
0.8066116
0.8062236
0.8061697
0.8064539
0.8068288
0.8069089
0.8043895
0.8139174
0.8124516
0.8110665
0.8098423
0.8088436
0.8081212
0.8077031
0.8076022
0.8077553
0.8080824
0.808226
0.8074564
0.8049673
0.8153148
0.8138923
0.812545
0.8113528
0.810378
0.8096649
0.8092406
0.8090969
0.8091993
0.8094185
0.8095993
0.809109
0.8083064
0.8059116
0.8167105
0.8153387
0.814041
0.8128936
0.8119548
0.8112665
0.8108497
0.8107025
0.8107757
0.8109824
0.8111292
0.8107983
0.8103347
0.8095719
0.8072911
0.8181029
0.8167883
0.8155504
0.8144587
0.813567
0.8129143
0.8125238
0.8123938
0.8124925
0.8127246
0.8129335
0.8126543
0.8123981
0.8120132
0.811337
0.8093641
0.8194793
0.8182263
0.8170546
0.8160251
0.8151863
0.8145764
0.8142213
0.8141323
0.8142915
0.8146356
0.8149824
0.8148383
0.8146876
0.8145462
0.8142694
0.8138691
0.8109645
0.8208183
0.8196273
0.8185221
0.817554
0.8167669
0.8161985
0.8158808
0.8158401
0.8160972
0.8166452
0.8173483
0.8174218
0.817462
0.8174527
0.817424
0.8174054
0.8162616
0.8135108
0.8220923
0.8209566
0.8199082
0.8189909
0.8182452
0.8177084
0.8174166
0.8174117
0.8177604
0.8186095
0.8203513
0.8207771
0.8209767
0.8210747
0.8211196
0.8213123
0.8206559
0.8197536
0.8173047
0.8266019
0.8260281
0.8256631
0.8254541
0.8253992
0.8256222
0.8252458
0.8248543
0.8242573
0.8222732
0.8305666
0.8299541
0.8295089
0.8292404
0.8291612
0.8294215
0.8291398
0.828979
0.828844
0.8285421
0.8270724
0.8333994
0.8328282
0.8324031
0.8321424
0.8320733
0.8323317
0.8320981
0.8319706
0.8319861
0.8320597
0.8320452
0.8309527
0.8353907
0.8348499
0.8344428
0.8341901
0.8341156
0.8343517
0.834109
0.8339706
0.833952
0.8340916
0.8343556
0.8345169
0.8336064
0.8366665
0.8361345
0.8357275
0.8354635
0.8353652
0.8355536
0.8352776
0.8350821
0.8349965
0.8350383
0.8352875
0.8356396
0.8358299
0.8349786
0.8111314
0.8096232
0.8082199
0.8069878
0.8059916
0.8053001
0.8049633
0.8050664
0.8055722
0.8065345
0.806933
0.8126078
0.8111349
0.8097598
0.8085513
0.8075736
0.8068828
0.8065379
0.8065647
0.8070214
0.8077566
0.8084346
0.8062513
0.8140041
0.8125601
0.8112043
0.8100101
0.8090393
0.8083446
0.8079616
0.8079192
0.8081799
0.8086922
0.8090856
0.8085125
0.8061397
0.8153629
0.8139515
0.8126196
0.8114434
0.8104838
0.8097858
0.8093801
0.8092651
0.8094162
0.8097101
0.8099843
0.8095722
0.8088468
0.806483
0.8167105
0.8153387
0.814041
0.8128936
0.8119548
0.8112665
0.8108497
0.8107025
0.8107757
0.8109824
0.8111292
0.8107983
0.8103347
0.8095719
0.8072911
0.8180583
0.8167334
0.8154815
0.8143753
0.8134699
0.8128036
0.8123965
0.8122408
0.8122967
0.8124636
0.8125931
0.8122505
0.8119299
0.8114814
0.8107493
0.8087721
0.8194045
0.8181333
0.8169372
0.815883
0.8150214
0.8143891
0.814006
0.8138707
0.8139463
0.8141495
0.8143122
0.8140303
0.8137478
0.8134835
0.8130931
0.8125994
0.8096658
0.8207371
0.8195237
0.8183901
0.8173942
0.8165826
0.8159906
0.8156423
0.8155457
0.8156847
0.8159908
0.8162975
0.8161181
0.815948
0.815761
0.8155773
0.8154156
0.8141274
0.8112649
0.8220348
0.8208801
0.8198094
0.8188717
0.8181088
0.8175564
0.8172439
0.8171957
0.8174285
0.8179363
0.8185803
0.8186192
0.8186065
0.8185573
0.8184614
0.8184931
0.8176404
0.8165196
0.8138077
0.823271
0.8221687
0.8211518
0.8202621
0.8195385
0.8190161
0.8187288
0.8187158
0.8190395
0.8198373
0.8214827
0.8218538
0.8220026
0.8220331
0.8220188
0.8221124
0.8215278
0.8208874
0.8200069
0.8175926
0.8275014
0.8269146
0.8265177
0.8262635
0.826135
0.8262697
0.8258113
0.8254482
0.825073
0.8244975
0.822601
0.8313418
0.8307158
0.8302452
0.8299325
0.8297919
0.8299507
0.8295928
0.8293225
0.8291752
0.8290566
0.8288247
0.8273939
0.8340992
0.8335145
0.8330643
0.8327652
0.8326371
0.8328098
0.8324911
0.8322676
0.8321515
0.8321804
0.8323143
0.8323287
0.8311905
0.8360486
0.8354949
0.8350657
0.8347781
0.8346536
0.8348126
0.8345022
0.8342684
0.83414
0.8341328
0.8343265
0.8346134
0.8347299
0.833765
0.8373081
0.8367654
0.8363395
0.8360464
0.8359051
0.83603
0.8356968
0.8354288
0.8352422
0.8351667
0.8352581
0.8355266
0.8358345
0.8359735
0.8350589
0.8163002
0.812682
0.8112346
0.8098899
0.8087098
0.8077564
0.8070882
0.8067735
0.8068652
0.8074947
0.8087496
0.8111226
0.8096615
0.8141015
0.8126852
0.8113649
0.8102057
0.8092663
0.8086022
0.808259
0.80829
0.8087084
0.8095489
0.8104967
0.8103067
0.8082154
0.8154462
0.8140557
0.8127516
0.8116039
0.8106706
0.8099988
0.8096258
0.8095652
0.809816
0.8102798
0.810782
0.8105522
0.8100026
0.8077378
0.8167567
0.8153957
0.8141126
0.8129804
0.812056
0.811382
0.8109828
0.8108628
0.8109811
0.8112576
0.8114897
0.8112289
0.8108376
0.8101425
0.8078818
0.8180583
0.8167334
0.8154815
0.8143753
0.8134699
0.8128036
0.8123965
0.8122408
0.8122967
0.8124636
0.8125931
0.8122505
0.8119299
0.8114814
0.8107493
0.8087721
0.8193615
0.8180804
0.8168709
0.8158027
0.8149281
0.8142828
0.8138838
0.8137241
0.8137592
0.8139007
0.8139892
0.8136489
0.8133082
0.8129877
0.8125444
0.8120076
0.8090737
0.8206648
0.8194339
0.8182768
0.8172573
0.8164239
0.8158105
0.8154353
0.8152946
0.8153539
0.8155262
0.815659
0.8153512
0.81506
0.8147623
0.8144794
0.814229
0.8128564
0.8099664
0.8219562
0.82078
0.8196818
0.8187175
0.8179311
0.8173561
0.8170143
0.8169125
0.8170324
0.8173094
0.8175764
0.8173775
0.8171693
0.8169588
0.8167247
0.8166339
0.8156486
0.8143845
0.8115638
0.8232154
0.8220946
0.8210562
0.8201469
0.8194068
0.8188694
0.8185623
0.8185076
0.8187203
0.8191911
0.8197874
0.819793
0.8197457
0.8196439
0.8195072
0.8194602
0.81871
0.8178739
0.816776
0.8141027
0.8244158
0.8233451
0.8223576
0.821494
0.8207911
0.8202824
0.8199996
0.8199796
0.8202812
0.8210342
0.8225923
0.8229201
0.823023
0.8230071
0.8229273
0.8229538
0.822314
0.8217419
0.8211175
0.8202587
0.8179389
0.8283971
0.8278011
0.8273828
0.8270904
0.826911
0.8269596
0.8264479
0.8260007
0.8256508
0.8252921
0.8247887
0.8229366
0.8321191
0.8314851
0.8309948
0.8306503
0.8304587
0.8305429
0.8301131
0.8297652
0.8295064
0.8293726
0.8293154
0.8291138
0.8276386
0.8348039
0.8342099
0.8337413
0.8334115
0.8332385
0.8333401
0.8329616
0.8326518
0.8324383
0.8323338
0.8324172
0.8325747
0.8325443
0.831352
0.8367118
0.836149
0.8357026
0.8353878
0.8352226
0.8353206
0.8349562
0.8346539
0.834429
0.8343107
0.8343533
0.8345665
0.8348093
0.8348744
0.833846
0.8379541
0.8374036
0.836963
0.8366464
0.8364707
0.8365427
0.836167
0.8358411
0.8355813
0.8354037
0.8353743
0.8354826
0.8357081
0.8359666
0.8360468
0.8220435
0.819256
0.8168885
0.8141727
0.8127807
0.8114894
0.810357
0.8094405
0.8087974
0.8084822
0.8085721
0.8091506
0.8104673
0.8129822
0.8134259
0.8117827
0.8155399
0.8141758
0.8129055
0.811791
0.8108875
0.8102444
0.8099087
0.8099167
0.8103137
0.8110817
0.8120931
0.8122151
0.8119737
0.8099354
0.816837
0.8154958
0.8142393
0.8131342
0.8122349
0.8115856
0.8112174
0.8111485
0.8113602
0.8117951
0.8122374
0.8121403
0.8119119
0.8113665
0.809178
0.8181029
0.8167883
0.8155504
0.8144587
0.813567
0.8129143
0.8125238
0.8123938
0.8124925
0.8127246
0.8129335
0.8126543
0.8123981
0.8120132
0.811337
0.8093641
0.8193615
0.8180804
0.8168709
0.8158027
0.8149281
0.8142828
0.8138838
0.8137241
0.8137592
0.8139007
0.8139892
0.8136489
0.8133082
0.8129877
0.8125444
0.8120076
0.8090737
0.8206232
0.8193828
0.8182128
0.81718
0.816334
0.8157082
0.8153179
0.8151539
0.8151746
0.8152885
0.8153512
0.8149891
0.8146447
0.8142966
0.8139674
0.8136751
0.8122639
0.8093744
0.8218862
0.8206932
0.8195724
0.8185854
0.8177781
0.8171825
0.816815
0.816671
0.8167148
0.8168643
0.8169663
0.8166468
0.8163263
0.8160151
0.8156926
0.8155253
0.8144601
0.8131123
0.810266
0.8231392
0.8219977
0.8209328
0.819998
0.8192353
0.8186761
0.8183409
0.8182348
0.8183393
0.8185894
0.818826
0.8186067
0.8183769
0.8181265
0.817866
0.8177111
0.8168486
0.8158804
0.8146403
0.8118612
0.8243619
0.8232733
0.822265
0.8213825
0.8206637
0.8201406
0.8198388
0.8197788
0.8199736
0.8204129
0.8209659
0.8209473
0.8208677
0.820732
0.8205434
0.8204473
0.8196629
0.8189255
0.8181058
0.8170307
0.8144574
0.8255291
0.8244876
0.8235281
0.8226888
0.8220055
0.8215097
0.8212316
0.8212056
0.8214874
0.8222
0.8236806
0.8239703
0.8240384
0.8239812
0.8238572
0.8238124
0.8231435
0.8225142
0.8219547
0.8213461
0.8205616
0.8182933
0.8292854
0.8286848
0.8282498
0.8279305
0.827708
0.8276949
0.8271283
0.8266264
0.8261904
0.8258538
0.8255576
0.8250866
0.823192
0.8328956
0.8322569
0.831753
0.8313832
0.8311536
0.8311752
0.8306973
0.8302765
0.8299386
0.8296914
0.8296129
0.82958
0.8293336
0.8278048
0.8355106
0.8349105
0.8344281
0.8340748
0.8338653
0.8339111
0.8334849
0.8331145
0.8328137
0.8326104
0.8325561
0.8326593
0.8327725
0.8326905
0.8314345
0.8373778
0.8368087
0.8363492
0.8360126
0.8358149
0.8358623
0.8354581
0.835101
0.8348069
0.834591
0.834519
0.8345787
0.8347488
0.834942
0.8349481
0.8386022
0.8380463
0.8375943
0.8372588
0.8370549
0.8370834
0.8366741
0.8363052
0.8359867
0.835735
0.8356007
0.8355864
0.835653
0.835831
0.8360339
0.8260147
0.824322
0.8223285
0.8205011
0.8197618
0.817765
0.8156083
0.8142675
0.8130248
0.8119356
0.8110538
0.8104306
0.8101211
0.8101844
0.8107302
0.8119433
0.8144067
0.8151035
0.815228
0.813518
0.8169272
0.8156113
0.8143871
0.8133135
0.8124425
0.8118204
0.8114875
0.8114832
0.8118325
0.8125521
0.8134679
0.8136883
0.8137417
0.8134414
0.8114284
0.8181803
0.8168847
0.8156723
0.8146064
0.8137385
0.8131094
0.8127484
0.8126668
0.8128537
0.8132347
0.8136396
0.8135096
0.8133988
0.8131528
0.8125982
0.8106627
0.8194045
0.8181333
0.8169372
0.815883
0.8150214
0.8143891
0.814006
0.8138707
0.8139463
0.8141495
0.8143122
0.8140303
0.8137478
0.8134835
0.8130931
0.8125994
0.8096658
0.8206232
0.8193828
0.8182128
0.81718
0.816334
0.8157082
0.8153179
0.8151539
0.8151746
0.8152885
0.8153512
0.8149891
0.8146447
0.8142966
0.8139674
0.8136751
0.8122639
0.8093744
0.8218459
0.8206438
0.8195106
0.8185108
0.8176915
0.8170841
0.816702
0.8165358
0.8165426
0.8166365
0.8166722
0.8163019
0.8159321
0.815575
0.8152113
0.8150079
0.8139053
0.8125192
0.8096742
0.8230714
0.8219136
0.8208271
0.8198703
0.8190876
0.8185087
0.8181488
0.8180022
0.8180338
0.8181621
0.8182417
0.8179087
0.8175739
0.8172305
0.8168905
0.8166683
0.8157381
0.8146903
0.8133673
0.8105645
0.8242879
0.8231794
0.8221456
0.8212385
0.8204979
0.8199539
0.8196251
0.8195156
0.8196065
0.8198343
0.8200433
0.8198115
0.8195601
0.8192868
0.8189853
0.818794
0.8179116
0.8170622
0.8161109
0.8148948
0.8122194
0.8254767
0.8244181
0.8234384
0.8225809
0.8218823
0.8213726
0.8210762
0.8210116
0.8211907
0.8216018
0.8221176
0.8220778
0.8219752
0.8218085
0.821587
0.8214331
0.8206381
0.8198642
0.8191396
0.8183361
0.817337
0.8148204
0.826612
0.8255989
0.8246652
0.8238492
0.8231841
0.8227006
0.8224271
0.822396
0.8226599
0.8233362
0.8247466
0.8250043
0.8250423
0.8249547
0.824792
0.8246984
0.8239921
0.8233321
0.8227131
0.8221661
0.8216211
0.8208714
0.8185631
0.8301647
0.8295622
0.8291157
0.8287747
0.828521
0.8284556
0.8278554
0.8272974
0.8268052
0.8263805
0.8260999
0.8258291
0.8253131
0.8233656
0.833669
0.8330284
0.8325147
0.832126
0.8318657
0.831839
0.8313225
0.8308527
0.8304409
0.8301131
0.8299166
0.8298585
0.829781
0.8294827
0.8278898
0.8362172
0.8356135
0.8351208
0.834749
0.8345108
0.8345102
0.8340497
0.8336308
0.8332686
0.8329768
0.8328202
0.8327832
0.8328432
0.8329066
0.8327652
0.8380447
0.8374715
0.8370019
0.8366479
0.8364236
0.8364295
0.8359941
0.8355967
0.8352471
0.8349611
0.8347887
0.8347318
0.8347497
0.8348722
0.8350097
0.839251
0.8386914
0.8382305
0.8378797
0.8376525
0.8376444
0.8372096
0.8368066
0.8364445
0.8361335
0.8359226
0.8358019
0.8357473
0.8357683
0.8358936
0.8285892
0.8278534
0.8262374
0.8251915
0.8245739
0.822859
0.8214112
0.8209652
0.8205207
0.8187846
0.8169931
0.8156994
0.8145016
0.8134523
0.8126017
0.8119985
0.8116904
0.8117383
0.8122282
0.8133653
0.8156412
0.8163796
0.816759
0.8167138
0.8149828
0.8182673
0.8169959
0.8158144
0.8147787
0.8139377
0.8133344
0.813007
0.8129868
0.8133039
0.8139532
0.8148017
0.8149635
0.8151042
0.8150818
0.8147226
0.812911
0.8194793
0.8182263
0.8170546
0.8160251
0.8151863
0.8145764
0.8142213
0.8141323
0.8142915
0.8146356
0.8149824
0.8148383
0.8146876
0.8145462
0.8142694
0.8138691
0.8109645
0.8206648
0.8194339
0.8182768
0.8172573
0.8164239
0.8158105
0.8154353
0.8152946
0.8153539
0.8155262
0.815659
0.8153512
0.81506
0.8147623
0.8144794
0.814229
0.8128564
0.8099664
0.8218459
0.8206438
0.8195106
0.8185108
0.8176915
0.8170841
0.816702
0.8165358
0.8165426
0.8166366
0.8166722
0.8163019
0.8159321
0.815575
0.8152113
0.8150079
0.8139053
0.8125192
0.8096742
0.8230323
0.8218658
0.8207673
0.8197983
0.819004
0.8184137
0.8180399
0.8178719
0.8178682
0.8179435
0.8179599
0.8175791
0.8171983
0.8168127
0.8164356
0.8161818
0.8152198
0.8141347
0.8127738
0.8099732
0.8242222
0.8230979
0.8220432
0.821115
0.8203551
0.8197922
0.8194396
0.8192913
0.8193122
0.8194234
0.8194825
0.8191429
0.8187929
0.8184333
0.818059
0.8178082
0.8168668
0.81595
0.8149195
0.8136212
0.8109244
0.825405
0.8243269
0.8233227
0.8224414
0.8217218
0.821192
0.8208695
0.8207574
0.8208365
0.8210445
0.8212307
0.820988
0.8207232
0.8204279
0.820103
0.8198633
0.8189826
0.8181109
0.8172747
0.8163402
0.8152013
0.8125861
0.826561
0.8255313
0.8245782
0.8237445
0.8230647
0.8225679
0.8222766
0.8222084
0.8223733
0.8227593
0.8232419
0.8231856
0.8230631
0.8228748
0.8226238
0.8224324
0.8216136
0.8208275
0.8200641
0.8193521
0.8186129
0.8176504
0.8150969
0.8276671
0.8266797
0.8257712
0.8249766
0.8243291
0.8238572
0.8235882
0.8235526
0.8238005
0.8244437
0.8257903
0.8260202
0.8260339
0.8259206
0.82573
0.8255941
0.8248692
0.8241706
0.8235194
0.8229108
0.8224203
0.8219022
0.821107
0.8187464
0.8310336
0.8304313
0.8299767
0.8296197
0.8293407
0.8292358
0.8286086
0.8280161
0.8274667
0.8269843
0.8266108
0.8263514
0.8260354
0.8254669
0.8234544
0.8344378
0.8337971
0.8332767
0.8328735
0.8325893
0.8325226
0.8319799
0.8314708
0.8310091
0.8306062
0.8303255
0.8301468
0.830045
0.8299173
0.8295589
0.8369219
0.8363166
0.8358164
0.83543
0.8351685
0.8351302
0.8346431
0.8341893
0.8337779
0.8334238
0.8331758
0.8330345
0.8329556
0.8329677
0.832975
0.8387111
0.8381353
0.8376581
0.8372902
0.837044
0.837015
0.8365561
0.836127
0.8357364
0.8353943
0.8351492
0.8349905
0.8348933
0.8348655
0.8349351
0.839899
0.8393374
0.8388696
0.8385064
0.8382597
0.8382207
0.837766
0.837337
0.8369403
0.836585
0.8363126
0.8361141
0.8359545
0.8358561
0.835827
0.8298632
0.830153
0.8287955
0.8284644
0.8280542
0.8266755
0.8257838
0.8254224
0.8250447
0.823594
0.82222
0.8218421
0.8216606
0.8214103
0.8198775
0.8183308
0.8170808
0.8159245
0.8149119
0.8140905
0.8135052
0.8132013
0.8132307
0.8136809
0.8147254
0.8168539
0.8174924
0.8179176
0.8181199
0.8179795
0.8164295
0.8195633
0.8183335
0.8171915
0.8161908
0.8153777
0.8147925
0.8144695
0.8144389
0.8147219
0.8153202
0.8160855
0.8162117
0.8162902
0.8163457
0.8162474
0.8160019
0.8132118
0.8207371
0.8195237
0.8183901
0.8173942
0.8165826
0.8159906
0.8156423
0.8155457
0.8156847
0.8159908
0.8162975
0.8161181
0.815948
0.815761
0.8155773
0.8154156
0.8141274
0.8112649
0.8218862
0.8206932
0.8195724
0.8185854
0.8177781
0.8171825
0.816815
0.816671
0.8167148
0.8168643
0.8169663
0.8166468
0.8163263
0.8160151
0.8156926
0.8155253
0.8144601
0.8131123
0.810266
0.8230323
0.8218658
0.8207673
0.8197983
0.819004
0.8184137
0.8180399
0.8178719
0.8178682
0.8179435
0.8179599
0.8175791
0.8171983
0.8168127
0.8164356
0.8161818
0.8152198
0.8141347
0.8127738
0.8099732
0.8241843
0.8230516
0.8219853
0.8210453
0.8202744
0.8197005
0.8193345
0.8191656
0.8191527
0.8192131
0.8192121
0.8188273
0.8184341
0.8180352
0.8176271
0.8173483
0.8163794
0.8154308
0.8143633
0.8130275
0.8103338
0.8253411
0.8242479
0.8232235
0.8223218