/*--------------------------------*- C++ -*----------------------------------*\
| =========                 |                                                 |
| \\      /  F ield         | OpenFOAM: The Open Source CFD Toolbox           |
|  \\    /   O peration     | Version:  2306                                  |
|   \\  /    A nd           | Website:  www.openfoam.com                      |
|    \\/     M anipulation  |                                                 |
\*---------------------------------------------------------------------------*/
FoamFile
{
    version     2.0;
    format      ascii;
    arch        "LSB;label=32;scalar=64";
    class       volScalarField;
    location    "1.2/air";
    object      X.O2;
}
// * * * * * * * * * * * * * * * * * * * * * * * * * * * * * * * * * * * * * //

dimensions      [0 0 0 0 0 0 0];

internalField   nonuniform List<scalar> 
16000
(
0.2070382
0.2070435
0.2060699
0.2070049
0.2070515
0.2061505
0.2070128
0.2040704
0.2059618
0.2069274
0.207059
0.2062549
0.2070238
0.2041761
0.2060711
0.2069427
0.2019242
0.2039328
0.2056796
0.2067801
0.2070635
0.2063437
0.2070338
0.2043205
0.2062051
0.206961
0.2020322
0.2040705
0.2058293
0.2068128
0.1997963
0.201781
0.2035895
0.2051565
0.2065101
0.2070635
0.2063934
0.2070397
0.2044486
0.2063146
0.2069772
0.2021805
0.2042505
0.2060113
0.2068487
0.1999011
0.2019206
0.2037656
0.2053488
0.2065741
0.1977488
0.1996573
0.2014264
0.2029796
0.2043293
0.2060183
0.1701368
0.207059
0.2063934
0.2070397
0.2045223
0.2063748
0.2069862
0.2023126
0.2044062
0.2061575
0.206876
0.2000447
0.202104
0.203993
0.205588
0.2066476
0.1978483
0.1997923
0.2016021
0.2031914
0.2045603
0.2061225
0.1957975
0.197616
0.1993138
0.2008024
0.2020518
0.2031498
0.205184
0.1714108
0.1687064
0.1699352
0.2070515
0.2063437
0.2070338
0.2045223
0.2063748
0.2069862
0.2023888
0.2044946
0.2062368
0.2068905
0.2001726
0.2022635
0.2041875
0.2057843
0.2067045
0.1979847
0.1999695
0.20183
0.2034659
0.2048554
0.2062568
0.1958919
0.1977442
0.1994826
0.201009
0.2022942
0.2034178
0.2053313
0.1939414
0.1956718
0.1972883
0.1987118
0.1998653
0.2007658
0.2015581
0.2038513
0.1739853
0.169847
0.1712045
0.1683447
0.1685221
0.1695327
0.2070435
0.2062549
0.2070238
0.2044486
0.2063146
0.2069772
0.2023888
0.2044946
0.2062368
0.2068905
0.2002464
0.2023543
0.2042971
0.2058917
0.2067349
0.1981062
0.2001234
0.202026
0.2037007
0.2051029
0.2063697
0.1960211
0.1979122
0.1997011
0.2012777
0.2026109
0.2037633
0.2055322
0.1940308
0.1957932
0.1974481
0.1989084
0.2000953
0.2010349
0.2018744
0.2040735
0.1921732
0.1938221
0.1953614
0.1967145
0.1978124
0.1985862
0.1990898
0.1994853
0.2017826
0.1779565
0.1721466
0.1737626
0.1694029
0.1696592
0.1707938
0.1681855
0.168175
0.1681542
0.1689307
0.2070382
0.2061505
0.2070128
0.2043205
0.2062051
0.206961
0.2023126
0.2044062
0.2061575
0.206876
0.2002464
0.2023543
0.2042971
0.2058917
0.2067349
0.1981762
0.200211
0.202137
0.203833
0.2052403
0.2064327
0.1961361
0.1980582
0.1998888
0.201509
0.2028833
0.2040565
0.2057066
0.1941533
0.1959524
0.1976548
0.1991633
0.200397
0.20139
0.2022858
0.2043774
0.1922582
0.1939372
0.1955128
0.1969001
0.1980288
0.1988344
0.1993899
0.1998802
0.202199
0.1904848
0.1920599
0.1935276
0.1948182
0.1958589
0.1965917
0.1969475
0.1969941
0.196844
0.1985393
0.1836998
0.175678
0.1776715
0.1715356
0.1719458
0.1733245
0.1691732
0.1692301
0.1692851
0.1701817
0.1680042
0.1680275
0.1678362
0.1676037
0.1681306
0.2060699
0.2070049
0.2041761
0.2060711
0.2069427
0.2021805
0.2042505
0.2060113
0.2068487
0.2001726
0.2022635
0.2041875
0.2057843
0.2067045
0.1981762
0.200211
0.202137
0.203833
0.2052403
0.2064327
0.1962025
0.1981413
0.199995
0.20164
0.2030372
0.2042206
0.2058054
0.1942623
0.1960906
0.1978324
0.1993825
0.2006582
0.2016975
0.2026364
0.2046371
0.1923747
0.1940881
0.1957084
0.1971405
0.1983119
0.1991639
0.1997892
0.2003881
0.2027025
0.1905658
0.1921693
0.1936711
0.1949938
0.1960625
0.1968232
0.1972184
0.1973542
0.1974187
0.1995405
0.1888686
0.1903768
0.1917801
0.1930122
0.1940084
0.1946999
0.1950367
0.1949336
0.1944278
0.1934655
0.193067
0.180744
0.1831115
0.1748085
0.1754261
0.177141
0.1711633
0.1713512
0.1715503
0.1726817
0.1689327
0.1690124
0.168886
0.1687272
0.1693715
0.1677076
0.1678558
0.1677119
0.1673291
0.1668716
0.1669763
0.2040704
0.2059618
0.2069274
0.2020322
0.2040705
0.2058293
0.2068128
0.2000447
0.202104
0.203993
0.205588
0.2066476
0.1981062
0.2001234
0.202026
0.2037007
0.2051029
0.2063697
0.1962025
0.1981413
0.199995
0.20164
0.2030372
0.2042206
0.2058054
0.1943252
0.1961693
0.1979329
0.1995065
0.2008065
0.2018716
0.2028333
0.2047826
0.1924782
0.194219
0.1958763
0.1973471
0.1985565
0.1994509
0.2001354
0.2008156
0.2030985
0.1906768
0.1923128
0.1938565
0.1952211
0.1963285
0.1971293
0.1975813
0.1978263
0.1980991
0.2004359
0.188946
0.1904811
0.1919165
0.1931787
0.1942009
0.194917
0.1952881
0.195257
0.1949479
0.1945481
0.195966
0.187318
0.1887654
0.1901101
0.1912902
0.1922436
0.1929118
0.1932265
0.1931348
0.1925053
0.1912504
0.1888774
0.1903385
0.1794989
0.1802382
0.182235
0.1742162
0.1745776
0.1749553
0.176406
0.1708033
0.1709919
0.1709881
0.1709689
0.1718438
0.1685844
0.1687818
0.168692
0.1683727
0.1679881
0.1682067
0.1673236
0.1675675
0.1675594
0.1672395
0.1666546
0.1658151
0.1667384
0.2019242
0.2039328
0.2056796
0.2067801
0.1999011
0.2019206
0.2037656
0.2053488
0.2065741
0.1979847
0.1999695
0.20183
0.2034659
0.2048554
0.2062568
0.1961361
0.1980582
0.1998888
0.201509
0.2028833
0.2040565
0.2057066
0.1943252
0.1961693
0.1979329
0.1995065
0.2008065
0.2018716
0.2028333
0.2047826
0.192538
0.1942936
0.1959713
0.197464
0.1986952
0.1996145
0.2003315
0.2010535
0.2033104
0.1907755
0.1924372
0.1940157
0.1954162
0.1965582
0.1973955
0.197898
0.1982291
0.1986423
0.201044
0.189052
0.1906178
0.1920928
0.1933942
0.1944523
0.195204
0.1956236
0.1956835
0.1955702
0.1955582
0.1974992
0.1873922
0.1888651
0.1902402
0.1914487
0.1924264
0.1931172
0.1934621
0.1934353
0.1929786
0.1922434
0.1915654
0.1937487
0.1858273
0.1872193
0.1885106
0.189643
0.1905595
0.1912026
0.1915178
0.1914279
0.1908494
0.1895327
0.1870178
0.1865741
0.1882173
0.1785888
0.1790348
0.1794793
0.1812154
0.1736722
0.1740019
0.1741463
0.1743001
0.1754972
0.1703507
0.1706425
0.1706543
0.1704543
0.1702098
0.1706556
0.1681554
0.1684419
0.168481
0.1682141
0.1676924
0.1669248
0.1679666
0.1668617
0.1671906
0.1672875
0.1671157
0.166611
0.165681
0.1655973
0.1664985
0.1997963
0.201781
0.2035895
0.2051565
0.2065101
0.1978483
0.1997923
0.2016021
0.2031914
0.2045603
0.2061225
0.1960211
0.1979122
0.1997011
0.2012777
0.2026109
0.2037633
0.2055322
0.1942623
0.1960906
0.1978324
0.1993825
0.2006582
0.2016975
0.2026364
0.2046371
0.192538
0.1942936
0.1959713
0.197464
0.1986952
0.1996145
0.2003315
0.2010535
0.2033104
0.1908324
0.192508
0.1941056
0.1955265
0.1966884
0.1975468
0.1980783
0.1984548
0.1989357
0.2013471
0.1891463
0.1907364
0.1922441
0.1935792
0.1946691
0.1954533
0.1959157
0.1960493
0.1960708
0.1962759
0.1983843
0.1874937
0.1889958
0.1904083
0.1916537
0.1926649
0.1933884
0.1937764
0.1938303
0.1935461
0.1931712
0.1930911
0.1956105
0.1858985
0.1873148
0.1886351
0.1897943
0.1907337
0.1913978
0.191741
0.19171
0.1912916
0.1904511
0.1895033
0.1896933
0.1917846
0.1843917
0.1857325
0.1869752
0.1880644
0.1889462
0.1895694
0.1898789
0.1898156
0.1892698
0.1880567
0.1855933
0.1848965
0.184772
0.186482
0.17778
0.1781579
0.1783394
0.1785897
0.1801225
0.1730593
0.1734714
0.1736015
0.1735462
0.1734864
0.1742647
0.169831
0.170199
0.1703258
0.1701579
0.169757
0.1691312
0.1704108
0.1676534
0.1680202
0.1681579
0.1680323
0.1675807
0.1667136
0.1667057
0.1677246
0.166346
0.1667351
0.166925
0.1668683
0.1665254
0.1657039
0.1654804
0.1653777
0.1662565
0.1977488
0.1996573
0.2014264
0.2029796
0.2043293
0.2060183
0.1958919
0.1977442
0.1994826
0.201009
0.2022942
0.2034178
0.2053313
0.1941533
0.1959524
0.1976548
0.1991633
0.200397
0.20139
0.2022858
0.2043774
0.1924782
0.194219
0.1958763
0.1973471
0.1985565
0.1994509
0.2001354
0.2008156
0.2030985
0.1908324
0.192508
0.1941056
0.1955265
0.1966884
0.1975468
0.1980783
0.1984548
0.1989357
0.2013471
0.1892007
0.1908039
0.1923296
0.1936837
0.1947919
0.195595
0.1960817
0.196255
0.1963423
0.1966431
0.1987979
0.187584
0.1891091
0.1905525
0.1918296
0.1928705
0.1936238
0.19405
0.194168
0.1940033
0.1938322
0.1940195
0.1966586
0.1859959
0.1874399
0.1887957
0.1899899
0.1909607
0.1916554
0.1920384
0.1920808
0.1918201
0.1913078
0.1909144
0.1914875
0.1938603
0.1844601
0.1858242
0.1870945
0.188209
0.1891125
0.1897556
0.1900913
0.1900833
0.1896863
0.1889183
0.1879069
0.1877849
0.1880263
0.1900646
0.1830069
0.1843006
0.1854984
0.1865477
0.1873983
0.1880015
0.1883096
0.1882617
0.1877718
0.1866347
0.1843588
0.1836204
0.183241
0.1832862
0.1850172
0.1769368
0.1773762
0.1775125
0.1775254
0.1776282
0.1788065
0.1724002
0.1728699
0.1730961
0.1730442
0.1728009
0.1723781
0.1740112
0.1692481
0.1696871
0.1699001
0.1698601
0.1695094
0.1687662
0.168909
0.1701642
0.1671018
0.1675247
0.1677508
0.1677341
0.1674375
0.1666692
0.1665119
0.1664847
0.1674805
0.1657881
0.1662251
0.1664822
0.1665273
0.1663106
0.1656732
0.1655169
0.165278
0.1651562
0.1660125
0.1957975
0.197616
0.1993138
0.2008024
0.2020518
0.2031498
0.205184
0.1940308
0.1957932
0.1974481
0.1989084
0.2000953
0.2010349
0.2018744
0.2040735
0.1923747
0.1940881
0.1957084
0.1971405
0.1983119
0.1991639
0.1997892
0.2003881
0.2027025
0.1907755
0.1924372
0.1940157
0.1954162
0.1965582
0.1973955
0.197898
0.1982291
0.1986423
0.201044
0.1892007
0.1908039
0.1923296
0.1936837
0.1947919
0.195595
0.1960817
0.196255
0.1963423
0.1966431
0.1987979
0.1876361
0.1891735
0.190634
0.191929
0.1929869
0.1937574
0.1942054
0.1943575
0.1942519
0.1941712
0.1944673
0.1971394
0.1860826
0.1875484
0.1889335
0.1901577
0.1911564
0.1918788
0.1922969
0.1923978
0.1922447
0.1919176
0.191774
0.1925436
0.1950327
0.1845538
0.1859443
0.1872484
0.1883961
0.1893294
0.1900012
0.1903742
0.1904348
0.190184
0.1897202
0.189218
0.1894478
0.1899974
0.1922622
0.1830728
0.1843887
0.1856129
0.1866865
0.1875575
0.1881796
0.1885125
0.1885168
0.1881675
0.1874479
0.1865321
0.1863117
0.1862583
0.1865586
0.1885716
0.1816692
0.1829192
0.1840755
0.1850881
0.1859095
0.1864948
0.1867987
0.1867693
0.1863191
0.1852746
0.1831461
0.1825076
0.1820824
0.1818801
0.1820205
0.1835705
0.1760779
0.1765562
0.1767715
0.1767575
0.1766469
0.1764609
0.1785372
0.1716933
0.1722208
0.172516
0.1725738
0.1723522
0.171786
0.1721502
0.1737562
0.1686241
0.1691112
0.1694037
0.1694605
0.1692516
0.1685879
0.1685622
0.1686851
0.1699156
0.1665114
0.1669789
0.1672683
0.1673488
0.1671724
0.1665816
0.1664814
0.1663085
0.1662619
0.1672345
0.1652011
0.1656724
0.1659836
0.1661035
0.1659981
0.1655055
0.1654976
0.1653283
0.1650739
0.1649329
0.1657149
0.1939414
0.1956718
0.1972883
0.1987118
0.1998653
0.2007658
0.2015581
0.2038513
0.1922582
0.1939372
0.1955128
0.1969001
0.1980288
0.1988344
0.1993899
0.1998802
0.202199
0.1906768
0.1923128
0.1938565
0.1952211
0.1963285
0.1971293
0.1975813
0.1978263
0.1980991
0.2004359
0.1891463
0.1907364
0.1922441
0.1935792
0.1946691
0.1954533
0.1959157
0.1960493
0.1960708
0.1962759
0.1983843
0.1876361
0.1891735
0.190634
0.191929
0.1929869
0.1937574
0.1942054
0.1943575
0.1942519
0.1941712
0.1944673
0.1971394
0.1861326
0.1876101
0.1890114
0.1902524
0.1912673
0.1920057
0.1924436
0.1925757
0.192475
0.1922304
0.1921892
0.1930423
0.195567
0.1846371
0.1860485
0.1873804
0.1885566
0.1895162
0.1902142
0.1906199
0.1907349
0.1905838
0.1902899
0.1900157
0.1904278
0.1911532
0.193517
0.183163
0.1845042
0.1857607
0.1868658
0.1877651
0.1884144
0.1887826
0.1888515
0.1886398
0.1882049
0.1877626
0.1878597
0.1880881
0.1886335
0.190822
0.1817327
0.1830041
0.1841856
0.1852213
0.1860623
0.1866656
0.186993
0.1870132
0.1866961
0.1860468
0.1851983
0.1850365
0.1848958
0.1849182
0.1852774
0.187089
0.1803753
0.1815846
0.1827024
0.1836809
0.1844753
0.1850435
0.185344
0.1853273
0.1849175
0.1839442
0.181967
0.1814001
0.1810655
0.1808198
0.1807249
0.1807577
0.1832769
0.1751931
0.1757173
0.1759863
0.1760643
0.175943
0.1755821
0.1762219
0.1782674
0.1709583
0.1715227
0.1718854
0.1720234
0.1719251
0.1714098
0.1715773
0.1719208
0.1734997
0.1679681
0.1684935
0.1688416
0.1689869
0.1688862
0.168387
0.168398
0.1683565
0.1684595
0.1696652
0.1658946
0.1663938
0.1667341
0.1668856
0.1668159
0.166364
0.1664052
0.1662919
0.1661034
0.1660373
0.1669343
0.1645921
0.1650901
0.1654413
0.165622
0.1655997
0.1652342
0.1653396
0.1653204
0.1651381
0.1648681
0.1646605
0.1654103
0.1921732
0.1938221
0.1953614
0.1967145
0.1978124
0.1985862
0.1990898
0.1994853
0.2017826
0.1905658
0.1921693
0.1936711
0.1949938
0.1960625
0.1968232
0.1972184
0.1973542
0.1974187
0.1995405
0.189052
0.1906178
0.1920928
0.1933942
0.1944523
0.195204
0.1956236
0.1956835
0.1955702
0.1955582
0.1974992
0.187584
0.1891091
0.1905525
0.1918296
0.1928705
0.1936238
0.19405
0.194168
0.1940033
0.1938322
0.1940195
0.1966586
0.1861326
0.1876101
0.1890114
0.1902524
0.1912673
0.1920057
0.1924436
0.1925757
0.192475
0.1922304
0.1921892
0.1930423
0.195567
0.1846852
0.1861077
0.187455
0.1886472
0.189622
0.1903351
0.1907594
0.1909031
0.1908007
0.1905815
0.1904007
0.190891
0.1916936
0.1940884
0.1832433
0.1846043
0.1858874
0.1870196
0.187944
0.188618
0.1890172
0.1891372
0.1890189
0.1887424
0.1885103
0.1887711
0.1891624
0.1898575
0.1921182
0.1818197
0.1831153
0.1843277
0.1853936
0.1862615
0.1868906
0.1872516
0.1873332
0.1871463
0.1867653
0.1863604
0.1864904
0.1866012
0.1868472
0.1874018
0.1893373
0.1804367
0.1816665
0.1828085
0.1838092
0.1846223
0.1852075
0.1855305
0.1855611
0.1852781
0.1846798
0.1839145
0.1837883
0.1837098
0.1836543
0.1837526
0.1839981
0.1867882
0.1791223
0.1802937
0.1813755
0.1823225
0.1830917
0.1836437
0.1839399
0.1839353
0.1835573
0.1826519
0.1807974
0.1803118
0.1800404
0.1798825
0.1797494
0.1795771
0.1805012
0.1829852
0.1742989
0.1748503
0.1751774
0.1753197
0.1753015
0.1749562
0.1753641
0.1759825
0.1779973
0.1702016
0.1707954
0.1712037
0.1714186
0.1714116
0.1710419
0.171216
0.1713673
0.1716901
0.1732417
0.1672916
0.1678431
0.1682361
0.168445
0.1684423
0.16807
0.1682089
0.1682067
0.1681492
0.1682321
0.1693598
0.1652585
0.1657819
0.1661595
0.1663688
0.1663783
0.166049
0.1661974
0.1662274
0.166101
0.1658966
0.1657633
0.1666272
0.1639681
0.1644855
0.1648684
0.1650953
0.1651409
0.1648723
0.1650767
0.1651722
0.1651418
0.1649464
0.1646171
0.1643819
0.1651787
0.1904848
0.1920599
0.1935276
0.1948182
0.1958589
0.1965917
0.1969475
0.1969941
0.196844
0.1985393
0.188946
0.1904811
0.1919165
0.1931787
0.1942009
0.194917
0.1952881
0.195257
0.1949479
0.1945481
0.195966
0.1874937
0.1889958
0.1904083
0.1916537
0.1926649
0.1933884
0.1937764
0.1938303
0.1935461
0.1931712
0.1930911
0.1956105
0.1860826
0.1875484
0.1889335
0.1901577
0.1911564
0.1918788
0.1922969
0.1923978
0.1922447
0.1919176
0.191774
0.1925436
0.1950327
0.1846852
0.1861077
0.187455
0.1886472
0.189622
0.1903351
0.1907594
0.1909031
0.1908007
0.1905815
0.1904007
0.190891
0.1916936
0.1940884
0.1832895
0.1846613
0.185959
0.1871064
0.1880452
0.1887335
0.1891503
0.1892975
0.1892243
0.1890176
0.1888708
0.1892017
0.1896653
0.1904281
0.1927089
0.1818971
0.1832117
0.1844496
0.1855413
0.186433
0.1870857
0.1874762
0.1876062
0.1875075
0.1872754
0.1870665
0.1873457
0.1876019
0.1879868
0.188663
0.1906359
0.1805207
0.1817737
0.1829454
0.1839749
0.1848137
0.1854236
0.1857787
0.1858677
0.1857085
0.1853644
0.1850176
0.1851617
0.1853124
0.1854538
0.1857306
0.1861309
0.1890355
0.1791817
0.1803727
0.1814779
0.182446
0.1832331
0.1838015
0.1841192
0.1841599
0.1839028
0.1833548
0.1826517
0.1825782
0.182538
0.1825473
0.182576
0.1825946
0.1837384
0.1864892
0.1779077
0.1790434
0.1800918
0.1810091
0.1817548
0.1822916
0.1825834
0.1825883
0.1822396
0.1813905
0.1796487
0.1792229
0.1790233
0.1789253
0.1788804
0.1786877
0.1793441
0.1802464
0.1826953
0.1733981
0.1739719
0.1743369
0.1745459
0.1746008
0.1743778
0.1747542
0.1751457
0.1757427
0.1777268
0.1694334
0.1700459
0.1704911
0.1707596
0.1708388
0.1705785
0.1708602
0.171021
0.171156
0.1714579
0.1729276
0.1666006
0.1671718
0.1675969
0.1678576
0.1679267
0.1676683
0.1679019
0.1680294
0.1680139
0.1679403
0.1679548
0.1690473
0.1646093
0.1651501
0.1655572
0.1658099
0.1658844
0.1656483
0.165891
0.1660294
0.166048
0.1659084
0.1656444
0.1654831
0.1663936
0.1633335
0.1638655
0.1642725
0.1645365
0.1646348
0.1644464
0.1647224
0.1649179
0.1650035
0.1649617
0.1647125
0.1643604
0.1641701
0.1650214
0.1888686
0.1903768
0.1917801
0.1930122
0.1940084
0.1946999
0.1950367
0.1949336
0.1944278
0.1934655
0.193067
0.1873922
0.1888651
0.1902402
0.1914487
0.1924264
0.1931172
0.1934621
0.1934353
0.1929786
0.1922434
0.1915654
0.1937487
0.1859959
0.1874399
0.1887957
0.1899899
0.1909607
0.1916554
0.1920384
0.1920808
0.1918201
0.1913078
0.1909144
0.1914875
0.1938603
0.1846371
0.1860485
0.1873804
0.1885566
0.1895162
0.1902142
0.1906199
0.1907349
0.1905838
0.1902899
0.1900157
0.1904278
0.1911532
0.193517
0.1832895
0.1846613
0.185959
0.1871064
0.1880452
0.1887335
0.1891503
0.1892975
0.1892243
0.1890176
0.1888708
0.1892017
0.1896653
0.1904281
0.1927089
0.1819417
0.1832666
0.1845185
0.1856247
0.1865301
0.1871964
0.1876035
0.1877592
0.1877033
0.1875364
0.1874069
0.1877495
0.1880701
0.1885186
0.1892507
0.1912279
0.1805955
0.1818667
0.1830628
0.184117
0.1849786
0.1856109
0.185994
0.1861293
0.1860537
0.1858505
0.1856878
0.1859697
0.1862522
0.1865165
0.1869069
0.1874006
0.1903342
0.1792629
0.1804763
0.1816099
0.1826058
0.1834174
0.1840094
0.1843577
0.1844543
0.1843153
0.1840092
0.1837025
0.1838819
0.184052
0.184239
0.1844227
0.1845844
0.1858726
0.1887351
0.1779652
0.1791199
0.1801906
0.1811283
0.1818912
0.1824436
0.1827561
0.1828043
0.1825715
0.1820637
0.1814197
0.1813808
0.1813935
0.1814427
0.1815386
0.1815069
0.1823596
0.1834804
0.1861923
0.176729
0.1778313
0.1788482
0.1797379
0.1804615
0.1809839
0.1812712
0.1812842
0.1809605
0.1801627
0.1785173
0.1781462
0.1779974
0.1779669
0.1779812
0.1778876
0.1784722
0.1791126
0.1799931
0.1824074
0.1724986
0.1730854
0.1734823
0.1737365
0.173865
0.1737303
0.1741887
0.1745518
0.174927
0.1755025
0.177399
0.1686582
0.1692842
0.1697548
0.1700675
0.1702081
0.1700493
0.1704072
0.1706775
0.1708248
0.1709434
0.1711753
0.1726061
0.1659008
0.1664855
0.1669357
0.1672348
0.1673629
0.1671902
0.1675089
0.1677324
0.1678485
0.1678196
0.1676857
0.1676713
0.1688095
0.1639514
0.1645051
0.1649343
0.1652219
0.1653464
0.1651874
0.1654978
0.1657316
0.16586
0.1658672
0.1656735
0.1653866
0.1652701
0.166235
0.1626919
0.1632346
0.1636605
0.1639536
0.1640949
0.16397
0.1643032
0.1645712
0.1647578
0.1648333
0.1647419
0.1644734
0.1641655
0.1640265
0.1649411
0.1836998
0.187318
0.1887654
0.1901101
0.1912902
0.1922436
0.1929118
0.1932265
0.1931348
0.1925053
0.1912504
0.1888774
0.1903385
0.1858985
0.1873148
0.1886351
0.1897943
0.1907337
0.1913978
0.191741
0.19171
0.1912916
0.1904511
0.1895033
0.1896933
0.1917846
0.1845538
0.1859443
0.1872484
0.1883961
0.1893294
0.1900012
0.1903742
0.1904348
0.190184
0.1897202
0.189218
0.1894478
0.1899974
0.1922622
0.1832433
0.1846043
0.1858874
0.1870196
0.187944
0.188618
0.1890172
0.1891372
0.1890189
0.1887424
0.1885103
0.1887711
0.1891624
0.1898575
0.1921182
0.1819417
0.1832666
0.1845185
0.1856247
0.1865301
0.1871964
0.1876035
0.1877592
0.1877033
0.1875364
0.1874069
0.1877495
0.1880701
0.1885186
0.1892507
0.1912279
0.1806385
0.1819196
0.1831291
0.1841973
0.1850719
0.1857172
0.1861162
0.1862759
0.1862408
0.1860993
0.1860108
0.1863511
0.1866918
0.1870123
0.1874556
0.1879924
0.1909263
0.1793352
0.1805661
0.1817232
0.1827427
0.1835761
0.1841895
0.1845647
0.1847054
0.1846461
0.1844738
0.184341
0.1846488
0.18494
0.1852377
0.1855206
0.185771
0.1871436
0.1900336
0.1780438
0.17922
0.1803182
0.1812825
0.1820689
0.1826439
0.1829857
0.1830875
0.1829676
0.1826906
0.1824236
0.1826225
0.1828307
0.1830412
0.1832753
0.1833661
0.1843514
0.1856155
0.1884362
0.1767846
0.1779054
0.1789438
0.1798531
0.1805932
0.1811306
0.1814377
0.1814924
0.1812797
0.1808089
0.1802126
0.180207
0.1802543
0.1803561
0.1804928
0.1805398
0.18129
0.1821261
0.183224
0.1858973
0.1755842
0.1766549
0.1776424
0.178506
0.1792089
0.1797176
0.1800004
0.1800204
0.1797188
0.1789658
0.1774077
0.1770799
0.176977
0.1769929
0.1770727
0.1770462
0.177686
0.1782581
0.1788825
0.1797413
0.1820611
0.1716029
0.1721989
0.1726172
0.1729096
0.173089
0.1730404
0.1735521
0.1739993
0.1743492
0.1747079
0.1752113
0.1770634
0.1678809
0.1685149
0.1690052
0.1693497
0.1695413
0.1694571
0.1698869
0.1702348
0.1704936
0.1706274
0.1706846
0.1708862
0.1723614
0.1651961
0.1657901
0.1662587
0.1665885
0.1667615
0.1666599
0.1670384
0.1673482
0.1675617
0.1676662
0.1675828
0.1674253
0.1674557
0.168648
0.1632882
0.163851
0.1642974
0.1646122
0.1647774
0.1646794
0.1650438
0.1653461
0.165571
0.1656893
0.1656467
0.1654335
0.1651907
0.1651256
0.166154
0.1620459
0.1625964
0.163037
0.1633536
0.1635293
0.1634573
0.163833
0.1641589
0.1644187
0.1645963
0.1646257
0.1645174
0.1642919
0.1640334
0.1639532
0.1779565
0.180744
0.1831115
0.1858273
0.1872193
0.1885106
0.189643
0.1905595
0.1912026
0.1915178
0.1914279
0.1908494
0.1895327
0.1870178
0.1865741
0.1882173
0.1844601
0.1858242
0.1870945
0.188209
0.1891125
0.1897556
0.1900913
0.1900833
0.1896863
0.1889183
0.1879069
0.1877849
0.1880263
0.1900646
0.183163
0.1845042
0.1857607
0.1868658
0.1877651
0.1884144
0.1887826
0.1888515
0.1886398
0.1882049
0.1877626
0.1878597
0.1880881
0.1886335
0.190822
0.1818971
0.1832117
0.1844496
0.1855413
0.186433
0.1870857
0.1874762
0.1876062
0.1875075
0.1872754
0.1870665
0.1873457
0.1876019
0.1879868
0.188663
0.1906359
0.1806385
0.1819196
0.1831291
0.1841973
0.1850719
0.1857172
0.1861162
0.1862759
0.1862408
0.1860993
0.1860108
0.1863511
0.1866918
0.1870123
0.1874556
0.1879924
0.1909263
0.1793768
0.1806172
0.1817872
0.18282
0.183666
0.1842918
0.1846821
0.1848461
0.1848254
0.1847115
0.1846488
0.1850109
0.1853553
0.1857034
0.1860326
0.1863249
0.1877361
0.1906256
0.1781138
0.1793068
0.1804276
0.1814146
0.1822219
0.1828175
0.183185
0.183329
0.1832852
0.1831357
0.1830337
0.1833532
0.1836737
0.1839849
0.1843074
0.1844747
0.1855399
0.1868877
0.189734
0.1768608
0.1780023
0.1790672
0.180002
0.1807647
0.1813239
0.1816591
0.1817652
0.1816607
0.1814106
0.181174
0.1813933
0.1816231
0.1818735
0.182134
0.1822889
0.1831514
0.1841196
0.1853597
0.1881388
0.1756381
0.1767267
0.177735
0.1786175
0.1793363
0.1798594
0.1801612
0.1802212
0.1800264
0.1795871
0.1790341
0.1790527
0.1791323
0.179268
0.1794566
0.1795527
0.1803371
0.1810745
0.1818942
0.1829693
0.1855426
0.1744709
0.1755124
0.1764719
0.1773112
0.1779945
0.1784903
0.1787684
0.1787944
0.1785126
0.1778
0.1763194
0.1760297
0.1759616
0.1760188
0.1761428
0.1761876
0.1768565
0.1774858
0.1780453
0.1786539
0.1794384
0.1817067
0.1707146
0.1713152
0.1717502
0.1720695
0.172292
0.1723051
0.1728717
0.1733736
0.1738096
0.1741462
0.1744424
0.1749134
0.176808
0.1671044
0.1677431
0.168247
0.1686168
0.1688464
0.1688248
0.1693027
0.1697235
0.1700614
0.1703086
0.1703871
0.17042
0.1706664
0.1721952
0.1644894
0.1650895
0.1655719
0.1659252
0.1661347
0.1660889
0.1665151
0.1668855
0.1671863
0.1673896
0.1674439
0.1673407
0.1672275
0.1673095
0.1685655
0.1626222
0.1631913
0.1636508
0.1639874
0.1641851
0.1641377
0.1645419
0.164899
0.1651931
0.165409
0.165481
0.1654213
0.1652512
0.165058
0.1650519
0.1613978
0.1619537
0.1624057
0.1627412
0.1629451
0.1629166
0.1633259
0.1636948
0.1640133
0.164265
0.1643993
0.1644136
0.164347
0.164169
0.1639661
0.1739853
0.175678
0.1776715
0.1794989
0.1802382
0.182235
0.1843917
0.1857325
0.1869752
0.1880644
0.1889462
0.1895694
0.1898789
0.1898156
0.1892698
0.1880567
0.1855933
0.1848965
0.184772
0.186482
0.1830728
0.1843887
0.1856129
0.1866865
0.1875575
0.1881796
0.1885125
0.1885168
0.1881675
0.1874479
0.1865321
0.1863117
0.1862583
0.1865586
0.1885716
0.1818197
0.1831153
0.1843277
0.1853936
0.1862615
0.1868906
0.1872516
0.1873332
0.1871463
0.1867653
0.1863604
0.1864904
0.1866012
0.1868472
0.1874018
0.1893373
0.1805955
0.1818667
0.1830628
0.184117
0.1849786
0.1856109
0.185994
0.1861293
0.1860537
0.1858505
0.1856878
0.1859697
0.1862522
0.1865165
0.1869069
0.1874006
0.1903342
0.1793768
0.1806172
0.1817872
0.18282
0.183666
0.1842918
0.1846821
0.1848461
0.1848254
0.1847115
0.1846488
0.1850109
0.1853553
0.1857034
0.1860326
0.1863249
0.1877361
0.1906256
0.1781541
0.1793562
0.1804894
0.1814892
0.1823085
0.1829159
0.183298
0.1834642
0.1834574
0.1833635
0.1833278
0.1836981
0.1840679
0.184425
0.1847887
0.1849921
0.1860947
0.1874808
0.1903258
0.1769286
0.1780864
0.1791729
0.1801297
0.1809124
0.1814913
0.1818512
0.1819978
0.1819662
0.1818379
0.1817583
0.1820913
0.1824261
0.1827695
0.1831095
0.1833317
0.1842619
0.1853097
0.1866327
0.1894355
0.1757121
0.1768206
0.1778544
0.1787615
0.1795021
0.1800461
0.1803749
0.1804844
0.1803935
0.1801657
0.1799567
0.1801885
0.1804399
0.1807132
0.1810147
0.181206
0.1820884
0.1829378
0.1838891
0.1851052
0.1877806
0.1745233
0.1755819
0.1765616
0.1774191
0.1781177
0.1786274
0.1789238
0.1789884
0.1788093
0.1783982
0.1778824
0.1779222
0.1780248
0.1781915
0.178413
0.1785669
0.1793619
0.1801358
0.1808604
0.1816639
0.182663
0.1851796
0.173388
0.1744011
0.1753348
0.1761508
0.1768159
0.1772994
0.1775729
0.177604
0.1773401
0.1766638
0.1752534
0.1749957
0.1749577
0.1750453
0.175208
0.1753016
0.1760079
0.1766679
0.1772869
0.1778339
0.1783789
0.1791286
0.1814369
0.1698353
0.1704378
0.1708843
0.1712253
0.171479
0.1715444
0.1721446
0.1727026
0.1731948
0.1736195
0.1739001
0.1741709
0.1746869
0.1766344
0.166331
0.1669716
0.1674853
0.167874
0.1681343
0.168161
0.1686775
0.1691473
0.1695591
0.1698869
0.1700834
0.1701415
0.170219
0.1705173
0.1721102
0.1637828
0.1643865
0.1648792
0.165251
0.1654892
0.1654898
0.1659503
0.1663692
0.1667314
0.1670232
0.1671798
0.1672168
0.1671568
0.1670934
0.1672348
0.1619553
0.1625285
0.1629981
0.1633521
0.1635764
0.1635705
0.1640059
0.1644033
0.1647529
0.1650389
0.1652113
0.1652682
0.1652503
0.1651278
0.1649903
0.160749
0.1613086
0.1617695
0.1621203
0.1623475
0.1623556
0.1627904
0.1631934
0.1635555
0.1638665
0.1640774
0.1641981
0.1642527
0.1642317
0.1641064
0.1714108
0.1721466
0.1737626
0.1748085
0.1754261
0.177141
0.1785888
0.1790348
0.1794793
0.1812154
0.1830069
0.1843006
0.1854984
0.1865477
0.1873983
0.1880015
0.1883096
0.1882617
0.1877718
0.1866347
0.1843588
0.1836204
0.183241
0.1832862
0.1850172
0.1817327
0.1830041
0.1841856
0.1852213
0.1860623
0.1866656
0.186993
0.1870132
0.1866961
0.1860468
0.1851983
0.1850365
0.1848958
0.1849182
0.1852774
0.187089
0.1805207
0.1817737
0.1829454
0.1839749
0.1848137
0.1854236
0.1857787
0.1858677
0.1857085
0.1853644
0.1850176
0.1851617
0.1853124
0.1854538
0.1857306
0.1861309
0.1890355
0.1793352
0.1805661
0.1817232
0.1827427
0.1835761
0.1841895
0.1845647
0.1847054
0.1846461
0.1844738
0.184341
0.1846488
0.18494
0.1852377
0.1855206
0.185771
0.1871436
0.1900336
0.1781541
0.1793562
0.1804894
0.1814892
0.1823085
0.1829159
0.183298
0.1834642
0.1834574
0.1833634
0.1833278
0.1836981
0.1840679
0.184425
0.1847887
0.1849921
0.1860947
0.1874808
0.1903258
0.1769677
0.1781342
0.1792327
0.1802017
0.180996
0.1815863
0.1819601
0.1821281
0.1821318
0.1820565
0.1820401
0.1824209
0.1828017
0.1831873
0.1835644
0.1838182
0.1847802
0.1858653
0.1872262
0.1900268
0.1757778
0.1769021
0.1779568
0.178885
0.1796449
0.1802078
0.1805604
0.1807087
0.1806878
0.1805766
0.1805175
0.1808571
0.1812071
0.1815667
0.181941
0.1821918
0.1831332
0.18405
0.1850805
0.1863788
0.1890756
0.174595
0.1756731
0.1766773
0.1775586
0.1782782
0.178808
0.1791305
0.1792426
0.1791635
0.1789555
0.1787693
0.179012
0.1792768
0.1795721
0.179897
0.1801367
0.1810174
0.1818891
0.1827253
0.1836598
0.1847987
0.1874139
0.173439
0.1744687
0.1754218
0.1762555
0.1769353
0.1774321
0.1777234
0.1777916
0.1776267
0.1772407
0.1767581
0.1768144
0.1769369
0.1771252
0.1773762
0.1775676
0.1783864
0.1791725
0.1799359
0.1806479
0.1813871
0.1823496
0.1849031
0.1723329
0.1733203
0.1742288
0.1750234
0.1756709
0.1761428
0.1764118
0.1764474
0.1761995
0.1755563
0.1742097
0.1739798
0.1739661
0.1740794
0.17427
0.1744059
0.1751308
0.1758294
0.1764806
0.1770892
0.1775797
0.1780978
0.178893
0.1812536
0.1689664
0.1695687
0.1700233
0.1703803
0.1706593
0.1707642
0.1713914
0.1719839
0.1725333
0.1730157
0.1733892
0.1736486
0.1739646
0.1745331
0.1765456
0.1655622
0.1662029
0.1667233
0.1671265
0.1674107
0.1674774
0.1680201
0.1685292
0.1689909
0.1693938
0.1696745
0.1698532
0.169955
0.1700827
0.1704411
0.1630781
0.1636834
0.1641836
0.16457
0.1648315
0.1648698
0.1653569
0.1658107
0.1662221
0.1665762
0.1668242
0.1669655
0.1670444
0.1670323
0.167025
0.1612889
0.1618647
0.1623419
0.1627098
0.162956
0.162985
0.1634439
0.163873
0.1642636
0.1646057
0.1648508
0.1650095
0.1651067
0.1651345
0.1650649
0.160101
0.1606626
0.1611304
0.1614936
0.1617403
0.1617793
0.162234
0.162663
0.1630597
0.163415
0.1636874
0.1638859
0.1640455
0.1641439
0.164173
0.1701368
0.169847
0.1712045
0.1715356
0.1719458
0.1733245
0.1742162
0.1745776
0.1749553
0.176406
0.17778
0.1781579
0.1783394
0.1785897
0.1801225
0.1816692
0.1829192
0.1840755
0.1850881
0.1859095
0.1864948
0.1867987
0.1867693
0.1863191
0.1852746
0.1831461
0.1825076
0.1820824
0.1818801
0.1820205
0.1835705
0.1804367
0.1816665
0.1828085
0.1838092
0.1846223
0.1852075
0.1855305
0.1855611
0.1852781
0.1846798
0.1839145
0.1837883
0.1837098
0.1836543
0.1837526
0.1839981
0.1867882
0.1792629
0.1804763
0.1816099
0.1826058
0.1834174
0.1840094
0.1843577
0.1844543
0.1843153
0.1840092
0.1837025
0.1838819
0.184052
0.184239
0.1844227
0.1845844
0.1858726
0.1887351
0.1781138
0.1793068
0.1804276
0.1814146
0.1822219
0.1828175
0.183185
0.183329
0.1832852
0.1831357
0.1830337
0.1833532
0.1836737
0.1839849
0.1843074
0.1844747
0.1855399
0.1868877
0.189734
0.1769677
0.1781342
0.1792327
0.1802017
0.180996
0.1815863
0.1819601
0.1821281
0.1821318
0.1820565
0.1820401
0.1824209
0.1828017
0.1831873
0.1835644
0.1838182
0.1847802
0.1858653
0.1872262
0.1900268
0.1758157
0.1769484
0.1780147
0.1789547
0.1797256
0.1802995
0.1806655
0.1808344
0.1808473
0.1807869
0.1807879
0.1811727
0.1815659
0.1819648
0.1823729
0.1826517
0.1836206
0.1845692
0.1856367
0.1869725
0.1896662
0.1746589
0.1757521
0.1767765
0.1776782