/*--------------------------------*- C++ -*----------------------------------*\
| =========                 |                                                 |
| \\      /  F ield         | OpenFOAM: The Open Source CFD Toolbox           |
|  \\    /   O peration     | Version:  2306                                  |
|   \\  /    A nd           | Website:  www.openfoam.com                      |
|    \\/     M anipulation  |                                                 |
\*---------------------------------------------------------------------------*/
FoamFile
{
    version     2.0;
    format      ascii;
    arch        "LSB;label=32;scalar=64";
    class       volVectorField;
    location    "0.6/phiI";
    object      i;
}
// * * * * * * * * * * * * * * * * * * * * * * * * * * * * * * * * * * * * * //

dimensions      [0 -2 0 0 0 1 0];

internalField   nonuniform List<vector> 
12000
(
(35.26458 -0.8191751 1590.504)
(35.61661 -2.785706 1604.327)
(68.79978 2.701057 1459.51)
(35.78856 -1.372095 4837.627)
(36.21631 -2.523322 1632.285)
(69.33618 6.731568 1468.327)
(36.16061 -4.456957 4879.05)
(60.25738 4.544876 1349.258)
(69.76476 2.34837 4437.455)
(36.86527 -2.476103 8180.268)
(36.75928 4.917837 1674.251)
(70.28723 8.903424 1485.669)
(36.80277 -5.320297 4962.779)
(60.53728 12.08879 1355.966)
(70.32963 5.685197 4463.867)
(37.27734 -7.79179 8249.761)
(47.95907 5.500013 1261.038)
(61.05127 4.276557 4099.213)
(71.75343 1.644574 7499.9)
(38.51003 -4.15183 11600.7)
(36.68583 24.39558 1728.446)
(71.26322 9.613051 1510.32)
(37.41501 1.071406 5088.4)
(61.085 16.74708 1368.998)
(71.34038 7.223718 4515.802)
(38.00422 -10.89733 8390.162)
(48.10983 15.00777 1266.549)
(61.34439 11.2992 4119.3)
(72.37518 3.597665 7544.2)
(38.98285 -12.85273 11699.62)
(38.32189 6.052512 1187.773)
(48.60501 5.279536 3828.103)
(62.69479 3.741387 6923.238)
(74.79288 0.5763849 10629.85)
(40.74867 -6.432946 15138.58)
(35.29059 52.58007 1787.189)
(71.5425 9.708663 1539.425)
(37.44192 19.87809 5250.46)
(61.79195 17.47061 1387.072)
(72.41194 7.462811 4589.668)
(38.75421 -6.589398 8600.735)
(48.42686 21.45009 1277.184)
(61.91894 15.50282 4158.322)
(73.50506 3.871366 7631.302)
(39.83822 -19.35924 11899.46)
(38.40723 16.76672 1192.488)
(48.76374 14.36189 3844.604)
(63.01433 9.724434 6956.918)
(75.501 0.4291369 10692.91)
(41.30421 -19.7421 15268.98)
(31.10177 6.353447 1124.884)
(38.8665 5.863907 3602.8)
(49.94472 4.839972 6460.566)
(65.20861 2.929362 9806.846)
(78.92885 -0.8775661 13861.33)
(43.61903 -9.36796 17056.51)
(32.6067 74.30014 1833.999)
(70.15978 11.78879 1567.005)
(36.17132 48.35795 5425.742)
(62.44757 13.36116 1407.491)
(72.82632 7.441247 4676.965)
(38.97981 10.9019 8872.125)
(48.88123 23.23866 1291.739)
(62.66627 15.93088 4212.499)
(74.76683 3.166553 7755.273)
(40.79685 -18.2071 12199.16)
(38.59884 24.46104 1201.547)
(49.09666 20.4425 3876.443)
(63.64244 13.01913 7022.352)
(76.81162 -1.219206 10816.91)
(42.33443 -30.87883 15532.45)
(31.14596 17.77731 1129.017)
(38.95737 16.21575 3616.911)
(50.11939 13.07419 6488.224)
(65.5683 7.334645 9854.768)
(79.7546 -3.884448 13944.43)
(44.28106 -28.60756 17202.9)
(25.68214 6.494379 1069.791)
(31.5737 6.188144 3409.348)
(39.99691 5.48807 6075.94)
(51.9942 4.173233 9146.644)
(68.62763 1.824516 12779.73)
(84.22826 -2.747719 15608.97)
(46.53886 -12.28831 17286.25)
(29.49551 75.74478 1865.496)
(66.98746 16.34936 1585.911)
(33.59906 71.16784 5564.989)
(62.68506 7.02961 1425.361)
(71.60709 9.929371 4759.78)
(37.95444 39.99893 9165.005)
(49.41058 18.63978 1307.781)
(63.37414 11.82959 4273.819)
(75.44907 2.904208 7901.96)
(41.32257 -2.692728 12585.24)
(38.89128 27.30784 1213.849)
(49.57412 22.01479 3920.067)
(64.47035 12.85072 7113.307)
(78.36165 -3.363511 10993.52)
(43.57675 -34.02069 15927.66)
(31.25503 26.2906 1136.933)
(39.15985 23.6066 3644.024)
(50.48405 18.43157 6541.6)
(66.27775 9.247259 9947.902)
(81.31129 -8.153346 14107.91)
(45.53635 -45.7064 17498.54)
(25.69976 18.29934 1073.477)
(31.622 17.29535 3421.711)
(40.09881 15.11775 6099.582)
(52.19308 11.12057 9185.981)
(69.04203 4.082222 12842.86)
(85.20548 -9.434365 15702.19)
(47.30705 -37.42299 17431.93)
(21.49947 6.529671 1020.761)
(26.09863 6.346938 3239.843)
(32.5536 5.8589 5745.665)
(41.72611 4.918205 8597.948)
(54.78031 3.266468 11912.81)
(73.00268 0.4042541 14381.01)
(89.63085 -4.60647 15813.85)
(49.50865 -15.19485 17517.07)
(26.91248 55.06779 1884.243)
(63.07137 18.80252 1596.879)
(30.56998 73.73502 5658.294)
(62.22924 3.416042 1436.042)
(68.57929 15.15441 4816.542)
(35.60049 64.99808 9396.934)
(49.85752 9.605523 1321.171)
(63.6684 5.887583 4327.666)
(74.55208 6.205694 8041.336)
(40.666 27.36556 13001.29)
(39.26908 23.12407 1227.213)
(50.13169 17.46252 3968.258)
(65.28239 8.754455 7216.489)
(79.44887 -4.001266 11202.77)
(44.50971 -21.18347 16436.75)
(31.431 29.94106 1147.63)
(39.46772 26.2812 3680.885)
(51.00768 19.56605 6614.832)
(67.22803 8.165408 10077.5)
(83.25346 -12.26793 14340.98)
(47.14359 -54.37929 17942.07)
(25.75373 27.31147 1080.522)
(31.73913 25.54607 3445.398)
(40.32302 21.90208 6145.02)
(52.60599 15.37816 9261.927)
(69.86236 4.109735 12965.6)
(87.079 -17.08113 15885.52)
(48.7865 -60.44559 17725.84)
(21.49988 18.49321 1024.09)
(26.11947 17.87007 3250.867)
(32.61013 16.33529 5766.371)
(41.84478 13.45253 8631.561)
(55.01222 8.462847 11964.6)
(73.48761 -0.1001779 14451.79)
(90.75905 -14.94663 15906.52)
(50.38268 -46.19116 17662.07)
(18.21338 6.498522 976.6661)
(21.87196 6.396513 3088.977)
(26.96362 6.05343 5456.265)
(34.0524 5.359871 8126.909)
(44.07585 4.143551 11192.77)
(58.34206 2.101581 13396.25)
(77.47849 -1.006345 14558.95)
(95.13747 -6.454511 16019.65)
(52.52852 -18.08833 17747.89)
(25.48105 19.96401 1892.915)
(59.71297 14.92313 1602.669)
(28.03877 53.97102 5713.598)
(61.28865 2.999922 1441.032)
(64.76923 18.13218 4849.39)
(32.73113 69.80039 9551.711)
(50.02917 2.385236 1328.417)
(63.25921 2.789223 4359.984)
(71.80747 12.76496 8136.869)
(38.63932 55.69958 13330.03)
(39.65687 13.21546 1238.056)
(50.60674 8.780084 4008.658)
(65.68954 3.583004 7307.471)
(79.03723 0.5329921 11401.93)
(44.35188 10.20737 16984.91)
(31.67557 26.29562 1159.146)
(39.86363 22.15582 3721.019)
(51.62178 15.09614 6695.95)
(68.19818 4.063039 10224.84)
(84.89067 -13.4322 14617.49)
(48.59961 -44.98259 18513.47)
(25.84799 31.51323 1090.012)
(31.92635 29.05256 3477.439)
(40.6618 24.22802 6206.879)
(53.19983 15.84078 9366.259)
(70.97941 1.773106 13136.61)
(89.52584 -23.74671 16147.06)
(50.75678 -74.61797 18166.81)
(21.51781 27.7729 1030.442)
(26.17969 26.65007 3271.941)
(32.74336 24.06149 5806.053)
(42.10203 19.31475 8696.188)
(55.49091 11.22047 12064.64)
(74.45084 -2.502855 14589.35)
(92.94804 -25.94828 16088.58)
(52.08542 -75.10174 17954.35)
(18.20305 18.48273 979.7025)
(21.87498 18.10596 3098.93)
(26.99089 17.0154 5474.72)
(34.12145 14.8798 8156.336)
(44.21739 11.18815 11237)
(58.61654 5.047238 13454.28)
(78.03366 -4.251094 14629.25)
(96.41617 -20.42341 16111.8)
(53.50811 -54.91451 17892.25)
(15.58703 6.426385 936.6487)
(18.54983 6.377067 2953.27)
(22.64576 6.131576 5198.689)
(28.28653 5.608743 7714.26)
(36.08835 4.681824 10574.95)
(47.07756 3.149003 12578.26)
(61.99135 0.945215 13550.6)
(82.05567 -2.407842 14737.71)
(100.7483 -8.292464 16225.49)
(55.59824 -20.96938 17977.66)
(25.48105 -19.96403 1892.915)
(57.81941 5.649712 1605.15)
(26.63211 19.61712 5739.104)
(60.32921 2.548224 1442.984)
(61.47801 14.59229 4866.65)
(30.30027 51.8354 9643.085)
(49.93437 -0.1977265 1331.135)
(62.35162 2.722247 4375.154)
(68.20393 16.79818 8192.018)
(36.00876 63.88899 13548.83)
(39.92486 4.184563 1243.539)
(50.79918 1.986663 4030.682)
(65.37268 1.516537 7362.339)
(76.71767 9.127137 11538.48)
(42.7667 43.09646 17417.27)
(31.9526 16.16327 1168.324)
(40.26826 12.56243 3753.731)
(52.15326 7.108565 6764.326)
(68.77644 0.0535759 10355.28)
(85.13615 -7.222718 14881.23)
(49.08071 -11.85489 19128.16)
(25.99148 28.34006 1100.167)
(32.18376 25.46787 3512.006)
(41.09409 20.21021 6274.419)
(53.89997 11.48276 9482.121)
(72.16498 -2.356556 13331.47)
(91.86999 -25.61138 16457.8)
(52.73236 -68.62736 18735.03)
(21.55789 32.31858 1038.978)
(26.2826 30.72746 3300.353)
(32.95313 27.27674 5859.802)
(42.48784 21.10526 8784.285)
(56.18055 10.75831 12202.26)
(75.78289 -6.469398 14781.18)
(95.897 -35.15934 16348.46)
(54.41697 -94.74663 18392.92)
(18.19797 27.89161 985.4878)
(21.89794 27.17737 3117.924)
(27.06363 25.33201 5510.012)
(34.27917 21.80885 8212.754)
(44.51972 15.79311 11322.08)
(59.18006 5.871622 13566.34)
(79.13907 -9.066075 14765.75)
(98.91936 -34.75882 16292.65)
(55.4333 -89.67972 18182.99)
(15.56994 18.33911 939.4394)
(18.54166 18.12986 2962.345)
(22.65397 17.33533 5215.344)
(28.32358 15.72019 7740.476)
(36.17447 12.90151 10613.65)
(47.24859 8.279811 12627.79)
(62.30821 1.659196 13608.22)
(82.68081 -8.372283 14807.57)
(102.177 -25.8667 16317.15)
(56.68309 -63.59514 18121.41)
(13.45358 6.327559 900.0832)
(15.89337 6.314757 2830.094)
(19.24891 6.135543 4966.983)
(23.82909 5.730333 7347.066)
(30.083 5.004813 10033.95)
(38.68768 3.811831 11876.44)
(50.1551 2.162269 12712.3)
(65.72869 -0.2030868 13705.71)
(86.73425 -3.800758 14916.59)
(106.4627 -10.12088 16430.48)
(58.71722 -23.83849 16171.44)
(26.91248 -55.06776 1884.243)
(57.81942 -5.649718 1605.15)
(26.63211 -19.61714 5739.104)
(59.74473 1.028444 1443.59)
(59.61671 5.550467 4874.014)
(28.9414 18.9438 9685.103)
(49.73754 -0.5159927 1331.725)
(61.41299 2.445891 4381.119)
(65.04289 13.93815 8220.87)
(33.72763 48.63535 13677.69)
(40.03567 0.08359932 1245.227)
(50.71759 -0.3300462 4039.062)
(64.52996 2.154543 7388.234)
(73.42314 14.77215 11617.19)
(40.45772 55.89389 17704.48)
(32.17755 6.173283 1172.755)
(40.54751 3.897702 3770.419)
(52.38743 1.169077 6801.916)
(68.59903 -0.4413113 10434.26)
(83.39054 4.15488 15062.1)
(48.05999 26.9166 19611.55)
(26.16954 18.23528 1108.169)
(32.47215 15.6189 3539.679)
(41.53278 11.23947 6329.795)
(54.51745 4.541419 9580.299)
(72.97608 -4.79386 13504.69)
(92.95809 -17.2511 16754.64)
(53.84596 -33.71595 19345.6)
(21.63157 29.51114 1048.076)
(26.43576 27.61377 3330.818)
(33.23638 23.80601 5917.946)
(42.97564 17.23919 8880.738)
(56.9982 6.534516 12355.51)
(77.24611 -10.66005 15000.21)
(98.94369 -37.73553 16657.72)
(56.90885 -92.13409 18958.27)
(18.20269 32.65091 993.2481)
(21.94495 31.61323 3143.472)
(27.18386 29.15816 5557.65)
(34.52326 24.57685 8289.271)
(44.96975 16.84602 11438.24)
(59.99333 4.205948 13720.65)
(80.68508 -14.66152 14956.26)
(102.368 -46.51237 16551.01)
(58.12443 -114.7746 18619.31)
(15.54966 27.76929 944.7497)
(18.54074 27.34979 2979.639)
(22.68702 25.99122 5247.141)
(28.41534 23.33284 7790.632)
(36.36559 18.74407 10687.89)
(47.60905 11.26502 12723.05)
(62.95611 0.5659137 13719.35)
(83.92774 -15.58315 14943.07)
(104.9932 -43.51648 16496.86)
(58.82992 -104.184 18410.66)
(13.43225 18.10894 902.6646)
(15.87809 18.01507 2838.432)
(19.24504 17.42798 4982.162)
(23.84521 16.1679 7370.714)
(30.13338 13.96054 10068.41)
(38.79582 10.36211 11919.75)
(50.3555 5.396583 12761.45)
(66.08777 -1.702713 13762.94)
(87.42912 -12.4654 14986.03)
(108.041 -31.2783 16521.68)
(59.90704 -72.23487 16298.93)
(11.69111 6.213083 866.4806)
(13.73425 6.224303 2717.528)
(16.53 6.092883 4756.667)
(20.31792 5.769903 7016.806)
(25.43558 5.185652 9552.722)
(32.37543 4.230376 11261.94)
(41.35363 2.949135 11992.76)
(53.30894 1.182974 12847.02)
(69.55412 -1.343757 13861)
(91.51363 -5.185571 15094.87)
(112.2794 -11.94025 14783.9)
(61.1484 -26.06882 12415.43)
(29.49551 -75.74473 1865.496)
(59.71297 -14.92314 1602.669)
(28.03877 -53.97099 5713.598)
(59.74473 -1.028447 1443.59)
(59.61672 -5.550474 4874.014)
(28.94141 -18.94382 9685.103)
(49.59544 -0.1950962 1331.692)
(60.83857 1.00418 4382.983)
(63.2439 5.355164 8233.126)
(32.44002 17.93641 13736.85)
(40.05069 -0.8410787 1245.269)
(50.5284 -0.538282 4040.975)
(63.63191 2.235052 7398.486)
(70.45641 12.94797 11658.26)
(38.37802 44.3149 17873.34)
(32.3076 1.060594 1173.904)
(40.6646 0.01441911 3775.676)
(52.33228 -0.6094672 6816.461)
(67.85385 1.276349 10471.73)
(80.51233 12.00708 15166.26)
(46.16163 45.64584 19931.47)
(26.32875 7.734569 1111.909)
(32.70407 5.950066 3553.156)
(41.83496 3.306782 6358.341)
(54.81517 -0.0987174 9634.676)
(72.98789 -3.1417 13609.99)
(91.94677 -2.274179 16958.09)
(53.38053 10.96416 19823.42)
(21.73573 19.53592 1055.19)
(26.62208 17.76559 3354.922)
(33.54783 14.51727 5964.77)
(43.46648 9.205546 8960.285)
(57.73323 1.006345 12486.08)
(78.35706 -11.08709 15195.54)
(100.8667 -27.23421 16953.51)
(58.64905 -55.39037 19565.2)
(18.22907 30.11837 1001.494)
(22.02626 28.86269 3170.748)
(27.35652 26.1573 5608.864)
(34.84598 21.26914 8372.276)
(45.53347 13.17023 11565.79)
(60.96272 0.1302966 13892.85)
(82.42478 -18.93084 15174.23)
(106.1132 -49.81328 16858.97)
(61.12956 -115.5186 19182.09)
(15.53001 32.62958 951.8639)
(18.55115 32.01064 3002.856)
(22.74788 30.20564 5289.957)
(28.56198 26.77337 7858.422)
(36.65658 20.89584 10788.73)
(48.14199 11.35715 12853.2)
(63.89247 -2.30219 13872.49)
(85.68677 -22.80835 15132.35)
(108.9393 -57.81201 16753.8)
(61.87901 -134.7108 18844.88)
(13.40227 27.49238 907.5709)
(15.86132 27.27231 2854.302)
(19.25246 26.27115 5011.102)
(23.89358 24.19285 7415.885)
(30.2511 20.61416 10134.37)
(39.03002 14.80564 12002.82)
(50.77378 6.776494 12855.86)
(66.81965 -4.699291 13873.19)
(88.81693 -22.05714 15120.58)
(111.169 -52.22474 16700.31)
(62.27472 -118.6184 16555.32)
(11.66728 17.82609 868.8812)
(13.71448 17.80943 2725.238)
(16.51837 17.3708 4770.609)
(20.3206 16.36511 7038.35)
(25.46247 14.58257 9583.791)
(32.443 11.70312 11300.48)
(41.48369 7.845979 12035.72)
(53.53859 2.537291 12895.81)
(69.95527 -5.039861 13917.85)
(92.278 -16.53198 15163.92)
(114.007 -36.65985 14864.8)
(62.41963 -78.94997 12512.13)
(10.2227 6.089328 835.4573)
(11.94961 6.117059 2614.066)
(14.31769 6.019163 4564.459)
(17.50346 5.757113 6717.081)
(21.76885 5.273774 9120.045)
(27.48469 4.48759 10715.39)
(34.7272 3.462891 11362.56)
(44.08662 2.093429 12109.7)
(56.53915 0.2107581 12981.97)
(73.46716 -2.477204 14015.9)
(96.39259 -6.562714 13582.86)
(116.817 -13.35652 11359.34)
(62.94156 -27.70674 8805.113)
(32.6067 -74.30009 1833.999)
(63.07137 -18.80253 1596.879)
(30.56998 -73.73496 5658.294)
(60.32922 -2.548226 1442.984)
(61.47801 -14.5923 4866.65)
(30.30027 -51.83538 9643.085)
(49.59544 0.1950962 1331.692)
(60.83857 -1.004183 4382.983)
(63.2439 -5.355171 8233.126)
(32.44002 -17.93643 13736.85)
(40.03835 -0.3925127 1245)
(50.3898 -0.1937853 4040.944)
(63.07701 0.9538659 7401.716)
(68.75026 5.060243 11675.65)
(37.18618 16.57764 17950.77)
(32.36576 -0.4892368 1173.704)
(40.68278 -0.83198 3775.927)
(52.1583 -0.5912641 6819.971)
(67.01659 1.906611 10486.68)
(77.80696 11.59944 15220.52)
(44.33891 38.78372 20118.97)
(26.43121 1.965701 1112.75)
(32.83751 1.022623 3556.756)
(41.9649 -0.1367179 6367.588)
(54.80018 -1.052216 9656.036)
(72.37455 0.05803026 13660.22)
(89.60021 8.435061 17074.95)
(51.88381 35.59694 20137.69)
(21.83832 8.789888 1058.437)
(26.78602 7.551325 3366.279)
(33.79411 5.490221 5987.831)
(43.80385 2.385983 9001.691)
(58.11772 -1.860406 12558.91)
(78.61179 -6.662278 15314.63)
(100.5782 -8.657296 17155.9)
(58.73007 -4.767245 20037.68)
(18.28064 20.30279 1007.908)
(22.13677 19.12149 3192.153)
(27.55965 16.81684 5649.615)
(35.19286 12.8235 8439.531)
(46.09586 6.401366 11671.62)
(61.84972 -3.594287 14040.15)
(83.83404 -17.37053 15369.14)
(108.8639 -37.17817 17153.94)
(63.49099 -76.89235 19785.86)
(15.52289 30.29064 959.4074)
(18.58375 29.532 3027.567)
(22.84458 27.56388 5335.781)
(28.76442 23.93519 7931.499)
(37.03333 17.79565 10898.45)
(48.80391 7.903909 12996.44)
(65.01328 -6.245856 14043.76)
(87.70195 -27.17517 15349.4)
(113.3792 -61.85296 17060.66)
(65.39459 -138.7962 19405.38)
(13.36712 32.38323 914.1376)
(15.84646 32.04327 2875.579)
(19.27426 30.73379 5049.997)
(23.97556 28.0676 7476.786)
(30.43381 23.52348 10223.66)
(39.38157 16.15451 12115.75)
(51.38931 5.910172 12984.94)
(67.87862 -8.77024 14025.25)
(90.78812 -30.91477 15308.73)
(115.6103 -69.06414 16955.93)
(65.6802 -154.5634 16940.19)
(11.63134 27.11807 873.439)
(13.68752 27.03346 2739.897)
(16.50862 26.2834 4797.156)
(20.34068 24.6364 7079.445)
(25.53176 21.74836 9643.171)
(32.59421 17.12248 11374.26)
(41.76074 10.9041 12118.01)
(54.01443 2.325343 12989.42)
(70.77073 -9.926535 14027.27)
(93.8061 -28.49094 15297.57)
(117.4455 -60.88678 15023.16)
(64.95855 -129.8344 12706.58)
(10.19743 17.51131 837.7001)
(11.92714 17.54775 2621.234)
(14.30104 17.21417 4577.346)
(17.49736 16.39551 6736.86)
(21.78046 14.9224 9148.336)
(27.52548 12.54993 10750.12)
(34.8119 9.467677 11400.77)
(44.23853 5.35215 12152.32)
(56.79796 -0.2992139 13030.41)
(73.91024 -8.353559 14072.4)
(97.22623 -20.57347 13644.13)
(118.6603 -40.84846 11420.76)
(64.27253 -83.881 8872.972)
(8.99276 5.960337 806.6963)
(10.46184 5.999615 2518.53)
(12.48709 5.926372 4387.791)
(15.20976 5.70883 6443.2)
(18.82443 5.30171 8727.493)
(23.61884 4.638288 10224)
(29.58732 3.796206 10801.94)
(37.13871 2.702107 11463.74)
(46.88676 1.244412 12226.89)
(59.84537 -0.7547268 13116.69)
(77.46685 -3.603807 12611.19)
(100.2045 -7.636273 10443.84)
(120.1657 -14.39699 8059.672)
(64.13016 -28.78317 5292.275)
(35.29058 -52.58006 1787.189)
(66.98745 -16.34938 1585.911)
(33.59905 -71.16779 5564.989)
(61.28865 -2.999923 1441.032)
(64.76923 -18.1322 4849.39)
(32.73113 -69.80034 9551.711)
(49.73754 0.5159928 1331.725)
(61.41299 -2.445893 4381.119)
(65.04289 -13.93816 8220.87)
(33.72763 -48.63533 13677.69)
(40.03835 0.3925125 1245)
(50.3898 0.1937853 4040.944)
(63.07701 -0.953869 7401.716)
(68.75026 -5.06025 11675.65)
(37.18618 -16.57766 17950.77)
(32.38484 -0.3185128 1173.346)
(40.67174 -0.3817436 3775.18)
(52.02666 -0.193842 6820.058)
(66.49084 0.8749813 10491.43)
(76.22558 4.659221 15243.47)
(43.26922 14.83925 20204.77)
(26.48451 -0.06864104 1112.44)
(32.89708 -0.4668978 3556.255)
(41.98957 -0.8212402 6368.282)
(54.64921 -0.6821585 9661.447)
(71.61915 1.447342 13680.41)
(87.22816 9.859676 17135.61)
(50.31148 33.38297 20320.94)
(21.90831 2.618251 1059.083)
(26.89049 1.944455 3368.915)
(33.93464 0.9366395 5994.226)
(43.95354 -0.3832346 9015.459)
(58.15739 -1.680281 12587.95)
(78.16712 -1.540272 15371.58)
(98.75189 4.90636 17271.56)
(57.62616 25.74475 20346.4)
(18.34021 9.460437 1010.784)
(22.24283 8.634136 3201.993)
(27.7334 7.174838 5669.033)
(35.46131 4.771825 8473.022)
(46.48158 1.099826 11727.24)
(62.34618 -4.173583 14122.79)
(84.32909 -10.18348 15488.25)
(109.2874 -14.99616 17355.34)
(64.10991 -20.28387 20253.23)
(15.53651 20.6473 965.2517)
(18.64039 19.93122 3046.846)
(22.96803 18.28609 5371.936)
(28.99342 15.35883 7990.005)
(37.42896 10.48742 10987.92)
(49.45909 2.74751 13115.8)
(66.0522 -8.191157 14190.72)
(89.40821 -23.64809 15544.06)
(116.9512 -47.08882 17355.03)
(68.37237 -98.23579 20006.46)
(13.33837 30.18336 921.0895)
(15.84451 29.75513 2898.173)
(19.31937 28.35878 5091.488)
(24.09577 25.58352 7542.141)
(30.67706 20.89401 10320.21)
(39.82827 13.3013 12238.88)
(52.14936 2.666497 13127.25)
(69.15064 -12.59884 14195.69)
(93.07792 -35.39907 15525.01)
(120.7415 -73.8626 17261.87)
(69.70363 -161.9819 17437.14)
(11.58652 31.99055 879.5346)
(13.65644 31.84249 2759.53)
(16.50332 30.87475 4832.787)
(20.37983 28.79521 7134.745)
(25.64259 25.15541 9723.347)
(32.8235 19.33974 11474.19)
(42.17262 11.45355 12229.92)
(54.71229 0.5016463 13117.49)
(71.95192 -15.20221 14178.33)
(95.98864 -38.98545 15484.67)
(122.3801 -80.27428 15249.85)
(68.64036 -169.9837 12998.43)
(10.15775 26.68472 841.9541)
(11.89381 26.69193 2634.849)
(14.28009 26.12067 4601.86)
(17.49829 24.78519 6774.545)
(21.81782 22.41532 9202.333)
(27.62174 18.6106 10816.5)
(34.99642 13.66583 11473.81)
(44.55823 7.037633 12233.86)
(57.3311 -2.090565 13123.26)
(74.80895 -15.11826 14181.03)
(98.89407 -34.88727 13762.65)
(122.3396 -67.62711 11540.98)
(66.93712 -138.0702 9009.4)
(8.966738 17.17656 808.8002)
(10.43775 17.25144 2525.225)
(12.46733 16.99479 4399.767)
(15.19784 16.31339 6461.477)
(18.82586 15.07224 8753.453)
(23.64195 13.07363 10255.61)
(29.64196 10.53821 10836.35)
(37.2405 7.253414 11501.62)
(47.06046 2.879661 12269.18)
(60.13327 -3.114045 13164.8)
(77.95174 -11.64505 12661.34)
(101.0918 -23.7236 10490.41)
(122.0939 -43.92536 8102.768)
(65.50045 -87.12146 5332.491)
(7.949114 5.829108 779.9391)
(9.214832 5.87618 2429.948)
(10.95918 5.821539 4224.645)
(13.30886 5.638002 6191.495)
(16.42003 5.288102 8368.887)
(20.50809 4.718698 9778.205)
(25.51758 4.009268 10297.77)
(31.74386 3.111299 10888.98)
(39.61009 1.947775 11565.18)
(49.7538 0.4017883 12343.97)
(63.22687 -1.713813 11800.67)
(80.59592 -4.483177 9702.297)
(103.0208 -8.425527 7412.644)
(122.3869 -15.08034 4844.383)
(64.73313 -29.31535 1777.216)
(36.68582 -24.39561 1728.446)
(70.15977 -11.78879 1567.005)
(36.17131 -48.35794 5425.742)
(62.22924 -3.416042 1436.042)
(68.57928 -15.15442 4816.542)
(35.60048 -64.99803 9396.934)
(49.93437 0.1977267 1331.135)
(62.35162 -2.722248 4375.154)
(68.20393 -16.7982 8192.018)
(36.00875 -63.88893 13548.83)
(40.05069 0.8410785 1245.269)
(50.5284 0.5382821 4040.975)
(63.63192 -2.235054 7398.486)
(70.45641 -12.94797 11658.26)
(38.37802 -44.31487 17873.34)
(32.38484 0.3185128 1173.346)
(40.67174 0.3817434 3775.18)
(52.02666 0.193842 6820.058)
(66.49084 -0.8749844 10491.43)
(76.22558 -4.659228 15243.47)
(43.26923 -14.83927 20204.77)
(26.50562 -0.2017139 1112.053)
(32.91663 -0.3041805 3555.228)
(41.98121 -0.3626235 6367.159)
(54.52803 -0.1972692 9661.767)
(71.13256 0.7638381 13686.89)
(85.80578 4.142373 17161.18)
(49.36052 13.14583 20404.5)
(21.94666 0.2549516 1058.724)
(26.94444 -0.04076784 3368.06)
(33.99723 -0.428117 5993.615)
(43.9882 -0.8148329 9016.842)
(58.03764 -0.8204953 12595.65)
(77.51608 0.8394605 15394.56)
(96.7046 8.150078 17331.26)
(56.29766 28.11155 20525.44)
(18.38297 3.049049 1011.3)
(22.31411 2.606778 3204.015)
(27.84217 1.894458 5673.745)
(35.61288 0.7912513 8482.661)
(46.6584 -0.7427714 11746.22)
(62.45617 -2.522037 14156.07)
(84.05008 -3.139361 15545.23)
(107.9701 1.420666 17469.82)
(63.39015 16.08677 20556.47)
(15.5641 9.813134 967.8375)
(18.70261 9.324747 3055.544)
(23.08127 8.315389 5388.738)
(29.18239 6.586135 8018.215)
(37.72802 3.765012 11032.98)
(49.90755 -0.5978508 13178.98)
(66.66032 -6.496893 14273.58)
(90.14106 -13.70593 15663.23)
(118.076 -21.29233 17555.5)
(69.52099 -35.59184 20468.93)
(13.32693 20.71496 926.4608)
(15.8623 20.3101 2915.726)
(19.38635 19.18371 5124.022)
(24.23914 17.00322 7594.017)
(30.94171 13.3482 10398.02)
(40.28726 7.442115 12339.71)
(52.89764 -0.9002132 13246.19)
(70.34153 -12.78712 14342.44)
(95.08007 -29.92351 15719.56)
(125.1291 -56.97183 17555.86)
(73.2934 -119.4343 17969.88)
(11.54403 29.88867 885.9803)
(13.63208 29.69043 2780.342)
(16.51179 28.68478 4870.702)
(20.44407 26.571 7193.891)
(25.79501 22.87463 9809.648)
(33.11961 16.96084 11582.46)
(42.68927 8.837366 12352.12)
(55.57046 -2.546006 13258.96)
(73.37503 -18.93344 14348.06)
(98.55232 -43.60837 15700.32)
(128.1994 -85.84992 15521.41)
(73.0575 -179.9839 13375.17)
(10.10672 31.51011 847.6398)
(11.85251 31.4889 2653.069)
(14.25717 30.76541 4634.725)
(17.50754 29.10146 6825.183)
(21.88067 26.15597 9275.099)
(27.76982 21.40854 10906.17)
(35.27213 15.19552 11572.76)
(45.03027 6.790113 12344.81)
(58.11106 -4.871779 13250.38)
(76.11201 -21.60196 14331.15)
(101.2872 -47.02484 13928.65)
(127.6565 -88.99415 11713.05)
(70.82173 -181.307 9214.19)
(8.924646 26.21102 812.7868)
(10.40036 26.28714 2537.929)
(12.43921 25.84468 4422.528)
(15.18603 24.73828 6496.262)
(18.84136 22.7505 8802.945)
(23.70159 19.56589 10315.94)
(29.76505 15.50632 10902.02)
(37.45817 10.24269 11573.94)
(47.42263 3.204439 12350.01)
(60.72348 -6.473309 13256.91)
(78.93337 -20.2768 12757.7)
(102.8679 -39.87179 10580.49)
(125.9499 -72.57822 8187.111)
(68.24771 -143.4831 5413.324)
(7.922033 16.83018 781.9198)
(9.189859 16.93294 2436.226)
(10.93746 16.73536 4235.827)
(13.29321 16.15828 6208.474)
(16.41458 15.0917 8392.864)
(20.51924 13.37742 9807.199)
(25.55216 11.24491 10329.06)
(31.81231 8.546773 10923.07)
(39.72892 5.059526 11602.74)
(49.94924 0.4275595 12385.94)
(63.54378 -5.908282 11843.38)
(81.11323 -14.21388 9740.456)
(103.9474 -26.03929 7445.333)
(124.3708 -45.94601 4869.894)
(66.12292 -88.72298 1790.52)
(7.053086 5.689528 754.975)
(8.155999 5.749881 2347.526)
(9.676776 5.709206 4073.367)
(11.71954 5.552331 5959.081)
(14.42357 5.247209 8039.401)
(17.96212 4.749755 9370.982)
(22.23649 4.141961 9840.288)
(27.46545 3.386555 10371.96)
(33.95444 2.432662 10976.27)
(42.14119 1.199642 11666.58)
(52.68717 -0.4347336 11103.69)
(65.87538 -2.463268 9083.094)
(82.90984 -5.130148 6888.107)
(104.8907 -8.943853 4454.801)
(123.5156 -15.41747 1626.475)
(36.75928 -4.917867 1674.251)
(71.5425 -9.708649 1539.425)
(37.44191 -19.87811 5250.46)
(62.68506 -7.02961 1425.361)
(71.60708 -9.92937 4759.78)
(37.95443 -39.99892 9165.005)
(50.02917 -2.385236 1328.417)
(63.25922 -2.789223 4359.984)
(71.80747 -12.76498 8136.869)
(38.63931 -55.69953 13330.03)
(40.03567 -0.08359955 1245.227)
(50.71759 0.3300463 4039.062)
(64.52996 -2.154544 7388.234)
(73.42314 -14.77217 11617.19)
(40.45772 -55.89384 17704.48)
(32.36576 0.4892368 1173.704)
(40.68278 0.8319798 3775.927)
(52.1583 0.5912642 6819.971)
(67.01659 -1.906613 10486.68)
(77.80696 -11.59945 15220.52)
(44.33891 -38.78369 20118.97)
(26.50562 0.201714 1112.053)
(32.91663 0.3041806 3555.228)
(41.98121 0.3626232 6367.159)
(54.52803 0.1972692 9661.767)
(71.13256 -0.7638413 13686.89)
(85.80578 -4.14238 17161.18)
(49.36052 -13.14585 20404.5)
(21.96254 -0.1073999 1058.333)
(26.96568 -0.1862326 3366.935)
(34.01782 -0.2774354 5992.003)
(43.98395 -0.3368105 9015.435)
(57.93062 -0.206667 12596.35)
(77.07932 0.6154692 15401.98)
(95.43673 3.63632 17356.29)
(55.46206 11.49703 20606.77)
(18.40684 0.4736207 1010.92)
(22.35274 0.2849617 3202.99)
(27.89757 0.01057177 5672.498)
(35.68021 -0.3779636 8482.146)
(46.70678 -0.8202964 11748.6)
(62.37644 -1.018337 14165.15)
(83.50099 0.2314159 15568.22)
(106.239 6.470486 17528.55)
(62.29901 22.9683 20731.33)
(15.58581 3.284578 968.2625)
(18.74625 3.043601 3057.151)
(23.15537 2.578394 5392.365)
(29.29794 1.805848 8025.389)
(37.89492 0.5716936 11046.44)
(50.11957 -1.237611 13200.9)
(66.8401 -3.374598 14307.15)
(90.02477 -4.739064 15720.22)
(117.2566 -2.022282 17668.81)
(69.17683 6.620467 20766.79)
(13.33289 9.953396 928.8127)
(15.89199 9.6927 2923.53)
(19.45406 9.048243 5138.851)
(24.36355 7.816985 7618.423)
(31.1518 5.759453 10436)
(40.62624 2.431182 12390.9)
(53.40913 -2.304484 13309.54)
(71.06105 -8.830599 14425.53)
(96.0483 -17.23019 15838.82)
(126.945 -27.54722 17755.46)
(74.9638 -50.69712 18378.43)
(11.51629 20.59245 890.9508)
(13.62413 20.40603 2796.462)
(16.53805 19.63301 4900.297)
(20.52695 18.03671 7240.543)
(25.96588 15.2348 9878.607)
(33.43068 10.72719 11670.05)
(43.21194 4.406575 12452.44)
(56.41222 -4.544032 13377.59)
(74.71808 -17.38496 14494.71)
(100.8495 -36.2004 15894.91)
(133.3974 -66.83259 15782.55)
(77.12172 -135.8873 13779)
(10.05519 29.48111 853.6464)
(11.8138 29.43202 2672.357)
(14.24163 28.70611 4669.633)
(17.53193 27.05473 6879.204)
(21.97112 24.12686 9353.158)
(27.96399 19.37312 11002.87)
(35.6211 13.05965 11680.09)
(45.61691 4.400508 12466.16)
(59.06745 -7.737537 13391.13)
(77.68616 -25.25428 14500.3)
(104.1242 -51.8087 14120.2)
(134.0093 -95.17028 11919.1)
(75.5279 -193.2049 9478.61)
(8.868843 30.96492 818.1127)
(10.35241 31.04242 2554.92)
(12.40496 30.49021 4453.016)
(15.17552 29.13157 6542.952)
(18.87049 26.68837 8869.544)
(23.79504 22.76218 10397.28)
(29.95024 17.70038 10990.76)
(37.78016 11.0884 11671.97)
(47.95467 2.161342 12460.06)
(61.58537 -10.21339 13383.16)
(80.35797 -27.97323 12890.93)
(105.4243 -53.28743 10706.62)
(131.5473 -95.39917 8307.844)
(72.26574 -188.752 5534.695)
(7.877318 25.70578 785.6695)
(9.149784 25.83852 2448.129)
(10.90463 25.49694 4257.059)
(13.27301 24.56198 6240.759)
(16.41523 22.86166 8438.528)
(20.55351 20.14156 9862.465)
(25.63395 16.74856 10388.72)
(31.96209 12.43428 10988.06)
(39.97962 6.85154 11674.38)
(50.35373 -0.5972641 12466.08)
(64.19087 -10.82491 11925.1)
(82.15914 -24.3019 9813.762)
(105.8029 -43.53576 7508.553)
(128.343 -75.83017 4919.815)
(68.91116 -146.1584 1817.253)
(7.026283 16.45861 756.8466)
(8.129848 16.60096 2353.435)
(9.653898 16.44932 4083.85)
(11.70142 15.9549 5974.928)
(14.41352 15.02421 8061.666)
(17.96499 13.52777 9397.746)
(22.25732 11.70187 9868.971)
(27.51145 9.435725 10402.94)
(34.03666 6.574942 11010.05)
(42.27701 2.885201 11703.84)
(52.9043 -2.005093 11140.96)
(66.21479 -8.091493 9115.625)
(83.45089 -16.10366 6914.906)
(105.8433 -27.55997 4474.145)
(125.5272 -46.94268 1634.903)
(6.285327 5.561083 731.6265)
(7.246336 5.614663 2270.615)
(8.586445 5.592757 3932.604)
(10.383 5.456868 5743.596)
(12.75077 5.187649 7735.237)
(15.84346 4.747412 8996.838)
(19.5455 4.217523 9422.303)
(24.00996 3.571377 9902.724)
(29.46259 2.769979 10446.4)
(36.21897 1.760077 11063.6)
(44.73154 0.4574507 10492.35)
(54.98707 -1.089069 8550.144)
(67.83548 -3.015038 6449.801)
(84.4473 -5.555113 4138.66)
(105.8437 -9.199303 1495.026)
(36.21631 2.523304 1632.285)
(71.26322 -9.613039 1510.32)
(37.415 -1.071437 5088.4)
(62.44757 -13.36116 1407.491)
(72.82632 -7.441233 4676.965)
(38.97981 -10.90192 8872.125)
(49.85752 -9.605523 1321.171)
(63.6684 -5.887583 4327.666)
(74.55208 -6.205694 8041.336)
(40.66599 -27.36555 13001.29)
(39.92486 -4.184564 1243.539)
(50.79918 -1.986663 4030.682)
(65.37268 -1.516537 7362.339)
(76.71767 -9.127154 11538.48)
(42.76669 -43.09641 17417.27)
(32.3076 -1.060594 1173.904)
(40.6646 -0.01441935 3775.676)
(52.33228 0.6094673 6816.461)
(67.85385 -1.27635 10471.73)
(80.51233 -12.0071 15166.26)
(46.16163 -45.64578 19931.47)
(26.48451 0.06864119 1112.44)
(32.89708 0.4668979 3556.255)
(41.98957 0.82124 6368.282)
(54.64921 0.6821585 9661.447)
(71.61915 -1.447344 13680.41)
(87.22816 -9.859686 17135.61)
(50.31148 -33.38294 20320.94)
(21.96254 0.1074001 1058.333)
(26.96568 0.1862328 3366.935)
(34.01782 0.2774355 5992.003)
(43.98395 0.3368103 9015.435)