/*--------------------------------*- C++ -*----------------------------------*\
| =========                 |                                                 |
| \\      /  F ield         | OpenFOAM: The Open Source CFD Toolbox           |
|  \\    /   O peration     | Version:  2306                                  |
|   \\  /    A nd           | Website:  www.openfoam.com                      |
|    \\/     M anipulation  |                                                 |
\*---------------------------------------------------------------------------*/
FoamFile
{
    version     2.0;
    format      ascii;
    arch        "LSB;label=32;scalar=64";
    class       volScalarField;
    location    "0.6/phiI";
    object      J;
}
// * * * * * * * * * * * * * * * * * * * * * * * * * * * * * * * * * * * * * //

dimensions      [0 -3 0 0 0 1 0];

internalField   nonuniform List<scalar> 
12000
(
-7.677137e+08
-7.747175e+08
-7.051303e+08
-7.730907e+08
-7.889327e+08
-7.09619e+08
-7.801979e+08
-6.532023e+08
-7.098595e+08
-7.87449e+08
-8.102731e+08
-7.184894e+08
-7.9462e+08
-6.566266e+08
-7.144175e+08
-7.948089e+08
-6.119039e+08
-6.574426e+08
-7.223586e+08
-8.111961e+08
-8.378429e+08
-7.310902e+08
-8.162586e+08
-6.633161e+08
-7.234266e+08
-8.097443e+08
-6.147224e+08
-6.609201e+08
-7.270788e+08
-8.189697e+08
-5.776984e+08
-6.157754e+08
-6.685141e+08
-7.429443e+08
-8.451666e+08
-8.6794e+08
-7.459158e+08
-8.441638e+08
-6.725915e+08
-7.36232e+08
-8.321511e+08
-6.201938e+08
-6.677156e+08
-7.364118e+08
-8.34748e+08
-5.801133e+08
-6.186373e+08
-6.721135e+08
-7.479259e+08
-8.535369e+08
-5.483719e+08
-5.812731e+08
-6.257717e+08
-6.866691e+08
-7.72272e+08
0
-8.922301e+08
-7.599217e+08
-8.745049e+08
-6.83025e+08
-7.513165e+08
-8.610186e+08
-6.276849e+08
-6.771475e+08
-7.496918e+08
-8.584298e+08
-5.847827e+08
-6.24195e+08
-6.791509e+08
-7.57781e+08
-8.70534e+08
-5.504914e+08
-5.837247e+08
-6.287323e+08
-6.904636e+08
-7.776266e+08
0
-5.227027e+08
-5.516959e+08
-5.904139e+08
-6.421009e+08
-7.124355e+08
0
0
-9.088528e+08
-7.695307e+08
-8.989088e+08
-6.92081e+08
-7.65598e+08
-8.92313e+08
-6.35912e+08
-6.877838e+08
-7.653654e+08
-8.889351e+08
-5.911315e+08
-6.318133e+08
-6.889334e+08
-7.718244e+08
-8.960691e+08
-5.545783e+08
-5.88467e+08
-6.344847e+08
-6.978872e+08
-7.882264e+08
0
-5.245961e+08
-5.538472e+08
-5.929485e+08
-6.452186e+08
-7.165064e+08
0
0
-4.998723e+08
-5.2581e+08
-5.601252e+08
-6.052963e+08
-6.652024e+08
0
0
0
-9.188738e+08
-7.751981e+08
-9.155476e+08
-6.974076e+08
-7.754027e+08
-9.174094e+08
-6.427131e+08
-6.970714e+08
-7.8025e+08
-9.219431e+08
-5.980131e+08
-6.402061e+08
-7.000021e+08
-7.884415e+08
-9.289838e+08
-5.601117e+08
-5.949228e+08
-6.423838e+08
-7.082269e+08
-8.03359e+08
0
-5.282391e+08
-5.57997e+08
-5.978541e+08
-6.512803e+08
-7.244768e+08
0
0
-5.015848e+08
-5.277313e+08
-5.62348e+08
-6.079625e+08
-6.685414e+08
0
0
0
-4.793553e+08
-5.027885e+08
-5.336329e+08
-5.738102e+08
-6.262942e+08
0
0
0
0
-9.235467e+08
-7.782484e+08
-9.255463e+08
-6.99893e+08
-7.811678e+08
-9.34464e+08
-6.462891e+08
-7.025758e+08
-7.90481e+08
-9.483503e+08
-6.035477e+08
-6.472004e+08
-7.097353e+08
-8.042812e+08
-9.645728e+08
-5.66064e+08
-6.019433e+08
-6.511207e+08
-7.199726e+08
-8.213195e+08
0
-5.331587e+08
-5.636223e+08
-6.045444e+08
-6.596225e+08
-7.356039e+08
0
0
-5.04874e+08
-5.314294e+08
-5.666382e+08
-6.131267e+08
-6.750391e+08
0
0
0
-4.809198e+08
-5.04526e+08
-5.356169e+08
-5.761461e+08
-6.291454e+08
0
0
0
0
-4.607469e+08
-4.821013e+08
-5.100845e+08
-5.463017e+08
-5.930741e+08
0
0
0
0
0
-9.235467e+08
-7.795772e+08
-9.301991e+08
-7.008711e+08
-7.842544e+08
-9.446836e+08
-6.475911e+08
-7.051625e+08
-7.964841e+08
-9.662455e+08
-6.062471e+08
-6.509294e+08
-7.155536e+08
-8.151866e+08
-9.929946e+08
-5.707756e+08
-6.076409e+08
-6.584704e+08
-7.303809e+08
-8.385134e+08
0
-5.38427e+08
-5.696935e+08
-6.118511e+08
-6.688932e+08
-7.483001e+08
0
0
-5.093086e+08
-5.364294e+08
-5.724645e+08
-6.201858e+08
-6.84004e+08
0
0
0
-4.839194e+08
-5.078641e+08
-5.394379e+08
-5.806579e+08
-6.346727e+08
0
0
0
0
-4.62187e+08
-4.836882e+08
-5.118776e+08
-5.483847e+08
-5.955685e+08
0
0
0
0
0
-4.437541e+08
-4.633399e+08
-4.889339e+08
-5.218743e+08
-5.640996e+08
0
0
0
0
0
1.016936e+09
-9.188738e+08
-7.795772e+08
-9.301991e+08
-7.011798e+08
-7.855926e+08
-9.494303e+08
-6.47848e+08
-7.06188e+08
-7.99685e+08
-9.769434e+08
-6.070299e+08
-6.523223e+08
-7.183138e+08
-8.215777e+08
-1.012213e+09
-5.72961e+08
-6.104712e+08
-6.624495e+08
-7.366596e+08
-8.503741e+08
0
-5.425584e+08
-5.745443e+08
-6.178437e+08
-6.76771e+08
-7.596415e+08
0
0
-5.140439e+08
-5.418009e+08
-5.7878e+08
-6.279344e+08
-6.940185e+08
0
0
0
-4.879583e+08
-5.123697e+08
-5.446133e+08
-5.867997e+08
-6.422482e+08
0
0
0
0
-4.649438e+08
-4.867317e+08
-5.153247e+08
-5.523994e+08
-6.003909e+08
0
0
0
0
0
-4.450883e+08
-4.648002e+08
-4.905706e+08
-5.23755e+08
-5.663209e+08
0
0
0
0
0
1.024777e+09
-4.281479e+08
-4.462085e+08
-4.697603e+08
-4.999533e+08
-5.384079e+08
0
0
0
0
0
9.249239e+08
9.737337e+08
-9.088528e+08
-7.782484e+08
-9.255463e+08
-7.011798e+08
-7.855926e+08
-9.494303e+08
-6.478145e+08
-7.065144e+08
-8.010673e+08
-9.819045e+08
-6.07007e+08
-6.526246e+08
-7.194218e+08
-8.249753e+08
-1.02368e+09
-5.734818e+08
-6.11333e+08
-6.639806e+08
-7.396712e+08
-8.573216e+08
0
-5.444111e+08
-5.768423e+08
-6.208815e+08
-6.811046e+08
-7.665451e+08
0
0
-5.177358e+08
-5.460526e+08
-5.838818e+08
-6.343619e+08
-7.026171e+08
0
0
0
-4.92263e+08
-5.171957e+08
-5.501973e+08
-5.934916e+08
-6.506099e+08
0
0
0
0
-4.686527e+08
-4.90834e+08
-5.199854e+08
-5.578498e+08
-6.06973e+08
0
0
0
0
0
-4.476385e+08
-4.675966e+08
-4.937116e+08
-5.273736e+08
-5.706062e+08
0
0
0
0
0
1.040501e+09
-4.293906e+08
-4.47561e+08
-4.712657e+08
-5.016685e+08
-5.404111e+08
0
0
0
0
0
9.298547e+08
9.809987e+08
-4.137495e+08
-4.30476e+08
-4.522595e+08
-4.800972e+08
-5.153824e+08
0
0
0
0
0
8.444948e+08
8.880333e+08
9.431774e+08
-8.9223e+08
-7.751981e+08
-9.155476e+08
-7.008711e+08
-7.842544e+08
-9.446836e+08
-6.478145e+08
-7.065144e+08
-8.010673e+08
-9.819045e+08
-6.068517e+08
-6.526093e+08
-7.197797e+08
-8.264381e+08
-1.028991e+09
-5.733418e+08
-6.113505e+08
-6.643486e+08
-7.408988e+08
-8.610078e+08
0
-5.447869e+08
-5.774316e+08
-6.21858e+08
-6.828249e+08
-7.698952e+08
0
0
-5.193524e+08
-5.480034e+08
-5.863565e+08
-6.376895e+08
-7.074216e+08
0
0
0
-4.956066e+08
-5.209929e+08
-5.546667e+08
-5.989625e+08
-6.576274e+08
0
0
0
0
-4.726009e+08
-4.952192e+08
-5.249989e+08
-5.63761e+08
-6.141858e+08
0
0
0
0
0
-4.510673e+08
-4.713626e+08
-4.979527e+08
-5.322774e+08
-5.764398e+08
0
0
0
0
0
1.064178e+09
-4.317624e+08
-4.501473e+08
-4.741502e+08
-5.049629e+08
-5.442687e+08
0
0
0
0
0
9.394781e+08
9.955574e+08
-4.149124e+08
-4.317355e+08
-4.536531e+08
-4.816735e+08
-5.172071e+08
0
0
0
0
0
8.481986e+08
8.92627e+08
9.500587e+08
-4.004091e+08
-4.159621e+08
-4.361938e+08
-4.619867e+08
-4.945504e+08
0
0
0
0
0
7.793199e+08
8.127663e+08
8.61732e+08
9.243079e+08
-8.6794e+08
-7.695307e+08
-8.989088e+08
-6.99893e+08
-7.811678e+08
-9.34464e+08
-6.47848e+08
-7.06188e+08
-7.99685e+08
-9.769434e+08
-6.068517e+08
-6.526093e+08
-7.197797e+08
-8.264381e+08
-1.028991e+09
-5.731437e+08
-6.112116e+08
-6.643584e+08
-7.413028e+08
-8.625915e+08
0
-5.445982e+08
-5.77327e+08
-6.2193e+08
-6.832802e+08
-7.712836e+08
0
0
-5.196391e+08
-5.48439e+08
-5.870433e+08
-6.38819e+08
-7.093877e+08
0
0
0
-4.970451e+08
-5.226956e+08
-5.567707e+08
-6.016821e+08
-6.613357e+08
0
0
0
0
-4.756604e+08
-4.986559e+08
-5.289874e+08
-5.685504e+08
-6.201558e+08
0
0
0
0
0
-4.547145e+08
-4.753829e+08
-5.02505e+08
-5.375795e+08
-5.828031e+08
0
0
0
0
0
1.094959e+09
-4.3495e+08
-4.536279e+08
-4.780412e+08
-5.094212e+08
-5.495107e+08
0
0
0
0
0
9.533349e+08
1.017458e+09
-4.171286e+08
-4.341403e+08
-4.563194e+08
-4.846963e+08
-5.20715e+08
0
0
0
0
0
8.553395e+08
9.015865e+08
9.63844e+08
-4.015017e+08
-4.171404e+08
-4.374908e+08
-4.634447e+08
-4.962253e+08
0
0
0
0
0
7.823292e+08
8.162331e+08
8.660956e+08
9.309757e+08
-3.880049e+08
-4.025155e+08
-4.213774e+08
-4.453724e+08
-4.755702e+08
0
0
0
0
0
7.250194e+08
7.515399e+08
7.900133e+08
8.45277e+08
9.159908e+08
-8.378429e+08
-7.599217e+08
-8.745049e+08
-6.974076e+08
-7.754027e+08
-9.174094e+08
-6.475911e+08
-7.051625e+08
-7.964841e+08
-9.662455e+08
-6.07007e+08
-6.526246e+08
-7.194218e+08
-8.249753e+08
-1.02368e+09
-5.731437e+08
-6.112116e+08
-6.643584e+08
-7.413028e+08
-8.625915e+08
0
-5.443886e+08
-5.771433e+08
-6.21812e+08
-6.833227e+08
-7.717498e+08
0
0
-5.194309e+08
-5.482812e+08
-5.869851e+08
-6.389606e+08
-7.099543e+08
0
0
0
-4.97273e+08
-5.230352e+08
-5.57291e+08
-6.024976e+08
-6.626604e+08
0
0
0
0
-4.769593e+08
-5.001709e+08
-5.30825e+08
-5.708663e+08
-6.231955e+08
0
0
0
0
0
-4.575366e+08
-4.785254e+08
-5.061118e+08
-5.418496e+08
-5.880244e+08
0
0
0
0
0
1.128008e+09
-4.383389e+08
-4.573402e+08
-4.822119e+08
-5.14231e+08
-5.552111e+08
0
0
0
0
0
9.701466e+08
1.0459e+09
-4.201059e+08
-4.373751e+08
-4.599135e+08
-4.887831e+08
-5.254751e+08
0
0
0
0
0
8.654097e+08
9.144802e+08
9.845788e+08
-4.03581e+08
-4.193869e+08
-4.399687e+08
-4.662367e+08
-4.994405e+08
0
0
0
0
0
7.880901e+08
8.229128e+08
8.746033e+08
9.443365e+08
-3.890353e+08
-4.036224e+08
-4.225903e+08
-4.467284e+08
-4.771178e+08
0
0
0
0
0
7.275638e+08
7.543672e+08
7.933157e+08
8.495061e+08
9.225915e+08
-3.764394e+08
-3.900135e+08
-4.076551e+08
-4.300597e+08
-4.581752e+08
0
0
0
0
0
6.784307e+08
7.003663e+08
7.31537e+08
7.756513e+08
8.377919e+08
-8.102731e+08
-7.459158e+08
-8.441638e+08
-6.92081e+08
-7.65598e+08
-8.92313e+08
-6.462891e+08
-7.025758e+08
-7.90481e+08
-9.483503e+08
-6.070299e+08
-6.523223e+08
-7.183138e+08
-8.215777e+08
-1.012213e+09
-5.733418e+08
-6.113505e+08
-6.643486e+08
-7.408988e+08
-8.610078e+08
0
-5.443886e+08
-5.771433e+08
-6.21812e+08
-6.833227e+08
-7.717498e+08
0
0
-5.192224e+08
-5.480844e+08
-5.868192e+08
-6.388683e+08
-7.100377e+08
0
0
0
-4.970589e+08
-5.228543e+08
-5.571734e+08
-6.024975e+08
-6.628882e+08
0
0
0
0
-4.771465e+08
-5.004457e+08
-5.31239e+08
-5.714977e+08
-6.241738e+08
0
0
0
0
0
-4.587225e+08
-4.798928e+08
-5.077468e+08
-5.438735e+08
-5.906164e+08
0
0
0
0
0
1.152633e+09
-4.409587e+08
-4.602367e+08
-4.855069e+08
-5.180884e+08
-5.598609e+08
0
0
0
0
0
9.864855e+08
1.076397e+09
-4.232703e+08
-4.408231e+08
-4.63762e+08
-4.931854e+08
-5.306397e+08
0
0
0
0
0
8.772109e+08
9.301139e+08
1.011512e+09
-4.063737e+08
-4.224075e+08
-4.433072e+08
-4.700085e+08
-5.03799e+08
0
0
0
0
0
7.961102e+08
8.323288e+08
8.868451e+08
9.644468e+08
-3.909934e+08
-4.057297e+08
-4.24904e+08
-4.493211e+08
-4.800842e+08
0
0
0
0
0
7.324128e+08
7.597768e+08
7.996766e+08
8.577517e+08
9.358277e+08
-3.77415e+08
-3.910571e+08
-4.087939e+08
-4.313267e+08
-4.59613e+08
0
0
0
0
0
6.806353e+08
7.027645e+08
7.342372e+08
7.788551e+08
8.419693e+08
-3.656301e+08
-3.783575e+08
-3.949006e+08
-4.158859e+08
-4.421575e+08
0
0
0
0
0
6.376589e+08
6.563388e+08
6.82561e+08
7.188381e+08
7.689984e+08
-7.889327e+08
-7.310902e+08
-8.162586e+08
-6.83025e+08
-7.513165e+08
-8.610186e+08
-6.427131e+08
-6.970714e+08
-7.8025e+08
-9.219431e+08
-6.062471e+08
-6.509294e+08
-7.155536e+08
-8.151866e+08
-9.929946e+08
-5.734818e+08
-6.11333e+08
-6.639806e+08
-7.396712e+08
-8.573216e+08
0
-5.445982e+08
-5.77327e+08
-6.2193e+08
-6.832802e+08
-7.712836e+08
0
0
-5.192224e+08
-5.480844e+08
-5.868192e+08
-6.388683e+08
-7.100377e+08
0
0
0
-4.968565e+08
-5.22657e+08
-5.56992e+08
-6.02353e+08
-6.628268e+08
0
0
0
0
-4.769338e+08
-5.00256e+08
-5.310936e+08
-5.714302e+08
-6.242447e+08
0
0
0
0
0
-4.588803e+08
-4.801222e+08
-5.08088e+08
-5.443852e+08
-5.913878e+08
0
0
0
0
0
1.167866e+09
-4.420507e+08
-4.614844e+08
-4.869821e+08
-5.198892e+08
-5.621271e+08
0
0
0
0
0
9.973876e+08
1.099026e+09
-4.257147e+08
-4.435102e+08
-4.667965e+08
-4.967057e+08
-5.348351e+08
0
0
0
0
0
8.880572e+08
9.452949e+08
1.040401e+09
-4.093413e+08
-4.256258e+08
-4.468794e+08
-4.74067e+08
-5.085204e+08
0
0
0
0
0
8.053012e+08
8.433577e+08
9.016887e+08
9.906071e+08
-3.936233e+08
-4.085622e+08
-4.280198e+08
-4.528218e+08
-4.841023e+08
0
0
0
0
0
7.391032e+08
7.673047e+08
8.086416e+08
8.696199e+08
9.557792e+08
-3.792662e+08
-3.930411e+08
-4.109632e+08
-4.337458e+08
-4.62365e+08
0
0
0
0
0
6.848246e+08
7.073324e+08
7.394013e+08
7.850252e+08
8.501168e+08
-3.665559e+08
-3.793454e+08
-3.959739e+08
-4.170747e+08
-4.434996e+08
0
0
0
0
0
6.396018e+08
6.584225e+08
6.848564e+08
7.214606e+08
7.721607e+08
-3.555021e+08
-3.674644e+08
-3.830127e+08
-4.02719e+08
-4.273437e+08
0
0
0
0
0
6.014302e+08
6.177132e+08
6.403451e+08
6.712119e+08
7.128964e+08
-7.747175e+08
-7.184894e+08
-7.9462e+08
-6.725915e+08
-7.362321e+08
-8.321511e+08
-6.35912e+08
-6.877838e+08
-7.653654e+08
-8.889351e+08
-6.035477e+08
-6.472004e+08
-7.097353e+08
-8.042812e+08
-9.645728e+08
-5.72961e+08
-6.104712e+08
-6.624495e+08
-7.366596e+08
-8.503741e+08
0
-5.447869e+08
-5.774316e+08
-6.21858e+08
-6.828249e+08
-7.698952e+08
0
0
-5.194309e+08
-5.482812e+08
-5.869851e+08
-6.389606e+08
-7.099543e+08
0
0
0
-4.968565e+08
-5.22657e+08
-5.56992e+08
-6.02353e+08
-6.628268e+08
0
0
0
0
-4.767396e+08
-5.000636e+08
-5.309099e+08
-5.712671e+08
-6.241253e+08
0
0
0
0
0
-4.586725e+08
-4.799314e+08
-5.079299e+08
-5.442837e+08
-5.913811e+08
0
0
0
0
0
1.176321e+09
-4.421865e+08
-4.616804e+08
-4.872712e+08
-5.203175e+08
-5.627616e+08
0
0
0
0
0
1.003309e+09
1.112966e+09
-4.267268e+08
-4.446584e+08
-4.681418e+08
-4.9833e+08
-5.368515e+08
0
0
0
0
0
8.947202e+08
9.553938e+08
1.061772e+09
-4.116329e+08
-4.281315e+08
-4.49692e+08
-4.773054e+08
-5.123442e+08
0
0
0
0
0
8.134399e+08
8.534866e+08
9.161017e+08
1.018728e+09
-3.964186e+08
-4.115792e+08
-4.313518e+08
-4.565856e+08
-4.884501e+08
0
0
0
0
0
7.466486e+08
7.759271e+08
8.191414e+08
8.840207e+08
9.81802e+08
-3.817519e+08
-3.957078e+08
-4.138835e+08
-4.370105e+08
-4.660904e+08
0
0
0
0
0
6.905667e+08
7.136322e+08
7.465863e+08
7.937226e+08
8.61852e+08
-3.6831e+08
-3.812207e+08
-3.980153e+08
-4.193412e+08
-4.460648e+08
0
0
0
0
0
6.432868e+08
6.6238e+08
6.892266e+08
7.264754e+08
7.78252e+08
-3.563828e+08
-3.684017e+08
-3.840281e+08
-4.038385e+08
-4.286017e+08
0
0
0
0
0
6.031642e+08
6.195541e+08
6.423434e+08
6.734438e+08
7.154849e+08
-3.459938e+08
-3.572584e+08
-3.719058e+08
-3.904528e+08
-4.135931e+08
0
0
0
0
0
5.688706e+08
5.833147e+08
6.032452e+08
6.301206e+08
6.658703e+08
-7.677137e+08
-7.09619e+08
-7.801978e+08
-6.633161e+08
-7.234266e+08
-8.097443e+08
-6.276849e+08
-6.771475e+08
-7.496918e+08
-8.584298e+08
-5.980131e+08
-6.402061e+08
-7.000021e+08
-7.884415e+08
-9.289838e+08
-5.707756e+08
-6.076409e+08
-6.584704e+08
-7.303809e+08
-8.385134e+08
0
-5.444111e+08
-5.768423e+08
-6.208815e+08
-6.811046e+08
-7.665451e+08
0
0
-5.196391e+08
-5.48439e+08
-5.870433e+08
-6.38819e+08
-7.093877e+08
0
0
0
-4.970589e+08
-5.228543e+08
-5.571734e+08
-6.024975e+08
-6.628882e+08
0
0
0
0
-4.767396e+08
-5.000636e+08
-5.309099e+08
-5.712671e+08
-6.241253e+08
0
0
0
0
0
-4.584872e+08
-4.797462e+08
-5.077496e+08
-5.441162e+08
-5.912394e+08
0
0
0
0
0
1.18005e+09
-4.419854e+08
-4.614924e+08
-4.871089e+08
-5.201987e+08
-5.627135e+08
0
0
0
0
0
1.006209e+09
1.12068e+09
-4.268455e+08
-4.44829e+08
-4.68392e+08
-4.986975e+08
-5.37389e+08
0
0
0
0
0
8.978778e+08
9.608627e+08
1.074904e+09
-4.125773e+08
-4.29195e+08
-4.509292e+08
-4.787859e+08
-5.141624e+08
0
0
0
0
0
8.181455e+08
8.596925e+08
9.256621e+08
1.039493e+09
-3.985776e+08
-4.13927e+08
-4.339724e+08
-4.595841e+08
-4.919634e+08
0
0
0
0
0
7.531506e+08
7.835555e+08
8.287808e+08
8.980153e+08
1.00988e+09
-3.843931e+08
-3.985487e+08
-4.170053e+08
-4.405183e+08
-4.701179e+08
0
0
0
0
0
6.969644e+08
7.20733e+08
7.548141e+08
8.039123e+08
8.761098e+08
-3.706647e+08
-3.837405e+08
-4.007633e+08
-4.223988e+08
-4.495356e+08
0
0
0
0
0
6.483118e+08
6.678019e+08
6.952523e+08
7.334528e+08
7.868414e+08
-3.580492e+08
-3.701781e+08
-3.859568e+08
-4.0597e+08
-4.310028e+08
0
0
0
0
0
6.064487e+08
6.230437e+08
6.461371e+08
6.776924e+08
7.204351e+08
-3.468342e+08
-3.5815e+08
-3.728687e+08
-3.915113e+08
-4.147766e+08
0
0
0
0
0
5.704334e+08
5.849612e+08
6.050138e+08
6.320659e+08
6.680738e+08
-3.370575e+08
-3.476775e+08
-3.615021e+08
-3.789979e+08
-4.007925e+08
0
0
0
0
0
5.393501e+08
5.523361e+08
5.701529e+08
5.939751e+08
6.252909e+08
-7.051303e+08
-7.730907e+08
-6.566266e+08
-7.144175e+08
-7.948089e+08
-6.201938e+08
-6.677156e+08
-7.364118e+08
-8.34748e+08
-5.911315e+08
-6.318133e+08
-6.889334e+08
-7.718244e+08
-8.960691e+08
-5.66064e+08
-6.019433e+08
-6.511207e+08
-7.199726e+08
-8.213195e+08
0
-5.425584e+08
-5.745443e+08
-6.178437e+08
-6.76771e+08
-7.596415e+08
0
0
-5.193524e+08
-5.480034e+08
-5.863565e+08
-6.376895e+08
-7.074216e+08
0
0
0
-4.97273e+08
-5.230352e+08
-5.57291e+08
-6.024976e+08
-6.626604e+08
0
0
0
0
-4.769338e+08
-5.00256e+08
-5.310936e+08
-5.714302e+08
-6.242447e+08
0
0
0
0
0
-4.584872e+08
-4.797462e+08
-5.077496e+08
-5.441162e+08
-5.912394e+08
0
0
0
0
0
1.18005e+09
-4.418091e+08
-4.613153e+08
-4.869347e+08
-5.200328e+08
-5.625647e+08
0
0
0
0
0
1.00737e+09
1.124074e+09
-4.266516e+08
-4.446459e+08
-4.682299e+08
-4.985706e+08
-5.373178e+08
0
0
0
0
0
8.991492e+08
9.63535e+08
1.082158e+09
-4.126835e+08
-4.293456e+08
-4.511494e+08
-4.791073e+08
-5.146282e+08
0
0
0
0
0
8.201177e+08
8.626252e+08
9.308275e+08
1.052241e+09
-3.994641e+08
-4.149186e+08
-4.351176e+08
-4.609447e+08
-4.936195e+08
0
0
0
0
0
7.567358e+08
7.87954e+08
8.346689e+08
9.072735e+08
1.030602e+09
-3.864327e+08
-4.007593e+08
-4.194587e+08
-4.433093e+08
-4.73367e+08
0
0
0
0
0
7.02362e+08
7.268449e+08
7.620884e+08
8.132685e+08
8.899868e+08
-3.73167e+08
-3.864239e+08
-4.03701e+08
-4.256825e+08
-4.532852e+08
0
0
0
0
0
6.538573e+08
6.738388e+08
7.020419e+08
7.414438e+08
7.969119e+08
-3.602861e+08
-3.725647e+08
-3.885521e+08
-4.08845e+08
-4.342503e+08
0
0
0
0
0
6.109094e+08
6.278002e+08
6.513332e+08
6.835504e+08
7.273242e+08
-3.484222e+08
-3.598373e+08
-3.74695e+08
-3.935237e+08
-4.170328e+08
0
0
0
0
0
5.733918e+08
5.880786e+08
6.083649e+08
6.357581e+08
6.722687e+08
-3.378612e+08
-3.485281e+08
-3.624177e+08
-3.80001e+08
-4.019106e+08
0
0
0
0
0
5.407698e+08
5.538231e+08
5.717373e+08
5.956985e+08
6.272121e+08
-3.286472e+08
-3.386736e+08
-3.51738e+08
-3.682732e+08
-3.888467e+08
0
0
0
0
0
5.123969e+08
5.241956e+08
5.403065e+08
5.617047e+08
5.895863e+08
-6.532023e+08
-7.098595e+08
-7.87449e+08
-6.147224e+08
-6.609201e+08
-7.270788e+08
-8.189697e+08
-5.847827e+08
-6.24195e+08
-6.791509e+08
-7.57781e+08
-8.70534e+08
-5.601117e+08
-5.949228e+08
-6.423838e+08
-7.082269e+08
-8.03359e+08
0
-5.38427e+08
-5.696935e+08
-6.118511e+08
-6.688932e+08
-7.483001e+08
0
0
-5.177358e+08
-5.460526e+08
-5.838818e+08
-6.343619e+08
-7.026171e+08
0
0
0
-4.970451e+08
-5.226956e+08
-5.567707e+08
-6.016821e+08
-6.613357e+08
0
0
0
0
-4.771465e+08
-5.004457e+08
-5.31239e+08
-5.714977e+08
-6.241738e+08
0
0
0
0
0
-4.586725e+08
-4.799314e+08
-5.079299e+08
-5.442837e+08
-5.913811e+08
0
0
0
0
0
1.176321e+09
-4.418091e+08
-4.613153e+08
-4.869347e+08
-5.200328e+08
-5.625647e+08
0
0
0
0
0
1.00737e+09
1.124074e+09
-4.264839e+08
-4.444771e+08
-4.680628e+08
-4.984094e+08
-5.371687e+08
0
0
0
0
0
8.995562e+08
9.646024e+08
1.085346e+09
-4.124979e+08
-4.291683e+08
-4.5099e+08
-4.789775e+08
-5.145443e+08
0
0
0
0
0
8.207326e+08
8.638024e+08
9.333484e+08
1.059283e+09
-3.995603e+08
-4.150542e+08
-4.353137e+08
-4.6123e+08
-4.940302e+08
0
0
0
0
0
7.580769e+08
7.897909e+08
8.374434e+08
9.122685e+08
1.043334e+09
-3.872671e+08
-4.016895e+08
-4.205256e+08
-4.445677e+08
-4.748878e+08
0
0
0
0
0
7.052242e+08
7.302048e+08
7.662685e+08
8.189642e+08
8.991454e+08
-3.750992e+08
-3.885112e+08
-4.060094e+08
-4.282929e+08
-4.563059e+08
0
0
0
0
0
6.584574e+08
6.789251e+08
7.078804e+08
7.485065e+08
8.061631e+08
-3.626636e+08
-3.751061e+08
-3.913256e+08
-4.119327e+08
-4.377569e+08
0
0
0
0
0
6.157939e+08
6.330453e+08
6.571161e+08
6.901505e+08
7.352171e+08
-3.50554e+08
-3.621038e+08
-3.771519e+08
-3.962371e+08
-4.200835e+08
0
0
0
0
0
5.773969e+08
5.923102e+08
6.129313e+08
6.408149e+08
6.780533e+08
-3.393773e+08
-3.501358e+08
-3.641516e+08
-3.819053e+08
-4.040387e+08
0
0
0
0
0
5.434568e+08
5.566366e+08
5.747358e+08
5.989635e+08
6.308589e+08
-3.294175e+08
-3.394868e+08
-3.526112e+08
-3.692263e+08
-3.899054e+08
0
0
0
0
0
5.136952e+08
5.25549e+08
5.417394e+08
5.632501e+08
5.912891e+08
-3.207236e+08
-3.302e+08
-3.42564e+08
-3.582119e+08
-3.776696e+08
0
0
0
0
0
4.876426e+08
4.984571e+08
5.131569e+08
5.325739e+08
5.576995e+08
-6.119039e+08
-6.574426e+08
-7.223586e+08
-8.111961e+08
-5.801133e+08
-6.186373e+08
-6.721135e+08
-7.479259e+08
-8.535369e+08
-5.545783e+08
-5.88467e+08
-6.344847e+08
-6.978872e+08
-7.882264e+08
0
-5.331587e+08
-5.636223e+08
-6.045444e+08
-6.596225e+08
-7.356039e+08
0
0
-5.140439e+08
-5.418009e+08
-5.7878e+08
-6.279344e+08
-6.940185e+08
0
0
0
-4.956066e+08
-5.209929e+08
-5.546667e+08
-5.989625e+08
-6.576274e+08
0
0
0
0
-4.769593e+08
-5.001709e+08
-5.30825e+08
-5.708663e+08
-6.231955e+08
0
0
0
0
0
-4.588803e+08
-4.801222e+08
-5.08088e+08
-5.443852e+08
-5.913878e+08
0
0
0
0
0
1.167866e+09
-4.419854e+08
-4.614924e+08
-4.871089e+08
-5.201987e+08
-5.627135e+08
0
0
0
0
0
1.006209e+09
1.12068e+09
-4.264839e+08
-4.444771e+08
-4.680628e+08
-4.984094e+08
-5.371687e+08
0
0
0
0
0
8.995562e+08
9.646024e+08
1.085346e+09
-4.123387e+08
-4.290074e+08
-4.508303e+08
-4.788223e+08
-5.143983e+08
0
0
0
0
0
8.208486e+08
8.641781e+08
9.343547e+08
1.062379e+09
-3.993826e+08
-4.14884e+08
-4.351583e+08
-4.611002e+08
-4.939396e+08
0
0
0
0
0
7.583675e+08
7.903599e+08
8.385542e+08
9.147066e+08
1.050379e+09
-3.873547e+08
-4.01813e+08
-4.207034e+08
-4.448237e+08
-4.752548e+08
0
0
0
0
0
7.06184e+08
7.31455e+08
7.680067e+08
8.216406e+08
9.040836e+08
-3.758874e+08
-3.893862e+08
-4.070093e+08
-4.294643e+08
-4.577114e+08
0
0
0
0
0
6.608173e+08
6.816128e+08
7.110775e+08
7.525485e+08
8.117743e+08
-3.645004e+08
-3.770826e+08
-3.935034e+08
-4.143863e+08
-4.405789e+08
0
0
0
0
0
6.197904e+08
6.373898e+08
6.619827e+08
6.958223e+08
7.421921e+08
-3.5282e+08
-3.645179e+08
-3.797772e+08
-3.991498e+08
-4.233773e+08
0
0
0
0
0
5.817552e+08
5.969401e+08
6.179642e+08
6.464418e+08
6.845721e+08
-3.414124e+08
-3.522953e+08
-3.66484e+08
-3.844724e+08
-4.069153e+08
0
0
0
0
0
5.470847e+08
5.604438e+08
5.788047e+08
6.034119e+08
6.358539e+08
-3.308686e+08
-3.410214e+08
-3.542625e+08
-3.710332e+08
-3.919175e+08
0
0
0
0
0
5.161523e+08
5.281092e+08
5.444497e+08
5.661744e+08
5.945152e+08
-3.214633e+08
-3.309793e+08
-3.433983e+08
-3.591203e+08
-3.786746e+08
0
0
0
0
0
4.888363e+08
4.996968e+08
5.144629e+08
5.339729e+08
5.592271e+08
-3.132442e+08
-3.222173e+08
-3.33932e+08
-3.487622e+08
-3.671902e+08
0
0
0
0
0
4.647945e+08
4.747794e+08
4.882927e+08
5.060531e+08
5.289052e+08
-5.776984e+08
-6.157754e+08
-6.685141e+08
-7.429443e+08
-8.451666e+08
-5.504914e+08
-5.837247e+08
-6.287323e+08
-6.904636e+08
-7.776266e+08
0
-5.282391e+08
-5.57997e+08
-5.978541e+08
-6.512803e+08
-7.244768e+08
0
0
-5.093086e+08
-5.364294e+08
-5.724645e+08
-6.201858e+08
-6.84004e+08
0
0
0
-4.92263e+08
-5.171957e+08
-5.501973e+08
-5.934916e+08
-6.506099e+08
0
0
0
0
-4.756604e+08
-4.986559e+08
-5.289874e+08
-5.685504e+08
-6.201558e+08
0
0
0
0
0
-4.587225e+08
-4.798928e+08
-5.077468e+08
-5.438735e+08
-5.906164e+08
0
0
0
0
0
1.152633e+09
-4.421865e+08
-4.616804e+08
-4.872712e+08
-5.203175e+08
-5.627616e+08
0
0
0
0
0
1.003309e+09
1.112966e+09
-4.266517e+08
-4.446459e+08
-4.682299e+08
-4.985706e+08
-5.373178e+08
0
0
0
0
0
8.991492e+08
9.63535e+08
1.082158e+09
-4.123387e+08
-4.290074e+08
-4.508303e+08
-4.788223e+08
-5.143983e+08
0
0
0
0
0
8.208486e+08
8.641781e+08
9.343547e+08
1.062379e+09
-3.992312e+08
-4.147311e+08
-4.350059e+08
-4.609515e+08
-4.937983e+08
0
0
0
0
0
7.58348e+08
7.904653e+08
8.389078e+08
9.156808e+08
1.053482e+09
-3.871844e+08
-4.016495e+08
-4.205534e+08
-4.446957e+08
-4.751611e+08
0
0
0
0
0
7.062935e+08
7.317212e+08
7.685412e+08
8.227102e+08
9.064976e+08
-3.759678e+08
-3.894991e+08
-4.071719e+08
-4.296975e+08
-4.580427e+08
0
0
0
0
0
6.615281e+08
6.825073e+08
7.122596e+08
7.542212e+08
8.144033e+08
-3.652489e+08
-3.779087e+08
-3.944433e+08
-4.154831e+08
-4.41886e+08
0
0
0
0
0
6.217828e+08
6.396095e+08
6.64543e+08
6.989137e+08
7.461654e+08
-3.545707e+08
-3.663959e+08
-3.818381e+08
-4.014626e+08
-4.260268e+08
0
0
0
0
0
5.85281e+08
6.007219e+08
6.22127e+08
6.511726e+08
6.901708e+08
-3.435761e+08
-3.545955e+08
-3.689763e+08
-3.872275e+08
-4.100195e+08
0
0
0
0
0
5.510118e+08
5.645831e+08
5.832541e+08
6.083136e+08
6.414125e+08
-3.328163e+08
-3.430826e+08
-3.564838e+08
-3.734685e+08
-3.946367e+08
0
0
0
0
0
5.194627e+08
5.315643e+08
5.481159e+08
5.701421e+08
5.989109e+08
-3.228544e+08
-3.324478e+08
-3.44974e+08
-3.608401e+08
-3.805823e+08
0
0
0
0
0
4.910962e+08
5.020421e+08
5.169326e+08
5.366185e+08
5.621178e+08
-3.139556e+08
-3.229654e+08
-3.347313e+08
-3.496298e+08
-3.681473e+08
0
0
0
0
0
4.658971e+08
4.75921e+08
4.894905e+08
5.073292e+08
5.302886e+08
-3.06178e+08
-3.146824e+08
-3.258017e+08
-3.398742e+08
-3.573533e+08
0
0
0
0
0
4.436213e+08
4.528911e+08
4.653915e+08
4.817454e+08
5.026816e+08
-5.483719e+08
-5.812731e+08
-6.257717e+08
-6.866691e+08
-7.72272e+08
0
-5.245961e+08
-5.538472e+08
-5.929485e+08
-6.452186e+08
-7.165064e+08
0
0
-5.04874e+08
-5.314294e+08
-5.666382e+08
-6.131267e+08
-6.750391e+08
0
0
0
-4.879583e+08
-5.123697e+08
-5.446133e+08
-5.867997e+08
-6.422482e+08
0
0
0
0
-4.726009e+08
-4.952192e+08
-5.249989e+08
-5.63761e+08
-6.141858e+08
0
0
0
0
0
-4.575366e+08
-4.785254e+08
-5.061118e+08
-5.418496e+08
-5.880244e+08
0
0
0
0
0
1.128008e+09
-4.420507e+08
-4.614844e+08
-4.869821e+08
-5.198892e+08
-5.621271e+08
0
0
0
0
0
9.973876e+08
1.099026e+09
-4.268456e+08
-4.44829e+08
-4.68392e+08
-4.986975e+08
-5.37389e+08
0
0
0
0
0
8.978778e+08
9.608627e+08
1.074904e+09
-4.124979e+08
-4.291683e+08
-4.5099e+08
-4.789775e+08
-5.145443e+08
0
0
0
0
0
8.207326e+08
8.638024e+08
9.333484e+08
1.059283e+09
-3.992312e+08
-4.147311e+08
-4.350059e+08
-4.609515e+08
-4.937983e+08
0
0
0
0
0
7.58348e+08
7.904653e+08
8.389078e+08
9.156808e+08
1.053482e+09
-3.870401e+08
-4.015039e+08
-4.204084e+08
-4.445534e+08
-4.750252e+08
0
0
0
0
0
7.062037e+08
7.316996e+08
7.686382e+08
8.230503e+08
9.074643e+08
-3.758046e+08
-3.893421e+08
-4.070273e+08
-4.295729e+08
-4.579478e+08
0
0
0
0
0
6.615293e+08
6.826034e+08
7.125061e+08
7.547317e+08
8.154527e+08
-3.653245e+08
-3.780127e+08
-3.945927e+08
-4.156972e+08
-4.421888e+08
0
0
0
0
0
6.223222e+08
6.40271e+08
6.653874e+08
7.000486e+08
7.478008e+08
-3.552827e+08
-3.671798e+08
-3.827247e+08
-4.024926e+08
-4.272494e+08
0
0
0
0
0
5.869962e+08
6.025989e+08
6.242437e+08
6.536488e+08
6.932062e+08
-3.452485e+08
-3.563847e+08
-3.709332e+08
-3.894141e+08
-4.125143e+08
0
0
0
0
0
5.541588e+08
5.679256e+08
5.868829e+08
6.123633e+08
6.46082e+08
-3.348874e+08
-3.452783e+08
-3.588574e+08
-3.760822e+08
-3.975701e+08
0
0
0
0
0
5.230302e+08
5.353008e+08
5.520995e+08
5.744795e+08
6.037546e+08
-3.247216e+08
-3.344201e+08
-3.470932e+08
-3.631578e+08
-3.831597e+08
0
0
0
0
0
4.941353e+08
5.052001e+08
5.202643e+08
5.401968e+08
5.660399e+08
-3.152917e+08
-3.24373e+08
-3.362385e+08
-3.512698e+08
-3.699615e+08
0
0
0
0
0
4.679858e+08
4.780815e+08
4.917557e+08
5.097421e+08
5.329049e+08
-3.068634e+08
-3.154018e+08
-3.265687e+08
-3.407048e+08
-3.582666e+08
0
0
0
0
0
4.446439e+08
4.539473e+08
4.664958e+08
4.829167e+08
5.039441e+08
-2.994862e+08
-3.075642e+08
-3.181288e+08
-3.315054e+08
-3.481057e+08
0
0
0
0
0
4.239323e+08
4.325781e+08
4.441969e+08
4.593397e+08
4.78638e+08
-5.227027e+08
-5.516959e+08
-5.904139e+08
-6.421009e+08
-7.124355e+08
0
0
-5.015848e+08
-5.277313e+08
-5.62348e+08
-6.079625e+08
-6.685414e+08
0
0
0
-4.839194e+08
-5.078641e+08
-5.394379e+08
-5.806579e+08
-6.346727e+08
0
0
0
0
-4.686527e+08
-4.90834e+08
-5.199854e+08
-5.578498e+08
-6.06973e+08
0
0
0
0
0
-4.547145e+08
-4.753829e+08
-5.02505e+08
-5.375795e+08
-5.828031e+08
0
0
0
0
0
1.094959e+09
-4.409587e+08
-4.602367e+08
-4.855069e+08
-5.180884e+08
-5.598609e+08
0
0
0
0
0
9.864855e+08
1.076397e+09
-4.267269e+08
-4.446584e+08
-4.681418e+08
-4.9833e+08
-5.368515e+08
0
0
0
0
0
8.947202e+08
9.553938e+08
1.061772e+09
-4.126835e+08
-4.293456e+08
-4.511494e+08
-4.791073e+08
-5.146282e+08
0
0
0
0
0
8.201177e+08
8.626252e+08
9.308275e+08
1.052241e+09
-3.993827e+08
-4.14884e+08
-4.351583e+08
-4.611002e+08
-4.939396e+08
0
0
0
0
0
7.583675e+08
7.903599e+08
8.385542e+08
9.147066e+08
1.050379e+09
-3.8704e+08
-4.01504e+08
-4.204084e+08
-4.445534e+08
-4.750252e+08
0
0
0
0
0
7.062037e+08
7.316996e+08
7.686382e+08
8.230503e+08
9.074643e+08
-3.756671e+08
-3.892033e+08
-4.068891e+08
-4.294374e+08
-4.578175e+08
0
0
0
0
0
6.614011e+08
6.825153e+08
7.124819e+08
7.548225e+08
8.157864e+08
-3.651689e+08
-3.77862e+08
-3.944533e+08
-4.155763e+08
-4.420951e+08
0
0
0
0
0
6.222557e+08
6.402649e+08
6.654718e+08
7.002799e+08
7.482958e+08
-3.553534e+08
-3.672777e+08
-3.82863e+08
-4.026901e+08
-4.275282e+08
0
0
0
0
0
5.874143e+08
6.030997e+08
6.248668e+08
6.544573e+08
6.943114e+08
-3.459282e+08
-3.5713e+08
-3.717739e+08
-3.903849e+08
-4.136614e+08
0
0
0
0
0
5.556572e+08
5.695437e+08
5.886744e+08
6.144111e+08
6.48512e+08
-3.364887e+08
-3.469868e+08
-3.607206e+08
-3.781567e+08
-3.999264e+08
0
0
0
0
0
5.258667e+08
5.382893e+08
5.55311e+08
5.780123e+08
6.077523e+08
-3.267074e+08
-3.365213e+08
-3.49358e+08
-3.656452e+08
-3.859402e+08
0
0
0
0
0
4.973984e+08
5.086003e+08
5.238651e+08
5.440835e+08
5.703275e+08
-3.170848e+08
-3.262633e+08
-3.382654e+08
-3.534797e+08
-3.724126e+08
0
0
0
0
0
4.707905e+08
4.809854e+08
4.948049e+08
5.129967e+08
5.364435e+08
-3.081489e+08
-3.167535e+08
-3.280128e+08
-3.422726e+08
-3.599954e+08
0
0
0
0
0
4.465823e+08
4.559471e+08
4.685851e+08
4.851316e+08
5.063311e+08
-3.001478e+08
-3.082572e+08
-3.188661e+08
-3.323019e+08
-3.489794e+08
0
0
0
0
0
4.24884e+08
4.335589e+08
4.452196e+08
4.604204e+08
4.797973e+08
-2.931508e+08
-3.008234e+08
-3.108815e+08
-3.2361e+08
-3.394024e+08
0
0
0
0
0
4.055644e+08
4.136632e+08
4.245064e+08
4.385887e+08
4.564683e+08
-4.998723e+08
-5.2581e+08
-5.601252e+08
-6.052963e+08
-6.652024e+08
0
0
0
-4.809198e+08
-5.04526e+08
-5.356169e+08
-5.761461e+08
-6.291454e+08
0
0
0
0
-4.649438e+08
-4.867317e+08
-5.153247e+08
-5.523994e+08
-6.003909e+08
0
0
0
0
0