/*--------------------------------*- C++ -*----------------------------------*\
| =========                 |                                                 |
| \\      /  F ield         | OpenFOAM: The Open Source CFD Toolbox           |
|  \\    /   O peration     | Version:  2306                                  |
|   \\  /    A nd           | Website:  www.openfoam.com                      |
|    \\/     M anipulation  |                                                 |
\*---------------------------------------------------------------------------*/
FoamFile
{
    version     2.0;
    format      ascii;
    arch        "LSB;label=32;scalar=64";
    class       volScalarField;
    location    "0.6/phiI";
    object      phi;
}
// * * * * * * * * * * * * * * * * * * * * * * * * * * * * * * * * * * * * * //

dimensions      [1 2 -3 0 0 -1 0];

internalField   nonuniform List<scalar> 
12000
(
1.615945
1.615956
1.611243
1.616793
1.615982
1.611207
1.616811
1.606771
1.612021
1.618525
1.615989
1.611153
1.616852
1.606711
1.61199
1.618558
1.603208
1.607491
1.613609
1.621156
1.615916
1.611088
1.616882
1.60661
1.611945
1.618629
1.603135
1.607434
1.613587
1.621211
1.600377
1.603881
1.608958
1.616021
1.624712
1.615664
1.611025
1.616838
1.606487
1.611893
1.618703
1.603008
1.60734
1.613561
1.621327
1.600296
1.60381
1.608908
1.616013
1.624797
1.598099
1.60101
1.60525
1.611183
1.619279
1.62923
1.615215
1.610958
1.616617
1.606377
1.611846
1.618716
1.602849
1.607227
1.613536
1.621469
1.600153
1.603689
1.608828
1.616015
1.624975
1.598014
1.600932
1.605185
1.611144
1.61929
1.629354
1.59623
1.598699
1.602298
1.607327
1.614188
1.623414
1.633809
1.614673
1.610868
1.616193
1.606309
1.611794
1.618558
1.602698
1.607128
1.613519
1.62157
1.59997
1.603538
1.608734
1.61603
1.625209
1.597862
1.600794
1.605076
1.611085
1.61933
1.629611
1.596143
1.598616
1.602225
1.607271
1.614164
1.62345
1.633972
1.594674
1.5968
1.599917
1.604251
1.610128
1.617999
1.627603
1.638449
1.614205
1.61074
1.615668
1.606283
1.611713
1.618183
1.6026
1.607069
1.613497
1.621505
1.599789
1.603396
1.608657
1.61606
1.625429
1.597663
1.600617
1.60494
1.611021
1.619399
1.629964
1.595986
1.598468
1.602097
1.607178
1.614133
1.623539
1.634307
1.594587
1.596716
1.599839
1.604185
1.610085
1.617994
1.627665
1.638652
1.593363
1.595219
1.597958
1.601763
1.606884
1.61368
1.621858
1.631848
1.643151
1.613939
1.610617
1.61521
1.606264
1.611592
1.617691
1.60257
1.607049
1.613436
1.621205
1.599662
1.603305
1.608617
1.616083
1.625492
1.597462
1.600444
1.604815
1.610977
1.619494
1.630336
1.595779
1.598276
1.601933
1.607066
1.614109
1.623678
1.634778
1.594428
1.596562
1.599699
1.604071
1.610015
1.618
1.627803
1.639065
1.593277
1.595134
1.597877
1.601692
1.606829
1.613652
1.621871
1.631934
1.643392
1.592246
1.593884
1.596322
1.59971
1.604251
1.61022
1.617273
1.625764
1.636147
1.647914
1.613939
1.610541
1.614949
1.606243
1.611472
1.617252
1.602569
1.607032
1.613327
1.620762
1.599613
1.603279
1.608609
1.616053
1.625292
1.597313
1.600322
1.604738
1.610967
1.619578
1.630564
1.595566
1.598081
1.601774
1.606967
1.61411
1.623856
1.635302
1.594217
1.59636
1.599518
1.603928
1.609935
1.618027
1.628011
1.639653
1.593117
1.594977
1.597731
1.601565
1.606735
1.613613
1.621914
1.63212
1.643883
1.59216
1.593799
1.59624
1.599636
1.604189
1.610178
1.61726
1.625796
1.636258
1.648194
1.591285
1.592746
1.594938
1.597991
1.602072
1.607403
1.613592
1.620907
1.629718
1.640501
1.652739
1.614205
1.610541
1.614949
1.60623
1.611398
1.617
1.602573
1.607013
1.613212
1.620353
1.599606
1.603279
1.608597
1.615961
1.624917
1.597247
1.600276
1.60472
1.610976
1.61959
1.630494
1.595401
1.597936
1.601664
1.606913
1.61414
1.62402
1.635693
1.593997
1.596152
1.599336
1.60379
1.609872
1.618087
1.628271
1.640328
1.592905
1.594771
1.597539
1.601401
1.606618
1.613574
1.621992
1.632397
1.644588
1.592001
1.593642
1.596091
1.599501
1.604079
1.61011
1.617251
1.625876
1.636492
1.648762
1.591201
1.592661
1.594857
1.597915
1.602005
1.607352
1.613563
1.62091
1.629769
1.640636
1.653057
1.590452
1.591765
1.593755
1.596533
1.60024
1.605062
1.610586
1.617
1.624583
1.633719
1.64491
1.656539
1.614673
1.610617
1.61521
1.60623
1.611398
1.617
1.602576
1.607
1.613141
1.620114
1.599612
1.603283
1.60858
1.615856
1.624547
1.597231
1.60027
1.604723
1.610973
1.619523
1.630205
1.595323
1.597872
1.601624
1.606906
1.614174
1.624086
1.635752
1.593824
1.595992
1.599201
1.603698
1.609848
1.618169
1.628514
1.640881
1.592681
1.594556
1.597342
1.601237
1.60651
1.613557
1.62211
1.63274
1.645413
1.59179
1.593434
1.595894
1.599325
1.603939
1.610028
1.617253
1.626004
1.636838
1.649583
1.591044
1.592505
1.594706
1.597776
1.601886
1.607265
1.61352
1.62093
1.629884
1.640918
1.653702
1.590369
1.591682
1.593674
1.596456
1.600171
1.605005
1.610546
1.616984
1.6246
1.633789
1.645069
1.656887
1.589726
1.590914
1.592734
1.595282
1.598681
1.603086
1.608078
1.613799
1.620444
1.6283
1.637768
1.648386
1.659361
1.615215
1.61074
1.615668
1.606243
1.611472
1.617252
1.602576
1.607
1.613141
1.620114
1.599617
1.603286
1.608567
1.615789
1.624326
1.597233
1.600276
1.604728
1.610959
1.61943
1.629886
1.595298
1.597857
1.601619
1.606914
1.614182
1.62405
1.635547
1.593736
1.595916
1.599142
1.603667
1.609858
1.618235
1.628635
1.641067
1.592503
1.594386
1.597191
1.601117
1.606442
1.613572
1.622244
1.633061
1.646128
1.591566
1.593216
1.595688
1.599144
1.603801
1.609958
1.617281
1.62618
1.637263
1.650559
1.590834
1.592298
1.594506
1.597593
1.60173
1.607155
1.613473
1.620972
1.630063
1.641333
1.654638
1.590215
1.591528
1.593524
1.596315
1.600046
1.604906
1.610481
1.616966
1.62465
1.63394
1.645399
1.657592
1.589645
1.590833
1.592654
1.595206
1.59861
1.603026
1.608032
1.613771
1.620441
1.628333
1.637856
1.648564
1.65973
1.589089
1.590172
1.591846
1.594199
1.597338
1.601397
1.605955
1.611122
1.617044
1.623924
1.632058
1.640964
1.650968
1.661235
1.615664
1.610868
1.616193
1.606264
1.611592
1.617691
1.602573
1.607013
1.613212
1.620353
1.599617
1.603286
1.608567
1.615789
1.624326
1.597237
1.600281
1.604731
1.610947
1.619368
1.629688
1.595296
1.597859
1.601626
1.606921
1.614173
1.623974
1.635277
1.593706
1.595892
1.599128
1.603666
1.609873
1.618258
1.628629
1.640945
1.592411
1.594301
1.597118
1.601066
1.606425
1.613605
1.622341
1.633236
1.646439
1.591386
1.593041
1.595526
1.599005
1.603702
1.609923
1.617336
1.626366
1.637663
1.651434
1.590612
1.592078
1.594296
1.597402
1.601572
1.607049
1.613441
1.621047
1.630296
1.641839
1.655763
1.590008
1.591322
1.593324
1.596128
1.599881
1.604777
1.610401
1.616953
1.624733
1.634168
1.645881
1.658618
1.589493
1.59068
1.592505
1.595064
1.598482
1.602919
1.607952
1.613728
1.620448
1.628411
1.638043
1.648931
1.660479
1.58901
1.590092
1.591767
1.594123
1.597267
1.601335
1.605905
1.611086
1.617027
1.623934
1.632106
1.641065
1.65116
1.661619
1.588527
1.589519
1.591069
1.593254
1.596171
1.599937
1.604133
1.608847
1.614192
1.62032
1.62744
1.635026
1.643338
1.652685
1.662183
1.615916
1.610958
1.616617
1.606283
1.611713
1.618183
1.602569
1.607032
1.613327
1.620762
1.599612
1.603283
1.60858
1.615856
1.624547
1.597237
1.600281
1.604731
1.610947
1.619368
1.629688
1.595299
1.597863
1.60163
1.606923
1.614163
1.623918
1.635102
1.593702
1.59589
1.59913
1.603672
1.609881
1.618255
1.628569
1.640723
1.592377
1.594271
1.597095
1.601054
1.606428
1.613628
1.62238
1.633261
1.646399
1.591291
1.59295
1.595444
1.598939
1.603661
1.609922
1.617391
1.626495
1.637891
1.651868
1.590432
1.591901
1.594128
1.597251
1.601452
1.606977
1.613437
1.62114
1.630535
1.642317
1.656798
1.589788
1.591103
1.593112
1.595931
1.599711
1.604648
1.610328
1.61696
1.624852
1.63446
1.646469
1.659858
1.589289
1.590477
1.592306
1.594875
1.598311
1.602778
1.60785
1.613677
1.620469
1.628534
1.638321
1.649466
1.661571
1.58886
1.589942
1.59162
1.593982
1.597137
1.601223
1.605815
1.611025
1.617006
1.623965
1.632213
1.64128
1.651554
1.662397
1.588449
1.589441
1.590992
1.593179
1.5961
1.599874
1.60408
1.608806
1.614166
1.620315
1.627462
1.635085
1.643451
1.652886
1.662574
1.588029
1.588943
1.590385
1.592425
1.595148
1.598663
1.602553
1.606889
1.611763
1.61729
1.623627
1.630217
1.637232
1.644917
1.653552
1.615989
1.611025
1.616838
1.606309
1.611794
1.618558
1.60257
1.607049
1.613436
1.621205
1.599606
1.603279
1.608597
1.615961
1.624917
1.597233
1.600276
1.604728
1.610959
1.61943
1.629886
1.595299
1.597863
1.60163
1.606923
1.614163
1.623918
1.635102
1.593703
1.595892
1.599133
1.603677
1.609884
1.618247
1.628521
1.64057
1.59237
1.594266
1.597093
1.601055
1.606435
1.613638
1.622383
1.633217
1.646224
1.591255
1.592916
1.595415
1.598918
1.603652
1.609931
1.617423
1.626549
1.637947
1.651908
1.590336
1.591807
1.59404
1.597175
1.601394
1.60695
1.613453
1.621217
1.630695
1.642599
1.657355
1.589609
1.590926
1.592941
1.595773
1.599576
1.604551
1.610283
1.616987
1.624985
1.63475
1.647026
1.661018
1.589073
1.59026
1.592095
1.594676
1.598133
1.602633
1.60775
1.613637
1.620513
1.628699
1.63867
1.650117
1.662896
1.58866
1.589741
1.591423
1.593793
1.596964
1.601074
1.605698
1.610949
1.616985
1.62402
1.632376
1.641597
1.652128
1.663532
1.588303
1.589294
1.590846
1.593039
1.595969
1.599759
1.603983
1.608733
1.614125
1.620314
1.627518
1.635215
1.643686
1.653297
1.663366
1.587953
1.588866
1.590309
1.592351
1.595079
1.598599
1.602498
1.606844
1.61173
1.617274
1.623633
1.63025
1.637301
1.645036
1.653758
1.587587
1.588432
1.589779
1.591692
1.594248
1.597542
1.601169
1.605185
1.609665
1.614701
1.620415
1.626242
1.632284
1.638699
1.645714
1.615982
1.611088
1.616882
1.606377
1.611846
1.618716
1.6026
1.607069
1.613497
1.621505
1.599613
1.603279
1.608609
1.616053
1.625292
1.597231
1.60027
1.604723
1.610973
1.619523
1.630205
1.595296
1.597859
1.601626
1.606921
1.614173
1.623974
1.635277
1.593703
1.595892
1.599133
1.603677
1.609884
1.618247
1.628521
1.64057
1.592371
1.594267
1.597095
1.601059
1.606439
1.613641
1.622377
1.633175
1.646092
1.591247
1.592909
1.59541
1.598915
1.603653
1.609938
1.617436
1.626558
1.637918
1.65178
1.590299
1.591772
1.594007
1.597147
1.601375
1.606945
1.613468
1.621258
1.630764
1.642685
1.657474
1.589513
1.590831
1.59285
1.595691
1.599507
1.604505
1.610269
1.61702
1.625084
1.634942
1.64736
1.66167
1.588896
1.590084
1.591923
1.594514
1.59799
1.60252
1.607676
1.613619
1.620572
1.628871
1.639012
1.650735
1.664147
1.588447
1.589528
1.591213
1.593593
1.596781
1.600919
1.605579
1.610877
1.616977
1.624102
1.632586
1.64199
1.652826
1.664914
1.588107
1.589097
1.590652
1.592852
1.595795
1.599606
1.603857
1.60864
1.614075
1.620323
1.627607
1.635409
1.644031
1.653897
1.664523
1.58781
1.588722
1.590166
1.592212
1.594948
1.598482
1.602397
1.606764
1.611675
1.617251
1.623654
1.630325
1.637447
1.645284
1.654178
1.587513
1.588357
1.589705
1.591619
1.594178
1.597479
1.601112
1.605138
1.609628
1.614678
1.620408
1.626257
1.632324
1.638773
1.645837
1.587191
1.587977
1.58924
1.59104
1.593448
1.59655
1.599947
1.603688
1.607834
1.612461
1.617663
1.622886
1.628188
1.633657
1.63944
1.615956
1.611153
1.616852
1.606487
1.611893
1.618703
1.602698
1.607128
1.613519
1.62157
1.599662
1.603305
1.608617
1.616083
1.625492
1.597247
1.600276
1.60472
1.610976
1.61959
1.630494
1.595298
1.597857
1.601619
1.606914
1.614182
1.62405
1.635547
1.593702
1.59589
1.59913
1.603672
1.609881
1.618255
1.628569
1.640723
1.592371
1.594267
1.597095
1.601059
1.606439
1.613641
1.622377
1.633175
1.646092
1.591247
1.59291
1.595411
1.598916
1.603656
1.609942
1.617439
1.626554
1.637882
1.651669
1.59029
1.591764
1.594
1.597141
1.601372
1.606947
1.613477
1.621274
1.63078
1.642671
1.657391
1.589477
1.590794
1.592815
1.595659
1.599481
1.604489
1.610268
1.617041
1.625134
1.635027
1.647476
1.66185
1.588801
1.58999
1.591831
1.594428
1.597913
1.602461
1.607641
1.613619
1.620622
1.628992
1.639236
1.651111
1.664869
1.588274
1.589354
1.591042
1.593431
1.596633
1.600795
1.605486
1.610827
1.616985
1.624192
1.632797
1.642373
1.653488
1.666224
1.587898
1.588887
1.590445
1.592653
1.595611
1.599444
1.603725
1.608546
1.614031
1.620347
1.627725
1.635654
1.644458
1.654625
1.665932
1.587618
1.588528
1.589974
1.592027
1.594774
1.598327
1.602263
1.606658
1.611605
1.617227
1.623692
1.63044
1.637664
1.645649
1.65479
1.587372
1.588215
1.589564
1.591482
1.594049
1.597361
1.601009
1.605051
1.609563
1.61464
1.620405
1.626294
1.632413
1.63893
1.646092
1.587119
1.587904
1.589167
1.590969
1.59338
1.596487
1.59989
1.603639
1.607794
1.612432
1.617649
1.622888
1.628208
1.633702
1.639516
1.586836
1.58757
1.588759
1.590459
1.592735
1.595667
1.598862
1.602363
1.606221
1.6105
1.615276
1.620007
1.624725
1.629481
1.63435
1.615945
1.611207
1.616811
1.60661
1.611945
1.618629
1.602849
1.607227
1.613536
1.621469
1.599789
1.603396
1.608657
1.61606
1.625429
1.597313
1.600322
1.604738
1.610967
1.619578
1.630564
1.595323
1.597872
1.601624
1.606906
1.614174
1.624086
1.635752
1.593706
1.595892
1.599128
1.603666
1.609873
1.618258
1.628629
1.640945
1.59237
1.594266
1.597093
1.601055
1.606435
1.613638
1.622383
1.633217
1.646224
1.591247
1.59291
1.595411
1.598916
1.603656
1.609942
1.617439
1.626554
1.637882
1.651669
1.59029
1.591763
1.594
1.597142
1.601373
1.606949
1.61348
1.621277
1.630777
1.642642
1.6573
1.589468
1.590786
1.592807
1.595651
1.599475
1.604485
1.61027
1.61705
1.625152
1.635048
1.647477
1.661802
1.588765
1.589953
1.591795
1.594394
1.597883
1.602438
1.607628
1.613622
1.620649
1.629051
1.639336
1.651249
1.665094
1.58818
1.58926
1.59095
1.593342
1.596552
1.600727
1.605437
1.610804
1.616999
1.624259
1.632941
1.642622
1.653894
1.666992
1.587728
1.588715
1.590276
1.59249
1.59546
1.599313
1.603619
1.608474
1.614004
1.620381
1.627848
1.635896
1.64487
1.655317
1.667272
1.587413
1.588322
1.58977
1.591829
1.594589
1.598162
1.602123
1.606549
1.611536
1.617212
1.623748
1.630588
1.637935
1.646097
1.655534
1.587184
1.588026
1.589376
1.591299
1.593876
1.597204
1.600871
1.604937
1.609479
1.614593
1.620406
1.626354
1.632547
1.639163
1.646465
1.586981
1.587765
1.589029
1.590834
1.593252
1.59637
1.599785
1.603549
1.607722
1.612382
1.617627
1.622899
1.628258
1.633801
1.639679
1.586766
1.587498
1.588688
1.590389
1.592668
1.595605
1.598805
1.602312
1.606179
1.610467
1.615256
1.619999
1.624732
1.629506
1.634398
1.586518
1.587204
1.588328
1.589939
1.592097
1.594876
1.597892
1.601182
1.604789
1.608768
1.613183
1.617505
1.621751
1.625948
1.630132
1.611243
1.616793
1.606711
1.61199
1.618558
1.603008
1.60734
1.613561
1.621327
1.59997
1.603538
1.608734
1.61603
1.625209
1.597462
1.600444
1.604815
1.610977
1.619494
1.630336
1.595401
1.597936
1.601664
1.606913
1.61414
1.62402
1.635693
1.593736
1.595916
1.599142
1.603667
1.609858
1.618235
1.628635
1.641067
1.592377
1.594271
1.597095
1.601054
1.606428
1.613628
1.62238
1.633261
1.646399
1.591247
1.592909
1.59541
1.598915
1.603653
1.609938
1.617436
1.626558
1.637918
1.65178
1.59029
1.591763
1.594
1.597142
1.601373
1.606949
1.61348
1.621277
1.630777
1.642642
1.6573
1.589468
1.590785
1.592806
1.59565
1.599474
1.604485
1.610271
1.617053
1.625156
1.635048
1.647454
1.661726
1.588757
1.589944
1.591786
1.594384
1.597874
1.602431
1.607625
1.613624
1.620659
1.629072
1.639363
1.651263
1.665071
1.588145
1.589224
1.590914
1.593307
1.596519
1.600699
1.605416
1.610794
1.617006
1.624292
1.633009
1.642733
1.65405
1.667246
1.587637
1.588623
1.590184
1.592401
1.595377
1.59924
1.60356
1.608435
1.613992
1.620409
1.627932
1.636057
1.645137
1.655743
1.668063
1.587247
1.588155
1.589604
1.591668
1.594438
1.598026
1.602009
1.606461
1.611484
1.617207
1.623809
1.630735
1.638199
1.646528
1.65624
1.586983
1.587824
1.589176
1.591104
1.593692
1.597038
1.600726
1.604818
1.609393
1.614549
1.620419
1.626435
1.632716
1.63945
1.646924
1.586796
1.587579
1.588845
1.590654
1.593081
1.596213
1.599645
1.603429
1.607628
1.612319
1.617603
1.62292
1.628335
1.633947
1.639919
1.586631
1.587362
1.588553
1.590257
1.592542
1.595487
1.598699
1.60222
1.606102
1.61041
1.615221
1.619991
1.624754
1.629564
1.6345
1.586449
1.587134
1.588258
1.58987
1.592031
1.594814
1.597835
1.601131
1.604746
1.608733
1.613157
1.61749
1.621749
1.625959
1.63016
1.586232
1.586875
1.587939
1.58947
1.591523
1.594164
1.59702
1.600123
1.60351
1.607227
1.611329
1.615307
1.619164
1.622911
1.626563
1.606771
1.612021
1.618525
1.603135
1.607434
1.613587
1.621211
1.600153
1.603689
1.608828
1.616015
1.624975
1.597663
1.600617
1.60494
1.611021
1.619399
1.629964
1.595566
1.598081
1.601774
1.606967
1.61411
1.623856
1.635302
1.593824
1.595992
1.599201
1.603698
1.609848
1.618169
1.628514
1.640881
1.592411
1.594301
1.597118
1.601066
1.606425
1.613605
1.622341
1.633236
1.646439
1.591255
1.592916
1.595415
1.598918
1.603652
1.609931
1.617423
1.626549
1.637947
1.651908
1.59029
1.591764
1.594
1.597141
1.601372
1.606947
1.613477
1.621274
1.63078
1.642671
1.657391
1.589468
1.590785
1.592806
1.59565
1.599474
1.604485
1.610271
1.617053
1.625156
1.635048
1.647454
1.661726
1.588757
1.589944
1.591785
1.594383
1.597873
1.602429
1.607624
1.613625
1.620662
1.629076
1.639365
1.651244
1.665007
1.588137
1.589215
1.590905
1.593297
1.596509
1.60069
1.605408
1.61079
1.617008
1.624304
1.633032
1.642766
1.654072
1.66724
1.587603
1.588588
1.590148
1.592365
1.595342
1.599209
1.603533
1.608416
1.613986
1.620421
1.627971
1.636132
1.645257
1.65591
1.668332
1.587158
1.588064
1.589513
1.591579
1.594354
1.597951
1.601944
1.606411
1.611455
1.617207
1.62385
1.630832
1.638373
1.646808
1.656676
1.586821
1.58766
1.589012
1.590945
1.593541
1.5969
1.600606
1.60472
1.609323
1.614517
1.620437
1.626517
1.632881
1.639729
1.647365
1.5866
1.587381
1.588649
1.590463
1.592898
1.596045
1.599496
1.603303
1.607529
1.612255
1.617585
1.622954
1.628434
1.634131
1.640215
1.58645
1.58718
1.588372
1.59008
1.592373
1.595331
1.598557
1.602096
1.606
1.610334
1.615179
1.619985
1.624791
1.629651
1.634653
1.586317
1.587001
1.588125
1.58974
1.591906
1.594698
1.597729
1.601036
1.604665
1.608669
1.613114
1.617468
1.621751
1.625988
1.630221
1.586164
1.586807
1.587871
1.589403
1.591458
1.594103
1.596964
1.600072
1.603465
1.60719
1.611301
1.615287
1.619154
1.622912
1.626576
1.585973
1.586579
1.587589
1.589047
1.591004
1.593521
1.596233
1.599168
1.60236
1.605847
1.609677
1.613358
1.616888
1.620267
1.623494
1.603208
1.607491
1.613609
1.621156
1.600296
1.60381
1.608908
1.616013
1.624797
1.597862
1.600794
1.605076
1.611085
1.61933
1.629611
1.595779
1.598276
1.601933
1.607066
1.614109
1.623678
1.634778
1.593997
1.596152
1.599336
1.60379
1.609872
1.618087
1.628271
1.640328
1.592503
1.594386
1.597191
1.601117
1.606442
1.613572
1.622244
1.633061
1.646128
1.591291
1.59295
1.595444
1.598939
1.603661
1.609922
1.617391
1.626495
1.637891
1.651868
1.590299
1.591772
1.594007
1.597147
1.601375
1.606945
1.613468
1.621258
1.630764
1.642685
1.657474
1.589468
1.590786
1.592807
1.595651
1.599475
1.604485
1.61027
1.61705
1.625152
1.635048
1.647477
1.661802
1.588757
1.589944
1.591785
1.594383
1.597873
1.602429
1.607624
1.613625
1.620662
1.629076
1.639365
1.651244
1.665007
1.588138
1.589215
1.590904
1.593296
1.596507
1.600687
1.605406
1.610788
1.617008
1.624306
1.633037
1.642769
1.654057
1.667184
1.587596
1.58858
1.590139
1.592356
1.595332
1.599198
1.603523
1.608408
1.613981
1.620423
1.627983
1.636158
1.645293
1.655937
1.668334
1.587125
1.58803
1.589478
1.591544
1.594319
1.597918
1.601914
1.606387
1.611439
1.617204
1.623866
1.630876
1.638453
1.646934
1.656848
1.586734
1.587572
1.588924
1.590858
1.593457
1.596823
1.600537
1.604663
1.609282
1.614498
1.620448
1.626569
1.632988
1.639911
1.647651
1.586441
1.58722
1.588488
1.590306
1.592748
1.595907
1.599373
1.603198
1.607447
1.612204
1.617573
1.62299
1.628531
1.634308
1.640501
1.586259
1.586986
1.588179
1.589892
1.592192
1.595164
1.598407
1.601965
1.605893
1.610256
1.615137
1.619986
1.624841
1.629763
1.634843
1.58614
1.586822
1.587948
1.589566
1.59174
1.594543
1.597587
1.60091
1.604558
1.608585
1.613057
1.617442
1.621758
1.626034
1.630315
1.586034
1.586676
1.587741
1.589275
1.591335
1.593988
1.596858
1.599976
1.603382
1.607121
1.61125
1.615254
1.619141
1.62292
1.626609
1.585907
1.586512
1.587522
1.588981
1.59094
1.593462
1.596178
1.599117
1.602315
1.605808
1.609645
1.613334
1.616873
1.62026
1.623497
1.585739
1.586312
1.587273
1.588664
1.590533
1.592938
1.59552
1.598304
1.601321
1.604604
1.608193
1.611617
1.614868
1.617939
1.620821
1.600377
1.603881
1.608958
1.616021
1.624712
1.598014
1.600932
1.605185
1.611144
1.61929
1.629354
1.595986
1.598468
1.602097
1.607178
1.614133
1.623539
1.634307
1.594217
1.59636
1.599518
1.603928
1.609935
1.618027
1.628011
1.639653
1.592681
1.594556
1.597342
1.601237
1.60651
1.613557
1.62211
1.63274
1.645413
1.591386
1.593041
1.595526
1.599005
1.603702
1.609923
1.617336
1.626366
1.637663
1.651434
1.590336
1.591807
1.59404
1.597175
1.601394
1.60695
1.613453
1.621217
1.630695
1.642599
1.657355
1.589477
1.590794
1.592815
1.595659
1.599481
1.604489
1.610268
1.617041
1.625134
1.635027
1.647476
1.66185
1.588757
1.589944
1.591786
1.594384
1.597874
1.602431
1.607625
1.613624
1.620659
1.629072
1.639363
1.651263
1.665071
1.588138
1.589215
1.590904
1.593296
1.596507
1.600687
1.605406
1.610788
1.617008
1.624306
1.633037
1.642769
1.654057
1.667184
1.587596
1.58858
1.590139
1.592355
1.59533
1.599195
1.60352
1.608405
1.613979
1.620423
1.627985
1.636163
1.645297
1.655925
1.668281
1.587119
1.588023
1.58947
1.591535
1.594309
1.597906
1.601903
1.606376
1.61143
1.617199
1.623869
1.630889
1.638481
1.646972
1.656878
1.586702
1.587539
1.58889
1.590823
1.593422
1.596789
1.600505
1.604635
1.609259
1.614484
1.620448
1.626589
1.633036
1.639996
1.647779
1.586357
1.587134
1.588402
1.59022
1.592665
1.59583
1.599302
1.603136
1.607398
1.612171
1.617563
1.62301
1.628591
1.634421
1.640687
1.586103
1.586829
1.588022
1.589738
1.592045
1.595027
1.598282
1.601856
1.605803
1.610191
1.615103
1.619989
1.62489
1.62987
1.635026
1.585952
1.586633
1.587759
1.589381
1.591562
1.594377
1.597436
1.600776
1.604444
1.608496
1.612999
1.617418
1.621773
1.626095
1.630432
1.585861
1.586501
1.587567
1.589104
1.591171
1.593835
1.596716
1.599849
1.603271
1.607031
1.611183
1.615212
1.619126
1.622936
1.62666
1.58578
1.586384
1.587395
1.588856
1.590819
1.593348
1.596072
1.599022
1.60223
1.605737
1.609589
1.613293
1.616848
1.620252
1.623508
1.585674
1.586246
1.587207
1.588599
1.590471
1.592879
1.595465
1.598254
1.601275
1.604564
1.60816
1.611591
1.614849
1.617927
1.620816
1.585525
1.586068
1.586986
1.588316
1.590105
1.592407
1.594871
1.597519
1.600378
1.603478
1.606854
1.610052
1.613062
1.615872
1.618467
1.598099
1.60101
1.60525
1.611183
1.619279
1.62923
1.596143
1.598616
1.602225
1.607271
1.614164
1.62345
1.633972
1.594428
1.596562
1.599699
1.604071
1.610015
1.618
1.627803
1.639065
1.592905
1.594771
1.597539
1.601401
1.606618
1.613574
1.621992
1.632397
1.644588
1.591566
1.593216
1.595688
1.599144
1.603801
1.609958
1.617281
1.62618
1.637263
1.650559
1.590432
1.591901
1.594128
1.597251
1.601452
1.606977
1.613437
1.62114
1.630535
1.642317
1.656798
1.589513
1.590831
1.59285
1.595691
1.599507
1.604505
1.610269
1.61702
1.625084
1.634942
1.64736
1.66167
1.588765
1.589953
1.591795
1.594394
1.597883
1.602438
1.607628
1.613622
1.620649
1.629051
1.639336
1.651249
1.665094
1.588137
1.589215
1.590905
1.593297
1.596509
1.60069
1.605408
1.61079
1.617008
1.624304
1.633032
1.642766
1.654072
1.66724
1.587596
1.58858
1.590139
1.592355
1.59533
1.599195
1.60352
1.608405
1.613979
1.620423
1.627985
1.636163
1.645297
1.655925
1.668281
1.587119
1.588024
1.58947
1.591534
1.594307
1.597904
1.601899
1.606372
1.611426
1.617196
1.623867
1.630891
1.638486
1.646977
1.656867
1.586696
1.587532
1.588882
1.590814
1.593412
1.596778
1.600493
1.604623
1.609248
1.614475
1.620443
1.626591
1.63305
1.640024
1.647819
1.586327
1.587103
1.588369
1.590187
1.592631
1.595796
1.59927
1.603106
1.607371
1.61215
1.617552
1.623013
1.628613
1.634471
1.640773
1.586021
1.586745
1.587937
1.589654
1.591963
1.594949
1.59821
1.601791
1.605748
1.610149
1.615079
1.619987
1.624917
1.629935
1.635143
1.585801
1.58648
1.587605
1.58923
1.591417
1.594241
1.59731
1.600664
1.604349
1.608421
1.61295
1.617398
1.621788
1.626152
1.630544
1.585677
1.586316
1.587382
1.588923
1.590996
1.593671
1.596566
1.599713
1.603154
1.606934
1.611112
1.61517
1.619115
1.62296
1.626726
1.58561
1.586213
1.587224
1.588688
1.590657
1.593196
1.595932
1.598894
1.602117
1.605641
1.609514
1.61324
1.616817
1.620246
1.623528
1.585549
1.58612
1.587082
1.588476
1.590352
1.592767
1.595361
1.598158
1.601189
1.60449
1.608099
1.611543
1.614815
1.617907
1.620811
1.585461
1.586004
1.586922
1.588253
1.590044
1.592349
1.594817
1.597469
1.600332
1.603437
1.606819
1.610024
1.613039
1.615855
1.618456
1.585327
1.585846
1.586725
1.588
1.589716
1.591923
1.594279
1.596803
1.599519
1.602453
1.605638
1.608637
1.611437
1.614022
1.616375
1.59623
1.598699
1.602298
1.607327
1.614188
1.623414
1.633809
1.594587
1.596716
1.599839
1.604185
1.610085
1.617994
1.627665
1.638652
1.593117
1.594977
1.597731
1.601565
1.606735
1.613613
1.621914
1.63212
1.643883
1.59179
1.593434
1.595894
1.599325
1.603939
1.610028
1.617253
1.626004
1.636838
1.649583
1.590612
1.592078
1.594296
1.597402
1.601572
1.607049
1.613441
1.621047
1.630296
1.641839
1.655763
1.589609
1.590926
1.592941
1.595773
1.599576
1.604551
1.610283
1.616987
1.624985
1.63475
1.647026
1.661018
1.588801
1.58999
1.591831
1.594428
1.597913
1.602461
1.607641
1.613619
1.620622
1.628992
1.639236
1.651111
1.664869
1.588145
1.589224
1.590914
1.593307
1.596519
1.600699
1.605416
1.610794
1.617006
1.624292
1.633009
1.642733
1.65405
1.667246
1.587596
1.58858
1.590139
1.592356
1.595332
1.599198
1.603523
1.608408
1.613981
1.620423
1.627983
1.636158
1.645293
1.655937
1.668334
1.587119
1.588024
1.58947
1.591534
1.594307
1.597904
1.601899
1.606372
1.611426
1.617196
1.623867
1.630891
1.638486
1.646977
1.656867
1.586698
1.587533
1.588882
1.590814
1.59341
1.596775
1.60049
1.604618
1.609243
1.61447
1.62044
1.62659
1.633051
1.640029
1.647824
1.586322
1.587097
1.588362
1.590178
1.592622
1.595785
1.599258
1.603093
1.607358
1.612138
1.617542
1.623008
1.628616
1.634485
1.640802
1.585992
1.586715
1.587906
1.589622
1.59193
1.594916
1.598178
1.60176
1.605719
1.610124
1.615061
1.619978
1.624921
1.629959
1.635194
1.585721
1.586398
1.587523
1.589148
1.591336
1.594165
1.597238
1.600598
1.604291
1.608373
1.612915
1.61738
1.621792
1.626183
1.630611
1.585529
1.586166
1.587232
1.588775
1.590853
1.593537
1.596441
1.5996
1.603054
1.606852
1.611052
1.615134
1.619106
1.622983
1.626787
1.58543
1.586031
1.587043
1.58851
1.590485
1.593035
1.595782
1.598757
1.601996
1.605539
1.609435
1.613184
1.616787
1.620243
1.623557
1.585382
1.585952
1.586915
1.588311
1.590193
1.592617
1.595221
1.59803
1.601075
1.60439
1.608018
1.611481
1.614772
1.617883
1.620808
1.585338
1.585881
1.586799
1.588132
1.589927
1.592239
1.594714
1.597374
1.600246
1.603361
1.606755
1.609971
1.612999
1.615826
1.618439
1.585264
1.585783
1.586662
1.587939
1.589656
1.591866
1.594225
1.596753
1.599473
1.602412
1.605603
1.608607
1.611412
1.614002
1.61636
1.585144
1.585641
1.586486
1.587711
1.589361
1.59148
1.593736
1.596146
1.598732
1.601518
1.604531
1.607351
1.609966
1.612356
1.614503
1.594674
1.5968
1.599917
1.604251
1.610128
1.617999
1.627603
1.638449
1.593277
1.595134
1.597877
1.601692
1.606829
1.613652
1.621871
1.631934
1.643392
1.592001
1.593642
1.596091
1.599501
1.604079
1.61011
1.617251
1.625876
1.636492
1.648762
1.590834
1.592298
1.594506
1.597593
1.60173
1.607155
1.613473
1.620972
1.630063
1.641333
1.654638
1.589788
1.591103
1.593112
1.595931
1.599711
1.604648
1.610328
1.61696
1.624852
1.63446
1.646469
1.659858
1.588896
1.590084
1.591923
1.594514
1.59799
1.60252
1.607676
1.613619
1.620572
1.628871
1.639012
1.650735
1.664147
1.58818
1.58926
1.59095
1.593342
1.596552
1.600727
1.605437
1.610804
1.616999
1.624259
1.632941
1.642622
1.653894
1.666992
1.587603
1.588588
1.590148
1.592365
1.595342
1.599209
1.603533
1.608416
1.613986
1.620421
1.627971
1.636132
1.645257
1.65591
1.668332
1.587119
1.588023
1.58947
1.591535
1.594309
1.597906
1.601903
1.606376
1.61143
1.617199
1.623869
1.630889
1.638481
1.646972
1.656878
1.586698
1.587533
1.588882
1.590814
1.59341
1.596775
1.60049
1.604618
1.609243
1.61447
1.62044
1.62659
1.633051
1.640029
1.647824
1.586324
1.587098
1.588363
1.590178
1.59262
1.595783
1.599254
1.603089
1.607353
1.612133
1.617537
1.623004
1.628614
1.634487
1.640807
1.585988
1.58671
1.5879
1.589614
1.591921
1.594906
1.598166
1.601747
1.605706
1.61011
1.615048
1.619968
1.624916
1.629962
1.635209
1.585693
1.586369
1.587493
1.589117
1.591305
1.594133
1.597206
1.600567
1.604261
1.608345
1.612892
1.617363
1.621784
1.626189
1.630636
1.585452
1.586087
1.587152
1.588695
1.590774
1.593461
1.596369
1.599533
1.602994
1.6068
1.611011
1.615105
1.619093
1.62299
1.626821
1.585285
1.585885
1.586896
1.588365
1.590345
1.592902
1.595658
1.598644
1.601895
1.605452
1.609366
1.613135
1.61676
1.62024
1.623584
1.585206
1.585775
1.586737
1.588137
1.590024
1.592458
1.595073
1.597894
1.600952
1.604285
1.607932
1.611415
1.614727
1.617861
1.62081
1.585175
1.585716
1.586635
1.587971
1.589771
1.592091
1.594575
1.597246
1.60013
1.603259
1.60667
1.609902
1.612946
1.61579
1.618419
1.585144
1.585662
1.586541
1.58782
1.589541
1.591757
1.594123
1.596658
1.599386
1.602335
1.605537
1.608551
1.611366
1.613966
1.616334
1.585083
1.585579
1.586424
1.587651
1.589302
1.591425
1.593683
1.596097
1.598687
1.601477
1.604495
1.60732
1.609939
1.612333
1.614484
1.584975
1.58545
1.586264
1.587446
1.589034
1.591075
1.593238
1.595544
1.598011
1.60066
1.603517
1.606178
1.608627
1.610848
1.612817
1.593363
1.595219
1.597958
1.601763
1.606884
1.61368
1.621858
1.631848
1.643151
1.59216
1.593799
1.59624
1.599636
1.604189
1.610178
1.61726
1.625796
1.636258
1.648194
1.591044
1.592505
1.594706
1.597776
1.601886
1.607265
1.61352
1.62093
1.629884
1.640918
1.653702
1.590008
1.591322
1.593324
1.596128
1.599881
1.604777
1.610401
1.616953
1.624733
1.634168
1.645881
1.658618
1.589073
1.59026
1.592095
1.594676
1.598133
1.602633
1.60775
1.613637
1.620513
1.628699
1.63867
1.650117
1.662896
1.588274
1.589354
1.591042
1.593431
1.596633
1.600795
1.605486
1.610827
1.616985
1.624192
1.632797
1.642373
1.653488
1.666224
1.587637