/*--------------------------------*- C++ -*----------------------------------*\
| =========                 |                                                 |
| \\      /  F ield         | OpenFOAM: The Open Source CFD Toolbox           |
|  \\    /   O peration     | Version:  2306                                  |
|   \\  /    A nd           | Website:  www.openfoam.com                      |
|    \\/     M anipulation  |                                                 |
\*---------------------------------------------------------------------------*/
FoamFile
{
    version     2.0;
    format      ascii;
    arch        "LSB;label=32;scalar=64";
    class       volScalarField;
    location    "0.6/phiI";
    object      T;
}
// * * * * * * * * * * * * * * * * * * * * * * * * * * * * * * * * * * * * * //

dimensions      [0 0 0 1 0 0 0];

internalField   nonuniform List<scalar> 
12000
(
1221.796
1221.63
1223.834
1221.871
1221.242
1223.825
1221.705
1225.675
1223.898
1221.931
1220.511
1223.802
1221.318
1225.707
1223.889
1221.765
1227.367
1225.729
1223.949
1221.976
1219.256
1223.757
1220.591
1225.78
1223.866
1221.379
1227.409
1225.762
1223.939
1221.81
1228.977
1227.413
1225.771
1223.985
1222.004
1217.358
1223.676
1219.347
1225.91
1223.82
1220.656
1227.506
1225.834
1223.916
1221.425
1229.021
1227.455
1225.803
1223.975
1221.838
1230.531
1229.016
1227.447
1225.799
1224.006
1222.014
1215.175
1223.528
1217.475
1226.123
1223.736
1219.421
1227.68
1225.963
1223.869
1220.704
1229.12
1227.551
1225.874
1223.951
1221.454
1230.574
1229.06
1227.489
1225.831
1223.996
1221.848
1232.037
1230.565
1229.044
1227.468
1225.813
1224.01
1222.023
1213.177
1223.242
1215.326
1226.412
1223.582
1217.575
1227.967
1226.17
1223.781
1219.48
1229.3
1227.724
1226.001
1223.902
1220.736
1230.67
1229.159
1227.584
1225.902
1223.971
1221.464
1232.078
1230.607
1229.088
1227.51
1225.845
1224
1221.857
1233.496
1232.066
1230.588
1229.06
1227.477
1225.813
1224.014
1222.031
1211.695
1222.886
1213.359
1226.637
1223.297
1215.459
1228.368
1226.45
1223.622
1217.658
1229.596
1228.006
1226.204
1223.811
1219.521
1230.844
1229.338
1227.756
1226.026
1223.92
1220.749
1232.169
1230.703
1229.186
1227.605
1225.915
1223.974
1221.473
1233.534
1232.107
1230.63
1229.104
1227.519
1225.844
1224.004
1221.866
1234.907
1233.521
1232.085
1230.6
1229.064
1227.473
1225.813
1224.018
1222.039
1210.914
1222.572
1211.899
1226.764
1222.945
1213.521
1228.732
1226.668
1223.336
1215.573
1230.012
1228.397
1226.474
1223.646
1217.722
1231.13
1229.629
1228.033
1226.224
1223.825
1219.542
1232.334
1230.876
1229.363
1227.774
1226.037
1223.922
1220.76
1233.621
1232.198
1230.725
1229.201
1227.613
1225.913
1223.977
1221.483
1234.943
1233.559
1232.125
1230.642
1229.107
1227.514
1225.844
1224.007
1221.874
1236.268
1234.929
1233.537
1232.093
1230.6
1229.057
1227.469
1225.812
1224.021
1222.048
1210.914
1222.39
1211.129
1226.819
1222.635
1212.083
1229
1226.792
1222.989
1213.664
1230.404
1228.754
1226.685
1223.36
1215.667
1231.531
1230.036
1228.413
1226.483
1223.655
1217.761
1232.605
1231.158
1229.65
1228.046
1226.229
1223.823
1219.56
1233.777
1232.362
1230.897
1229.377
1227.779
1226.033
1223.923
1220.772
1235.025
1233.646
1232.216
1230.736
1229.205
1227.607
1225.912
1223.98
1221.492
1236.303
1234.965
1233.575
1232.133
1230.642
1229.1
1227.51
1225.843
1224.01
1221.883
1237.58
1236.288
1234.941
1233.542
1232.091
1230.59
1229.05
1227.465
1225.812
1224.025
1222.056
1211.695
1222.39
1211.129
1226.836
1222.457
1211.324
1229.166
1226.847
1222.683
1212.247
1230.704
1229.017
1226.807
1223.016
1213.787
1231.914
1230.42
1228.762
1226.688
1223.368
1215.732
1232.985
1231.551
1230.048
1228.417
1226.479
1223.647
1217.795
1234.032
1232.629
1231.175
1229.659
1228.046
1226.22
1223.821
1219.578
1235.173
1233.801
1232.379
1230.906
1229.378
1227.772
1226.03
1223.924
1220.784
1236.381
1235.047
1233.661
1232.224
1230.736
1229.196
1227.602
1225.91
1223.982
1221.502
1237.613
1236.322
1234.978
1233.58
1232.131
1230.631
1229.093
1227.506
1225.842
1224.013
1221.891
1238.842
1237.597
1236.298
1234.945
1233.537
1232.079
1230.581
1229.043
1227.46
1225.811
1224.028
1222.07
1213.177
1222.572
1211.899
1226.836
1222.457
1211.324
1229.245
1226.864
1222.508
1211.499
1230.899
1229.181
1226.861
1222.716
1212.39
1232.213
1230.716
1229.021
1226.807
1223.027
1213.876
1233.349
1231.928
1230.425
1228.758
1226.677
1223.36
1215.788
1234.391
1233.002
1231.56
1230.047
1228.407
1226.461
1223.641
1217.829
1235.415
1234.054
1232.643
1231.18
1229.656
1228.033
1226.212
1223.819
1219.598
1236.522
1235.194
1233.815
1232.385
1230.904
1229.367
1227.765
1226.026
1223.925
1220.797
1237.688
1236.4
1235.059
1233.666
1232.22
1230.725
1229.188
1227.597
1225.908
1223.984
1221.511
1238.874
1237.63
1236.333
1234.981
1233.575
1232.118
1230.622
1229.085
1227.501
1225.84
1224.016
1221.906
1240.053
1238.857
1237.606
1236.299
1234.938
1233.523
1232.068
1230.572
1229.036
1227.456
1225.809
1224.036
1222.089
1215.175
1222.886
1213.359
1226.819
1222.635
1212.083
1229.245
1226.864
1222.508
1211.499
1230.995
1229.259
1226.878
1222.542
1211.653
1232.41
1230.909
1229.184
1226.86
1222.731
1212.496
1233.636
1232.222
1230.716
1229.013
1226.793
1223.022
1213.952
1234.736
1233.361
1231.93
1230.417
1228.74
1226.653
1223.352
1215.843
1235.754
1234.405
1233.008
1231.557
1230.035
1228.385
1226.446
1223.634
1217.863
1236.752
1235.434
1234.065
1232.645
1231.174
1229.641
1228.022
1226.204
1223.817
1219.617
1237.823
1236.541
1235.206
1233.819
1232.38
1230.891
1229.358
1227.758
1226.022
1223.925
1220.809
1238.946
1237.705
1236.411
1235.062
1233.66
1232.207
1230.715
1229.18
1227.591
1225.905
1223.986
1221.527
1240.084
1238.889
1237.639
1236.334
1234.974
1233.561
1232.107
1230.613
1229.078
1227.496
1225.838
1224.024
1221.926
1241.215
1240.067
1238.864
1237.606
1236.291
1234.923
1233.511
1232.057
1230.562
1229.029
1227.451
1225.812
1224.049
1222.114
1217.358
1223.242
1215.326
1226.764
1222.945
1213.521
1229.166
1226.847
1222.683
1212.247
1230.995
1229.259
1226.878
1222.542
1211.653
1232.508
1231.004
1229.261
1226.878
1222.561
1211.768
1233.827
1232.418
1230.907
1229.173
1226.845
1222.729
1212.587
1235.008
1233.643
1232.22
1230.704
1228.991
1226.767
1223.017
1214.026
1236.081
1234.746
1233.361
1231.921
1230.397
1228.713
1226.633
1223.345
1215.896
1237.073
1235.767
1234.41
1233.004
1231.543
1230.012
1228.367
1226.43
1223.628
1217.896
1238.043
1236.769
1235.443
1234.065
1232.637
1231.157
1229.627
1228.011
1226.196
1223.815
1219.637
1239.075
1237.84
1236.55
1235.207
1233.812
1232.366
1230.88
1229.348
1227.75
1226.017
1223.926
1220.829
1240.154
1238.961
1237.714
1236.411
1235.055
1233.645
1232.196
1230.705
1229.172
1227.585
1225.902
1223.993
1221.549
1241.245
1240.098
1238.896
1237.639
1236.326
1234.959
1233.549
1232.096
1230.603
1229.07
1227.49
1225.841
1224.036
1221.951
1242.328
1241.228
1240.073
1238.863
1237.596
1236.275
1234.91
1233.499
1232.046
1230.553
1229.02
1227.45
1225.82
1224.067
1222.144
1219.256
1223.528
1217.475
1226.637
1223.297
1215.459
1229
1226.792
1222.989
1213.664
1230.899
1229.181
1226.861
1222.716
1212.39
1232.508
1231.004
1229.261
1226.878
1222.561
1211.768
1233.921
1232.514
1231.001
1229.25
1226.863
1222.561
1211.867
1235.191
1233.833
1232.414
1230.893
1229.149
1226.819
1222.727
1212.676
1236.34
1235.015
1233.641
1232.208
1230.68
1228.959
1226.744
1223.011
1214.099
1237.385
1236.089
1234.745
1233.351
1231.9
1230.368
1228.688
1226.612
1223.337
1215.949
1238.349
1237.085
1235.77
1234.404
1232.988
1231.519
1229.992
1228.348
1226.415
1223.621
1217.93
1239.286
1238.057
1236.776
1235.441
1234.055
1232.619
1231.143
1229.614
1227.999
1226.187
1223.812
1219.664
1240.279
1239.09
1237.847
1236.55
1235.199
1233.796
1232.353
1230.868
1229.338
1227.742
1226.012
1223.932
1220.854
1241.312
1240.168
1238.968
1237.713
1236.403
1235.039
1233.633
1232.184
1230.694
1229.163
1227.579
1225.904
1224.006
1221.576
1242.357
1241.258
1240.104
1238.895
1237.629
1236.31
1234.945
1233.536
1232.085
1230.593
1229.062
1227.489
1225.849
1224.054
1221.982
1243.392
1242.34
1241.233
1240.071
1238.853
1237.58
1236.262
1234.896
1233.487
1232.035
1230.542
1229.016
1227.454
1225.833
1224.09
1220.511
1223.676
1219.347
1226.412
1223.582
1217.575
1228.732
1226.668
1223.336
1215.573
1230.704
1229.017
1226.807
1223.016
1213.787
1232.41
1230.909
1229.184
1226.86
1222.731
1212.496
1233.921
1232.514
1231.001
1229.25
1226.863
1222.561
1211.867
1235.281
1233.926
1232.51
1230.986
1229.225
1226.836
1222.561
1211.963
1236.514
1235.196
1233.828
1232.399
1230.867
1229.116
1226.795
1222.724
1212.763
1237.632
1236.346
1235.012
1233.627
1232.183
1230.647
1228.931
1226.721
1223.005
1214.171
1238.647
1237.392
1236.088
1234.735
1233.33
1231.871
1230.343
1228.664
1226.592
1223.329
1216.002
1239.579
1238.359
1237.087
1235.763
1234.388
1232.964
1231.499
1229.972
1228.329
1226.399
1223.614
1217.969
1240.481
1239.299
1238.063
1236.773
1235.43
1234.036
1232.603
1231.128
1229.6
1227.987
1226.177
1223.815
1219.696
1241.433
1240.292
1239.096
1237.846
1236.54
1235.182
1233.782
1232.34
1230.856
1229.327
1227.733
1226.012
1223.942
1220.885
1242.422
1241.325
1240.173
1238.966
1237.703
1236.386
1235.025
1233.62
1232.172
1230.684
1229.154
1227.576
1225.911
1224.023
1221.609
1243.42
1242.369
1241.263
1240.102
1238.885
1237.613
1236.295
1234.932
1233.524
1232.073
1230.582
1229.057
1227.492
1225.861
1224.077
1244.407
1243.403
1242.344
1241.23
1240.06
1238.836
1237.566
1236.248
1234.883
1233.474
1232.022
1230.535
1229.016
1227.462
1225.85
1221.242
1223.757
1220.591
1226.123
1223.736
1219.421
1228.368
1226.45
1223.622
1217.658
1230.404
1228.754
1226.685
1223.36
1215.667
1232.213
1230.716
1229.021
1226.807
1223.027
1213.876
1233.827
1232.418
1230.907
1229.173
1226.845
1222.729
1212.587
1235.281
1233.926
1232.51
1230.986
1229.225
1226.836
1222.561
1211.963
1236.601
1235.285
1233.921
1232.494
1230.959
1229.191
1226.813
1222.56
1212.058
1237.799
1236.518
1235.191
1233.813
1232.372
1230.832
1229.087
1226.772
1222.722
1212.849
1238.883
1237.637
1236.342
1234.998
1233.603
1232.15
1230.619
1228.904
1226.698
1222.999
1214.242
1239.865
1238.653
1237.39
1236.077
1234.713
1233.301
1231.845
1230.317
1228.639
1226.571
1223.321
1216.059
1240.763
1239.588
1238.36
1237.08
1235.746
1234.364
1232.943
1231.478
1229.952
1228.31
1226.382
1223.612
1218.015
1241.629
1240.493
1239.303
1238.059
1236.761
1235.411
1234.02
1232.587
1231.112
1229.586
1227.974
1226.173
1223.823
1219.735
1242.539
1241.445
1240.297
1239.094
1237.835
1236.523
1235.167
1233.768
1232.326
1230.844
1229.316
1227.729
1226.016
1223.958
1220.922
1243.483
1242.434
1241.33
1240.171
1238.956
1237.686
1236.372
1235.011
1233.606
1232.16
1230.672
1229.148
1227.579
1225.922
1224.045
1244.435
1243.431
1242.373
1241.26
1240.091
1238.868
1237.598
1236.281
1234.918
1233.511
1232.061
1230.575
1229.057
1227.5
1225.878
1245.375
1244.417
1243.406
1242.34
1241.219
1240.043
1238.821
1237.551
1236.233
1234.869
1233.46
1232.013
1230.533
1229.021
1227.474
1221.63
1223.802
1221.318
1225.91
1223.82
1220.656
1227.967
1226.17
1223.781
1219.48
1230.012
1228.397
1226.474
1223.646
1217.722
1231.914
1230.42
1228.762
1226.688
1223.368
1215.732
1233.636
1232.222
1230.716
1229.013
1226.793
1223.022
1213.952
1235.191
1233.833
1232.414
1230.893
1229.149
1226.819
1222.727
1212.676
1236.601
1235.285
1233.921
1232.494
1230.959
1229.191
1226.813
1222.56
1212.058
1237.881
1236.604
1235.28
1233.905
1232.466
1230.923
1229.161
1226.789
1222.559
1212.151
1239.043
1237.802
1236.513
1235.175
1233.786
1232.338
1230.802
1229.058
1226.748
1222.718
1212.933
1240.093
1238.888
1237.633
1236.328
1234.974
1233.571
1232.122
1230.59
1228.876
1226.675
1222.993
1214.317
1241.038
1239.87
1238.651
1237.379
1236.056
1234.685
1233.276
1231.82
1230.292
1228.615
1226.549
1223.318
1216.122
1241.901
1240.772
1239.589
1238.352
1237.063
1235.722
1234.343
1232.922
1231.457
1229.931
1228.29
1226.37
1223.616
1218.065
1242.729
1241.64
1240.497
1239.299
1238.047
1236.741
1235.394
1234.003
1232.571
1231.097
1229.571
1227.965
1226.172
1223.836
1219.78
1243.597
1242.551
1241.45
1240.294
1239.083
1237.817
1236.508
1235.152
1233.753
1232.313
1230.831
1229.309
1227.729
1226.025
1223.979
1244.497
1243.494
1242.438
1241.327
1240.16
1238.938
1237.671
1236.357
1234.997
1233.593
1232.146
1230.664
1229.147
1227.585
1225.938
1245.402
1244.445
1243.434
1242.369
1241.249
1240.074
1238.853
1237.584
1236.267
1234.904
1233.497
1232.051
1230.572
1229.061
1227.512
1246.296
1245.385
1244.42
1243.402
1242.329
1241.202
1240.028
1238.806
1237.536
1236.219
1234.855
1233.45
1232.008
1230.534
1229.029
1221.796
1223.825
1221.705
1225.78
1223.866
1221.379
1227.68
1225.963
1223.869
1220.704
1229.596
1228.006
1226.204
1223.811
1219.521
1231.531
1230.036
1228.413
1226.483
1223.655
1217.761
1233.349
1231.928
1230.425
1228.758
1226.677
1223.36
1215.788
1235.008
1233.643
1232.22
1230.704
1228.991
1226.767
1223.017
1214.026
1236.514
1235.196
1233.828
1232.399
1230.867
1229.116
1226.795
1222.724
1212.763
1237.881
1236.604
1235.28
1233.905
1232.466
1230.923
1229.161
1226.789
1222.559
1212.151
1239.123
1237.885
1236.598
1235.264
1233.878
1232.431
1230.892
1229.132
1226.765
1222.558
1212.242
1240.247
1239.047
1237.797
1236.498
1235.15
1233.753
1232.308
1230.772
1229.028
1226.724
1222.714
1213.022
1241.258
1240.097
1238.883
1237.619
1236.305
1234.943
1233.543
1232.094
1230.562
1228.848
1226.651
1222.992
1214.397
1242.167
1241.044
1239.868
1238.639
1237.358
1236.028
1234.66
1233.251
1231.795
1230.267
1228.589
1226.532
1223.32
1216.19
1242.993
1241.909
1240.771
1239.58
1238.335
1237.039
1235.701
1234.322
1232.901
1231.436
1229.91
1228.274
1226.363
1223.625
1218.122
1243.782
1242.739
1241.643
1240.492
1239.286
1238.027
1236.724
1235.377
1233.986
1232.555
1231.08
1229.559
1227.96
1226.177
1223.855
1244.608
1243.608
1242.554
1241.446
1240.282
1239.064
1237.802
1236.492
1235.137
1233.739
1232.298
1230.821
1229.305
1227.733
1226.038
1245.462
1244.507
1243.497
1242.434
1241.315
1240.142
1238.923
1237.656
1236.342
1234.983
1233.578
1232.136
1230.66
1229.15
1227.596
1246.322
1245.411
1244.448
1243.43
1242.358
1241.231
1240.059
1238.838
1237.569
1236.253
1234.889
1233.486
1232.046
1230.573
1229.069
1247.171
1246.305
1245.387
1244.416
1243.39
1242.312
1241.187
1240.013
1238.791
1237.522
1236.204
1234.843
1233.443
1232.007
1230.539
1223.834
1221.871
1225.707
1223.889
1221.765
1227.506
1225.834
1223.916
1221.425
1229.3
1227.724
1226.001
1223.902
1220.736
1231.13
1229.629
1228.033
1226.224
1223.825
1219.542
1232.985
1231.551
1230.048
1228.417
1226.479
1223.647
1217.795
1234.736
1233.361
1231.93
1230.417
1228.74
1226.653
1223.352
1215.843
1236.34
1235.015
1233.641
1232.208
1230.68
1228.959
1226.744
1223.011
1214.099
1237.799
1236.518
1235.191
1233.813
1232.372
1230.832
1229.087
1226.772
1222.722
1212.849
1239.123
1237.885
1236.598
1235.264
1233.878
1232.431
1230.892
1229.132
1226.765
1222.558
1212.242
1240.323
1239.126
1237.879
1236.583
1235.238
1233.844
1232.4
1230.861
1229.102
1226.741
1222.556
1212.338
1241.407
1240.249
1239.041
1237.782
1236.473
1235.117
1233.724
1232.278
1230.741
1228.999
1226.699
1222.716
1213.115
1242.38
1241.262
1240.092
1238.87
1237.596
1236.274
1234.916
1233.516
1232.065
1230.533
1228.819
1226.631
1222.995
1214.481
1243.25
1242.172
1241.041
1239.856
1238.619
1237.331
1236.004
1234.636
1233.226
1231.769
1230.24
1228.567
1226.52
1223.328
1216.263
1244.037
1242.999
1241.908
1240.763
1239.563
1238.312
1237.018
1235.68
1234.301
1232.88
1231.414
1229.892
1228.263
1226.361
1223.639
1244.787
1243.791
1242.741
1241.637
1240.478
1239.266
1238.009
1236.706
1235.359
1233.969
1232.537
1231.066
1229.552
1227.96
1226.186
1245.571
1244.617
1243.611
1242.55
1241.434
1240.264
1239.049
1237.786
1236.476
1235.122
1233.723
1232.286
1230.815
1229.306
1227.742
1246.381
1245.472
1244.509
1243.493
1242.422
1241.297
1240.127
1238.908
1237.641
1236.327
1234.967
1233.567
1232.13
1230.66
1229.157
1247.196
1246.331
1245.414
1244.443
1243.418
1242.34
1241.216
1240.043
1238.823
1237.554
1236.237
1234.877
1233.479
1232.044
1230.578
1248
1247.179
1246.307
1245.382
1244.404
1243.373
1242.296
1241.171
1239.998
1238.776
1237.506
1236.191
1234.834
1233.44
1232.01
1225.675
1223.898
1221.931
1227.409
1225.762
1223.939
1221.81
1229.12
1227.551
1225.874
1223.951
1221.454
1230.844
1229.338
1227.756
1226.026
1223.92
1220.749
1232.605
1231.158
1229.65
1228.046
1226.229
1223.823
1219.56
1234.391
1233.002
1231.56
1230.047
1228.407
1226.461
1223.641
1217.829
1236.081
1234.746
1233.361
1231.921
1230.397
1228.713
1226.633
1223.345
1215.896
1237.632
1236.346
1235.012
1233.627
1232.183
1230.647
1228.931
1226.721
1223.005
1214.171
1239.043
1237.802
1236.513
1235.175
1233.786
1232.338
1230.802
1229.058
1226.748
1222.718
1212.933
1240.323
1239.126
1237.879
1236.583
1235.238
1233.844
1232.4
1230.861
1229.102
1226.741
1222.556
1212.338
1241.482
1240.326
1239.12
1237.863
1236.557
1235.205
1233.814
1232.37
1230.831
1229.072
1226.717
1222.559
1212.438
1242.524
1241.41
1240.244
1239.027
1237.758
1236.442
1235.089
1233.695
1232.248
1230.711
1228.968
1226.679
1222.722
1213.212
1243.457
1242.383
1241.257
1240.079
1238.847
1237.567
1236.248
1234.889
1233.488
1232.037
1230.503
1228.794
1226.616
1223.004
1214.571
1244.288
1243.254
1242.169
1241.029
1239.836
1238.592
1237.307
1235.98
1234.611
1233.201
1231.742
1230.216
1228.55
1226.512
1223.34
1245.036
1244.044
1242.998
1241.899
1240.746
1239.54
1238.291
1236.997
1235.659
1234.28
1232.857
1231.395
1229.878
1228.256
1226.364
1245.746
1244.796
1243.792
1242.735
1241.623
1240.458
1239.248
1237.991
1236.689
1235.341
1233.95
1232.522
1231.057
1229.548
1227.965
1246.487
1245.58
1244.62
1243.606
1242.537
1241.415
1240.248
1239.032
1237.77
1236.46
1235.105
1233.709
1232.278
1230.813
1229.311
1247.254
1246.39
1245.474
1244.505
1243.481
1242.404
1241.282
1240.111
1238.892
1237.626
1236.311
1234.954
1233.559
1232.128
1230.664
1248.025
1247.205
1246.333
1245.409
1244.431
1243.401
1242.325
1241.201
1240.028
1238.807
1237.537
1236.223
1234.868
1233.475
1232.047
1248.783
1248.007
1247.181
1246.302
1245.371
1244.387
1243.358
1242.281
1241.156
1239.983
1238.76
1237.492
1236.181
1234.829
1233.44
1227.367
1225.729
1223.949
1221.976
1229.021
1227.455
1225.803
1223.975
1221.838
1230.67
1229.159
1227.584
1225.902
1223.971
1221.464
1232.334
1230.876
1229.363
1227.774
1226.037
1223.922
1220.76
1234.032
1232.629
1231.175
1229.659
1228.046
1226.22
1223.821
1219.578
1235.754
1234.405
1233.008
1231.557
1230.035
1228.385
1226.446
1223.634
1217.863
1237.385
1236.089
1234.745
1233.351
1231.9
1230.368
1228.688
1226.612
1223.337
1215.949
1238.883
1237.637
1236.342
1234.998
1233.603
1232.15
1230.619
1228.904
1226.698
1222.999
1214.242
1240.247
1239.047
1237.797
1236.498
1235.15
1233.753
1232.308
1230.772
1229.028
1226.724
1222.714
1213.022
1241.482
1240.326
1239.12
1237.863
1236.557
1235.205
1233.814
1232.37
1230.831
1229.072
1226.717
1222.559
1212.438
1242.597
1241.484
1240.32
1239.105
1237.839
1236.525
1235.176
1233.785
1232.339
1230.8
1229.04
1226.696
1222.567
1212.542
1243.597
1242.527
1241.404
1240.23
1239.003
1237.727
1236.414
1235.061
1233.666
1232.218
1230.679
1228.941
1226.663
1222.733
1213.314
1244.489
1243.46
1242.378
1241.244
1240.057
1238.819
1237.542
1236.222
1234.862
1233.461
1232.007
1230.476
1228.774
1226.607
1223.018
1245.28
1244.292
1243.251
1242.157
1241.009
1239.81
1238.569
1237.284
1235.956
1234.587
1233.174
1231.718
1230.198
1228.538
1226.51
1245.989
1245.042
1244.042
1242.99
1241.882
1240.723
1239.52
1238.27
1236.976
1235.638
1234.257
1232.838
1231.38
1229.869
1228.254
1246.659
1245.754
1244.797
1243.786
1242.721
1241.604
1240.441
1239.231
1237.974
1236.671
1235.322
1233.934
1232.511
1231.052
1229.55
1247.358
1246.496
1245.582
1244.615
1243.593
1242.519
1241.399
1240.232
1239.016
1237.753
1236.443
1235.091
1233.7
1232.274
1230.815
1248.081
1247.263
1246.392
1245.469
1244.493
1243.464
1242.389
1241.266
1240.095
1238.877
1237.609
1236.297
1234.945
1233.554
1232.129
1248.808
1248.033
1247.206
1246.328
1245.397
1244.414
1243.386
1242.31
1241.185
1240.013
1238.791
1237.523
1236.214
1234.863
1233.475
1249.522
1248.791
1248.009
1247.176
1246.29
1245.354
1244.372
1243.343
1242.266
1241.141
1239.966
1238.745
1237.481
1236.175
1234.828
1228.977
1227.413
1225.771
1223.985
1222.004
1230.574
1229.06
1227.489
1225.831
1223.996
1221.848
1232.169
1230.703
1229.186
1227.605
1225.915
1223.974
1221.473
1233.777
1232.362
1230.897
1229.377
1227.779
1226.033
1223.923
1220.772
1235.415
1234.054
1232.643
1231.18
1229.656
1228.033
1226.212
1223.819
1219.598
1237.073
1235.767
1234.41
1233.004
1231.543
1230.012
1228.367
1226.43
1223.628
1217.896
1238.647
1237.392
1236.088
1234.735
1233.33
1231.871
1230.343
1228.664
1226.592
1223.329
1216.002
1240.093
1238.888
1237.633
1236.328
1234.974
1233.571
1232.122
1230.59
1228.876
1226.675
1222.993
1214.317
1241.407
1240.249
1239.041
1237.782
1236.473
1235.117
1233.724
1232.278
1230.741
1228.999
1226.699
1222.716
1213.115
1242.597
1241.484
1240.32
1239.105
1237.839
1236.525
1235.176
1233.785
1232.339
1230.8
1229.04
1226.696
1222.567
1212.542
1243.668
1242.599
1241.478
1240.305
1239.081
1237.808
1236.498
1235.147
1233.755
1232.309
1230.767
1229.013
1226.68
1222.58
1212.65
1244.626
1243.6
1242.521
1241.39
1240.207
1238.973
1237.701
1236.387
1235.033
1233.637
1232.187
1230.651
1228.919
1226.653
1222.75
1245.477
1244.492
1243.455
1242.366
1241.223
1240.029
1238.794
1237.516
1236.196
1234.835
1233.431
1231.98
1230.454
1228.758
1226.602
1246.227
1245.284
1244.288
1243.24
1242.138
1240.984
1239.788
1238.546
1237.26
1235.932
1234.56
1233.15
1231.699
1230.183
1228.53
1246.896
1245.994
1245.04
1244.034
1242.973
1241.86
1240.703
1239.499
1238.25
1236.955
1235.615
1234.236
1232.822
1231.369
1229.864
1247.526
1246.666
1245.755
1244.791
1243.772
1242.702
1241.586
1240.423
1239.213
1237.956
1236.651
1235.306
1233.922
1232.504
1231.05
1248.183
1247.366
1246.498
1245.577
1244.602
1243.575
1242.503
1241.383
1240.215
1239
1237.736
1236.428
1235.08
1233.694
1232.274
1248.864
1248.089
1247.264
1246.387
1245.457
1244.475
1243.448
1242.373
1241.251
1240.08
1238.859
1237.594
1236.287
1234.939
1233.554
1249.547
1248.815
1248.034
1247.201
1246.317
1245.38
1244.399
1243.371
1242.294
1241.17
1239.996
1238.776
1237.513
1236.207
1234.862
1250.217
1249.529
1248.792
1248.004
1247.164
1246.274
1245.339
1244.357
1243.328
1242.251
1241.124
1239.951
1238.734
1237.474
1236.172
1230.531
1229.016
1227.447
1225.799
1224.006
1222.014
1232.078
1230.607
1229.088
1227.51
1225.845
1224
1221.857
1233.621
1232.198
1230.725
1229.201
1227.613
1225.913
1223.977
1221.483
1235.173
1233.801
1232.379
1230.906
1229.378
1227.772
1226.03
1223.924
1220.784
1236.752
1235.434
1234.065
1232.645
1231.174
1229.641
1228.022
1226.204
1223.817
1219.617
1238.349
1237.085
1235.77
1234.404
1232.988
1231.519
1229.992
1228.348
1226.415
1223.621
1217.93
1239.865
1238.653
1237.39
1236.077
1234.713
1233.301
1231.845
1230.317
1228.639
1226.571
1223.321
1216.059
1241.258
1240.097
1238.883
1237.619
1236.305
1234.943
1233.543
1232.094
1230.562
1228.848
1226.651
1222.992
1214.397
1242.524
1241.41
1240.244
1239.027
1237.758
1236.442
1235.089
1233.695
1232.248
1230.711
1228.968
1226.679
1222.722
1213.212
1243.668
1242.599
1241.478
1240.305
1239.081
1237.808
1236.498
1235.147
1233.755
1232.309
1230.767
1229.013
1226.68
1222.58
1212.65
1244.695
1243.67
1242.593
1241.464
1240.282
1239.051
1237.781
1236.47
1235.119
1233.726
1232.277
1230.738
1228.99
1226.67
1222.598
1245.61
1244.628
1243.594
1242.508
1241.368
1240.178
1238.948
1237.675
1236.36
1235.005
1233.606
1232.158
1230.627
1228.902
1226.647
1246.419
1245.479
1244.487
1243.443
1242.345
1241.196
1240.005
1238.77
1237.491
1236.17
1234.807
1233.404
1231.958
1230.436
1228.747
1247.129
1246.231
1245.28
1244.277
1243.221
1242.113
1240.962
1239.765
1238.523
1237.237
1235.906
1234.536
1233.13
1231.683
1230.173
1247.758
1246.901
1245.993
1245.031
1244.017
1242.95
1241.84
1240.683
1239.479
1238.229
1236.932
1235.595
1234.22
1232.81
1231.362
1248.348
1247.533
1246.667
1245.749
1244.777
1243.753
1242.685
1241.569
1240.405
1239.195
1237.936
1236.634
1235.292
1233.914
1232.5
1248.964
1248.191
1247.368
1246.492
1245.564
1244.584
1243.559
1242.487
1241.367
1240.199
1238.982
1237.72
1236.416
1235.073
1233.692
1249.601
1248.871
1248.091
1247.259
1246.375
1245.44
1244.46
1243.433
1242.358
1241.235
1240.062
1238.844
1237.583
1236.28
1234.937
1250.241
1249.554
1248.817
1248.029
1247.19
1246.3
1245.365
1244.384
1243.355
1242.279
1241.153
1239.981
1238.765
1237.505
1236.204
1250.868
1250.224
1249.531
1248.787
1247.992
1247.148
1246.259
1245.324
1244.342
1243.313
1242.234
1241.109
1239.94
1238.726
1237.47
1232.037
1230.565
1229.044
1227.468
1225.813
1224.01
1222.023
1233.534
1232.107
1230.63
1229.104
1227.519
1225.844
1224.004
1221.866
1235.025
1233.646
1232.216
1230.736
1229.205
1227.607
1225.912
1223.98
1221.492
1236.522
1235.194
1233.815
1232.385
1230.904
1229.367
1227.765
1226.026
1223.925
1220.797
1238.043
1236.769
1235.443
1234.065
1232.637
1231.157
1229.627
1228.011
1226.196
1223.815
1219.637
1239.579
1238.359
1237.087
1235.763
1234.388
1232.964
1231.499
1229.972
1228.329
1226.399
1223.614
1217.969
1241.038
1239.87
1238.651
1237.379
1236.056
1234.685
1233.276
1231.82
1230.292
1228.615
1226.549
1223.318
1216.122
1242.38
1241.262
1240.092
1238.87
1237.596
1236.274
1234.916
1233.516
1232.065
1230.533
1228.819
1226.631
1222.995
1214.481
1243.597
1242.527
1241.404
1240.23
1239.003
1237.727
1236.414
1235.061
1233.666
1232.218
1230.679
1228.941
1226.663
1222.733
1213.314
1244.695
1243.67
1242.593
1241.464
1240.282
1239.051
1237.781
1236.47
1235.119
1233.726
1232.277
1230.738
1228.99
1226.67
1222.598
1245.677
1244.696
1243.664
1242.579
1241.441
1240.253
1239.025
1237.755
1236.443
1235.09
1233.694
1232.247
1230.713
1228.972
1226.664
1246.55
1245.612
1244.623
1243.581
1242.486
1241.34
1240.154
1238.923
1237.649
1236.333
1234.975
1233.578
1232.134
1230.607
1228.889
1247.318
1246.422
1245.474
1244.475
1243.422
1242.319
1241.173
1239.981
1238.745
1237.466
1236.142
1234.781
1233.382
1231.939
1230.423
1247.987
1247.132
1246.227
1245.269
1244.259
1243.197
1242.091
1240.94
1239.743
1238.5
1237.211
1235.882
1234.516
1233.115
1231.672
1248.576
1247.763
1246.899
1245.984
1245.015
1243.995
1242.931
1241.82
1240.663
1239.458
1238.206
1236.912
1235.578
1234.208
1232.802
1249.126
1248.355
1247.533
1246.66
1245.735
1244.758
1243.736
1242.667
1241.551
1240.387
1239.175
1237.918
1236.62
1235.283
1233.909
1249.7
1248.971
1248.192
1247.362
1246.48
1245.546
1244.568
1243.543
1242.471
1241.35
1240.18
1238.965
1237.707
1236.408
1235.069
1250.295
1249.609
1248.872
1248.086
1247.247
1246.358
1245.425
1244.445
1243.417
1242.342
1241.217
1240.047
1238.832
1237.575
1236.276
1250.892
1250.248
1249.555
1248.812
1248.017
1247.173
1246.285
1245.351
1244.369
1243.34
1242.262
1241.138
1239.969
1238.756
1237.501
1251.477
1250.875
1250.225
1249.525
1248.775
1247.976
1247.133
1246.245
1245.309
1244.327
1243.296
1242.219
1241.097
1239.931
1238.722
1233.496
1232.066
1230.588
1229.06
1227.477
1225.813
1224.014
1222.031
1234.943
1233.559
1232.125
1230.642
1229.107
1227.514
1225.844
1224.007
1221.874
1236.381
1235.047
1233.661
1232.224
1230.736
1229.196
1227.602
1225.91
1223.982
1221.502
1237.823
1236.541
1235.206
1233.819
1232.38
1230.891
1229.358
1227.758
1226.022
1223.925
1220.809
1239.286
1238.057
1236.776
1235.441
1234.055
1232.619
1231.143
1229.614
1227.999
1226.187
1223.812
1219.664
1240.763
1239.588
1238.36
1237.08
1235.746
1234.364
1232.943
1231.478
1229.952
1228.31
1226.382
1223.612
1218.015
1242.167
1241.044
1239.868
1238.639
1237.358
1236.028
1234.66
1233.251
1231.795
1230.267
1228.589
1226.532
1223.32
1216.19
1243.457
1242.383
1241.257
1240.079
1238.847
1237.567
1236.248
1234.889
1233.488
1232.037
1230.503
1228.794
1226.616
1223.004
1214.571
1244.626
1243.6
1242.521
1241.39
1240.207
1238.973
1237.701
1236.387
1235.033
1233.637
1232.187
1230.651
1228.919
1226.653
1222.75
1245.677
1244.696
1243.664
1242.579
1241.441
1240.253
1239.025
1237.755
1236.443
1235.09
1233.694
1232.247
1230.713
1228.972
1226.664
1246.616
1245.679
1244.691
1243.65
1242.557
1241.413
1240.228
1239
1237.728
1236.415
1235.06
1233.665
1232.222
1230.693
1228.959
1247.446
1246.552
1245.607
1244.61
1243.56
1242.459
1241.317
1240.129
1238.897
1237.623
1236.304
1234.948
1233.554
1232.114
1230.592
1248.172
1247.32
1246.417
1245.462
1244.455
1243.397
1242.296
1241.149
1239.957
1238.721
1237.439
1236.117
1234.758
1233.364
1231.925
1248.8
1247.99
1247.129
1246.216
1245.251
1244.235
1243.176
1242.07
1240.918
1239.72
1238.475
1237.188
1235.862
1234.5
1233.103
1249.35
1248.581
1247.761
1246.891
1245.968
1244.994
1243.976
1242.912
1241.801
1240.642
1239.436
1238.186
1236.895
1235.565
1234.199
1249.859
1249.132
1248.355
1247.527
1246.647
1245.716
1244.741
1243.719
1242.65
1241.533
1240.368
1239.157
1237.904
1236.61
1235.277
1250.392
1249.707
1248.972
1248.187
1247.35
1246.462
1245.531
1244.553
1243.527
1242.454
1241.332
1240.164
1238.952
1237.698
1236.403
1250.945
1250.302
1249.61
1248.867
1248.074
1247.23
1246.343
1245.41
1244.429
1243.402
1242.325
1241.202
1240.034
1238.824
1237.57
1251.5
1250.899
1250.249
1249.55
1248.8
1248.001
1247.159
1246.27
1245.336
1244.354
1243.323
1242.246
1241.125
1239.96
1238.751
1252.042
1251.483
1250.876
1250.22
1249.514
1248.759
1247.962
1247.119
1246.23
1245.294
1244.31
1243.281
1242.206
1241.088
1239.926
1234.907
1233.521
1232.085
1230.6
1229.064
1227.473
1225.813
1224.018
1222.039
1236.303
1234.965
1233.575
1232.133
1230.642
1229.1
1227.51
1225.843
1224.01
1221.883
1237.688
1236.4
1235.059
1233.666
1232.22
1230.725
1229.188
1227.597
1225.908
1223.984
1221.511
1239.075
1237.84
1236.55
1235.207
1233.812
1232.366
1230.88
1229.348
1227.75
1226.017
1223.926
1220.829
1240.481
1239.299
1238.063
1236.773
1235.43
1234.036
1232.603
1231.128
1229.6
1227.987
1226.177
1223.815
1219.696
1241.901
1240.772
1239.589
1238.352
1237.063
1235.722
1234.343
1232.922
1231.457
1229.931
1228.29
1226.37
1223.616
1218.065
1243.25
1242.172
1241.041
1239.856