/*--------------------------------*- C++ -*----------------------------------*\
| =========                 |                                                 |
| \\      /  F ield         | OpenFOAM: The Open Source CFD Toolbox           |
|  \\    /   O peration     | Version:  2306                                  |
|   \\  /    A nd           | Website:  www.openfoam.com                      |
|    \\/     M anipulation  |                                                 |
\*---------------------------------------------------------------------------*/
FoamFile
{
    version     2.0;
    format      ascii;
    arch        "LSB;label=32;scalar=64";
    class       volScalarField;
    location    "0.9/fuel";
    object      diffSp.H2;
}
// * * * * * * * * * * * * * * * * * * * * * * * * * * * * * * * * * * * * * //

dimensions      [0 2 -1 0 0 0 0];

internalField   nonuniform List<scalar> 
16000
(
9.481461e-05
9.480398e-05
9.503541e-05
9.48259e-05
9.477746e-05
9.503796e-05
9.481546e-05
9.523461e-05
9.504464e-05
9.484968e-05
9.472771e-05
9.504183e-05
9.478936e-05
9.524052e-05
9.504726e-05
9.483962e-05
9.54162e-05
9.524211e-05
9.506442e-05
9.487749e-05
9.463561e-05
9.504735e-05
9.474036e-05
9.525225e-05
9.505125e-05
9.481431e-05
9.542292e-05
9.524804e-05
9.506721e-05
9.486786e-05
9.558595e-05
9.542233e-05
9.525854e-05
9.508762e-05
9.493351e-05
9.450743e-05
9.504718e-05
9.464948e-05
9.527203e-05
9.505691e-05
9.476664e-05
9.543672e-05
9.525981e-05
9.507154e-05
9.484347e-05
9.559269e-05
9.542906e-05
9.526458e-05
9.509063e-05
9.492474e-05
9.574701e-05
9.559099e-05
9.54362e-05
9.527793e-05
9.513457e-05
0.0001424204
9.43408e-05
9.504746e-05
9.452307e-05
9.529632e-05
9.505684e-05
9.467772e-05
9.546037e-05
9.527958e-05
9.507769e-05
9.479732e-05
9.56067e-05
9.544286e-05
9.527654e-05
9.509537e-05
9.490213e-05
9.575349e-05
9.559773e-05
9.5443e-05
9.528409e-05
9.513804e-05
0.0001424075
9.590059e-05
9.575118e-05
9.560285e-05
9.545265e-05
9.531739e-05
0.0001427187
0.0001424301
9.418818e-05
9.502157e-05
9.435845e-05
9.53308e-05
9.505711e-05
9.455388e-05
9.549204e-05
9.530369e-05
9.507812e-05
9.471059e-05
9.563086e-05
9.546643e-05
9.529652e-05
9.51021e-05
9.48588e-05
9.576706e-05
9.561172e-05
9.54569e-05
9.529627e-05
9.514371e-05
0.0001423744
9.590672e-05
9.575765e-05
9.560963e-05
9.545953e-05
9.532386e-05
0.000142724
0.0001424175
9.604746e-05
9.590405e-05
9.576143e-05
9.561701e-05
9.548643e-05
0.0001429901
0.0001427268
0.0001424433
9.407271e-05
9.499053e-05
9.420763e-05
9.534672e-05
9.503143e-05
9.439179e-05
9.553681e-05
9.533779e-05
9.507885e-05
9.45895e-05
9.566419e-05
9.549785e-05
9.532074e-05
9.510317e-05
9.477596e-05
9.57905e-05
9.563579e-05
9.548057e-05
9.531654e-05
9.515179e-05
0.0001423106
9.59196e-05
9.577119e-05
9.562369e-05
9.547357e-05
9.533662e-05
0.0001427327
0.0001423847
9.605323e-05
9.591017e-05
9.576793e-05
9.562385e-05
9.549352e-05
0.0001429999
0.0001427321
0.0001424309
9.618798e-05
9.605033e-05
9.591298e-05
9.577375e-05
9.564638e-05
0.0001432415
0.0001429968
0.0001427377
0.0001424551
9.401173e-05
9.496181e-05
9.409345e-05
9.535467e-05
9.500078e-05
9.424308e-05
9.556729e-05
9.535346e-05
9.505367e-05
9.443006e-05
9.57112e-05
9.554214e-05
9.535478e-05
9.510449e-05
9.465953e-05
9.582333e-05
9.566885e-05
9.551194e-05
9.534097e-05
9.515446e-05
0.0001421883
9.59419e-05
9.579454e-05
9.564779e-05
9.549739e-05
9.535769e-05
0.0001427451
0.0001423219
9.606538e-05
9.592302e-05
9.578151e-05
9.5638e-05
9.550797e-05
0.0001430191
0.0001427408
0.0001423987
9.619341e-05
9.605609e-05
9.591913e-05
9.578029e-05
9.565338e-05
0.0001432522
0.0001430066
0.0001427431
0.0001424429
9.632246e-05
9.619037e-05
9.605818e-05
9.592381e-05
9.579961e-05
0.0001434797
0.0001432471
0.0001430059
0.0001427475
0.0001424686
9.401173e-05
9.494533e-05
9.403312e-05
9.535584e-05
9.497246e-05
9.413035e-05
9.558941e-05
9.536136e-05
9.502358e-05
9.428353e-05
9.57465e-05
9.557222e-05
9.537039e-05
9.507988e-05
9.450405e-05
9.586953e-05
9.571537e-05
9.555599e-05
9.537503e-05
9.515744e-05
0.0001420161
9.597338e-05
9.58271e-05
9.568075e-05
9.552878e-05
9.538298e-05
0.0001427493
0.0001422008
9.608644e-05
9.594522e-05
9.580486e-05
9.566217e-05
9.553232e-05
0.0001430507
0.0001427532
0.0001423368
9.620487e-05
9.606822e-05
9.593201e-05
9.579393e-05
9.566783e-05
0.0001432738
0.0001430257
0.0001427519
0.0001424113
9.632758e-05
9.619579e-05
9.606396e-05
9.592998e-05
9.580628e-05
0.0001434902
0.0001432577
0.0001430156
0.0001427529
0.0001424567
9.645111e-05
9.632445e-05
9.619732e-05
9.606777e-05
9.594681e-05
0.0001437081
0.0001434843
0.0001432547
0.000143014
0.0001427587
0.0003469922
9.407271e-05
9.494533e-05
9.403312e-05
9.53554e-05
9.495622e-05
9.407076e-05
9.56019e-05
9.536258e-05
9.499574e-05
9.417229e-05
9.577365e-05
9.559414e-05
9.537835e-05
9.50504e-05
9.436048e-05
9.590575e-05
9.575025e-05
9.558582e-05
9.539065e-05
9.513409e-05
0.0001417856
9.601761e-05
9.587285e-05
9.572696e-05
9.557266e-05
9.54178e-05
0.0001427537
0.0001420303
9.611635e-05
9.597647e-05
9.58373e-05
9.569507e-05
9.556422e-05
0.0001430884
0.0001427572
0.0001422173
9.622474e-05
9.608918e-05
9.595419e-05
9.581732e-05
9.569237e-05
0.0001433102
0.000143057
0.0001427643
0.0001423504
9.633841e-05
9.620722e-05
9.60761e-05
9.59429e-05
9.582014e-05
0.0001435118
0.0001432792
0.0001430347
0.0001427618
0.0001424257
9.645595e-05
9.632956e-05
9.620275e-05
9.607357e-05
9.595308e-05
0.0001437181
0.0001434948
0.0001432653
0.0001430237
0.0001427641
0.0003469658
9.657412e-05
9.645277e-05
9.633064e-05
9.620587e-05
9.608839e-05
0.0001439278
0.000143712
0.0001434907
0.0001432614
0.0001430233
0.000347679
0.000347093
9.418818e-05
9.496181e-05
9.409345e-05
9.53554e-05
9.495622e-05
9.407076e-05
9.560764e-05
9.536219e-05
9.497977e-05
9.411344e-05
9.579041e-05
9.560655e-05
9.537968e-05
9.502306e-05
9.425116e-05
9.593422e-05
9.577715e-05
9.560761e-05
9.53987e-05
9.510561e-05
0.0001415727
9.60531e-05
9.590868e-05
9.576154e-05
9.560229e-05
9.543385e-05
0.000142719
0.0001418019
9.615829e-05
9.602028e-05
9.588273e-05
9.574104e-05
9.560845e-05
0.0001431401
0.0001427613
0.0001420487
9.625307e-05
9.611887e-05
9.59853e-05
9.584966e-05
9.572558e-05
0.0001433577
0.0001430943
0.0001427683
0.0001422324
9.635718e-05
9.6227e-05
9.609705e-05
9.59651e-05
9.58438e-05
0.0001435485
0.0001433154
0.0001430659
0.0001427743
0.000142366
9.646621e-05
9.634036e-05
9.621419e-05
9.608574e-05
9.596617e-05
0.0001437389
0.0001435163
0.0001432867
0.0001430427
0.0001427731
0.0003468963
9.657871e-05
9.645759e-05
9.633575e-05
9.621131e-05
9.609427e-05
0.0001439372
0.0001437219
0.0001435011
0.000143272
0.000143033
0.0003476925
0.0003470719
9.669165e-05
9.657549e-05
9.64583e-05
9.633831e-05
9.62245e-05
0.0001441392
0.0001439309
0.0001437173
0.0001434964
0.0001432692
0.0003483076
0.0003477565
0.0003472322
9.43408e-05
9.499053e-05
9.420763e-05
9.535584e-05
9.497246e-05
9.413035e-05
9.560764e-05
9.536219e-05
9.497977e-05
9.411344e-05
9.579853e-05
9.561227e-05
9.537937e-05
9.500737e-05
9.419324e-05
9.595232e-05
9.579379e-05
9.561997e-05
9.540015e-05
9.507897e-05
0.0001414105
9.608127e-05
9.593689e-05
9.578824e-05
9.562397e-05
9.544225e-05
0.0001426768
0.0001415911
9.619244e-05
9.605541e-05
9.591825e-05
9.577535e-05
9.563819e-05
0.0001431638
0.0001427266
0.0001418225
9.629275e-05
9.616044e-05
9.602883e-05
9.589485e-05
9.577172e-05
0.0001434234
0.0001431452
0.0001427722
0.0001420655
9.638405e-05
9.625513e-05
9.61266e-05
9.59961e-05
9.587634e-05
0.0001435979
0.0001433623
0.0001431027
0.0001427782
0.0001422495
9.648399e-05
9.635905e-05
9.623394e-05
9.610668e-05
9.598858e-05
0.0001437742
0.0001435527
0.0001433226
0.0001430738
0.0001427858
0.0003467613
9.658845e-05
9.646782e-05
9.634655e-05
9.622277e-05
9.610658e-05
0.0001439568
0.0001437425
0.0001435225
0.0001432933
0.000143052
0.0003477147
0.0003470148
9.669601e-05
9.658007e-05
9.646314e-05
9.634344e-05
9.623001e-05
0.000144148
0.0001439403
0.0001437272
0.0001435067
0.0001432797
0.0003483306
0.00034777
0.000347219
9.680384e-05
9.669278e-05
9.658047e-05
9.646523e-05
9.635525e-05
0.0001443426
0.0001441418
0.0001439355
0.0001437221
0.0001435029
0.0003488931
0.000348369
0.0003478622
0.0003473601
9.450743e-05
9.502157e-05
9.435845e-05
9.535467e-05
9.500078e-05
9.424308e-05
9.56019e-05
9.536258e-05
9.499574e-05
9.417229e-05
9.579853e-05
9.561227e-05
9.537937e-05
9.500737e-05
9.419324e-05
9.596125e-05
9.580186e-05
9.562569e-05
9.539992e-05
9.506365e-05
0.0001413246
9.609943e-05
9.595486e-05
9.580478e-05
9.56363e-05
9.544395e-05
0.0001426374
0.0001414306
9.621967e-05
9.608334e-05
9.594625e-05
9.580188e-05
9.565994e-05
0.0001431763
0.0001426847
0.0001416139
9.632539e-05
9.619427e-05
9.606366e-05
9.593008e-05
9.580599e-05
0.0001434675
0.0001431684
0.0001427375
0.0001418413
9.642163e-05
9.629449e-05
9.616791e-05
9.603939e-05
9.59216e-05
0.0001436665
0.0001434271
0.0001431531
0.0001427819
0.0001420845
9.650952e-05
9.638574e-05
9.626195e-05
9.613613e-05
9.601971e-05
0.0001438226
0.0001436015
0.0001433691
0.0001431102
0.0001427897
0.0003464931
9.660535e-05
9.648553e-05
9.636522e-05
9.624252e-05
9.612769e-05
0.0001439902
0.0001437776
0.0001435587
0.000143329
0.0001430829
0.0003477453
0.0003469022
9.670529e-05
9.658978e-05
9.647336e-05
9.635425e-05
9.624158e-05
0.0001441664
0.0001439597
0.0001437478
0.000143528
0.000143301
0.0003483756
0.0003477921
0.0003471798
9.680801e-05
9.669713e-05
9.658505e-05
9.647007e-05
9.636043e-05
0.0001443508
0.0001441506
0.0001439448
0.0001437319
0.0001435132
0.000348918
0.0003483905
0.0003478764
0.0003473561
9.691085e-05
9.680477e-05
9.669728e-05
9.658675e-05
9.64807e-05
0.000144538
0.0001443447
0.0001441457
0.0001439395
0.0001437276
0.0003494511
0.0003489409
0.0003484525
0.0003479553
0.0003474917
9.463561e-05
9.504746e-05
9.452307e-05
9.534672e-05
9.503143e-05
9.439179e-05
9.558941e-05
9.536136e-05
9.502358e-05
9.428353e-05
9.579041e-05
9.560655e-05
9.537968e-05
9.502306e-05
9.425116e-05
9.596125e-05
9.580186e-05
9.562569e-05
9.539992e-05
9.506365e-05
0.0001413246
9.610845e-05
9.596373e-05
9.581282e-05
9.564201e-05
9.544385e-05
0.0001426147
0.0001413455
9.623738e-05
9.610138e-05
9.596411e-05
9.581832e-05
9.567232e-05
0.0001431789
0.0001426458
0.0001414549
9.635151e-05
9.622129e-05
9.609139e-05
9.595789e-05
9.583247e-05
0.0001434998
0.0001431807
0.0001426961
0.0001416348
9.645279e-05
9.632684e-05
9.620146e-05
9.607395e-05
9.595673e-05
0.0001437173
0.0001434705
0.0001431757
0.0001427471
0.0001418624
9.65452e-05
9.642302e-05
9.630106e-05
9.617721e-05
9.606302e-05
0.0001438899
0.0001436693
0.0001434332
0.0001431599
0.0001427933
0.0003461061
9.662968e-05
9.65109e-05
9.639179e-05
9.627042e-05
9.615722e-05
0.0001440366
0.0001438255
0.000143607
0.0001433749
0.0001431189
0.000347753
0.0003466598
9.67214e-05
9.660661e-05
9.649104e-05
9.63729e-05
9.626145e-05
0.0001441979
0.000143993
0.0001437826
0.0001435639
0.0001433364
0.0003484481
0.0003478228
0.0003471
9.681687e-05
9.670638e-05
9.659476e-05
9.64803e-05
9.637133e-05
0.0001443681
0.0001441689
0.0001439642
0.0001437523
0.0001435344
0.000348968
0.000348432
0.0003479004
0.0003473385
9.691483e-05
9.680892e-05
9.670163e-05
9.659134e-05
9.648559e-05
0.0001445458
0.0001443529
0.0001441544
0.0001439487
0.0001437374
0.0003494754
0.0003489638
0.0003484727
0.0003479705
0.000347498
9.70128e-05
9.69116e-05
9.680885e-05
9.670299e-05
9.660096e-05
0.0001447256
0.0001445398
0.000144348
0.0001441491
0.0001439442
0.000349989
0.000349487
0.000349007
0.0003485241
0.0003480492
9.472771e-05
9.504718e-05
9.464948e-05
9.53308e-05
9.505711e-05
9.455388e-05
9.556729e-05
9.535346e-05
9.505367e-05
9.443006e-05
9.577365e-05
9.559414e-05
9.537835e-05
9.50504e-05
9.436048e-05
9.595232e-05
9.579379e-05
9.561997e-05
9.540015e-05
9.507897e-05
0.0001414105
9.610845e-05
9.596373e-05
9.581282e-05
9.564201e-05
9.544385e-05
0.0001426147
0.0001413455
9.62462e-05
9.611034e-05
9.597293e-05
9.582633e-05
9.567807e-05
0.0001431788
0.0001426234
0.0001413707
9.636856e-05
9.623888e-05
9.610932e-05
9.597564e-05
9.584889e-05
0.0001435182
0.0001431833
0.0001426575
0.0001414774
9.647778e-05
9.635277e-05
9.622831e-05
9.61015e-05
9.598445e-05
0.0001437566
0.0001435024
0.0001431879
0.000142706
0.0001416578
9.657499e-05
9.645394e-05
9.633318e-05
9.621052e-05
9.609746e-05
0.000143942
0.0001437194
0.0001434759
0.000143182
0.0001427585
0.0003455862
9.666365e-05
9.654632e-05
9.642886e-05
9.630934e-05
9.61983e-05
0.0001441009
0.0001438921
0.0001436741
0.0001434383
0.0001431681
0.0003477562
0.000346283
9.674465e-05
9.66308e-05
9.65163e-05
9.639937e-05
9.628942e-05
0.0001442419
0.0001440388
0.0001438301
0.0001436118
0.0001433819
0.00034853
0.0003478267
0.0003468946
9.683226e-05
9.672242e-05
9.661156e-05
9.649796e-05
9.639008e-05
0.0001443978
0.0001442001
0.0001439972
0.0001437869
0.00014357
0.0003490507
0.0003484985
0.0003479354
0.0003473
9.692332e-05
9.681776e-05
9.671088e-05
9.660105e-05
9.64959e-05
0.0001445621
0.0001443701
0.0001441726
0.000143968
0.0001437577
0.0003495251
0.0003490093
0.0003485113
0.0003479972
0.0003475051
9.701662e-05
9.691557e-05
9.6813e-05
9.670736e-05
9.660559e-05
0.0001447329
0.0001445475
0.0001443562
0.0001441577
0.0001439534
0.0003500121
0.0003495093
0.0003490279
0.0003485429
0.0003480659
9.710982e-05
9.70134e-05
9.691531e-05
9.681408e-05
9.67161e-05
0.0001449055
0.0001447271
0.0001445426
0.0001443508
0.000144153
0.0003505085
0.0003500147
0.0003495386
0.0003490623
0.0003485955
9.477746e-05
9.504735e-05
9.474036e-05
9.529632e-05
9.505684e-05
9.467772e-05
9.553681e-05
9.533779e-05
9.507885e-05
9.45895e-05
9.57465e-05
9.557222e-05
9.537039e-05
9.507988e-05
9.450405e-05
9.593422e-05
9.577715e-05
9.560761e-05
9.53987e-05
9.510561e-05
0.0001415727
9.609943e-05
9.595486e-05
9.580478e-05
9.56363e-05
9.544395e-05
0.0001426374
0.0001414306
9.62462e-05
9.611034e-05
9.597293e-05
9.582633e-05
9.567807e-05
0.0001431788
0.0001426234
0.0001413707
9.637707e-05
9.624765e-05
9.611823e-05
9.598442e-05
9.585688e-05
0.0001435268
0.0001431833
0.0001426355
0.000141394
9.649416e-05
9.636972e-05
9.624579e-05
9.611932e-05
9.600214e-05
0.0001437811
0.0001435207
0.0001431905
0.0001426679
0.000141502
9.659891e-05
9.647876e-05
9.635894e-05
9.62372e-05
9.612489e-05
0.0001439832
0.0001437583
0.0001435075
0.0001431939
0.0001427178
0.0003451097
9.669219e-05
9.657589e-05
9.645956e-05
9.634123e-05
9.623149e-05
0.0001441521
0.0001439436
0.0001437236
0.0001434804
0.0001431897
0.0003476708
0.0003457739
9.677708e-05
9.666453e-05
9.655153e-05
9.643627e-05
9.632832e-05
0.000144303
0.0001441026
0.000143896
0.0001436781
0.0001434447
0.0003486402
0.0003478214
0.0003465195
9.685455e-05
9.674554e-05
9.663564e-05
9.652313e-05
9.64166e-05
0.0001444394
0.0001442437
0.0001440426
0.0001438339
0.0001436174
0.0003491546
0.0003485695
0.0003479412
0.000347149
9.693807e-05
9.683309e-05
9.672689e-05
9.661783e-05
9.651364e-05
0.00014459
0.0001443996
0.0001442037
0.0001440007
0.000143792
0.0003496082
0.0003490843
0.0003485738
0.0003480394
0.0003475187
9.702476e-05
9.692403e-05
9.682183e-05
9.67166e-05
9.661537e-05
0.0001447483
0.0001445637
0.0001443733
0.0001441758
0.0001439725
0.0003500596
0.0003495543
0.0003490689
0.0003485786
0.0003480962
9.711349e-05
9.701721e-05
9.691929e-05
9.681824e-05
9.67205e-05
0.0001449124
0.0001447343
0.0001445503
0.000144359
0.0001441617
0.0003505302
0.0003500358
0.0003495587
0.0003490809
0.000348613
9.720204e-05
9.71103e-05
9.701679e-05
9.692011e-05
9.682621e-05
0.0001450778
0.0001449067
0.0001447295
0.000144545
0.0001443543
0.0003510106
0.0003505256
0.0003500541
0.0003495805
0.000349117
9.480398e-05
9.504183e-05
9.478936e-05
9.527203e-05
9.505691e-05
9.476664e-05
9.549204e-05
9.530369e-05
9.507812e-05
9.471059e-05
9.57112e-05
9.554214e-05
9.535478e-05
9.510449e-05
9.465953e-05
9.590575e-05
9.575025e-05
9.558582e-05
9.539065e-05
9.513409e-05
0.0001417856
9.608127e-05
9.593689e-05
9.578824e-05
9.562397e-05
9.544225e-05
0.0001426768
0.0001415911
9.623738e-05
9.610138e-05
9.596411e-05
9.581832e-05
9.567232e-05
0.0001431789
0.0001426458
0.0001414549
9.637707e-05
9.624765e-05
9.611823e-05
9.598442e-05
9.585688e-05
0.0001435268
0.0001431833
0.0001426355
0.000141394
9.650234e-05
9.637819e-05
9.625451e-05
9.612818e-05
9.601088e-05
0.000143793
0.0001435292
0.0001431905
0.0001426462
0.0001414194
9.661463e-05
9.649504e-05
9.63758e-05
9.625458e-05
9.614264e-05
0.0001440096
0.0001437826
0.0001435256
0.0001431966
0.0001426801
0.0003447472
9.671514e-05
9.659966e-05
9.648424e-05
9.636684e-05
9.625805e-05
0.0001441929
0.0001439844
0.0001437621
0.0001435116
0.0001432015
0.000347575
0.0003453181
9.680449e-05
9.669288e-05
9.658091e-05
9.646677e-05
9.636009e-05
0.0001443523
0.0001441532
0.0001439469
0.0001437269
0.0001434861
0.0003486865
0.0003477265
0.0003460008
9.68856e-05
9.677777e-05
9.666921e-05
9.65582e-05
9.645348e-05
0.0001444973
0.0001443043
0.0001441058
0.0001438992
0.0001436832
0.0003492974
0.0003486677
0.0003479338
0.0003467408
9.695948e-05
9.685525e-05
9.674991e-05
9.664183e-05
9.653885e-05
0.0001446295
0.0001444409
0.0001442469
0.0001440458
0.0001438386
0.0003497168
0.0003491755
0.0003486368
0.0003480532
0.0003474607
9.703894e-05
9.693873e-05
9.683713e-05
9.673259e-05
9.663221e-05
0.0001447748
0.0001445915
0.0001444026
0.0001442067
0.000144005
0.0003501396
0.0003496293
0.0003491371
0.0003486378
0.0003481494
9.712133e-05
9.702533e-05
9.692774e-05
9.682706e-05
9.67298e-05
0.000144927
0.0001447496
0.0001445664
0.000144376
0.0001441797
0.0003505751
0.0003500787
0.0003495987
0.0003491171
0.0003486459
9.720558e-05
9.711396e-05
9.70206e-05
9.692409e-05
9.68304e-05
0.0001450844
0.0001449136
0.0001447367
0.0001445526
0.0001443623
0.0003510309
0.0003505453
0.000350073
0.000349598
0.0003491334
9.728957e-05
9.720241e-05
9.711341e-05
9.702121e-05
9.693138e-05
0.0001452426
0.0001450787
0.0001449088
0.0001447315
0.0001445479
0.000351495
0.0003510203
0.0003505548
0.0003500848
0.0003496217
9.481461e-05
9.503796e-05
9.481546e-05
9.525225e-05
9.505125e-05
9.481431e-05
9.546037e-05
9.527958e-05
9.507769e-05
9.479732e-05
9.566419e-05
9.549785e-05
9.532074e-05
9.510317e-05
9.477596e-05
9.586953e-05
9.571537e-05
9.555599e-05
9.537503e-05
9.515744e-05
0.0001420161
9.60531e-05
9.590868e-05
9.576154e-05
9.560229e-05
9.543385e-05
0.000142719
0.0001418019
9.621967e-05
9.608334e-05
9.594625e-05
9.580188e-05
9.565994e-05
0.0001431763
0.0001426847
0.0001416139
9.636856e-05
9.623888e-05
9.610932e-05
9.597564e-05
9.584889e-05
0.0001435182
0.0001431833
0.0001426575
0.0001414774
9.650234e-05
9.637819e-05
9.625451e-05
9.612818e-05
9.601088e-05
0.000143793
0.0001435292
0.0001431905
0.0001426462
0.0001414194
9.662249e-05
9.650318e-05
9.638423e-05
9.626326e-05
9.615147e-05
0.0001440226
0.0001437944
0.000143534
0.0001431966
0.0001426586
0.0003445552
9.673025e-05
9.66153e-05
9.650043e-05
9.638361e-05
9.627536e-05
0.0001442193
0.0001440105
0.0001437861
0.0001435295
0.0001432041
0.000347488
0.0003449752
9.682655e-05
9.671569e-05
9.660455e-05
9.64913e-05
9.638559e-05
0.0001443919
0.0001441936
0.0001439873
0.000143765
0.0001435169
0.0003487126
0.0003476305
0.0003455526
9.691199e-05
9.6805e-05
9.669738e-05
9.65874e-05
9.648387e-05
0.0001445446
0.0001443531
0.0001441559
0.0001439495
0.0001437314
0.0003493903
0.0003486996
0.0003478237
0.0003461935
9.698929e-05
9.688613e-05
9.678199e-05
9.667525e-05
9.657389e-05
0.0001446845
0.0001444983
0.000144307
0.0001441084
0.0001439033
0.0003498674
0.0003493063
0.000348732
0.0003480347
0.0003470126
9.705955e-05
9.696003e-05
9.685921e-05
9.675554e-05
9.665623e-05
0.0001448124
0.0001446307
0.0001444435
0.0001442495
0.0001440497
0.0003502466
0.0003497254
0.0003492173
0.0003486948
0.0003481844
9.713498e-05
9.703945e-05
9.69424e-05
9.684234e-05
9.674584e-05
0.0001449522
0.000144776
0.000144594
0.000144405
0.0001442103
0.0003506508
0.0003501509
0.000349666
0.0003491782
0.0003487033
9.721313e-05
9.712178e-05
9.702872e-05
9.693254e-05
9.683927e-05
0.0001450983
0.0001449281
0.000144752
0.0001445686
0.0001443792
0.000351073
0.0003505858
0.0003501109
0.0003496326
0.0003491646
9.729298e-05
9.720594e-05
9.711707e-05
9.702502e-05
9.693538e-05
0.0001452488
0.0001450853
0.0001449156
0.0001447387
0.0001445555
0.000351514
0.0003510388
0.0003505724
0.0003501011
0.0003496366
9.737251e-05
9.728984e-05
9.720526e-05
9.711749e-05
9.703171e-05
0.0001454
0.0001452433
0.0001450805
0.0001449105
0.000144734
0.0003519619
0.0003514987
0.000351041
0.000350576
0.0003501147
9.503541e-05
9.48259e-05
9.524052e-05
9.504726e-05
9.483962e-05
9.543672e-05
9.525981e-05
9.507154e-05
9.484347e-05
9.563086e-05
9.546643e-05
9.529652e-05
9.51021e-05
9.48588e-05
9.582333e-05
9.566885e-05
9.551194e-05
9.534097e-05
9.515446e-05
0.0001421883
9.601761e-05
9.587285e-05
9.572696e-05
9.557266e-05
9.54178e-05
0.0001427537
0.0001420303
9.619244e-05
9.605541e-05
9.591825e-05
9.577535e-05
9.563819e-05
0.0001431638
0.0001427266
0.0001418225
9.635151e-05
9.622129e-05
9.609139e-05
9.595789e-05
9.583247e-05
0.0001434998
0.0001431807
0.0001426961
0.0001416348
9.649416e-05
9.636972e-05
9.624579e-05
9.611932e-05
9.600214e-05
0.0001437811
0.0001435207
0.0001431905
0.0001426679
0.000141502
9.662249e-05
9.650318e-05
9.638423e-05
9.626326e-05
9.615147e-05
0.0001440226
0.0001437944
0.000143534
0.0001431966
0.0001426586
0.0003445552
9.673781e-05
9.662312e-05
9.650854e-05
9.639199e-05
9.6284e-05
0.0001442325
0.0001440234
0.0001437978
0.0001435379
0.0001432042
0.0003474387
0.0003447946
9.684111e-05
9.673073e-05
9.662011e-05
9.650742e-05
9.640229e-05
0.0001444177
0.0001442199
0.0001440131
0.0001437888
0.0001435347
0.0003487187
0.0003475473
0.0003452221
9.693325e-05
9.682694e-05
9.672008e-05
9.661092e-05
9.65083e-05
0.0001445826
0.0001443923
0.0001441959
0.0001439895
0.000143769
0.0003494607
0.0003487184
0.000347723
0.0003457427
9.701476e-05
9.691235e-05
9.680907e-05
9.670327e-05
9.660299e-05
0.0001447297
0.0001445451
0.0001443553
0.0001441579
0.000143953
0.0003499768
0.0003493843
0.0003487476
0.0003479052
0.0003464026
9.708825e-05
9.698968e-05
9.688995e-05
9.678749e-05
9.668964e-05
0.0001448646
0.0001446852
0.0001445005
0.0001443091
0.0001441118
0.0003503956
0.0003498653
0.0003493456
0.0003487853
0.0003481776
0.0009148599
9.715487e-05
9.705996e-05
9.696362e-05
9.686434e-05
9.67688e-05
0.000144988
0.0001448132
0.0001446329
0.0001444456
0.0001442527
0.0003507537
0.0003502462
0.0003497504
0.0003492476
0.0003487586
9.72263e-05
9.713537e-05
9.70428e-05
9.694718e-05
9.68546e-05
0.0001451222
0.0001449531
0.0001447781
0.0001445961
0.0001444081
0.0003511444
0.0003506542
0.0003501752
0.0003496915
0.000349219
9.730028e-05
9.721347e-05
9.712487e-05
9.703313e-05
9.694387e-05
0.0001452621
0.0001450991
0.0001449301
0.0001447539
0.0001445714
0.0003515536
0.0003510768
0.000350608
0.0003501334
0.0003496654
9.737581e-05
9.729324e-05
9.720879e-05
9.712115e-05
9.703555e-05
0.000145406
0.0001452496
0.000145087
0.0001449173
0.0001447412
0.0003519798
0.000351516
0.0003510574
0.0003505911
0.0003501283
9.745097e-05
9.73727e-05
9.729247e-05
9.720905e-05
9.71273e-05
0.0001455502
0.0001454006
0.0001452449
0.000145082
0.0001449126
0.0003524112
0.0003519605
0.0003515122
0.0003510543
0.0003505965
9.523461e-05
9.504464e-05
9.484968e-05
9.542292e-05
9.524804e-05
9.506721e-05
9.486786e-05
9.56067e-05
9.544286e-05
9.527654e-05
9.509537e-05
9.490213e-05
9.57905e-05
9.563579e-05
9.548057e-05
9.531654e-05
9.515179e-05
0.0001423106
9.597338e-05
9.58271e-05
9.568075e-05
9.552878e-05
9.538298e-05
0.0001427493
0.0001422008
9.615829e-05
9.602028e-05
9.588273e-05
9.574104e-05
9.560845e-05
0.0001431401
0.0001427613
0.0001420487
9.632539e-05
9.619427e-05
9.606366e-05
9.593008e-05
9.580599e-05
0.0001434675
0.0001431684
0.0001427375
0.0001418413
9.647778e-05
9.635277e-05
9.622831e-05
9.61015e-05
9.598445e-05
0.0001437566
0.0001435024
0.0001431879
0.000142706
0.0001416578
9.661463e-05
9.649504e-05
9.63758e-05
9.625458e-05
9.614264e-05
0.0001440096
0.0001437826
0.0001435256
0.0001431966
0.0001426801
0.0003447472
9.673781e-05
9.662312e-05
9.650854e-05
9.639199e-05
9.6284e-05
0.0001442325
0.0001440234
0.0001437978
0.0001435379
0.0001432042
0.0003474387
0.0003447946
9.68484e-05
9.673826e-05
9.66279e-05
9.651549e-05
9.641064e-05
0.0001444306
0.0001442329
0.000144026
0.0001438004
0.000143543
0.0003487193
0.0003475012
0.0003450496
9.69473e-05
9.684144e-05
9.673505e-05
9.662641e-05
9.652435e-05
0.0001446075
0.0001444179
0.000144222
0.0001440151
0.0001437926
0.0003495019
0.000348722
0.0003476409
0.000345419
9.703529e-05
9.69335e-05
9.683091e-05
9.672585e-05
9.662642e-05
0.0001447661
0.0001445828
0.0001443942
0.0001441976
0.0001439926
0.0003500635
0.0003494453
0.0003487574
0.0003477976
0.0003459303
9.711287e-05
9.701499e-05
9.691604e-05
9.681443e-05
9.671756e-05
0.000144908
0.0001447301
0.0001445469
0.000144357
0.0001441608
0.0003505094
0.0003499609
0.0003494084
0.0003487843
0.0003480119
0.0009123292
9.718255e-05
9.708851e-05
9.699315e-05
9.689497e-05
9.680074e-05
0.0001450378
0.0001448651
0.0001446871
0.0001445022
0.0001443119
0.0003508975
0.0003503862
0.0003498892
0.0003493751
0.0003488727
0.0009183198
0.0009155957
9.724554e-05
9.715517e-05
9.706324e-05
9.696832e-05
9.68766e-05
0.0001451565
0.0001449886
0.0001448151
0.0001446346
0.0001444484
0.0003512425
0.0003507463
0.0003502592
0.0003497635
0.000349278
9.7313e-05
9.722658e-05
9.713843e-05
9.704719e-05
9.695855e-05
0.000145285
0.0001451229
0.0001449549
0.0001447798
0.0001445987
0.000351621
0.0003511413
0.0003506687
0.000350189
0.0003497156
9.738287e-05
9.730052e-05
9.721631e-05
9.712895e-05
9.704369e-05
0.0001454187
0.0001452628
0.0001451008
0.0001449317
0.0001447562
0.0003520171
0.0003515517
0.0003510907
0.0003506213
0.0003501547
9.745416e-05
9.737599e-05
9.729587e-05
9.721257e-05
9.713098e-05
0.000145556
0.0001454066
0.0001452511
0.0001450885
0.0001449194
0.0003524281
0.0003519768
0.0003515275
0.0003510683
0.000350609
9.752504e-05
9.745109e-05
9.737512e-05
9.729598e-05
9.721823e-05
0.0001456934
0.0001455507
0.000145402
0.0001452461
0.0001450839
0.0003528429
0.0003524056
0.0003519681
0.000351519
0.000351067
9.54162e-05
9.524211e-05
9.506442e-05
9.487749e-05
9.559269e-05
9.542906e-05
9.526458e-05
9.509063e-05
9.492474e-05
9.576706e-05
9.561172e-05
9.54569e-05
9.529627e-05
9.514371e-05
0.0001423744
9.59419e-05
9.579454e-05
9.564779e-05
9.549739e-05
9.535769e-05
0.0001427451
0.0001423219
9.611635e-05
9.597647e-05
9.58373e-05
9.569507e-05
9.556422e-05
0.0001430884
0.0001427572
0.0001422173
9.629275e-05
9.616044e-05
9.602883e-05
9.589485e-05
9.577172e-05
0.0001434234
0.0001431452
0.0001427722
0.0001420655
9.645279e-05
9.632684e-05
9.620146e-05
9.607395e-05
9.595673e-05
0.0001437173
0.0001434705
0.0001431757
0.0001427471
0.0001418624
9.659891e-05
9.647876e-05
9.635894e-05
9.62372e-05
9.612489e-05
0.0001439832
0.0001437583
0.0001435075
0.0001431939
0.0001427178
0.0003451097
9.673025e-05
9.66153e-05
9.650043e-05
9.638361e-05
9.627536e-05
0.0001442193
0.0001440105
0.0001437861
0.0001435295
0.0001432041
0.000347488
0.0003449752
9.68484e-05
9.673826e-05
9.66279e-05
9.651549e-05
9.641064e-05
0.0001444306
0.0001442329
0.000144026
0.0001438004
0.000143543
0.0003487193
0.0003475012
0.0003450496
9.695434e-05
9.68487e-05
9.674255e-05
9.663417e-05
9.653238e-05
0.0001446199
0.0001444307
0.0001442349
0.0001440279
0.0001438041
0.0003495215
0.000348722
0.0003475964
0.0003452518
9.704889e-05
9.69475e-05
9.684534e-05
9.674076e-05
9.664184e-05
0.0001447901
0.0001446075
0.0001444196
0.0001442234
0.000144018
0.0003501182
0.0003494817
0.0003487573
0.0003477149
0.0003456066
9.713274e-05
9.703543e-05
9.693709e-05
9.683616e-05
9.674006e-05
0.0001449429
0.0001447662
0.0001445843
0.0001443955
0.0001442002
0.0003506009
0.0003500382
0.0003494595
0.0003487848
0.0003478865
0.000910587
9.720641e-05
9.7113e-05
9.701834e-05
9.692093e-05
9.682759e-05
0.0001450794
0.0001449081
0.0001447315
0.0001445482
0.0001443593
0.0003510104
0.0003504878
0.0003499715
0.0003494237
0.0003488434
0.0009176226
0.0009133021
9.727229e-05
9.718271e-05
9.709167e-05
9.699775e-05
9.690722e-05
0.0001452041
0.0001450381
0.0001448667
0.0001446884
0.0001445046
0.0003513801
0.000350883
0.0003503997
0.0003499046
0.0003494335
0.0009205146
0.0009186292
0.0009160159
9.733165e-05
9.724574e-05
9.715816e-05
9.706757e-05
9.69797e-05
0.0001453178
0.0001451569
0.0001449902
0.0001448165
0.000144637
0.0003517143
0.0003512297
0.0003507502
0.0003502602
0.0003497736
9.739519e-05
9.73132e-05
9.722939e-05
9.714249e-05
9.705778e-05
0.0001454406
0.0001452855
0.0001451245
0.0001449563
0.000144782
0.0003520808
0.0003516126
0.0003511479
0.0003506733
0.0003502008
9.746101e-05
9.738303e-05
9.730313e-05
9.722009e-05
9.713881e-05
0.0001455681
0.0001454192
0.0001452642
0.0001451021
0.0001449337
0.0003524634
0.0003520104
0.0003515588
0.0003510964
0.0003506332
9.752813e-05
9.745427e-05
9.737841e-05
9.729938e-05
9.722177e-05
0.0001456989
0.0001455564
0.0001454079
0.0001452523
0.0001450903
0.0003528588
0.0003524209
0.0003519824
0.000351532
0.0003510784
9.75948e-05
9.752509e-05
9.745333e-05
9.737839e-05
9.73046e-05
0.0001458296
0.0001456937
0.0001455519
0.000145403
0.0001452477
0.000353257
0.0003528338
0.0003524082
0.0003519694
0.0003515251
9.558595e-05
9.542233e-05
9.525854e-05
9.508762e-05
9.493351e-05
9.575349e-05
9.559773e-05
9.5443e-05
9.528409e-05
9.513804e-05
0.0001424075
9.59196e-05
9.577119e-05
9.562369e-05
9.547357e-05
9.533662e-05
0.0001427327
0.0001423847
9.608644e-05
9.594522e-05
9.580486e-05
9.566217e-05
9.553232e-05
0.0001430507
0.0001427532
0.0001423368
9.625307e-05
9.611887e-05
9.59853e-05
9.584966e-05
9.572558e-05
0.0001433577
0.0001430943
0.0001427683
0.0001422324
9.642163e-05
9.629449e-05
9.616791e-05
9.603939e-05
9.59216e-05
0.0001436665
0.0001434271
0.0001431531
0.0001427819
0.0001420845
9.657499e-05
9.645394e-05
9.633318e-05
9.621052e-05
9.609746e-05
0.000143942
0.0001437194
0.0001434759
0.000143182
0.0001427585
0.0003455862
9.671514e-05
9.659966e-05
9.648424e-05
9.636684e-05
9.625805e-05
0.0001441929
0.0001439844
0.0001437621
0.0001435116
0.0001432015
0.000347575
0.0003453181
9.684111e-05
9.673073e-05
9.662011e-05
9.650742e-05
9.640229e-05
0.0001444177
0.0001442199
0.0001440131
0.0001437888
0.0001435347