/*--------------------------------*- C++ -*----------------------------------*\
| =========                 |                                                 |
| \\      /  F ield         | OpenFOAM: The Open Source CFD Toolbox           |
|  \\    /   O peration     | Version:  2306                                  |
|   \\  /    A nd           | Website:  www.openfoam.com                      |
|    \\/     M anipulation  |                                                 |
\*---------------------------------------------------------------------------*/
FoamFile
{
    version     2.0;
    format      ascii;
    arch        "LSB;label=32;scalar=64";
    class       volScalarField;
    location    "0.9/fuel";
    object      eta.fuel;
}
// * * * * * * * * * * * * * * * * * * * * * * * * * * * * * * * * * * * * * //

dimensions      [1 2 -3 0 0 -1 0];

internalField   nonuniform List<scalar> 
16000
(
0.09694572
0.09745603
0.09231148
0.09345396
0.09846707
0.09267038
0.09393586
0.08840204
0.0890906
0.09094675
0.09995144
0.09336626
0.09489013
0.08869088
0.08943035
0.09140985
0.08528724
0.08541446
0.08676251
0.08938967
0.1018011
0.094351
0.09629064
0.08924486
0.09008874
0.09232692
0.0855325
0.08568836
0.08708913
0.08984311
0.0827148
0.08248938
0.08324477
0.08529731
0.08876194
0.1036949
0.09550686
0.09803499
0.09001406
0.0910199
0.09367349
0.0859993
0.08621335
0.08772192
0.0907416
0.08292952
0.08272226
0.0835082
0.08561653
0.08921461
0.08050424
0.08007608
0.0804509
0.08186673
0.08467659
0
0.1049586
0.09659429
0.09982057
0.09088781
0.0921118
0.09535239
0.08663846
0.0869418
0.08861685
0.09206271
0.08333577
0.08316517
0.08401296
0.08623505
0.09011264
0.08069595
0.08028021
0.08067501
0.08212399
0.08499396
0
0.07855779
0.07800341
0.07814903
0.0791484
0.08126401
0
0
0.1056398
0.09725196
0.1010047
0.09166745
0.09313777
0.09707403
0.08734655
0.08776814
0.08966614
0.09371409
0.08388576
0.08377112
0.08471312
0.08711024
0.09143606
0.08105688
0.08066608
0.08110104
0.08261686
0.08560923
0
0.07873159
0.07818584
0.07834558
0.0793672
0.08151923
0
0
0.07680767
0.07617877
0.07617375
0.07691253
0.0785672
0
0
0
0.1059593
0.09756367
0.1016378
0.09210161
0.09375426
0.09821176
0.0879513
0.088504
0.09065199
0.09541417
0.08448242
0.08444127
0.0855068
0.08813724
0.09309703
0.08154083
0.08118796
0.08168359
0.08330059
0.08648071
0
0.07905746
0.07852901
0.07871694
0.07978304
0.08200832
0
0
0.07696703
0.07634433
0.07634954
0.07710442
0.07878403
0
0
0
0.07521135
0.07453795
0.07443573
0.07499606
0.07635323
0
0
0
0
0.1060812
0.09768627
0.1019316
0.09227716
0.09404384
0.09881777
0.08826221
0.08891071
0.0912414
0.09653715
0.08497237
0.08501196
0.08621272
0.0891033
0.09481719
0.08205629
0.08175296
0.0823271
0.08407566
0.0875052
0
0.07949078
0.07898863
0.07921886
0.08035156
0.08268715
0
0
0.07726483
0.07665447
0.07668
0.07746688
0.07919617
0
0
0
0.07535885
0.07468991
0.07459536
0.07516771
0.07654329
0
0
0
0
0.07373717
0.07304078
0.07287304
0.07331106
0.07445812
0
0
0
0
0
0.1060812
0.09772463
0.1020425
0.09232544
0.09415604
0.0990977
0.08836426
0.08907302
0.09151671
0.09713598
0.08520428
0.08530257
0.08660027
0.08967905
0.09595646
0.08246432
0.08221513
0.08287389
0.08476482
0.08847131
0
0.07994479
0.07947697
0.07976138
0.08097923
0.08345727
0
0
0.07765787
0.07706633
0.07712222
0.07795658
0.07975975
0
0
0
0.07563368
0.0749736
0.07489419
0.07549028
0.07690228
0
0
0
0
0.07387472
0.07318156
0.07301966
0.07346698
0.07462808
0
0
0
0
0
0.07236263
0.07165731
0.07144702
0.07179671
0.07279354
0
0
0
0
0
0
0.1059593
0.09772463
0.1020425
0.09233127
0.09419043
0.09920297
0.08837294
0.08911603
0.09162254
0.09741339
0.08526028
0.08539577
0.08675336
0.08994756
0.09656772
0.08264109
0.0824312
0.08314983
0.08514111
0.08904645
0
0.08029199
0.07986168
0.08020373
0.08151177
0.0841425
0
0
0.07806363
0.07749668
0.07759117
0.0784854
0.08038207
0
0
0
0.07599404
0.07534751
0.07529067
0.07592174
0.07738732
0
0
0
0
0.07413036
0.07344362
0.07329318
0.07375875
0.07494746
0
0
0
0
0
0.07249171
0.07178872
0.07158295
0.07193997
0.07294791
0
0
0
0
0
0
0.07107027
0.07036633
0.07012889
0.07041507
0.07129859
0
0
0
0
0
0
0
0.1056398
0.09768627
0.1019316
0.09233127
0.09419043
0.09920297
0.08836154
0.08912022
0.09165466
0.09751809
0.08524461
0.08540157
0.08679281
0.09005084
0.09685376
0.08266571
0.08248093
0.08323651
0.08528876
0.08931542
0
0.08042868
0.08002566
0.08040808
0.08177839
0.08451515
0
0
0.07836388
0.07782387
0.07795906
0.07891551
0.08090977
0
0
0
0.07636104
0.07573231
0.075704
0.07637869
0.07791097
0
0
0
0
0.07446358
0.07378672
0.07365331
0.07414562
0.0753746
0
0
0
0
0
0.07273113
0.07203272
0.07183579
0.07220711
0.07323674
0
0
0
0
0
0
0.07119206
0.07048976
0.07025585
0.07054794
0.07144042
0
0
0
0
0
0
0
0.06984701
0.06915138
0.06889826
0.06913796
0.06993533
0
0
0
0
0
0
0
0
0.1049586
0.09756367
0.1016378
0.09232544
0.09415604
0.0990977
0.08836154
0.08912022
0.09165466
0.09751809
0.08522274
0.08538957
0.08679595
0.09008229
0.0969629
0.08263387
0.08246372
0.08324018
0.08532626
0.08941988
0
0.08043109
0.0800457
0.080453
0.08186075
0.08466105
0
0
0.07847031
0.07794997
0.07811342
0.07911207
0.08117223
0
0
0
0.07662423
0.07601512
0.07601665
0.07673596
0.07833622
0
0
0
0
0.07479876
0.07413497
0.074023
0.07454833
0.07582675
0
0
0
0
0
0.07304154
0.07235025
0.07216643
0.07255859
0.07361965
0
0
0
0
0
0
0.07141758
0.0707185
0.07049142
0.07079496
0.07170485
0
0
0
0
0
0
0
0.06996244
0.06926795
0.0690176
0.06926211
0.07006687
0
0
0
0
0
0
0
0
0.06868263
0.06800016
0.06773936
0.06794543
0.0686756
0
0
0
0
0
0
0
0
0
0.1036949
0.09725196
0.1010047
0.09227716
0.09404384
0.09881777
0.08837294
0.08911603
0.09162254
0.09741339
0.08522274
0.08538957
0.08679595
0.09008229
0.0969629
0.08260518
0.08244181
0.08322774
0.08532894
0.08945222
0
0.08038812
0.08001316
0.08043453
0.08186299
0.08469817
0
0
0.07845642
0.07794897
0.07812983
0.07915354
0.08125239
0
0
0
0.07670729
0.07611262
0.07613471
0.07688374
0.07852876
0
0
0
0
0.07503201
0.07438276
0.07429307
0.07485166
0.07617943
0
0
0
0
0
0.07335022
0.07266849
0.07250112
0.07291878
0.07401794
0
0
0
0
0
0
0.07170854
0.07101454
0.07079761
0.07111776
0.0720527
0
0
0
0
0
0
0
0.07017589
0.0694836
0.06923859
0.06949235
0.0703114
0
0
0
0
0
0
0
0
0.06879247
0.06811075
0.06785215
0.06806218
0.06879852
0
0
0
0
0
0
0
0
0
0.0675687
0.06690309
0.06664042
0.06682209
0.06749953
0
0
0
0
0
0
0
0
0
0
0.1018011
0.09659429
0.09982057
0.09210161
0.09375426
0.09821176
0.08836426
0.08907302
0.09151671
0.09713598
0.08524461
0.08540157
0.08679281
0.09005084
0.09685376
0.08260518
0.08244181
0.08322774
0.08532894
0.08945222
0
0.08035484
0.07998476
0.08041253
0.08185026
0.08470092
0
0
0.07840556
0.07790584
0.0780966
0.07913406
0.08125387
0
0
0
0.07668121
0.07609617
0.07613091
0.07689739
0.07856811
0
0
0
0
0.07509663
0.07445819
0.07438373
0.07496408
0.07632352
0
0
0
0
0
0.07355896
0.07288801
0.07273763
0.0731806
0.07431703
0
0
0
0
0
0
0.07199487
0.07130782
0.07110359
0.07144388
0.07240884
0
0
0
0
0
0
0
0.07045008
0.06976135
0.06952423
0.06979138
0.07063084
0
0
0
0
0
0
0
0
0.06899537
0.06831505
0.06806064
0.06827826
0.06902645
0
0
0
0
0
0
0
0
0
0.0676736
0.06700842
0.06674749
0.06693247
0.06761513
0
0
0
0
0
0
0
0
0
0
0.06649825
0.06585226
0.06559227
0.06575643
0.06639177
0
0
0
0
0
0
0
0
0
0
0.09995144
0.09550686
0.09803499
0.09166745
0.09313777
0.09707403
0.08826221
0.08891071
0.0912414
0.09653715
0.08526028
0.08539577
0.08675336
0.08994756
0.09656772
0.08263387
0.08246372
0.08324018
0.08532626
0.08941988
0
0.08035484
0.07998476
0.08041253
0.08185026
0.08470092
0
0
0.07836913
0.07787306
0.07806834
0.07911193
0.081241
0
0
0
0.07662468
0.07604553
0.07608749
0.07686346
0.07854784
0
0
0
0
0.07506125
0.07443018
0.07436512
0.07495807
0.07633525
0
0
0
0
0
0.07360884
0.07294603
0.07280716
0.0732664
0.07442614
0
0
0
0
0
0
0.07218327
0.07150422
0.07131302
0.07167303
0.07266679
0
0
0
0
0
0
0
0.07071731
0.07003358
0.06980634
0.07008957
0.07095326
0
0
0
0
0
0
0
0
0.06925496
0.06857701
0.0683288
0.06855732
0.06932239
0
0
0
0
0
0
0
0
0
0.06786722
0.0672028
0.06694514
0.06713641
0.06782907
0
0
0
0
0
0
0
0
0
0
0.06659875
0.06595294
0.06569432
0.06586126
0.06650109
0
0
0
0
0
0
0
0
0
0
0.06546571
0.06484112
0.06458738
0.06473954
0.06534089
0
0
0
0
0
0
0
0
0
0
0.09846707
0.094351
0.09629064
0.09088781
0.0921118
0.09535239
0.0879513
0.088504
0.09065199
0.09541417
0.08520428
0.08530257
0.08660027
0.08967905
0.09595646
0.08266571
0.08248093
0.08323651
0.08528876
0.08931542
0
0.08038812
0.08001316
0.08043453
0.08186299
0.08469817
0
0
0.07836913
0.07787306
0.07806834
0.07911193
0.081241
0
0
0
0.07658607
0.07600973
0.07605499
0.07683519
0.07852551
0
0
0
0
0.07500061
0.07437412
0.07431445
0.0749142
0.07630062
0
0
0
0
0
0.07356632
0.07290921
0.07277746
0.07324598
0.07441844
0
0
0
0
0
0
0.07222126
0.07154834
0.07136591
0.07173832
0.07274962
0
0
0
0
0
0
0
0.07088862
0.0702108
0.06999364
0.07029239
0.07117886
0
0
0
0
0
0
0
0
0.06950574
0.06883126
0.06859079
0.06883232
0.06961718
0
0
0
0
0
0
0
0
0
0.06811405
0.06745104
0.06719823
0.0673985
0.06810528
0
0
0
0
0
0
0
0
0
0
0.06678416
0.06613859
0.06588251
0.06605468
0.06670303
0
0
0
0
0
0
0
0
0
0
0.06556227
0.06493767
0.06468499
0.0648395
0.06544473
0
0
0
0
0
0
0
0
0
0
0.06446683
0.06386448
0.0636195
0.06376409
0.06433804
0
0
0
0
0
0
0
0
0
0
0.09745603
0.09336627
0.09489013
0.09001406
0.0910199
0.09367349
0.08734655
0.08776814
0.08966614
0.09371409
0.08497237
0.08501196
0.08621272
0.0891033
0.09481719
0.08264109
0.0824312
0.08314983
0.08514111
0.08904645
0
0.08043109
0.0800457
0.080453
0.08186075
0.08466105
0
0
0.07840556
0.07790584
0.0780966
0.07913406
0.08125387
0
0
0
0.07658607
0.07600973
0.07605499
0.07683519
0.07852551
0
0
0
0
0.07496048
0.07433622
0.07427904
0.07488178
0.07627218
0
0
0
0
0
0.07350271
0.07284922
0.07272159
0.07319506
0.07437397
0
0
0
0
0
0
0.07217325
0.07150475
0.07132777
0.07170715
0.07272773
0
0
0
0
0
0
0
0.07091689
0.07024371
0.07003325
0.07034155
0.07124151
0
0
0
0
0
0
0
0
0.06966259
0.0689924
0.06875976
0.06901363
0.06981676
0
0
0
0
0
0
0
0
0
0.06835056
0.06768982
0.06744305
0.06765396
0.06837714
0
0
0
0
0
0
0
0
0
0
0.06701977
0.06637483
0.0661225
0.06630214
0.06696247
0
0
0
0
0
0
0
0
0
0
0.06574035
0.06511561
0.06486486
0.06502374
0.06563629
0
0
0
0
0
0
0
0
0
0
0.06455984
0.06395732
0.06371317
0.06385974
0.06443706
0
0
0
0
0
0
0
0
0
0
0.06349782
0.06291839
0.06268368
0.06282399
0.06337592
0
0
0
0
0
0
0
0
0
0
0.09694572
0.09267038
0.09393586
0.08924486
0.09008874
0.09232692
0.08663846
0.0869418
0.08861685
0.09206271
0.08448242
0.08444127
0.0855068
0.08813724
0.09309703
0.08246432
0.08221513
0.08287389
0.08476482
0.08847131
0
0.08042868
0.08002566
0.08040808
0.08177839
0.08451515
0
0
0.07845642
0.07794897
0.07812983
0.07915354
0.08125239
0
0
0
0.07662468
0.07604553
0.07608749
0.07686346
0.07854784
0
0
0
0
0.07496048
0.07433622
0.07427904
0.07488178
0.07627218
0
0
0
0
0
0.07346156
0.07280986
0.07268413
0.07315979
0.07434142
0
0
0
0
0
0
0.07210752
0.07144191
0.0712681
0.07165117
0.07267633
0
0
0
0
0
0
0
0.07086463
0.07019493
0.06998865
0.07030221
0.07120906
0
0
0
0
0
0
0
0
0.06968289
0.06901617
0.06878868
0.06904995
0.06986354
0
0
0
0
0
0
0
0
0
0.06849509
0.06783734
0.06759665
0.06781747
0.06855548
0
0
0
0
0
0
0
0
0
0
0.06724388
0.0666002
0.06635255
0.06654093
0.06721503
0
0
0
0
0
0
0
0
0
0
0.06596599
0.06534131
0.0650934
0.06525849
0.06588128
0
0
0
0
0
0
0
0
0
0
0.06473136
0.06412839
0.06388568
0.06403591
0.06461956
0
0
0
0
0
0
0
0
0
0
0.06358762
0.0630079
0.06277381
0.06291581
0.0634707
0
0
0
0
0
0
0
0
0
0
0.06255562
0.06199934
0.0617762
0.06191445
0.06244851
0
0
0
0
0
0
0
0
0
0
0.09231148
0.09345396
0.08869088
0.08943035
0.09140985
0.0859993
0.08621335
0.08772192
0.0907416
0.08388576
0.08377112
0.08471312
0.08711024
0.09143606
0.08205629
0.08175296
0.0823271
0.08407566
0.0875052
0
0.08029199
0.07986168
0.08020373
0.08151177
0.0841425
0
0
0.07847031
0.07794997
0.07811342
0.07911207
0.08117223
0
0
0
0.07668121
0.07609617
0.07613091
0.07689739
0.07856811
0
0
0
0
0.07500061
0.07437412
0.07431445
0.0749142
0.07630062
0
0
0
0
0
0.07346156
0.07280986
0.07268413
0.07315979
0.07434142
0
0
0
0
0
0
0.07206573
0.07140157
0.07122924
0.07161391
0.07264096
0
0
0
0
0
0
0
0.07079744
0.07013008
0.06992625
0.07024255
0.07115268
0
0
0
0
0
0
0
0
0.06962736
0.06896337
0.06873912
0.06900435
0.06982309
0
0
0
0
0
0
0
0
0
0.06850882
0.06785362
0.06761687
0.06784346
0.06858965
0
0
0
0
0
0
0
0
0
0
0.06737791
0.06673615
0.06649316
0.06668955
0.06737582
0
0
0
0
0
0
0
0
0
0
0
0.0661792
0.06555504
0.06531066
0.06548295
0.06611738
0
0
0
0
0
0
0
0
0
0
0.06494814
0.06434473
0.06410418
0.06425955
0.064852
0
0
0
0
0
0
0
0
0
0
0.06375324
0.06317281
0.06293977
0.06308486
0.06364523
0
0
0
0
0
0
0
0
0
0
0.06264251
0.06208583
0.06186314
0.06200284
0.06253951
0
0
0
0
0
0
0
0
0
0
0.0616371
0.06110449
0.06089371
0.06103187
0.06155106
0
0
0
0
0
0
0
0
0
0
0.08840204
0.0890906
0.09094675
0.0855325
0.08568836
0.08708913
0.08984311
0.08333577
0.08316517
0.08401296
0.08623505
0.09011264
0.08154083
0.08118796
0.08168359
0.08330059
0.08648071
0
0.07994479
0.07947697
0.07976138
0.08097923
0.08345727
0
0
0.07836388
0.07782387
0.07795906
0.07891551
0.08090977
0
0
0
0.07670729
0.07611262
0.07613471
0.07688374
0.07852876
0
0
0
0
0.07506125
0.07443018
0.07436512
0.07495807
0.07633525
0
0
0
0
0
0.07350271
0.07284922
0.07272159
0.07319506
0.07437397
0
0
0
0
0
0
0.07206573
0.07140157
0.07122924
0.07161391
0.07264096
0
0
0
0
0
0
0
0.07075527
0.0700891
0.06988642
0.07020392
0.07111537
0
0
0
0
0
0
0
0
0.0695592
0.06889712
0.06867478
0.06894205
0.06976312
0
0
0
0
0
0
0
0
0
0.06845082
0.06779774
0.06756348
0.06779308
0.06854309
0
0
0
0
0
0
0
0
0
0
0.06738629
0.06674628
0.06650626
0.06670713
0.06739987
0
0
0
0
0
0
0
0
0
0
0
0.06630418
0.06568114
0.06544024
0.06561898
0.06626349
0
0
0
0
0
0
0
0
0
0
0
0
0.06515175
0.06454823
0.06431033
0.06447162
0.06507397
0
0
0
0
0
0
0
0
0
0
0.06396209
0.06338084
0.06314935
0.06329876
0.06386671
0
0
0
0
0
0
0
0
0
0
0.06280282
0.06224521
0.06202324
0.06216554
0.06270702
0
0
0
0
0
0
0
0
0
0
0.06172136
0.06118825
0.06097778
0.06111718
0.06163868
0
0
0
0
0
0
0
0
0
0
0.06074015
0.06023093
0.06003356
0.06017302
0.06068001
0
0
0
0
0
0
0
0
0
0
0.08528724
0.08541446
0.08676251
0.08938967
0.08292952
0.08272226
0.0835082
0.08561653
0.08921461
0.08105688
0.08066608
0.08110104
0.08261686
0.08560923
0
0.07949078
0.07898863
0.07921886
0.08035156
0.08268715
0
0
0.07806363
0.07749668
0.07759117
0.0784854
0.08038207
0
0
0
0.07662423
0.07601512
0.07601665
0.07673596
0.07833622
0
0
0
0
0.07509663
0.07445819
0.07438373
0.07496408
0.07632352
0
0
0
0
0
0.07356632
0.07290921
0.07277746
0.07324598
0.07441844
0
0
0
0
0
0
0.07210752
0.07144191
0.0712681
0.07165117
0.07267633
0
0
0
0
0
0
0
0.07075527
0.0700891
0.06988642
0.07020392
0.07111537
0
0
0
0
0
0
0
0
0.06951686
0.06885577
0.06863434
0.06890248
0.06972445
0
0
0
0
0
0
0
0
0
0.06838209
0.06773056
0.06749779
0.0677289
0.06848053
0
0
0
0
0
0
0
0
0
0
0.06732649
0.06668807
0.06644994
0.06665307
0.06734864
0
0
0
0
0
0
0
0
0
0
0
0.06630815
0.06568626
0.0654475
0.0656297
0.06627931
0
0
0
0
0
0
0
0
0
0
0
0
0.06526894
0.06466585
0.06443054
0.06459697
0.06520767
0
0
0
0
0
0
0
0
0
0
0
0
0
0.0641572
0.06357534
0.06334576
0.06350008
0.06407645
0
0
0
0
0
0
0
0
0
0
0.06300456
0.0624458
0.0622249
0.0623708
0.06291889
0
0
0
0
0
0
0
0
0
0
0.06187689
0.06134265
0.06113261
0.06127419
0.06179991
0
0
0
0
0
0
0
0
0
0
0.06082199
0.06031221
0.06011502
0.06025554
0.06076458
0
0
0
0
0
0
0
0
0
0
0.05986304
0.05937671
0.05919297
0.05933533
0.05983215
0
0
0
0
0
0
0
0
0
0
0.0827148
0.08248938
0.08324477
0.08529731
0.08876194
0.08069595
0.08028021
0.08067501
0.08212399
0.08499396
0
0.07905746
0.07852901
0.07871694
0.07978304
0.08200832
0
0
0.07765787
0.07706633
0.07712222
0.07795658
0.07975975
0
0
0
0.07636104
0.07573231
0.075704
0.07637869
0.07791097
0
0
0
0
0.07503201
0.07438276
0.07429307
0.07485166
0.07617943
0
0
0
0
0
0.07360884
0.07294603
0.07280716
0.0732664
0.07442614
0
0
0
0
0
0
0.07217325
0.07150475
0.07132777
0.07170715
0.07272773
0
0
0
0
0
0
0
0.07079744
0.07013008
0.06992625
0.07024255
0.07115268
0
0
0
0
0
0
0
0
0.06951686
0.06885577
0.06863434
0.06890248
0.06972445
0
0
0
0
0
0
0
0
0
0.06833976
0.06768905
0.067457
0.06768874
0.06844096
0
0
0
0
0
0
0
0
0
0
0.06725754
0.06662036
0.06638337
0.06658759
0.06728426
0
0
0
0
0
0
0
0
0
0
0
0.06624706
0.06562638
0.06538898
0.06557283
0.0662245
0
0
0
0
0
0
0
0
0
0
0
0
0.06526931
0.06466687
0.06443307
0.06460207
0.06521678
0
0
0
0
0
0
0
0
0
0
0
0
0
0.06426765
0.06368568
0.06345791
0.06361636
0.06419964
0
0
0
0
0
0
0
0
0
0
0
0
0
0
0.06319214
0.06263235
0.06241275
0.06256268
0.06311802
0
0
0
0
0
0
0
0
0
0
0.06207229
0.06153659
0.06132719
0.06147179
0.06200327
0
0
0
0
0
0
0
0
0
0
0.06097316
0.06046213
0.06026511
0.06040745
0.06092021
0
0
0
0
0
0
0
0
0
0
0.05994267
0.05945572
0.05927207
0.05941532
0.05991397
0
0
0
0
0
0
0
0
0
0
0.05900395
0.05854027
0.05837012
0.05851611
0.05900496
0
0
0
0
0
0
0
0
0
0
0.08050424
0.08007608
0.0804509
0.08186673
0.08467659
0
0.07873159
0.07818584
0.07834558
0.0793672
0.08151923
0
0
0.07726483
0.07665447
0.07668
0.07746688
0.07919617
0
0
0
0.07599404
0.07534751
0.07529067
0.07592174
0.07738732
0
0
0
0
0.07479876
0.07413497
0.074023
0.07454833
0.07582675
0
0
0
0
0
0.07355896
0.07288801
0.07273763
0.0731806
0.07431703
0
0
0
0
0
0
0.07222126
0.07154834
0.07136591
0.07173832
0.07274962
0
0
0
0
0
0
0
0.07086463
0.07019493
0.06998865
0.07030221
0.07120906
0
0
0
0
0
0
0
0
0.0695592
0.06889712
0.06867478
0.06894205
0.06976312
0
0
0
0
0
0
0
0
0
0.06833976
0.06768905
0.067457
0.06768874
0.06844096
0
0
0
0
0
0
0
0
0
0
0.06721535
0.06657884
0.06634241
0.06654709
0.06724412
0
0
0
0
0
0
0
0
0
0
0
0.06617814
0.06555846
0.0653219
0.06550651
0.06615887
0
0
0
0
0
0
0
0
0
0
0
0
0.06520737
0.06460579
0.06437297
0.06454309
0.06515925
0
0
0
0
0
0
0
0
0
0
0
0
0
0.06426509
0.06368336
0.06345657
0.06361693
0.06420326
0
0
0
0
0
0
0
0
0
0
0
0
0
0
0.06329677
0.0627364
0.06251799
0.06267118
0.0632323
0
0
0
0
0
0
0
0
0
0
0
0
0
0
0
0.06225325
0.06171609
0.06150748
0.06165538
0.0621931
0
0
0
0
0
0
0
0
0
0
0.06116282
0.06065015
0.06045336
0.06059819
0.061116
0
0
0
0
0
0
0
0
0
0
0.0600899
0.05960157
0.0594179
0.05956264
0.06006457
0
0
0
0
0
0
0
0
0
0
0.05908156
0.05861721
0.05844706
0.05859382
0.05908429
0
0
0
0
0
0
0
0
0
0
0.05816176
0.05771993
0.05756355
0.05771363
0.05819578
0
0
0
0
0
0
0
0
0
0
0.07855779
0.07800341
0.07814903
0.0791484
0.08126401
0
0
0.07696703
0.07634433
0.07634954
0.07710442
0.07878403
0
0
0
0.07563368
0.0749736
0.07489419
0.07549028
0.07690228
0
0
0
0
0.07446358
0.07378672
0.07365331
0.07414562
0.0753746
0
0
0
0
0
0.07335022
0.07266849
0.07250112
0.07291878
0.07401794
0
0
0
0
0
0
0.07218327
0.07150422
0.07131302
0.07167303
0.07266679
0
0
0
0
0
0
0
0.07091689
0.07024371
0.07003325
0.07034155
0.07124151
0
0
0
0
0
0
0
0
0.06962736
0.06896337
0.06873912
0.06900435
0.06982309
0
0
0
0
0
0
0
0
0
0.06838209
0.06773056
0.06749779
0.0677289
0.06848053
0
0
0
0
0
0
0
0
0
0
0.06721535
0.06657884
0.06634241
0.06654709
0.06724412
0
0
0
0
0
0
0
0
0
0
0
0.06613619
0.06551707
0.06528094
0.06546585
0.06611839
0
0
0
0
0
0
0
0
0
0
0
0
0.0651387
0.06453791
0.06430571
0.06447629
0.06509281
0
0
0
0
0
0
0
0
0
0
0
0
0
0.06420266
0.06362152
0.06339536
0.06355645
0.0641437
0
0
0
0
0
0
0
0
0
0
0
0
0
0
0.06329185
0.06273137
0.06251351
0.06266804
0.0632315
0
0
0
0
0
0
0
0
0
0
0
0
0
0
0
0.06235292
0.06181472
0.06160676
0.06175721
0.06229972
0
0
0
0
0
0
0
0
0
0
0
0
0
0
0
0
0.06133784
0.06082348
0.06062697
0.06077448
0.06129767
0
0
0
0
0
0
0
0
0
0
0.06027439
0.05978421
0.05960052
0.05974727
0.06025361
0
0
0
0
0
0
0
0
0
0
0.05922519
0.05875937
0.05858901
0.05873703
0.05923037
0
0
0
0
0
0
0
0
0
0
0.05823751
0.05779497
0.05763852
0.05778924
0.05827285
0
0
0
0
0
0
0
0
0
0
0.05733454
0.05691469
0.0567717
0.05692649
0.0574029
0
0
0
0
0
0
0
0
0
0
0.07680767
0.07617877
0.07617375
0.07691253
0.0785672
0
0
0
0.07535885
0.07468991
0.07459536
0.07516771
0.07654329
0
0
0
0
0.07413036
0.07344362
0.07329318
0.07375875
0.07494746
0
0
0
0
0
0.07304154
0.07235025
0.07216643
0.07255859
0.07361965
0
0
0
0
0
0
0.07199487
0.07130782
0.07110359
0.07144388
0.07240884
0
0
0
0
0
0
0
0.07088862
0.0702108
0.06999364
0.07029239
0.07117886
0
0
0
0
0
0
0
0
0.06968289
0.06901617
0.06878868
0.06904995
0.06986354
0
0
0
0
0
0
0
0
0
0.06845082
0.06779774
0.06756348
0.06779308
0.06854309
0
0
0
0
0
0
0
0
0
0
0.06725754
0.06662036
0.06638337
0.06658759
0.06728426
0
0
0
0
0
0
0
0
0
0
0
0.06613619
0.06551707
0.06528094
0.06546585
0.06611839
0
0
0
0
0
0
0
0
0
0
0
0
0.06509709
0.06449675
0.06426487
0.06443563
0.06505219
0
0
0
0
0
0
0
0
0
0
0
0
0
0.0641344
0.06355388
0.06332814
0.06348948
0.06407681
0
0
0
0
0
0
0
0
0
0
0
0
0
0
0.06322923
0.06266911
0.0624516
0.06260652
0.0631705
0
0
0
0
0
0
0
0
0
0
0
0
0
0
0
0.06234622
0.06180754
0.06159975
0.06175108
0.06229532
0
0
0
0
0
0
0
0
0
0
0
0
0
0
0
0
0.06143319
0.0609175
0.06072112
0.06087056
0.06139775
0
0
0
0
0
0
0
0
0
0
0
0
0
0
0
0
0
0.06044415
0.05995201
0.05976828
0.05991709
0.06042808
0
0
0
0
0
0
0
0
0
0
0.059405
0.05893718
0.05876653
0.0589162
0.05941337
0
0
0
0
0
0
0
0
0
0
0.05837788
0.05793377
0.05777697
0.0579287
0.05841488
0
0
0
0
0
0
0
0
0
0
0.0574086
0.05698799
0.05684486
0.05700019
0.05747791
0
0
0
0
0
0
0
0
0
0
0.05652192
0.05612275
0.05599365
0.05615318
0.05662495
0
0
0
0
0
0
0
0
0
0
0.07521135
0.07453795
0.07443573
0.07499606
0.07635323
0
0
0
0
0.07387472
0.07318156
0.07301966
0.07346698
0.07462808
0
0
0
0
0
0.07273113
0.07203272
0.07183579
0.07220711
0.07323674
0
0
0
0
0
0
0.07170854
0.07101454
0.07079761
0.07111776
0.0720527
0
0
0
0
0
0
0
0.07071731
0.07003358
0.06980634
0.07008957
0.07095326
0
0
0
0
0
0
0
0
0.06966259
0.0689924
0.06875976
0.06901363
0.06981676
0
0
0
0
0
0
0
0
0
0.06850882
0.06785362
0.06761687
0.06784346
0.06858965
0
0
0
0
0
0
0
0
0
0
0.06732649
0.06668807
0.06644994
0.06665307
0.06734864
0
0
0
0
0
0
0
0
0
0
0
0.06617814
0.06555846
0.0653219
0.06550651
0.06615887
0
0
0
0
0
0
0
0
0
0
0
0
0.06509709
0.06449675
0.06426487
0.06443563
0.06505219
0
0
0
0
0
0
0
0
0
0
0
0
0
0.0640932
0.06351305
0.06328753
0.06344895
0.0640362
0
0
0
0
0
0
0
0
0
0
0
0
0
0
0.06316154
0.06260188
0.06238464
0.06253962
0.06310347
0
0
0
0
0
0
0
0
0
0
0
0
0
0
0
0.06228374
0.06174514
0.06153748
0.06168892
0.06223333
0
0
0
0
0
0
0
0
0
0
0
0
0
0
0
0
0.06142508
0.06090872
0.06071211
0.06086203
0.06139043
0
0
0
0
0
0
0
0
0
0
0
0
0
0
0
0
0
0.06053578
0.06004204
0.0598581
0.06000824
0.06052251
0
0
0
0
0
0
0
0
0
0
0
0
0
0
0
0
0
0
0.05957006
0.05910008
0.05892905
0.05908037
0.05958148
0
0
0
0
0
0
0
0
0
0
0.05855347
0.05810722
0.05794992
0.05810295
0.05859251
0
0
0
0
0
0
0
0
0
0
0.057546
0.05712374
0.05698012
0.05713626
0.05761624
0
0
0
0
0
0
0
0
0
0
0.05659441
0.05619446
0.05606515
0.05622513
0.05669807
0
0
0
0
0
0
0
0
0
0
0.05572256
0.05534382
0.05522768
0.05539284
0.05586044
0
0
0
0
0
0
0
0
0
0
0.07373717
0.07304078
0.07287304
0.07331106
0.07445812
0
0
0
0
0
0.07249171
0.07178872
0.07158295
0.07193997
0.07294791
0
0
0
0
0
0
0.07141758
0.0707185
0.07049142
0.07079496
0.07170485
0
0
0
0
0
0
0
0.07045008
0.06976135
0.06952423
0.06979138
0.07063084
0
0
0
0
0
0
0
0
0.06950574
0.06883126
0.06859079
0.06883232
0.06961718
0
0
0
0
0
0
0
0
0
0.06849509
0.06783734
0.06759665
0.06781747
0.06855548
0
0
0
0
0
0
0
0
0
0
0.06738629
0.06674628
0.06650626
0.06670713
0.06739987
0
0
0
0
0
0
0
0
0
0
0
0.06624706
0.06562638
0.06538898
0.06557283
0.0662245
0
0
0
0
0
0
0
0
0
0
0
0
0.0651387
0.06453791
0.06430571
0.06447629
0.06509281
0
0
0
0
0
0
0
0
0
0
0
0
0
0.0640932
0.06351305
0.06328753
0.06344895
0.0640362
0
0
0
0
0
0
0
0
0
0
0
0
0
0
0.06312079
0.06256143
0.06234434
0.06249931
0.06306299
0
0
0
0
0
0
0
0
0
0
0
0
0
0
0
0.06221677
0.06167846
0.06147092
0.06162228
0.06216638
0
0
0
0
0
0
0
0
0
0
0
0
0
0
0
0
0.06136292
0.0608465
0.06064975
0.06079954
0.06132785
0
0
0
0
0
0
0
0
0
0
0
0
0
0
0
0
0
0.06052666
0.060032
0.05984762
0.05999782
0.06051288
0
0
0
0
0
0
0
0
0
0
0
0
0
0
0
0
0
0
0.05965851
0.0591867
0.05901511
0.05916737
0.05967108
0
0
0
0
0
0
0
0
0
0
0
0
0
0
0
0
0
0
0
0.05871437
0.05826576
0.0581078
0.05826207
0.05875506
0
0
0
0
0
0
0
0
0
0
0.05771779
0.05729327
0.05714893
0.05730609
0.05778902
0
0
0
0
0
0
0
0
0
0
0.05672911
0.05632744
0.05619752
0.05635812
0.05683306
0
0
0
0
0
0
0
0
0
0
0.05579359
0.05541407
0.05529767
0.05546319
0.05593184
0
0
0
0
0
0
0
0
0
0
0.05493694
0.05457667
0.05447356
0.05464381
0.05510853
0
0
0
0
0
0
0
0
0
0
0.07236263
0.07165731
0.07144702
0.07179671
0.07279354
0
0
0
0
0
0
0.07119206
0.07048976
0.07025585
0.07054794
0.07144042
0
0
0
0
0
0
0
0.07017589
0.0694836
0.06923859
0.06949235
0.0703114
0
0
0
0
0
0
0
0
0.06925496
0.06857701
0.0683288
0.06855732
0.06932239
0
0
0
0
0
0
0
0
0
0.06835056
0.06768982
0.06744305
0.06765396
0.06837714
0
0
0
0
0
0
0
0
0
0
0.06737791
0.06673615
0.06649316
0.06668955
0.06737582
0
0
0
0
0
0
0
0
0
0
0
0.06630815
0.06568626
0.0654475
0.0656297
0.06627931
0
0
0
0
0
0
0
0
0
0
0
0
0.06520737
0.06460579
0.06437297
0.06454309
0.06515925
0
0
0
0
0
0
0
0
0
0
0
0
0
0.06413441
0.06355388
0.06332814
0.06348948
0.06407681
0
0
0
0
0
0
0
0
0
0
0
0
0
0
0.06312079
0.06256143
0.06234434
0.06249931
0.06306299
0
0
0
0
0
0
0
0
0
0
0
0
0
0
0
0.06217655
0.06163845
0.061431
0.06158228
0.06212614
0
0
0
0
0
0
0
0
0
0
0
0
0
0
0
0
0.06129675
0.06078053
0.06058374
0.06073332
0.06126118
0
0
0
0
0
0
0
0
0
0
0
0
0
0
0
0
0
0.06046501
0.05997013
0.05978546
0.05993529
0.06045001
0
0
0
0
0
0
0
0
0
0
0
0
0
0
0
0
0
0
0.05964869
0.05917578
0.0590035
0.05915557
0.05965963
0
0
0
0
0
0
0
0
0
0
0
0
0
0
0
0
0
0
0
0.05880013
0.05834946
0.05819066
0.05834546
0.05884059
0
0
0
0
0
0
0
0
0
0
0
0
0
0
0
0
0
0
0
0
0.057875
0.05744795
0.05730269
0.05746074
0.05794659
0
0
0
0
0
0
0
0
0
0
0.05689747
0.05649344
0.05636262
0.05652395
0.05700149
0
0
0
0
0
0
0
0
0
0
0.05592578
0.05554453
0.05542741
0.05559338
0.05606379
0
0
0
0
0
0
0
0
0
0
0.05500665
0.05464555
0.05454216
0.05471269
0.05517835
0
0
0
0
0
0
0
0
0
0
0.05416286
0.05382184
0.05373015
0.0539059
0.05436759
0
0
0
0
0
0
0
0
0
0
0.07107027
0.07036633
0.07012889
0.07041507
0.07129859
0
0
0
0
0
0
0
0.06996244
0.06926795
0.0690176
0.06926211
0.07006687
0
0
0
0
0
0
0
0
0.06899537
0.06831505
0.06806064
0.06827826
0.06902645
0
0
0
0
0
0
0
0
0
0.06811405
0.06745104
0.06719823
0.0673985
0.06810528
0
0
0
0
0
0
0
0
0
0
0.06724388
0.0666002
0.06635254
0.06654093
0.06721503
0
0
0
0
0
0
0
0
0
0
0.06630418
0.06568114
0.06544024
0.06561898
0.06626349
0
0
0
0
0
0
0
0
0
0
0
0
0.06526931
0.06466687
0.06443308
0.06460207
0.06521678
0
0
0
0
0
0
0
0
0
0
0
0
0
0.06420266
0.06362152
0.06339536
0.06355645
0.0641437
0
0
0
0
0
0
0
0
0
0
0
0
0
0
0.06316154
0.06260188
0.06238464
0.06253962
0.06310347
0
0
0
0
0
0
0
0
0
0
0
0
0
0
0
0.06217655
0.06163845
0.061431
0.06158228
0.06212614
0
0
0
0
0
0
0
0
0
0
0
0
0
0
0
0
0.06125708
0.06074103
0.06054424
0.06069369
0.06122125
0
0
0
0
0
0
0
0
0
0
0
0
0
0
0
0
0
0.06039973
0.05990495
0.05972016
0.05986961
0.06038377
0
0
0
0
0
0
0
0
0
0
0
0
0
0
0
0
0
0
0.05958773
0.05911445
0.05894173
0.05909329
0.05959674
0
0
0
0
0
0
0
0
0
0
0
0
0
0
0
0
0
0
0
0.05878991
0.05833797
0.05817828
0.05833262
0.05882783
0
0
0
0
0
0
0
0
0
0
0
0
0
0
0
0
0
0
0
0
0.05795849
0.0575292
0.05738284
0.05754109
0.0580286
0
0
0
0
0
0
0
0
0
0
0
0
0
0
0
0
0
0
0
0
0.05705141
0.05664472
0.05651275
0.05667465
0.05715468
0
0
0
0
0
0
0
0
0
0
0.05609098
0.05570734
0.05558917
0.05575564
0.05622829
0
0
0
0
0
0
0
0
0
0
0.05513659
0.05477368
0.05466952
0.05484036
0.05530756
0
0
0
0
0
0
0
0
0
0
0.05423131
0.05388948
0.05379745
0.05397344
0.05443596
0
0
0
0
0
0
0
0
0
0
0.05340261
0.05307723
0.05299803
0.05317801
0.05363744
0
0
0
0
0
0
0
0
0
0
0.06984701
0.06915138
0.06889826
0.06913796
0.06993533
0
0
0
0
0
0
0
0
0.06879247
0.06811075
0.06785215
0.06806218
0.06879852
0
0
0
0
0
0
0
0
0
0.06786722
0.0672028
0.06694514
0.06713641
0.06782907
0
0
0
0
0
0
0
0
0
0
0.06701977
0.06637483
0.0661225
0.06630214
0.06696247
0
0
0
0
0
0
0
0
0
0
0.0661792
0.06555504
0.06531066
0.06548295
0.06611738
0
0
0
0
0
0
0
0
0
0
0.06526894
0.06466585
0.06443054
0.06459697
0.06520767
0
0
0
0
0
0
0
0
0
0
0
0
0
0.06426509
0.06368336
0.06345657
0.06361693
0.06420327
0
0
0
0
0
0
0
0
0
0
0
0
0
0
0.06322923
0.06266911
0.0624516
0.06260652
0.0631705
0
0
0
0
0
0
0
0
0
0
0
0
0
0
0
0.06221677
0.06167846
0.06147092
0.06162228
0.06216638
0
0
0
0
0
0
0
0
0
0
0
0
0
0
0
0
0.06125708
0.06074103
0.06054424
0.06069369
0.06122125
0
0
0
0
0
0
0
0
0
0
0
0
0
0
0
0
0
0.06036064
0.05986597
0.05968116
0.05983041
0.06034421
0
0
0
0
0
0
0
0
0
0
0
0
0
0
0
0
0
0
0.05952341
0.05905013
0.0588772
0.05902831
0.05953106
0
0
0
0
0
0
0
0
0
0
0
0
0
0
0
0
0
0
0
0.05872978
0.05827734
0.05811707
0.05827074
0.05876521
0
0
0
0
0
0
0
0
0
0
0
0
0
0
0
0
0
0
0
0
0.05794814
0.05751742
0.05736998
0.05752755
0.05801485
0
0
0
0
0
0
0
0
0
0
0
0
0
0
0
0
0
0
0
0
0.05713302
0.05672393
0.05659062
0.0567524
0.0572337
0
0
0
0
0
0
0
0
0
0
0
0
0
0
0
0
0
0
0
0
0.05624196
0.05585561
0.05573611
0.05590284
0.05637759
0
0
0
0
0
0
0
0
0
0
0.05529901
0.05493356
0.05482828
0.0549994
0.05546853
0
0
0
0
0
0
0
0
0
0
0.05435913
0.05401552
0.05392261
0.0540988
0.05456268
0
0
0
0
0
0
0
0
0
0
0.05346995
0.05314369
0.05306415
0.05324429
0.05370448
0
0
0
0
0
0
0
0
0
0
0.05265296
0.05234514
0.05227517
0.05246073
0.05291699
0
0
0
0
0
0
0
0
0
0
0.06868263
0.06800016
0.06773936
0.06794543
0.0686756
0
0
0
0
0
0
0
0
0
0.0676736
0.06700842
0.06674749
0.06693247
0.06761513
0
0
0
0
0
0
0
0
0
0
0.06678416
0.06613859
0.06588251
0.06605468
0.06670303
0
0
0
0
0
0
0
0
0
0
0.06596599
0.06534131
0.0650934
0.06525849
0.06588128
0
0
0
0
0
0
0
0
0
0
0.06515174
0.06454823
0.06431033
0.06447162
0.06507397
0
0
0
0
0
0
0
0
0
0
0.06426765
0.06368568
0.06345791
0.06361636
0.06419964
0
0
0
0
0
0
0
0
0
0
0
0
0
0
0.06329185
0.06273137
0.06251351
0.06266804
0.0632315
0
0
0
0
0
0
0
0
0
0
0
0
0
0
0
0.06228374
0.06174514
0.06153748
0.06168892
0.06223333
0
0
0
0
0
0
0
0
0
0
0
0
0
0
0
0
0.06129676
0.06078053
0.06058374
0.06073332
0.06126118
0
0
0
0
0
0
0
0
0
0
0
0
0
0
0
0
0
0.06036064
0.05986598
0.05968116
0.05983041
0.06034421
0
0
0
0
0
0
0
0
0
0
0
0
0
0
0
0
0
0
0.05948493
0.05901172
0.05883871
0.0589896