/*--------------------------------*- C++ -*----------------------------------*\
| =========                 |                                                 |
| \\      /  F ield         | OpenFOAM: The Open Source CFD Toolbox           |
|  \\    /   O peration     | Version:  2306                                  |
|   \\  /    A nd           | Website:  www.openfoam.com                      |
|    \\/     M anipulation  |                                                 |
\*---------------------------------------------------------------------------*/
FoamFile
{
    version     2.0;
    format      ascii;
    arch        "LSB;label=32;scalar=64";
    class       volScalarField;
    location    "0.9/fuel";
    object      H2;
}
// * * * * * * * * * * * * * * * * * * * * * * * * * * * * * * * * * * * * * //

dimensions      [0 0 0 0 0 0 0];

internalField   nonuniform List<scalar> 
16000
(
0.6160741
0.6209618
0.5499886
0.6163565
0.6308973
0.5531928
0.6212504
0.488847
0.550203
0.6169084
0.6459885
0.5596655
0.6311991
0.4912346
0.5534106
0.6218144
0.4391074
0.4890104
0.5506226
0.6177214
0.6656932
0.5694015
0.6463121
0.4960466
0.5598904
0.6317889
0.4409898
0.4914001
0.5538368
0.6226452
0.3985336
0.4392358
0.4893304
0.5512412
0.6187916
0.6871275
0.5819608
0.6660499
0.5032605
0.5696378
0.6469444
0.4447762
0.4962166
0.5603303
0.6326575
0.4000636
0.4411197
0.4917242
0.5544651
0.6237387
0.3648896
0.3986375
0.4394876
0.4898023
0.5520556
0.6198529
0.7036181
0.5954731
0.6875272
0.5125243
0.5822139
0.666747
0.4504362
0.5034375
0.5701
0.6478756
0.4031363
0.4449092
0.4965493
0.5609788
0.6338007
0.3661603
0.4001685
0.4413743
0.4922023
0.5552922
0.6248231
0.3365374
0.3649754
0.3988411
0.4398592
0.4904239
0.5528631
0.6207328
0.7143024
0.6058736
0.7040447
0.52244
0.5957475
0.6883085
0.4576766
0.5127119
0.5827091
0.6677737
0.4077186
0.450574
0.5037842
0.5707812
0.6491014
0.368709
0.4032433
0.4451697
0.4970401
0.5618326
0.6349345
0.3376109
0.3662468
0.4003741
0.4417501
0.4928318
0.5561123
0.6257223
0.3123085
0.3366095
0.3651437
0.3991418
0.4403487
0.4910402
0.5535324
0.6216081
0.7204574
0.6126742
0.7147439
0.5300413
0.60616
0.7048783
0.465393
0.522641
0.5962846
0.6894599
0.4135622
0.4578216
0.5130792
0.5834391
0.6691253
0.3725027
0.4078291
0.450844
0.5042955
0.5716781
0.650317
0.3397619
0.3687972
0.4034533
0.4455541
0.4976864
0.5626792
0.6358752
0.3132282
0.3376836
0.3664167
0.4006779
0.4422451
0.4934561
0.5567921
0.6266168
0.2913541
0.3123701
0.3367511
0.3653924
0.399538
0.4408342
0.4915508
0.5541979
0.6224786
0.7232457
0.6166425
0.7209068
0.5350032
0.6129664
0.7156062
0.4712879
0.5302491
0.6067204
0.7061067
0.4197688
0.4655473
0.5230347
0.5970767
0.6909766
0.3773288
0.4136781
0.4581059
0.5136211
0.5844003
0.6704664
0.3429587
0.3725935
0.4080459
0.4512425
0.5049688
0.5725675
0.6513275
0.3150695
0.3398358
0.3689702
0.4037632
0.4460606
0.4983272
0.5633811
0.6368114
0.2921514
0.3132902
0.3378264
0.3666677
0.401078
0.4427359
0.4939733
0.557468
0.6275066
0.2730447
0.2914073
0.312491
0.3369605
0.3657202
0.399931
0.4412362
0.4920583
0.5548594
0.6233443
0.7232457
0.6184596
0.7236986
0.5378989
0.6169376
0.7217844
0.4751287
0.535214
0.613538
0.7168763
0.4244972
0.4714466
0.5306561
0.6075467
0.7077247
0.3824404
0.4198914
0.4658499
0.5236158
0.5981202
0.6924824
0.3470171
0.3774236
0.4139052
0.4585255
0.5143349
0.5853537
0.6715869
0.3178024
0.3430347
0.3727717
0.408366
0.4517674
0.5056364
0.5733061
0.6523351
0.2937463
0.3151325
0.3399811
0.3692259
0.4041717
0.4465628
0.4988584
0.5640794
0.6377431
0.2737428
0.2922049
0.3134121
0.3380375
0.3669984
0.4014749
0.4431425
0.4944874
0.55814
0.6283915
0.2569037
0.2730911
0.2915118
0.3126698
0.3372365
0.3660454
0.4002564
0.4416357
0.4925627
0.5555171
0.6275319
0.7204574
0.6184596
0.7236986
0.5392258
0.618756
0.724583
0.4773686
0.538111
0.617515
0.7230769
0.4275732
0.4752891
0.5356267
0.6143809
0.7185493
0.3863258
0.4246228
0.4717576
0.5312568
0.6086351
0.7093313
0.3513061
0.3825404
0.420132
0.4662967
0.5243814
0.5991556
0.6937523
0.3212662
0.3470963
0.3776097
0.4142407
0.4590783
0.5150427
0.5861489
0.6727102
0.2961112
0.317867
0.3431839
0.373035
0.4087878
0.452288
0.5061907
0.5740419
0.6533398
0.2751384
0.2938006
0.3152562
0.3401958
0.3695628
0.4045767
0.4469789
0.4993866
0.5647739
0.6386702
0.2575203
0.2737895
0.2923102
0.3135923
0.3383158
0.3673265
0.4018036
0.4435466
0.4949984
0.5588081
0.6326723
0.2425637
0.2569446
0.2731824
0.2916663
0.3129056
0.3375103
0.3663145
0.4005797
0.4420327
0.4930639
0.5586972
0.6304114
0.7143024
0.6166425
0.7209068
0.5392258
0.618756
0.724583
0.4783948
0.5394384
0.6193358
0.7258854
0.4293659
0.4775296
0.5385264
0.6183661
0.724779
0.38885
0.4276998
0.4756034
0.5362357
0.615491
0.7202102
0.3545602
0.3864279
0.4248692
0.472217
0.5320482
0.6097152
0.7106865
0.3249199
0.3513893
0.3827367
0.4204875
0.4668855
0.525141
0.6000262
0.695037
0.2991042
0.3213333
0.3472517
0.3778846
0.4146829
0.4596265
0.5156329
0.5869447
0.6738362
0.2772059
0.2961668
0.317994
0.3434045
0.373382
0.4092062
0.45272
0.5067426
0.574775
0.6543414
0.2587523
0.2751858
0.2939075
0.3154393
0.3404788
0.369897
0.4049123
0.4473926
0.4999118
0.5654647
0.6431577
0.2431124
0.2575614
0.2738814
0.2924658
0.3138299
0.3385919
0.3675981
0.4021302
0.443948
0.4955062
0.5620388
0.6356291
0.2297366
0.2426
0.257025
0.2733174
0.2918703
0.3131395
0.337737
0.3665819
0.4009008
0.442427
0.4954868
0.5608772
0.6325934
0.7036181
0.6126742
0.7147439
0.5378989
0.6169376
0.7217844
0.4783948
0.5394384
0.6193358
0.7258854
0.430187
0.4785561
0.5398548
0.6201905
0.7276006
0.3903202
0.4294928
0.4778452
0.5391391
0.619487
0.7264689
0.3566719
0.3889528
0.4279481
0.4760674
0.5370381
0.6165925
0.7216086
0.3276876
0.354645
0.3866285
0.4252333
0.4728223
0.5328334
0.6106237
0.7120579
0.3022563
0.3249903
0.3515529
0.3830269
0.4209562
0.4674697
0.5257794
0.6009045
0.6963369
0.2798194
0.2991618
0.3214652
0.3474814
0.378247
0.4151214
0.4600835
0.5162232
0.587741
0.6749647
0.2605758
0.2772543
0.2962762
0.3181817
0.3436954
0.3737261
0.4095533
0.4531501
0.5072923
0.5755052
0.6591987
0.2442081
0.2587939
0.275279
0.2940654
0.3156806
0.3407596
0.3701738
0.4052459
0.4478039
0.5004339
0.5688065
0.646309
0.230228
0.2431489
0.2576423
0.2740173
0.2926712
0.3140656
0.3388204
0.367868
0.4024546
0.4443469
0.4979611
0.5642614
0.6378805
0.2181931
0.229769
0.2426714
0.257144
0.2734956
0.2920726
0.3133332
0.3379621
0.3668475
0.4012198
0.4443329
0.4971441
0.5625261
0.6340596
0.6871275
0.6058736
0.7040447
0.5350032
0.6129664
0.7156062
0.4773686
0.538111
0.617515
0.7230769
0.430187
0.4785561
0.5398548
0.6201905
0.7276006
0.3909934
0.430314
0.4788722
0.5404691
0.6213161
0.7293033
0.357901
0.3904231
0.4297418
0.4783111
0.5399464
0.6205991
0.7278896
0.3294819
0.3567571
0.3891545
0.428315
0.4766789
0.537834
0.6175174
0.7230211
0.3046409
0.3277592
0.3548116
0.3869248
0.4257132
0.4734229
0.5334934
0.6115403
0.7134457
0.282568
0.3023167
0.3251287
0.3517947
0.3834097
0.4214212
0.4679606
0.526423
0.6017904
0.697652
0.2628785
0.2798695
0.2992753
0.3216602
0.3477843
0.3786065
0.4154869
0.4605405
0.5168136
0.5885378
0.6804668
0.245829
0.2606184
0.2773496
0.296438
0.3184293
0.3439839
0.3740116
0.4098988
0.4535783
0.5078395
0.5790432
0.6627976
0.2312092
0.2442451
0.2588759
0.2754168
0.2942738
0.3159201
0.3409922
0.3704489
0.4055774
0.4482126
0.5029592
0.5711365
0.6487532
0.2186359
0.2302606
0.2432207
0.2577621
0.2741967
0.292875
0.3142608
0.3390474
0.368136
0.4027769
0.4462748
0.499646
0.565949
0.6394
0.2077487
0.2182222
0.2298328
0.2427771
0.2573011
0.2736724
0.2922401
0.3135255
0.3381857
0.3671113
0.4027612
0.4456345
0.4983962
0.5636325
0.6347962
0.6656932
0.5954731
0.6875272
0.5300413
0.60616
0.7048783
0.4751287
0.535214
0.613538
0.7168763
0.4293659
0.4775296
0.5385264
0.6183661
0.724779
0.3909934
0.430314
0.4788722
0.5404691
0.6213161
0.7293033
0.3584638
0.3910963
0.4305633
0.4793387
0.5412784
0.6224328
0.7307338
0.3305259
0.3579863
0.3906251
0.4301096
0.478925
0.5407471
0.6215317
0.7293225
0.3061856
0.3295538
0.3569244
0.3894526
0.4287986
0.4772855
0.538502
0.6184491
0.7244477
0.2846451
0.3047022
0.3279
0.355058
0.3873156
0.4261895
0.4739277
0.5341591
0.6124652
0.7148501
0.2652975
0.2826204
0.3024355
0.3253335
0.3521136
0.3837895
0.4218118
0.4684553
0.5270719
0.6026842
0.7041248
0.2478738
0.2629225
0.2799681
0.299443
0.3219175
0.3480849
0.3789061
0.4158523
0.4609975
0.5174041
0.592416
0.685155
0.2326596
0.2458667
0.2607021
0.2774906
0.2966514
0.3186749
0.3442232
0.3742958
0.4102427
0.4540046
0.5104904
0.5816227
0.6657678
0.2195197
0.2312422
0.2443178
0.2589972
0.2755986
0.2944806
0.3161184
0.3412233
0.3707223
0.4059068
0.4501891
0.504715
0.5729327
0.6504332
0.2081498
0.2186652
0.2303248
0.243327
0.2579202
0.2743747
0.2930437
0.3144546
0.3392729
0.3684022
0.4043342
0.4475958
0.5009237
0.5670855
0.6401661
0.1982531
0.207775
0.2182796
0.2299273
0.2429167
0.257457
0.2738188
0.2924064
0.3137165
0.3384077
0.3683856
0.4038125
0.446617
0.4992356
0.5641879
0.6459885
0.5819608
0.6660499
0.52244
0.5957475
0.6883085
0.4712879
0.5302491
0.6067204
0.7061067
0.4275732
0.4752891
0.5356267
0.6143809
0.7185493
0.3903202
0.4294928
0.4778452
0.5391391
0.619487
0.7264689
0.3584638
0.3910963
0.4305633
0.4793387
0.5412784
0.6224328
0.7307338
0.3310037
0.358549
0.3912984
0.4309314
0.4799536
0.5420811
0.6233687
0.7321756
0.3070838
0.3305977
0.3581538
0.3909236
0.4305944
0.479534
0.5414183
0.6224699
0.7307676
0.2859895
0.3062471
0.3296951
0.3571718
0.3898456
0.4292784
0.4777945
0.5391746
0.6193875
0.7258886
0.2671236
0.2846982
0.3048229
0.3281083
0.3553829
0.3877035
0.4265896
0.4744366
0.5348304
0.6133984
0.7217623
0.2500197
0.2653434
0.2827235
0.3026113
0.3256037
0.3524302
0.3841085
0.4222055
0.4689541
0.5277262
0.6070708
0.7110114
0.234488
0.2479127
0.263009
0.280114
0.2996644
0.3221727
0.3483353
0.3792055
0.4162176
0.4614544
0.5202771
0.5956087
0.6897026
0.2208254
0.2326932
0.2459409
0.260826
0.2776765
0.2968632
0.3188786
0.3444614
0.3745787
0.410585
0.4560689
0.512416
0.5837191
0.6679493
0.20895
0.2195493
0.2313071
0.2444255
0.2591574
0.2757791
0.2946519
0.3163155
0.3414529
0.3709939
0.4074995
0.451561
0.5060664
0.5741606
0.6512922
0.1986181
0.2081763
0.2187229
0.2304199
0.2434674
0.2580771
0.274522
0.2932112
0.3146471
0.3394968
0.3696886
0.4054
0.4485968
0.5017833
0.5676575
0.1895824
0.198277
0.207827
0.2183647
0.2300522
0.2430552
0.2575861
0.2739641
0.2925715
0.3139061
0.3394802
0.369254
0.4046058
0.4472754
0.4996568
0.6308973
0.5694015
0.6463121
0.5125243
0.5822139
0.666747
0.465393
0.522641
0.5962846
0.6894599
0.4244972
0.4714466
0.5306561
0.6075467
0.7077247
0.38885
0.4276998
0.4756034
0.5362357
0.615491
0.7202102
0.357901
0.3904231
0.4297418
0.4783111
0.5399464
0.6205991
0.7278896
0.3310037
0.358549
0.3912984
0.4309314
0.4799536
0.5420811
0.6233687
0.7321756
0.3074949
0.3310755
0.3587165
0.391597
0.4314166
0.4805635
0.5427536
0.6243096
0.7336286
0.286771
0.3071453
0.330739
0.3584013
0.3913172
0.4310753
0.4800443
0.5420932
0.6234138
0.7322249
0.2683049
0.2860428
0.306368
0.329904
0.3574982
0.3902356
0.4296808
0.4783068
0.5398517
0.6203329
0.7329668
0.2516383
0.2671702
0.2848028
0.3050014
0.3283831
0.3557055
0.3880293
0.426993
0.4749497
0.5355074
0.6179789
0.72902
0.236405
0.2500603
0.2654338
0.2828762
0.3028433
0.325872
0.352696
0.3844299
0.4226023
0.4694569
0.5309359
0.6114972
0.7196508
0.2224702
0.2345227
0.2479893
0.2631372
0.2803066
0.299884
0.3223854
0.3485856
0.3795049
0.4165829
0.463677
0.52263
0.5986106
0.6937551
0.2101318
0.2208556
0.2327595
0.2460507
0.2609896
0.2778611
0.2970388
0.3190813
0.3446984
0.3748601
0.4122424
0.4575656
0.513977
0.5852368
0.6691342
0.1993462
0.2089768
0.2196077
0.2314033
0.2445676
0.2593163
0.2759286
0.294822
0.3165113
0.3416811
0.372307
0.4086037
0.452616
0.5069891
0.574786
0.189916
0.1986422
0.2082285
0.2188084
0.2305454
0.2436068
0.2582069
0.2746683
0.2933776
0.3148382
0.3405787
0.3705681
0.4062071
0.4492698
0.5022158
0.1816335
0.1896042
0.1983242
0.2079039
0.218477
0.2301761
0.2431699
0.2577142
0.2741084
0.2927355
0.314822
0.3402105
0.3699089
0.405137
0.4476056
0.6209618
0.5596655
0.6311991
0.5032605
0.5696378
0.6469444
0.4576766
0.5127119
0.5827091
0.6677737
0.4197688
0.4655473
0.5230347
0.5970767
0.6909766
0.3863258
0.4246228
0.4717576
0.5312568
0.6086351
0.7093313
0.3566719
0.3889528
0.4279481
0.4760674
0.5370381
0.6165925
0.7216086
0.3305259
0.3579863
0.3906251
0.4301096
0.478925
0.5407471
0.6215317
0.7293225
0.3074949
0.3310755
0.3587165
0.391597
0.4314166
0.4805635
0.5427536
0.6243096
0.7336286
0.2871286
0.3075563
0.3312167
0.3589641
0.3919907
0.4318979
0.4810742
0.5434293
0.6252557
0.735093
0.2689914
0.2868242
0.3072662
0.3309479
0.3587278
0.3917077
0.4314782
0.4805573
0.5427718
0.6243633
0.7393739
0.2526848
0.2683515
0.2861475
0.3065469
0.3301796
0.357822
0.3905627
0.4300859
0.4788225
0.5405335
0.6249651
0.7400637
0.2378499
0.2516794
0.2672618
0.2849577
0.3052371
0.3286559
0.3559764
0.3883577
0.4273997
0.4754671
0.538829
0.6225542
0.7377902
0.2241934
0.2364412
0.2501402
0.2655677
0.2830778
0.3030737
0.3260972
0.3529639
0.3847539
0.4230023
0.4719228
0.5341559
0.616829
0.7308173
0.2116195
0.2225013
0.234591
0.2481028
0.2633063
0.2804977
0.300067
0.3225979
0.3488358
0.3798042
0.4183592
0.4654941
0.5248338
0.6012113
0.6965525
0.2004208
0.210159
0.220915
0.2328576
0.2461958
0.261152
0.2780142
0.2972136
0.319283
0.3449343
0.3762228
0.4134428
0.4587779
0.5151047
0.5860519
0.1905812
0.1993705
0.2090296
0.2196942
0.2315303
0.2447087
0.2594479
0.276077
0.294991
0.3167057
0.3427837
0.3732165
0.4094522
0.4533358
0.5074586
0.1819396
0.1899379
0.1986896
0.2083058
0.2189214
0.2306701
0.2437221
0.2583359
0.2748136
0.2935427
0.3157615
0.3413177
0.3712338
0.4067495
0.4496083
0.1743202
0.1816535
0.1896473
0.1983941
0.2080056
0.2185886
0.2302787
0.2432837
0.2578414
0.2742516
0.2935274
0.3154453
0.340761
0.3703474
0.4054035
0.6160741
0.5531928
0.6212504
0.4960466
0.5598904
0.6317889
0.4504362
0.5034375
0.5701
0.6478756
0.4135622
0.4578216
0.5130792
0.5834391
0.6691253
0.3824404
0.4198914
0.4658499
0.5236158
0.5981202
0.6924824
0.3545602
0.3864279
0.4248692
0.472217
0.5320482
0.6097152
0.7106865
0.3294819
0.3567571
0.3891545
0.428315
0.4766789
0.537834
0.6175174
0.7230211
0.3070838
0.3305977
0.3581538
0.3909236
0.4305944
0.479534
0.5414183
0.6224699
0.7307676
0.2871286
0.3075563
0.3312167
0.3589641
0.3919907
0.4318979
0.4810742
0.5434293
0.6252557
0.735093
0.2693054
0.2871818
0.3076771
0.3314256
0.3592906
0.3923814
0.4323009
0.4815873
0.5441084
0.6262068
0.7422715
0.2532927
0.2690379
0.2869289
0.307445
0.3312235
0.3590518
0.3920348
0.4318832
0.481073
0.5434542
0.6290099
0.7463092
0.2387836
0.2527259
0.2684432
0.2863026
0.306783
0.3304532
0.3580936
0.3908919
0.4304936
0.4793416
0.5438728
0.6294018
0.7482688
0.2254912
0.2378864
0.2517603
0.2673974
0.2851621
0.305471
0.328885
0.3562495
0.3886888
0.4278097
0.4780049
0.5421317
0.6278773
0.748249
0.213177
0.2242257
0.2365123
0.2502586
0.2657445
0.2832779
0.3032671
0.3263242
0.3532339
0.3850804
0.4249636
0.4743937
0.5380168
0.6234946
0.7460213
0.2017729
0.2116475
0.2225626
0.2346922
0.2482526
0.2634743
0.280657
0.3002499
0.3228104
0.3490858
0.3812595
0.41981
0.4671943
0.5267362
0.6029642
0.1915627
0.2004456
0.2102128
0.2210032
0.2329871
0.2463398
0.2612867
0.2781665
0.2973874
0.3194837
0.3460761
0.3772087
0.4144144
0.4596529
0.5157095
0.1825497
0.1906033
0.1994184
0.2091078
0.2198084
0.2316565
0.2448255
0.2595787
0.2762245
0.295159
0.3176457
0.3435468
0.3739151
0.410031
0.453702
0.174602
0.1819597
0.1899812
0.1987599
0.208408
0.2190336
0.2307732
0.2438366
0.2584639
0.2749579
0.2943406
0.3163919
0.341877
0.3716811
0.4070222
0.1675694
0.1743386
0.181693
0.1897111
0.1984866
0.2081065
0.2186809
0.2303805
0.2433967
0.2579676
0.2749434
0.294066
0.3159151
0.3411295
0.3705672
0.5499886
0.6163565
0.4912346
0.5534106
0.6218144
0.4447762
0.4962166
0.5603303
0.6326575
0.4077186
0.450574
0.5037842
0.5707812
0.6491014
0.3773288
0.4136781
0.4581059
0.5136211
0.5844003
0.6704664
0.3513061
0.3825404
0.420132
0.4662967
0.5243814
0.5991556
0.6937523
0.3276876
0.354645
0.3866285
0.4252333
0.4728223
0.5328334
0.6106237
0.7120579
0.3061856
0.3295538
0.3569244
0.3894526
0.4287986
0.4772855
0.538502
0.6184491
0.7244477
0.286771
0.3071453
0.330739
0.3584013
0.3913172
0.4310753
0.4800443
0.5420932
0.6234138
0.7322249
0.2693054
0.2871818
0.3076771
0.3314256
0.3592906
0.3923814
0.4323009
0.4815873
0.5441084
0.6262068
0.7422715
0.2535707
0.2693519
0.2872864
0.3078558
0.3317011
0.3596146
0.3927084
0.4327057
0.4821028
0.5447908
0.6308585
0.7491291
0.2393258
0.2533337
0.2691294
0.2870838
0.3076809
0.331497
0.3593232
0.3923635
0.4322903
0.4815914
0.5467922
0.6333285
0.7541094
0.2263295
0.2388201
0.2528068
0.2685789
0.2865072
0.3070174
0.3306826
0.3583669
0.3912231
0.4309039
0.4818835
0.5470599
0.6343469
0.7575941
0.2143493
0.225524
0.2379584
0.2518802
0.2675765
0.285365
0.3056675
0.329116
0.3565248
0.3890225
0.4298203
0.4805264
0.5459614
0.6340271
0.7605431
0.2031876
0.2132061
0.2242896
0.2366178
0.250415
0.2659201
0.283446
0.3034621
0.3265529
0.353506
0.3866814
0.4269281
0.4773537
0.542821
0.6323267
0.7723796
0.192797
0.2017984
0.2117028
0.2226534
0.2348258
0.2484013
0.2636141
0.2808161
0.3004327
0.3230227
0.3503018
0.3824473
0.4211669
0.4686608
0.5280151
0.1834497
0.1915852
0.2004943
0.2102924
0.2211195
0.2331157
0.2464592
0.2614206
0.278318
0.2975605
0.3204553
0.3469016
0.3780065
0.4151155
0.4601222
0.1751636
0.18257
0.190647
0.1994894
0.209211
0.2199218
0.2317609
0.2449416
0.2597085
0.276371
0.2959703
0.3182958
0.3441328
0.3743914
0.4103253
0.1678297
0.1746205
0.1819993
0.1900454
0.1988527
0.2085095
0.2191264
0.2308756
0.2439503
0.258591
0.2756546
0.2948851
0.3168688
0.3422526
0.3719059
0.1613191
0.1675864
0.1743749
0.1817515
0.1897955
0.1985783
0.20819
0.2187725
0.2304816
0.2435089
0.2585774
0.2754137
0.2944718
0.3162294
0.3413143
0.488847
0.550203
0.6169084
0.4409898
0.4914001
0.5538368
0.6226452
0.4031363
0.4449092
0.4965493
0.5609788
0.6338007
0.3725027
0.4078291
0.450844
0.5042955
0.5716781
0.650317
0.3470171
0.3774236
0.4139052
0.4585255
0.5143349
0.5853537
0.6715869
0.3249199
0.3513893
0.3827367
0.4204875
0.4668855
0.525141
0.6000262
0.695037
0.3046409
0.3277592
0.3548116
0.3869248
0.4257132
0.4734229
0.5334934
0.6115403
0.7134457
0.2859895
0.3062471
0.3296951
0.3571718
0.3898456
0.4292784
0.4777945
0.5391746
0.6193875
0.7258886
0.2689914
0.2868242
0.3072662
0.3309479
0.3587278
0.3917077
0.4314782
0.4805573
0.5427718
0.6243633
0.7393739
0.2535707
0.2693519
0.2872864
0.3078558
0.3317011
0.3596146
0.3927084
0.4327057
0.4821028
0.5447908
0.6308585
0.7491291
0.2395738
0.2536117
0.2694433
0.2874411
0.3080917
0.3319745
0.3598857
0.3930368
0.4331123
0.4826208
0.5481269
0.6351217
0.7567465
0.2268163
0.2393622
0.2534145
0.269265
0.2872882
0.3079151
0.3317261
0.3595959
0.3926939
0.4326994
0.4841267
0.5498854
0.6380152
0.7627682
0.2151062
0.2263622
0.2388921
0.2529266
0.2687581
0.2867104
0.3072139
0.3309134
0.3586419
0.3915564
0.4329126
0.4843081
0.5506035
0.63979
0.7680045
0.2042518
0.2143788
0.2255885
0.2380651
0.2520384
0.2677544
0.2855355
0.3058655
0.3293487
0.3568022
0.390659
0.4318177
0.4834485
0.5503706
0.6410571
0.7772278
0.1940876
0.203214
0.2132637
0.2243841
0.2367572
0.2505703
0.2660675
0.2836153
0.3036584
0.3267833
0.3548399
0.3882848
0.4292808
0.4810312
0.5491549
0.6473199
0.7873152
0.1845808
0.1928201
0.2018485
0.2117848
0.2227733
0.2349585
0.2485252
0.2637539
0.2809751
0.3006153
0.324055
0.3512938
0.383558
0.4223369
0.4696462
0.1759917
0.1834703
0.1916297
0.2005666
0.2103975
0.2212351
0.2332223
0.246578
0.2615539
0.2784688
0.2983978
0.3211573
0.3475693
0.378582
0.4154913
0.1683483
0.1751822
0.18261
0.1907118
0.1995832
0.2093136
0.2200157
0.2318646
0.2450568
0.2598375
0.2770789
0.2965312
0.3187949
0.3445323
0.3746336
0.1615602
0.1678467
0.1746569
0.1820581
0.1901301
0.198945
0.2085934
0.2192185
0.2309773
0.2440632
0.2592049
0.2761298
0.2952968
0.317189
0.3424414
0.1555161
0.1613348
0.1676199
0.1744287
0.1818289
0.1898793
0.1986543
0.2082729
0.2188635
0.2305819
0.2440505
0.2589918
0.2757679
0.2947433
0.316387
0.4391074
0.4890104
0.5506226
0.6177214
0.4000636
0.4411197
0.4917242
0.5544651
0.6237387
0.368709
0.4032433
0.4451697
0.4970401
0.5618326
0.6349345
0.3429587
0.3725935
0.4080459
0.4512425
0.5049688
0.5725675
0.6513275
0.3212662
0.3470963
0.3776097
0.4142407
0.4590783
0.5150427
0.5861489
0.6727102
0.3022563
0.3249903
0.3515529
0.3830269
0.4209562
0.4674697
0.5257794
0.6009045
0.6963369
0.2846451
0.3047022
0.3279
0.355058
0.3873156
0.4261895
0.4739277
0.5341591
0.6124652
0.7148501
0.2683049
0.2860428
0.306368
0.329904
0.3574982
0.3902356
0.4296808
0.4783068
0.5398517
0.6203329
0.7329668
0.2532927
0.2690379
0.2869289
0.307445
0.3312235
0.3590518
0.3920348
0.4318832
0.481073
0.5434542
0.6290099
0.7463092
0.2395738
0.2536117
0.2694433
0.2874411
0.3080917
0.3319745
0.3598857
0.3930368
0.4331123
0.4826208
0.5481269
0.6351217
0.7567465
0.2270388
0.2396102
0.2536924
0.2695787
0.2876454
0.3083257
0.3322033
0.3601581
0.3933667
0.4335208
0.4851522
0.5511764
0.6396931
0.76512
0.2155456
0.2268489
0.2394341
0.2535341
0.2694439
0.2874912
0.3081113
0.3319562
0.3598699
0.3930259
0.4346999
0.4864748
0.5532362
0.6430524
0.7722547
0.2049387
0.2151357
0.2264267
0.2389987
0.2530849
0.268936
0.2868808
0.3074117
0.3311457
0.3589186
0.3931881
0.4348282
0.4870031
0.5544944
0.6456905
0.7815368
0.195058
0.2042785
0.2144369
0.225684
0.238206
0.2521956
0.2679037
0.2857073
0.3060651
0.3295833
0.3581625
0.3922847
0.4341321
0.4868091
0.5553932
0.6503544
0.7894359
0.185763
0.1941116
0.2032662
0.213349
0.2245091
0.2368956
0.2507007
0.266216
0.2837859
0.3038563
0.3279132
0.3561757
0.3902047
0.4322011
0.4858684
0.5598509
0.6563619
0.7985744
0.1770321
0.184602
0.1928658
0.2019229
0.2118931
0.2228925
0.235069
0.248649
0.2638936
0.281134
0.3015035
0.3248968
0.3522212
0.3845154
0.423123
0.1691127
0.1760106
0.183511
0.1916956
0.200662
0.2105019
0.2213309
0.2333284
0.2466962
0.2616865
0.2791984
0.2990026
0.321725
0.348051
0.3788906
0.1620405
0.1683655
0.175219
0.1826694
0.1907975
0.1996764
0.2093985
0.220109
0.2319676
0.2451713
0.2604608
0.277568
0.2969617
0.319135
0.3447353
0.1557401
0.161576
0.1678803
0.174711
0.1821358
0.1902143
0.1990213
0.2086768
0.21931
0.2310783
0.2446084
0.2596234
0.2764891
0.2955732
0.3173499
0.1501146
0.1555307
0.1613658
0.1676695
0.1744998
0.1819057
0.1899487
0.1987297
0.2083552
0.2189538
0.2310664
0.2444185
0.2593039
0.2760049
0.2948793
0.3985336
0.4392358
0.4893304
0.5512412
0.6187916
0.3661603
0.4001685
0.4413743
0.4922023
0.5552922
0.6248231
0.3397619
0.3687972
0.4034533
0.4455541
0.4976864
0.5626792
0.6358752
0.3178024
0.3430347
0.3727717
0.408366
0.4517674
0.5056364
0.5733061
0.6523351
0.2991042
0.3213333
0.3472517
0.3778846
0.4146829
0.4596265
0.5156329
0.5869447
0.6738362
0.282568
0.3023167
0.3251287
0.3517947
0.3834097
0.4214212
0.4679606
0.526423
0.6017904
0.697652
0.2671236
0.2846982
0.3048229
0.3281083
0.3553829
0.3877035
0.4265896
0.4744366
0.5348304
0.6133984
0.7217623
0.2526848
0.2683515
0.2861475
0.3065469
0.3301796
0.357822
0.3905627
0.4300859
0.4788225
0.5405335
0.6249651
0.7400637
0.2393258
0.2533337
0.2691294
0.2870838
0.3076809
0.331497
0.3593232
0.3923635
0.4322903
0.4815914
0.5467922
0.6333285
0.7541094
0.2270388
0.2396102
0.2536924
0.2695787
0.2876454
0.3083257
0.3322033
0.3601581
0.3933667
0.4335208
0.4851522
0.5511764
0.6396931
0.76512
0.2157465
0.2270714
0.2396819
0.2538119
0.2697575
0.2878482
0.3085216
0.3324331
0.3604316
0.393698
0.4355167
0.4874647
0.5544413
0.6445587
0.774231
0.2053373
0.215575
0.2269132
0.2395405
0.2536921
0.2696215
0.2876611
0.3083083
0.3321875
0.3601453
0.3946491
0.4365522
0.489018
0.5568309
0.6484074
0.7844608
0.1956841
0.2049653
0.2151937
0.2265222
0.2391395
0.2532421
0.2690852
0.2870522
0.3076106
0.3313793
0.3602729
0.3947442
0.4369575
0.48996
0.558702
0.6531463
0.7919141
0.1866515
0.1950823
0.2043311
0.214523
0.2258103
0.238346
0.2523276
0.2680543
0.2858804
0.3062662
0.3307334
0.3595139
0.3941682
0.4367921
0.490631
0.562014
0.6578327
0.7996551
0.1781189
0.185785
0.1941591
0.2033435
0.2134617
0.2246332
0.2370118
0.2508321
0.2663656
0.2839577
0.3048265
0.3290445
0.3577749
0.3925863
0.4360367
0.4940127
0.5662692
0.6636948
0.8073338
0.1700728
0.1770515
0.1846438
0.1929336
0.2020211
0.2120007
0.2229917
0.2351794
0.2487727
0.2640332
0.2819067
0.3022274
0.3256838
0.3530205
0.3851586
0.1627483
0.1691302
0.176048
0.1835713
0.1917826
0.2007569
0.2105885
0.2214263
0.2334339
0.2468137
0.2623282
0.2797252
0.2994916
0.3221345
0.3483092
0.1561862
0.1620564
0.1683994
0.1752736
0.1827478
0.1908825
0.1997536
0.2094828
0.2202016
0.2320699
0.2457244
0.2608913
0.2779434
0.297255
0.3193079
0.1503232
0.1557547
0.1616071
0.1679302
0.1747824
0.182213
0.190284
0.1990971
0.2087595
0.2194008
0.2315657
0.24498
0.2599398
0.2767303
0.2957121
0.1450749
0.1501282
0.1555595
0.1614118
0.1677352
0.1745705
0.1819693
0.1900175
0.1988045
0.2084369
0.2193897
0.2313955
0.2446956
0.2595126
0.2761237
0.3648896
0.3986375
0.4394876
0.4898023
0.5520556
0.6198529
0.3376109
0.3662468
0.4003741
0.4417501
0.4928318
0.5561123
0.6257223
0.3150695
0.3398358
0.3689702
0.4037632
0.4460606
0.4983272
0.5633811
0.6368114
0.2961112
0.317867
0.3431839
0.373035
0.4087878
0.452288
0.5061907
0.5740419
0.6533398
0.2798194
0.2991618
0.3214652
0.3474814
0.378247
0.4151214
0.4600835
0.5162232
0.587741
0.6749647
0.2652975
0.2826204
0.3024355
0.3253335
0.3521136
0.3837895
0.4218118
0.4684553
0.5270719
0.6026842
0.7041248
0.2516383
0.2671702
0.2848028
0.3050014
0.3283831
0.3557055
0.3880293
0.426993
0.4749497
0.5355074
0.6179789
0.72902
0.2387836
0.2527259
0.2684432
0.2863026
0.306783
0.3304532
0.3580936
0.3908919
0.4304936
0.4793416
0.5438728
0.6294018
0.7482688
0.2268163
0.2393622
0.2534145
0.269265
0.2872882
0.3079151
0.3317261
0.3595959
0.3926939
0.4326994
0.4841267
0.5498854
0.6380152
0.7627682
0.2157465
0.2270714
0.2396819
0.2538119
0.2697575
0.2878482
0.3085216
0.3324331
0.3604316
0.393698
0.4355167
0.4874647
0.5544413
0.6445587
0.774231
0.2055196
0.2157758
0.2271356
0.2397882
0.2539697
0.2699349
0.2880179
0.3087183
0.3326639
0.3607062
0.3953167
0.4373397
0.4899403
0.5579108
0.6496942
0.7859156
0.1960474
0.2053639
0.2156328
0.2270084
0.239681
0.253849
0.2697703
0.2878318
0.3085063
0.3324199
0.3614914
0.3961519
0.4385586
0.4917452
0.5606457
0.6550984
0.7938411
0.1872246
0.1957084
0.2050179
0.2152797
0.2266483
0.2392794
0.2533739
0.2692353
0.2872246
0.3078107
0.332523
0.3615644
0.3964737
0.4392928
0.4931543
0.5640075
0.6595856
0.8011075
0.1789354
0.1866737
0.1951302
0.2044092
0.2146369
0.2259358
0.2384635
0.2524607
0.2682059
0.2860549
0.3072522
0.3318758
0.3610794
0.396332
0.439814
0.4956595
0.5673287
0.6645858
0.8079809
0.1710753
0.1781391
0.1858284
0.1942295
0.2034457
0.2135737
0.2247375
0.2371288
0.2509645
0.2665164
0.2848004
0.3057979
0.3303989
0.3597578
0.395711
0.4424808
0.4988738
0.5714738
0.6697777
0.8141788
0.163637
0.1700908
0.1770899
0.1847058
0.1930231
0.2021187
0.2120902
0.2230908
0.2352898
0.2488963
0.2647117
0.2825363
0.3029041
0.326362
0.3535575
0.1568433
0.1627645
0.1691646
0.1761034
0.183651
0.1918692
0.2008355
0.2106747
0.2215211
0.2335389
0.2473827
0.2627913
0.280151
0.2998442
0.322354
0.1507385
0.1562009
0.1620878
0.1684497
0.1753457
0.1828258
0.1909529
0.1998302
0.2095666
0.2202936
0.2325642
0.2461063
0.2612216
0.2781991
0.2974041
0.1452696
0.1503368
0.1557836
0.1616532
0.1679962
0.1748534
0.1822769
0.1903532
0.1991723
0.2088417
0.2198393
0.2318979
0.2452608
0.2601522
0.2768515
0.1403624
0.1450875
0.1501549
0.1556021
0.1614725
0.1678004
0.174629
0.1820324
0.1900858
0.1988787
0.2088313
0.2196857
0.2316432
0.244881
0.2596172
0.3365374
0.3649754
0.3988411
0.4398592
0.4904239
0.5528631
0.6207328
0.3132282
0.3376836
0.3664167
0.4006779
0.4422451
0.4934561
0.5567921
0.6266168
0.2937463
0.3151325
0.3399811
0.3692259
0.4041717
0.4465628
0.4988584
0.5640794
0.6377431
0.2772059
0.2961668
0.317994
0.3434045
0.373382
0.4092062
0.45272
0.5067426
0.574775
0.6543414
0.2628785
0.2798695
0.2992753
0.3216602
0.3477843
0.3786065
0.4154869
0.4605405
0.5168136
0.5885378
0.6804668
0.2500197
0.2653434
0.2827235
0.3026113
0.3256037
0.3524302
0.3841085
0.4222055
0.4689541
0.5277262
0.6070708
0.7110114
0.2378499
0.2516794
0.2672618
0.2849577
0.3052371
0.3286559
0.3559764
0.3883577
0.4273997
0.4754671
0.538829
0.6225542
0.7377902
0.2263295
0.2388201
0.2528068
0.2685789
0.2865072
0.3070174
0.3306826
0.3583669
0.3912231
0.4309039
0.4818835
0.5470599
0.6343469
0.7575941
0.2155456
0.2268489
0.2394341
0.2535341
0.2694439
0.2874912
0.3081113
0.3319562
0.3598699
0.3930259
0.4346999
0.4864748
0.5532362
0.6430524
0.7722547
0.2055196
0.2157758
0.2271356
0.2397882
0.2539697
0.2699349
0.2880179
0.3087183
0.3326639
0.3607062
0.3953167
0.4373397
0.4899403
0.5579108
0.6496942
0.7859156
0.1962135
0.2055461
0.2158336
0.2272308
0.2399285
0.2541264
0.2700834
0.2881882
0.3089158
0.3328956
0.362048
0.3967948
0.4392914
0.4925703
0.5615676
0.6560882
0.7948635
0.1875571
0.1960716
0.2054163
0.2157187
0.2271343
0.2398206
0.2539803
0.2699197
0.2880034
0.3087052
0.3335558
0.3627375
0.3977798
0.4407096
0.4946372
0.5654051
0.6609778
0.8023435
0.1794619
0.1872468
0.1957562
0.2050958
0.2153934
0.2267737
0.2393967
0.2535064
0.2693863
0.2873981
0.3087902
0.3336134
0.3629999
0.3983702
0.441814
0.4971772
0.5685922
0.6657713
0.8088948
0.1718282
0.1789558
0.1867175
0.1952012
0.2045123
0.21475
0.2260411
0.238582
0.2525947
0.2683588
0.2869102
0.3082317
0.3331994
0.3628774
0.3987883
0.4437846
0.4996836
0.5721294
0.6704344
0.8146298
0.1645645
0.1710939
0.1781789
0.1858928
0.1943226
0.2035472
0.2136677
0.2248425
0.2372468
0.2510978
0.2672554
0.285644
0.3069606
0.3320776
0.3623572
0.4009517
0.4463122
0.5028051
0.5757927
0.6747751
0.8194488
0.1576682
0.1636536
0.1701261
0.1771469
0.1847878
0.1931121
0.2022
0.2121797
0.2231899
0.2354
0.2494973
0.2652646
0.2831248
0.3034873
0.3268176
0.1513502
0.1568583
0.1627963
0.1692158
0.1761767
0.1837303
0.1919409
0.2009137
0.2107603
0.2216154
0.2340469
0.2477932
0.2631657
0.2804581