/*--------------------------------*- C++ -*----------------------------------*\
| =========                 |                                                 |
| \\      /  F ield         | OpenFOAM: The Open Source CFD Toolbox           |
|  \\    /   O peration     | Version:  2306                                  |
|   \\  /    A nd           | Website:  www.openfoam.com                      |
|    \\/     M anipulation  |                                                 |
\*---------------------------------------------------------------------------*/
FoamFile
{
    version     2.0;
    format      ascii;
    arch        "LSB;label=32;scalar=64";
    class       volScalarField;
    location    "0.9/fuel";
    object      H2O;
}
// * * * * * * * * * * * * * * * * * * * * * * * * * * * * * * * * * * * * * //

dimensions      [0 0 0 0 0 0 0];

internalField   nonuniform List<scalar> 
16000
(
0.3839446
0.3790568
0.4500302
0.3836623
0.3691208
0.4468259
0.3787682
0.511171
0.4498158
0.3831104
0.354029
0.4403529
0.368819
0.5087834
0.446608
0.3782042
0.5609096
0.5110077
0.4493961
0.3822973
0.3343234
0.4306166
0.3537053
0.5039712
0.440128
0.3682293
0.5590272
0.5086179
0.4461818
0.3773733
0.6014823
0.5607812
0.5106877
0.4487775
0.3812271
0.312888
0.4180568
0.3339666
0.4967572
0.4303803
0.353073
0.5552407
0.5038013
0.4396881
0.3673606
0.5999523
0.5588973
0.5082938
0.4455536
0.3762798
0.6351252
0.6013785
0.5605294
0.5102157
0.4479631
0.3801658
0.2963964
0.404544
0.3124882
0.4874931
0.4178037
0.3332696
0.5495806
0.4965801
0.4299181
0.3521418
0.5968796
0.5551077
0.5034685
0.4390395
0.3662173
0.6338546
0.5998474
0.5586427
0.5078157
0.4447264
0.3751953
0.6634765
0.6350395
0.6011748
0.5601578
0.5095941
0.4471555
0.3792858
0.2857113
0.3941429
0.2959698
0.477577
0.4042695
0.3117069
0.5423401
0.4873055
0.4173084
0.3322428
0.5922972
0.5494428
0.4962334
0.4292368
0.350916
0.6313058
0.5967725
0.5548472
0.5029777
0.4381858
0.3650835
0.662403
0.633768
0.5996418
0.5582669
0.5071861
0.4439063
0.374296
0.6877044
0.6634043
0.6348711
0.6008741
0.5596683
0.5089778
0.4464862
0.3784105
0.2795559
0.387342
0.2852698
0.4699755
0.3938565
0.2951361
0.5346234
0.477376
0.4037324
0.3105555
0.5864535
0.5421951
0.4869381
0.4165784
0.3308911
0.6275121
0.5921867
0.5491728
0.4957221
0.4283399
0.3497003
0.660252
0.6312177
0.5965626
0.5544628
0.5023314
0.4373392
0.3641428
0.6867846
0.6623302
0.6335981
0.5993381
0.5577719
0.5065618
0.4432265
0.3734015
0.7086579
0.6876428
0.6632627
0.6346224
0.6004779
0.5591828
0.5084671
0.4458208
0.3775399
0.2767674
0.3833735
0.2791065
0.4650134
0.3870498
0.2844076
0.5287284
0.4697677
0.3932961
0.2939077
0.5802468
0.5344691
0.4769823
0.4029402
0.3090387
0.622686
0.5863377
0.5419108
0.4863962
0.4156171
0.32955
0.6570551
0.6274213
0.5919699
0.5487743
0.4950488
0.4274505
0.3486898
0.6849434
0.660178
0.6310446
0.5962526
0.5539563
0.5016906
0.4366372
0.3632065
0.7078606
0.6867226
0.6621874
0.6333472
0.5989379
0.557281
0.5060446
0.4425505
0.3725117
0.7269664
0.7086047
0.6875219
0.6630533
0.6342947
0.6000849
0.5587808
0.5079596
0.4451592
0.3766742
0.2767674
0.3815562
0.2763144
0.4621175
0.3830783
0.2782289
0.5248875
0.4648026
0.3864781
0.2831374
0.5755184
0.5285698
0.4693606
0.3924698
0.2922896
0.6175743
0.5801242
0.5341666
0.4764012
0.4018967
0.3075329
0.6529967
0.6225912
0.5861105
0.5414912
0.4856824
0.4146638
0.3284294
0.6822104
0.6569791
0.6272431
0.5916498
0.5482493
0.4943811
0.4267118
0.3476821
0.7062657
0.6848804
0.6600327
0.630789
0.5958442
0.5534541
0.5011594
0.4359389
0.3622748
0.7262683
0.7078071
0.6866008
0.6619763
0.6330164
0.598541
0.5568744
0.5055305
0.4418785
0.3716268
0.7431066
0.72692
0.7085002
0.6873431
0.6627773
0.6339695
0.5997595
0.5583812
0.5074553
0.4445015
0.3724864
0.2795559
0.3815562
0.2763144
0.4607907
0.3812598
0.27543
0.5226475
0.4619055
0.3825009
0.2769364
0.5724423
0.5247272
0.4643898
0.3856352
0.2814644
0.6136889
0.5753928
0.5282587
0.46876
0.3913813
0.2906831
0.6487077
0.6174743
0.5798836
0.5337198
0.4756356
0.4008613
0.3062629
0.6787467
0.6529175
0.6224051
0.585775
0.5409384
0.4849746
0.4138685
0.3273061
0.7039008
0.6821458
0.6568299
0.6269798
0.591228
0.5477288
0.4938269
0.425976
0.3466774
0.7248727
0.7062113
0.6847566
0.659818
0.6304521
0.5954391
0.553038
0.5006312
0.4352443
0.3613476
0.74249
0.7262216
0.7077018
0.6864206
0.661698
0.6326884
0.5982123
0.5564704
0.5050195
0.4412104
0.3673458
0.7574458
0.7430657
0.7268287
0.7083456
0.6871073
0.6625035
0.6337003
0.5994362
0.5579843
0.506954
0.4413213
0.3696068
0.2857113
0.3833735
0.2791065
0.4607907
0.3812598
0.27543
0.5216213
0.460578
0.38068
0.2741276
0.5706496
0.5224865
0.4614901
0.3816498
0.2752341
0.6111646
0.5723157
0.5244129
0.4637808
0.3845251
0.2798034
0.6454536
0.6135867
0.5751463
0.5277994
0.4679686
0.3903012
0.2893278
0.675093
0.6486245
0.617278
0.5795281
0.533131
0.474876
0.3999906
0.3049782
0.7009078
0.6786796
0.6527621
0.6221302
0.5853329
0.5403901
0.4843844
0.4130727
0.3261801
0.7228052
0.7038452
0.6820189
0.6566093
0.6266328
0.5908096
0.5472968
0.4932749
0.4252429
0.3456757
0.7412581
0.7248253
0.7061045
0.6845736
0.659535
0.6301179
0.5951036
0.5526242
0.500106
0.4345535
0.3568599
0.7568972
0.7424489
0.7261297
0.7075461
0.686183
0.661422
0.6324167
0.5978857
0.5560689
0.5045117
0.4379795
0.3643889
0.7702723
0.7574096
0.7429853
0.7266937
0.7081417
0.6868733
0.6622769
0.6334329
0.5991151
0.5575899
0.5045311
0.4391412
0.3674246
0.2963964
0.387342
0.2852698
0.4621175
0.3830783
0.2782289
0.5216213
0.460578
0.38068
0.2741276
0.5698285
0.5214601
0.4601616
0.3798253
0.2724124
0.6096945
0.5705227
0.5221709
0.4608773
0.3805289
0.2735443
0.6433419
0.6110619
0.5720674
0.5239488
0.4629785
0.3834236
0.2784049
0.6723253
0.6453688
0.6133862
0.5747823
0.527194
0.4671833
0.3893927
0.2879563
0.6977558
0.6750226
0.6484609
0.6169878
0.5790595
0.5325467
0.4742376
0.3991124
0.3036783
0.7201918
0.7008502
0.6785477
0.6525324
0.6217678
0.5848943
0.5399331
0.4837941
0.4122764
0.3250515
0.7394346
0.7227568
0.7037358
0.6818312
0.6563184
0.6262887
0.5904625
0.5468667
0.4927253
0.4245127
0.3408183
0.7558014
0.7412164
0.7247322
0.7059465
0.6843322
0.6592542
0.629841
0.59477
0.552213
0.4995838
0.4312116
0.3537085
0.7697808
0.7568607
0.742368
0.7259938
0.7073408
0.6859473
0.6611934
0.6321469
0.5975613
0.55567
0.5020567
0.4357569
0.3621374
0.7818151
0.7702399
0.7573382
0.7428663
0.7265155
0.7079393
0.6866797
0.6620517
0.6331673
0.5987961
0.555684
0.5028738
0.4374922
0.3659584
0.312888
0.3941429
0.2959698
0.4650134
0.3870498
0.2844076
0.5226475
0.4619055
0.3825009
0.2769364
0.5698285
0.5214601
0.4601616
0.3798253
0.2724124
0.6090212
0.5697014
0.521144
0.4595473
0.3786997
0.2707096
0.6421127
0.6095916
0.5702737
0.5217051
0.4600701
0.3794167
0.2721235
0.6705309
0.6432567
0.6108602
0.5717005
0.5233373
0.4621825
0.3824986
0.2769924
0.6953711
0.6722537
0.6452022
0.6130899
0.5743023
0.5265934
0.4665233
0.3884761
0.2865684
0.7174432
0.6976954
0.6748842
0.6482191
0.6166051
0.5785944
0.5320559
0.473594
0.3982264
0.3023631
0.7371319
0.7201417
0.7007368
0.6783526
0.6522295
0.6214083
0.5845288
0.5394761
0.4832037
0.4114796
0.3195492
0.7541807
0.739392
0.7226615
0.703574
0.6815836
0.6560299
0.6260032
0.590117
0.5464384
0.492178
0.4209746
0.3372193
0.7687997
0.7557645
0.7411344
0.7245944
0.7057381
0.6840928
0.6590216
0.6295659
0.5944385
0.5518042
0.4970585
0.4288816
0.3512642
0.7813723
0.7697483
0.7567889
0.7422482
0.7258144
0.707137
0.6857521
0.6609664
0.6318788
0.597239
0.5537421
0.5003718
0.4340692
0.3606177
0.7922589
0.781786
0.7701761
0.7572324
0.7427092
0.7263387
0.7077719
0.6864874
0.6618282
0.6329036
0.5972547
0.5543825
0.5016216
0.4363858
0.3652217
0.3343234
0.404544
0.3124882
0.4699755
0.3938565
0.2951361
0.5248875
0.4648026
0.3864781
0.2831374
0.5706496
0.5224865
0.4614901
0.3816498
0.2752341
0.6090212
0.5697014
0.521144
0.4595473
0.3786997
0.2707096
0.64155
0.6089183
0.5694522
0.5206774
0.458738
0.3775829
0.269279
0.669487
0.6420275
0.6093896
0.5699059
0.5210912
0.4592693
0.3784841
0.2706906
0.6938265
0.6704591
0.6430894
0.6105621
0.5712169
0.5227307
0.4615145
0.3815669
0.2755658
0.7153662
0.6953098
0.6721129
0.6449558
0.612699
0.5738261
0.5260886
0.4658576
0.3875512
0.2851641
0.7347129
0.7173908
0.6975766
0.6746794
0.6479002
0.6162253
0.5782038
0.5315611
0.4729451
0.3973326
0.2958901
0.7521359
0.7370879
0.7200431
0.700569
0.6780954
0.6519289
0.6211087
0.5841634
0.5390191
0.4826131
0.4076013
0.3148608
0.7673493
0.754143
0.7393083
0.7225206
0.7033606
0.681338
0.6557906
0.625719
0.5897731
0.5460122
0.4895271
0.418395
0.3342489
0.7804886
0.7687667
0.7556918
0.7410131
0.7244125
0.7055313
0.6838944
0.6587905
0.6292925
0.594109
0.5498277
0.4953026
0.4270853
0.3495841
0.7918578
0.781343
0.7696841
0.7566825
0.7420902
0.7256364
0.7069683
0.6855583
0.6607409
0.6316126
0.5956817
0.5524211
0.4990941
0.4329327
0.3598516
0.8017539
0.7922325
0.7817286
0.7700815
0.7570929
0.7425533
0.7261923
0.7076056
0.6862964
0.6616062
0.6316292
0.5962033
0.5533999
0.5007822
0.4358304
0.354029
0.4180568
0.3339666
0.477577
0.4042695
0.3117069
0.5287284
0.4697677
0.3932961
0.2939077
0.5724423
0.5247272
0.4643898
0.3856352
0.2814644
0.6096945
0.5705227
0.5221709
0.4608773
0.3805289
0.2735443
0.64155
0.6089183
0.5694522
0.5206774
0.458738
0.3775829
0.269279
0.6690092
0.6414647
0.6087162
0.5690841
0.5200625
0.4579352
0.376647
0.2678372
0.6929282
0.6694152
0.64186
0.609091
0.5694211
0.5204821
0.4585981
0.3775459
0.2692455
0.7140217
0.693765
0.6703178
0.6428419
0.6101691
0.5707371
0.5222217
0.4608419
0.3806284
0.2741249
0.7328868
0.715313
0.6951892
0.6719046
0.6446308
0.6123112
0.5734259
0.5255797
0.4651863
0.3866179
0.2782516
0.74999
0.734667
0.7172877
0.6974007
0.6744092
0.6475836
0.6159063
0.5778101
0.5310623
0.4722907
0.3929458
0.2890032
0.765521
0.7520969
0.7370014
0.7198972
0.7003477
0.6778402
0.6516785
0.6208092
0.5837981
0.5385622
0.4797401
0.4044084
0.3103131
0.7791829
0.7673157
0.7540687
0.7391843
0.7223346
0.7031488
0.6811343
0.6555524
0.6254361
0.5894308
0.5439479
0.4876014
0.4162985
0.3320673
0.7910576
0.7804589
0.7687018
0.7555841
0.740853
0.724232
0.7053601
0.6836974
0.6585609
0.6290209
0.5925163
0.5484558
0.4939512
0.4258573
0.3487251
0.8013889
0.7918313
0.7812853
0.769589
0.7565422
0.7419333
0.7254891
0.7068008
0.6853658
0.660517
0.6303263
0.5946159
0.5514201
0.4982344
0.4323606
0.810424
0.80173
0.7921806
0.7816435
0.7699567
0.7569543
0.7424242
0.726047
0.7074404
0.6861068
0.6605337
0.6307608
0.5954101
0.5527415
0.500361
0.3691208
0.4306166
0.3537053
0.4874931
0.4178037
0.3332696
0.5346234
0.477376
0.4037324
0.3105555
0.5755184
0.5285698
0.4693606
0.3924698
0.2922896
0.6111646
0.5723157
0.5244129
0.4637808
0.3845251
0.2798034
0.6421127
0.6095916
0.5702737
0.5217051
0.4600701
0.3794167
0.2721235
0.6690092
0.6414647
0.6087162
0.5690841
0.5200625
0.4579352
0.376647
0.2678372
0.6925171
0.6689374
0.6412973
0.6084176
0.5685989
0.5194526
0.4572628
0.375706
0.2663842
0.7132402
0.6928668
0.6692739
0.6416124
0.6086975
0.5689401
0.5199718
0.4579232
0.376602
0.267788
0.7317055
0.7139685
0.6936441
0.6701089
0.6425156
0.6097791
0.5703346
0.5217094
0.4601647
0.379683
0.2670464
0.7483714
0.7328403
0.7152084
0.6950106
0.6716298
0.6443083
0.6119854
0.5730225
0.5250665
0.4645092
0.3820372
0.2709937
0.763604
0.7499494
0.7345766
0.717135
0.6971687
0.6741409
0.6473178
0.6155848
0.5774133
0.5305595
0.4690809
0.3885193
0.2803635
0.7775381
0.7654863
0.7520203
0.7368732
0.7197046
0.700128
0.6776275
0.6514282
0.6205099
0.5834329
0.5363396
0.4773871
0.4014064
0.3062604
0.7898759
0.7791527
0.7672495
0.7539589
0.7390207
0.72215
0.7029732
0.6809316
0.6553154
0.6251547
0.5877733
0.5424511
0.4860403
0.4147807
0.3308824
0.8006609
0.7910308
0.7804006
0.7686056
0.755442
0.740694
0.7240826
0.70519
0.6835016
0.6583328
0.6277078
0.5914122
0.5474008
0.4930285
0.4252319
0.8100904
0.8013648
0.7917791
0.7811998
0.7694634
0.7564028
0.7418034
0.7253428
0.7066344
0.6851747
0.6594352
0.6294467
0.5938088
0.550747
0.4978019
0.8183724
0.8104022
0.8016828
0.7921037
0.7815312
0.7698327
0.7568397
0.7422961
0.7259028
0.7072765
0.6851908
0.6598033
0.6301059
0.5948788
0.5524112
0.3790568
0.4403529
0.368819
0.4967572
0.4303803
0.353073
0.5423401
0.4873055
0.4173084
0.3322428
0.5802468
0.5344691
0.4769823
0.4029402
0.3090387
0.6136889
0.5753928
0.5282587
0.46876
0.3913813
0.2906831
0.6433419
0.6110619
0.5720674
0.5239488
0.4629785
0.3834236
0.2784049
0.669487
0.6420275
0.6093896
0.5699059
0.5210912
0.4592693
0.3784841
0.2706906
0.6925171
0.6689374
0.6412973
0.6084176
0.5685989
0.5194526
0.4572628
0.375706
0.2663842
0.7128826
0.6924557
0.6687961
0.6410497
0.6080239
0.5681175
0.5189419
0.456587
0.37476
0.2649198
0.7310191
0.713187
0.6927459
0.669065
0.6412859
0.608307
0.5685372
0.5194588
0.4572445
0.3756524
0.2606389
0.7473249
0.731659
0.7138637
0.6934651
0.6698333
0.6421917
0.609452
0.5699296
0.5211937
0.4594829
0.3750507
0.2599493
0.7621591
0.7483303
0.7327487
0.7150535
0.694775
0.671357
0.6440374
0.611657
0.5726159
0.5245491
0.4611876
0.3774618
0.2622231
0.775815
0.7635678
0.7498695
0.7344427
0.7169334
0.6969383
0.6739157
0.6470499
0.6152608
0.5770134
0.5280936
0.4658609
0.3831873
0.2691966
0.7883882
0.777507
0.765418
0.7519069
0.7367041
0.7195134
0.699945
0.677415
0.6511781
0.6202106
0.5816565
0.5345224
0.4751833
0.3988056
0.3034629
0.7995862
0.7898486
0.7790932
0.7671514
0.7538138
0.7388584
0.721997
0.7027984
0.6807299
0.6550795
0.623792
0.586573
0.5412388
0.4849127
0.4139656
0.8094253
0.8006366
0.790978
0.7803141
0.7684786
0.7553009
0.7405624
0.7239341
0.7050209
0.6833071
0.6572301
0.6267983
0.5905636
0.5466809
0.492559
0.8180663
0.8100685
0.8013174
0.7917018
0.7810868
0.7693388
0.7562874
0.7416745
0.7251975
0.7064692
0.6842514
0.6586961
0.628781
0.5932663
0.5504085
0.8256852
0.8183524
0.8103592
0.8016128
0.792002
0.7814196
0.7697302
0.7567259
0.7421689
0.7257595
0.7064846
0.6845675
0.6592528
0.6296675
0.5946124
0.3839446
0.4468259
0.3787682
0.5039712
0.440128
0.3682293
0.5495806
0.4965801
0.4299181
0.3521418
0.5864535
0.5421951
0.4869381
0.4165784
0.3308911
0.6175743
0.5801242
0.5341666
0.4764012
0.4018967
0.3075329
0.6454536
0.6135867
0.5751463
0.5277994
0.4679686
0.3903012
0.2893278
0.6705309
0.6432567
0.6108602
0.5717005
0.5233373
0.4621825
0.3824986
0.2769924
0.6929282
0.6694152
0.64186
0.609091
0.5694211
0.5204821
0.4585981
0.3775459
0.2692455
0.7128826
0.6924557
0.6687961
0.6410497
0.6080239
0.5681175
0.5189419
0.456587
0.37476
0.2649198
0.7307051
0.7128295
0.6923349
0.6685873
0.6407232
0.6076332
0.5677145
0.5184288
0.4559079
0.3738088
0.2577411
0.746717
0.7309726
0.7130823
0.6925671
0.6687894
0.6409619
0.6079799
0.5681322
0.5189431
0.4565621
0.3710056
0.2537034
0.7612255
0.7472839
0.7315673
0.7137087
0.693229
0.6695597
0.6419202
0.6091228
0.5695219
0.5206746
0.4561436
0.3706138
0.2517438
0.7745171
0.7621226
0.7482494
0.732613
0.7148491
0.6945411
0.6711279
0.6437643
0.6113259
0.5722059
0.5220114
0.4578848
0.3721385
0.2517639
0.7868308
0.7757826
0.7634967
0.749751
0.7342659
0.7167333
0.6967449
0.6736887
0.6467799
0.6149343
0.575052
0.5256226
0.4619998
0.3765215
0.253992
0.7982342
0.7883602
0.7774457
0.7653168
0.7517571
0.7365361
0.7193542
0.6997621
0.6772025
0.650928
0.6187553
0.5802057
0.5328222
0.4732808
0.3970527
0.8084438
0.7995615
0.7897949
0.7790051
0.7670219
0.7536698
0.7387237
0.7218447
0.7026246
0.6805291
0.6539378
0.622806
0.5856014
0.5403637
0.4843078
0.8174562
0.8094031
0.8005886
0.7908999
0.7801999
0.7683524
0.7551841
0.7404317
0.7237866
0.704853
0.6823672
0.656467
0.6260997
0.5899848
0.5463148
0.8254034
0.8180462
0.8100252
0.8012471
0.7915996
0.7809747
0.7692356
0.7561729
0.7415464
0.7250533
0.7056714
0.6836209
0.6581368
0.6283337
0.5929936
0.8324355
0.8256668
0.8183129
0.8102953
0.8015204
0.7919011
0.7813273
0.7696284
0.7566129
0.7420427
0.7250678
0.705946
0.6840978
0.6588843
0.6294476
0.4500302
0.3836623
0.5087834
0.446608
0.3782042
0.5552407
0.5038013
0.4396881
0.3673606
0.5922972
0.5494428
0.4962334
0.4292368
0.350916
0.622686
0.5863377
0.5419108
0.4863962
0.4156171
0.32955
0.6487077
0.6174743
0.5798836
0.5337198
0.4756356
0.4008613
0.3062629
0.6723253
0.6453688
0.6133862
0.5747823
0.527194
0.4671833
0.3893927
0.2879563
0.6938265
0.6704591
0.6430894
0.6105621
0.5712169
0.5227307
0.4615145
0.3815669
0.2755658
0.7132402
0.6928668
0.6692739
0.6416124
0.6086975
0.5689401
0.5199718
0.4579232
0.376602
0.267788
0.7307051
0.7128295
0.6923349
0.6685873
0.6407232
0.6076332
0.5677145
0.5184288
0.4559079
0.3738088
0.2577411
0.746439
0.7306586
0.7127249
0.6921562
0.6683118
0.6403992
0.6073062
0.5673097
0.5179132
0.4552255
0.369157
0.2508833
0.7606833
0.746676
0.730881
0.7129275
0.6923311
0.6685159
0.6406906
0.6076511
0.5677252
0.5184247
0.4532241
0.3666869
0.2459028
0.7736788
0.761189
0.7472029
0.7314316
0.713504
0.6929946
0.6693303
0.6416469
0.6087916
0.5691116
0.5181326
0.4529564
0.3656686
0.2424182
0.7856584
0.7744844
0.7620506
0.7481296
0.7324339
0.7146462
0.6943446
0.6708969
0.643489
0.6109922
0.5701952
0.5194898
0.454055
0.3659884
0.2394693
0.7968196
0.7868016
0.7757188
0.7633912
0.7495947
0.7340904
0.7165653
0.69655
0.67346
0.6465078
0.6133333
0.5730875
0.5226626
0.4571955
0.367689
0.2276322
0.8072096
0.7982087
0.7883049
0.7773549
0.7651832
0.7516083
0.7363963
0.7191951
0.6995793
0.6769902
0.649712
0.6175675
0.5788487
0.5313557
0.4720019
0.8165563
0.8084213
0.7995128
0.7897153
0.7788887
0.7668933
0.7535504
0.7385897
0.7216931
0.7024515
0.6795576
0.6531122
0.6220083
0.5849003
0.5398945
0.8248419
0.8174359
0.8093594
0.8005176
0.7907966
0.7800864
0.768248
0.755068
0.7403018
0.7236401
0.7040416
0.6817171
0.655881
0.6256234
0.5896905
0.8321753
0.825385
0.8180066
0.8099611
0.8011543
0.7914981
0.7808819
0.7691332
0.7560592
0.7414194
0.7243566
0.7051269
0.6831441
0.6577612
0.6281089
0.8386854
0.8324186
0.8256305
0.8182544
0.8102109
0.8014287
0.7918176
0.7812357
0.7695273
0.7565007
0.7414329
0.7245975
0.7055402
0.6837834
0.6586996
0.511171
0.4498158
0.3831104
0.5590272
0.5086179
0.4461818
0.3773733
0.5968796
0.5551077
0.5034685
0.4390395
0.3662173
0.6275121
0.5921867
0.5491728
0.4957221
0.4283399
0.3497003
0.6529967
0.6225912
0.5861105
0.5414912
0.4856824
0.4146638
0.3284294
0.675093
0.6486245
0.617278
0.5795281
0.533131
0.474876
0.3999906
0.3049782
0.6953711
0.6722537
0.6452022
0.6130899
0.5743023
0.5265934
0.4665233
0.3884761
0.2865684
0.7140217
0.693765
0.6703178
0.6428419
0.6101691
0.5707371
0.5222217
0.4608419
0.3806284
0.2741249
0.7310191
0.713187
0.6927459
0.669065
0.6412859
0.608307
0.5685372
0.5194588
0.4572445
0.3756524
0.2606389
0.746439
0.7306586
0.7127249
0.6921562
0.6683118
0.6403992
0.6073062
0.5673097
0.5179132
0.4552255
0.369157
0.2508833
0.7604353
0.746398
0.7305671
0.7125701
0.6919204
0.6680384
0.640128
0.6069778
0.5669031
0.5173953
0.4518893
0.3648936
0.2432656
0.7731921
0.7606468
0.7465953
0.7307455
0.712723
0.6920969
0.6682868
0.6404179
0.6073208
0.567316
0.5158893
0.4501307
0.3620001
0.2372438
0.7849015
0.7736461
0.761117
0.7470831
0.7312524
0.7133008
0.6927981
0.6690995
0.6413719
0.6084582
0.5671029
0.515708
0.4494127
0.3602252
0.2320074
0.7957553
0.785629
0.7744199
0.7619439
0.7479713
0.7322561
0.7144757
0.6941466
0.6706642
0.6432116
0.6093557
0.5681978
0.5165676
0.4496457
0.3589583
0.2227836
0.805919
0.7967931
0.7867441
0.7756242
0.7632518
0.7494394
0.733943
0.716396
0.6963536
0.6732296
0.6451739
0.6117299
0.5707348
0.5189851
0.4508615
0.3526951
0.2126956
0.8154252
0.8071864
0.7981586
0.7882229
0.777235
0.7650505
0.7514844
0.7362565
0.7190361
0.6993967
0.6759579
0.64872
0.6164568
0.5776787
0.5303703
0.8240138
0.8165357
0.8083768
0.7994405
0.7896101
0.7787732
0.7667866
0.7534316
0.7384565
0.7215424
0.7016142
0.6788556
0.6524445
0.6214327
0.5845244
0.8316567
0.8248232
0.8173959
0.8092946
0.8004238
0.790694
0.7799925
0.7681443
0.7549528
0.7401728
0.7229323
0.7034808
0.681218
0.6554816
0.6253812
0.8384443
0.8321582
0.8253485
0.8179478
0.8098763
0.801062
0.7914142
0.7807897
0.7690316
0.7559464
0.7408055
0.7238814
0.7047152
0.6828239
0.6575724
0.8444879
0.8386697
0.8323851
0.8255767
0.8181771
0.8101271
0.8013527
0.7917347
0.7811447
0.769427
0.7559591
0.7410185
0.7242432
0.7052687
0.6836259
0.5609096
0.5110077
0.4493961
0.3822973
0.5999523
0.5588973
0.5082938
0.4455536
0.3762798
0.6313058
0.5967725
0.5548472
0.5029777
0.4381858
0.3650835
0.6570551
0.6274213
0.5919699
0.5487743
0.4950488
0.4274505
0.3486898
0.6787467
0.6529175
0.6224051
0.585775
0.5409384
0.4849746
0.4138685
0.3273061
0.6977558
0.6750226
0.6484609
0.6169878
0.5790595
0.5325467
0.4742376
0.3991124
0.3036783
0.7153662
0.6953098
0.6721129
0.6449558
0.612699
0.5738261
0.5260886
0.4658576
0.3875512
0.2851641
0.7317055
0.7139685
0.6936441
0.6701089
0.6425156
0.6097791
0.5703346
0.5217094
0.4601647
0.379683
0.2670464
0.746717
0.7309726
0.7130823
0.6925671
0.6687894
0.6409619
0.6079799
0.5681322
0.5189431
0.4565621
0.3710056
0.2537034
0.7604353
0.746398
0.7305671
0.7125701
0.6919204
0.6680384
0.640128
0.6069778
0.5669031
0.5173953
0.4518893
0.3648936
0.2432656
0.7729696
0.7603989
0.7463173
0.7304317
0.7123659
0.6916863
0.6678096
0.6398557
0.606648
0.5664946
0.5148639
0.4488397
0.360322
0.2348918
0.7844622
0.7731595
0.760575
0.7464756
0.7305666
0.7125201
0.6919008
0.6680567
0.6401438
0.6069887
0.5653155
0.5135412
0.4467799
0.3569626
0.2277568
0.7950685
0.7848721
0.7735817
0.7610104
0.7469248
0.7310744
0.7131304
0.6926004
0.6688672
0.6410952
0.6068265
0.5651872
0.5130129
0.4455217
0.3543246
0.2184743
0.8049486
0.7957287
0.7855709
0.7743243
0.761803
0.7478141
0.7321067
0.7143039
0.693947
0.6704296
0.6418513
0.60773
0.5658834
0.513207
0.444623
0.3496605
0.2105747
0.814243
0.8058949
0.796741
0.7866588
0.7754992
0.7631134
0.749309
0.7337945
0.7162254
0.6961557
0.6720997
0.6438381
0.60981
0.5678144
0.5141477
0.4401651
0.3436526
0.2014355
0.8229734
0.815404
0.8071407
0.7980842
0.7881146
0.7771158
0.76494
0.7513607
0.7361168
0.7188772
0.6985086
0.6751161
0.6477926
0.6154993
0.5768927
0.8308923
0.8239949
0.816495
0.8083109
0.799345
0.7895057
0.7786773
0.7666805
0.7533135
0.7383239
0.7208128
0.7010094
0.6782879
0.6519629
0.6211242
0.837964
0.8316395
0.8247864
0.8173366
0.809209
0.8003306
0.7906091
0.7798993
0.7680413
0.7548383
0.7395496
0.7224431
0.7030503
0.6808779
0.6552785
0.844264
0.8384285
0.8321246
0.8252945
0.8178701
0.8097921
0.8009857
0.7913308
0.7806982
0.7689306
0.7554012
0.7403869
0.7235221
0.7044387
0.6826629
0.849889
0.8444734
0.8386387
0.8323354
0.8255056
0.8181002
0.8100578
0.8012774
0.7916524
0.7810544
0.7689425
0.7555911
0.7407065
0.7240062
0.7051326
0.6014823
0.5607812
0.5106877
0.4487775
0.3812271
0.6338546
0.5998474
0.5586427
0.5078157
0.4447264
0.3751953
0.660252
0.6312177
0.5965626
0.5544628
0.5023314
0.4373392
0.3641428
0.6822104
0.6569791
0.6272431
0.5916498
0.5482493
0.4943811
0.4267118
0.3476821
0.7009078
0.6786796
0.6527621
0.6221302
0.5853329
0.5403901
0.4843844
0.4130727
0.3261801
0.7174432
0.6976954
0.6748842
0.6482191
0.6166051
0.5785944
0.5320559
0.473594
0.3982264
0.3023631
0.7328868
0.715313
0.6951892
0.6719046
0.6446308
0.6123112
0.5734259
0.5255797
0.4651863
0.3866179
0.2782516
0.7473249
0.731659
0.7138637
0.6934651
0.6698333
0.6421917
0.609452
0.5699296
0.5211937
0.4594829
0.3750507
0.2599493
0.7606833
0.746676
0.730881
0.7129275
0.6923311
0.6685159
0.6406906
0.6076511
0.5677252
0.5184247
0.4532241
0.3666869
0.2459028
0.7729696
0.7603989
0.7463173
0.7304317
0.7123659
0.6916863
0.6678096
0.6398557
0.606648
0.5664946
0.5148639
0.4488397
0.360322
0.2348918
0.7842613
0.772937
0.7603271
0.7461978
0.730253
0.7121631
0.6914905
0.6675798
0.6395822
0.6063167
0.5644986
0.5125513
0.4455748
0.3554563
0.2257804
0.7946699
0.7844328
0.7730952
0.7604686
0.7463177
0.7303889
0.7123502
0.6917037
0.6678254
0.6398685
0.6053655
0.5634632
0.5109979
0.443185
0.3516075
0.2155501
0.8043225
0.7950418
0.7848141
0.7734862
0.7608695
0.7467677
0.7309252
0.712959
0.6924015
0.6686336
0.6397409
0.6052704
0.5630579
0.5100559
0.441314
0.3468684
0.2080963
0.8133545
0.8049243
0.795676
0.7854847
0.774198
0.761663
0.7476821
0.7319562
0.7141308
0.6937459
0.6692795
0.6404999
0.6058465
0.5632234
0.509385
0.4380018
0.3421816
0.2003547
0.8218866
0.814221
0.8058475
0.7966637
0.786546
0.7753751
0.7629972
0.7491776
0.7336448
0.7160535
0.6951856
0.6709684
0.6422389
0.6074284
0.5639787
0.5060032
0.4337465
0.3363192
0.1926754
0.8299322
0.822954
0.8153622
0.807073
0.797986
0.788007
0.7770166
0.7648296
0.751237
0.7359772
0.7181046
0.6977846
0.6743291
0.6469933
0.6148561
0.8372562
0.8308748
0.8239575
0.8164347
0.8082239
0.7992502
0.7894191
0.778582
0.766575
0.7531959
0.7376822
0.720286
0.7005204
0.6778784
0.6517046
0.8438179
0.8379481
0.8316056
0.8247319
0.8172581
0.809124
0.8002535
0.7905248
0.7798067
0.767939
0.7542852
0.7391191
0.7220678
0.702757
0.680705
0.8496805
0.8442494
0.8383974
0.8320747
0.825223
0.8177929
0.8097224
0.8009099
0.7912481
0.7806074
0.7684432
0.7550296
0.7400705
0.7232809
0.7042998
0.8549283
0.8498755
0.8444446
0.8385927
0.8322698
0.8254349
0.8180367
0.809989
0.8012025
0.7915707
0.7806185
0.7686134
0.755314
0.7404977
0.7238874
0.6351252
0.6013785
0.5605294
0.5102157
0.4479631
0.3801658
0.662403
0.633768
0.5996418
0.5582669
0.5071861
0.4439063
0.374296
0.6849434
0.660178
0.6310446
0.5962526
0.5539563
0.5016906
0.4366372
0.3632065
0.7039008
0.6821458
0.6568299
0.6269798
0.591228
0.5477288
0.4938269
0.425976
0.3466774
0.7201918
0.7008502
0.6785477
0.6525324
0.6217678
0.5848943
0.5399331
0.4837941
0.4122764
0.3250515
0.7347129
0.7173908
0.6975766
0.6746794
0.6479002
0.6162253
0.5782038
0.5315611
0.4729451
0.3973326
0.2958901
0.7483714
0.7328403
0.7152084
0.6950106
0.6716298
0.6443083
0.6119854
0.5730225
0.5250665
0.4645092
0.3820372
0.2709937
0.7612255
0.7472839
0.7315673
0.7137087
0.693229
0.6695597
0.6419202
0.6091228
0.5695219
0.5206746
0.4561436
0.3706138
0.2517438
0.7731921
0.7606468
0.7465953
0.7307455
0.712723
0.6920969
0.6682868
0.6404179
0.6073208
0.567316
0.5158893
0.4501307
0.3620001
0.2372438
0.7842613
0.772937
0.7603271
0.7461978
0.730253
0.7121631
0.6914905
0.6675798
0.6395822
0.6063167
0.5644986
0.5125513
0.4455748
0.3554563
0.2257804
0.7944876
0.784232
0.7728728
0.7602209
0.7460401
0.7300755
0.7119934
0.6912938
0.667349
0.6393076
0.6046979
0.5626757
0.5100756
0.4421052
0.3503206
0.2140952
0.8039592
0.7946433
0.7843749
0.7729999
0.7603281
0.7461608
0.7302402
0.7121794
0.6915058
0.667593
0.6385224
0.6038627
0.5614568
0.5082707
0.4393702
0.3449161
0.2061691
0.8127815
0.8042982
0.7949893
0.784728
0.7733601
0.7607296
0.7466359
0.7307752
0.7127866
0.6922013
0.66749
0.6384494
0.6035409
0.5607226
0.5068616
0.4360083
0.3404286
0.1989021
0.8210702
0.8133324
0.8048764
0.795598
0.7853709
0.7740726
0.7615455
0.7475491
0.7318045
0.7139564
0.6927599
0.6681371
0.6389344
0.6036827
0.5602014
0.5043563
0.4326869
0.3354281
0.1920283
0.8289297
0.8218665
0.8141776
0.8057771
0.7965615
0.7864341
0.7752709
0.7628802
0.7490452
0.7334941
0.7152109
0.6942142
0.6696141
0.640256
0.6043037
0.5575346
0.5011419
0.4285415
0.3302359
0.1858299
0.8363676
0.8299143
0.8229156
0.8153002
0.8069834
0.7978884
0.7879175
0.7769175
0.7647192
0.7511133
0.7352987
0.7174749
0.6971079
0.6736509
0.6464563
0.8431608
0.8372401
0.8308404
0.823902
0.8163549
0.8081374
0.7991716
0.789333
0.7784872
0.76647
0.752627
0.7372191
0.7198602
0.7001678
0.677659
0.8492652
0.8438032
0.8379167
0.8315553
0.8246597
0.8171802
0.8090536
0.8001769
0.7904411
0.7797147
0.7674447
0.7539033
0.7387888
0.7218121
0.7026079
0.8547337
0.8496669
0.8442205
0.8383513
0.8320088
0.825152
0.8177291
0.8096533
0.8008347
0.7911659
0.7801689
0.768111
0.7547488
0.7398581
0.7231597
0.8596404
0.8549157
0.8498487
0.8444019
0.8385319
0.8322045
0.8253764
0.8179736
0.8099206
0.8011283
0.7911763
0.7803225
0.7683657
0.7551286
0.7403931
0.6634765
0.6350395
0.6011748
0.5601578
0.5095941
0.4471555
0.3792858
0.6867846
0.6623302
0.6335981
0.5993381
0.5577719
0.5065618
0.4432265
0.3734015
0.7062657
0.6848804
0.6600327
0.630789
0.5958442
0.5534541
0.5011594
0.4359389
0.3622748
0.7228052
0.7038452
0.6820189
0.6566093
0.6266328
0.5908096
0.5472968
0.4932749
0.4252429
0.3456757
0.7371319
0.7201417
0.7007368
0.6783526
0.6522295
0.6214083
0.5845288
0.5394761
0.4832037
0.4114796
0.3195492
0.74999
0.734667
0.7172877
0.6974007
0.6744092
0.6475836
0.6159063
0.5778101
0.5310623
0.4722907
0.3929458
0.2890032
0.7621591
0.7483303
0.7327487
0.7150535
0.694775
0.671357
0.6440374
0.611657
0.5726159
0.5245491
0.4611876
0.3774618
0.2622231
0.7736788
0.761189
0.7472029
0.7314316
0.713504
0.6929946
0.6693303
0.6416469
0.6087916
0.5691116
0.5181326
0.4529564
0.3656686
0.2424182
0.7844622
0.7731595
0.760575
0.7464756
0.7305666
0.7125201
0.6919008
0.6680567
0.6401438
0.6069887
0.5653155
0.5135412
0.4467799
0.3569626
0.2277568
0.7944876
0.784232
0.7728728
0.7602209
0.7460401
0.7300755
0.7119934
0.6912938
0.667349
0.6393076
0.6046979
0.5626757
0.5100756
0.4421052
0.3503206
0.2140952
0.8037931
0.7944611
0.7841742
0.7727776
0.7600805
0.7458834
0.729927
0.711823
0.6910963
0.6671173
0.6379657
0.6032198
0.560724
0.5074456
0.4384482
0.3439263
0.2051467
0.812449
0.803935
0.7945909
0.7842891
0.7728741
0.7601885
0.7460295
0.7300908
0.7120079
0.6913068
0.6664572
0.6372762
0.6022348
0.5593058
0.5053786
0.4346106
0.3390363
0.1976661
0.8205437
0.8127593
0.8042504
0.7949114
0.7846144
0.7732347
0.7606124
0.7465033
0.7306242
0.7126132
0.6912219
0.6663995
0.6370139
0.6016444
0.5582014
0.5028386
0.4314233
0.3342425
0.1911142
0.8281769
0.8210498
0.8132886
0.8048054
0.7954948
0.7852578
0.7739672
0.761427
0.747415
0.7316517
0.7131011
0.6917804
0.6668135
0.6371364
0.6012263
0.5562307
0.5003321
0.4278859
0.3295791
0.1853788
0.8354401
0.8289112
0.8218266
0.8141133
0.805684
0.7964599
0.78634
0.7751659
0.7627622
0.7489119
0.732755
0.7143673
0.6930514
0.6679353
0.6376566
0.5990629
0.5537031
0.4972104
0.4242224
0.3252382
0.1805594
0.842336
0.836351
0.8298789
0.8228586
0.8152182
0.8068944
0.7978071
0.787828
0.7768184
0.7646089
0.7505124
0.7347458
0.7168864
0.6965248
0.6731954
0.8486535
0.8431458
0.8372082
0.8307892
0.8238288
0.8162757
0.8080656
0.7990933
0.7892473
0.7783929
0.7659621
0.7522165
0.7368447
0.7195531