/*--------------------------------*- C++ -*----------------------------------*\
| =========                 |                                                 |
| \\      /  F ield         | OpenFOAM: The Open Source CFD Toolbox           |
|  \\    /   O peration     | Version:  2306                                  |
|   \\  /    A nd           | Website:  www.openfoam.com                      |
|    \\/     M anipulation  |                                                 |
\*---------------------------------------------------------------------------*/
FoamFile
{
    version     2.0;
    format      ascii;
    arch        "LSB;label=32;scalar=64";
    class       volScalarField;
    location    "0.9/fuel";
    object      iDmdtfuel.H2O;
}
// * * * * * * * * * * * * * * * * * * * * * * * * * * * * * * * * * * * * * //

dimensions      [1 -3 -1 0 0 0 0];

internalField   nonuniform List<scalar> 
16000
(
86.6415
87.38074
79.31984
82.56484
88.86921
79.80191
83.24785
73.06714
75.78077
79.69297
91.10752
80.74835
84.62209
73.43589
76.22842
80.33876
68.02934
69.96506
73.26705
77.93065
94.00954
82.11029
86.68665
74.15138
77.10679
81.63785
68.33111
70.30894
73.69136
78.556
63.83758
65.26473
67.74835
71.70332
77.18337
97.12486
83.75882
89.36045
75.15981
78.36994
83.58929
68.91225
70.97583
74.52372
79.81436
64.09378
65.54711
68.0751
72.11413
77.80294
60.23299
61.34348
63.28071
66.35629
71.01475
0
99.43671
85.36382
92.22721
76.33872
79.89769
86.11727
69.72038
71.91523
75.7205
81.70612
64.58457
66.09067
68.7086
72.9201
79.05073
60.45553
61.58392
63.54962
66.67284
71.42071
0
57.06862
57.96361
59.54783
62.02691
65.72887
0
0
100.8594
86.43518
94.34576
77.42446
81.38369
88.82928
70.64331
73.01264
77.16794
84.16082
65.26045
66.84611
69.60075
74.0793
80.92959
60.88016
62.04431
64.06707
67.28654
72.2175
0
57.26525
58.173
59.77724
62.28765
66.04134
0
0
54.24424
54.99018
56.32559
58.40798
61.45388
0
0
0
101.6428
87.02085
95.64433
78.09269
82.37235
90.82773
71.46066
74.02238
78.57585
86.80078
66.01914
67.70823
70.64277
75.48237
83.3747
61.46059
62.67798
64.78604
68.15093
73.3644
0
57.63931
58.57235
60.21637
62.78934
66.64729
0
0
54.42017
55.17562
56.52573
58.63063
61.71118
0
0
0
51.6942
52.33094
53.48683
55.28227
57.88229
0
0
0
0
101.9862
87.30983
96.35718
78.41351
82.91109
92.04982
71.93244
74.6419
79.50983
88.74333
66.67115
68.47088
71.60117
76.84856
86.01541
62.10335
63.38871
65.60625
69.16087
74.75466
0
58.14758
59.11792
60.82059
63.48642
67.50113
0
0
54.75405
55.52821
56.9073
59.05676
62.20633
0
0
0
51.85319
52.4972
53.66436
55.47669
58.10202
0
0
0
0
49.36985
49.92551
50.94459
52.52675
54.79809
0
0
0
0
0
101.9862
87.42656
96.66898
78.5456
83.1762
92.71968
72.1318
74.93832
80.01763
89.93061
67.0279
68.90965
72.1873
77.75267
87.9586
62.64241
63.9987
66.33129
70.09005
76.11103
0
58.70424
59.72154
61.49797
64.28173
68.49961
0
0
55.20548
56.00703
57.4284
59.64307
62.89451
0
0
0
52.15435
52.81258
54.0018
55.84732
58.52259
0
0
0
0
49.51468
50.07605
51.104
52.69936
54.99
0
0
0
0
0
47.23557
47.7291
48.642
50.05733
52.07919
0
0
0
0
0
0
101.6428
87.42656
96.66898
78.58947
83.28308
93.01245
72.19525
75.05986
80.26721
90.58164
67.16043
69.09421
72.4669
78.2437
89.14781
62.92392
64.33124
66.74689
70.65649
77.00699
0
59.1617
60.22699
62.07872
64.98459
69.41902
0
0
55.69533
56.53095
58.00463
60.30031
63.68005
0
0
0
52.55984
53.23874
54.45988
56.35342
59.10134
0
0
0
0
49.78858
50.36106
51.40627
53.02742
55.35586
0
0
0
0
0
47.36839
47.86648
48.78654
50.21246
52.24962
0
0
0
0
0
0
45.26361
45.70893
46.53687
47.8191
49.64233
0
0
0
0
0
0
0
100.8594
87.30983
96.35718
78.58947
83.28308
93.01245
72.20819
75.10006
80.36778
90.86635
67.18833
69.15245
72.58122
78.48516
89.80135
63.0153
64.45397
66.92089
70.92603
77.4936
0
59.3909
60.48986
62.39398
65.38586
69.97774
0
0
56.09092
56.96076
58.48651
60.86342
64.37437
0
0
0
52.99635
53.7007
54.96077
56.91293
59.75029
0
0
0
0
50.15605
50.74459
51.81457
53.47269
55.85548
0
0
0
0
0
47.61925
48.12617
49.06009
50.50659
52.57353
0
0
0
0
0
0
45.38609
45.83512
46.66894
47.95988
49.79554
0
0
0
0
0
0
0
43.43244
43.83942
44.59832
45.77135
47.43322
0
0
0
0
0
0
0
0
99.43671
87.02085
95.64433
78.5456
83.1762
92.71968
72.20819
75.10006
80.36778
90.86635
67.18593
69.16406
72.61893
78.58257
90.08773
63.02276
64.47921
66.97536
71.03613
77.73342
0
59.45532
60.57438
62.50952
65.55312
70.24313
0
0
56.28177
57.17509
58.73591
61.16769
64.7691
0
0
0
53.34352
54.07304
55.37104
57.38037
60.30609
0
0
0
0
50.54888
51.15701
52.25684
53.95943
56.40791
0
0
0
0
0
47.95475
48.47434
49.42804
50.9038
53.01321
0
0
0
0
0
0
45.6172
46.07336
46.9185
48.22628
50.08604
0
0
0
0
0
0
0
43.54591
43.95597
44.71978
45.90009
47.57231
0
0
0
0
0
0
0
0
41.72479
42.10074
42.80226
43.88431
45.41169
0
0
0
0
0
0
0
0
0
97.12486
86.43518
94.34576
78.41351
82.91109
92.04982
72.19525
75.05986
80.26721
90.58164
67.18593
69.16406
72.61893
78.58257
90.08773
63.01204
64.47655
66.986
71.07244
77.83045
0
59.45037
60.58055
62.5327
65.60513
70.35158
0
0
56.3275
57.2345
58.81527
61.27838
64.93291
0
0
0
53.50525
54.25172
55.57453
57.62101
60.60488
0
0
0
0
50.8571
51.48432
52.61269
54.35762
56.8691
0
0
0
0
0
48.31119
48.84613
49.8234
51.33391
53.49384
0
0
0
0
0
0
45.92541
46.39177
47.25297
48.58454
50.47837
0
0
0
0
0
0
0
43.75988
44.17579
44.94902
46.14332
47.83551
0
0
0
0
0
0
0
0
41.83037
42.20888
42.91457
44.00279
45.53892
0
0
0
0
0
0
0
0
0
40.12641
40.477
41.13004
42.13476
43.54835
0
0
0
0
0
0
0
0
0
0
94.00954
85.36382
92.22721
78.09269
82.37235
90.82773
72.1318
74.93832
80.01763
89.93061
67.18833
69.15245
72.58122
78.48516
89.80135
63.01204
64.47655
66.986
71.07244
77.83045
0
59.43495
60.57008
62.52976
65.61513
70.38744
0
0
56.31463
57.22902
58.82032
61.30006
64.98359
0
0
0
53.53756
54.29369
55.63008
57.69674
60.71278
0
0
0
0
50.99605
51.6359
52.78243
54.55394
57.10515
0
0
0
0
0
48.58748
49.13718
50.13658
51.67948
53.88665
0
0
0
0
0
0
46.25107
46.72967
47.60982
48.96932
50.90318
0
0
0
0
0
0
0
44.04452
44.46877
45.25526
46.46924
48.18947
0
0
0
0
0
0
0
0
42.02932
42.4127
43.12634
44.22639
45.77931
0
0
0
0
0
0
0
0
0
40.22499
40.57775
41.23437
42.2444
43.66549
0
0
0
0
0
0
0
0
0
0
38.62534
38.95504
39.5667
40.50473
41.82033
0
0
0
0
0
0
0
0
0
0
91.10752
83.75882
89.36045
77.42446
81.38369
88.82928
71.93244
74.6419
79.50983
88.74333
67.16043
69.09421
72.4669
78.2437
89.14781
63.02276
64.47921
66.97536
71.03613
77.73342
0
59.43495
60.57008
62.52976
65.61513
70.38744
0
0
56.29648
57.21411
58.80994
61.29687
64.99323
0
0
0
53.51952
54.28076
55.62405
57.70086
60.73342
0
0
0
0
51.01841
51.66532
52.82144
54.6067
57.17861
0
0
0
0
0
48.70823
49.26752
50.28066
51.84324
54.07909
0
0
0
0
0
0
46.50075
46.99095
47.8886
49.27363
51.24409
0
0
0
0
0
0
0
44.34378
44.77795
45.57997
46.8168
48.56961
0
0
0
0
0
0
0
0
42.2934
42.68367
43.40845
44.52503
46.10142
0
0
0
0
0
0
0
0
0
40.4107
40.76754
41.43093
42.4511
43.88654
0
0
0
0
0
0
0
0
0
0
38.71771
39.04924
39.664
40.60665
41.92876
0
0
0
0
0
0
0
0
0
0
37.21172
37.52384
38.09985
38.97983
40.20993
0
0
0
0
0
0
0
0
0
0
88.86921
82.11029
86.68665
76.33872
79.89769
86.11727
71.46066
74.02238
78.57585
86.80078
67.0279
68.90965
72.1873
77.75267
87.9586
63.0153
64.45397
66.92089
70.92603
77.4936
0
59.45037
60.58055
62.5327
65.60513
70.35158
0
0
56.29648
57.21411
58.80994
61.29687
64.99323
0
0
0
53.49981
54.26326
55.60942
57.69044
60.72997
0
0
0
0
50.99693
51.64751
52.8083
54.60009
57.18192
0
0
0
0
0
48.72309
49.28763
50.30776
51.88004
54.12998
0
0
0
0
0
0
46.60672
47.10433
48.01256
49.41264
51.40454
0
0
0
0
0
0
0
44.57096
45.0144
45.8305
47.08785
48.86986
0
0
0
0
0
0
0
0
42.56979
42.9682
43.70589
44.84151
46.44488
0
0
0
0
0
0
0
0
0
40.6567
41.01928
41.69213
42.7264
44.18178
0
0
0
0
0
0
0
0
0
0
38.89165
39.22663
39.84721
40.79864
42.13317
0
0
0
0
0
0
0
0
0
0
37.2985
37.61221
38.19091
39.07494
40.31075
0
0
0
0
0
0
0
0
0
0
35.87736
36.17428
36.7191
37.54812
38.70298
0
0
0
0
0
0
0
0
0
0
87.38074
80.74835
84.62209
75.15981
78.36994
83.58929
70.64331
73.01264
77.16794
84.16082
66.67115
68.47088
71.60117
76.84856
86.01541
62.92392
64.33124
66.74689
70.65649
77.00699
0
59.45532
60.57438
62.50952
65.55312
70.24313
0
0
56.31463
57.22902
58.82032
61.30006
64.98359
0
0
0
53.49981
54.26326
55.60942
57.69044
60.72997
0
0
0
0
50.97636
51.6285
52.79118
54.58554
57.17132
0
0
0
0
0
48.69934
49.26656
50.28996
51.86656
54.12275
0
0
0
0
0
0
46.61584
47.1174
48.03083
49.43797
51.43978
0
0
0
0
0
0
0
44.66473
45.11398
45.93837
47.20747
49.00601
0
0
0
0
0
0
0
0
42.77773
43.18363
43.93285
45.08525
46.71237
0
0
0
0
0
0
0
0
0
40.91313
41.28244
41.96615
43.01651
44.49462
0
0
0
0
0
0
0
0
0
0
39.12166
39.46145
40.09013
41.05371
42.40543
0
0
0
0
0
0
0
0
0
0
37.46191
37.77857
38.36233
39.25402
40.50068
0
0
0
0
0
0
0
0
0
0
35.95911
36.25741
36.80461
37.6372
38.7971
0
0
0
0
0
0
0
0
0
0
34.61509
34.89883
35.41588
36.19961
37.28774
0
0
0
0
0
0
0
0
0
0
86.6415
79.80191
83.24785
74.15138
77.10679
81.63785
69.72038
71.91523
75.7205
81.70612
66.01914
67.70823
70.64277
75.48237
83.3747
62.64241
63.9987
66.33129
70.09005
76.11103
0
59.3909
60.48986
62.39398
65.38586
69.97774
0
0
56.3275
57.2345
58.81527
61.27838
64.93291
0
0
0
53.51952
54.28076
55.62405
57.70086
60.73342
0
0
0
0
50.97636
51.6285
52.79118
54.58554
57.17132
0
0
0
0
0
48.67838
49.24672
50.27138
51.84959
54.10808
0
0
0
0
0
0
46.59063
47.09417
48.00991
49.41998
51.42582
0
0
0
0
0
0
0
44.66939
45.12168
45.94997
47.22429
49.03003
0
0
0
0
0
0
0
0
42.86132
43.27181
44.02764
45.18936
46.8295
0
0
0
0
0
0
0
0
0
41.10447
41.47987
42.17313
43.23745
44.73522
0
0
0
0
0
0
0
0
0
0
39.36055
39.70592
40.34383
41.32116
42.69229
0
0
0
0
0
0
0
0
0
0
37.67765
37.99841
38.58915
39.4914
40.753
0
0
0
0
0
0
0
0
0
0
36.11306
36.41389
36.96552
37.80484
38.9743
0
0
0
0
0
0
0
0
0
0
34.69229
34.97724
35.49639
36.2833
37.37591
0
0
0
0
0
0
0
0
0
0
33.4188
33.69088
34.1831
34.92605
35.95439
0
0
0
0
0
0
0
0
0
0
79.31984
82.56484
73.43589
76.22842
80.33876
68.91225
70.97583
74.52372
79.81436
65.26045
66.84611
69.60075
74.0793
80.92959
62.10335
63.38871
65.60625
69.16087
74.75466
0
59.1617
60.22699
62.07872
64.98459
69.41902
0
0
56.28177
57.17509
58.73591
61.16769
64.7691
0
0
0
53.53756
54.29369
55.63008
57.69674
60.71278
0
0
0
0
50.99693
51.64751
52.8083
54.60009
57.18192
0
0
0
0
0
48.67838
49.24672
50.27138
51.84959
54.10808
0
0
0
0
0
0
46.56959
47.07393
47.99053
49.4016
51.40877
0
0
0
0
0
0
0
44.6433
45.09706
45.92698
47.20329
49.01166
0
0
0
0
0
0
0
0
42.86252
43.27533
44.03413
45.19975
46.8452
0
0
0
0
0
0
0
0
0
41.17949
41.55854
42.25712
43.32895
44.83714
0
0
0
0
0
0
0
0
0
0
39.53748
39.88782
40.5337
41.52277
42.91043
0
0
0
0
0
0
0
0
0
0
0
37.90098
38.22644
38.82506
39.73917
41.01754
0
0
0
0
0
0
0
0
0
0
36.31601
36.62034
37.17807
38.02663
39.2092
0
0
0
0
0
0
0
0
0
0
34.83769
35.12483
35.64788
36.44078
37.54185
0
0
0
0
0
0
0
0
0
0
33.49186
33.765
34.25909
35.00488
36.03725
0
0
0
0
0
0
0
0
0
0
32.28282
32.54477
33.01453
33.72061
34.6948
0
0
0
0
0
0
0
0
0
0
73.06714
75.78077
79.69297
68.33111
70.30894
73.69136
78.556
64.58457
66.09067
68.7086
72.9201
79.05073
61.46059
62.67798
64.78604
68.15093
73.3644
0
58.70424
59.72154
61.49797
64.28173
68.49961
0
0
56.09092
56.96076
58.48651
60.86342
64.37437
0
0
0
53.50525
54.25172
55.57453
57.62101
60.60488
0
0
0
0
51.01841
51.66532
52.82144
54.6067
57.17861
0
0
0
0
0
48.69934
49.26656
50.28996
51.86656
54.12275
0
0
0
0
0
0
46.56959
47.07393
47.99053
49.4016
51.40877
0
0
0
0
0
0
0
44.62238
45.07673
45.90721
47.18413
48.99324
0
0
0
0
0
0
0
0
42.83595
43.24987
44.00982
45.17676
46.82391
0
0
0
0
0
0
0
0
0
41.17797
41.55881
42.25964
43.33444
44.84658
0
0
0
0
0
0
0
0
0
0
39.60526
39.95847
40.60866
41.60386
43.00001
0
0
0
0
0
0
0
0
0
0
0
38.06527
38.39484
39.00015
39.92423
41.21665
0
0
0
0
0
0
0
0
0
0
0
0
36.52546
36.83377
37.39833
38.25717
39.45434
0
0
0
0
0
0
0
0
0
0
35.02911
35.31926
35.84766
36.64873
37.76138
0
0
0
0
0
0
0
0
0
0
33.6295
33.90454
34.4021
35.15323
36.19317
0
0
0
0
0
0
0
0
0
0
32.35211
32.61499
33.08642
33.79507
34.77288
0
0
0
0
0
0
0
0
0
0
31.20252
31.45525
31.90484
32.57731
33.50228
0
0
0
0
0
0
0
0
0
0
68.02934
69.96506
73.26705
77.93065
64.09378
65.54711
68.0751
72.11413
77.80294
60.88016
62.04431
64.06707
67.28654
72.2175
0
58.14758
59.11792
60.82059
63.48642
67.50113
0
0
55.69533
56.53095
58.00463
60.30031
63.68005
0
0
0
53.34352
54.07304
55.37104
57.38037
60.30609
0
0
0
0
50.99605
51.6359
52.78243
54.55394
57.10515
0
0
0
0
0
48.72309
49.28763
50.30776
51.88004
54.12998
0
0
0
0
0
0
46.59063
47.09417
48.00991
49.41998
51.42582
0
0
0
0
0
0
0
44.62238
45.07673
45.90721
47.18413
48.99324
0
0
0
0
0
0
0
0
42.81529
43.22963
43.98994
45.15722
46.80473
0
0
0
0
0
0
0
0
0
41.15124
41.53288
42.23452
43.31018
44.82336
0
0
0
0
0
0
0
0
0
0
39.60165
39.9562
40.6081
41.60554
43.00466
0
0
0
0
0
0
0
0
0
0
0
38.12684
38.45872
39.0675
39.99661
41.29602
0
0
0
0
0
0
0
0
0
0
0
0
36.67861
36.99032
37.56057
38.42793
39.63715
0
0
0
0
0
0
0
0
0
0
0
0
0
35.22613
35.51967
36.054
36.86411
37.98955
0
0
0
0
0
0
0
0
0
0
33.8105
34.08814
34.59042
35.34881
36.39906
0
0
0
0
0
0
0
0
0
0
32.4827
32.74723
33.22175
33.93518
34.91979
0
0
0
0
0
0
0
0
0
0
31.26836
31.52191
31.973
32.64779
33.57604
0
0
0
0
0
0
0
0
0
0
30.17386
30.41805
30.84907
31.49102
32.37093
0
0
0
0
0
0
0
0
0
0
63.83758
65.26473
67.74835
71.70332
77.18337
60.45553
61.58392
63.54962
66.67284
71.42071
0
57.63931
58.57235
60.21637
62.78934
66.64729
0
0
55.20549
56.00703
57.4284
59.64307
62.89451
0
0
0
52.99635
53.7007
54.96077
56.91293
59.75029
0
0
0
0
50.8571
51.48432
52.61269
54.35762
56.8691
0
0
0
0
0
48.70823
49.26752
50.28066
51.84324
54.07909
0
0
0
0
0
0
46.61584
47.1174
48.03083
49.43797
51.43978
0
0
0
0
0
0
0
44.6433
45.09706
45.92698
47.20329
49.01166
0
0
0
0
0
0
0
0
42.81529
43.22963
43.98994
45.15722
46.80473
0
0
0
0
0
0
0
0
0
41.13094
41.51288
42.21473
43.29054
44.80382
0
0
0
0
0
0
0
0
0
0
39.575
39.93011
40.58255
41.58051
42.98022
0
0
0
0
0
0
0
0
0
0
0
38.1216
38.45449
39.06454
39.99533
41.29698
0
0
0
0
0
0
0
0
0
0
0
0
36.73486
37.0484
37.62149
38.49298
39.708
0
0
0
0
0
0
0
0
0
0
0
0
0
35.3694
35.66577
36.20496
37.02242
38.15827
0
0
0
0
0
0
0
0
0
0
0
0
0
0
33.99632
34.27685
34.78434
35.55069
36.61228
0
0
0
0
0
0
0
0
0
0
32.65426
32.92101
33.39972
34.11965
35.11349
0
0
0
0
0
0
0
0
0
0
31.3925
31.64751
32.10135
32.78045
33.71484
0
0
0
0
0
0
0
0
0
0
30.23653
30.48145
30.91383
31.55788
32.44077
0
0
0
0
0
0
0
0
0
0
29.19304
29.42943
29.84322
30.45698
31.29574
0
0
0
0
0
0
0
0
0
0
60.23299
61.34348
63.28071
66.35629
71.01475
0
57.26525
58.173
59.77724
62.28765
66.04134
0
0
54.75405
55.52821
56.9073
59.05676
62.20633
0
0
0
52.55984
53.23874
54.45988
56.35342
59.10134
0
0
0
0
50.54888
51.15701
52.25684
53.95943
56.40791
0
0
0
0
0
48.58748
49.13718
50.13658
51.67948
53.88665
0
0
0
0
0
0
46.60672
47.10433
48.01256
49.41264
51.40454
0
0
0
0
0
0
0
44.66939
45.12168
45.94997
47.22429
49.03003
0
0
0
0
0
0
0
0
42.83595
43.24987
44.00982
45.17676
46.82391
0
0
0
0
0
0
0
0
0
41.13094
41.51288
42.21473
43.29054
44.80382
0
0
0
0
0
0
0
0
0
0
39.55513
39.91044
40.56298
41.56095
42.96059
0
0
0
0
0
0
0
0
0
0
0
38.0952
38.42848
39.03883
39.96989
41.2718
0
0
0
0
0
0
0
0
0
0
0
0
36.72838
37.04265
37.61669
38.4894
39.70609
0
0
0
0
0
0
0
0
0
0
0
0
0
35.42103
35.71886
36.26038
37.08128
38.22195
0
0
0
0
0
0
0
0
0
0
0
0
0
0
34.13079
34.41368
34.92534
35.69808
36.76875
0
0
0
0
0
0
0
0
0
0
0
0
0
0
0
32.83001
33.0992
33.58247
34.30948
35.3134
0
0
0
0
0
0
0
0
0
0
31.55542
31.8124
32.26994
32.95487
33.89757
0
0
0
0
0
0
0
0
0
0
30.35476
30.60096
31.03583
31.68376
32.57221
0
0
0
0
0
0
0
0
0
0
29.25279
29.48983
29.90485
30.52053
31.362
0
0
0
0
0
0
0
0
0
0
28.25693
28.48588
28.88374
29.4713
30.272
0
0
0
0
0
0
0
0
0
0
57.06862
57.96361
59.54783
62.02691
65.72887
0
0
54.42017
55.17562
56.52573
58.63063
61.71118
0
0
0
52.15435
52.81258
54.0018
55.84732
58.52259
0
0
0
0
50.15605
50.74459
51.81457
53.47269
55.85548
0
0
0
0
0
48.31119
48.84613
49.8234
51.33391
53.49384
0
0
0
0
0
0
46.50075
46.99095
47.8886
49.27363
51.24409
0
0
0
0
0
0
0
44.66473
45.11398
45.93837
47.20747
49.00601
0
0
0
0
0
0
0
0
42.86252
43.27533
44.03413
45.19975
46.8452
0
0
0
0
0
0
0
0
0
41.15124
41.53288
42.23452
43.31018
44.82336
0
0
0
0
0
0
0
0
0
0
39.55513
39.91044
40.56298
41.56095
42.96059
0
0
0
0
0
0
0
0
0
0
0
38.07582
38.40922
39.01958
39.95055
41.25227
0
0
0
0
0
0
0
0
0
0
0
0
36.70236
37.01687
37.59106
38.46383
39.68053
0
0
0
0
0
0
0
0
0
0
0
0
0
35.4136
35.71195
36.25414
37.07594
38.21781
0
0
0
0
0
0
0
0
0
0
0
0
0
0
34.17842
34.46245
34.97602
35.75163
36.82637
0
0
0
0
0
0
0
0
0
0
0
0
0
0
0
32.95664
33.22775
33.71463
34.44722
35.45911
0
0
0
0
0
0
0
0
0
0
0
0
0
0
0
0
31.722
31.9811
32.44263
33.13387
34.0856
0
0
0
0
0
0
0
0
0
0
30.5098
30.75771
31.19591
31.84907
32.74504
0
0
0
0
0
0
0
0
0
0
29.36558
29.60376
30.02101
30.64023
31.48676
0
0
0
0
0
0
0
0
0
0
28.31399
28.54352
28.9425
29.53181
30.335
0
0
0
0
0
0
0
0
0
0
27.36219
27.58449
27.96733
28.53061
29.29592
0
0
0
0
0
0
0
0
0
0
54.24424
54.99018
56.32559
58.40798
61.45388
0
0
0
51.85319
52.4972
53.66436
55.47669
58.10202
0
0
0
0
49.78858
50.36106
51.40627
53.02742
55.35586
0
0
0
0
0
47.95475
48.47434
49.42804
50.9038
53.01321
0
0
0
0
0
0
46.25107
46.72967
47.60982
48.96932
50.90318
0
0
0
0
0
0
0
44.57096
45.0144
45.8305
47.08785
48.86986
0
0
0
0
0
0
0
0
42.86132
43.27181
44.02764
45.18936
46.8295
0
0
0
0
0
0
0
0
0
41.17797
41.55881
42.25964
43.33444
44.84658
0
0
0
0
0
0
0
0
0
0
39.575
39.93011
40.58255
41.58051
42.98022
0
0
0
0
0
0
0
0
0
0
0
38.07582
38.40922
39.01958
39.95055
41.25227
0
0
0
0
0
0
0
0
0
0
0
0
36.68348
36.99806
37.57219
38.44479
39.66122
0
0
0
0
0
0
0
0
0
0
0
0
0
35.38805
35.68654
36.22874
37.05046
38.19214
0
0
0
0
0
0
0
0
0
0
0
0
0
0
34.17028
34.45467
34.9687
35.74493
36.82053
0
0
0
0
0
0
0
0
0
0
0
0
0
0
0
33.00083
33.27278
33.76122
34.49622
35.51153
0
0
0
0
0
0
0
0
0
0
0
0
0
0
0
0
31.84157
32.10229
32.5669
33.26304
34.22181
0
0
0
0
0
0
0
0
0
0
0
0
0
0
0
0
0
30.66804
30.91776
31.35954
32.01831
32.92239
0
0
0
0
0
0
0
0
0
0
29.5134
29.75307
30.17331
30.79728
31.6506
0
0
0
0
0
0
0
0
0
0
28.42178
28.6523
29.05332
29.64585
30.45366
0
0
0
0
0
0
0
0
0
0
27.41676
27.63957
28.02344
28.58833
29.35591
0
0
0
0
0
0
0
0
0
0
26.50654
26.72216
27.09126
27.63172
28.36416
0
0
0
0
0
0
0
0
0
0
51.6942
52.33094
53.48683
55.28227
57.88229
0
0
0
0
49.51468
50.07605
51.104
52.69936
54.99
0
0
0
0
0
47.61925
48.12617
49.06009
50.50659
52.57353
0
0
0
0
0
0
45.92541
46.39177
47.25297
48.58454
50.47837
0
0
0
0
0
0
0
44.34378
44.77795
45.57997
46.8168
48.56961
0
0
0
0
0
0
0
0
42.77773
43.18363
43.93285
45.08525
46.71237
0
0
0
0
0
0
0
0
0
41.17949
41.55854
42.25711
43.32895
44.83714
0
0
0
0
0
0
0
0
0
0
39.60165
39.9562
40.6081
41.60554
43.00466
0
0
0
0
0
0
0
0
0
0
0
38.0952
38.42848
39.03883
39.96989
41.2718
0
0
0
0
0
0
0
0
0
0
0
0
36.68348
36.99806
37.57219
38.44479
39.66122
0
0
0
0
0
0
0
0
0
0
0
0
0
35.36971
35.66821
36.21031
37.0318
38.17314
0
0
0
0
0
0
0
0
0
0
0
0
0
0
34.14527
34.4297
34.94365
35.71968
36.79496
0
0
0
0
0
0
0
0
0
0
0
0
0
0
0
32.99223
33.26435
33.75308
34.48848
35.50438
0
0
0
0
0
0
0
0
0
0
0
0
0
0
0
0
31.88272
32.1441
32.60994
33.30809
34.26978
0
0
0
0
0
0
0
0
0
0
0
0
0
0
0
0
0
30.78125
31.0323
31.47678
32.13984
33.05016
0
0
0
0
0
0
0
0
0
0
0
0
0
0
0
0
0
0
29.66402
29.90526
30.32867
30.95772
31.81832
0
0
0
0
0
0
0
0
0
0
28.56295
28.79478
29.19849
29.79533
30.60936
0
0
0
0
0
0
0
0
0
0
27.51993
27.74363
28.12933
28.69717
29.46899
0
0
0
0
0
0
0
0
0
0
26.5588
26.77488
27.14492
27.68685
28.4214
0
0
0
0
0
0
0
0
0
0
25.68737
25.89678
26.25257
26.77198
27.47361
0
0
0
0
0
0
0
0
0
0
49.36985
49.92551
50.94459
52.52675
54.79809
0
0
0
0
0
47.36839
47.86648
48.78654
50.21246
52.24962
0
0
0
0
0
0
45.6172
46.07336
46.9185
48.22628
50.08604
0
0
0
0
0
0
0
44.04452
44.46877
45.25526
46.46924
48.18947
0
0
0
0
0
0
0
0
42.56979
42.9682
43.70589
44.84151
46.44488
0
0
0
0
0
0
0
0
0
41.10447
41.47987
42.17313
43.23745
44.73522
0
0
0
0
0
0
0
0
0
0
39.60526
39.95847
40.60866
41.60386
43.00001
0
0
0
0
0
0
0
0
0
0
0
38.1216
38.45449
39.06454
39.99533
41.29698
0
0
0
0
0
0
0
0
0
0
0
0
36.70235
37.01687
37.59106
38.46383
39.68053
0
0
0
0
0
0
0
0
0
0
0
0
0
35.36971
35.66821
36.21031
37.0318
38.17314
0
0
0
0
0
0
0
0
0
0
0
0
0
0
34.12747
34.41187
34.92569
35.70145
36.77634
0
0
0
0
0
0
0
0
0
0
0
0
0
0
0
32.96783
33.2399
33.72847
34.46359
35.47907
0
0
0
0
0
0
0
0
0
0
0
0
0
0
0
0
31.87378
32.13525
32.6012
33.29959
34.26164
0
0
0
0
0
0
0
0
0
0
0
0
0
0
0
0
0
30.81974
31.07127
31.51677
32.18147
33.09427
0
0
0
0
0
0
0
0
0
0
0
0
0
0
0
0
0
0
29.77147
30.01381
30.43956
31.07243
31.93856
0
0
0
0
0
0
0
0
0
0
0
0
0
0
0
0
0
0
0
28.70661
28.93977
29.34632
29.94773
30.76838
0
0
0
0
0
0
0
0
0
0
27.655
27.87982
28.26795
28.83972
29.61721
0
0
0
0
0
0
0
0
0
0
26.65771
26.87456
27.24626
27.7909
28.52934
0
0
0
0
0
0
0
0
0
0
25.73748
25.94731
26.30396
26.82473
27.5283
0
0
0
0
0
0
0
0
0
0
24.90318
25.10592
25.44929
25.94857
26.62166
0
0
0
0
0
0
0
0
0
0
47.23557
47.7291
48.642
50.05733
52.07919
0
0
0
0
0
0
45.38609
45.83512
46.66894
47.95988
49.79554
0
0
0
0
0
0
0
43.75988
44.17579
44.94902
46.14332
47.83551
0
0
0
0
0
0
0
0
42.2934
42.68367
43.40845
44.52503
46.10142
0
0
0
0
0
0
0
0
0
40.91313
41.28244
41.96615
43.01651
44.49462
0
0
0
0
0
0
0
0
0
0
39.53748
39.88782
40.5337
41.52277
42.91043
0
0
0
0
0
0
0
0
0
0
0
38.12684
38.45872
39.0675
39.99661
41.29602
0
0
0
0
0
0
0
0
0
0
0
0
36.72838
37.04265
37.61669
38.4894
39.70609
0
0
0
0
0
0
0
0
0
0
0
0
0
35.38805
35.68654
36.22874
37.05046
38.19214
0
0
0
0
0
0
0
0
0
0
0
0
0
0
34.12747
34.41187
34.92569
35.70145
36.77634
0
0
0
0
0
0
0
0
0
0
0
0
0
0
0
32.95059
33.22258
33.71099
34.44582
35.46088
0
0
0
0
0
0
0
0
0
0
0
0
0
0
0
0
31.85002
32.11139
32.5771
33.27513
34.23669
0
0
0
0
0
0
0
0
0
0
0
0
0
0
0
0
0
30.81061
31.06213
31.50765
32.17241
33.0854
0
0
0
0
0
0
0
0
0
0
0
0
0
0
0
0
0
0
29.80762
30.0503
30.47686
31.11113
31.97932
0
0
0
0
0
0
0
0
0
0
0
0
0
0
0
0
0
0
0
28.80884
29.04291
29.4515
30.0563
30.88191
0
0
0
0
0
0
0
0
0
0
0
0
0
0
0
0
0
0
0
0
27.79227
28.01824
28.40889
28.98481
29.76831
0
0
0
0
0
0
0
0
0
0
26.78713
27.00498
27.37886
27.92708
28.67073
0
0
0
0
0
0
0
0
0
0
25.8324
26.04295
26.40111
26.92436
27.6315
0
0
0
0
0
0
0
0
0
0
24.9513
25.15441
25.49857
25.99911
26.674
0
0
0
0
0
0
0
0
0
0
24.15131
24.34823
24.67912
25.15958
25.80554
0
0
0
0
0
0
0
0
0
0
45.26361
45.70893
46.53687
47.8191
49.64233
0
0
0
0
0
0
0
43.54591
43.95597
44.71978
45.90009
47.57231
0
0
0
0
0
0
0
0
42.02932
42.4127
43.12634
44.22639
45.77931
0
0
0
0
0
0
0
0
0
40.6567
41.01928
41.69213
42.7264
44.18178
0
0
0
0
0
0
0
0
0
0
39.36055
39.70592
40.34383
41.32116
42.69229
0
0
0
0
0
0
0
0
0
0
38.06527
38.39484
39.00015
39.92423
41.21665
0
0
0
0
0
0
0
0
0
0
0
0
36.73486
37.0484
37.62149
38.49298
39.708
0
0
0
0
0
0
0
0
0
0
0
0
0
35.4136
35.71195
36.25414
37.07594
38.21781
0
0
0
0
0
0
0
0
0
0
0
0
0
0
34.14527
34.4297
34.94365
35.71968
36.79496
0
0
0
0
0
0
0
0
0
0
0
0
0
0
0
32.95059
33.22258
33.71099
34.44582
35.46088
0
0
0
0
0
0
0
0
0
0
0
0
0
0
0
0
31.83333
32.0946
32.56011
33.25784
34.21895
0
0
0
0
0
0
0
0
0
0
0
0
0
0
0
0
0
30.78751
31.03888
31.48413
32.14845
33.06089
0
0
0
0
0
0
0
0
0
0
0
0
0
0
0
0
0
0
29.79841
30.041
30.46748
31.10172
31.96992
0
0
0
0
0
0
0
0
0
0
0
0
0
0
0
0
0
0
0
28.84294
29.07721
29.48644
30.0924
30.91981
0
0
0
0
0
0
0
0
0
0
0
0
0
0
0
0
0
0
0
0
27.88977
28.11646
28.50889
29.08782
29.87577
0
0
0
0
0
0
0
0
0
0
0
0
0
0
0
0
0
0
0
0
26.91853
27.13736
27.5135
28.06547
28.8146
0
0
0
0
0
0
0
0
0
0
25.95657
26.16801
26.52816
27.05468
27.7666
0
0
0
0
0
0
0
0
0
0
25.04255
25.24627
25.59183
26.09465
26.77284
0
0
0
0
0
0
0
0
0
0
24.19756
24.39483
24.72644
25.20807
25.85569
0
0
0
0
0
0
0
0
0
0
23.43149
23.62119
23.94079
24.40279
25.02336
0
0
0
0
0
0
0
0
0
0
43.43244
43.83942
44.59832
45.77135
47.43322
0
0
0
0
0
0
0
0
41.83037
42.20888
42.91457
44.00279
45.53892
0
0
0
0
0
0
0
0
0
40.4107
40.76754
41.43093
42.4511
43.88654
0
0
0
0
0
0
0
0
0
0
39.12166
39.46145
40.09013
41.05371
42.40543
0
0
0
0
0
0
0
0
0
0
37.90098
38.22644
38.82506
39.73917
41.01754
0
0
0
0
0
0
0
0
0
0
36.67861
36.99032
37.56057
38.42793
39.63715
0
0
0
0
0
0
0
0
0
0
0
0
0
35.42103
35.71886
36.26038
37.08128
38.22195
0
0
0
0
0
0
0
0
0
0
0
0
0
0
34.17028
34.45467
34.9687
35.74493
36.82053
0
0
0
0
0
0
0
0
0
0
0
0
0
0
0
32.96783
33.2399
33.72847
34.46359
35.47907
0
0
0
0
0
0
0
0
0
0
0
0
0
0
0
0
31.83333
32.0946
32.56011
33.25784
34.21895
0
0
0
0
0
0
0
0
0
0
0
0
0
0
0
0
0
30.77136
31.02262
31.46765
32.13164
33.04363
0
0
0
0
0
0
0
0
0
0
0
0
0
0
0
0
0
0
29.776
30.01839
30.44456
31.07834
31.94593
0
0
0
0
0
0
0
0
0
0
0
0
0
0
0
0
0
0
0
28.83375
29.06786
29.47693
30.08276
30.91009
0
0
0
0
0
0
0
0
0
0
0
0
0
0
0
0
0
0
0
0
27.92206
28.14885
28.54177
29.12166
29.91114
0
0
0
0
0
0
0
0
0
0
0
0
0
0
0
0
0
0
0
0
27.01171
27.23111
27.6088
28.16346
28.9166
0
0
0
0
0
0
0
0
0
0
0
0
0
0
0
0
0
0
0
0
26.08253
26.29484
26.65701
27.18694
27.90386
0
0
0
0
0
0
0
0
0
0
25.16189
25.36636
25.71375
26.21957
26.90214
0
0
0
0
0
0
0
0
0
0
24.28535
24.4832
24.81607
25.29982
25.9505
0
0
0
0
0
0
0
0
0
0
23.47601
23.66601
23.98629
24.44936
25.07149
0
0
0
0
0
0
0
0
0
0
22.74102
22.92462
23.23192
23.677
24.27297
0
0
0
0
0
0
0
0
0
0
41.72479
42.10074
42.80227
43.88431
45.41169
0
0
0
0
0
0
0
0
0
40.22499
40.57775
41.23437
42.2444
43.66549
0
0
0
0
0
0
0
0
0
0
38.89165
39.22663
39.84721
40.79864
42.13317
0
0
0
0
0
0
0
0
0
0
37.67765
37.99841
38.58915
39.4914
40.753
0
0
0
0
0
0
0
0
0
0
36.52546
36.83377
37.39833
38.25718
39.45434
0
0
0
0
0
0
0
0
0
0
35.3694
35.66577
36.20496
37.02242
38.15827
0
0
0
0
0
0
0
0
0
0
0
0
0
0
34.17842
34.46246
34.97602
35.75163
36.82637
0
0
0
0
0
0
0
0
0
0
0
0
0
0
0
32.99223
33.26435
33.75308
34.48848
35.50438
0
0
0
0
0
0
0
0
0
0
0
0
0
0
0
0
31.85002
32.11139
32.5771
33.27513
34.23669
0
0
0
0
0
0
0
0
0
0
0
0
0
0
0
0
0
30.77136
31.02262
31.46765
32.13164
33.04363
0
0
0
0
0
0
0
0
0
0
0
0
0
0
0
0
0
0
29.76038
30.00264
30.42859
31.06204
31.92916
0
0
0
0
0
0
0
0
0
0
0
0
0
0
0
0
0
0
0
28.81203
29.04591
29.45463
30.05998
30.88668
0
0
0
0
0
0
0
0
0
0
0
0
0
0
0
0
0
0
0
0
27.91297
28.13953
28.53223
29.11192
29.90122
0
0
0
0
0
0
0
0
0
0
0
0
0
0
0
0
0
0
0
0
27.04242
27.26182
27.63987
28.19531
28.94976
0
0
0
0
0
0
0
0
0
0
0
0
0
0
0
0
0
0
0
0
26.17174
26.38453
26.74805
27.28037
28.00091
0
0
0
0
0
0
0
0
0
0
0
0
0
0
0
0
0
0
0
0
25.28285
25.48803
25.83728
26.3462
27.03335
0
0
0
0
0
0
0
0
0
0
24.40013
24.5987
24.9332
25.41974
26.07446
0
0
0
0
0
0
0
0
0
0
23.56063
23.75109
24.07257
24.53758
25.16255
0
0
0
0
0
0
0
0
0
0
22.7839
22.9678
23.2757
23.7218
24.3192
0
0
0
0
0
0
0
0
0
0
22.0816
22.25597
22.55237
22.97989
23.55317
0
0
0
0
0
0
0
0
0
0
40.12641
40.477
41.13004
42.13476
43.54835
0
0
0
0
0
0
0
0
0
0
38.71771
39.04924
39.664
40.60665
41.92876
0
0
0
0
0
0
0
0
0
0
37.46191
37.77857
38.36233
39.25402
40.50068
0
0
0
0
0
0
0
0
0
0
36.31601
36.62034
37.17807
38.02663
39.2092
0
0
0
0
0
0
0
0
0
0
35.22613
35.51967
36.054
36.86411
37.98955
0
0
0
0
0
0
0
0
0
0
34.13079
34.41368
34.92534
35.69808
36.76875
0
0
0
0
0
0
0
0
0
0
0
0
0
0
0
33.00083
33.27278
33.76122
34.49621
35.51153
0
0
0
0
0
0
0
0
0
0
0
0
0
0
0
0
31.87378
32.13525
32.6012
33.29959
34.26164
0
0
0
0
0
0
0
0
0
0
0
0
0
0
0
0
0
30.78751
31.03888
31.48413
32.14845
33.06089
0
0
0
0
0
0
0
0
0
0
0
0
0
0
0
0
0
0
29.76038
30.00264
30.42859
31.06204
31.92916
0
0
0
0
0
0
0
0
0
0
0
0
0
0
0
0
0
0
0
28.79694
29.03068
29.43916
30.04417
30.87041
0
0
0
0
0
0
0
0
0
0
0
0
0
0
0
0
0
0
0
0
27.89194
28.11825
28.51058
29.08976
29.87841
0
0
0
0
0
0
0
0
0
0
0
0
0
0
0
0
0
0
0
0
27.03348
27.25262
27.63039
28.18556
28.93975
0
0
0
0
0
0
0
0
0
0
0
0
0
0
0
0
0
0
0
0
26.20101
26.41376
26.77753
27.31049
28.03213
0
0
0
0
0
0
0
0
0
0
0
0
0
0
0
0
0
0
0
0
25.36846
25.57397
25.92442
26.43549
27.12591
0
0
0
0
0
0
0
0
0
0
0
0
0
0
0
0
0
0
0
0
24.5164
24.71564
25.05178
25.54118
26.20011
0
0
0
0
0
0
0
0
0
0
23.67126
23.86226
24.18529
24.65283
25.28158
0
0
0
0
0
0
0
0
0
0
22.86548
23.04987
23.35881
23.80674
24.40677
0
0
0
0
0
0
0
0
0
0
22.12298
22.29758
22.59456
23.02301
23.59765
0
0
0
0
0
0
0
0
0
0
21.45056
21.61694
21.89969
22.31137
22.86169
0
0
0
0
0
0
0
0
0
0
38.62534
38.95504
39.5667
40.50473
41.82033
0
0
0
0
0
0
0
0
0
0
37.2985
37.61221
38.19091
39.07494
40.31075
0
0
0
0
0
0
0
0
0
0
36.11306
36.41389
36.96553
37.80484
38.9743
0
0
0
0
0
0
0
0
0
0
35.02911
35.31926
35.84766
36.64873
37.76138
0
0
0
0
0
0
0
0
0
0
33.99632
34.27685
34.78434
35.55069
36.61228
0
0
0
0
0
0
0
0
0
0
32.95664
33.22775
33.71463
34.44722
35.45911
0
0
0
0
0
0
0
0
0
0
0
0
0
0
0
0
31.88272
32.1441
32.60994
33.30809
34.26978
0
0
0
0
0
0
0
0
0
0
0
0
0
0
0
0
0
30.81061
31.06213
31.50765
32.17241
33.0854
0
0
0
0
0
0
0
0
0
0
0
0
0
0
0
0
0
0
29.776
30.01839
30.44456
31.07834
31.94593
0
0
0
0
0
0
0
0
0
0
0
0
0
0
0
0
0
0
0
28.79694
29.03068
29.43916
30.04417
30.87041
0
0
0
0
0
0
0
0
0
0
0
0
0
0
0
0
0
0
0
0
27.87737
28.10352
28.49561
29.07444
29.86263
0
0
0
0
0
0
0
0
0
0
0
0
0
0
0
0
0
0
0
0
27.01315
27.23201
27.60939
28.16404
28.91757
0
0
0
0
0
0
0
0
0
0
0
0
0
0
0
0
0
0
0
0
26.19226
26.40472
26.76818
27.30082
28.02213
0
0
0
0
0
0
0
0
0
0
0
0
0
0
0
0
0
0
0
0
25.39649
25.60186
25.95251
26.46408
27.15543
0
0
0
0
0
0
0
0
0
0
0
0
0
0
0
0
0
0
0
0
24.59862
24.79818
25.13534
25.6267
26.28859
0
0
0
0
0
0
0
0
0
0
0
0
0
0
0
0
0
0
0
0
23.78327
23.97475
24.29933
24.76946
25.40211
0
0
0
0
0
0
0
0
0
0
22.97211
23.15709
23.46737
23.9177
24.52119
0
0
0
0
0
0
0
0
0
0
22.20183
22.37675
22.67477
23.10487
23.68199
0
0
0
0
0
0
0
0
0
0
21.49047
21.65712
21.94037
22.35294
22.9045
0
0
0
0
0
0
0
0
0
0
20.85409
21.005
21.2756
21.66905
22.19844
0
0
0
0
0
0
0
0
0
0
37.21172
37.52384
38.09985
38.97983
40.20993
0
0
0
0
0
0
0
0
0
0
35.95911
36.25741
36.80461
37.6372
38.7971
0
0
0
0
0
0
0
0
0
0
34.83769
35.12483
35.64788
36.44078
37.54185
0
0
0
0
0
0
0
0
0
0
33.8105
34.08814
34.59042
35.34881
36.39906
0
0
0
0
0
0
0
0
0
0
32.83001
33.0992
33.58247
34.30948
35.3134
0
0
0
0
0
0
0
0
0
0
31.84157
32.10229
32.5669
33.26304
34.22181
0
0
0
0
0
0
0
0
0
0
0
0
0
0
0
0
0
30.81974
31.07127
31.51677
32.18147
33.09427
0
0
0
0
0
0
0
0
0
0
0
0
0
0
0
0
0
0
29.79841
30.041
30.46748
31.10172
31.96992
0
0
0
0
0
0
0
0
0
0
0
0
0
0
0
0
0
0
0
28.81203
29.04591
29.45463
30.05998
30.88668
0
0
0
0
0
0
0
0