/*--------------------------------*- C++ -*----------------------------------*\
| =========                 |                                                 |
| \\      /  F ield         | OpenFOAM: The Open Source CFD Toolbox           |
|  \\    /   O peration     | Version:  2306                                  |
|   \\  /    A nd           | Website:  www.openfoam.com                      |
|    \\/     M anipulation  |                                                 |
\*---------------------------------------------------------------------------*/
FoamFile
{
    version     2.0;
    format      ascii;
    arch        "LSB;label=32;scalar=64";
    class       volScalarField;
    location    "0.9/fuel";
    object      iDmdtfuel.H2;
}
// * * * * * * * * * * * * * * * * * * * * * * * * * * * * * * * * * * * * * //

dimensions      [1 -3 -1 0 0 0 0];

internalField   nonuniform List<scalar> 
16000
(
-9.695318
-9.77804
-8.876013
-9.239133
-9.944602
-8.929957
-9.315563
-8.176327
-8.479986
-8.917767
-10.19507
-9.035866
-9.469343
-8.21759
-8.530079
-8.990032
-7.612588
-7.829199
-8.198696
-8.720561
-10.51981
-9.188269
-9.70037
-8.297655
-8.62837
-9.135402
-7.646357
-7.867679
-8.246177
-8.790538
-7.143524
-7.303224
-7.581146
-8.023712
-8.636938
-10.86842
-9.372742
-9.999573
-8.4105
-8.769717
-9.353771
-7.711388
-7.942305
-8.33932
-8.931351
-7.172193
-7.334824
-7.617709
-8.069683
-8.70627
-6.740165
-6.864431
-7.08121
-7.425372
-7.94666
-0
-11.12712
-9.552343
-10.32037
-8.542421
-8.940675
-9.636656
-7.801818
-8.047425
-8.473241
-9.143042
-7.227113
-7.395648
-7.688599
-8.159872
-8.845899
-6.765067
-6.891337
-7.111301
-7.460794
-7.992088
-0
-6.386067
-6.486218
-6.663495
-6.940908
-7.355162
-0
-0
-11.28632
-9.672231
-10.55744
-8.663917
-9.106961
-9.940134
-7.905096
-8.170228
-8.635212
-9.417727
-7.302745
-7.480183
-7.788432
-8.289589
-9.056146
-6.812584
-6.942854
-7.169204
-7.529468
-8.08125
-0
-6.40807
-6.509649
-6.689166
-6.970084
-7.390129
-0
-0
-6.070015
-6.153486
-6.302921
-6.535943
-6.876784
-0
-0
-0
-11.37399
-9.737768
-10.70275
-8.738693
-9.217594
-10.16376
-7.996559
-8.283219
-8.79276
-9.713141
-7.387644
-7.576656
-7.905035
-8.446594
-9.329759
-6.877535
-7.013763
-7.249658
-7.626195
-8.20959
-0
-6.449928
-6.554337
-6.738305
-7.026225
-7.457935
-0
-0
-6.089702
-6.174237
-6.325316
-6.560858
-6.905577
-0
-0
-0
-5.784661
-5.855913
-5.985259
-6.186172
-6.477118
-0
-0
-0
-0
-11.41241
-9.770106
-10.78252
-8.774594
-9.27788
-10.30052
-8.049352
-8.352544
-8.897274
-9.930516
-7.460605
-7.661998
-8.012282
-8.599473
-9.625257
-6.949461
-7.093295
-7.341441
-7.739209
-8.365163
-0
-6.506804
-6.615386
-6.805918
-7.104229
-7.553481
-0
-0
-6.127063
-6.213693
-6.368015
-6.608543
-6.960985
-0
-0
-0
-5.802452
-5.874518
-6.005125
-6.207928
-6.501706
-0
-0
-0
-0
-5.524563
-5.586742
-5.700779
-5.877824
-6.131992
-0
-0
-0
-0
-0
-11.41241
-9.783168
-10.81741
-8.789374
-9.307546
-10.37548
-8.07166
-8.385714
-8.954097
-10.06337
-7.500525
-7.711097
-8.077871
-8.700645
-9.842704
-7.009783
-7.161553
-7.422575
-7.843185
-8.516943
-0
-6.569095
-6.682932
-6.881718
-7.193226
-7.665213
-0
-0
-6.177579
-6.267274
-6.426328
-6.674152
-7.037993
-0
-0
-0
-5.836152
-5.909809
-6.042886
-6.249402
-6.548769
-0
-0
-0
-0
-5.540769
-5.603588
-5.718617
-5.897141
-6.153466
-0
-0
-0
-0
-0
-5.285734
-5.340961
-5.443115
-5.601492
-5.827742
-0
-0
-0
-0
-0
-0
-11.37399
-9.783168
-10.81741
-8.794283
-9.319506
-10.40824
-8.078761
-8.399315
-8.982026
-10.13623
-7.515356
-7.73175
-8.109158
-8.755591
-9.975778
-7.041284
-7.198766
-7.46908
-7.906571
-8.617202
-0
-6.620286
-6.739494
-6.946705
-7.271876
-7.768096
-0
-0
-6.232394
-6.325901
-6.490808
-6.747699
-7.125897
-0
-0
-0
-5.881528
-5.957497
-6.094145
-6.306035
-6.613532
-0
-0
-0
-0
-5.57142
-5.635481
-5.752442
-5.933851
-6.194406
-0
-0
-0
-0
-0
-5.300596
-5.356333
-5.459289
-5.618852
-5.846813
-0
-0
-0
-0
-0
-0
-5.065069
-5.1149
-5.207548
-5.351031
-5.555053
-0
-0
-0
-0
-0
-0
-0
-11.28632
-9.770106
-10.78252
-8.794283
-9.319506
-10.40824
-8.080208
-8.403813
-8.993279
-10.16809
-7.518479
-7.738266
-8.121951
-8.782611
-10.04891
-7.05151
-7.2125
-7.488551
-7.936733
-8.671654
-0
-6.645934
-6.76891
-6.981984
-7.316779
-7.830618
-0
-0
-6.276661
-6.373997
-6.544731
-6.810712
-7.203591
-0
-0
-0
-5.930373
-6.009191
-6.150196
-6.368645
-6.68615
-0
-0
-0
-0
-5.61254
-5.678398
-5.798131
-5.983677
-6.250315
-0
-0
-0
-0
-0
-5.328668
-5.385393
-5.4899
-5.651765
-5.88306
-0
-0
-0
-0
-0
-0
-5.078774
-5.129021
-5.222326
-5.366785
-5.572199
-0
-0
-0
-0
-0
-0
-0
-4.860157
-4.905699
-4.990621
-5.121885
-5.307851
-0
-0
-0
-0
-0
-0
-0
-0
-11.12712
-9.737768
-10.70275
-8.789374
-9.307546
-10.37548
-8.080208
-8.403813
-8.993279
-10.16809
-7.51821
-7.739566
-8.126171
-8.793512
-10.08096
-7.052345
-7.215324
-7.494646
-7.949053
-8.69849
-0
-6.653143
-6.778368
-6.994912
-7.335495
-7.860315
-0
-0
-6.298017
-6.397981
-6.57264
-6.844759
-7.247763
-0
-0
-0
-5.969223
-6.050857
-6.196106
-6.420953
-6.748344
-0
-0
-0
-0
-5.656498
-5.724548
-5.847622
-6.038144
-6.312132
-0
-0
-0
-0
-0
-5.366211
-5.424354
-5.531074
-5.696214
-5.93226
-0
-0
-0
-0
-0
-0
-5.104635
-5.155681
-5.250253
-5.396595
-5.604705
-0
-0
-0
-0
-0
-0
-0
-4.872855
-4.918741
-5.004212
-5.136291
-5.323415
-0
-0
-0
-0
-0
-0
-0
-0
-4.669069
-4.711138
-4.78964
-4.910722
-5.081638
-0
-0
-0
-0
-0
-0
-0
-0
-0
-10.86842
-9.672231
-10.55744
-8.774594
-9.27788
-10.30052
-8.078761
-8.399315
-8.982026
-10.13623
-7.51821
-7.739566
-8.126171
-8.793512
-10.08096
-7.051145
-7.215025
-7.495837
-7.953117
-8.709348
-0
-6.652588
-6.779057
-6.997506
-7.341316
-7.872451
-0
-0
-6.303134
-6.404629
-6.581519
-6.857146
-7.266094
-0
-0
-0
-5.987321
-6.070851
-6.218876
-6.44788
-6.78178
-0
-0
-0
-0
-5.690989
-5.761176
-5.887441
-6.082702
-6.36374
-0
-0
-0
-0
-0
-5.406097
-5.465957
-5.575316
-5.744344
-5.986044
-0
-0
-0
-0
-0
-0
-5.139125
-5.191311
-5.287681
-5.436685
-5.648608
-0
-0
-0
-0
-0
-0
-0
-4.896798
-4.94334
-5.029865
-5.163509
-5.352868
-0
-0
-0
-0
-0
-0
-0
-0
-4.680883
-4.72324
-4.802207
-4.923981
-5.095876
-0
-0
-0
-0
-0
-0
-0
-0
-0
-4.490207
-4.529439
-4.602516
-4.714945
-4.873128
-0
-0
-0
-0
-0
-0
-0
-0
-0
-0
-10.51981
-9.552343
-10.32037
-8.738693
-9.217594
-10.16376
-8.07166
-8.385714
-8.954097
-10.06337
-7.518479
-7.738266
-8.121951
-8.782611
-10.04891
-7.051145
-7.215025
-7.495837
-7.953117
-8.709348
-0
-6.650863
-6.777886
-6.997177
-7.342435
-7.876464
-0
-0
-6.301694
-6.404016
-6.582084
-6.859572
-7.271765
-0
-0
-0
-5.990936
-6.075548
-6.225093
-6.456355
-6.793854
-0
-0
-0
-0
-5.706537
-5.778138
-5.906436
-6.104671
-6.390155
-0
-0
-0
-0
-0
-5.437015
-5.498526
-5.610361
-5.783013
-6.03
-0
-0
-0
-0
-0
-0
-5.175566
-5.229122
-5.327613
-5.479743
-5.696145
-0
-0
-0
-0
-0
-0
-0
-4.92865
-4.976124
-5.064134
-5.19998
-5.392476
-0
-0
-0
-0
-0
-0
-0
-0
-4.703146
-4.746047
-4.825904
-4.949001
-5.122776
-0
-0
-0
-0
-0
-0
-0
-0
-0
-4.501239
-4.540713
-4.61419
-4.727214
-4.886236
-0
-0
-0
-0
-0
-0
-0
-0
-0
-0
-4.322236
-4.359129
-4.427575
-4.532543
-4.67976
-0
-0
-0
-0
-0
-0
-0
-0
-0
-0
-10.19507
-9.372742
-9.999573
-8.663917
-9.106961
-9.940134
-8.049352
-8.352544
-8.897274
-9.930516
-7.515356
-7.73175
-8.109158
-8.755591
-9.975778
-7.052345
-7.215324
-7.494646
-7.949053
-8.69849
-0
-6.650863
-6.777886
-6.997177
-7.342435
-7.876464
-0
-0
-6.299664
-6.402348
-6.580923
-6.859215
-7.272844
-0
-0
-0
-5.988917
-6.074101
-6.224417
-6.456816
-6.796164
-0
-0
-0
-0
-5.709039
-5.78143
-5.910801
-6.110574
-6.398375
-0
-0
-0
-0
-0
-5.450527
-5.513112
-5.626483
-5.801339
-6.051535
-0
-0
-0
-0
-0
-0
-5.203506
-5.25836
-5.358809
-5.513795
-5.734293
-0
-0
-0
-0
-0
-0
-0
-4.962137
-5.010722
-5.100469
-5.238872
-5.435014
-0
-0
-0
-0
-0
-0
-0
-0
-4.732697
-4.776369
-4.857472
-4.982419
-5.15882
-0
-0
-0
-0
-0
-0
-0
-0
-0
-4.52202
-4.561951
-4.636185
-4.750344
-4.910971
-0
-0
-0
-0
-0
-0
-0
-0
-0
-0
-4.332571
-4.369671
-4.438463
-4.543947
-4.691893
-0
-0
-0
-0
-0
-0
-0
-0
-0
-0
-4.164049
-4.198975
-4.263432
-4.361903
-4.499554
-0
-0
-0
-0
-0
-0
-0
-0
-0
-0
-9.944602
-9.188269
-9.70037
-8.542421
-8.940675
-9.636656
-7.996559
-8.283219
-8.79276
-9.713141
-7.500525
-7.711097
-8.077871
-8.700645
-9.842704
-7.05151
-7.2125
-7.488551
-7.936733
-8.671654
-0
-6.652588
-6.779057
-6.997506
-7.341316
-7.872451
-0
-0
-6.299664
-6.402348
-6.580923
-6.859215
-7.272844
-0
-0
-0
-5.986712
-6.072143
-6.22278
-6.45565
-6.795778
-0
-0
-0
-0
-5.706635
-5.779436
-5.909331
-6.109834
-6.398746
-0
-0
-0
-0
-0
-5.452189
-5.515362
-5.629516
-5.805457
-6.057228
-0
-0
-0
-0
-0
-0
-5.215365
-5.271047
-5.37268
-5.529351
-5.752248
-0
-0
-0
-0
-0
-0
-0
-4.987559
-5.037182
-5.128504
-5.269204
-5.468613
-0
-0
-0
-0
-0
-0
-0
-0
-4.763626
-4.808208
-4.890757
-5.017834
-5.197254
-0
-0
-0
-0
-0
-0
-0
-0
-0
-4.549547
-4.590121
-4.665414
-4.78115
-4.94401
-0
-0
-0
-0
-0
-0
-0
-0
-0
-0
-4.352036
-4.38952
-4.458965
-4.565431
-4.714767
-0
-0
-0
-0
-0
-0
-0
-0
-0
-0
-4.17376
-4.208865
-4.273622
-4.372546
-4.510835
-0
-0
-0
-0
-0
-0
-0
-0
-0
-0
-4.014732
-4.047958
-4.108925
-4.201693
-4.330924
-0
-0
-0
-0
-0
-0
-0
-0
-0
-0
-9.77804
-9.035866
-9.469343
-8.4105
-8.769717
-9.353771
-7.905096
-8.170228
-8.635212
-9.417727
-7.460605
-7.661998
-8.012282
-8.599473
-9.625257
-7.041284
-7.198766
-7.46908
-7.906571
-8.617202
-0
-6.653143
-6.778368
-6.994912
-7.335495
-7.860315
-0
-0
-6.301694
-6.404016
-6.582084
-6.859572
-7.271765
-0
-0
-0
-5.986712
-6.072143
-6.22278
-6.45565
-6.795778
-0
-0
-0
-0
-5.704334
-5.77731
-5.907415
-6.108206
-6.39756
-0
-0
-0
-0
-0
-5.449531
-5.513004
-5.627524
-5.803949
-6.056419
-0
-0
-0
-0
-0
-0
-5.216385
-5.27251
-5.374725
-5.532186
-5.756191
-0
-0
-0
-0
-0
-0
-0
-4.998052
-5.048325
-5.140575
-5.282589
-5.483849
-0
-0
-0
-0
-0
-0
-0
-0
-4.786894
-4.832315
-4.916154
-5.045109
-5.227187
-0
-0
-0
-0
-0
-0
-0
-0
-0
-4.578243
-4.619569
-4.696078
-4.813615
-4.979017
-0
-0
-0
-0
-0
-0
-0
-0
-0
-0
-4.377774
-4.415798
-4.486148
-4.593974
-4.745233
-0
-0
-0
-0
-0
-0
-0
-0
-0
-0
-4.192046
-4.227481
-4.292804
-4.392585
-4.532088
-0
-0
-0
-0
-0
-0
-0
-0
-0
-0
-4.02388
-4.05726
-4.118493
-4.21166
-4.341455
-0
-0
-0
-0
-0
-0
-0
-0
-0
-0
-3.873483
-3.905234
-3.963092
-4.050793
-4.172556
-0
-0
-0
-0
-0
-0
-0
-0
-0
-0
-9.695318
-8.929957
-9.315563
-8.297655
-8.62837
-9.135402
-7.801818
-8.047425
-8.473241
-9.143042
-7.387644
-7.576656
-7.905035
-8.446594
-9.329759
-7.009783
-7.161553
-7.422575
-7.843185
-8.516943
-0
-6.645934
-6.76891
-6.981984
-7.316779
-7.830618
-0
-0
-6.303134
-6.404629
-6.581519
-6.857146
-7.266094
-0
-0
-0
-5.988917
-6.074101
-6.224417
-6.456816
-6.796164
-0
-0
-0
-0
-5.704334
-5.77731
-5.907415
-6.108206
-6.39756
-0
-0
-0
-0
-0
-5.447186
-5.510784
-5.625446
-5.80205
-6.054778
-0
-0
-0
-0
-0
-0
-5.213564
-5.26991
-5.372383
-5.530172
-5.754629
-0
-0
-0
-0
-0
-0
-0
-4.998574
-5.049186
-5.141872
-5.284471
-5.486536
-0
-0
-0
-0
-0
-0
-0
-0
-4.796249
-4.842183
-4.926761
-5.056759
-5.240294
-0
-0
-0
-0
-0
-0
-0
-0
-0
-4.599654
-4.641662
-4.719238
-4.838338
-5.00594
-0
-0
-0
-0
-0
-0
-0
-0
-0
-0
-4.404506
-4.443154
-4.514538
-4.623902
-4.777334
-0
-0
-0
-0
-0
-0
-0
-0
-0
-0
-4.216188
-4.252081
-4.318185
-4.419148
-4.560324
-0
-0
-0
-0
-0
-0
-0
-0
-0
-0
-4.041107
-4.074771
-4.1365
-4.230421
-4.361284
-0
-0
-0
-0
-0
-0
-0
-0
-0
-0
-3.882121
-3.914007
-3.972101
-4.060158
-4.182422
-0
-0
-0
-0
-0
-0
-0
-0
-0
-0
-3.739615
-3.770062
-3.825142
-3.908279
-4.023352
-0
-0
-0
-0
-0
-0
-0
-0
-0
-0
-8.876013
-9.239133
-8.21759
-8.530079
-8.990032
-7.711388
-7.942305
-8.33932
-8.931351
-7.302745
-7.480183
-7.788432
-8.289589
-9.056146
-6.949461
-7.093295
-7.341441
-7.739209
-8.365163
-0
-6.620286
-6.739494
-6.946705
-7.271876
-7.768096
-0
-0
-6.298017
-6.397981
-6.57264
-6.844759
-7.247763
-0
-0
-0
-5.990936
-6.075548
-6.225093
-6.456355
-6.793854
-0
-0
-0
-0
-5.706635
-5.779436
-5.909331
-6.109834
-6.398746
-0
-0
-0
-0
-0
-5.447186
-5.510784
-5.625446
-5.80205
-6.054778
-0
-0
-0
-0
-0
-0
-5.211209
-5.267646
-5.370215
-5.528116
-5.752722
-0
-0
-0
-0
-0
-0
-0
-4.995655
-5.046431
-5.1393
-5.282121
-5.484481
-0
-0
-0
-0
-0
-0
-0
-0
-4.796382
-4.842577
-4.927487
-5.057922
-5.242051
-0
-0
-0
-0
-0
-0
-0
-0
-0
-4.608049
-4.650465
-4.728637
-4.848577
-5.017346
-0
-0
-0
-0
-0
-0
-0
-0
-0
-0
-4.424305
-4.463509
-4.535784
-4.646463
-4.801744
-0
-0
-0
-0
-0
-0
-0
-0
-0
-0
-0
-4.241178
-4.277598
-4.344584
-4.446875
-4.589927
-0
-0
-0
-0
-0
-0
-0
-0
-0
-0
-4.063818
-4.097873
-4.160284
-4.255239
-4.38757
-0
-0
-0
-0
-0
-0
-0
-0
-0
-0
-3.898391
-3.930523
-3.989053
-4.07778
-4.200992
-0
-0
-0
-0
-0
-0
-0
-0
-0
-0
-3.747791
-3.778356
-3.833645
-3.917101
-4.032624
-0
-0
-0
-0
-0
-0
-0
-0
-0
-0
-3.612497
-3.64181
-3.694377
-3.773389
-3.882402
-0
-0
-0
-0
-0
-0
-0
-0
-0
-0
-8.176327
-8.479986
-8.917767
-7.646357
-7.867679
-8.246177
-8.790538
-7.227113
-7.395648
-7.688599
-8.159872
-8.845899
-6.877535
-7.013763
-7.249658
-7.626195
-8.20959
-0
-6.569095
-6.682932
-6.881718
-7.193226
-7.665213
-0
-0
-6.276661
-6.373997
-6.544731
-6.810712
-7.203591
-0
-0
-0
-5.987321
-6.070851
-6.218876
-6.44788
-6.78178
-0
-0
-0
-0
-5.709039
-5.78143
-5.910801
-6.110574
-6.398375
-0
-0
-0
-0
-0
-5.449531
-5.513004
-5.627524
-5.803949
-6.056419
-0
-0
-0
-0
-0
-0
-5.211209
-5.267646
-5.370215
-5.528116
-5.752722
-0
-0
-0
-0
-0
-0
-0
-4.993313
-5.044155
-5.137088
-5.279977
-5.48242
-0
-0
-0
-0
-0
-0
-0
-0
-4.79341
-4.839727
-4.924767
-5.05535
-5.239668
-0
-0
-0
-0
-0
-0
-0
-0
-0
-4.607879
-4.650495
-4.72892
-4.849191
-5.018402
-0
-0
-0
-0
-0
-0
-0
-0
-0
-0
-4.43189
-4.471415
-4.544172
-4.655536
-4.811767
-0
-0
-0
-0
-0
-0
-0
-0
-0
-0
-0
-4.259562
-4.296442
-4.364177
-4.467583
-4.612207
-0
-0
-0
-0
-0
-0
-0
-0
-0
-0
-0
-0
-4.087256
-4.121756
-4.184931
-4.281037
-4.415002
-0
-0
-0
-0
-0
-0
-0
-0
-0
-0
-3.919812
-3.95228
-4.011409
-4.10105
-4.225557
-0
-0
-0
-0
-0
-0
-0
-0
-0
-0
-3.763193
-3.793971
-3.849649
-3.933701
-4.050071
-0
-0
-0
-0
-0
-0
-0
-0
-0
-0
-3.620252
-3.649668
-3.702422
-3.781721
-3.891139
-0
-0
-0
-0
-0
-0
-0
-0
-0
-0
-3.491611
-3.519891
-3.570201
-3.645452
-3.748957
-0
-0
-0
-0
-0
-0
-0
-0
-0
-0
-7.612588
-7.829199
-8.198696
-8.720561
-7.172193
-7.334824
-7.617709
-8.069683
-8.70627
-6.812584
-6.942854
-7.169204
-7.529468
-8.08125
-0
-6.506804
-6.615386
-6.805918
-7.104229
-7.553481
-0
-0
-6.232394
-6.325901
-6.490808
-6.747699
-7.125897
-0
-0
-0
-5.969223
-6.050857
-6.196106
-6.420953
-6.748344
-0
-0
-0
-0
-5.706537
-5.778138
-5.906436
-6.104671
-6.390155
-0
-0
-0
-0
-0
-5.452189
-5.515362
-5.629516
-5.805457
-6.057228
-0
-0
-0
-0
-0
-0
-5.213564
-5.26991
-5.372383
-5.530172
-5.754629
-0
-0
-0
-0
-0
-0
-0
-4.993313
-5.044155
-5.137088
-5.279977
-5.48242
-0
-0
-0
-0
-0
-0
-0
-0
-4.791097
-4.837463
-4.922543
-5.053163
-5.237522
-0
-0
-0
-0
-0
-0
-0
-0
-0
-4.604888
-4.647594
-4.726108
-4.846476
-5.015803
-0
-0
-0
-0
-0
-0
-0
-0
-0
-0
-4.431486
-4.47116
-4.54411
-4.655724
-4.812288
-0
-0
-0
-0
-0
-0
-0
-0
-0
-0
-0
-4.266453
-4.303591
-4.371714
-4.475682
-4.621089
-0
-0
-0
-0
-0
-0
-0
-0
-0
-0
-0
-0
-4.104394
-4.139274
-4.203086
-4.300145
-4.435459
-0
-0
-0
-0
-0
-0
-0
-0
-0
-0
-0
-0
-0
-3.941858
-3.974706
-4.034499
-4.125151
-4.25109
-0
-0
-0
-0
-0
-0
-0
-0
-0
-0
-3.783447
-3.814516
-3.870722
-3.955587
-4.073112
-0
-0
-0
-0
-0
-0
-0
-0
-0
-0
-3.634865
-3.664465
-3.717565
-3.7974
-3.907579
-0
-0
-0
-0
-0
-0
-0
-0
-0
-0
-3.498978
-3.527351
-3.577828
-3.653338
-3.757211
-0
-0
-0
-0
-0
-0
-0
-0
-0
-0
-3.376502
-3.403827
-3.452059
-3.523894
-3.622358
-0
-0
-0
-0
-0
-0
-0
-0
-0
-0
-7.143524
-7.303225
-7.581146
-8.023712
-8.636938
-6.765067
-6.891337
-7.111301
-7.460794
-7.992088
-0
-6.449928
-6.554337
-6.738305
-7.026225
-7.457935
-0
-0
-6.177579
-6.267274
-6.426328
-6.674152
-7.037993
-0
-0
-0
-5.930373
-6.009191
-6.150196
-6.368645
-6.68615
-0
-0
-0
-0
-5.690989
-5.761176
-5.887441
-6.082702
-6.36374
-0
-0
-0
-0
-0
-5.450527
-5.513112
-5.626483
-5.801339
-6.051535
-0
-0
-0
-0
-0
-0
-5.216385
-5.27251
-5.374725
-5.532186
-5.756191
-0
-0
-0
-0
-0
-0
-0
-4.995655
-5.046431
-5.1393
-5.282121
-5.484481
-0
-0
-0
-0
-0
-0
-0
-0
-4.791097
-4.837463
-4.922543
-5.053163
-5.237522
-0
-0
-0
-0
-0
-0
-0
-0
-0
-4.602616
-4.645356
-4.723894
-4.844278
-5.013617
-0
-0
-0
-0
-0
-0
-0
-0
-0
-0
-4.428504
-4.468242
-4.54125
-4.652923
-4.809553
-0
-0
-0
-0
-0
-0
-0
-0
-0
-0
-0
-4.265866
-4.303118
-4.371382
-4.47554
-4.621196
-0
-0
-0
-0
-0
-0
-0
-0
-0
-0
-0
-0
-4.110688
-4.145773
-4.209903
-4.307424
-4.443387
-0
-0
-0
-0
-0
-0
-0
-0
-0
-0
-0
-0
-0
-3.95789
-3.991055
-4.051391
-4.142867
-4.26997
-0
-0
-0
-0
-0
-0
-0
-0
-0
-0
-0
-0
-0
-0
-3.804241
-3.835633
-3.892421
-3.978178
-4.09697
-0
-0
-0
-0
-0
-0
-0
-0
-0
-0
-3.654062
-3.683912
-3.73748
-3.818041
-3.929254
-0
-0
-0
-0
-0
-0
-0
-0
-0
-0
-3.512869
-3.541405
-3.59219
-3.668183
-3.772743
-0
-0
-0
-0
-0
-0
-0
-0
-0
-0
-3.383514
-3.410921
-3.459306
-3.531376
-3.630172
-0
-0
-0
-0
-0
-0
-0
-0
-0
-0
-3.266747
-3.293199
-3.339502
-3.408183
-3.502042
-0
-0
-0
-0
-0
-0
-0
-0
-0
-0
-6.740165
-6.864431
-7.08121
-7.425372
-7.94666
-0
-6.40807
-6.509649
-6.689166
-6.970084
-7.390129
-0
-0
-6.127063
-6.213693
-6.368015
-6.608543
-6.960985
-0
-0
-0
-5.881528
-5.957497
-6.094145
-6.306035
-6.613532
-0
-0
-0
-0
-5.656498
-5.724548
-5.847622
-6.038144
-6.312132
-0
-0
-0
-0
-0
-5.437015
-5.498526
-5.610361
-5.783013
-6.03
-0
-0
-0
-0
-0
-0
-5.215365
-5.271047
-5.37268
-5.529351
-5.752248
-0
-0
-0
-0
-0
-0
-0
-4.998574
-5.049186
-5.141872
-5.284471
-5.486536
-0
-0
-0
-0
-0
-0
-0
-0
-4.79341
-4.839727
-4.924767
-5.05535
-5.239668
-0
-0
-0
-0
-0
-0
-0
-0
-0
-4.602616
-4.645356
-4.723894
-4.844278
-5.013617
-0
-0
-0
-0
-0
-0
-0
-0
-0
-0
-4.426281
-4.46604
-4.53906
-4.650735
-4.807356
-0
-0
-0
-0
-0
-0
-0
-0
-0
-0
-0
-4.262912
-4.300207
-4.368506
-4.472693
-4.618378
-0
-0
-0
-0
-0
-0
-0
-0
-0
-0
-0
-0
-4.109962
-4.14513
-4.209366
-4.307023
-4.443173
-0
-0
-0
-0
-0
-0
-0
-0
-0
-0
-0
-0
-0
-3.963669
-3.996996
-4.057592
-4.149453
-4.277095
-0
-0
-0
-0
-0
-0
-0
-0
-0
-0
-0
-0
-0
-0
-3.819288
-3.850944
-3.908199
-3.99467
-4.114481
-0
-0
-0
-0
-0
-0
-0
-0
-0
-0
-0
-0
-0
-0
-0
-3.673729
-3.703851
-3.757931
-3.839284
-3.951624
-0
-0
-0
-0
-0
-0
-0
-0
-0
-0
-3.531101
-3.559857
-3.611056
-3.687701
-3.793191
-0
-0
-0
-0
-0
-0
-0
-0
-0
-0
-3.396744
-3.424294
-3.472957
-3.545462
-3.644881
-0
-0
-0
-0
-0
-0
-0
-0
-0
-0
-3.273433
-3.299958
-3.346399
-3.415294
-3.509456
-0
-0
-0
-0
-0
-0
-0
-0
-0
-0
-3.161994
-3.187614
-3.232135
-3.297884
-3.387484
-0
-0
-0
-0
-0
-0
-0
-0
-0
-0
-6.386067
-6.486218
-6.663495
-6.940908
-7.355162
-0
-0
-6.089702
-6.174237
-6.325316
-6.560858
-6.905577
-0
-0
-0
-5.836152
-5.909809
-6.042886
-6.249402
-6.548769
-0
-0
-0
-0
-5.61254
-5.678398
-5.798131
-5.983677
-6.250315
-0
-0
-0
-0
-0
-5.406097
-5.465957
-5.575316
-5.744344
-5.986044
-0
-0
-0
-0
-0
-0
-5.203506
-5.25836
-5.358809
-5.513795
-5.734293
-0
-0
-0
-0
-0
-0
-0
-4.998052
-5.048325
-5.140575
-5.282589
-5.483849
-0
-0
-0
-0
-0
-0
-0
-0
-4.796382
-4.842577
-4.927487
-5.057922
-5.242051
-0
-0
-0
-0
-0
-0
-0
-0
-0
-4.604888
-4.647594
-4.726108
-4.846476
-5.015803
-0
-0
-0
-0
-0
-0
-0
-0
-0
-0
-4.426281
-4.46604
-4.53906
-4.650735
-4.807356
-0
-0
-0
-0
-0
-0
-0
-0
-0
-0
-0
-4.260743
-4.298051
-4.366351
-4.470529
-4.616193
-0
-0
-0
-0
-0
-0
-0
-0
-0
-0
-0
-0
-4.10705
-4.142246
-4.206498
-4.304162
-4.440313
-0
-0
-0
-0
-0
-0
-0
-0
-0
-0
-0
-0
-0
-3.962837
-3.996223
-4.056895
-4.148855
-4.276632
-0
-0
-0
-0
-0
-0
-0
-0
-0
-0
-0
-0
-0
-0
-3.824619
-3.856402
-3.913871
-4.000663
-4.120928
-0
-0
-0
-0
-0
-0
-0
-0
-0
-0
-0
-0
-0
-0
-0
-3.6879
-3.718237
-3.772719
-3.854698
-3.96793
-0
-0
-0
-0
-0
-0
-0
-0
-0
-0
-0
-0
-0
-0
-0
-0
-3.549741
-3.578734
-3.630381
-3.707731
-3.814231
-0
-0
-0
-0
-0
-0
-0
-0
-0
-0
-3.414094
-3.441835
-3.490871
-3.563961
-3.664221
-0
-0
-0
-0
-0
-0
-0
-0
-0
-0
-3.286054
-3.312706
-3.359398
-3.42869
-3.523417
-0
-0
-0
-0
-0
-0
-0
-0
-0
-0
-3.168379
-3.194064
-3.238711
-3.304656
-3.394533
-0
-0
-0
-0
-0
-0
-0
-0
-0
-0
-3.061872
-3.086747
-3.129588
-3.19262
-3.278258
-0
-0
-0
-0
-0
-0
-0
-0
-0
-0
-6.070015
-6.153486
-6.302921
-6.535943
-6.876784
-0
-0
-0
-5.802452
-5.874518
-6.005125
-6.207928
-6.501706
-0
-0
-0
-0
-5.57142
-5.635481
-5.752442
-5.933851
-6.194406
-0
-0
-0
-0
-0
-5.366211
-5.424354
-5.531074
-5.696214
-5.93226
-0
-0
-0
-0
-0
-0
-5.175566
-5.229122
-5.327613
-5.479743
-5.696145
-0
-0
-0
-0
-0
-0
-0
-4.987559
-5.037182
-5.128504
-5.269204
-5.468613
-0
-0
-0
-0
-0
-0
-0
-0
-4.796249
-4.842183
-4.926761
-5.056759
-5.240294
-0
-0
-0
-0
-0
-0
-0
-0
-0
-4.607879
-4.650495
-4.72892
-4.849191
-5.018402
-0
-0
-0
-0
-0
-0
-0
-0
-0
-0
-4.428504
-4.468242
-4.54125
-4.652923
-4.809553
-0
-0
-0
-0
-0
-0
-0
-0
-0
-0
-0
-4.260743
-4.298051
-4.366351
-4.470529
-4.616193
-0
-0
-0
-0
-0
-0
-0
-0
-0
-0
-0
-0
-4.104939
-4.14014
-4.204387
-4.302032
-4.438152
-0
-0
-0
-0
-0
-0
-0
-0
-0
-0
-0
-0
-0
-3.959977
-3.993379
-4.054052
-4.146003
-4.273759
-0
-0
-0
-0
-0
-0
-0
-0
-0
-0
-0
-0
-0
-0
-3.823708
-3.855531
-3.913052
-3.999913
-4.120274
-0
-0
-0
-0
-0
-0
-0
-0
-0
-0
-0
-0
-0
-0
-0
-3.692844
-3.723276
-3.777933
-3.86018
-3.973796
-0
-0
-0
-0
-0
-0
-0
-0
-0
-0
-0
-0
-0
-0
-0
-0
-3.563121
-3.592296
-3.644286
-3.722186
-3.829474
-0
-0
-0
-0
-0
-0
-0
-0
-0
-0
-0
-0
-0
-0
-0
-0
-0
-3.431802
-3.459745
-3.509181
-3.582899
-3.684066
-0
-0
-0
-0
-0
-0
-0
-0
-0
-0
-3.302595
-3.329414
-3.37644
-3.446264
-3.541752
-0
-0
-0
-0
-0
-0
-0
-0
-0
-0
-3.180441
-3.206237
-3.251111
-3.317417
-3.407812
-0
-0
-0
-0
-0
-0
-0
-0
-0
-0
-3.067978
-3.092911
-3.135866
-3.199078
-3.284972
-0
-0
-0
-0
-0
-0
-0
-0
-0
-0
-2.966123
-2.990251
-3.031554
-3.092032
-3.173994
-0
-0
-0
-0
-0
-0
-0
-0
-0
-0
-5.784661
-5.855913
-5.985259
-6.186172
-6.477118
-0
-0
-0
-0
-5.540769
-5.603588
-5.718617
-5.897141
-6.153466
-0
-0
-0
-0
-0
-5.328668
-5.385393
-5.4899
-5.651765
-5.88306
-0
-0
-0
-0
-0
-0
-5.139125
-5.191311
-5.287681
-5.436685
-5.648608
-0
-0
-0
-0
-0
-0
-0
-4.962137
-5.010722
-5.100469
-5.238872
-5.435014
-0
-0
-0
-0
-0
-0
-0
-0
-4.786894
-4.832315
-4.916154
-5.045109
-5.227187
-0
-0
-0
-0
-0
-0
-0
-0
-0
-4.608049
-4.650465
-4.728637
-4.848577
-5.017346
-0
-0
-0
-0
-0
-0
-0
-0
-0
-0
-4.431486
-4.471161
-4.54411
-4.655724
-4.812288
-0
-0
-0
-0
-0
-0
-0
-0
-0
-0
-0
-4.262912
-4.300207
-4.368506
-4.472693
-4.618378
-0
-0
-0
-0
-0
-0
-0
-0
-0
-0
-0
-0
-4.104939
-4.14014
-4.204387
-4.302032
-4.438152
-0
-0
-0
-0
-0
-0
-0
-0
-0
-0
-0
-0
-0
-3.957925
-3.991328
-4.05199
-4.143916
-4.271633
-0
-0
-0
-0
-0
-0
-0
-0
-0
-0
-0
-0
-0
-0
-3.820909
-3.852737
-3.910249
-3.997087
-4.117413
-0
-0
-0
-0
-0
-0
-0
-0
-0
-0
-0
-0
-0
-0
-0
-3.691881
-3.722332
-3.777022
-3.859315
-3.972995
-0
-0
-0
-0
-0
-0
-0
-0
-0
-0
-0
-0
-0
-0
-0
-0
-3.567726
-3.596974
-3.649103
-3.727227
-3.834841
-0
-0
-0
-0
-0
-0
-0
-0
-0
-0
-0
-0
-0
-0
-0
-0
-0
-3.444469
-3.472563
-3.522301
-3.596498
-3.698364
-0
-0
-0
-0
-0
-0
-0
-0
-0
-0
-0
-0
-0
-0
-0
-0
-0
-0
-3.31945
-3.346445
-3.393825
-3.464217
-3.560519
-0
-0
-0
-0
-0
-0
-0
-0
-0
-0
-3.196239
-3.22218
-3.267356
-3.334144
-3.425234
-0
-0
-0
-0
-0
-0
-0
-0
-0
-0
-3.079523
-3.104555
-3.147715
-3.211258
-3.297625
-0
-0
-0
-0
-0
-0
-0
-0
-0
-0
-2.971971
-2.996151
-3.037558
-3.098202
-3.180399
-0
-0
-0
-0
-0
-0
-0
-0
-0
-0
-2.874456
-2.897889
-2.937703
-2.995827
-3.074339
-0
-0
-0
-0
-0
-0
-0
-0
-0
-0
-5.524563
-5.586742
-5.700779
-5.877824
-6.131992
-0
-0
-0
-0
-0
-5.300596
-5.356333
-5.459289
-5.618852
-5.846813
-0
-0
-0
-0
-0
-0
-5.104635
-5.155681
-5.250253
-5.396595
-5.604705
-0
-0
-0
-0
-0
-0
-0
-4.92865
-4.976124
-5.064134
-5.19998
-5.392476
-0
-0
-0
-0
-0
-0
-0
-0
-4.763626
-4.808208
-4.890757
-5.017834
-5.197254
-0
-0
-0
-0
-0
-0
-0
-0
-0
-4.599654
-4.641662
-4.719238
-4.838338
-5.00594
-0
-0
-0
-0
-0
-0
-0
-0
-0
-0
-4.43189
-4.471415
-4.544172
-4.655536
-4.811767
-0
-0
-0
-0
-0
-0
-0
-0
-0
-0
-0
-4.265866
-4.303118
-4.371382
-4.47554
-4.621196
-0
-0
-0
-0
-0
-0
-0
-0
-0
-0
-0
-0
-4.10705
-4.142246
-4.206498
-4.304162
-4.440313
-0
-0
-0
-0
-0
-0
-0
-0
-0
-0
-0
-0
-0
-3.957925
-3.991328
-4.05199
-4.143916
-4.271633
-0
-0
-0
-0
-0
-0
-0
-0
-0
-0
-0
-0
-0
-0
-3.818917
-3.850742
-3.908238
-3.995048
-4.11533
-0
-0
-0
-0
-0
-0
-0
-0
-0
-0
-0
-0
-0
-0
-0
-3.689151
-3.719596
-3.774268
-3.856529
-3.970162
-0
-0
-0
-0
-0
-0
-0
-0
-0
-0
-0
-0
-0
-0
-0
-0
-3.566726
-3.595984
-3.648125
-3.726276
-3.83393
-0
-0
-0
-0
-0
-0
-0
-0
-0
-0
-0
-0
-0
-0
-0
-0
-0
-3.448777
-3.476924
-3.526775
-3.601156
-3.7033
-0
-0
-0
-0
-0
-0
-0
-0
-0
-0
-0
-0
-0
-0
-0
-0
-0
-0
-3.331473
-3.358592
-3.406234
-3.477054
-3.573974
-0
-0
-0
-0
-0
-0
-0
-0
-0
-0
-0
-0
-0
-0
-0
-0
-0
-0
-0
-3.212314
-3.238405
-3.283899
-3.351198
-3.44303
-0
-0
-0
-0
-0
-0
-0
-0
-0
-0
-3.094637
-3.119795
-3.163227
-3.22721
-3.314212
-0
-0
-0
-0
-0
-0
-0
-0
-0
-0
-2.983039
-3.007305
-3.048899
-3.109844
-3.192478
-0
-0
-0
-0
-0
-0
-0
-0
-0
-0
-2.880064
-2.903545
-2.943454
-3.001729
-3.080459
-0
-0
-0
-0
-0
-0
-0
-0
-0
-0
-2.786704
-2.809391
-2.847814
-2.903685
-2.979005
-0
-0
-0
-0
-0
-0
-0
-0
-0
-0
-5.285734
-5.340961
-5.443115
-5.601493
-5.827742
-0
-0
-0
-0
-0
-0
-5.078774
-5.129021
-5.222326
-5.366785
-5.572199
-0
-0
-0
-0
-0
-0
-0
-4.896798
-4.94334
-5.029865
-5.163509
-5.352868
-0
-0
-0
-0
-0
-0
-0
-0
-4.732697
-4.776369
-4.857472
-4.982419
-5.15882
-0
-0
-0
-0
-0
-0
-0
-0
-0
-4.578243
-4.619569
-4.696078
-4.813615
-4.979017
-0
-0
-0
-0
-0
-0
-0
-0
-0
-0
-4.424305
-4.463509
-4.535784
-4.646463
-4.801744
-0
-0
-0
-0
-0
-0
-0
-0
-0
-0
-0
-4.266453
-4.303591
-4.371714
-4.475682
-4.621089
-0
-0
-0
-0
-0
-0
-0
-0
-0
-0
-0
-0
-4.109962
-4.14513
-4.209366
-4.307023
-4.443173
-0
-0
-0
-0
-0
-0
-0
-0
-0
-0
-0
-0
-0
-3.959977
-3.993379
-4.054052
-4.146003
-4.273759
-0
-0
-0
-0
-0
-0
-0
-0
-0
-0
-0
-0
-0
-0
-3.818917
-3.850742
-3.908238
-3.995048
-4.11533
-0
-0
-0
-0
-0
-0
-0
-0
-0
-0
-0
-0
-0
-0
-0
-3.687222
-3.717658
-3.772312
-3.85454
-3.968127
-0
-0
-0
-0
-0
-0
-0
-0
-0
-0
-0
-0
-0
-0
-0
-0
-3.564067
-3.593314
-3.645428
-3.723539
-3.831138
-0
-0
-0
-0
-0
-0
-0
-0
-0
-0
-0
-0
-0
-0
-0
-0
-0
-3.447755
-3.4759
-3.525755
-3.600142
-3.702307
-0
-0
-0
-0
-0
-0
-0
-0
-0
-0
-0
-0
-0
-0
-0
-0
-0
-0
-3.335519
-3.362675
-3.410408
-3.481383
-3.578535
-0
-0
-0
-0
-0
-0
-0
-0
-0
-0
-0
-0
-0
-0
-0
-0
-0
-0
-0
-3.223754
-3.249946
-3.295668
-3.363346
-3.455734
-0
-0
-0
-0
-0
-0
-0
-0
-0
-0
-0
-0
-0
-0
-0
-0
-0
-0
-0
-0
-3.109998
-3.135285
-3.178999
-3.243445
-3.33112
-0
-0
-0
-0
-0
-0
-0
-0
-0
-0
-2.997521
-3.021899
-3.063737
-3.125083
-3.208299
-0
-0
-0
-0
-0
-0
-0
-0
-0
-0
-2.890686
-2.914246
-2.954325
-3.012878
-3.092008
-0
-0
-0
-0
-0
-0
-0
-0
-0
-0
-2.792089
-2.814818
-2.85333
-2.909341
-2.984862
-0
-0
-0
-0
-0
-0
-0
-0
-0
-0
-2.702569
-2.724604
-2.761631
-2.815396
-2.887679
-0
-0
-0
-0
-0
-0
-0
-0
-0
-0
-5.065069
-5.1149
-5.207548
-5.351031
-5.555053
-0
-0
-0
-0
-0
-0
-0
-4.872855
-4.918741
-5.004212
-5.136291
-5.323415
-0
-0
-0
-0
-0
-0
-0
-0
-4.703146
-4.746047
-4.825904
-4.949001
-5.122776
-0
-0
-0
-0
-0
-0
-0
-0
-0
-4.549547
-4.590121
-4.665414
-4.78115
-4.94401
-0
-0
-0
-0
-0
-0
-0
-0
-0
-0
-4.404506
-4.443154
-4.514538
-4.623902
-4.777334
-0
-0
-0
-0
-0
-0
-0
-0
-0
-0
-4.259562
-4.296442
-4.364177
-4.467583
-4.612207
-0
-0
-0
-0
-0
-0
-0
-0
-0
-0
-0
-0
-4.110688
-4.145773
-4.209904
-4.307424
-4.443387
-0
-0
-0
-0
-0
-0
-0
-0
-0
-0
-0
-0
-0
-3.962837
-3.996223
-4.056895
-4.148855
-4.276632
-0
-0
-0
-0
-0
-0
-0
-0
-0
-0
-0
-0
-0
-0
-3.820909
-3.852737
-3.910249
-3.997087
-4.117413
-0
-0
-0
-0
-0
-0
-0
-0
-0
-0
-0
-0
-0
-0
-0
-3.687222
-3.717658
-3.772312
-3.85454
-3.968127
-0
-0
-0
-0
-0
-0
-0
-0
-0
-0
-0
-0
-0
-0
-0
-0
-3.562199
-3.591436
-3.643527
-3.721603
-3.829154
-0
-0
-0
-0
-0
-0
-0
-0
-0
-0
-0
-0
-0
-0
-0
-0
-0
-3.445171
-3.473299
-3.523123
-3.597462
-3.699565
-0
-0
-0
-0
-0
-0
-0
-0
-0
-0
-0
-0
-0
-0
-0
-0
-0
-0
-3.334489
-3.361634
-3.409358
-3.480331
-3.577484
-0
-0
-0
-0
-0
-0
-0
-0
-0
-0
-0
-0
-0
-0
-0
-0
-0
-0
-0
-3.22757
-3.253785
-3.299578
-3.367386
-3.459974
-0
-0
-0
-0
-0
-0
-0
-0
-0
-0
-0
-0
-0
-0
-0
-0
-0
-0
-0
-0
-3.120908
-3.146276
-3.190189
-3.254972
-3.343145
-0
-0
-0
-0
-0
-0
-0
-0
-0
-0
-0
-0
-0
-0
-0
-0
-0
-0
-0
-0
-3.012225
-3.036712
-3.078803
-3.140569
-3.224399
-0
-0
-0
-0
-0
-0
-0
-0
-0
-0
-2.904581
-2.928241
-2.968542
-3.027461
-3.107125
-0
-0
-0
-0
-0
-0
-0
-0
-0
-0
-2.802301
-2.825097
-2.863766
-2.920032
-2.995922
-0
-0
-0
-0
-0
-0
-0
-0
-0
-0
-2.707744
-2.729819
-2.766927
-2.820822
-2.893291
-0
-0
-0
-0
-0
-0
-0
-0
-0
-0
-2.62202
-2.643248
-2.679012
-2.73071
-2.800153
-0
-0
-0
-0
-0
-0
-0
-0
-0
-0
-4.860157
-4.905699
-4.990621
-5.121885
-5.307851
-0
-0
-0
-0
-0
-0
-0
-0
-4.680883
-4.72324
-4.802207
-4.923981
-5.095876
-0
-0
-0
-0
-0
-0
-0
-0
-0
-4.52202
-4.56195
-4.636185
-4.750344
-4.910971
-0
-0
-0
-0
-0
-0
-0
-0
-0
-0
-4.377774
-4.415798
-4.486148
-4.593974
-4.745233
-0
-0
-0
-0
-0
-0
-0
-0
-0
-0
-4.241178
-4.277598
-4.344584
-4.446875
-4.589927
-0
-0
-0
-0
-0
-0
-0
-0
-0
-0
-4.104394
-4.139274
-4.203086
-4.300145
-4.435459
-0
-0
-0
-0
-0
-0
-0
-0
-0
-0
-0
-0
-0
-3.963669
-3.996996
-4.057592
-4.149453
-4.277095
-0
-0
-0
-0
-0
-0
-0
-0
-0
-0
-0
-0
-0
-0
-3.823708
-3.855531
-3.913052
-3.999913
-4.120274
-0
-0
-0
-0
-0
-0
-0
-0
-0
-0
-0
-0
-0
-0
-0
-3.689151
-3.719596
-3.774268
-3.856529
-3.970162
-0
-0
-0
-0
-0
-0
-0
-0
-0
-0
-0
-0
-0
-0
-0
-0
-3.562199
-3.591436
-3.643527
-3.721603
-3.829154
-0
-0
-0
-0
-0
-0
-0
-0
-0
-0
-0
-0
-0
-0
-0
-0
-0
-3.443363
-3.471479
-3.521279
-3.595581
-3.697634
-0
-0
-0
-0
-0
-0
-0
-0
-0
-0
-0
-0
-0
-0
-0
-0
-0
-0
-3.33198
-3.359104
-3.406793
-3.477715
-3.574799
-0
-0
-0
-0
-0
-0
-0
-0
-0
-0
-0
-0
-0
-0
-0
-0
-0
-0
-0
-3.226541
-3.252738
-3.298514
-3.366308
-3.458887
-0
-0
-0
-0
-0
-0
-0
-0
-0
-0
-0
-0
-0
-0
-0
-0
-0
-0
-0
-0
-3.124522
-3.1499
-3.193868
-3.258759
-3.347103
-0
-0
-0
-0
-0
-0
-0
-0
-0
-0
-0
-0
-0
-0
-0
-0
-0
-0
-0
-0
-3.022652
-3.047204
-3.089468
-3.151534
-3.235813
-0
-0
-0
-0
-0
-0
-0
-0
-0
-0
-0
-0
-0
-0
-0
-0
-0
-0
-0
-0
-2.918676
-2.942433
-2.982961
-3.042261
-3.122485
-0
-0
-0
-0
-0
-0
-0
-0
-0
-0
-2.815654
-2.838535
-2.877408
-2.93401
-3.010392
-0
-0
-0
-0
-0
-0
-0
-0
-0
-0
-2.717568
-2.739708
-2.776957
-2.831089
-2.903901
-0
-0
-0
-0
-0
-0
-0
-0
-0
-0
-2.627002
-2.648263
-2.684103
-2.735922
-2.805538
-0
-0
-0
-0
-0
-0
-0
-0
-0
-0