/*--------------------------------*- C++ -*----------------------------------*\
| =========                 |                                                 |
| \\      /  F ield         | OpenFOAM: The Open Source CFD Toolbox           |
|  \\    /   O peration     | Version:  2306                                  |
|   \\  /    A nd           | Website:  www.openfoam.com                      |
|    \\/     M anipulation  |                                                 |
\*---------------------------------------------------------------------------*/
FoamFile
{
    version     2.0;
    format      ascii;
    arch        "LSB;label=32;scalar=64";
    class       volScalarField;
    location    "0.9/fuel";
    object      nernst;
}
// * * * * * * * * * * * * * * * * * * * * * * * * * * * * * * * * * * * * * //

dimensions      [1 2 -3 0 0 -1 0];

internalField   nonuniform List<scalar> 
16000
(
-1.735396
-1.736324
-1.723093
-1.735457
-1.738209
-1.723707
-1.736387
-1.712002
-1.723137
-1.735576
-1.741066
-1.724949
-1.738276
-1.71247
-1.723752
-1.736509
-1.703011
-1.712035
-1.723223
-1.735749
-1.744787
-1.726816
-1.741141
-1.713413
-1.724995
-1.738405
-1.703392
-1.712503
-1.72384
-1.736687
-1.695581
-1.703036
-1.712099
-1.72335
-1.735977
-1.7488
-1.729224
-1.744873
-1.714832
-1.726864
-1.741282
-1.70416
-1.713447
-1.725085
-1.738593
-1.695903
-1.703417
-1.712568
-1.723968
-1.736921
-1.68928
-1.695601
-1.703087
-1.712195
-1.723516
-1.736206
-1.751759
-1.731802
-1.748903
-1.716661
-1.729274
-1.745034
-1.705314
-1.714866
-1.726959
-1.741488
-1.696552
-1.704185
-1.713513
-1.725218
-1.738841
-1.689558
-1.695923
-1.703468
-1.712664
-1.724137
-1.737156
-1.683817
-1.689295
-1.695642
-1.703162
-1.712321
-1.723683
-1.736399
-1.753534
-1.733741
-1.751877
-1.718626
-1.731856
-1.749093
-1.706801
-1.716695
-1.729375
-1.745269
-1.697526
-1.705339
-1.714934
-1.727098
-1.741759
-1.69012
-1.696571
-1.704237
-1.713612
-1.725392
-1.739089
-1.684062
-1.689574
-1.695964
-1.703544
-1.712791
-1.724307
-1.737354
-1.678998
-1.683829
-1.689329
-1.695704
-1.703263
-1.712447
-1.723824
-1.73659
-1.754463
-1.734957
-1.753664
-1.720129
-1.733798
-1.75209
-1.708402
-1.71866
-1.731964
-1.749367
-1.69878
-1.706826
-1.716766
-1.729524
-1.745577
-1.690962
-1.697545
-1.705392
-1.715036
-1.727281
-1.74203
-1.684557
-1.690135
-1.696613
-1.704314
-1.713742
-1.725567
-1.739298
-1.679218
-1.684075
-1.689608
-1.696027
-1.703645
-1.71292
-1.72445
-1.737551
-1.674687
-1.679008
-1.683858
-1.689382
-1.695787
-1.703364
-1.712554
-1.723964
-1.736781
-1.754851
-1.73563
-1.754601
-1.721099
-1.735016
-1.753894
-1.70964
-1.720163
-1.733911
-1.752397
-1.700133
-1.708426
-1.718733
-1.732125
-1.749726
-1.692048
-1.698799
-1.706879
-1.716872
-1.72972
-1.745885
-1.6853
-1.690978
-1.697587
-1.705471
-1.71517
-1.727465
-1.742259
-1.679661
-1.68457
-1.69017
-1.696676
-1.704417
-1.713873
-1.725715
-1.739507
-1.674886
-1.679228
-1.684104
-1.689661
-1.69611
-1.703747
-1.713027
-1.724592
-1.737747
-1.670787
-1.674695
-1.679033
-1.683903
-1.689452
-1.695871
-1.703449
-1.71266
-1.724103
-1.736971
-1.754851
-1.735925
-1.754993
-1.721656
-1.735691
-1.754843
-1.710453
-1.721133
-1.735133
-1.754223
-1.701185
-1.709662
-1.720237
-1.73408
-1.752795
-1.693218
-1.700151
-1.708481
-1.718844
-1.732338
-1.750086
-1.686256
-1.692062
-1.698842
-1.706961
-1.717012
-1.729917
-1.746148
-1.680324
-1.685312
-1.691012
-1.697651
-1.705576
-1.715306
-1.72762
-1.742488
-1.675287
-1.679671
-1.684599
-1.690223
-1.696761
-1.704521
-1.713983
-1.725861
-1.739715
-1.670969
-1.674895
-1.679253
-1.684149
-1.689731
-1.696194
-1.703833
-1.713135
-1.724733
-1.737943
-1.667225
-1.670794
-1.674717
-1.679072
-1.683964
-1.689523
-1.695941
-1.703534
-1.712766
-1.724242
-1.737895
-1.754463
-1.735925
-1.754993
-1.721907
-1.735988
-1.75524
-1.710929
-1.72169
-1.735812
-1.755185
-1.701883
-1.710475
-1.721208
-1.735308
-1.754648
-1.694132
-1.701201
-1.709716
-1.72035
-1.734304
-1.753195
-1.687288
-1.693232
-1.700193
-1.708564
-1.718993
-1.732552
-1.750395
-1.681179
-1.686268
-1.692097
-1.698907
-1.70707
-1.717154
-1.730084
-1.746411
-1.675888
-1.680334
-1.685341
-1.691066
-1.697737
-1.705682
-1.715419
-1.727775
-1.742718
-1.671335
-1.675295
-1.679695
-1.684644
-1.690294
-1.696846
-1.704608
-1.714092
-1.726008
-1.739922
-1.667392
-1.670976
-1.674916
-1.679292
-1.68421
-1.689803
-1.696265
-1.703918
-1.713241
-1.724874
-1.738892
-1.663945
-1.66723
-1.670813
-1.674752
-1.679125
-1.684025
-1.689583
-1.696011
-1.703618
-1.712871
-1.724914
-1.738617
-1.753534
-1.73563
-1.754601
-1.721907
-1.735988
-1.75524
-1.711147
-1.721942
-1.736109
-1.755589
-1.702296
-1.71095
-1.721766
-1.735989
-1.755627
-1.694742
-1.701898
-1.710528
-1.721322
-1.735538
-1.755075
-1.688094
-1.694144
-1.701242
-1.7098
-1.720502
-1.734529
-1.753538
-1.682101
-1.687298
-1.693266
-1.70026
-1.708677
-1.719142
-1.732734
-1.750707
-1.676661
-1.681188
-1.686297
-1.692151
-1.698995
-1.707179
-1.717273
-1.73025
-1.746676
-1.671884
-1.675896
-1.680359
-1.685387
-1.691138
-1.697824
-1.705771
-1.715533
-1.727929
-1.742947
-1.66773
-1.671342
-1.675317
-1.679735
-1.684706
-1.690366
-1.696917
-1.704694
-1.714201
-1.726153
-1.740931
-1.6641
-1.667398
-1.670995
-1.674951
-1.679345
-1.684272
-1.689863
-1.696335
-1.704003
-1.713347
-1.725557
-1.73964
-1.660903
-1.663949
-1.667247
-1.670844
-1.674799
-1.679179
-1.684077
-1.689642
-1.69608
-1.703701
-1.713379
-1.725437
-1.739205
-1.751759
-1.734957
-1.753664
-1.721656
-1.735691
-1.754843
-1.711147
-1.721942
-1.736109
-1.755589
-1.702487
-1.711168
-1.722018
-1.736289
-1.756039
-1.695105
-1.70231
-1.711003
-1.721881
-1.736224
-1.75607
-1.688635
-1.694753
-1.701938
-1.710612
-1.721476
-1.735769
-1.755441
-1.682823
-1.688103
-1.694177
-1.701309
-1.709914
-1.720655
-1.734719
-1.753885
-1.677495
-1.682109
-1.687327
-1.693321
-1.700351
-1.708791
-1.719268
-1.732917
-1.751024
-1.67259
-1.676668
-1.681213
-1.686343
-1.692225
-1.699084
-1.707271
-1.717392
-1.730417
-1.746942
-1.668235
-1.67189
-1.675917
-1.680399
-1.685449
-1.691211
-1.697897
-1.70586
-1.715645
-1.728082
-1.744063
-1.664413
-1.667735
-1.671361
-1.675352
-1.679789
-1.684768
-1.690427
-1.696989
-1.70478
-1.71431
-1.726859
-1.741743
-1.661048
-1.664105
-1.667415
-1.671026
-1.674998
-1.6794
-1.684324
-1.689922
-1.696405
-1.704087
-1.713861
-1.726089
-1.740254
-1.658067
-1.660907
-1.663964
-1.667275
-1.670886
-1.674847
-1.679225
-1.684128
-1.689701
-1.696149
-1.704106
-1.713775
-1.725859
-1.739652
-1.7488
-1.733741
-1.751877
-1.721099
-1.735016
-1.753894
-1.710929
-1.72169
-1.735812
-1.755185
-1.702487
-1.711168
-1.722018
-1.736289
-1.756039
-1.695274
-1.702501
-1.711221
-1.722134
-1.736526
-1.75649
-1.688959
-1.695115
-1.70235
-1.711087
-1.722036
-1.736459
-1.756451
-1.683309
-1.688643
-1.694785
-1.702004
-1.710726
-1.721631
-1.735965
-1.755811
-1.678148
-1.68283
-1.688131
-1.694232
-1.701399
-1.710029
-1.720784
-1.734911
-1.754237
-1.673351
-1.677501
-1.682134
-1.687374
-1.693397
-1.700442
-1.708887
-1.719396
-1.733102
-1.751345
-1.668884
-1.672596
-1.676689
-1.681253
-1.686406
-1.6923
-1.699159
-1.707363
-1.717511
-1.730585
-1.748246
-1.664881
-1.66824
-1.671909
-1.675952
-1.680453
-1.685512
-1.691273
-1.697969
-1.705948
-1.715758
-1.728829
-1.745011
-1.66134
-1.664417
-1.667752
-1.671392
-1.6754
-1.679844
-1.68482
-1.690487
-1.697059
-1.704866
-1.714835
-1.727414
-1.742423
-1.658203
-1.661052
-1.66412
-1.667443
-1.671069
-1.675047
-1.679445
-1.684375
-1.689981
-1.696474
-1.704495
-1.71426
-1.72652
-1.740725
-1.655408
-1.65807
-1.660921
-1.663989
-1.667314
-1.67093
-1.674888
-1.679269
-1.684179
-1.689759
-1.696484
-1.704419
-1.714092
-1.726176
-1.739952
-1.744787
-1.731802
-1.748903
-1.720129
-1.733798
-1.75209
-1.710453
-1.721133
-1.735133
-1.754223
-1.702296
-1.71095
-1.721766
-1.735989
-1.755627
-1.695274
-1.702501
-1.711221
-1.722134
-1.736526
-1.75649
-1.689109
-1.695284
-1.702541
-1.711305
-1.722289
-1.736763
-1.756878
-1.6836
-1.688966
-1.695147
-1.702416
-1.711201
-1.722192
-1.736658
-1.756835
-1.678589
-1.683315
-1.68867
-1.694839
-1.702094
-1.710841
-1.721761
-1.736162
-1.756185
-1.673949
-1.678154
-1.682854
-1.688177
-1.694307
-1.701491
-1.710126
-1.720914
-1.735105
-1.754594
-1.669586
-1.673356
-1.677522
-1.682174
-1.687438
-1.693473
-1.700519
-1.708984
-1.719524
-1.733289
-1.752934
-1.665483
-1.668889
-1.672614
-1.676725
-1.681308
-1.68647
-1.692362
-1.699233
-1.707455
-1.717631
-1.731401
-1.749493
-1.661776
-1.664885
-1.668257
-1.67194
-1.676
-1.680509
-1.685565
-1.691333
-1.698041
-1.706036
-1.716303
-1.729436
-1.745853
-1.658476
-1.661343
-1.664432
-1.66778
-1.671435
-1.675448
-1.679889
-1.684872
-1.690546
-1.697129
-1.70528
-1.715244
-1.727869
-1.742958
-1.655536
-1.658206
-1.661066
-1.664145
-1.667481
-1.671112
-1.675087
-1.67949
-1.684426
-1.69004
-1.696811
-1.70481
-1.714581
-1.726844
-1.741044
-1.652903
-1.65541
-1.658082
-1.660944
-1.664025
-1.667353
-1.670966
-1.674927
-1.679314
-1.684229
-1.690042
-1.696739
-1.704669
-1.714329
-1.726387
-1.741066
-1.729224
-1.744873
-1.718626
-1.731856
-1.749093
-1.70964
-1.720163
-1.733911
-1.752397
-1.701883
-1.710475
-1.721208
-1.735308
-1.754648
-1.695105
-1.70231
-1.711003
-1.721881
-1.736224
-1.75607
-1.689109
-1.695284
-1.702541
-1.711305
-1.722289
-1.736763
-1.756878
-1.683735
-1.689116
-1.695316
-1.702606
-1.711419
-1.722445
-1.736964
-1.757268
-1.678853
-1.683605
-1.688992
-1.6952
-1.702505
-1.711316
-1.722322
-1.736859
-1.757222
-1.674352
-1.678593
-1.683337
-1.688715
-1.694913
-1.702185
-1.710937
-1.721892
-1.736361
-1.756564
-1.670136
-1.673953
-1.678174
-1.682893
-1.688241
-1.694383
-1.701568
-1.710223
-1.721045
-1.735301
-1.75636
-1.666133
-1.66959
-1.673375
-1.677558
-1.68223
-1.687503
-1.693537
-1.700597
-1.709081
-1.719653
-1.734208
-1.754738
-1.662338
-1.665487
-1.668906
-1.672646
-1.676773
-1.681364
-1.686524
-1.692424
-1.699308
-1.707547
-1.718212
-1.73213
-1.750751
-1.658885
-1.66178
-1.6649
-1.668285
-1.671984
-1.67605
-1.680555
-1.685617
-1.691394
-1.698113
-1.706462
-1.716738
-1.729955
-1.746551
-1.655792
-1.658479
-1.661357
-1.664457
-1.667819
-1.671479
-1.675489
-1.679935
-1.684923
-1.690606
-1.69747
-1.705599
-1.715575
-1.728215
-1.743329
-1.653024
-1.655538
-1.658218
-1.661089
-1.66418
-1.667521
-1.671148
-1.675127
-1.679535
-1.684477
-1.690324
-1.697066
-1.70506
-1.71482
-1.72706
-1.650535
-1.652906
-1.655422
-1.658104
-1.660976
-1.664061
-1.667386
-1.671002
-1.674967
-1.679358
-1.684474
-1.690255
-1.696941
-1.704854
-1.714486
-1.738209
-1.726816
-1.741141
-1.716661
-1.729274
-1.745034
-1.708402
-1.71866
-1.731964
-1.749367
-1.701185
-1.709662
-1.720237
-1.73408
-1.752795
-1.694742
-1.701898
-1.710528
-1.721322
-1.735538
-1.755075
-1.688959
-1.695115
-1.70235
-1.711087
-1.722036
-1.736459
-1.756451
-1.683735
-1.689116
-1.695316
-1.702606
-1.711419
-1.722445
-1.736964
-1.757268
-1.678976
-1.683741
-1.689142
-1.695368
-1.702695
-1.711534
-1.722576
-1.737166
-1.757662
-1.674594
-1.678857
-1.683627
-1.689037
-1.695274
-1.702596
-1.711412
-1.722453
-1.73706
-1.757614
-1.670508
-1.674355
-1.678613
-1.683376
-1.688778
-1.694988
-1.702261
-1.711034
-1.722023
-1.736561
-1.758433
-1.666644
-1.670139
-1.673971
-1.678209
-1.682949
-1.688306
-1.694446
-1.701645
-1.710321
-1.721177
-1.736265
-1.758331
-1.662944
-1.666136
-1.669606
-1.673406
-1.677607
-1.682287
-1.687558
-1.693602
-1.700675
-1.709179
-1.720288
-1.735176
-1.756985
-1.659411
-1.662341
-1.665502
-1.668934
-1.672689
-1.676823
-1.681411
-1.686577
-1.692487
-1.699382
-1.707994
-1.718717
-1.732834
-1.751953
-1.656177
-1.658888
-1.661793
-1.664925
-1.668324
-1.672028
-1.67609
-1.6806
-1.685669
-1.691454
-1.69846
-1.706796
-1.717103
-1.730367
-1.747056
-1.653267
-1.655795
-1.658491
-1.66138
-1.664493
-1.667858
-1.671515
-1.675529
-1.679979
-1.684974
-1.690892
-1.697727
-1.705855
-1.715823
-1.728446
-1.65065
-1.653026
-1.655549
-1.658239
-1.661121
-1.664216
-1.667554
-1.671184
-1.675167
-1.679579
-1.684722
-1.690537
-1.697268
-1.705246
-1.714977
-1.648288
-1.650537
-1.652916
-1.655441
-1.658134
-1.661009
-1.664091
-1.667418
-1.671037
-1.675006
-1.679572
-1.684654
-1.690422
-1.697089
-1.704975
-1.736324
-1.724949
-1.738276
-1.714832
-1.726864
-1.741282
-1.706801
-1.716695
-1.729375
-1.745269
-1.700133
-1.708426
-1.718733
-1.732125
-1.749726
-1.694132
-1.701201
-1.709716
-1.72035
-1.734304
-1.753195
-1.688635
-1.694753
-1.701938
-1.710612
-1.721476
-1.735769
-1.755441
-1.6836
-1.688966
-1.695147
-1.702416
-1.711201
-1.722192
-1.736658
-1.756835
-1.678976
-1.683741
-1.689142
-1.695368
-1.702695
-1.711534
-1.722576
-1.737166
-1.757662
-1.674707
-1.67898
-1.683763
-1.689187
-1.695442
-1.702786
-1.71163
-1.722708
-1.737369
-1.75806
-1.670732
-1.674597
-1.678876
-1.683666
-1.689099
-1.695349
-1.702671
-1.711508
-1.722586
-1.737263
-1.759545
-1.666989
-1.67051
-1.674372
-1.678647
-1.683431
-1.688842
-1.695051
-1.702337
-1.711131
-1.722156
-1.737545
-1.760438
-1.66342
-1.666646
-1.670155
-1.674002
-1.678258
-1.683006
-1.68836
-1.69451
-1.701723
-1.71042
-1.721827
-1.737265
-1.760688
-1.659979
-1.662946
-1.666151
-1.669634
-1.673451
-1.677658
-1.682335
-1.687613
-1.693667
-1.700753
-1.709661
-1.720941
-1.736335
-1.759885
-1.656672
-1.659413
-1.662354
-1.665527
-1.668973
-1.672734
-1.676864
-1.681457
-1.68663
-1.692549
-1.699743
-1.708375
-1.719195
-1.733473
-1.752945
-1.65363
-1.656179
-1.6589
-1.661816
-1.664961
-1.668364
-1.672064
-1.676131
-1.680646
-1.685721
-1.691746
-1.698727
-1.707072
-1.717385
-1.730646
-1.650879
-1.653269
-1.655806
-1.658512
-1.661413
-1.664529
-1.667891
-1.671551
-1.675569
-1.680024
-1.685221
-1.691106
-1.697932
-1.706044
-1.715984
-1.648396
-1.650651
-1.653036
-1.655569
-1.658269
-1.661155
-1.664246
-1.667586
-1.67122
-1.675206
-1.679794
-1.684901
-1.690703
-1.697416
-1.705365
-1.646148
-1.648289
-1.650546
-1.652934
-1.655469
-1.658164
-1.661037
-1.66412
-1.66745
-1.671072
-1.675196
-1.679727
-1.684793
-1.690542
-1.697184
-1.735396
-1.723707
-1.736387
-1.713413
-1.724995
-1.738405
-1.705314
-1.714866
-1.726959
-1.741488
-1.69878
-1.706826
-1.716766
-1.729524
-1.745577
-1.693218
-1.700151
-1.708481
-1.718844
-1.732338
-1.750086
-1.688094
-1.694144
-1.701242
-1.7098
-1.720502
-1.734529
-1.753538
-1.683309
-1.688643
-1.694785
-1.702004
-1.710726
-1.721631
-1.735965
-1.755811
-1.678853
-1.683605
-1.688992
-1.6952
-1.702505
-1.711316
-1.722322
-1.736859
-1.757222
-1.674707
-1.67898
-1.683763
-1.689187
-1.695442
-1.702786
-1.71163
-1.722708
-1.737369
-1.75806
-1.670836
-1.67471
-1.678999
-1.683801
-1.689249
-1.695516
-1.702861
-1.711726
-1.72284
-1.737574
-1.760021
-1.667197
-1.670734
-1.674614
-1.67891
-1.68372
-1.689163
-1.695411
-1.702747
-1.711605
-1.722719
-1.738259
-1.761562
-1.663743
-1.666991
-1.670525
-1.674402
-1.678695
-1.683487
-1.688895
-1.695114
-1.702414
-1.711229
-1.722807
-1.738525
-1.762724
-1.660426
-1.663422
-1.66666
-1.670183
-1.674046
-1.678308
-1.683053
-1.688415
-1.694575
-1.701802
-1.710905
-1.722484
-1.738422
-1.7635
-1.657207
-1.659981
-1.66296
-1.666177
-1.669675
-1.673496
-1.6777
-1.682383
-1.687669
-1.693732
-1.701139
-1.710148
-1.72172
-1.737773
-1.763864
-1.654098
-1.656674
-1.659425
-1.662377
-1.665563
-1.669014
-1.672771
-1.676905
-1.681504
-1.686684
-1.692851
-1.700045
-1.708732
-1.719619
-1.733965
-1.651224
-1.653632
-1.656191
-1.658921
-1.661849
-1.664998
-1.668397
-1.6721
-1.676171
-1.680691
-1.685971
-1.691966
-1.698946
-1.707282
-1.717568
-1.648615
-1.650881
-1.653279
-1.655826
-1.658542
-1.661446
-1.664559
-1.667924
-1.671587
-1.675608
-1.68024
-1.685401
-1.691273
-1.69808
-1.706163
-1.646251
-1.648398
-1.650661
-1.653055
-1.655597
-1.6583
-1.661182
-1.664276
-1.667618
-1.671255
-1.675396
-1.679948
-1.68504
-1.690823
-1.697509
-1.644105
-1.646149
-1.648298
-1.650563
-1.65296
-1.655498
-1.65819
-1.661064
-1.664149
-1.667482
-1.671242
-1.675329
-1.679845
-1.684892
-1.690617
-1.723093
-1.735457
-1.71247
-1.723752
-1.736509
-1.70416
-1.713447
-1.725085
-1.738593
-1.697526
-1.705339
-1.714934
-1.727098
-1.741759
-1.692048
-1.698799
-1.706879
-1.716872
-1.72972
-1.745885
-1.687288
-1.693232
-1.700193
-1.708564
-1.718993
-1.732552
-1.750395
-1.682823
-1.688103
-1.694177
-1.701309
-1.709914
-1.720655
-1.734719
-1.753885
-1.678589
-1.683315
-1.68867
-1.694839
-1.702094
-1.710841
-1.721761
-1.736162
-1.756185
-1.674594
-1.678857
-1.683627
-1.689037
-1.695274
-1.702596
-1.711412
-1.722453
-1.73706
-1.757614
-1.670836
-1.67471
-1.678999
-1.683801
-1.689249
-1.695516
-1.702861
-1.711726
-1.72284
-1.737574
-1.760021
-1.667294
-1.670838
-1.674727
-1.679033
-1.683855
-1.689312
-1.695578
-1.702936
-1.711822
-1.722973
-1.738576
-1.762046
-1.663937
-1.667199
-1.670749
-1.674644
-1.678958
-1.683775
-1.689215
-1.695473
-1.702823
-1.711702
-1.723369
-1.739224
-1.763795
-1.660728
-1.663744
-1.667004
-1.670553
-1.674446
-1.678744
-1.683533
-1.688949
-1.695177
-1.702492
-1.71171
-1.723436
-1.739611
-1.765316
-1.657628
-1.660427
-1.663435
-1.666686
-1.670223
-1.674091
-1.67835
-1.6831
-1.688469
-1.69464
-1.702187
-1.711387
-1.723244
-1.739755
-1.766841
-1.654603
-1.657209
-1.659993
-1.662983
-1.666213
-1.669716
-1.673534
-1.677742
-1.682431
-1.687725
-1.694053
-1.701525
-1.710729
-1.72268
-1.739665
-1.77118
-1.651667
-1.654099
-1.656685
-1.659447
-1.66241
-1.6656
-1.669047
-1.672808
-1.676947
-1.68155
-1.686942
-1.693098
-1.700325
-1.709042
-1.719928
-1.648942
-1.651225
-1.653642
-1.65621
-1.658951
-1.661883
-1.665027
-1.668429
-1.672136
-1.676211
-1.680909
-1.686155
-1.692143
-1.699108
-1.707412
-1.64646
-1.648616
-1.650891
-1.653297
-1.655854
-1.658573
-1.661473
-1.664589
-1.667956
-1.671622
-1.675799
-1.680393
-1.68554
-1.691392
-1.698171
-1.644203
-1.646253
-1.648407
-1.650678
-1.653081
-1.655626
-1.658326
-1.661209
-1.664305
-1.66765
-1.671425
-1.675529
-1.680065
-1.685138
-1.690896
-1.642148
-1.644106
-1.646157
-1.648314
-1.650588
-1.652987
-1.655521
-1.658215
-1.661091
-1.664179
-1.667636
-1.671359
-1.67543
-1.679927
-1.684951
-1.712002
-1.723137
-1.735576
-1.703392
-1.712503
-1.72384
-1.736687
-1.696552
-1.704185
-1.713513
-1.725218
-1.738841
-1.690962
-1.697545
-1.705392
-1.715036
-1.727281
-1.74203
-1.686256
-1.692062
-1.698842
-1.706961
-1.717012
-1.729917
-1.746148
-1.682101
-1.687298
-1.693266
-1.70026
-1.708677
-1.719142
-1.732734
-1.750707
-1.678148
-1.68283
-1.688131
-1.694232
-1.701399
-1.710029
-1.720784
-1.734911
-1.754237
-1.674352
-1.678593
-1.683337
-1.688715
-1.694913
-1.702185
-1.710937
-1.721892
-1.736361
-1.756564
-1.670732
-1.674597
-1.678876
-1.683666
-1.689099
-1.695349
-1.702671
-1.711508
-1.722586
-1.737263
-1.759545
-1.667294
-1.670838
-1.674727
-1.679033
-1.683855
-1.689312
-1.695578
-1.702936
-1.711822
-1.722973
-1.738576
-1.762046
-1.664028
-1.667296
-1.670853
-1.674756
-1.67908
-1.68391
-1.689364
-1.695639
-1.703012
-1.71192
-1.723624
-1.739536
-1.764257
-1.660911
-1.663938
-1.667212
-1.670775
-1.674686
-1.679006
-1.68382
-1.689268
-1.695535
-1.702899
-1.712179
-1.723979
-1.740265
-1.766261
-1.657913
-1.660729
-1.663756
-1.667029
-1.670592
-1.67449
-1.678785
-1.683579
-1.689003
-1.695241
-1.70287
-1.712164
-1.724136
-1.740804
-1.768231
-1.655001
-1.657629
-1.660439
-1.663458
-1.666722
-1.670263
-1.674128
-1.678391
-1.683148
-1.688525
-1.694958
-1.702565
-1.711948
-1.724118
-1.741276
-1.771632
-1.652146
-1.654604
-1.657219
-1.660014
-1.663017
-1.666251
-1.66975
-1.673572
-1.677785
-1.68248
-1.687998
-1.694369
-1.701985
-1.711447
-1.723936
-1.742941
-1.775594
-1.649363
-1.651668
-1.654109
-1.656705
-1.659477
-1.662444
-1.66563
-1.66908
-1.672844
-1.676987
-1.681775
-1.687149
-1.693325
-1.700565
-1.709258
-1.646771
-1.648943
-1.651235
-1.65366
-1.656238
-1.658982
-1.66191
-1.665057
-1.668462
-1.672172
-1.676404
-1.681066
-1.686302
-1.692272
-1.699204
-1.644402
-1.646461
-1.648625
-1.650908
-1.653323
-1.655883
-1.658599
-1.661501
-1.664618
-1.667988
-1.671793
-1.675931
-1.68051
-1.685637
-1.691462
-1.642243
-1.644204
-1.646261
-1.648423
-1.650702
-1.653108
-1.655649
-1.658351
-1.661236
-1.664334
-1.667804
-1.671541
-1.675629
-1.680146
-1.685195
-1.640271
-1.642149
-1.644113
-1.646172
-1.648337
-1.650613
-1.653009
-1.655544
-1.65824
-1.661118
-1.664318
-1.667738
-1.671446
-1.675499
-1.679973
-1.703011
-1.712035
-1.723223
-1.735749
-1.695903
-1.703417
-1.712568
-1.723968
-1.736921
-1.69012
-1.696571
-1.704237
-1.713612
-1.725392
-1.739089
-1.6853
-1.690978
-1.697587
-1.705471
-1.71517
-1.727465
-1.742259
-1.681179
-1.686268
-1.692097
-1.698907
-1.70707
-1.717154
-1.730084
-1.746411
-1.677495
-1.682109
-1.687327
-1.693321
-1.700351
-1.708791
-1.719268
-1.732917
-1.751024
-1.673949
-1.678154
-1.682854
-1.688177
-1.694307
-1.701491
-1.710126
-1.720914
-1.735105
-1.754594
-1.670508
-1.674355
-1.678613
-1.683376
-1.688778
-1.694988
-1.702261
-1.711034
-1.722023
-1.736561
-1.758433
-1.667197
-1.670734
-1.674614
-1.67891
-1.68372
-1.689163
-1.695411
-1.702747
-1.711605
-1.722719
-1.738259
-1.761562
-1.664028
-1.667296
-1.670853
-1.674756
-1.67908
-1.68391
-1.689364
-1.695639
-1.703012
-1.71192
-1.723624
-1.739536
-1.764257
-1.660997
-1.664029
-1.667309
-1.67088
-1.674799
-1.679129
-1.683955
-1.689416
-1.695702
-1.703088
-1.712394
-1.724225
-1.740557
-1.766672
-1.658086
-1.660912
-1.66395
-1.667236
-1.670814
-1.67473
-1.679046
-1.683866
-1.689321
-1.695598
-1.703273
-1.712614
-1.724639
-1.741379
-1.768972
-1.655271
-1.657914
-1.66074
-1.663779
-1.667065
-1.670632
-1.674526
-1.678826
-1.683626
-1.689057
-1.695552
-1.703222
-1.712673
-1.724904
-1.742094
-1.772224
-1.652524
-1.655002
-1.65764
-1.66046
-1.663491
-1.666759
-1.670297
-1.674165
-1.678434
-1.683196
-1.688796
-1.695266
-1.703006
-1.712594
-1.725112
-1.743351
-1.775404
-1.649819
-1.652147
-1.654614
-1.657239
-1.660046
-1.663051
-1.666282
-1.669784
-1.67361
-1.677828
-1.682718
-1.688265
-1.694749
-1.702556
-1.712385
-1.72607
-1.744951
-1.77902
-1.647173
-1.649364
-1.651677
-1.654128
-1.656733
-1.659509
-1.662472
-1.665661
-1.669113
-1.672881
-1.677186
-1.681951
-1.687337
-1.693516
-1.700725
-1.6447
-1.646772
-1.648952
-1.651252
-1.653687
-1.656267
-1.659008
-1.661937
-1.665087
-1.668494
-1.672344
-1.676539
-1.681189
-1.686406
-1.692344
-1.642433
-1.644403
-1.646469
-1.648641
-1.650932
-1.65335
-1.655906
-1.658624
-1.661528
-1.664647
-1.668142
-1.671908
-1.676031
-1.68059
-1.68569
-1.640361
-1.642244
-1.644212
-1.646276
-1.648446
-1.650727
-1.653129
-1.655672
-1.658375
-1.661263
-1.664474
-1.667906
-1.671627
-1.675696
-1.68019
-1.638465
-1.640271
-1.642156
-1.644127
-1.646194
-1.648361
-1.650634
-1.65303
-1.655568
-1.658264
-1.661246
-1.664409
-1.667814
-1.671503
-1.675535
-1.695581
-1.703036
-1.712099
-1.72335
-1.735977
-1.689558
-1.695923
-1.703468
-1.712664
-1.724137
-1.737156
-1.684557
-1.690135
-1.696613
-1.704314
-1.713742
-1.725567
-1.739298
-1.680324
-1.685312
-1.691012
-1.697651
-1.705576
-1.715306
-1.72762
-1.742488
-1.676661
-1.681188
-1.686297
-1.692151
-1.698995
-1.707179
-1.717273
-1.73025
-1.746676
-1.673351
-1.677501
-1.682134
-1.687374
-1.693397
-1.700442
-1.708887
-1.719396
-1.733102
-1.751345
-1.670136
-1.673953
-1.678174
-1.682893
-1.688241
-1.694383
-1.701568
-1.710223
-1.721045
-1.735301
-1.75636
-1.666989
-1.67051
-1.674372
-1.678647
-1.683431
-1.688842
-1.695051
-1.702337
-1.711131
-1.722156
-1.737545
-1.760438
-1.663937
-1.667199
-1.670749
-1.674644
-1.678958
-1.683775
-1.689215
-1.695473
-1.702823
-1.711702
-1.723369
-1.739224
-1.763795
-1.660997
-1.664029
-1.667309
-1.67088
-1.674799
-1.679129
-1.683955
-1.689416
-1.695702
-1.703088
-1.712394
-1.724225
-1.740557
-1.766672
-1.658166
-1.660997
-1.664041
-1.667333
-1.670918
-1.674842
-1.679168
-1.684
-1.689469
-1.695764
-1.703459
-1.71282
-1.724869
-1.74164
-1.769304
-1.655434
-1.658086
-1.660923
-1.663972
-1.667271
-1.670854
-1.674766
-1.679087
-1.683912
-1.689374
-1.695904
-1.703607
-1.713089
-1.725349
-1.742562
-1.772649
-1.65278
-1.655271
-1.657924
-1.660761
-1.663812
-1.667101
-1.670665
-1.674563
-1.678867
-1.683673
-1.689321
-1.695837
-1.703619
-1.713234
-1.725736
-1.743786
-1.775545
-1.650178
-1.652524
-1.655011
-1.657659
-1.660491
-1.663526
-1.666789
-1.670331
-1.674203
-1.678476
-1.683431
-1.689055
-1.695628
-1.703515
-1.713328
-1.726439
-1.745074
-1.778639
-1.647607
-1.649819
-1.652156
-1.654633
-1.657268
-1.660077
-1.66308
-1.666313
-1.669818
-1.673648
-1.678038
-1.682947
-1.688586
-1.69522
-1.703302
-1.713961
-1.727357
-1.746576
-1.781779
-1.645083
-1.647174
-1.649373
-1.651695
-1.654154
-1.656763
-1.659534
-1.6625
-1.665691
-1.669146
-1.673058
-1.677338
-1.682111
-1.687494
-1.693638
-1.642718
-1.644701
-1.64678
-1.648968
-1.651276
-1.653714
-1.656291
-1.659033
-1.661965
-1.665116
-1.66865
-1.672462
-1.676643
-1.681274
-1.68646
-1.640544
-1.642434
-1.644411
-1.646484
-1.648664
-1.650957
-1.653372
-1.655929
-1.658649
-1.661554
-1.664788
-1.668243
-1.671993
-1.676096
-1.68063
-1.638552
-1.640362
-1.642251
-1.644226
-1.646297
-1.648469
-1.650748
-1.653151
-1.655695
-1.6584
-1.661391
-1.664564
-1.66798
-1.671683
-1.67573
-1.636724
-1.638465
-1.640278
-1.64217
-1.644148
-1.646216
-1.64838
-1.650654
-1.653052
-1.65559
-1.658382
-1.661327
-1.664475
-1.667862
-1.671531
-1.68928
-1.695601
-1.703087
-1.712195
-1.723516
-1.736206
-1.684062
-1.689574
-1.695964
-1.703544
-1.712791
-1.724307
-1.737354
-1.679661
-1.68457
-1.69017
-1.696676
-1.704417
-1.713873
-1.725715
-1.739507
-1.675888
-1.680334
-1.685341
-1.691066
-1.697737
-1.705682
-1.715419
-1.727775
-1.742718
-1.67259
-1.676668
-1.681213
-1.686343
-1.692225
-1.699084
-1.707271
-1.717392
-1.730417
-1.746942
-1.669586
-1.673356
-1.677522
-1.682174
-1.687438
-1.693473
-1.700519
-1.708984
-1.719524
-1.733289
-1.752934
-1.666644
-1.670139
-1.673971
-1.678209
-1.682949
-1.688306
-1.694446
-1.701645
-1.710321
-1.721177
-1.736265
-1.758331
-1.663743
-1.666991
-1.670525
-1.674402
-1.678695
-1.683487
-1.688895
-1.695114
-1.702414
-1.711229
-1.722807
-1.738525
-1.762724
-1.660911
-1.663938
-1.667212
-1.670775
-1.674686
-1.679006
-1.68382
-1.689268
-1.695535
-1.702899
-1.712179
-1.723979
-1.740265
-1.766261
-1.658166
-1.660997
-1.664041
-1.667333
-1.670918
-1.674842
-1.679168
-1.684
-1.689469
-1.695764
-1.703459
-1.71282
-1.724869
-1.74164
-1.769304
-1.655511
-1.658167
-1.661008
-1.664063
-1.667368
-1.670957
-1.674878
-1.679208
-1.684045
-1.689522
-1.696068
-1.703785
-1.713281
-1.725554
-1.742779
-1.772863
-1.652935
-1.655434
-1.658096
-1.660943
-1.664005
-1.667307
-1.670886
-1.674802
-1.679127
-1.683958
-1.689633
-1.696173
-1.703974
-1.713602
-1.726102
-1.744099
-1.775731
-1.650422
-1.65278
-1.655281
-1.657943
-1.660791
-1.663845
-1.667131
-1.670698
-1.6746
-1.678909
-1.683902
-1.689559
-1.69616
-1.704058
-1.713842
-1.7268
-1.745308
-1.778552
-1.64795
-1.650179
-1.652533
-1.65503
-1.657688
-1.660522
-1.663554
-1.66682
-1.670365
-1.674241
-1.678683
-1.683654
-1.68936
-1.696048
-1.704096
-1.714293
-1.727518
-1.746618
-1.781356
-1.645499
-1.647608
-1.649828
-1.652173
-1.65466
-1.657298
-1.660104
-1.663108
-1.666344
-1.669853
-1.673836
-1.678238
-1.683224
-1.688986
-1.695839
-1.704546
-1.7149
-1.728395
-1.747933
-1.784011
-1.643085
-1.645084
-1.647181
-1.649389
-1.651719
-1.654181
-1.656786
-1.65956
-1.662527
-1.665721
-1.669306
-1.673191
-1.677475
-1.682241
-1.687588
-1.640817
-1.642719
-1.644708
-1.646795
-1.648991
-1.651302
-1.653735
-1.656314
-1.659058
-1.661991
-1.665257
-1.668752
-1.672551
-1.676713
-1.681314
-1.638727
-1.640544
-1.642441
-1.644425
-1.646505
-1.648688
-1.650978
-1.653394
-1.655952
-1.658673
-1.661683
-1.664877
-1.668317
-1.672047
-1.676127
-1.636808
-1.638552
-1.640369
-1.642264
-1.644247
-1.64632
-1.648488
-1.650768
-1.653173
-1.655718
-1.658518
-1.661471
-1.664629
-1.668027
-1.671709
-1.635043
-1.636724
-1.638471
-1.640291
-1.642189
-1.644169
-1.646234
-1.648399
-1.650674
-1.653073
-1.6557
-1.658455
-1.661384
-1.664515
-1.667883
-1.683817
-1.689295
-1.695642
-1.703162
-1.712321
-1.723683
-1.736399
-1.679218
-1.684075
-1.689608
-1.696027
-1.703645
-1.71292
-1.72445
-1.737551
-1.675287
-1.679671
-1.684599
-1.690223
-1.696761
-1.704521
-1.713983
-1.725861
-1.739715
-1.671884
-1.675896
-1.680359
-1.685387
-1.691138
-1.697824
-1.705771
-1.715533
-1.727929
-1.742947
-1.668884
-1.672596
-1.676689
-1.681253
-1.686406
-1.6923
-1.699159
-1.707363
-1.717511
-1.730585
-1.748246
-1.666133
-1.66959
-1.673375
-1.677558
-1.68223
-1.687503
-1.693537
-1.700597
-1.709081
-1.719653
-1.734208
-1.754738
-1.66342
-1.666646
-1.670155
-1.674002
-1.678258
-1.683006
-1.68836
-1.69451
-1.701723
-1.71042
-1.721827
-1.737265
-1.760688
-1.660728
-1.663744
-1.667004
-1.670553
-1.674446
-1.678744
-1.683533
-1.688949
-1.695177
-1.702492
-1.71171
-1.723436
-1.739611
-1.765316
-1.658086
-1.660912
-1.66395
-1.667236
-1.670814
-1.67473
-1.679046
-1.683866
-1.689321
-1.695598
-1.703273
-1.712614
-1.724639
-1.741379
-1.768972
-1.655511
-1.658167
-1.661008
-1.664063
-1.667368
-1.670957
-1.674878
-1.679208
-1.684045
-1.689522
-1.696068
-1.703785
-1.713281
-1.725554
-1.742779
-1.772863
-1.653008
-1.655511
-1.658177
-1.661028
-1.664095
-1.667404
-1.670989
-1.674913
-1.679248
-1.684091
-1.689779
-1.696329
-1.70414
-1.713773
-1.726276
-1.744258
-1.775845
-1.65057
-1.652935
-1.655443
-1.658115
-1.660973
-1.664038
-1.667337
-1.670918
-1.674838
-1.679168
-1.684182
-1.689858
-1.696471
-1.704373
-1.714148
-1.727056
-1.745513
-1.778581
-1.648183
-1.650422
-1.652789
-1.655298
-1.657971
-1.660823
-1.663873
-1.667161
-1.670731
-1.674637
-1.67911
-1.684106
-1.689831
-1.69652
-1.704535
-1.714604
-1.727736
-1.746756
-1.781173
-1.645826
-1.64795
-1.650187
-1.65255
-1.655056
-1.657717
-1.660548
-1.663582
-1.666851
-1.670399
-1.674426
-1.678878
-1.683917
-1.689716
-1.696526
-1.704848
-1.715064
-1.728488
-1.747958
-1.783602
-1.643483
-1.645499
-1.647616
-1.649844
-1.652199
-1.654687
-1.657322
-1.66013
-1.663137
-1.666376
-1.670023
-1.674013
-1.678481
-1.683571
-1.689513
-1.696861
-1.705281
-1.715659
-1.729259
-1.74906
-1.78579
-1.641169
-1.643086
-1.645091
-1.647197
-1.649412
-1.651745
-1.654204
-1.65681
-1.659585
-1.662555
-1.665866
-1.669423
-1.673309
-1.677584
-1.682314
-1.638989
-1.640817
-1.642726
-1.644722
-1.646817
-1.649015
-1.651322
-1.653757
-1.656337