/*--------------------------------*- C++ -*----------------------------------*\
| =========                 |                                                 |
| \\      /  F ield         | OpenFOAM: The Open Source CFD Toolbox           |
|  \\    /   O peration     | Version:  2306                                  |
|   \\  /    A nd           | Website:  www.openfoam.com                      |
|    \\/     M anipulation  |                                                 |
\*---------------------------------------------------------------------------*/
FoamFile
{
    version     2.0;
    format      ascii;
    arch        "LSB;label=32;scalar=64";
    class       surfaceScalarField;
    location    "0.9/fuel";
    object      phi;
}
// * * * * * * * * * * * * * * * * * * * * * * * * * * * * * * * * * * * * * //

dimensions      [0 3 -1 0 0 0 0];

oriented        oriented;

internalField   uniform 0;

boundaryField
{
    anodeSides
    {
        type            fixedValue;
        value           uniform 0;
    }
    fuelInlet
    {
        type            fixedValue;
        value           nonuniform List<scalar> 
100
(
-2.36e-09
-2.36e-09
-2.36e-09
-2.36e-09
-2.36e-09
-2.36e-09
-2.36e-09
-2.36e-09
-2.36e-09
-2.36e-09
-2.36e-09
-2.36e-09
-2.36e-09
-2.36e-09
-2.36e-09
-2.36e-09
-2.36e-09
-2.36e-09
-2.36e-09
-2.36e-09
-2.36e-09
-2.36e-09
-2.36e-09
-2.36e-09
-2.36e-09
-2.36e-09
-2.36e-09
-2.36e-09
-2.36e-09
-2.36e-09
-2.36e-09
-2.36e-09
-2.36e-09
-2.36e-09
-2.36e-09
-2.36e-09
-2.36e-09
-2.36e-09
-2.36e-09
-2.36e-09
-2.36e-09
-2.36e-09
-2.36e-09
-2.36e-09
-2.36e-09
-2.36e-09
-2.36e-09
-2.36e-09
-2.36e-09
-2.36e-09
-2.36e-09
-2.36e-09
-2.36e-09
-2.36e-09
-2.36e-09
-2.36e-09
-2.36e-09
-2.36e-09
-2.36e-09
-2.36e-09
-2.36e-09
-2.36e-09
-2.36e-09
-2.36e-09
-2.36e-09
-2.36e-09
-2.36e-09
-2.36e-09
-2.36e-09
-2.36e-09
-2.36e-09
-2.36e-09
-2.36e-09
-2.36e-09
-2.36e-09
-2.36e-09
-2.36e-09
-2.36e-09
-2.36e-09
-2.36e-09
-2.36e-09
-2.36e-09
-2.36e-09
-2.36e-09
-2.36e-09
-2.36e-09
-2.36e-09
-2.36e-09
-2.36e-09
-2.36e-09
-2.36e-09
-2.36e-09
-2.36e-09
-2.36e-09
-2.36e-09
-2.36e-09
-2.36e-09
-2.36e-09
-2.36e-09
-2.36e-09
)
;
    }
    fuelOutlet
    {
        type            calculated;
        value           uniform 0;
    }
    fuel_to_electrolyte
    {
        type            fixedValue;
        value           uniform 0;
    }
    fuel_to_interconnect
    {
        type            fixedValue;
        value           uniform 0;
    }
}


// ************************************************************************* //
