/*--------------------------------*- C++ -*----------------------------------*\
| =========                 |                                                 |
| \\      /  F ield         | OpenFOAM: The Open Source CFD Toolbox           |
|  \\    /   O peration     | Version:  2306                                  |
|   \\  /    A nd           | Website:  www.openfoam.com                      |
|    \\/     M anipulation  |                                                 |
\*---------------------------------------------------------------------------*/
FoamFile
{
    version     2.0;
    format      ascii;
    arch        "LSB;label=32;scalar=64";
    class       volScalarField;
    location    "0.9/fuel";
    object      T;
}
// * * * * * * * * * * * * * * * * * * * * * * * * * * * * * * * * * * * * * //

dimensions      [0 0 0 1 0 0 0];

internalField   nonuniform List<scalar> 
16000
(
1109.11
1108.978
1110.671
1109.12
1108.673
1110.659
1108.988
1112.125
1110.678
1109.135
1108.109
1110.629
1108.684
1112.147
1110.665
1109.004
1113.505
1112.128
1110.689
1109.154
1107.164
1110.568
1108.123
1112.195
1110.635
1108.701
1113.537
1112.15
1110.676
1109.024
1114.842
1113.505
1112.135
1110.704
1109.178
1105.787
1110.453
1107.184
1112.275
1110.573
1108.142
1113.61
1112.197
1110.645
1108.722
1114.878
1113.537
1112.157
1110.691
1109.048
1116.143
1114.839
1113.508
1112.146
1110.723
1109.208
1104.229
1110.255
1105.816
1112.392
1110.455
1107.209
1113.737
1112.275
1110.582
1108.166
1114.958
1113.609
1112.202
1110.659
1108.748
1116.179
1114.874
1113.54
1112.167
1110.71
1109.078
1117.408
1116.138
1114.839
1113.516
1112.161
1110.747
1109.237
1102.806
1109.963
1104.272
1112.529
1110.253
1105.85
1113.933
1112.388
1110.462
1107.239
1115.099
1113.734
1112.279
1110.595
1108.195
1116.26
1114.954
1113.611
1112.212
1110.678
1108.78
1117.443
1116.173
1114.875
1113.547
1112.182
1110.734
1109.108
1118.634
1117.4
1116.136
1114.844
1113.527
1112.181
1110.771
1109.267
1101.748
1109.639
1102.862
1112.621
1109.961
1104.319
1114.185
1112.519
1110.256
1105.889
1115.319
1113.925
1112.389
1110.473
1107.274
1116.402
1115.093
1113.734
1112.287
1110.613
1108.23
1117.521
1116.253
1114.953
1113.617
1112.226
1110.701
1108.812
1118.668
1117.435
1116.171
1114.879
1113.558
1112.201
1110.758
1109.139
1119.82
1118.625
1117.397
1116.137
1114.852
1113.542
1112.201
1110.796
1109.297
1101.19
1109.364
1101.815
1112.654
1109.639
1102.923
1114.414
1112.607
1109.964
1104.371
1115.61
1114.172
1112.514
1110.264
1105.933
1116.626
1115.309
1113.922
1112.393
1110.489
1107.315
1117.66
1116.394
1115.09
1113.738
1112.299
1110.635
1108.266
1118.743
1117.513
1116.25
1114.956
1113.627
1112.244
1110.725
1108.845
1119.852
1118.659
1117.431
1116.173
1114.886
1113.573
1112.221
1110.782
1109.17
1120.965
1119.81
1118.62
1117.396
1116.143
1114.864
1113.558
1112.221
1110.82
1109.327
1101.19
1109.208
1101.262
1112.651
1109.367
1101.885
1114.58
1112.639
1109.644
1102.987
1115.887
1114.396
1112.598
1109.971
1104.427
1116.924
1115.594
1114.163
1112.513
1110.276
1105.982
1117.878
1116.614
1115.303
1113.922
1112.402
1110.509
1107.357
1118.876
1117.65
1116.389
1115.092
1113.746
1112.315
1110.658
1108.302
1119.924
1118.733
1117.508
1116.251
1114.963
1113.641
1112.263
1110.749
1108.878
1120.995
1119.842
1118.653
1117.43
1116.177
1114.898
1113.589
1112.24
1110.807
1109.201
1122.067
1120.954
1119.803
1118.617
1117.399
1116.152
1114.876
1113.574
1112.24
1110.845
1109.476
1101.748
1109.208
1101.262
1112.641
1109.213
1101.337
1114.681
1112.636
1109.375
1101.959
1116.103
1114.56
1112.629
1109.653
1103.056
1117.214
1115.867
1114.382
1112.593
1109.982
1104.488
1118.17
1116.907
1115.583
1114.157
1112.516
1110.293
1106.032
1119.085
1117.865
1116.606
1115.301
1113.927
1112.415
1110.53
1107.399
1120.051
1118.864
1117.643
1116.388
1115.096
1113.758
1112.332
1110.681
1108.339
1121.064
1119.913
1118.726
1117.506
1116.255
1114.973
1113.656
1112.281
1110.773
1108.911
1122.096
1120.984
1119.835
1118.65
1117.433
1116.186
1114.91
1113.604
1112.259
1110.831
1109.354
1123.126
1122.055
1120.946
1119.8
1118.618
1117.405
1116.161
1114.888
1113.59
1112.26
1110.965
1109.758
1102.806
1109.364
1101.815
1112.641
1109.213
1101.337
1114.728
1112.627
1109.222
1101.417
1116.243
1114.66
1112.626
1109.387
1102.038
1117.444
1116.08
1114.543
1112.623
1109.666
1103.129
1118.457
1117.193
1115.851
1114.372
1112.593
1109.999
1104.55
1119.367
1118.153
1116.894
1115.575
1114.156
1112.523
1110.31
1106.082
1120.251
1119.071
1117.856
1116.602
1115.302
1113.935
1112.428
1110.551
1107.442
1121.185
1120.038
1118.856
1117.64
1116.39
1115.105
1113.771
1112.349
1110.704
1108.377
1122.161
1121.052
1119.905
1118.723
1117.508
1116.263
1114.984
1113.67
1112.3
1110.797
1109.074
1123.154
1122.084
1120.976
1119.831
1118.651
1117.439
1116.195
1114.921
1113.619
1112.279
1110.951
1109.65
1124.143
1123.114
1122.046
1120.941
1119.799
1118.623
1117.412
1116.17
1114.9
1113.605
1112.359
1111.185
1110.055
1104.229
1109.639
1102.862
1112.651
1109.367
1101.885
1114.728
1112.627
1109.222
1101.417
1116.312
1114.706
1112.616
1109.236
1101.5
1117.598
1116.219
1114.642
1112.62
1109.403
1102.12
1118.687
1117.42
1116.061
1114.531
1112.621
1109.684
1103.203
1119.644
1118.435
1117.176
1115.839
1114.367
1112.596
1110.015
1104.611
1120.521
1119.349
1118.139
1116.885
1115.571
1114.158
1112.531
1110.328
1106.132
1121.376
1120.236
1119.061
1117.85
1116.601
1115.307
1113.943
1112.441
1110.572
1107.486
1122.277
1121.172
1120.029
1118.852
1117.64
1116.396
1115.114
1113.783
1112.365
1110.727
1108.561
1123.217
1122.149
1121.043
1119.9
1118.723
1117.513
1116.27
1114.995
1113.684
1112.318
1110.916
1109.402
1124.169
1123.141
1122.075
1120.971
1119.83
1118.655
1117.445
1116.204
1114.933
1113.634
1112.376
1111.171
1109.965
1125.116
1124.13
1123.104
1122.04
1120.939
1119.802
1118.627
1117.419
1116.179
1114.912
1113.684
1112.534
1111.407
1110.364
1105.787
1109.963
1104.272
1112.654
1109.639
1102.923
1114.681
1112.636
1109.375
1101.959
1116.312
1114.706
1112.616
1109.236
1101.5
1117.674
1116.287
1114.688
1112.61
1109.254
1101.588
1118.842
1117.573
1116.199
1114.629
1112.618
1109.423
1102.203
1119.868
1118.663
1117.401
1116.046
1114.523
1112.623
1109.703
1103.275
1120.787
1119.623
1118.418
1117.162
1115.831
1114.365
1112.6
1110.032
1104.671
1121.634
1120.502
1119.335
1118.129
1116.879
1115.571
1114.161
1112.539
1110.345
1106.183
1122.46
1121.361
1120.225
1119.054
1117.847
1116.604
1115.312
1113.952
1112.454
1110.593
1107.7
1123.327
1122.263
1121.162
1120.024
1118.85
1117.644
1116.402
1115.123
1113.795
1112.382
1110.842
1108.943
1124.229
1123.203
1122.139
1121.037
1119.899
1118.726
1117.519
1116.278
1115.006
1113.698
1112.41
1111.135
1109.76
1125.142
1124.156
1123.132
1122.069
1120.969
1119.832
1118.659
1117.451
1116.212
1114.945
1113.711
1112.547
1111.393
1110.297
1126.047
1125.103
1124.12
1123.098
1122.038
1120.94
1119.804
1118.632
1117.425
1116.188
1114.974
1113.822
1112.707
1111.63
1110.681
1107.164
1110.255
1105.816
1112.621
1109.961
1104.319
1114.58
1112.639
1109.644
1102.987
1116.243
1114.66
1112.626
1109.387
1102.038
1117.674
1116.287
1114.688
1112.61
1109.254
1101.588
1118.92
1117.649
1116.267
1114.675
1112.609
1109.276
1101.675
1120.02
1118.817
1117.552
1116.183
1114.62
1112.62
1109.444
1102.285
1121.002
1119.845
1118.643
1117.385
1116.035
1114.519
1112.625
1109.721
1103.347
1121.889
1120.766
1119.605
1118.404
1117.153
1115.826
1114.363
1112.604
1110.049
1104.732
1122.707
1121.616
1120.488
1119.324
1118.122
1116.877
1115.571
1114.164
1112.546
1110.363
1106.425
1123.503
1122.445
1121.349
1120.217
1119.05
1117.848
1116.606
1115.318
1113.96
1112.467
1110.699
1108.146
1124.336
1123.313
1122.253
1121.155
1120.021
1118.852
1117.648
1116.408
1115.131
1113.807
1112.465
1111.06
1109.375
1125.2
1124.216
1123.193
1122.133
1121.034
1119.901
1118.73
1117.524
1116.286
1115.016
1113.77
1112.573
1111.361
1110.144
1126.072
1125.129
1124.146
1123.125
1122.066
1120.969
1119.835
1118.663
1117.457
1116.221
1115.004
1113.844
1112.716
1111.619
1110.639
1126.937
1126.034
1125.093
1124.113
1123.094
1122.038
1120.942
1119.807
1118.636
1117.432
1116.234
1115.08
1113.957
1112.878
1111.855
1108.109
1110.453
1107.184
1112.529
1110.253
1105.85
1114.414
1112.607
1109.964
1104.371
1116.103
1114.56
1112.629
1109.653
1103.056
1117.598
1116.219
1114.642
1112.62
1109.403
1102.12
1118.92
1117.649
1116.267
1114.675
1112.609
1109.276
1101.675
1120.096
1118.894
1117.627
1116.25
1114.665
1112.611
1109.299
1101.762
1121.149
1119.995
1118.796
1117.535
1116.171
1114.614
1112.622
1109.465
1102.366
1122.096
1120.979
1119.825
1118.627
1117.373
1116.028
1114.514
1112.628
1109.739
1103.419
1122.952
1121.868
1120.748
1119.591
1118.394
1117.147
1115.821
1114.361
1112.608
1110.065
1105.02
1123.74
1122.689
1121.601
1120.476
1119.316
1118.118
1116.875
1115.57
1114.167
1112.554
1110.451
1106.876
1124.505
1123.487
1122.432
1121.34
1120.212
1119.049
1117.848
1116.609
1115.322
1113.968
1112.532
1110.907
1108.663
1125.302
1124.322
1123.302
1122.245
1121.151
1120.021
1118.854
1117.651
1116.414
1115.14
1113.867
1112.611
1111.291
1109.856
1126.128
1125.186
1124.205
1123.186
1122.129
1121.035
1119.902
1118.733
1117.529
1116.293
1115.07
1113.891
1112.734
1111.592
1110.547
1126.961
1126.059
1125.118
1124.139
1123.121
1122.066
1120.97
1119.837
1118.667
1117.464
1116.265
1115.105
1113.973
1112.883
1111.847
1127.784
1126.923
1126.024
1125.085
1124.108
1123.093
1122.038
1120.943
1119.81
1118.64
1117.465
1116.313
1115.182
1114.088
1113.048
1108.673
1110.568
1108.123
1112.392
1110.455
1107.209
1114.185
1112.519
1110.256
1105.889
1115.887
1114.396
1112.598
1109.971
1104.427
1117.444
1116.08
1114.543
1112.623
1109.666
1103.129
1118.842
1117.573
1116.199
1114.629
1112.618
1109.423
1102.203
1120.096
1118.894
1117.627
1116.25
1114.665
1112.611
1109.299
1101.762
1121.223
1120.071
1118.873
1117.609
1116.237
1114.659
1112.613
1109.321
1101.848
1122.237
1121.125
1119.975
1118.779
1117.521
1116.162
1114.609
1112.624
1109.485
1102.446
1123.15
1122.073
1120.96
1119.809
1118.614
1117.364
1116.021
1114.51
1112.63
1109.758
1103.756
1123.975
1122.931
1121.851
1120.734
1119.58
1118.387
1117.14
1115.817
1114.36
1112.612
1110.147
1105.504
1124.733
1123.722
1122.674
1121.589
1120.468
1119.312
1118.115
1116.873
1115.57
1114.169
1112.593
1110.62
1107.336
1125.465
1124.489
1123.475
1122.423
1121.334
1120.21
1119.048
1117.849
1116.611
1115.327
1114.01
1112.65
1111.137
1109.274
1126.227
1125.288
1124.31
1123.294
1122.24
1121.15
1120.021
1118.856
1117.655
1116.42
1115.183
1113.969
1112.757
1111.536
1110.381
1127.014
1126.114
1125.175
1124.198
1123.182
1122.128
1121.035
1119.904
1118.736
1117.534
1116.332
1115.159
1114.008
1112.893
1111.829
1127.808
1126.947
1126.048
1125.11
1124.134
1123.12
1122.065
1120.971
1119.839
1118.671
1117.495
1116.339
1115.201
1114.099
1113.05
1128.592
1127.771
1126.913
1126.016
1125.08
1124.107
1123.092
1122.038
1120.944
1119.812
1118.663
1117.521
1116.388
1115.281
1114.218
1108.978
1110.629
1108.684
1112.275
1110.573
1108.142
1113.933
1112.388
1110.462
1107.239
1115.61
1114.172
1112.514
1110.264
1105.933
1117.214
1115.867
1114.382
1112.593
1109.982
1104.488
1118.687
1117.42
1116.061
1114.531
1112.621
1109.684
1103.203
1120.02
1118.817
1117.552
1116.183
1114.62
1112.62
1109.444
1102.285
1121.223
1120.071
1118.873
1117.609
1116.237
1114.659
1112.613
1109.321
1101.848
1122.308
1121.198
1120.05
1118.855
1117.595
1116.228
1114.653
1112.616
1109.343
1101.932
1123.286
1122.214
1121.105
1119.957
1118.765
1117.511
1116.153
1114.604
1112.627
1109.506
1102.823
1124.166
1123.128
1122.054
1120.944
1119.796
1118.605
1117.355
1116.013
1114.506
1112.633
1109.846
1104.298
1124.959
1123.955
1122.914
1121.836
1120.723
1119.573
1118.38
1117.134
1115.813
1114.358
1112.633
1110.299
1105.955
1125.685
1124.715
1123.707
1122.662
1121.58
1120.463
1119.307
1118.111
1116.871
1115.57
1114.184
1112.667
1110.797
1107.799
1126.384
1125.449
1124.476
1123.465
1122.416
1121.331
1120.208
1119.047
1117.849
1116.614
1115.352
1114.079
1112.772
1111.397
1110.025
1127.11
1126.212
1125.276
1124.301
1123.289
1122.239
1121.149
1120.022
1118.857
1117.658
1116.448
1115.251
1114.065
1112.905
1111.793
1127.86
1127.001
1126.103
1125.167
1124.192
1123.18
1122.127
1121.035
1119.905
1118.739
1117.561
1116.395
1115.242
1114.121
1113.052
1128.614
1127.794
1126.936
1126.04
1125.105
1124.132
1123.119
1122.065
1120.972
1119.842
1118.692
1117.546
1116.408
1115.293
1114.223
1129.359
1128.578
1127.76
1126.904
1126.01
1125.078
1124.105
1123.091
1122.038
1120.945
1119.826
1118.699
1117.572
1116.459
1115.378
1109.11
1110.659
1108.988
1112.195
1110.635
1108.701
1113.737
1112.275
1110.582
1108.166
1115.319
1113.925
1112.389
1110.473
1107.274
1116.924
1115.594
1114.163
1112.513
1110.276
1105.982
1118.457
1117.193
1115.851
1114.372
1112.593
1109.999
1104.55
1119.868
1118.663
1117.401
1116.046
1114.523
1112.623
1109.703
1103.275
1121.149
1119.995
1118.796
1117.535
1116.171
1114.614
1112.622
1109.465
1102.366
1122.308
1121.198
1120.05
1118.855
1117.595
1116.228
1114.653
1112.616
1109.343
1101.932
1123.354
1122.284
1121.177
1120.032
1118.84
1117.585
1116.219
1114.648
1112.618
1109.365
1102.331
1124.297
1123.263
1122.194
1121.088
1119.943
1118.754
1117.501
1116.145
1114.598
1112.629
1109.605
1103.417
1125.143
1124.145
1123.11
1122.039
1120.931
1119.786
1118.596
1117.347
1116.006
1114.502
1112.646
1110.001
1104.777
1125.903
1124.939
1123.938
1122.9
1121.825
1120.715
1119.565
1118.373
1117.128
1115.808
1114.351
1112.675
1110.45
1106.364
1126.597
1125.667
1124.7
1123.695
1122.653
1121.575
1120.458
1119.302
1118.108
1116.869
1115.569
1114.21
1112.742
1110.977
1108.25
1127.263
1126.368
1125.436
1124.466
1123.458
1122.413
1121.328
1120.206
1119.046
1117.85
1116.625
1115.388
1114.143
1112.901
1111.702
1127.953
1127.096
1126.201
1125.267
1124.296
1123.286
1122.237
1121.148
1120.022
1118.859
1117.675
1116.49
1115.311
1114.157
1113.054
1128.665
1127.846
1126.989
1126.095
1125.161
1124.19
1123.178
1122.126
1121.035
1119.907
1118.755
1117.601
1116.45
1115.32
1114.232
1129.381
1128.601
1127.783
1126.928
1126.035
1125.103
1124.13
1123.118
1122.065
1120.973
1119.853
1118.723
1117.592
1116.473
1115.383
1130.086
1129.345
1128.568
1127.752
1126.899
1126.008
1125.076
1124.103
1123.09
1122.038
1120.951
1119.846
1118.732
1117.621
1116.529
1110.671
1109.12
1112.147
1110.665
1109.004
1113.61
1112.197
1110.645
1108.722
1115.099
1113.734
1112.279
1110.595
1108.195
1116.626
1115.309
1113.922
1112.393
1110.489
1107.315
1118.17
1116.907
1115.583
1114.157
1112.516
1110.293
1106.032
1119.644
1118.435
1117.176
1115.839
1114.367
1112.596
1110.015
1104.611
1121.002
1119.845
1118.643
1117.385
1116.035
1114.519
1112.625
1109.721
1103.347
1122.237
1121.125
1119.975
1118.779
1117.521
1116.162
1114.609
1112.624
1109.485
1102.446
1123.354
1122.284
1121.177
1120.032
1118.84
1117.585
1116.219
1114.648
1112.618
1109.365
1102.331
1124.363
1123.331
1122.264
1121.16
1120.018
1118.829
1117.574
1116.21
1114.642
1112.621
1109.471
1102.955
1125.269
1124.275
1123.244
1122.177
1121.074
1119.933
1118.744
1117.491
1116.136
1114.593
1112.641
1109.772
1103.932
1126.081
1125.122
1124.127
1123.094
1122.026
1120.922
1119.777
1118.586
1117.338
1115.999
1114.483
1112.673
1110.15
1105.193
1126.808
1125.884
1124.922
1123.924
1122.889
1121.817
1120.707
1119.558
1118.366
1117.122
1115.787
1114.344
1112.72
1110.597
1106.724
1127.469
1126.579
1125.652
1124.688
1123.686
1122.647
1121.569
1120.452
1119.298
1118.104
1116.858
1115.568
1114.236
1112.815
1111.151
1109.105
1128.101
1127.247
1126.355
1125.426
1124.458
1123.453
1122.409
1121.325
1120.203
1119.045
1117.851
1116.637
1115.416
1114.206
1113.042
1128.755
1127.939
1127.084
1126.191
1125.261
1124.292
1123.283
1122.235
1121.147
1120.022
1118.866
1117.696
1116.523
1115.366
1114.247
1129.43
1128.651
1127.835
1126.981
1126.089
1125.158
1124.188
1123.176
1122.125
1121.036
1119.914
1118.777
1117.634
1116.501
1115.396
1130.107
1129.367
1128.59
1127.775
1126.922
1126.032
1125.1
1124.128
1123.116
1122.064
1120.977
1119.869
1118.75
1117.634
1116.535
1130.775
1130.073
1129.335
1128.559
1127.746
1126.896
1126.005
1125.073
1124.101
1123.089
1122.037
1120.957
1119.862
1118.761
1117.667
1112.125
1110.678
1109.135
1113.537
1112.15
1110.676
1109.024
1114.958
1113.609
1112.202
1110.659
1108.748
1116.402
1115.093
1113.734
1112.287
1110.613
1108.23
1117.878
1116.614
1115.303
1113.922
1112.402
1110.509
1107.357
1119.367
1118.153
1116.894
1115.575
1114.156
1112.523
1110.31
1106.082
1120.787
1119.623
1118.418
1117.162
1115.831
1114.365
1112.6
1110.032
1104.671
1122.096
1120.979
1119.825
1118.627
1117.373
1116.028
1114.514
1112.628
1109.739
1103.419
1123.286
1122.214
1121.105
1119.957
1118.765
1117.511
1116.153
1114.604
1112.627
1109.506
1102.823
1124.363
1123.331
1122.264
1121.16
1120.018
1118.829
1117.574
1116.21
1114.642
1112.621
1109.471
1102.955
1125.333
1124.34
1123.312
1122.247
1121.146
1120.006
1118.818
1117.563
1116.201
1114.637
1112.633
1109.647
1103.493
1126.203
1125.248
1124.256
1123.228
1122.164
1121.063
1119.922
1118.733
1117.481
1116.128
1114.568
1112.664
1109.928
1104.371
1126.981
1126.061
1125.105
1124.111
1123.082
1122.016
1120.912
1119.767
1118.577
1117.33
1115.965
1114.455
1112.704
1110.29
1105.544
1127.673
1126.789
1125.868
1124.909
1123.913
1122.881
1121.809
1120.699
1119.55
1118.359
1117.093
1115.754
1114.341
1112.765
1110.735
1107.35
1128.301
1127.451
1126.565
1125.64
1124.678
1123.679
1122.64
1121.563
1120.447
1119.293
1118.086
1116.838
1115.565
1114.259
1112.883
1111.494
1109.615
1128.899
1128.085
1127.234
1126.345
1125.418
1124.454
1123.449
1122.405
1121.322
1120.201
1119.038
1117.844
1116.639
1115.437
1114.266
1129.518
1128.741
1127.927
1127.075
1126.185
1125.257
1124.289
1123.28
1122.232
1121.146
1120.021
1118.869
1117.708
1116.55
1115.416
1130.156
1129.416
1128.64
1127.826
1126.975
1126.085
1125.155
1124.185
1123.175
1122.124
1121.036
1119.92
1118.791
1117.662
1116.548
1130.796
1130.094
1129.356
1128.581
1127.769
1126.919
1126.028
1125.098
1124.126
1123.115
1122.062
1120.979
1119.88
1118.773
1117.673
1131.425
1130.762
1130.062
1129.326
1128.553
1127.743
1126.892
1126.002
1125.071
1124.1
1123.084
1122.032
1120.96
1119.875
1118.788
1113.505
1112.128
1110.689
1109.154
1114.878
1113.537
1112.157
1110.691
1109.048
1116.26
1114.954
1113.611
1112.212
1110.678
1108.78
1117.66
1116.394
1115.09
1113.738
1112.299
1110.635
1108.266
1119.085
1117.865
1116.606
1115.301
1113.927
1112.415
1110.53
1107.399
1120.521
1119.349
1118.139
1116.885
1115.571
1114.158
1112.531
1110.328
1106.132
1121.889
1120.766
1119.605
1118.404
1117.153
1115.826
1114.363
1112.604
1110.049
1104.732
1123.15
1122.073
1120.96
1119.809
1118.614
1117.364
1116.021
1114.51
1112.63
1109.758
1103.756
1124.297
1123.263
1122.194
1121.088
1119.943
1118.754
1117.501
1116.145
1114.598
1112.629
1109.605
1103.417
1125.333
1124.34
1123.312
1122.247
1121.146
1120.006
1118.818
1117.563
1116.201
1114.637
1112.633
1109.647
1103.493
1126.265
1125.311
1124.321
1123.295
1122.233
1121.135
1119.995
1118.807
1117.553
1116.192
1114.609
1112.656
1109.809
1103.948
1127.099
1126.182
1125.229
1124.24
1123.215
1122.153
1121.053
1119.911
1118.723
1117.471
1116.086
1114.53
1112.689
1110.072
1104.736
1127.841
1126.961
1126.044
1125.09
1124.099
1123.072
1122.007
1120.902
1119.758
1118.568
1117.287
1115.911
1114.434
1112.735
1110.421
1106.141
1128.5
1127.655
1126.773
1125.854
1124.898
1123.905
1122.872
1121.801
1120.691
1119.543
1118.324
1117.045
1115.726
1114.341
1112.808
1111.012
1108.025
1129.093
1128.284
1127.437
1126.553
1125.631
1124.672
1123.673
1122.634
1121.557
1120.442
1119.27
1118.053
1116.816
1115.56
1114.278
1113.01
1111.708
1109.905
1129.658
1128.883
1128.072
1127.223
1126.337
1125.413
1124.449
1123.444
1122.401
1121.318
1120.188
1119.017
1117.828
1116.632
1115.449
1130.241
1129.504
1128.729
1127.917
1127.068
1126.181
1125.253
1124.285
1123.277
1122.23
1121.138
1120.01
1118.864
1117.712
1116.57
1130.843
1130.142
1129.405
1128.631
1127.82
1126.971
1126.082
1125.152
1124.182
1123.173
1122.119
1121.029
1119.92
1118.801
1117.687
1131.446
1130.783
1130.083
1129.348
1128.575
1127.765
1126.915
1126.025
1125.095
1124.124
1123.108
1122.054
1120.977
1119.887
1118.794
1132.038
1131.412
1130.751
1130.054
1129.32
1128.549
1127.739
1126.889
1125.999
1125.068
1124.09
1123.069
1122.024
1120.96
1119.886
1114.842
1113.505
1112.135
1110.704
1109.178
1116.179
1114.874
1113.54
1112.167
1110.71
1109.078
1117.521
1116.253
1114.953
1113.617
1112.226
1110.701
1108.812
1118.876
1117.65
1116.389
1115.092
1113.746
1112.315
1110.658
1108.302
1120.251
1119.071
1117.856
1116.602
1115.302
1113.935
1112.428
1110.551
1107.442
1121.634
1120.502
1119.335
1118.129
1116.879
1115.571
1114.161
1112.539
1110.345
1106.183
1122.952
1121.868
1120.748
1119.591
1118.394
1117.147
1115.821
1114.361
1112.608
1110.065
1105.02
1124.166
1123.128
1122.054
1120.944
1119.796
1118.605
1117.355
1116.013
1114.506
1112.633
1109.846
1104.298
1125.269
1124.275
1123.244
1122.177
1121.074
1119.933
1118.744
1117.491
1116.136
1114.593
1112.641
1109.772
1103.932
1126.265
1125.311
1124.321
1123.295
1122.233
1121.135
1119.995
1118.807
1117.553
1116.192
1114.609
1112.656
1109.809
1103.948
1127.158
1126.244
1125.292
1124.305
1123.282
1122.222
1121.124
1119.984
1118.796
1117.542
1116.147
1114.568
1112.68
1109.958
1104.325
1127.955
1127.078
1126.165
1125.214
1124.227
1123.204
1122.143
1121.042
1119.9
1118.712
1117.422
1116.021
1114.5
1112.715
1110.205
1105.352
1128.662
1127.821
1126.944
1126.029
1125.078
1124.09
1123.063
1121.997
1120.893
1119.748
1118.522
1117.22
1115.865
1114.418
1112.766
1110.686
1106.884
1129.287
1128.482
1127.639
1126.76
1125.843
1124.89
1123.896
1122.864
1121.793
1120.684
1119.505
1118.267
1117.003
1115.702
1114.34
1112.895
1111.308
1108.511
1129.847
1129.077
1128.269
1127.425
1126.543
1125.624
1124.665
1123.666
1122.628
1121.551
1120.414
1119.227
1118.019
1116.793
1115.552
1114.303
1113.087
1111.834
1110.124
1130.378
1129.643
1128.871
1128.062
1127.215
1126.332
1125.408
1124.443
1123.44
1122.396
1121.3
1120.154
1118.984
1117.799
1116.61
1130.926
1130.227
1129.492
1128.719
1127.91
1127.063
1126.176
1125.249
1124.282
1123.274
1122.217
1121.116
1119.99
1118.85
1117.71
1131.491
1130.829
1130.131
1129.396
1128.624
1127.816
1126.967
1126.078
1125.149
1124.18
1123.162
1122.101
1121.016
1119.914
1118.807
1132.058
1131.433
1130.772
1130.075
1129.341
1128.571
1127.761
1126.912
1126.022
1125.092
1124.113
1123.09
1122.041
1120.972
1119.892
1132.614
1132.025
1131.402
1130.743
1130.048
1129.316
1128.545
1127.735
1126.886
1125.996
1125.055
1124.068
1123.052
1122.013
1120.958
1116.143
1114.839
1113.508
1112.146
1110.723
1109.208
1117.443
1116.173
1114.875
1113.547
1112.182
1110.734
1109.108
1118.743
1117.513
1116.25
1114.956
1113.627
1112.244
1110.725
1108.845
1120.051
1118.864
1117.643
1116.388
1115.096
1113.758
1112.332
1110.681
1108.339
1121.376
1120.236
1119.061
1117.85
1116.601
1115.307
1113.943
1112.441
1110.572
1107.486
1122.707
1121.616
1120.488
1119.324
1118.122
1116.877
1115.571
1114.164
1112.546
1110.363
1106.425
1123.975
1122.931
1121.851
1120.734
1119.58
1118.387
1117.14
1115.817
1114.36
1112.612
1110.147
1105.504
1125.143
1124.145
1123.11
1122.039
1120.931
1119.786
1118.596
1117.347
1116.006
1114.502
1112.646
1110.001
1104.777
1126.203
1125.248
1124.256
1123.228
1122.164
1121.063
1119.922
1118.733
1117.481
1116.128
1114.568
1112.664
1109.928
1104.371
1127.158
1126.244
1125.292
1124.305
1123.282
1122.222
1121.124
1119.984
1118.796
1117.542
1116.147
1114.568
1112.68
1109.958
1104.325
1128.013
1127.138
1126.225
1125.277
1124.292
1123.271
1122.211
1121.112
1119.973
1118.785
1117.49
1116.076
1114.533
1112.704
1110.094
1104.958
1128.774
1127.936
1127.061
1126.149
1125.202
1124.217
1123.194
1122.132
1121.031
1119.89
1118.659
1117.343
1115.964
1114.475
1112.741
1110.474
1106.141
1129.445
1128.643
1127.805
1126.93
1126.018
1125.069
1124.08
1123.053
1121.987
1120.883
1119.7
1118.448
1117.162
1115.826
1114.405
1112.833
1111.014
1107.481
1130.036
1129.269
1128.466
1127.626
1126.749
1125.835
1124.881
1123.888
1122.856
1121.785
1120.643
1119.442
1118.216
1116.964
1115.68
1114.339
1112.988
1111.52
1108.896
1130.563
1129.831
1129.063
1128.258
1127.416
1126.536
1125.617
1124.658
1123.659
1122.622
1121.52
1120.364
1119.183
1117.983
1116.768
1115.519
1114.315
1113.132
1111.93
1110.316
1131.06
1130.363
1129.63
1128.86
1128.054
1127.21
1126.326
1125.402
1124.438
1123.435
1122.374
1121.257
1120.11
1118.939
1117.753
1131.573
1130.912
1130.216
1129.482
1128.712
1127.905
1127.058
1126.172
1125.245
1124.278
1123.257
1122.185
1121.085
1119.962
1118.83
1132.103
1131.478
1130.818
1130.122
1129.389
1128.62
1127.811
1126.963
1126.074
1125.146
1124.165
1123.136
1122.078
1120.998
1119.905
1132.633
1132.045
1131.422
1130.763
1130.068
1129.337
1128.567
1127.757
1126.908
1126.019
1125.077
1124.088
1123.068
1122.024
1120.964
1133.153
1132.601
1132.015
1131.393
1130.736
1130.043
1129.312
1128.541
1127.732
1126.882
1125.979
1125.027
1124.043
1123.032
1122
1117.408
1116.138
1114.839
1113.516
1112.161
1110.747
1109.237
1118.668
1117.435
1116.171
1114.879
1113.558
1112.201
1110.758
1109.139
1119.924
1118.733
1117.508
1116.251
1114.963
1113.641
1112.263
1110.749
1108.878
1121.185
1120.038
1118.856
1117.64
1116.39
1115.105
1113.771
1112.349
1110.704
1108.377
1122.46
1121.361
1120.225
1119.054
1117.847
1116.604
1115.312
1113.952
1112.454
1110.593
1107.7
1123.74
1122.689
1121.601
1120.476
1119.316
1118.118
1116.875
1115.57
1114.167
1112.554
1110.451
1106.876
1124.959
1123.955
1122.914
1121.836
1120.723
1119.573
1118.38
1117.134
1115.813
1114.358
1112.633
1110.299
1105.955
1126.081
1125.122
1124.127
1123.094
1122.026
1120.922
1119.777
1118.586
1117.338
1115.999
1114.483
1112.673
1110.15
1105.193
1127.099
1126.182
1125.229
1124.24
1123.215
1122.153
1121.053
1119.911
1118.723
1117.471
1116.086
1114.53
1112.689
1110.072
1104.736
1128.013
1127.138
1126.225
1125.277
1124.292
1123.271
1122.211
1121.112
1119.973
1118.785
1117.49
1116.076
1114.533
1112.704
1110.094
1104.958
1128.83
1127.993
1127.12
1126.21
1125.264
1124.281
1123.26
1122.2
1121.101
1119.962
1118.729
1117.406
1116.015
1114.504
1112.728
1110.367
1105.774
1129.554
1128.755
1127.919
1127.046
1126.137
1125.192
1124.207
1123.183
1122.121
1121.021
1119.836
1118.575
1117.275
1115.916
1114.454
1112.799
1110.82
1106.803
1130.191
1129.427
1128.627
1127.791
1126.918
1126.008
1125.059
1124.071
1123.044
1121.978
1120.834
1119.622
1118.383
1117.111
1115.793
1114.382
1112.923
1111.274
1107.98
1130.747
1130.019
1129.254
1128.453
1127.616
1126.741
1125.827
1124.873
1123.88
1122.848
1121.743
1120.577
1119.385
1118.169
1116.93
1115.63
1114.335
1113.054
1111.684
1109.232
1131.24
1130.547
1129.817
1129.051
1128.248
1127.409
1126.529
1125.61
1124.651
1123.653
1122.588
1121.464
1120.312
1119.138
1117.946
1116.699
1115.495
1114.323
1113.168
1112.013
1110.5
1131.704
1131.045
1130.35
1129.619
1128.852
1128.048
1127.204
1126.32
1125.396
1124.433
1123.409
1122.323
1121.203
1120.052
1118.876
1132.183
1131.56
1130.901
1130.206
1129.475
1128.707
1127.9
1127.054
1126.167
1125.24
1124.257
1123.217
1122.145
1121.045
1119.928
1132.677
1132.09
1131.467
1130.809
1130.115
1129.385
1128.616
1127.807
1126.959
1126.071
1125.128
1124.132
1123.104
1122.05
1120.976
1133.172
1132.621
1132.034
1131.413
1130.757
1130.064
1129.333
1128.563
1127.753
1126.904
1126.001
1125.046
1124.058
1123.043
1122.006
1133.656
1133.14
1132.591
1132.006
1131.387
1130.732
1130.039
1129.308
1128.537
1127.728
1126.863
1125.946
1124.996
1124.015
1123.01
1118.634
1117.4
1116.136
1114.844
1113.527
1112.181
1110.771
1109.267
1119.852
1118.659
1117.431
1116.173
1114.886
1113.573
1112.221
1110.782
1109.17
1121.064
1119.913
1118.726
1117.506
1116.255
1114.973
1113.656
1112.281
1110.773
1108.911
1122.277
1121.172
1120.029
1118.852
1117.64
1116.396
1115.114
1113.783
1112.365
1110.727
1108.561
1123.503
1122.445
1121.349
1120.217
1119.05
1117.848
1116.606
1115.318
1113.96
1112.467
1110.699
1108.146
1124.733
1123.722
1122.674
1121.589
1120.468
1119.312
1118.115
1116.873
1115.57
1114.169
1112.593
1110.62
1107.336
1125.903
1124.939
1123.938
1122.9
1121.825
1120.715
1119.565
1118.373
1117.128
1115.808
1114.351
1112.675
1110.45
1106.364
1126.981
1126.061
1125.105
1124.111
1123.082
1122.016
1120.912
1119.767
1118.577
1117.33
1115.965
1114.455
1112.704
1110.29
1105.544
1127.955
1127.078
1126.165
1125.214
1124.227
1123.204
1122.143
1121.042
1119.9
1118.712
1117.422
1116.021
1114.5
1112.715
1110.205
1105.352
1128.83
1127.993
1127.12
1126.21
1125.264
1124.281
1123.26
1122.2
1121.101
1119.962
1118.729
1117.406
1116.015
1114.504
1112.728
1110.367
1105.774
1129.609
1128.811
1127.976
1127.105
1126.198
1125.254
1124.271
1123.249
1122.189
1121.09
1119.905
1118.64
1117.333
1115.962
1114.48
1112.783
1110.723
1106.467
1130.297
1129.535
1128.738
1127.904
1127.034
1126.128
1125.182
1124.197
1123.173
1122.111
1120.966
1119.749
1118.5
1117.215
1115.875
1114.416
1112.883
1111.106
1107.374
1130.898
1130.173
1129.411
1128.614
1127.78
1126.909
1125.999
1125.05
1124.061
1123.034
1121.928
1120.754
1119.553
1118.325
1117.067
1115.722
1114.358
1112.996
1111.484
1108.427
1131.421
1130.73
1130.004
1129.242
1128.443
1127.608
1126.733
1125.818
1124.865
1123.872
1122.805
1121.674
1120.515
1119.333
1118.128
1116.852
1115.574
1114.333
1113.107
1111.821
1109.554
1131.881
1131.225
1130.533
1129.806
1129.042
1128.241
1127.401
1126.522
1125.603
1124.644
1123.618
1122.528
1121.407
1120.261
1119.093
1117.852
1116.652
1115.482
1114.331
1113.201
1112.09
1110.69
1132.311
1131.689
1131.032
1130.34
1129.611
1128.846
1128.042
1127.198
1126.314
1125.391
1124.404
1123.352
1122.261
1121.135
1119.975
1132.756
1132.17
1131.548
1130.891
1130.199
1129.47
1128.702
1127.895
1127.049
1126.162
1125.217
1124.211
1123.169
1122.096
1120.998
1133.215
1132.664
1132.079
1131.458
1130.802
1130.111
1129.38
1128.611
1127.803
1126.955
1126.05
1125.089
1124.093
1123.067
1122.018
1133.675
1133.16
1132.61
1132.026
1131.407
1130.752
1130.06
1129.328
1128.559
1127.749
1126.885
1125.965