/*--------------------------------*- C++ -*----------------------------------*\
| =========                 |                                                 |
| \\      /  F ield         | OpenFOAM: The Open Source CFD Toolbox           |
|  \\    /   O peration     | Version:  2306                                  |
|   \\  /    A nd           | Website:  www.openfoam.com                      |
|    \\/     M anipulation  |                                                 |
\*---------------------------------------------------------------------------*/
FoamFile
{
    version     2.0;
    format      ascii;
    arch        "LSB;label=32;scalar=64";
    class       volVectorField;
    location    "0.9/fuel";
    object      U;
}
// * * * * * * * * * * * * * * * * * * * * * * * * * * * * * * * * * * * * * //

dimensions      [0 1 -1 0 0 0 0];

internalField   nonuniform List<vector> 
16000
(
(8.64076e-05 6.760444e-05 -0.004468216)
(8.649455e-05 0.0001854792 -0.004536283)
(0.0001552104 6.811667e-05 -0.003731445)
(8.461652e-05 7.200096e-05 -0.014173)
(8.698202e-05 0.0003284797 -0.004675038)
(0.0001546461 0.0001907517 -0.003772419)
(8.459829e-05 0.0001960154 -0.01438707)
(0.0001214031 6.145405e-05 -0.003130254)
(0.000151785 7.130883e-05 -0.01185125)
(7.835766e-05 7.827698e-05 -0.02103026)
(8.721246e-05 0.0004060562 -0.004888835)
(0.0001540087 0.0003347604 -0.003854358)
(8.486907e-05 0.0003465824 -0.01482326)
(0.0001200835 0.00017307 -0.003158723)
(0.0001510568 0.00019803 -0.01198038)
(7.811122e-05 0.0002136605 -0.02134584)
(9.235353e-05 5.453253e-05 -0.002681652)
(0.0001187113 6.395304e-05 -0.009953344)
(0.0001403253 7.522558e-05 -0.01760179)
(7.087111e-05 8.341763e-05 -0.03455903)
(8.913802e-05 0.0005917929 -0.005171194)
(0.0001520843 0.0004261266 -0.00397691)
(8.474525e-05 0.0004308004 -0.01549531)
(0.0001177538 0.0003021463 -0.003215161)
(0.0001500855 0.0003470881 -0.0122385)
(7.790421e-05 0.000376631 -0.0219888)
(9.110679e-05 0.0001539982 -0.002702897)
(0.0001172968 0.0001786148 -0.01004321)
(0.0001392626 0.0002086038 -0.01779242)
(7.035643e-05 0.000234227 -0.0350756)
(7.15315e-05 4.868909e-05 -0.002338175)
(9.033322e-05 5.657285e-05 -0.008535314)
(0.0001096999 6.674512e-05 -0.01479544)
(0.0001270094 7.797638e-05 -0.02894291)
(5.87818e-05 0.000104196 -0.02810884)
(8.795473e-05 0.0004658648 -0.005492577)
(0.0001521886 0.0005967749 -0.00413131)
(8.619484e-05 0.0006230389 -0.01638269)
(0.0001134538 0.0003867571 -0.003298501)
(0.000147622 0.0004424821 -0.01262466)
(7.701473e-05 0.0004729913 -0.02297932)
(8.884022e-05 0.0002680339 -0.002744759)
(0.0001147789 0.0003114935 -0.01022129)
(0.0001375971 0.0003646873 -0.01817349)
(6.958808e-05 0.0004116584 -0.03612773)
(7.048502e-05 0.0001377312 -0.002354716)
(8.902352e-05 0.0001584351 -0.008602462)
(0.0001081176 0.0001859556 -0.01492826)
(0.0001255579 0.000220959 -0.02925515)
(5.766683e-05 0.0002909431 -0.02852798)
(5.71672e-05 4.383014e-05 -0.002066686)
(6.996203e-05 5.040407e-05 -0.007448485)
(8.352526e-05 5.870092e-05 -0.01269663)
(9.922021e-05 6.847485e-05 -0.02434327)
(0.0001046069 9.242074e-05 -0.02354497)
(0.0005022118 0.0009526842 -0.05603545)
(9.145649e-05 0.0001281603 -0.005727503)
(0.0001464052 0.0004861445 -0.004299711)
(8.440153e-05 0.0004935617 -0.01739439)
(0.0001095894 0.0005330375 -0.003401225)
(0.0001470207 0.0006170658 -0.01311124)
(7.739427e-05 0.0006742921 -0.02428693)
(8.484354e-05 0.0003439095 -0.002806043)
(0.0001101823 0.0003990124 -0.01048436)
(0.0001340364 0.0004663099 -0.01874364)
(6.779954e-05 0.0005221537 -0.03774961)
(6.856272e-05 0.0002391865 -0.002387158)
(8.663324e-05 0.0002754939 -0.008734725)
(0.0001052591 0.0003235921 -0.01519149)
(0.0001230859 0.0003852587 -0.02987905)
(5.565629e-05 0.0005089411 -0.02938268)
(5.629239e-05 0.0001241334 -0.002079948)
(6.887077e-05 0.0001414009 -0.007500825)
(8.211359e-05 0.0001639094 -0.01279597)
(9.744247e-05 0.0001945493 -0.02456098)
(0.0001022376 0.0002591613 -0.0237982)
(0.0004912402 0.002701743 -0.05687347)
(4.676237e-05 3.974563e-05 -0.001846757)
(5.5914e-05 4.530231e-05 -0.006588719)
(6.467158e-05 5.209278e-05 -0.01108681)
(7.560316e-05 5.987229e-05 -0.02090187)
(8.154739e-05 7.950577e-05 -0.01980708)
(0.0008948998 0.0008386637 -0.04693468)
(0.0005154288 0.0009828717 -0.03952854)
(9.358372e-05 6.520081e-05 -0.005876216)
(0.0001495347 0.0001822008 -0.004413606)
(8.747855e-05 0.0001447408 -0.01813069)
(0.0001008436 0.0004371509 -0.003511378)
(0.000140339 0.0005034264 -0.0136435)
(7.432541e-05 0.0005404709 -0.02577796)
(8.093254e-05 0.0004697571 -0.002880435)
(0.0001059529 0.0005481823 -0.01080873)
(0.0001319307 0.0006448842 -0.01946209)
(6.692393e-05 0.0007340016 -0.03989215)
(6.522825e-05 0.0003072752 -0.002434344)
(8.244308e-05 0.0003536204 -0.008928446)
(0.0001001424 0.0004151286 -0.0155804)
(0.0001182503 0.0004941555 -0.03081313)
(5.18467e-05 0.0006559468 -0.03070013)
(5.467603e-05 0.0002151867 -0.00210586)
(6.686102e-05 0.0002453466 -0.00760344)
(7.951836e-05 0.0002844556 -0.01299166)
(9.418739e-05 0.0003377627 -0.02499217)
(9.78873e-05 0.0004497712 -0.02430496)
(0.0004709987 0.004722844 -0.05857921)
(4.602349e-05 0.0001126628 -0.001857635)
(5.500578e-05 0.0001272414 -0.006630725)
(6.351185e-05 0.0001456607 -0.01116431)
(7.40726e-05 0.0001703275 -0.0210648)
(7.92547e-05 0.0002232282 -0.01998359)
(0.0008722294 0.002384606 -0.04744114)
(0.0005035493 0.002861096 -0.04012328)
(3.907145e-05 3.627728e-05 -0.00166491)
(4.573868e-05 4.103009e-05 -0.005891713)
(5.168327e-05 4.668051e-05 -0.009812524)
(5.851219e-05 5.29171e-05 -0.01826126)
(6.227104e-05 6.871907e-05 -0.01701038)
(0.0006972669 0.0007192159 -0.03948443)
(0.0009226417 0.0008640159 -0.03309675)
(0.0005035022 0.001016686 -0.04387557)
(9.528533e-05 1.122392e-05 -0.00595933)
(0.000151257 0.0001017029 -0.004482653)
(8.932669e-05 7.497063e-05 -0.01859608)
(9.968396e-05 0.0001754705 -0.003582)
(0.0001428705 0.0001917269 -0.01400168)
(7.640583e-05 0.0001766436 -0.02686137)
(7.330663e-05 0.0003862349 -0.002959401)
(9.674566e-05 0.0004498226 -0.01115782)
(0.0001234868 0.0005276838 -0.02024839)
(6.235947e-05 0.0005950896 -0.04234265)
(6.186884e-05 0.0004170731 -0.002490939)
(7.830013e-05 0.0004817428 -0.009163697)
(9.523516e-05 0.0005666866 -0.01606001)
(0.0001143973 0.0006773941 -0.03199082)
(4.822666e-05 0.000902051 -0.0324422)
(5.18999e-05 0.0002766326 -0.002143354)
(6.339039e-05 0.000315254 -0.007752767)
(7.50194e-05 0.0003654234 -0.01327833)
(8.846487e-05 0.000434002 -0.02562973)
(9.003194e-05 0.0005801245 -0.02506341)
(0.0004332655 0.006102347 -0.06121591)
(4.465299e-05 0.0001950135 -0.001878825)
(5.332448e-05 0.0002203986 -0.006712765)
(6.136543e-05 0.0002522845 -0.01131625)
(7.123834e-05 0.0002949691 -0.02138554)
(7.49716e-05 0.0003859324 -0.02033383)
(0.0008299848 0.004135392 -0.0484519)
(0.0004815328 0.005000936 -0.04133371)
(3.844026e-05 0.0001028993 -0.001673997)
(4.4974e-05 0.0001153436 -0.005926202)
(5.072639e-05 0.0001306551 -0.009874759)
(5.727257e-05 0.0001506615 -0.01838844)
(6.040423e-05 0.0001930394 -0.01714247)
(0.0006759686 0.002046438 -0.03983759)
(0.0008983725 0.00251802 -0.03345635)
(0.0004910649 0.002911673 -0.04453777)
(3.31694e-05 3.329383e-05 -0.001512094)
(3.822067e-05 3.741246e-05 -0.005315008)
(4.227736e-05 4.217977e-05 -0.008778897)
(4.675561e-05 4.727346e-05 -0.01617028)
(4.812974e-05 6.02463e-05 -0.01486435)
(0.000532743 0.0006204652 -0.0339118)
(0.000718764 0.0007404879 -0.02783493)
(0.0008978144 0.0008892373 -0.03673061)
(0.0004913847 0.001023348 -0.04454767)
(9.604708e-05 3.694709e-06 -0.00599608)
(0.0001530841 3.479658e-05 -0.004520084)
(9.087573e-05 1.595043e-05 -0.018856)
(9.865526e-05 9.97525e-05 -0.003623177)
(0.0001442025 0.0001071679 -0.01421864)
(7.760603e-05 9.400628e-05 -0.02754548)
(7.159689e-05 0.0001599502 -0.003007924)
(9.531521e-05 0.0001821324 -0.01138037)
(0.0001246686 0.0002072981 -0.02077694)
(6.327409e-05 0.0002137506 -0.04411534)
(5.566513e-05 0.0003433147 -0.002550624)
(7.037946e-05 0.0003961546 -0.009414455)
(8.52702e-05 0.0004655292 -0.0165765)
(0.0001039064 0.0005560268 -0.0332846)
(4.019823e-05 0.0007448398 -0.0344312)
(4.905779e-05 0.000373653 -0.002187877)
(5.98703e-05 0.0004269204 -0.007931956)
(7.048281e-05 0.0004951475 -0.01362653)
(8.276861e-05 0.0005883596 -0.02641634)
(8.217758e-05 0.0007831815 -0.02602049)
(0.0003958765 0.008361033 -0.06470219)
(4.23162e-05 0.0002507935 -0.001909353)
(5.04475e-05 0.0002833578 -0.006831539)
(5.769081e-05 0.0003243109 -0.0115374)
(6.63791e-05 0.0003792689 -0.02185577)
(6.763872e-05 0.0004973739 -0.02085143)
(0.0007543764 0.005338975 -0.04997015)
(0.0004406894 0.006466762 -0.04322952)
(3.726629e-05 0.0001778909 -0.001691648)
(4.355354e-05 0.000199506 -0.005993348)
(4.894844e-05 0.0002259356 -0.009996323)
(5.496655e-05 0.0002604352 -0.01863761)
(5.690555e-05 0.0003329979 -0.01740301)
(0.0006358467 0.003535602 -0.040536)
(0.0008530284 0.004366249 -0.03417412)
(0.0004678852 0.005088436 -0.04588521)
(3.262419e-05 9.448544e-05 -0.001519798)
(3.7569e-05 0.0001052453 -0.00534384)
(4.147674e-05 0.0001181431 -0.008830027)
(4.574187e-05 0.0001346676 -0.01627248)
(4.66533e-05 0.000169286 -0.01496744)
(0.0005155436 0.001765963 -0.0341762)
(0.0006961746 0.002158429 -0.02808579)
(0.0008726719 0.002550641 -0.03713113)
(0.0004783773 0.002964554 -0.04522563)
(2.856931e-05 3.070463e-05 -0.001381895)
(3.245178e-05 3.43076e-05 -0.004830061)
(3.533566e-05 3.838823e-05 -0.007923241)
(3.824436e-05 4.261224e-05 -0.01447361)
(3.844378e-05 5.348816e-05 -0.01316487)
(0.0004116241 0.0005432243 -0.02963636)
(0.0005492784 0.0006384764 -0.02390078)
(0.0006992246 0.0007605399 -0.03088749)
(0.0008777006 0.0008921152 -0.03728354)
(0.0005154095 0.001144811 -0.03766058)
(9.604708e-05 -3.69471e-06 -0.00599608)
(0.0001539027 1.094599e-05 -0.004536349)
(9.156957e-05 5.137726e-06 -0.01897086)
(9.869899e-05 3.71878e-05 -0.003644656)
(0.000145819 3.733562e-05 -0.0143363)
(7.878791e-05 2.567913e-05 -0.02792733)
(7.025939e-05 9.159567e-05 -0.003035312)
(9.411186e-05 0.0001034998 -0.01151004)
(0.0001251302 0.0001161725 -0.02109699)
(6.371733e-05 0.0001161334 -0.04523329)
(5.405521e-05 0.0001448597 -0.00258595)
(6.850895e-05 0.000164998 -0.009567562)
(8.329288e-05 0.0001917862 -0.01690547)
(0.0001035224 0.000225482 -0.03414911)
(3.864932e-05 0.0003053299 -0.03587453)
(4.397637e-05 0.0003077445 -0.002234631)
(5.346154e-05 0.0003514019 -0.008121798)
(6.213036e-05 0.0004073092 -0.01399793)
(7.192113e-05 0.0004839259 -0.02726719)
(6.667378e-05 0.0006464232 -0.02706835)
(0.0003178397 0.006924097 -0.06874983)
(3.989873e-05 0.0003374298 -0.001945294)
(4.748776e-05 0.0003819579 -0.006972653)
(5.391466e-05 0.0004371249 -0.01180285)
(6.138344e-05 0.0005108749 -0.02242717)
(5.99335e-05 0.0006659461 -0.02149059)
(0.0006769941 0.007187344 -0.05188475)
(0.0003997269 0.008855062 -0.04571793)
(3.527605e-05 0.0002288201 -0.001716986)
(4.11393e-05 0.0002565736 -0.006090144)
(4.592825e-05 0.0002905335 -0.01017235)
(5.105361e-05 0.0003349508 -0.01900058)
(5.101382e-05 0.0004289 -0.01778475)
(0.0005674308 0.004558929 -0.04157257)
(0.0007720672 0.005638807 -0.03527278)
(0.0004251434 0.0065884 -0.04800454)
(3.160809e-05 0.0001631708 -0.001534729)
(3.635551e-05 0.0001818206 -0.005399818)
(3.998519e-05 0.0002040312 -0.008929581)
(4.385094e-05 0.0002324492 -0.01647193)
(4.388235e-05 0.0002915582 -0.01516987)
(0.0004830833 0.003044363 -0.03469573)
(0.000653571 0.003728709 -0.02858207)
(0.0008255289 0.004421853 -0.03793035)
(0.0004540084 0.005180385 -0.04660189)
(2.809397e-05 8.717342e-05 -0.001388509)
(3.188996e-05 9.656253e-05 -0.004854525)
(3.465661e-05 0.0001075831 -0.007966007)
(3.74017e-05 0.0001214372 -0.01455762)
(3.725477e-05 0.0001503243 -0.0132477)
(0.0003980716 0.001546363 -0.02984283)
(0.0005310846 0.001861366 -0.02408866)
(0.0006761673 0.002182271 -0.03116698)
(0.0008517156 0.00258642 -0.0376943)
(0.0005006076 0.003285667 -0.03822889)
(2.489304e-05 2.843556e-05 -0.00126968)
(2.795679e-05 3.161783e-05 -0.004416638)
(3.001041e-05 3.514766e-05 -0.007203392)
(3.197303e-05 3.870566e-05 -0.01306857)
(3.143798e-05 4.797749e-05 -0.01178573)
(0.0003287532 0.0004817793 -0.02625086)
(0.0004243547 0.0005587624 -0.02088344)
(0.0005345339 0.0006550599 -0.02651969)
(0.0006833861 0.0007619415 -0.03134609)
(0.0009178717 0.0009925208 -0.03151166)
(0.004277436 0.01065779 -0.09880745)
(9.528533e-05 -1.122392e-05 -0.00595933)
(0.0001539027 -1.094599e-05 -0.004536349)
(9.156957e-05 -5.137727e-06 -0.01897086)
(9.872084e-05 1.170415e-05 -0.003653717)
(0.0001465439 1.171731e-05 -0.01438743)
(7.931855e-05 8.099233e-06 -0.02809601)
(6.99556e-05 3.533916e-05 -0.003049098)
(9.40651e-05 3.887093e-05 -0.01157774)
(0.0001262551 4.184823e-05 -0.02127058)
(6.447085e-05 3.69788e-05 -0.04585704)
(5.282994e-05 8.326619e-05 -0.002605312)
(6.706913e-05 9.439669e-05 -0.009653915)
(8.174458e-05 0.0001089035 -0.01709715)
(0.0001029752 0.0001266875 -0.03467205)
(3.748757e-05 0.0001701145 -0.0367842)
(4.255381e-05 0.0001315179 -0.002261352)
(5.174502e-05 0.0001488717 -0.008233366)
(5.996095e-05 0.0001716122 -0.01422453)
(6.930754e-05 0.0002030916 -0.02780526)
(6.286283e-05 0.0002764787 -0.02777231)
(0.0002994618 0.002894781 -0.07161712)
(3.567464e-05 0.0002779761 -0.001982931)
(4.22555e-05 0.0003145251 -0.007121579)
(4.722857e-05 0.0003597559 -0.01208426)
(5.252705e-05 0.0004203996 -0.02303965)
(4.660012e-05 0.000548942 -0.02217881)
(0.0005295106 0.005938241 -0.05403248)
(0.0003156948 0.007338869 -0.0488787)
(3.320203e-05 0.0003068744 -0.001746588)
(3.86323e-05 0.0003445738 -0.006204162)
(4.279086e-05 0.0003899936 -0.01038154)
(4.697842e-05 0.0004491159 -0.0194364)
(4.476311e-05 0.0005715176 -0.01824903)
(0.0004949619 0.006089367 -0.04285132)
(0.0006886573 0.007588199 -0.03664659)
(0.0003815739 0.009013659 -0.05078336)
(2.989358e-05 0.0002099066 -0.001556093)
(3.430404e-05 0.0002338642 -0.005480221)
(3.746622e-05 0.0002624013 -0.009073125)
(4.066324e-05 0.0002989746 -0.016761)
(3.925049e-05 0.0003753372 -0.01546454)
(0.0004285809 0.003922346 -0.03546061)
(0.000581 0.00480883 -0.02933575)
(0.0007416704 0.005713626 -0.03916094)
(0.0004093134 0.006715134 -0.04879483)
(2.720672e-05 0.0001504041 -0.001401299)
(3.084188e-05 0.0001666491 -0.004901909)
(3.338918e-05 0.0001855885 -0.00804905)
(3.582697e-05 0.0002093608 -0.01472104)
(3.502138e-05 0.0002585781 -0.01340977)
(0.0003724727 0.002661643 -0.03024651)
(0.0004967187 0.003208536 -0.02445802)
(0.0006326228 0.003769164 -0.0317197)
(0.0008028309 0.004483303 -0.03851147)
(0.0004725299 0.005741219 -0.03939299)
(2.447504e-05 8.075831e-05 -0.001275419)
(2.746774e-05 8.903029e-05 -0.004437654)
(2.942724e-05 9.854441e-05 -0.007239698)
(3.126196e-05 0.0001103369 -0.01313888)
(3.046096e-05 0.0001348539 -0.01185382)
(0.0003178662 0.001371587 -0.02641687)
(0.0004100358 0.001629134 -0.02103021)
(0.000516043 0.001879885 -0.02672907)
(0.0006598558 0.002209213 -0.03163311)
(0.0008886244 0.002850683 -0.03185447)
(0.004137813 0.03074389 -0.1004716)
(2.191968e-05 2.643269e-05 -0.001171996)
(2.436473e-05 2.926418e-05 -0.004060118)
(2.586429e-05 3.234965e-05 -0.006589444)
(2.716403e-05 3.538067e-05 -0.01188613)
(2.630026e-05 4.340372e-05 -0.01064352)
(0.0002688262 0.0004317788 -0.0235036)
(0.0003389111 0.0004953997 -0.01849482)
(0.0004128874 0.0005728487 -0.02317033)
(0.0005226046 0.0006556931 -0.02690925)
(0.0007144066 0.0008457591 -0.02648825)
(0.007606113 0.009150603 -0.08263604)
(0.004401582 0.01059829 -0.01011377)
(9.358372e-05 -6.520081e-05 -0.005876216)
(0.0001530841 -3.479658e-05 -0.004520084)
(9.087573e-05 -1.595043e-05 -0.018856)
(9.872084e-05 -1.170415e-05 -0.003653717)
(0.0001465439 -1.171731e-05 -0.01438743)
(7.931855e-05 -8.099233e-06 -0.02809601)
(6.98162e-05 1.11242e-05 -0.003054743)
(9.404665e-05 1.221121e-05 -0.01160631)
(0.0001267614 1.307864e-05 -0.02134603)
(6.481121e-05 1.153841e-05 -0.04613255)
(5.247507e-05 3.274276e-05 -0.002614725)
(6.671445e-05 3.656519e-05 -0.009697436)
(8.150402e-05 4.150176e-05 -0.01719728)
(0.0001035307 4.711489e-05 -0.03495571)
(3.73594e-05 6.339309e-05 -0.03729165)
(4.148661e-05 7.57655e-05 -0.002275593)
(5.045251e-05 8.546969e-05 -0.008294456)
(5.833747e-05 9.799326e-05 -0.01435235)
(6.735789e-05 0.0001152339 -0.02811843)
(6.009547e-05 0.000155967 -0.02819794)
(0.0002861436 0.001618051 -0.07342192)
(3.443312e-05 0.0001198952 -0.002003738)
(4.075744e-05 0.0001348122 -0.007206031)
(4.532596e-05 0.0001536658 -0.01224953)
(5.000911e-05 0.0001793758 -0.02341029)
(4.247064e-05 0.000238005 -0.02261718)
(0.0004892635 0.002563814 -0.05542115)
(0.0002948411 0.003082115 -0.05082377)
(2.964065e-05 0.0002528222 -0.001777535)
(3.429282e-05 0.000283782 -0.006324203)
(3.736796e-05 0.0003210101 -0.01060245)
(3.996818e-05 0.0003695762 -0.01990094)
(3.434983e-05 0.0004705898 -0.01874394)
(0.0003714031 0.005021749 -0.04427026)
(0.0005311363 0.006270555 -0.03840675)
(0.0002941628 0.007479503 -0.05442507)
(2.809723e-05 0.0002807496 -0.00158088)
(3.215979e-05 0.0003131152 -0.005574211)
(3.483059e-05 0.0003510685 -0.00924225)
(3.731817e-05 0.0003994493 -0.01710464)
(3.431556e-05 0.0004984372 -0.01581866)
(0.0003704642 0.005215323 -0.03638979)
(0.0005039496 0.006421573 -0.03025692)
(0.0006543775 0.007684799 -0.04069815)
(0.0003631108 0.009182943 -0.0516549)
(2.57155e-05 0.0001934904 -0.00141955)
(2.907786e-05 0.0002143628 -0.004969755)
(3.125863e-05 0.0002386901 -0.008168351)
(3.318539e-05 0.0002692655 -0.01495688)
(3.130583e-05 0.0003327328 -0.01364444)
(0.0003297907 0.003427077 -0.03083728)
(0.0004390598 0.004134371 -0.0250164)
(0.0005585744 0.004862541 -0.03256515)
(0.0007161397 0.005795851 -0.03979276)
(0.0004213773 0.00745414 -0.04123679)
(2.369387e-05 0.0001392234 -0.001286496)
(2.655412e-05 0.0001535132 -0.004478276)
(2.833722e-05 0.0001698352 -0.007310029)
(2.993136e-05 0.0001900314 -0.01327526)
(2.862469e-05 0.0002317313 -0.01198662)
(0.000297291 0.002357948 -0.02674008)
(0.0003829701 0.002803883 -0.02131738)
(0.0004810857 0.003239883 -0.02714055)
(0.0006153534 0.003815278 -0.03219873)
(0.0008331078 0.004940838 -0.03254486)
(0.003854901 0.05368247 -0.1036935)
(2.154944e-05 7.509077e-05 -0.001177021)
(2.393523e-05 8.243185e-05 -0.004078365)
(2.535824e-05 9.07316e-05 -0.006620649)
(2.655585e-05 0.0001008813 -0.01194585)
(2.548323e-05 0.0001220094 -0.0107005)
(0.0002598972 0.001229316 -0.02364014)
(0.0003274175 0.001444479 -0.01861288)
(0.0003983629 0.001644078 -0.02333396)
(0.0005038046 0.001901272 -0.02712452)
(0.0006883496 0.002429381 -0.02672703)
(0.007334151 0.02639011 -0.08367736)
(0.004263445 0.0308993 -0.01054549)
(1.947173e-05 2.465194e-05 -0.001086229)
(2.146002e-05 2.718924e-05 -0.003749594)
(2.255169e-05 2.990818e-05 -0.00605978)
(2.342397e-05 3.251947e-05 -0.01087729)
(2.236532e-05 3.954221e-05 -0.009682156)
(0.000224931 0.0003903456 -0.02122832)
(0.000277128 0.00044387 -0.01655697)
(0.0003297367 0.0005075974 -0.02051925)
(0.0004036057 0.000573037 -0.02350786)
(0.0005466129 0.000726904 -0.02273568)
(0.005915605 0.007765401 -0.06943585)
(0.007850847 0.009123087 -0.008419875)
(0.004252809 0.01089424 -0.0291166)
(9.145649e-05 -0.0001281603 -0.005727503)
(0.000151257 -0.0001017029 -0.004482653)
(8.932669e-05 -7.497063e-05 -0.01859608)
(9.869899e-05 -3.71878e-05 -0.003644656)
(0.000145819 -3.733562e-05 -0.0143363)
(7.878791e-05 -2.567913e-05 -0.02792733)
(6.98162e-05 -1.11242e-05 -0.003054743)
(9.404665e-05 -1.221121e-05 -0.01160631)
(0.0001267614 -1.307864e-05 -0.02134603)
(6.481121e-05 -1.153841e-05 -0.04613255)
(5.23114e-05 1.030542e-05 -0.00261846)
(6.655262e-05 1.149115e-05 -0.009715263)
(8.13992e-05 1.299108e-05 -0.01723956)
(0.0001037841 1.466774e-05 -0.03507904)
(3.730858e-05 1.959298e-05 -0.03751579)
(4.114578e-05 3.016178e-05 -0.002282274)
(5.006519e-05 3.368696e-05 -0.008324198)
(5.788183e-05 3.826745e-05 -0.01441682)
(6.689202e-05 4.458252e-05 -0.02828206)
(5.94432e-05 6.094254e-05 -0.02842885)
(0.0002833819 0.0006143996 -0.07442891)
(3.351068e-05 6.916528e-05 -0.002014524)
(3.964288e-05 7.756011e-05 -0.007250977)
(4.392154e-05 8.800553e-05 -0.01234004)
(4.817139e-05 0.0001022178 -0.0236191)
(3.955039e-05 0.0001348462 -0.02287225)
(0.0004605313 0.001447175 -0.05625843)
(0.0002798498 0.001724291 -0.05204187)
(2.855782e-05 0.0001098135 -0.0017941)
(3.299534e-05 0.0001226669 -0.006389998)
(3.574531e-05 0.0001384191 -0.01072764)
(3.784823e-05 0.0001593048 -0.02017127)
(3.094638e-05 0.0002053903 -0.01904608)
(0.0003317543 0.002190935 -0.04513078)
(0.0004869734 0.002711441 -0.03931889)
(0.0002709618 0.003163485 -0.05655444)
(2.505528e-05 0.0002312929 -0.001606771)
(2.85074e-05 0.0002578752 -0.005673031)
(3.035397e-05 0.0002889564 -0.009420418)
(3.167215e-05 0.0003286454 -0.01746965)
(2.623597e-05 0.0004100295 -0.0161937)
(0.0002746543 0.004295087 -0.03741556)
(0.0003730475 0.005295746 -0.03145996)
(0.0004918471 0.006352103 -0.04275687)
(0.0002721406 0.007627516 -0.05570516)
(2.414665e-05 0.0002581976 -0.001440592)
(2.722506e-05 0.000286269 -0.005048521)
(2.901806e-05 0.0003184722 -0.008307846)
(3.039922e-05 0.0003587207 -0.01523485)
(2.733715e-05 0.0004406878 -0.01392367)
(0.0002841425 0.004542085 -0.03154632)
(0.0003774866 0.005496278 -0.02568803)
(0.0004796572 0.006491079 -0.03359752)
(0.0006251187 0.007794144 -0.04138348)
(0.0003675715 0.01019174 -0.04365285)
(2.238533e-05 0.0001791061 -0.001302263)
(2.50221e-05 0.0001974671 -0.004536276)
(2.651196e-05 0.0002184236 -0.007410749)
(2.770814e-05 0.000244381 -0.01347138)
(2.558082e-05 0.0002980683 -0.0121781)
(0.0002631397 0.003034432 -0.02721088)
(0.000337871 0.003610518 -0.02175027)
(0.0004225049 0.004175636 -0.02776772)
(0.0005397805 0.004923529 -0.03308303)
(0.0007350406 0.006391973 -0.03361832)
(0.003347098 0.06990472 -0.1095638)
(2.085681e-05 0.0001293607 -0.001186705)
(2.313198e-05 0.0001420253 -0.00411357)
(2.441135e-05 0.0001562422 -0.006680971)
(2.541668e-05 0.0001735963 -0.01206141)
(2.394707e-05 0.0002094815 -0.01081136)
(0.0002430162 0.002111277 -0.02390505)
(0.0003056825 0.00248308 -0.01884295)
(0.0003708907 0.002829145 -0.02365396)
(0.0004682263 0.003276428 -0.02754592)
(0.0006387733 0.004195147 -0.02720453)
(0.006790401 0.0457039 -0.08562443)
(0.003983189 0.05438329 -0.01142122)
(1.91416e-05 7.004802e-05 -0.001090664)
(2.108001e-05 7.660957e-05 -0.003765583)
(2.210844e-05 8.390808e-05 -0.006086886)
(2.289801e-05 9.273963e-05 -0.01092865)
(2.167171e-05 0.0001111619 -0.009730555)
(0.0002174756 0.001111399 -0.02134265)
(0.0002677072 0.001294273 -0.01665411)
(0.0003180932 0.001456866 -0.0206509)
(0.0003888635 0.001661653 -0.02367628)
(0.0005258966 0.00208799 -0.02291429)
(0.00567973 0.0223903 -0.07018037)
(0.007580593 0.02659045 -0.00873937)
(0.004107552 0.03154416 -0.02995771)
(1.743695e-05 2.305933e-05 -0.001010357)
(1.906871e-05 2.53464e-05 -0.003476807)
(1.987435e-05 2.776089e-05 -0.005598268)
(2.043673e-05 3.002998e-05 -0.01000665)
(1.931508e-05 3.624108e-05 -0.008861836)
(0.0001913222 0.0003554108 -0.01931322)
(0.0002318915 0.0004011916 -0.01495235)
(0.0002696186 0.000454591 -0.01836867)
(0.0003223115 0.0005075131 -0.02081615)
(0.0004220462 0.0006347071 -0.0198596)
(0.004531844 0.006658035 -0.05958167)
(0.006107518 0.007750494 -0.007053172)
(0.007566003 0.009335955 -0.02430698)
(0.00421409 0.01096339 -0.01074217)
(8.795473e-05 -0.0004658648 -0.005492577)
(0.0001495347 -0.0001822008 -0.004413606)
(8.747855e-05 -0.0001447408 -0.01813069)
(9.865526e-05 -9.97525e-05 -0.003623177)
(0.0001442025 -0.0001071679 -0.01421864)
(7.760603e-05 -9.400628e-05 -0.02754548)
(6.99556e-05 -3.533916e-05 -0.003049098)
(9.40651e-05 -3.887093e-05 -0.01157774)
(0.0001262551 -4.184823e-05 -0.02127058)
(6.447085e-05 -3.69788e-05 -0.04585704)
(5.23114e-05 -1.030542e-05 -0.00261846)
(6.655262e-05 -1.149115e-05 -0.009715263)
(8.13992e-05 -1.299108e-05 -0.01723956)
(0.0001037841 -1.466774e-05 -0.03507904)
(3.730858e-05 -1.959298e-05 -0.03751579)
(4.09884e-05 9.490573e-06 -0.002284835)
(4.988737e-05 1.058654e-05 -0.008336004)
(5.767565e-05 1.19866e-05 -0.01444325)
(6.668677e-05 1.390473e-05 -0.02835118)
(5.916042e-05 1.886434e-05 -0.02852926)
(0.000282212 0.0001896877 -0.07487378)
(3.319948e-05 2.77699e-05 -0.002019399)
(3.927979e-05 3.091694e-05 -0.007272096)
(4.347391e-05 3.485306e-05 -0.01238415)
(4.759803e-05 4.026642e-05 -0.02372443)
(3.857189e-05 5.353696e-05 -0.02300557)
(0.0004525255 0.0005698579 -0.05671253)
(0.0002763773 0.0006581611 -0.05272231)
(2.775901e-05 6.340747e-05 -0.001802452)
(3.203797e-05 7.066514e-05 -0.006424047)
(3.455722e-05 7.941614e-05 -0.01079428)
(3.6313e-05 9.099163e-05 -0.0203191)
(2.855e-05 0.0001165974 -0.01921628)
(0.0003039039 0.001240989 -0.04562921)
(0.0004555808 0.00153065 -0.03986079)
(0.0002544429 0.00177223 -0.05788213)
(2.410663e-05 0.0001010148 -0.0016202)
(2.738165e-05 0.0001121898 -0.005725436)
(2.896903e-05 0.0001254586 -0.009518014)
(2.990381e-05 0.0001426703 -0.01767443)
(2.353583e-05 0.0001796841 -0.01641421)
(0.0002426307 0.001883343 -0.03800622)
(0.0003306743 0.002311836 -0.03200969)
(0.0004443707 0.002753043 -0.04374218)
(0.0002466522 0.003243072 -0.05778192)
(2.151994e-05 0.000212697 -0.001462563)
(2.41096e-05 0.0002357482 -0.005131285)
(2.52635e-05 0.000262093 -0.008454593)
(2.576195e-05 0.0002950575 -0.0155295)
(2.091261e-05 0.0003622333 -0.01421811)
(0.0002100519 0.003736513 -0.03232754)
(0.0002762129 0.004526109 -0.02658221)
(0.0003463368 0.005353006 -0.03501891)
(0.0004575487 0.006443494 -0.04375443)
(0.0002640966 0.008475887 -0.0470085)
(2.100417e-05 0.0002385294 -0.001320335)
(2.340699e-05 0.0002631286 -0.004603189)
(2.458513e-05 0.0002907621 -0.00752771)
(2.535474e-05 0.0003247918 -0.01370075)
(2.232398e-05 0.0003939307 -0.01240398)
(0.0002265507 0.004011623 -0.02777025)
(0.0002895848 0.004784628 -0.02226446)
(0.0003597965 0.005549876 -0.02852148)
(0.0004589762 0.006572489 -0.03415566)
(0.0006309101 0.008597409 -0.03495921)
(0.002794594 0.09506675 -0.1168318)
(1.969995e-05 0.0001664132 -0.001200458)
(2.178929e-05 0.0001826851 -0.00416371)
(2.28309e-05 0.0002009298 -0.006767116)
(2.351959e-05 0.0002232178 -0.01222706)
(2.140809e-05 0.0002693537 -0.01097058)
(0.0002150923 0.002715741 -0.02428944)
(0.0002696262 0.00319564 -0.0191892)
(0.0003251609 0.003643569 -0.0241408)
(0.0004086625 0.004223627 -0.02820441)
(0.0005547353 0.005416318 -0.02794357)
(0.005838785 0.05920178 -0.0892741)
(0.003471362 0.07096357 -0.01574366)
(1.852351e-05 0.0001205971 -0.0010992)
(2.036867e-05 0.0001319034 -0.003796379)
(2.127833e-05 0.0001443886 -0.006139188)
(2.191208e-05 0.000159467 -0.0110278)
(2.036721e-05 0.0001907199 -0.009824496)
(0.0002033771 0.00190719 -0.02156381)
(0.0002498864 0.002222696 -0.01684279)
(0.000296063 0.002504006 -0.02090736)
(0.0003609559 0.002859153 -0.02400424)
(0.0004864841 0.003597955 -0.02326983)
(0.005211027 0.03863658 -0.07154529)
(0.007039459 0.04640245 -0.009391515)
(0.003813054 0.05625824 -0.03158407)
(1.714085e-05 6.553529e-05 -0.001014299)
(1.873019e-05 7.143462e-05 -0.003490928)
(1.948304e-05 7.79024e-05 -0.005622029)
(1.997737e-05 8.565208e-05 -0.01005128)
(1.871895e-05 0.0001018869 -0.008903454)
(0.0001850011 0.00101196 -0.01941039)
(0.0002240294 0.001169848 -0.01503373)
(0.0002600843 0.001304756 -0.01847704)
(0.0003105068 0.00147167 -0.02095181)
(0.0004058382 0.001823126 -0.01999901)
(0.004345919 0.01919426 -0.06015073)
(0.005871358 0.02258411 -0.007306145)
(0.007284679 0.02702327 -0.02489946)
(0.004066175 0.03184883 -0.01126427)
(1.572472e-05 2.162669e-05 -0.0009427876)
(1.708126e-05 2.369979e-05 -0.00323537)
(1.76706e-05 2.585764e-05 -0.005192689)
(1.802418e-05 2.784574e-05 -0.009247772)
(1.688116e-05 3.338504e-05 -0.008153794)
(0.0001652916 0.0003255786 -0.01767902)
(0.0001972592 0.0003652214 -0.01360197)
(0.000225632 0.0004107262 -0.01658805)
(0.0002635416 0.0004543355 -0.01863298)
(0.0003370203 0.0005617455 -0.01758406)
(0.003497332 0.00580353 -0.05203306)
(0.004677566 0.006649094 -0.006037363)
(0.005884709 0.007916567 -0.02040209)
(0.007501749 0.009385414 -0.008951856)
(0.004127989 0.01094797 -0.005500869)
(8.913802e-05 -0.0005917929 -0.005171194)
(0.0001464052 -0.0004861445 -0.004299711)
(8.440153e-05 -0.0004935617 -0.01739439)
(9.968396e-05 -0.0001754705 -0.003582)
(0.0001428705 -0.0001917269 -0.01400168)
(7.640583e-05 -0.0001766436 -0.02686137)
(7.025939e-05 -9.159567e-05 -0.003035312)
(9.411186e-05 -0.0001034998 -0.01151004)
(0.0001251302 -0.0001161725 -0.02109699)
(6.371733e-05 -0.0001161334 -0.04523329)
(5.247507e-05 -3.274276e-05 -0.002614725)
(6.671445e-05 -3.656519e-05 -0.009697436)
(8.150402e-05 -4.150176e-05 -0.01719728)
(0.0001035307 -4.711489e-05 -0.03495571)
(3.73594e-05 -6.339309e-05 -0.03729165)
(4.09884e-05 -9.490573e-06 -0.002284835)
(4.988737e-05 -1.058654e-05 -0.008336004)
(5.767565e-05 -1.19866e-05 -0.01444325)
(6.668677e-05 -1.390473e-05 -0.02835118)
(5.916042e-05 -1.886434e-05 -0.02852926)
(0.000282212 -0.0001896877 -0.07487378)
(3.30558e-05 8.735358e-06 -0.002021197)
(3.911278e-05 9.714441e-06 -0.007280196)
(4.326997e-05 1.091929e-05 -0.01240168)
(4.734013e-05 1.256883e-05 -0.02376762)
(3.813822e-05 1.659608e-05 -0.02306191)
(0.0004490326 0.0001762387 -0.05690996)
(0.0002748943 0.0002031383 -0.05302269)
(2.747997e-05 2.561865e-05 -0.001806078)
(3.171071e-05 2.839115e-05 -0.006439458)
(3.415521e-05 3.174473e-05 -0.01082563)
(3.579492e-05 3.622611e-05 -0.02039114)
(2.769205e-05 4.66537e-05 -0.01930219)
(0.000294233 0.0004948859 -0.04588937)
(0.000446479 0.0006039705 -0.04015407)
(0.0002501177 0.0006820285 -0.05862518)
(2.34107e-05 5.836295e-05 -0.001626782)
(2.655613e-05 6.468622e-05 -0.0057518)
(2.79609e-05 7.206195e-05 -0.009568531)
(2.862961e-05 8.160721e-05 -0.01778323)
(2.163843e-05 0.0001021123 -0.0165348)
(0.0002202033 0.001068437 -0.03833683)
(0.000300967 0.001309239 -0.03231971)
(0.0004108409 0.001554298 -0.04432154)
(0.0002286466 0.00181879 -0.05906486)
(2.068458e-05 9.330499e-05 -0.001473611)
(2.312712e-05 0.0001030829 -0.005173783)
(2.407404e-05 0.000114398 -0.008532371)
(2.427459e-05 0.0001287554 -0.01568914)
(1.873759e-05 0.000159189 -0.01438527)
(0.0001848655 0.001643378 -0.03275697)
(0.000242195 0.001984849 -0.02694981)