/*--------------------------------*- C++ -*----------------------------------*\
| =========                 |                                                 |
| \\      /  F ield         | OpenFOAM: The Open Source CFD Toolbox           |
|  \\    /   O peration     | Version:  2306                                  |
|   \\  /    A nd           | Website:  www.openfoam.com                      |
|    \\/     M anipulation  |                                                 |
\*---------------------------------------------------------------------------*/
FoamFile
{
    version     2.0;
    format      ascii;
    arch        "LSB;label=32;scalar=64";
    class       volScalarField;
    location    "0.9/fuel";
    object      X.H2O;
}
// * * * * * * * * * * * * * * * * * * * * * * * * * * * * * * * * * * * * * //

dimensions      [0 0 0 0 0 0 0];

internalField   nonuniform List<scalar> 
16000
(
0.06519384
0.06394269
0.08388582
0.06512111
0.0614492
0.08289557
0.06386933
0.1047577
0.08381925
0.06497912
0.0577846
0.08092346
0.06137448
0.103865
0.08282859
0.06372613
0.1250688
0.1046964
0.08368912
0.06477032
0.05320999
0.07802623
0.05770758
0.1020867
0.08085561
0.06122865
0.1242352
0.1038034
0.08269767
0.06351557
0.1444896
0.1250117
0.1045764
0.08349759
0.06449619
0.0484856
0.07440653
0.05312927
0.09947179
0.07795692
0.05755729
0.1225751
0.1020244
0.080723
0.06101427
0.1437029
0.1241779
0.1036828
0.08250497
0.06323913
0.1630281
0.1444361
0.1249
0.1043997
0.08324595
0.06422512
0.04501701
0.07065291
0.04839986
0.09620042
0.0743349
0.05297176
0.1201342
0.09940837
0.07782149
0.0573364
0.1421367
0.1225172
0.1019026
0.08052784
0.06073286
0.1622819
0.1436492
0.1240656
0.1035052
0.08225183
0.06296579
0.1807447
0.1629776
0.1443311
0.1247352
0.1041674
0.08299702
0.06400094
0.04284235
0.06785809
0.0449291
0.09280238
0.07057813
0.04823253
0.1170809
0.09613515
0.0741949
0.05274025
0.1398345
0.1200754
0.09928429
0.07762219
0.05704646
0.1607966
0.1420824
0.1224039
0.101723
0.08027148
0.06045461
0.1800344
0.1622312
0.1435438
0.1239001
0.1032717
0.08200142
0.06273973
0.1977008
0.1806968
0.1628786
0.1441763
0.1245185
0.1039375
0.08279116
0.06377848
0.04161451
0.06607322
0.04275369
0.09026705
0.06778226
0.0447576
0.113909
0.09273459
0.07043193
0.04798651
0.1369552
0.1170205
0.09600746
0.07398889
0.05243638
0.1586139
0.1397794
0.1199602
0.09910153
0.07736041
0.0567598
0.178621
0.1607455
0.1419761
0.1222368
0.101487
0.08001791
0.06022439
0.1970229
0.1799864
0.1621317
0.1433883
0.1236824
0.1030407
0.08179432
0.06251539
0.2139528
0.1976553
0.1806029
0.1627324
0.1439726
0.1243039
0.1037473
0.08258689
0.06355775
0.04106413
0.06504678
0.04152556
0.0886435
0.06599726
0.04258078
0.1115411
0.09019857
0.06763406
0.04450552
0.1339647
0.1138464
0.09260189
0.07021674
0.04766348
0.1558849
0.1368988
0.1169022
0.09581935
0.07371828
0.05213593
0.1765444
0.1585621
0.1396715
0.1197904
0.09886131
0.07710149
0.0565222
0.1956744
0.1785726
0.1606452
0.1418193
0.122017
0.1012535
0.07980811
0.05999582
0.2133046
0.1969773
0.1798921
0.161985
0.1431838
0.1234669
0.1028496
0.08158882
0.06229278
0.2295506
0.2139095
0.1975661
0.1804643
0.1625399
0.1437709
0.1241265
0.1035587
0.0823842
0.06333874
0.04106413
0.06458043
0.04097507
0.08770723
0.06497088
0.04135214
0.1100233
0.08857508
0.06584884
0.04232673
0.1317317
0.111478
0.09006455
0.06741592
0.04417459
0.1530508
0.1339063
0.1137238
0.09240635
0.06993397
0.04734397
0.1739485
0.1558318
0.1367882
0.1167278
0.0955721
0.0734506
0.05188564
0.1936935
0.1764953
0.1584604
0.1395123
0.1195671
0.09862361
0.07688696
0.05628589
0.2120153
0.1956285
0.1784776
0.1604973
0.141613
0.1217994
0.1010603
0.07959985
0.0597689
0.2289297
0.2132612
0.1968878
0.179753
0.1617918
0.1429812
0.1232887
0.1026599
0.08138489
0.0620719
0.2445382
0.2295093
0.2138244
0.1974342
0.1802817
0.1623492
0.1436041
0.1239504
0.1033715
0.0821831
0.06228644
0.04161451
0.06458043
0.04097507
0.08728096
0.06450457
0.04080145
0.109147
0.08763898
0.06482258
0.04109737
0.1302995
0.1099603
0.08844121
0.06563042
0.04199328
0.1509344
0.1316729
0.1113544
0.08986709
0.06712933
0.04384729
0.1712531
0.152996
0.1337918
0.1135429
0.09214923
0.06965418
0.04707542
0.1912176
0.1738983
0.1557276
0.136625
0.1164985
0.09532742
0.07322787
0.05163545
0.2101216
0.1936469
0.1763991
0.1583103
0.1393029
0.119346
0.09842668
0.07667369
0.05605089
0.2276948
0.2119716
0.1955383
0.1783374
0.1603025
0.1414087
0.1216195
0.1008685
0.07939312
0.05954365
0.2439425
0.2288882
0.2131758
0.1967554
0.1795697
0.1616004
0.1428137
0.1231118
0.1024718
0.08118256
0.06101063
0.2589547
0.2444987
0.229428
0.2136987
0.1972604
0.1801008
0.1621915
0.1434386
0.1237758
0.1031858
0.08121612
0.06156963
0.04284235
0.06504678
0.04152556
0.08728096
0.06450457
0.04080145
0.1087477
0.0872128
0.06435636
0.04054642
0.1294722
0.1090843
0.08750544
0.06460439
0.04076304
0.1495766
0.1302409
0.109837
0.088244
0.0653435
0.04166353
0.1692402
0.1508792
0.1315576
0.1111722
0.08960746
0.06684579
0.04357216
0.1886472
0.1712013
0.1528883
0.1336228
0.113305
0.09189473
0.06941955
0.04680458
0.207755
0.19117
0.1737998
0.1555739
0.1364102
0.1162714
0.09512383
0.07300548
0.05138537
0.2258812
0.2100773
0.1935555
0.176257
0.1581128
0.1390956
0.1191629
0.0982309
0.07646167
0.0558172
0.2427579
0.227653
0.2118856
0.195405
0.1781528
0.1601095
0.1412397
0.1214408
0.1006782
0.07918792
0.05846104
0.2583825
0.2439028
0.2288067
0.2130496
0.1965811
0.1793881
0.1614421
0.1426475
0.1229363
0.1022851
0.08020965
0.06028456
0.272835
0.2589168
0.2444209
0.2293078
0.2135329
0.1970882
0.1799511
0.1620351
0.1432743
0.1236025
0.1022922
0.08055841
0.06103006
0.04501701
0.06607322
0.04275369
0.08770723
0.06497088
0.04135214
0.1087477
0.0872128
0.06435636
0.04054642
0.129095
0.1086851
0.08707945
0.06413832
0.04021176
0.1487919
0.1294138
0.1089614
0.08730874
0.06431778
0.04043245
0.1679485
0.1495216
0.130126
0.1096553
0.08798474
0.06505967
0.04138689
0.1867276
0.1691881
0.1507709
0.1313875
0.1109324
0.08935048
0.06660795
0.04329465
0.2052984
0.1885981
0.1710995
0.1527293
0.1334004
0.1130694
0.09168131
0.06918344
0.04653142
0.223615
0.2077097
0.1910765
0.1736543
0.1553716
0.1361975
0.1160825
0.09492058
0.07278344
0.05113542
0.2410184
0.2258389
0.2099902
0.1934205
0.1760698
0.1579171
0.1389237
0.1189808
0.09803628
0.07625092
0.05469239
0.2572447
0.242718
0.2275709
0.2117585
0.1952293
0.1779698
0.1599499
0.1410719
0.1212634
0.1004892
0.07820095
0.05770834
0.2722847
0.2583445
0.2438248
0.2286861
0.2128833
0.1964082
0.179238
0.161285
0.1424826
0.1227622
0.1013869
0.07954563
0.05973548
0.2862106
0.2727986
0.2588422
0.2443058
0.2291493
0.2133685
0.1969457
0.1798027
0.1618799
0.1431114
0.1227683
0.101685
0.0800637
0.06066926
0.0484856
0.06785809
0.0449291
0.0886435
0.06599726
0.04258078
0.109147
0.08763898
0.06482258
0.04109737
0.129095
0.1086851
0.08707945
0.06413832
0.04021176
0.1484341
0.1290367
0.1085625
0.08688303
0.06385193
0.03988086
0.1672018
0.1487372
0.1292993
0.1087803
0.08705017
0.06403427
0.04015552
0.1854956
0.1678966
0.1494138
0.1299565
0.1094162
0.08772815
0.06482199
0.0411084
0.2034638
0.1866783
0.1690858
0.150611
0.1311636
0.110695
0.08913494
0.06636856
0.04301475
0.221263
0.2052517
0.1885015
0.1709491
0.1525198
0.13318
0.1128719
0.09146656
0.06894583
0.04625592
0.2388452
0.2235719
0.2076207
0.1909384
0.1734627
0.1551711
0.1360206
0.1158939
0.09471765
0.07256177
0.04992685
0.2555741
0.240978
0.2257558
0.2098615
0.1932426
0.1758844
0.157755
0.1387529
0.1187998
0.09784282
0.07523593
0.05386794
0.2711907
0.2572065
0.2426395
0.2274495
0.211591
0.1950552
0.1778184
0.1597914
0.1409053
0.1210874
0.09957981
0.07751844
0.05712872
0.2856809
0.2722483
0.2582697
0.2437094
0.2285271
0.2127184
0.1962653
0.179089
0.1611292
0.1423189
0.1219242
0.1007745
0.07904429
0.05936671
0.2991098
0.2861757
0.2727271
0.2587319
0.244154
0.2289922
0.2132326
0.1968044
0.1796554
0.1617259
0.1423269
0.1222019
0.1012284
0.07973309
0.06048849
0.05320999
0.07065291
0.04839986
0.09026705
0.06778226
0.0447576
0.1100233
0.08857508
0.06584884
0.04232673
0.1294722
0.1090843
0.08750544
0.06460439
0.04076304
0.1484341
0.1290367
0.1085625
0.08688303
0.06385193
0.03988086
0.1668612
0.1483794
0.1289225
0.1083817
0.08662485
0.06356864
0.03960386
0.1847833
0.1671501
0.1486297
0.1291305
0.108542
0.08679428
0.06379718
0.03987716
0.2022863
0.1854465
0.1677948
0.1492545
0.1297334
0.1091794
0.08751329
0.06458317
0.04082807
0.2195064
0.2034169
0.1865813
0.1689347
0.1504004
0.1309418
0.1104958
0.088918
0.06612762
0.04273246
0.2365897
0.2212184
0.2051598
0.1883588
0.170751
0.1523123
0.1329952
0.112673
0.09125047
0.0687067
0.0449127
0.2534872
0.2388039
0.2234869
0.2074892
0.1907564
0.1732729
0.1550043
0.1358439
0.1157056
0.09451507
0.07148982
0.04890998
0.2695845
0.2555354
0.2408986
0.2256329
0.2096919
0.1930662
0.1757307
0.1575938
0.1385831
0.1186199
0.09691051
0.07450231
0.05319314
0.2846279
0.271154
0.2571312
0.2425233
0.2272895
0.211425
0.1949112
0.1776681
0.1596341
0.14074
0.1202398
0.0989518
0.07699537
0.05673245
0.2985995
0.2856459
0.2721765
0.258159
0.2435572
0.2283695
0.2125821
0.1961235
0.1789411
0.1609746
0.141531
0.1213531
0.1003123
0.07870805
0.05918135
0.3115585
0.2990763
0.2861069
0.2726212
0.2585864
0.2440035
0.2288622
0.2130978
0.1966642
0.1795093
0.1609842
0.1417944
0.121776
0.1009233
0.07956752
0.0577846
0.07440653
0.05312927
0.09280238
0.07057813
0.04823253
0.1115411
0.09019857
0.06763406
0.04450552
0.1302995
0.1099603
0.08844121
0.06563042
0.04199328
0.1487919
0.1294138
0.1089614
0.08730874
0.06431778
0.04043245
0.1668612
0.1483794
0.1289225
0.1083817
0.08662485
0.06356864
0.03960386
0.1844584
0.1668097
0.1482723
0.128754
0.1081439
0.08636935
0.06333187
0.03932563
0.2016053
0.1847344
0.1670487
0.1484711
0.1289083
0.1083061
0.08658028
0.06355925
0.03959737
0.2183789
0.2022396
0.18535
0.1676443
0.1490448
0.1295124
0.1089812
0.08729739
0.0643432
0.04054589
0.2349053
0.2194617
0.2033247
0.1864379
0.1687356
0.1501917
0.1307558
0.1102954
0.08869966
0.06588511
0.04135662
0.2513214
0.2365471
0.2211308
0.205024
0.1881707
0.1705547
0.1521383
0.1328092
0.1124729
0.09103302
0.06754153
0.04350641
0.2675781
0.2534477
0.2387227
0.2233614
0.2073158
0.190576
0.1731149
0.1548377
0.1356674
0.1155176
0.09353474
0.07061598
0.04793481
0.283082
0.2695474
0.2554593
0.240781
0.2254709
0.2095238
0.1929201
0.1755779
0.1574336
0.1384143
0.1177523
0.09623813
0.07391001
0.05270075
0.2975851
0.2845927
0.2710818
0.2570199
0.2423701
0.2271308
0.2112876
0.1947682
0.1775189
0.159478
0.1399436
0.1196549
0.09847081
0.07663935
0.0565305
0.3110664
0.2985659
0.285577
0.2720703
0.2580131
0.2434062
0.2282391
0.2124468
0.1959828
0.1787944
0.1602298
0.1409944
0.1209222
0.1000024
0.07853922
0.32358
0.3115262
0.2990102
0.2860051
0.2724814
0.258442
0.2438791
0.2287333
0.212964
0.1965252
0.1788053
0.160481
0.1413941
0.1214914
0.1007706
0.0614492
0.07802623
0.05770758
0.09620042
0.0743349
0.05297176
0.113909
0.09273459
0.07043193
0.04798651
0.1317317
0.111478
0.09006455
0.06741592
0.04417459
0.1495766
0.1302409
0.109837
0.088244
0.0653435
0.04166353
0.1672018
0.1487372
0.1292993
0.1087803
0.08705017
0.06403427
0.04015552
0.1844584
0.1668097
0.1482723
0.128754
0.1081439
0.08636935
0.06333187
0.03932563
0.2012947
0.1844096
0.1667085
0.148114
0.1285323
0.1079084
0.0861558
0.06309442
0.03904616
0.2177269
0.2015589
0.1846383
0.166899
0.1482623
0.1286882
0.1081088
0.08636552
0.0633205
0.03931615
0.2338241
0.2183344
0.2021478
0.1852073
0.1674461
0.148837
0.1293274
0.108782
0.08708046
0.06410208
0.03917341
0.2497042
0.2348626
0.2193738
0.2031882
0.1862489
0.1685382
0.1500167
0.1305685
0.1100936
0.08847991
0.06470364
0.03993597
0.2654961
0.2512807
0.2364634
0.2210012
0.2048449
0.1879843
0.17039
0.1519631
0.132622
0.1122716
0.08997256
0.06637984
0.04177457
0.2811511
0.2675402
0.2533699
0.2386026
0.2231958
0.2071438
0.1904258
0.1729571
0.1546714
0.1354913
0.1146072
0.09273832
0.06980139
0.04707488
0.2960959
0.2830464
0.2694744
0.2553467
0.240626
0.2253103
0.2093845
0.1927749
0.1754261
0.1572743
0.1376001
0.1171271
0.09569601
0.07348341
0.05243443
0.3100884
0.2975513
0.2845234
0.270975
0.256873
0.2422181
0.2269995
0.2111513
0.1946263
0.1773709
0.1587257
0.1393943
0.1192069
0.0981436
0.0764585
0.3231052
0.3110341
0.2984996
0.2854749
0.2719301
0.2578683
0.2432814
0.2281098
0.2123125
0.1958432
0.1780877
0.1597228
0.1405895
0.1206333
0.09984678
0.335196
0.3235489
0.3114625
0.2989122
0.2858708
0.2723427
0.2583226
0.2437556
0.2286054
0.2128313
0.195855
0.1783278
0.1601027
0.1411266
0.1213489
0.06394269
0.08092346
0.06137448
0.09947179
0.07795692
0.05755729
0.1170809
0.09613515
0.0741949
0.05274025
0.1339647
0.1138464
0.09260189
0.07021674
0.04766348
0.1509344
0.1316729
0.1113544
0.08986709
0.06712933
0.04384729
0.1679485
0.1495216
0.130126
0.1096553
0.08798474
0.06505967
0.04138689
0.1847833
0.1671501
0.1486297
0.1291305
0.108542
0.08679428
0.06379718
0.03987716
0.2012947
0.1844096
0.1667085
0.148114
0.1285323
0.1079084
0.0861558
0.06309442
0.03904616
0.2174294
0.2012483
0.1843137
0.1665591
0.1479057
0.1283126
0.1077116
0.08594163
0.06285629
0.03876547
0.2331987
0.2176826
0.2014675
0.1844963
0.1667017
0.1480554
0.1285041
0.1079108
0.08615001
0.06308092
0.03795038
0.2486659
0.2337816
0.2182469
0.202012
0.1850192
0.1672497
0.1486629
0.1291414
0.1085818
0.08686249
0.0629294
0.03781984
0.2639415
0.2496633
0.2347786
0.2192436
0.2030084
0.1860616
0.1683726
0.1498404
0.1303799
0.1098905
0.0874083
0.06353795
0.03825108
0.2791476
0.2654571
0.2512005
0.2363394
0.2208302
0.2046672
0.1878278
0.1702242
0.1517868
0.1324336
0.1112889
0.08891908
0.06499891
0.03958793
0.294236
0.2811148
0.2674657
0.2532549
0.2384442
0.2230316
0.2070008
0.1902759
0.1727996
0.1545053
0.134638
0.113868
0.09199762
0.06910111
0.04648624
0.3086527
0.2960617
0.2829763
0.2693663
0.2551981
0.2404722
0.2251772
0.209246
0.1926305
0.1752751
0.1565057
0.1370135
0.116623
0.09530605
0.07325503
0.3221616
0.3100558
0.2974846
0.2844207
0.2708339
0.2567272
0.2420924
0.2268691
0.2110159
0.1944855
0.1766573
0.158207
0.1389737
0.1189023
0.09797745
0.3347376
0.323074
0.3109702
0.2984014
0.2853402
0.2717911
0.2577485
0.2431575
0.2279814
0.2121793
0.1951705
0.1776067
0.1593403
0.140318
0.1204883
0.3464263
0.335166
0.3234875
0.3113682
0.2987829
0.2857374
0.2722281
0.2582041
0.243633
0.2284785
0.2121917
0.1954005
0.1779689
0.1598499
0.1409927
0.06519384
0.08289557
0.06386933
0.1020867
0.08085561
0.06122865
0.1201342
0.09940837
0.07782149
0.0573364
0.1369552
0.1170205
0.09600746
0.07398889
0.05243638
0.1530508
0.1339063
0.1137238
0.09240635
0.06993397
0.04734397
0.1692402
0.1508792
0.1315576
0.1111722
0.08960746
0.06684579
0.04357216
0.1854956
0.1678966
0.1494138
0.1299565
0.1094162
0.08772815
0.06482199
0.0411084
0.2016053
0.1847344
0.1670487
0.1484711
0.1289083
0.1083061
0.08658028
0.06355925
0.03959737
0.2174294
0.2012483
0.1843137
0.1665591
0.1479057
0.1283126
0.1077116
0.08594163
0.06285629
0.03876547
0.2329134
0.2173852
0.2011572
0.184172
0.1663622
0.1476993
0.1281291
0.1075142
0.08572684
0.06261748
0.0374032
0.2480654
0.2331564
0.2175955
0.2013324
0.1843091
0.1665061
0.1478824
0.1283193
0.1077121
0.08593375
0.06191716
0.03664683
0.2629434
0.2486253
0.233698
0.2181174
0.2018331
0.1848328
0.1670851
0.148488
0.1289545
0.1083806
0.08580134
0.0618197
0.03628227
0.2776516
0.2639023
0.2495828
0.2346542
0.219072
0.20283
0.1859044
0.1682059
0.149663
0.1301901
0.1088993
0.08635331
0.06219955
0.03628601
0.2923063
0.2791102
0.2653802
0.2510818
0.2361759
0.2206606
0.2045182
0.1876703
0.1700573
0.1516093
0.1315136
0.1103123
0.08766935
0.06330016
0.03670066
0.3068597
0.2942011
0.2810432
0.2673553
0.2531031
0.2382871
0.2228949
0.2068579
0.1901262
0.1726423
0.1537005
0.1339451
0.1131805
0.09136221
0.06863194
0.3207765
0.3086198
0.2959943
0.2828724
0.2692236
0.2550506
0.2403448
0.2250448
0.2091083
0.1924869
0.1745464
0.1559521
0.1365406
0.1162605
0.09509745
0.3338265
0.3221302
0.3099917
0.2973858
0.2842851
0.270694
0.2566067
0.2419676
0.2267398
0.2108815
0.1938064
0.1761654
0.1578098
0.1386876
0.1187476
0.3459835
0.3347075
0.3230125
0.3108757
0.2982717
0.2852064
0.2716761
0.2576297
0.2430346
0.2278541
0.2115374
0.1947128
0.1772438
0.1590838
0.1401818
0.3572894
0.3463974
0.3351069
0.3233966
0.3112437
0.2986546
0.2856272
0.2721143
0.2580866
0.2435115
0.2278669
0.2117581
0.1950589
0.1777291
0.1597234
0.08388582
0.06512111
0.103865
0.08282859
0.06372613
0.1225751
0.1020244
0.080723
0.06101427
0.1398345
0.1200754
0.09928429
0.07762219
0.05704646
0.1558849
0.1368988
0.1169022
0.09581935
0.07371828
0.05213593
0.1712531
0.152996
0.1337918
0.1135429
0.09214923
0.06965418
0.04707542
0.1867276
0.1691881
0.1507709
0.1313875
0.1109324
0.08935048
0.06660795
0.04329465
0.2022863
0.1854465
0.1677948
0.1492545
0.1297334
0.1091794
0.08751329
0.06458317
0.04082807
0.2177269
0.2015589
0.1846383
0.166899
0.1482623
0.1286882
0.1081088
0.08636552
0.0633205
0.03931615
0.2329134
0.2173852
0.2011572
0.184172
0.1663622
0.1476993
0.1281291
0.1075142
0.08572684
0.06261748
0.0374032
0.2477914
0.2328712
0.2172983
0.2010224
0.1839853
0.1661672
0.1475267
0.1279449
0.1073163
0.08551143
0.06145816
0.03612269
0.2623661
0.248025
0.2330732
0.2174666
0.2011543
0.1841236
0.1663426
0.1477087
0.1281339
0.1075127
0.08488222
0.06084834
0.03520524
0.2766912
0.2629045
0.2485453
0.2335742
0.2179467
0.2016556
0.1846767
0.1669198
0.1483122
0.1287666
0.1074005
0.08479836
0.06059809
0.03456948
0.2908655
0.2776141
0.2638252
0.2494637
0.23449
0.2189017
0.2026803
0.1857462
0.1680381
0.1494843
0.1292633
0.1079227
0.085143
0.06067663
0.03403536
0.3049996
0.2922704
0.2790364
0.2652664
0.2509252
0.2360137
0.2205183
0.2043682
0.1875118
0.1698893
0.1507424
0.1305986
0.1091529
0.08613446
0.06109527
0.03192668
0.3190467
0.3068261
0.2941323
0.2809372
0.2672096
0.2529525
0.2381563
0.2227584
0.2067152
0.1899767
0.1718799
0.1530471
0.1333005
0.1125906
0.09093715
0.3324893
0.3207448
0.3085549
0.2958944
0.2827353
0.2690821
0.2549285
0.2402181
0.2249133
0.2089714
0.1917938
0.1740218
0.1555058
0.1362004
0.1160666
0.3451034
0.3337963
0.3220684
0.3098965
0.2972554
0.2841506
0.2705782
0.256487
0.2418437
0.2266113
0.2102337
0.1933385
0.1757887
0.1575397
0.1385424
0.3568614
0.3459545
0.3346482
0.3229214
0.3107508
0.298143
0.2850959
0.2715619
0.2575118
0.2429126
0.2272403
0.2111008
0.1943675
0.1770006
0.1589551
0.3678022
0.3572615
0.3463404
0.3350192
0.3232766
0.31112
0.2985485
0.2855178
0.2720014
0.25797
0.2429256
0.2274523
0.2114321
0.1948307
0.177609
0.1047577
0.08381925
0.06497912
0.1242352
0.1038034
0.08269767
0.06351557
0.1421367
0.1225172
0.1019026
0.08052784
0.06073286
0.1586139
0.1397794
0.1199602
0.09910153
0.07736041
0.0567598
0.1739485
0.1558318
0.1367882
0.1167278
0.0955721
0.0734506
0.05188564
0.1886472
0.1712013
0.1528883
0.1336228
0.113305
0.09189473
0.06941955
0.04680458
0.2034638
0.1866783
0.1690858
0.150611
0.1311636
0.110695
0.08913494
0.06636856
0.04301475
0.2183789
0.2022396
0.18535
0.1676443
0.1490448
0.1295124
0.1089812
0.08729739
0.0643432
0.04054589
0.2331987
0.2176826
0.2014675
0.1844963
0.1667017
0.1480554
0.1285041
0.1079108
0.08615001
0.06308092
0.03795038
0.2477914
0.2328712
0.2172983
0.2010224
0.1839853
0.1661672
0.1475267
0.1279449
0.1073163
0.08551143
0.06145816
0.03612269
0.2621027
0.2477511
0.2327882
0.2171698
0.2008447
0.1838003
0.1660041
0.1473536
0.1277602
0.1071177
0.08446464
0.0604081
0.03472363
0.2761357
0.2623274
0.2479454
0.2329501
0.2172967
0.2009777
0.1839684
0.1661784
0.1475344
0.1279478
0.1065423
0.08391704
0.05970211
0.03363462
0.2899404
0.2766539
0.2628278
0.2484268
0.233411
0.2177774
0.201507
0.1845197
0.1667536
0.1481355
0.127851
0.1064732
0.08369425
0.05927169
0.03269959
0.3036107
0.2908294
0.27754
0.263711
0.2493065
0.2343272
0.2187589
0.2025296
0.1855868
0.1678691
0.1486117
0.1283492
0.1068011
0.08376649
0.05896567
0.03107892
0.3172523
0.304965
0.2921994
0.2789271
0.2651161
0.2507697
0.2358776
0.2203751
0.2042172
0.1873523
0.1690685
0.1498795
0.1295114
0.1077282
0.08414423
0.05746759
0.02934386
0.3308195
0.3190144
0.3067599
0.2940303
0.2807972
0.2670651
0.2528271
0.2380257
0.2226222
0.2065727
0.1892519
0.1712608
0.1524388
0.1327472
0.1121959
0.3438116
0.3324588
0.3206822
0.3084587
0.2957625
0.2825993
0.2689648
0.254807
0.2400921
0.2247825
0.2083105
0.1912949
0.1735987
0.1551847
0.1360184
0.3560107
0.3450742
0.3337367
0.3219767
0.3097709
0.2971259
0.2840393
0.2704633
0.2563682
0.2417207
0.2259921
0.2097874
0.1929802
0.1755325
0.1574025
0.3673882
0.3568334
0.3458973
0.3345603
0.322801
0.3106268
0.2980366
0.2849861
0.2714487
0.2573948
0.2423247
0.2268228
0.2107713
0.194136
0.1768785
0.3779805
0.3677753
0.3572064
0.3462557
0.3349034
0.3231574
0.3110178
0.2984432
0.2854092
0.2718894
0.257408
0.2425285
0.2271406
0.2112144
0.1947164
0.1250688
0.1046964
0.08368912
0.06477033
0.1437029
0.1241779
0.1036828
0.08250497
0.06323913
0.1607966
0.1420824
0.1224039
0.101723
0.08027148
0.06045461
0.1765444
0.1585621
0.1396715
0.1197904
0.09886131
0.07710149
0.0565222
0.1912176
0.1738983
0.1557276
0.136625
0.1164985
0.09532742
0.07322787
0.05163545
0.2052984
0.1885981
0.1710995
0.1527293
0.1334004
0.1130694
0.09168131
0.06918344
0.04653142
0.2195064
0.2034169
0.1865813
0.1689347
0.1504004
0.1309418
0.1104958
0.088918
0.06612762
0.04273246
0.2338241
0.2183344
0.2021478
0.1852073
0.1674461
0.148837
0.1293274
0.108782
0.08708046
0.06410208
0.03917341
0.2480654
0.2331564
0.2175955
0.2013324
0.1843091
0.1665061
0.1478824
0.1283193
0.1077121
0.08593375
0.06191716
0.03664683
0.2621027
0.2477511
0.2327882
0.2171698
0.2008447
0.1838003
0.1660041
0.1473536
0.1277602
0.1071177
0.08446464
0.0604081
0.03472363
0.2758822
0.262064
0.2476716
0.2326654
0.2170003
0.2006686
0.1836455
0.1658405
0.14718
0.127575
0.1061521
0.08351683
0.05929512
0.03321328
0.2894054
0.2760985
0.262251
0.2478275
0.2327877
0.2171282
0.20083
0.1838126
0.1660136
0.1473594
0.1270417
0.1056507
0.08288144
0.05848569
0.0319486
0.302719
0.2899045
0.2765802
0.2627142
0.2482705
0.2332491
0.2176355
0.2013575
0.184362
0.1665865
0.1472739
0.1269838
0.1054511
0.08249521
0.057855
0.03033304
0.3159125
0.303576
0.2907582
0.2774304
0.2635602
0.2491505
0.2341906
0.218615
0.2023779
0.1854264
0.1670434
0.1477503
0.1272983
0.1055244
0.08222021
0.05675042
0.02898396
0.3290873
0.317219
0.3048967
0.2920943
0.2787827
0.2649669
0.2506393
0.2357405
0.2202309
0.2040652
0.1865722
0.168251
0.1488535
0.1281745
0.1058804
0.08086678
0.05534702
0.02745195
0.3421986
0.3307883
0.3189506
0.3066618
0.2938957
0.2806583
0.2669448
0.2527019
0.2378953
0.2224861
0.2058818
0.1886633
0.1706843
0.1519166
0.1323768
0.3547621
0.3437821
0.3323985
0.3205896
0.3083318
0.2956316
0.2824866
0.2688482
0.2546862
0.2399669
0.2241508
0.2078348
0.1908925
0.1732943
0.1550129
0.3665655
0.3559825
0.3450167
0.3336483
0.3218556
0.3096462
0.2970188
0.2839288
0.2703492
0.2562502
0.2411277
0.2255654
0.2094456
0.1927364
0.1754025
0.3775799
0.3673612
0.3567781
0.3458124
0.3344442
0.3226815
0.3105243
0.297931
0.2848773
0.2713364
0.2568308
0.2419249
0.2265079
0.2105505
0.1940198
0.387839
0.3779544
0.367722
0.3571247
0.3461439
0.3347883
0.3230588
0.3109163
0.2983387
0.2853015
0.2713495
0.2570271
0.24223
0.2269324
0.2111053
0.1444896
0.1250117
0.1045764
0.08349759
0.06449619
0.1622819
0.1436492
0.1240656
0.1035052
0.08225183
0.06296579
0.178621
0.1607455
0.1419761
0.1222368
0.101487
0.08001791
0.06022439
0.1936935
0.1764953
0.1584604
0.1395123
0.1195671
0.09862361
0.07688696
0.05628589
0.207755
0.19117
0.1737998
0.1555739
0.1364102
0.1162714
0.09512383
0.07300548
0.05138537
0.221263
0.2052517
0.1885015
0.1709491
0.1525198
0.13318
0.1128719
0.09146656
0.06894583
0.04625592
0.2349053
0.2194617
0.2033247
0.1864379
0.1687356
0.1501917
0.1307558
0.1102954
0.08869966
0.06588511
0.04135662
0.2486659
0.2337816
0.2182469
0.202012
0.1850192
0.1672497
0.1486629
0.1291414
0.1085818
0.08686249
0.0629294
0.03781984
0.2623661
0.248025
0.2330732
0.2174666
0.2011543
0.1841236
0.1663426
0.1477087
0.1281339
0.1075127
0.08488222
0.06084834
0.03520524
0.2758822
0.262064
0.2476716
0.2326654
0.2170003
0.2006686
0.1836455
0.1658405
0.14718
0.127575
0.1061521
0.08351683
0.05929512
0.03321328
0.2891612
0.2758451
0.2619879
0.2475541
0.2325034
0.2168322
0.2005213
0.1834903
0.1656764
0.1470059
0.1266736
0.1052769
0.08251148
0.05812504
0.03160182
0.3022032
0.2893696
0.2760253
0.262138
0.247672
0.2326266
0.2169873
0.2006817
0.1836562
0.1658482
0.1465071
0.1262085
0.1046928
0.08178172
0.05720991
0.02983091
0.3150524
0.3026845
0.2898338
0.2764712
0.2625642
0.2481154
0.2331134
0.2174929
0.2012074
0.1842034
0.1657716
0.1464573
0.1260269
0.1043399
0.08121391
0.05609551
0.02856549
0.327794
0.3158791
0.3035075
0.2906528
0.2772855
0.2634105
0.2490196
0.234053
0.2184702
0.2022251
0.1846422
0.1662278
0.1467591
0.126101
0.1040893
0.08021634
0.05500669
0.02727277
0.3405254
0.3290552
0.3171533
0.3047956
0.2919555
0.2786394
0.2648418
0.250508
0.2356026
0.2200857
0.2033219
0.1857951
0.1672783
0.1475911
0.1264399
0.1028343
0.07894869
0.05366293
0.02601165
0.3532031
0.3421686
0.3307268
0.3188561
0.3065322
0.2937621
0.2805427
0.2668246
0.2525769
0.237765
0.221826
0.2053207
0.1881151
0.1701892
0.1515668
0.3653581
0.3547337
0.343724
0.3323092
0.3204672
0.3082057
0.2955232
0.2823745
0.2687323
0.2545662
0.2393622
0.2236962
0.2074511
0.190603
0.1731314
0.3767839
0.3665383
0.355927
0.3449314
0.3335315
0.3217354
0.309543
0.2969125
0.2838191
0.270236
0.2556814
0.2407192
0.2252388
0.2092132
0.1926127
0.3874512
0.3775538
0.3673078
0.3566962
0.3457004
0.3343289
0.3225827
0.3104226
0.2978262
0.2847692
0.2707947
0.2564474
0.2416232
0.2262967
0.2104396
0.3973914
0.3878138
0.377903
0.3676431
0.3570167
0.3460329
0.3346932
0.322961
0.3108157
0.298235
0.2847824
0.2709837
0.2567407
0.2420306
0.2268282
0.1630281
0.1444361
0.1249
0.1043997
0.08324595
0.06422512
0.1800344
0.1622312
0.1435438
0.1239001
0.1032717
0.08200142
0.06273973
0.1956744
0.1785726
0.1606452
0.1418193
0.122017
0.1012535
0.07980811
0.05999582
0.2101216
0.1936469
0.1763991
0.1583103
0.1393029
0.119346
0.09842668
0.07667369
0.05605089
0.223615
0.2077097
0.1910765
0.1736543
0.1553716
0.1361975
0.1160825
0.09492058
0.07278344
0.05113542
0.2365897
0.2212184
0.2051598
0.1883588
0.170751
0.1523123
0.1329952
0.112673
0.09125047
0.0687067
0.0449127
0.2497042
0.2348626
0.2193738
0.2031882
0.1862489
0.1685382
0.1500167
0.1305685
0.1100936
0.08847991
0.06470364
0.03993597
0.2629434
0.2486253
0.233698
0.2181174
0.2018331
0.1848328
0.1670851
0.148488
0.1289545
0.1083806
0.08580134
0.0618197
0.03628227
0.2761357
0.2623274
0.2479454
0.2329501
0.2172967
0.2009777
0.1839684
0.1661784
0.1475344
0.1279478
0.1065423
0.08391704
0.05970211
0.03363462
0.2891612
0.2758451
0.2619879
0.2475541
0.2325034
0.2168322
0.2005213
0.1834903
0.1656764
0.1470059
0.1266736
0.1052769
0.08251148
0.05812504
0.03160182
0.3019679
0.2891256
0.275772
0.2618752
0.2473989
0.2323427
0.2166917
0.2003736
0.1833346
0.1655118
0.1461581
0.1258559
0.1043473
0.08145363
0.05690595
0.02958229
0.3145548
0.3021689
0.2892993
0.2759168
0.2619889
0.2475176
0.2324918
0.2168458
0.2005328
0.1834993
0.1650423
0.1457228
0.1253121
0.1036743
0.08062729
0.05564038
0.02824164
0.3269637
0.3150191
0.3026165
0.289729
0.2763272
0.2624154
0.2479854
0.2329771
0.2173496
0.2010564
0.1834297
0.1649987
0.1455554
0.1249857
0.1031515
0.07962052
0.05460277
0.02703263
0.3392763
0.3277618
0.3158132
0.3034061
0.2905135
0.2771418
0.2632849
0.2488878
0.2339144
0.2183243
0.2014781
0.183867
0.1652885
0.1456291
0.1247545
0.102228
0.07863546
0.05346042
0.02590633
0.3515861
0.3404945
0.3289918
0.3170558
0.3046619
0.2918176
0.2785191
0.2647158
0.2503758
0.2354637
0.2193758
0.2025811
0.1848698
0.166081
0.1459525
0.1235782
0.101054
0.07741922
0.05228947
0.02490482
0.3638506
0.3531741
0.3421093
0.3306357
0.3187312
0.3064035
0.2936509
0.2804272
0.2667046
0.2524521
0.2371332
0.2212899
0.204798
0.1876441
0.1698575
0.3756157
0.3653306
0.3546776
0.3436378
0.3321911
0.3203457
0.3081013
0.2954153
0.2822631
0.268617
0.2539863
0.238927
0.2233295
0.207175
0.190448
0.3866807
0.3767576
0.3664847
0.3558446
0.3448187
0.3334155
0.321636
0.3094406
0.2968069
0.2837102
0.2696897
0.2552897
0.2404064
0.2250166
0.2090951
0.3970159
0.387426
0.3775022
0.3672287
0.356588
0.345589
0.3342335
0.3224846
0.3103216
0.2977222
0.2842484
0.2704264
0.2561581
0.241421
0.2261908
0.4066506
0.3973671
0.387764
0.3778266
0.3675387
0.3569094
0.3459411
0.3345989
0.322864
0.3107159
0.2977353
0.2844306
0.2707087
0.2565495
0.2419308
0.1807447
0.1629776
0.1443311
0.1247352
0.1041674
0.08299702
0.06400094
0.1970229
0.1799864
0.1621317
0.1433883
0.1236824
0.1030407
0.08179432
0.06251539
0.2120153
0.1956285
0.1784776
0.1604973
0.141613
0.1217994
0.1010603
0.07959985
0.0597689
0.2258812
0.2100773
0.1935555
0.176257
0.1581128
0.1390956
0.1191629
0.0982309
0.07646167
0.0558172
0.2388452
0.2235719
0.2076207
0.1909384
0.1734627
0.1551711
0.1360206
0.1158939
0.09471765
0.07256177
0.04992685
0.2513214
0.2365471
0.2211308
0.205024
0.1881707
0.1705547
0.1521383
0.1328092
0.1124729
0.09103302
0.06754153
0.04350641
0.2639415
0.2496633
0.2347786
0.2192436
0.2030084
0.1860616
0.1683726
0.1498404
0.1303799
0.1098905
0.0874083
0.06353795
0.03825108
0.2766912
0.2629045
0.2485453
0.2335742
0.2179467
0.2016556
0.1846767
0.1669198
0.1483122
0.1287666
0.1074005
0.08479836
0.06059809
0.03456948
0.2894054
0.2760985
0.262251
0.2478275
0.2327877
0.2171282
0.20083
0.1838126
0.1660136
0.1473594
0.1270417
0.1056507
0.08288144
0.05848569
0.0319486
0.3019679
0.2891256
0.275772
0.2618752
0.2473989
0.2323427
0.2166917
0.2003736
0.1833346
0.1655118
0.1461581
0.1258559
0.1043473
0.08145363
0.05690595
0.02958229
0.3143277
0.3019336
0.2890554
0.2756638
0.2617264
0.247245
0.2322083
0.2165508
0.2002254
0.1831784
0.1647103
0.1453886
0.1249863
0.1033679
0.08035021
0.05541049
0.02807039
0.3264834
0.3145218
0.3021012
0.289195
0.2757735
0.2618408
0.2473885
0.2323565
0.2167037
0.2003834
0.1827343
0.1643002
0.1448783
0.1243582
0.102604
0.07920485
0.05428325
0.02682887
0.3384743
0.3269317
0.3149536
0.3025156
0.2895905
0.2761843
0.2622908
0.2478548
0.23284
0.2172055
0.2003196