/*--------------------------------*- C++ -*----------------------------------*\
| =========                 |                                                 |
| \\      /  F ield         | OpenFOAM: The Open Source CFD Toolbox           |
|  \\    /   O peration     | Version:  2306                                  |
|   \\  /    A nd           | Website:  www.openfoam.com                      |
|    \\/     M anipulation  |                                                 |
\*---------------------------------------------------------------------------*/
FoamFile
{
    version     2.0;
    format      ascii;
    arch        "LSB;label=32;scalar=64";
    class       volScalarField;
    location    "0.9/fuel";
    object      X.H2;
}
// * * * * * * * * * * * * * * * * * * * * * * * * * * * * * * * * * * * * * //

dimensions      [0 0 0 0 0 0 0];

internalField   nonuniform List<scalar> 
16000
(
0.9348062
0.9360573
0.9161142
0.9348789
0.9385508
0.9171044
0.9361307
0.8952423
0.9161807
0.9350209
0.9422154
0.9190765
0.9386255
0.896135
0.9171714
0.9362739
0.8749312
0.8953036
0.9163109
0.9352297
0.94679
0.9219738
0.9422924
0.8979133
0.9191444
0.9387713
0.8757648
0.8961966
0.9173023
0.9364844
0.8555104
0.8749883
0.8954236
0.9165024
0.9355038
0.9515144
0.9255935
0.9468707
0.9005282
0.9220431
0.9424427
0.8774249
0.8979756
0.919277
0.9389857
0.8562971
0.8758221
0.8963172
0.917495
0.9367609
0.8369719
0.8555639
0.8751
0.8956003
0.9167541
0.9357749
0.954983
0.9293471
0.9516001
0.9037996
0.9256651
0.9470282
0.8798658
0.9005916
0.9221785
0.9426636
0.8578633
0.8774828
0.8980974
0.9194722
0.9392671
0.8377181
0.8563508
0.8759344
0.8964948
0.9177482
0.9370342
0.8192553
0.8370224
0.8556689
0.8752648
0.8958326
0.917003
0.9359991
0.9571576
0.9321419
0.9550709
0.9071976
0.9294219
0.9517675
0.8829191
0.9038648
0.9258051
0.9472597
0.8601655
0.8799246
0.9007157
0.9223778
0.9429535
0.8392034
0.8579176
0.8775961
0.898277
0.9197285
0.9395454
0.8199656
0.8377688
0.8564562
0.8760999
0.8967283
0.9179986
0.9372603
0.8022992
0.8193032
0.8371214
0.8558237
0.8754815
0.8960625
0.9172088
0.9362215
0.9583855
0.9339268
0.9572463
0.909733
0.9322177
0.9552424
0.886091
0.9072654
0.9295681
0.9520135
0.8630448
0.8829795
0.9039925
0.9260111
0.9475636
0.8413861
0.8602206
0.8800398
0.9008985
0.9226396
0.9432402
0.821379
0.8392545
0.8580239
0.8777632
0.898513
0.9199821
0.9397756
0.8029771
0.8200136
0.8378683
0.8566117
0.8763176
0.8969593
0.9182057
0.9374846
0.7860472
0.8023447
0.8193971
0.8372676
0.8560274
0.8756961
0.8962527
0.9174131
0.9364422
0.9589359
0.9349532
0.9584744
0.9113565
0.9340027
0.9574192
0.8884589
0.9098014
0.9323659
0.9554945
0.8660353
0.8861536
0.9073981
0.9297833
0.9523365
0.8441151
0.8631012
0.8830978
0.9041806
0.9262817
0.9478641
0.8234556
0.8414379
0.8603285
0.8802096
0.9011387
0.9228985
0.9434778
0.8043256
0.8214274
0.8393548
0.8581807
0.877983
0.8987465
0.9201919
0.9400042
0.7866954
0.8030227
0.8201079
0.838015
0.8568162
0.8765331
0.8971504
0.9184112
0.9377072
0.7704494
0.7860905
0.8024339
0.8195357
0.8374601
0.8562291
0.8758735
0.8964413
0.9176158
0.9366613
0.9589359
0.9354196
0.9590249
0.9122928
0.9350291
0.9586479
0.8899767
0.9114249
0.9341512
0.9576733
0.8682683
0.888522
0.9099355
0.9325841
0.9558254
0.8469492
0.8660937
0.8862762
0.9075937
0.930066
0.952656
0.8260515
0.8441682
0.8632118
0.8832722
0.9044279
0.9265494
0.9481144
0.8063065
0.8235047
0.8415396
0.8604877
0.8804329
0.9013764
0.923113
0.9437141
0.7879847
0.8043715
0.8215224
0.8395027
0.858387
0.8782006
0.8989397
0.9204001
0.9402311
0.7710703
0.7867388
0.8031122
0.820247
0.8382082
0.8570188
0.8767113
0.8973401
0.9186151
0.9379281
0.7554618
0.7704907
0.7861756
0.8025658
0.8197183
0.8376508
0.8563959
0.8760496
0.8966285
0.9178169
0.9377136
0.9583855
0.9354196
0.9590249
0.912719
0.9354954
0.9591986
0.890853
0.912361
0.9351774
0.9589026
0.8697005
0.8900397
0.9115588
0.9343696
0.9580067
0.8490656
0.8683271
0.8886456
0.9101329
0.9328707
0.9561527
0.8287469
0.847004
0.8662082
0.8864571
0.9078508
0.9303458
0.9529246
0.8087824
0.8261017
0.8442724
0.863375
0.8835015
0.9046726
0.9267721
0.9483646
0.7898784
0.8063531
0.8236009
0.8416897
0.8606971
0.880654
0.9015733
0.9233263
0.9439491
0.7723052
0.7880284
0.8044617
0.8216626
0.8396975
0.8585913
0.8783805
0.8991315
0.9206069
0.9404564
0.7560575
0.7711118
0.7868242
0.8032446
0.8204303
0.8383996
0.8571863
0.8768882
0.8975282
0.9188174
0.9389894
0.7410453
0.7555013
0.770572
0.7863013
0.8027396
0.8198992
0.8378085
0.8565614
0.8762242
0.8968142
0.9187839
0.9384304
0.9571576
0.9349532
0.9584744
0.912719
0.9354954
0.9591986
0.8912523
0.9127872
0.9356436
0.9594536
0.8705278
0.8909157
0.9124946
0.9353956
0.959237
0.8504234
0.8697591
0.890163
0.911756
0.9346565
0.9583365
0.8307598
0.8491208
0.8684424
0.8888278
0.9103925
0.9331542
0.9564278
0.8113528
0.8287987
0.8471117
0.8663772
0.886695
0.9081053
0.9305804
0.9531954
0.792245
0.80883
0.8262002
0.8444261
0.8635898
0.8837286
0.9048762
0.9269945
0.9486146
0.7741188
0.7899227
0.8064445
0.823743
0.8418872
0.8609044
0.8808371
0.9017691
0.9235383
0.9441828
0.7572421
0.772347
0.7881144
0.804595
0.8218472
0.8398905
0.8587603
0.8785592
0.8993218
0.9208121
0.941539
0.7416175
0.7560972
0.7711933
0.7869504
0.8034189
0.8206119
0.8385579
0.8573525
0.8770637
0.8977149
0.9197903
0.9397154
0.727165
0.7410832
0.7555791
0.7706922
0.7864671
0.8029118
0.8200489
0.8379649
0.8567257
0.8763975
0.8977078
0.9194416
0.9389699
0.954983
0.9339268
0.9572463
0.9122928
0.9350291
0.9586479
0.8912523
0.9127872
0.9356436
0.9594536
0.870905
0.8913149
0.9129206
0.9358617
0.9597882
0.8512081
0.8705862
0.8910386
0.9126913
0.9356822
0.9595675
0.8320515
0.8504784
0.869874
0.8903447
0.9120153
0.9349403
0.9586131
0.8132724
0.8308119
0.8492291
0.8686125
0.8890676
0.9106495
0.9333921
0.9567054
0.7947016
0.8114019
0.8289005
0.8472707
0.8665996
0.8869306
0.9083187
0.9308166
0.9534686
0.776385
0.7922903
0.8089235
0.8263457
0.8446284
0.8638025
0.8839175
0.9050794
0.9272166
0.9488646
0.7589816
0.7741611
0.7900098
0.8065795
0.8239302
0.8420829
0.8610763
0.8810192
0.9019637
0.9237491
0.9453076
0.7427553
0.757282
0.7724291
0.7882415
0.8047707
0.8220302
0.8400501
0.8589281
0.8787366
0.8995108
0.921799
0.9422917
0.7277153
0.7416555
0.7561752
0.7713139
0.7871167
0.8035918
0.820762
0.838715
0.8575174
0.8772378
0.8986131
0.9204544
0.9402645
0.7137894
0.7272014
0.7411578
0.7556942
0.7708507
0.7866315
0.8030543
0.8201973
0.8381201
0.8568886
0.8772317
0.898315
0.9199363
0.9393307
0.9515144
0.9321419
0.9550709
0.9113565
0.9340027
0.9574192
0.890853
0.912361
0.9351774
0.9589026
0.870905
0.8913149
0.9129206
0.9358617
0.9597882
0.8515659
0.8709633
0.8914375
0.913117
0.9361481
0.9601191
0.8327982
0.8512628
0.8707007
0.8912197
0.9129498
0.9359657
0.9598445
0.8145044
0.8321034
0.8505862
0.8700435
0.8905838
0.9122719
0.935178
0.9588916
0.7965362
0.8133217
0.8309142
0.849389
0.8688364
0.889305
0.9108651
0.9336314
0.9569853
0.778737
0.7947483
0.8114985
0.8290509
0.8474802
0.86682
0.8871281
0.9085334
0.9310542
0.9537441
0.7611548
0.7764281
0.7923793
0.8090616
0.8265373
0.8448289
0.8639794
0.8841061
0.9052823
0.9274382
0.9500731
0.7444259
0.759022
0.7742442
0.7901385
0.8067574
0.8241156
0.842245
0.8612471
0.8812002
0.9021572
0.9247641
0.9461321
0.7288093
0.7427935
0.7573605
0.7725505
0.788409
0.8049448
0.8221816
0.8402086
0.8590947
0.8789126
0.9004202
0.9224816
0.9428713
0.7143191
0.7277517
0.7417303
0.7562906
0.7714729
0.7872816
0.8037347
0.820911
0.8388708
0.8576811
0.8780758
0.8992255
0.9209557
0.9406333
0.7008902
0.7138243
0.7272729
0.7412681
0.755846
0.7710078
0.7867674
0.8031956
0.8203446
0.8382741
0.8576731
0.8777981
0.8987716
0.9202669
0.9395115
0.94679
0.9293471
0.9516001
0.909733
0.9322177
0.9552424
0.8899767
0.9114249
0.9341512
0.9576733
0.8705278
0.8909157
0.9124946
0.9353956
0.959237
0.8515659
0.8709633
0.8914375
0.913117
0.9361481
0.9601191
0.8331388
0.8516206
0.8710775
0.8916183
0.9133752
0.9364314
0.9603961
0.8152167
0.8328499
0.8513703
0.8708695
0.891458
0.9132057
0.9362028
0.9601228
0.7977137
0.8145535
0.8322052
0.8507455
0.8702666
0.8908206
0.9124867
0.9354168
0.9591719
0.7804936
0.7965831
0.8134187
0.8310653
0.8495996
0.8690582
0.8895042
0.911082
0.9338724
0.9572675
0.7634103
0.7787816
0.7948402
0.8116412
0.829249
0.8476877
0.8670048
0.887327
0.9087495
0.9312933
0.9550873
0.7465128
0.7611961
0.7765131
0.7925108
0.8092436
0.8267271
0.8449957
0.8641561
0.8842944
0.9054849
0.9285102
0.95109
0.7304155
0.7444646
0.7591014
0.7743671
0.7903081
0.8069338
0.8242693
0.8424062
0.8614169
0.8813801
0.9030895
0.9254977
0.9468069
0.7153721
0.728846
0.7428688
0.7574767
0.7727105
0.788575
0.8050888
0.8223319
0.8403659
0.85926
0.8797602
0.9010482
0.9230046
0.9432676
0.7014005
0.7143541
0.7278235
0.741841
0.7564428
0.7716305
0.7874179
0.8038765
0.8210589
0.8390254
0.858469
0.8786469
0.8996877
0.9212919
0.9408186
0.6884415
0.7009237
0.7138931
0.7273788
0.7414136
0.7559965
0.7711378
0.7869022
0.8033358
0.8204907
0.8390158
0.8582056
0.878224
0.8990767
0.9204325
0.9422154
0.9255935
0.9468707
0.9071976
0.9294219
0.9517675
0.8884589
0.9098014
0.9323659
0.9554945
0.8697005
0.8900397
0.9115588
0.9343696
0.9580067
0.8512081
0.8705862
0.8910386
0.9126913
0.9356822
0.9595675
0.8331388
0.8516206
0.8710775
0.8916183
0.9133752
0.9364314
0.9603961
0.8155416
0.8331903
0.8517277
0.871246
0.8918561
0.9136307
0.9366681
0.9606744
0.7983947
0.8152656
0.8329513
0.8515289
0.8710917
0.8916939
0.9134197
0.9364407
0.9604026
0.7816211
0.7977604
0.81465
0.8323557
0.8509552
0.8704876
0.8910188
0.9127026
0.9356568
0.9594541
0.7650947
0.7805383
0.7966753
0.8135621
0.8312644
0.8498083
0.8692442
0.8897046
0.9113003
0.9341149
0.9586434
0.7486786
0.7634529
0.7788692
0.794976
0.8118293
0.8294453
0.8478617
0.8671908
0.8875271
0.908967
0.9324585
0.9564936
0.7324219
0.7465523
0.7612773
0.7766386
0.7926842
0.809424
0.8268851
0.8451623
0.8643326
0.8844824
0.9064653
0.929384
0.9520652
0.716918
0.7304526
0.7445407
0.759219
0.7745291
0.7904762
0.8070799
0.8244221
0.8425664
0.8615857
0.8822477
0.9037619
0.92609
0.9472993
0.7024149
0.7154073
0.7289182
0.7429801
0.7576299
0.7728692
0.7887124
0.8052318
0.8224811
0.840522
0.8600564
0.8803451
0.9015292
0.9233607
0.9434695
0.6889336
0.7014341
0.714423
0.7279297
0.7419869
0.7565938
0.7717609
0.7875532
0.8040172
0.8212056
0.8397702
0.8590056
0.8790778
0.8999976
0.9214608
0.67642
0.6884738
0.7009898
0.7139949
0.7275186
0.741558
0.7561209
0.7712667
0.787036
0.8034748
0.8211947
0.839519
0.8586059
0.8785086
0.8992294
0.9385508
0.9219738
0.9422924
0.9037996
0.9256651
0.9470282
0.886091
0.9072654
0.9295681
0.9520135
0.8682683
0.888522
0.9099355
0.9325841
0.9558254
0.8504234
0.8697591
0.890163
0.911756
0.9346565
0.9583365
0.8327982
0.8512628
0.8707007
0.8912197
0.9129498
0.9359657
0.9598445
0.8155416
0.8331903
0.8517277
0.871246
0.8918561
0.9136307
0.9366681
0.9606744
0.7987053
0.8155904
0.8332915
0.851886
0.8714677
0.8920916
0.9138442
0.9369056
0.9609538
0.7822731
0.7984411
0.8153617
0.833101
0.8517377
0.8713118
0.8918912
0.9136345
0.9366795
0.9606839
0.7661759
0.7816656
0.7978522
0.8147927
0.8325539
0.851163
0.8706726
0.891218
0.9129195
0.9358979
0.9608266
0.7502958
0.7651374
0.7806262
0.7968118
0.8137511
0.8314618
0.8499833
0.8694315
0.8899064
0.9115201
0.9352964
0.960064
0.7345039
0.7487193
0.7635366
0.7789988
0.7951551
0.8120157
0.82961
0.8480369
0.867378
0.8877284
0.9100274
0.9336202
0.9582254
0.7188489
0.7324598
0.7466301
0.7613974
0.7768042
0.7928562
0.8095742
0.8270429
0.8453286
0.8645087
0.8853928
0.9072617
0.9301986
0.9529251
0.7039041
0.7169536
0.7305256
0.7446533
0.759374
0.7746897
0.7906155
0.8072251
0.8245739
0.8427257
0.8623999
0.8828729
0.904304
0.9265166
0.9475656
0.6899116
0.7024487
0.7154766
0.729025
0.743127
0.7577819
0.7730005
0.7888487
0.8053737
0.8226291
0.8412743
0.8606057
0.8807931
0.9018564
0.9235415
0.6768948
0.6889659
0.7015004
0.7145251
0.7280699
0.7421317
0.7567186
0.7718902
0.7876875
0.8041568
0.8219123
0.8402772
0.8594105
0.8793667
0.9001532
0.664804
0.6764511
0.6885375
0.7010878
0.7141292
0.7276573
0.7416774
0.7562444
0.7713946
0.7871687
0.804145
0.8216722
0.8398973
0.8588734
0.8786511
0.9360573
0.9190765
0.9386255
0.9005282
0.9220431
0.9424427
0.8829191
0.9038648
0.9258051
0.9472597
0.8660353
0.8861536
0.9073981
0.9297833
0.9523365
0.8490656
0.8683271
0.8886456
0.9101329
0.9328707
0.9561527
0.8320515
0.8504784
0.869874
0.8903447
0.9120153
0.9349403
0.9586131
0.8152167
0.8328499
0.8513703
0.8708695
0.891458
0.9132057
0.9362028
0.9601228
0.7987053
0.8155904
0.8332915
0.851886
0.8714677
0.8920916
0.9138442
0.9369056
0.9609538
0.7825706
0.7987517
0.8156863
0.8334409
0.8520943
0.8716874
0.8922884
0.9140584
0.9371437
0.9612345
0.7668013
0.7823174
0.7985325
0.8155037
0.8332983
0.8519446
0.8714959
0.8920892
0.91385
0.9369191
0.9620496
0.7513341
0.7662184
0.7817531
0.797988
0.8149808
0.8327503
0.8513371
0.8708586
0.8914182
0.9131375
0.9370706
0.9621802
0.7360585
0.7503367
0.7652214
0.7807564
0.7969916
0.8139384
0.8316274
0.8501596
0.8696201
0.8901095
0.9125917
0.936462
0.9617489
0.7208524
0.7345429
0.7487995
0.7636606
0.7791698
0.7953328
0.8121722
0.8297758
0.8482132
0.8675664
0.8887111
0.9110809
0.9350011
0.9604121
0.705764
0.7188852
0.7325343
0.7467451
0.7615558
0.7769684
0.7929992
0.8097241
0.8272004
0.8454947
0.865362
0.886132
0.9080024
0.9308989
0.9535138
0.6913473
0.7039383
0.7170237
0.7306337
0.7448019
0.7595278
0.7748228
0.790754
0.8073695
0.8247249
0.8434943
0.8629865
0.883377
0.904694
0.926745
0.6778384
0.6899442
0.7025154
0.7155793
0.7291661
0.7432728
0.7579076
0.7731309
0.7889841
0.8055145
0.8233427
0.841793
0.8610263
0.8810977
0.9020226
0.6652624
0.676926
0.6890298
0.7015986
0.7146598
0.7282089
0.7422515
0.7568425
0.7720186
0.7878207
0.8048295
0.8223933
0.8406597
0.859682
0.8795117
0.6535737
0.664834
0.6765125
0.6886318
0.7012171
0.7142626
0.7277719
0.7417959
0.756367
0.7715215
0.7878083
0.8045995
0.8220311
0.8401501
0.8590073
0.9348062
0.9171044
0.9361307
0.8979133
0.9191444
0.9387713
0.8798658
0.9005916
0.9221785
0.9426636
0.8630448
0.8829795
0.9039925
0.9260111
0.9475636
0.8469492
0.8660937
0.8862762
0.9075937
0.930066
0.952656
0.8307598
0.8491208
0.8684424
0.8888278
0.9103925
0.9331542
0.9564278
0.8145044
0.8321034
0.8505862
0.8700435
0.8905838
0.9122719
0.935178
0.9588916
0.7983947
0.8152656
0.8329513
0.8515289
0.8710917
0.8916939
0.9134197
0.9364407
0.9604026
0.7825706
0.7987517
0.8156863
0.8334409
0.8520943
0.8716874
0.8922884
0.9140584
0.9371437
0.9612345
0.7670866
0.7826148
0.7988428
0.815828
0.8336378
0.8523007
0.8718709
0.8924858
0.9142732
0.9373825
0.9625968
0.7519346
0.7668436
0.7824045
0.7986676
0.8156909
0.8334939
0.8521176
0.8716807
0.8922879
0.9140663
0.9380828
0.9633532
0.7370566
0.7513747
0.766302
0.7818826
0.7981669
0.8151672
0.8329149
0.851512
0.8710455
0.8916194
0.9141987
0.9381803
0.9637177
0.7223484
0.7360977
0.7504172
0.7653458
0.780928
0.79717
0.8140956
0.8317941
0.850337
0.8698099
0.8911007
0.9136467
0.9378004
0.963714
0.7076937
0.7208898
0.7346198
0.7489182
0.7638241
0.7793394
0.7954818
0.8123297
0.8299427
0.8483907
0.8684864
0.8896877
0.9123306
0.9366998
0.9632993
0.6931403
0.7057989
0.7189568
0.7326447
0.7468969
0.7617129
0.7771051
0.7931421
0.8098738
0.8273577
0.8462995
0.8660549
0.8868195
0.9086378
0.9313681
0.6792235
0.6913802
0.7040057
0.7171276
0.7307764
0.7449494
0.7596552
0.7749552
0.7908917
0.8075131
0.8254536
0.8440479
0.8634594
0.8837395
0.9049026
0.6661735
0.6778698
0.6900083
0.7026142
0.7157149
0.729306
0.7433933
0.7580324
0.7732602
0.7891185
0.8061936
0.8238346
0.8421902
0.8613124
0.8812524
0.6540165
0.6652925
0.6769875
0.6891243
0.7017283
0.7147936
0.7283239
0.7423703
0.7569654
0.7721459
0.7884626
0.8052872
0.8227562
0.8409162
0.8598182
0.6427106
0.6536026
0.6648931
0.6766034
0.6887563
0.7013454
0.7143728
0.7278857
0.7419134
0.7564885
0.7721331
0.7882419
0.8049411
0.8222709
0.8402766
0.9161142
0.9348789
0.896135
0.9171714
0.9362739
0.8774249
0.8979756
0.919277
0.9389857
0.8601655
0.8799246
0.9007157
0.9223778
0.9429535
0.8441151
0.8631012
0.8830978
0.9041806
0.9262817
0.9478641
0.8287469
0.847004
0.8662082
0.8864571
0.9078508
0.9303458
0.9529246
0.8132724
0.8308119
0.8492291
0.8686125
0.8890676
0.9106495
0.9333921
0.9567054
0.7977137
0.8145535
0.8322052
0.8507455
0.8702666
0.8908206
0.9124867
0.9354168
0.9591719
0.7822731
0.7984411
0.8153617
0.833101
0.8517377
0.8713118
0.8918912
0.9136345
0.9366795
0.9606839
0.7670866
0.7826148
0.7988428
0.815828
0.8336378
0.8523007
0.8718709
0.8924858
0.9142732
0.9373825
0.9625968
0.7522086
0.7671288
0.7827017
0.7989776
0.8160147
0.8338328
0.8524733
0.8720551
0.8926837
0.9144886
0.9385418
0.9638773
0.7376339
0.751975
0.7669268
0.7825334
0.7988457
0.8158764
0.8336574
0.8522913
0.8718661
0.8924873
0.9151178
0.9391517
0.9647948
0.7233088
0.7370955
0.7514547
0.7664258
0.7820533
0.7983444
0.8153233
0.8330802
0.8516878
0.8712334
0.8925995
0.9152016
0.9394019
0.9654305
0.7091345
0.7223859
0.7361748
0.7505363
0.76551
0.7810983
0.7973197
0.8142538
0.8319619
0.8505157
0.8707367
0.8920773
0.914857
0.9393234
0.9659646
0.6950004
0.7077296
0.7209636
0.7347336
0.7490748
0.7639863
0.7794817
0.7956318
0.8124882
0.8301107
0.8492576
0.8694014
0.8908471
0.9138655
0.9389047
0.9680733
0.6809533
0.6931739
0.7058677
0.7190628
0.7327904
0.7470475
0.7618437
0.7772416
0.7932848
0.8100233
0.8281201
0.8469529
0.8666995
0.8874094
0.9090628
0.6675107
0.6792552
0.6914451
0.7041056
0.7172647
0.7309179
0.7450715
0.7597819
0.7750867
0.7910286
0.8082062
0.8259782
0.8444942
0.8637996
0.8839334
0.6548966
0.6662037
0.6779316
0.6901035
0.7027446
0.7158494
0.7294218
0.743513
0.7581563
0.7733887
0.7897663
0.8066615
0.8242113
0.8424603
0.8614576
0.6431386
0.6540455
0.6653518
0.6770786
0.6892492
0.701857
0.7149041
0.7284381
0.7424882
0.7570874
0.7727597
0.7888992
0.8056325
0.8229994
0.8410449
0.6321978
0.6427385
0.6536596
0.6649808
0.6767234
0.68888
0.7014515
0.7144822
0.7279986
0.74203
0.7570744
0.7725477
0.7885679
0.8051693
0.822391
0.8952423
0.9161807
0.9350209
0.8757648
0.8961966
0.9173023
0.9364844
0.8578633
0.8774828
0.8980974
0.9194722
0.9392671
0.8413861
0.8602206
0.8800398
0.9008985
0.9226396
0.9432402
0.8260515
0.8441682
0.8632118
0.8832722
0.9044279
0.9265494
0.9481144
0.8113528
0.8287987
0.8471117
0.8663772
0.886695
0.9081053
0.9305804
0.9531954
0.7965362
0.8133217
0.8309142
0.849389
0.8688364
0.889305
0.9108651
0.9336314
0.9569853
0.7816211
0.7977604
0.81465
0.8323557
0.8509552
0.8704876
0.8910188
0.9127026
0.9356568
0.9594541
0.7668013
0.7823174
0.7985325
0.8155037
0.8332983
0.8519446
0.8714959
0.8920892
0.91385
0.9369191
0.9620496
0.7522086
0.7671288
0.7827017
0.7989776
0.8160147
0.8338328
0.8524733
0.8720551
0.8926837
0.9144886
0.9385418
0.9638773
0.7378973
0.7522489
0.7672118
0.7828302
0.7991553
0.8161997
0.8339959
0.8526464
0.8722398
0.8928823
0.9155354
0.9395919
0.9652764
0.7238643
0.7376726
0.7520546
0.7670499
0.7827033
0.7990223
0.8160316
0.8338216
0.8524656
0.8720522
0.8934577
0.916083
0.9402979
0.9663654
0.7100596
0.7233461
0.7371722
0.7515732
0.766589
0.7822226
0.798493
0.8154803
0.8332464
0.8518645
0.872149
0.8935268
0.9163057
0.9407283
0.9673004
0.6963893
0.7091706
0.72246
0.736289
0.7506935
0.7656728
0.7812411
0.7974704
0.8144132
0.8321309
0.8513883
0.8716508
0.8931989
0.9162335
0.9410343
0.9689211
0.6827477
0.695035
0.7078006
0.7210729
0.7348839
0.7492303
0.7641224
0.7796249
0.7957828
0.8126477
0.8309315
0.8501205
0.8704886
0.8922718
0.9158558
0.9425324
0.9706561
0.6691805
0.6809856
0.6932401
0.7059697
0.7192028
0.7329349
0.7471729
0.7619743
0.7773778
0.7934273
0.8107481
0.8287392
0.8475612
0.8672528
0.8878041
0.6561884
0.6675412
0.6793178
0.6915413
0.7042375
0.7174007
0.7310352
0.745193
0.7599079
0.7752175
0.7916895
0.8087051
0.8264013
0.8448153
0.8639816
0.6439893
0.6549258
0.6662633
0.6780233
0.6902291
0.7028741
0.7159607
0.7295367
0.7436318
0.7582793
0.7740079
0.7902126
0.8070198
0.8244675
0.8425975
0.6326118
0.6431666
0.6541027
0.6654397
0.677199
0.6893732
0.7019634
0.7150139
0.7285513
0.7426052
0.7576753
0.7731772
0.7892287
0.805864
0.8231215
0.6220195
0.6322247
0.6427936
0.6537443
0.6650966
0.6768426
0.6889822
0.7015568
0.7145908
0.7281106
0.742592
0.7574715
0.7728594
0.7887856
0.8052836
0.8749312
0.8953036
0.9163109
0.9352297
0.8562971
0.8758221
0.8963172
0.917495
0.9367609
0.8392034
0.8579176
0.8775961
0.898277
0.9197285
0.9395454
0.8234556
0.8414379
0.8603285
0.8802096
0.9011387
0.9228985
0.9434778
0.8087824
0.8261017
0.8442724
0.863375
0.8835015
0.9046726
0.9267721
0.9483646
0.7947016
0.8114019
0.8289005
0.8472707
0.8665996
0.8869306
0.9083187
0.9308166
0.9534686
0.7804936
0.7965831
0.8134187
0.8310653
0.8495996
0.8690582
0.8895042
0.911082
0.9338724
0.9572675
0.7661759
0.7816656
0.7978522
0.8147927
0.8325539
0.851163
0.8706726
0.891218
0.9129195
0.9358979
0.9608266
0.7519346
0.7668436
0.7824045
0.7986676
0.8156909
0.8334939
0.8521176
0.8716807
0.8922879
0.9140663
0.9380828
0.9633532
0.7378973
0.7522489
0.7672118
0.7828302
0.7991553
0.8161997
0.8339959
0.8526464
0.8722398
0.8928823
0.9155354
0.9395919
0.9652764
0.7241178
0.737936
0.7523284
0.7673346
0.7829997
0.7993314
0.8163545
0.8341595
0.85282
0.872425
0.8938479
0.9164832
0.9407049
0.9667867
0.7105946
0.7239015
0.737749
0.7521725
0.7672123
0.7828718
0.79917
0.8161874
0.8339864
0.8526406
0.8729583
0.8943493
0.9171186
0.9415143
0.9680514
0.697281
0.7100955
0.7234198
0.7372858
0.7517295
0.7667509
0.7823645
0.7986425
0.815638
0.8334135
0.8527261
0.8730162
0.8945489
0.9175048
0.942145
0.969667
0.6840875
0.696424
0.7092418
0.7225696
0.7364398
0.7508495
0.7658094
0.781385
0.7976221
0.8145736
0.8329566
0.8522497
0.8727017
0.8944756
0.9177798
0.9432496
0.971016
0.6709127
0.682781
0.6951033
0.7079057
0.7212173
0.7350331
0.7493607
0.7642595
0.7797691
0.7959348
0.8134278
0.831749
0.8511465
0.8718255
0.8941196
0.9191332
0.944653
0.972548
0.6578014
0.6692117
0.6810494
0.6933382
0.7061043
0.7193417
0.7330552
0.7472981
0.7621047
0.7775139
0.7941182
0.8113367
0.8293157
0.8480834
0.8676232
0.6452379
0.6562179
0.6676015
0.6794104
0.6916682
0.7043684
0.7175134
0.7311518
0.7453138
0.7600331
0.7758492
0.7921652
0.8091075
0.8267057
0.8449871
0.6334345
0.6440175
0.6549833
0.6663517
0.6781444
0.6903538
0.7029812
0.7160712
0.7296508
0.7437498
0.7588723
0.7744346
0.7905544
0.8072636
0.8245975
0.6224201
0.6326388
0.6432219
0.6541876
0.6655558
0.6773185
0.6894757
0.702069
0.7151227
0.7286636
0.7431692
0.7580751
0.7734921
0.7894495
0.8059802
0.612161
0.6220456
0.632278
0.6428753
0.6538561
0.6652117
0.6769412
0.6890837
0.7016613
0.7146985
0.7286505
0.7429729
0.75777
0.7730676
0.7888947
0.8555104
0.8749883
0.8954236
0.9165024
0.9355038
0.8377181
0.8563508
0.8759344
0.8964948
0.9177482
0.9370342
0.821379
0.8392545
0.8580239
0.8777632
0.898513
0.9199821
0.9397756
0.8063065
0.8235047
0.8415396
0.8604877
0.8804329
0.9013764
0.923113
0.9437141
0.792245
0.80883
0.8262002
0.8444261
0.8635898
0.8837286
0.9048762
0.9269945
0.9486146
0.778737
0.7947483
0.8114985
0.8290509
0.8474802
0.86682
0.8871281
0.9085334
0.9310542
0.9537441
0.7650947
0.7805383
0.7966753
0.8135621
0.8312644
0.8498083
0.8692442
0.8897046
0.9113003
0.9341149
0.9586434
0.7513341
0.7662184
0.7817531
0.797988
0.8149808
0.8327503
0.8513371
0.8708586
0.8914182
0.9131375
0.9370706
0.9621802
0.7376339
0.751975
0.7669268
0.7825334
0.7988457
0.8158764
0.8336574
0.8522913
0.8718661
0.8924873
0.9151178
0.9391517
0.9647948
0.7241178
0.737936
0.7523284
0.7673346
0.7829997
0.7993314
0.8163545
0.8341595
0.85282
0.872425
0.8938479
0.9164832
0.9407049
0.9667867
0.7108388
0.7241549
0.7380121
0.7524459
0.7674966
0.7831678
0.7994787
0.8165097
0.8343236
0.8529941
0.8733264
0.8947231
0.9174885
0.941875
0.9683982
0.6977968
0.7106304
0.7239747
0.737862
0.752328
0.7673734
0.7830127
0.7993183
0.8163438
0.8341518
0.8534929
0.8737915
0.8953072
0.9182183
0.9427901
0.9701691
0.6849476
0.6973155
0.7101662
0.7235288
0.7374358
0.7518846
0.7668866
0.7825071
0.7987926
0.8157966
0.8342284
0.8535427
0.8739731
0.8956601
0.9187861
0.9439045
0.9714345
0.672206
0.6841209
0.6964925
0.7093472
0.7227145
0.7365895
0.7509804
0.765947
0.7815298
0.7977749
0.8153578
0.8337722
0.8532409
0.873899
0.8959107
0.9197837
0.9449933
0.9727272
0.6594746
0.6709448
0.6828467
0.6952044
0.7080445
0.7213606
0.7351582
0.749492
0.7643974
0.7799143
0.7966781
0.8142049
0.8327217
0.8524089
0.8735601
0.8971657
0.9210513
0.9463371
0.9739884
0.6467969
0.6578314
0.6692732
0.6811439
0.6934678
0.7062379
0.7194573
0.7331754
0.7474231
0.762235
0.778174
0.7946793
0.8118849
0.8298108
0.8484332
0.6346419
0.6452663
0.656276
0.6676908
0.6795328
0.6917943
0.7044768
0.7176255
0.7312677
0.7454338
0.7606378
0.7763038
0.7925489
0.809397
0.8268686
0.6232161
0.6334617
0.644073
0.6550686
0.6664685
0.6782646
0.690457
0.7030875
0.7161809
0.729764
0.7443186
0.7592808
0.7747612
0.7907868
0.8073873
0.6125488
0.6224462
0.6326922
0.6433038
0.6542996
0.6656711
0.6774173
0.6895774
0.7021738
0.7152308
0.7292053
0.7435526
0.7583768
0.7737033
0.7895604
0.6026086
0.6121862
0.622097
0.6323569
0.6429833
0.6539671
0.6653068
0.677039
0.6891843
0.701765
0.7152176
0.7290163
0.7432593
0.7579694
0.7731718
0.8369719
0.8555639
0.8751
0.8956003
0.9167541
0.9357749
0.8199656
0.8377688
0.8564562
0.8760999
0.8967283
0.9179986
0.9372603
0.8043256
0.8214274
0.8393548
0.8581807
0.877983
0.8987465
0.9201919
0.9400042
0.7898784
0.8063531
0.8236009
0.8416897
0.8606971
0.880654
0.9015733
0.9233263
0.9439491
0.776385
0.7922903
0.8089235
0.8263457
0.8446284
0.8638025
0.8839175
0.9050794
0.9272166
0.9488646
0.7634103
0.7787816
0.7948402
0.8116412
0.829249
0.8476877
0.8670048
0.887327
0.9087495
0.9312933
0.9550873
0.7502958
0.7651374
0.7806262
0.7968118
0.8137511
0.8314618
0.8499833
0.8694315
0.8899064
0.9115201
0.9352964
0.960064
0.7370566
0.7513747
0.766302
0.7818826
0.7981669
0.8151672
0.8329149
0.851512
0.8710455
0.8916194
0.9141987
0.9381803
0.9637177
0.7238643
0.7376726
0.7520546
0.7670499
0.7827033
0.7990223
0.8160316
0.8338216
0.8524656
0.8720522
0.8934577
0.916083
0.9402979
0.9663654
0.7108388
0.7241549
0.7380121
0.7524459
0.7674966
0.7831678
0.7994787
0.8165097
0.8343236
0.8529941
0.8733264
0.8947231
0.9174885
0.941875
0.9683982
0.6980321
0.7108744
0.724228
0.7381248
0.7526011
0.7676573
0.7833083
0.7996264
0.8166654
0.8344882
0.8538419
0.8741441
0.8956527
0.9185464
0.943094
0.9704177
0.6854452
0.6978311
0.7107007
0.7240832
0.7380111
0.7524824
0.7675082
0.7831542
0.7994672
0.8165007
0.8349577
0.8542772
0.8746879
0.8963257
0.9193727
0.9443596
0.9717584
0.6730363
0.6849809
0.6973835
0.710271
0.7236728
0.7375846
0.7520146
0.7670229
0.7826504
0.7989436
0.8165703
0.8350013
0.8544446
0.8750143
0.8968485
0.9203795
0.9453972
0.9729674
0.6607237
0.6722382
0.6841868
0.6965939
0.7094865
0.7228582
0.7367151
0.7511122
0.7660856
0.7816757
0.7985219
0.816133
0.8347115
0.8543709
0.8752455
0.897772
0.9213645
0.9465396
0.9740937
0.6484139
0.6595055
0.6710082
0.6829442
0.6953381
0.7081824
0.7214809
0.7352842
0.7496242
0.7645363
0.7806242
0.7974189
0.8151302
0.833919
0.8540475
0.8764218
0.898946
0.9225808
0.9477105
0.9750952
0.6361494
0.6468259
0.6578907
0.6693643
0.6812688
0.6935965
0.7063491
0.7195728
0.7332954
0.7475479
0.7628668
0.7787101
0.795202
0.8123559
0.8301425
0.6243843
0.6346694
0.6453224
0.6563622
0.6678089
0.6796543
0.6918987
0.7045847
0.7177369
0.731383
0.7460137
0.761073
0.7766705
0.792825
0.809552
0.6133193
0.6232424
0.6335153
0.6441554
0.6551813
0.6665845
0.678364
0.6905594
0.7031931
0.7162898
0.7303103
0.7447103
0.7595936
0.7749834
0.7909049
0.6029841
0.612574
0.6224978
0.6327713
0.643412
0.654411
0.6657665
0.6775154
0.6896784
0.7022778
0.7157516
0.7295736
0.7438419
0.758579
0.7738092
0.5933494
0.6026329
0.612236
0.6221734
0.6324613
0.6430906
0.6540589
0.6654011
0.677136
0.6892841
0.7022647
0.7155694
0.7292913
0.7434505
0.7580692
0.8192553
0.8370224
0.8556689
0.8752648
0.8958326
0.917003
0.9359991
0.8029771
0.8200136
0.8378683
0.8566117
0.8763176
0.8969593
0.9182057
0.9374846
0.7879847
0.8043715
0.8215224
0.8395027
0.858387
0.8782006
0.8989397
0.9204001
0.9402311
0.7741188
0.7899227
0.8064445
0.823743
0.8418872
0.8609044
0.8808371
0.9017691
0.9235383
0.9441828
0.7611548
0.7764281
0.7923793
0.8090616
0.8265373
0.8448289
0.8639794
0.8841061
0.9052823
0.9274382
0.9500731
0.7486786
0.7634529
0.7788692
0.794976
0.8118293
0.8294453
0.8478617
0.8671908
0.8875271
0.908967
0.9324585
0.9564936
0.7360585
0.7503367
0.7652214
0.7807564
0.7969916
0.8139384
0.8316274
0.8501596
0.8696201
0.8901095
0.9125917
0.936462
0.9617489
0.7233088
0.7370955
0.7514547
0.7664258
0.7820533
0.7983444
0.8153233
0.8330802
0.8516878
0.8712334
0.8925995
0.9152016
0.9394019
0.9654305
0.7105946
0.7239015
0.737749
0.7521725
0.7672123
0.7828718
0.79917
0.8161874
0.8339864
0.8526406
0.8729583
0.8943493
0.9171186
0.9415143
0.9680514
0.6980321
0.7108744
0.724228
0.7381248
0.7526011
0.7676573
0.7833083
0.7996264
0.8166654
0.8344882
0.8538419
0.8741441
0.8956527
0.9185464
0.943094
0.9704177
0.6856723
0.6980664
0.7109446
0.7243362
0.7382736
0.752755
0.7677917
0.7834492
0.7997746
0.8168216
0.8352897
0.8546114
0.8750137
0.8966321
0.9196498
0.9445895
0.9719296
0.6735166
0.6854782
0.6978988
0.710805
0.7242265
0.7381592
0.7526115
0.7676435
0.7832963
0.7996166
0.8172657
0.8356998
0.8551217
0.8756418
0.897396
0.9207952
0.9457167
0.9731711
0.6615257
0.6730683
0.6850464
0.6974844
0.7104095
0.7238157
0.7377092
0.7521452
0.76716
0.7827945
0.7996804
0.8173045
0.8358555
0.8554268
0.8761287
0.8983278
0.9217368
0.9468083
0.9742422
0.6496212
0.6607548
0.6723017
0.6842845
0.696728
0.7096247
0.7229789
0.7368416
0.7512449
0.7662251
0.7823889
0.7992606
0.8170261
0.8357828
0.8556423
0.876993
0.8992399
0.9227718
0.9478576
0.9751675
0.6377131
0.6484438
0.6595666
0.6711021
0.6830729
0.6954708
0.708298
0.7216019
0.7354111
0.7497573
0.7652156
0.781332
0.7983014
0.8162694
0.8354737
0.8567523
0.8780928
0.9003657
0.9238327
0.9488233
0.9759364
0.6258428
0.6361774
0.6468831
0.6579787
0.6694847
0.6813928
0.6937036
0.7064602
0.7196881
0.7334152
0.7481536
0.7633799
0.7792096
0.7956512
0.8126714
0.61445
0.6244108
0.6347236
0.6454057
0.6564761
0.6679261
0.679755
0.6920026
0.7046919