/*--------------------------------*- C++ -*----------------------------------*\
| =========                 |                                                 |
| \\      /  F ield         | OpenFOAM: The Open Source CFD Toolbox           |
|  \\    /   O peration     | Version:  2306                                  |
|   \\  /    A nd           | Website:  www.openfoam.com                      |
|    \\/     M anipulation  |                                                 |
\*---------------------------------------------------------------------------*/
FoamFile
{
    version     2.0;
    format      ascii;
    arch        "LSB;label=32;scalar=64";
    class       volVectorField;
    location    "1.5/phiEA";
    object      i;
}
// * * * * * * * * * * * * * * * * * * * * * * * * * * * * * * * * * * * * * //

dimensions      [0 -2 0 0 0 1 0];

internalField   nonuniform List<vector> 
20000
(
(-612.3513 2405.654 1980.833)
(-643.5272 7730.199 2017.676)
(-1221.323 2093.895 1805.281)
(-611.6491 2404.18 5866.737)
(-711.474 14606.92 2092.225)
(-1274.728 6738.972 1833.974)
(-642.7923 7725.743 5976.167)
(-1130.261 1871.605 1656.33)
(-1220.025 2092.747 5350.885)
(-610.2879 2401.277 9623.204)
(-827.2967 23767.8 2191.82)
(-1391.446 12769.23 1891.57)
(-710.6714 14599.96 6197.597)
(-1168.513 6028.973 1680.721)
(-1273.38 6735.52 5436.32)
(-641.3678 7716.964 9803.386)
(-962.2629 1711.378 1537.263)
(-1129.189 1870.629 4912.712)
(-1217.507 2090.478 8785.138)
(-608.2968 2396.973 13292.91)
(-1003.713 33898.18 2245.681)
(-1591.261 20845.41 1965.763)
(-826.3925 23761.66 6493.07)
(-1252.564 11441.6 1729.582)
(-1389.995 12763.96 5607.85)
(-709.115 14586.25 10168.03)
(-990.7199 5515.945 1558.893)
(-1167.413 6026.043 4985.43)
(-1270.765 6728.693 8926.225)
(-639.2837 7703.95 13542.69)
(-819.0739 1587.035 1438.586)
(-961.3919 1710.513 4562.139)
(-1127.106 1868.696 8072.386)
(-1213.822 2087.104 12144)
(-605.6922 2391.285 15647.64)
(-1235.731 38523.77 2106.624)
(-1897.147 29813.83 1992.457)
(-1002.7 33901.59 6650.351)
(-1397.631 18710.78 1791.619)
(-1589.66 20841.37 5828.675)
(-824.6391 23749.69 10654.04)
(-1053.439 10478.05 1602.197)
(-1251.406 11437.16 5131.139)
(-1387.18 12753.54 9209.595)
(-706.8376 14565.93 14048.34)
(-841.729 5117.212 1458.21)
(-989.8298 5513.348 4626.679)
(-1165.274 6020.236 8192.658)
(-1266.937 6718.542 12340.04)
(-636.5571 7686.747 15942.56)
(-707.5517 1484.828 1354.001)
(-818.3409 1586.25 4271.381)
(-959.6975 1708.797 7501.551)
(-1124.055 1865.818 11166.12)
(-1209 2082.636 14302.08)
(-826.8543 3271.099 20584.63)
(-1463.657 34709.47 2031.548)
(-2301.193 33924.32 1842.043)
(-1234.673 38532.33 6227.772)
(-1621.761 26798.85 1808.789)
(-1895.4 29818.78 5906.687)
(-1000.738 33908.79 10907.97)
(-1162.162 17153.43 1656.756)
(-1396.395 18707.61 5316.077)
(-1586.553 20833.46 9574.24)
(-822.0733 23732.06 14721.98)
(-891.7569 9727.171 1497.495)
(-1052.511 10474.13 4755.927)
(-1249.156 11428.37 8433.759)
(-1383.058 12738.04 12733.96)
(-703.8575 14539.08 16539.83)
(-726.482 4789.115 1372.051)
(-840.9816 5114.856 4329.97)
(-988.098 5508.194 7608.406)
(-1162.141 6011.588 11333.44)
(-1261.928 6705.095 14533.89)
(-869.0044 10516.47 20998.7)
(-621.0018 1397.732 1279.906)
(-706.917 1484.106 4021.97)
(-816.9133 1584.691 7027.689)
(-957.2131 1706.239 10382.42)
(-1120.06 1862.003 13156.5)
(-1651.004 2849.598 18815.57)
(-823.5874 3262.914 19101.21)
(-1650.063 26359.47 2012.604)
(-2698.591 30566.15 1752.319)
(-1462.54 34713.23 5998.567)
(-1920.053 30509.32 1664.613)
(-2299.425 33933.93 5452.82)
(-1232.631 38549.84 10192.47)
(-1330.91 24589.61 1669.185)
(-1620.468 26803.93 5366.281)
(-1892.011 29828.87 9700.387)
(-997.8698 33920.05 15069.3)
(-978.7172 15936.07 1546.751)
(-1161.183 17150.75 4918.733)
(-1393.991 18701.38 8739.736)
(-1582.003 20821.74 13240.95)
(-818.715 23708.85 17335.78)
(-768.3437 9108.164 1408.192)
(-890.9809 9723.629 4447.293)
(-1050.704 10466.36 7822.487)
(-1245.858 11415.28 11669.03)
(-1377.663 12717.5 14999.96)
(-960.93 19899.71 21837.87)
(-637.3214 4509.292 1296.667)
(-725.8358 4786.948 4075.887)
(-839.5258 5110.175 7124.762)
(-985.5583 5500.511 10531.19)
(-1158.039 6000.12 13354.52)
(-1723.317 9175.717 19144.36)
(-865.5753 10491.7 19538.37)
(-552.8903 1321.631 1213.919)
(-620.4414 1397.061 3803.353)
(-705.6796 1482.671 6620.875)
(-814.8182 1582.367 9731.419)
(-953.9587 1702.846 12238.1)
(-1530.238 2547.974 17309.31)
(-1644.956 2843.035 17454.27)
(-820.2665 3253.612 19355.29)
(-1778.955 16213.77 2013.317)
(-3023.788 23206.48 1719.089)
(-1648.889 26360.19 5939.143)
(-2213.81 27483.52 1576.79)
(-2696.772 30571.07 5182.075)
(-1460.391 34721.01 9802.658)
(-1556.214 28003.84 1532.702)
(-1918.816 30518.6 4932.014)
(-2296.01 33953.31 8938.177)
(-1229.656 38576.54 14054.13)
(-1114.065 22858.33 1556.326)
(-1329.9 24594.57 4955.088)
(-1617.955 26814.22 8821.012)
(-1887.052 29844.22 13413.87)
(-994.1166 33935.5 17743.35)
(-841.2523 14930.35 1453.354)
(-977.9036 15933.72 4594.381)
(-1159.276 17145.47 8092.175)
(-1390.467 18692.12 12095.11)
(-1576.045 20806.26 15600.25)
(-1117.894 32480.81 22950.44)
(-673.4497 8579.468 1330.233)
(-767.6746 9104.912 4183.871)
(-889.4687 9716.594 7319.237)
(-1048.053 10454.78 10829.42)
(-1241.538 11397.9 13751.92)
(-1881.471 17410.81 19806.48)
(-957.1647 19861.24 20425.25)
(-567.2632 4264.636 1229.587)
(-636.7516 4507.279 3853.437)
(-724.5759 4782.639 6710.258)
(-837.389 5103.194 9866.652)
(-982.2309 5490.314 12414.26)
(-1582.166 8211.801 17591.54)
(-1717.015 9155.922 17807.5)
(-862.0809 10463.51 19848.35)
(-498.1221 1254.002 1154.457)
(-552.3885 1321.004 3608.539)
(-619.348 1395.728 6264.011)
(-703.8623 1480.53 9172.175)
(-812.0723 1579.282 11474.92)
(-1303.525 2330.321 16102.2)
(-1525.229 2542.316 16051.84)
(-1638.807 2835.468 17681.43)
(-816.8919 3243.192 19608.62)
(-1844.366 5452.762 2016.384)
(-3248.766 14270.74 1709.515)
(-1777.74 16213.62 5939.745)
(-2454.171 20857.72 1542.038)
(-3021.906 23208.2 5081.523)
(-1646.632 26361.82 9698.609)
(-1777.921 25224.98 1448.967)
(-2212.597 27488.43 4667.653)
(-2693.268 30581.01 8483.785)
(-1457.265 34732.98 13500.03)
(-1295.123 26039.22 1427.063)
(-1555.264 28012.65 4544.321)
(-1916.419 30537.27 8093.259)
(-2291.028 33982.59 12339.09)
(-1225.771 38612.61 16523.67)
(-954.9561 21425.55 1461.005)
(-1113.232 22863.12 4622.397)
(-1327.935 24604.59 8151.095)
(-1614.271 26829.79 12206.76)
(-1880.561 29864.94 15803.76)
(-1357.867 46563.47 23471.84)
(-736.4686 14069.95 1372.073)
(-840.5536 14928.24 4318.807)
(-976.3175 15929.07 7563.099)
(-1156.476 17137.61 11205.34)
(-1385.849 18679.87 14256.97)
(-2152.715 28511.44 20657.02)
(-1113.635 32449.64 21589.74)
(-599.1101 8116.692 1260.973)
(-672.8609 8576.451 3953.767)
(-766.3695 9098.447 6889.357)
(-887.2484 9706.096 10137.73)
(-1044.578 10439.4 12767.63)
(-1696.359 15605.73 18159.04)
(-1874.65 17380.63 18520.62)
(-953.3115 19817.65 20849.67)
(-510.9735 4047.094 1169.18)
(-566.7533 4262.753 3655.373)
(-635.6394 4503.276 6347.078)
(-722.7251 4776.208 9296.755)
(-834.5881 5093.923 11635.12)
(-1342.191 7514.509 16354.06)
(-1577.006 8194.746 16357.51)
(-1710.593 9133.063 18084.89)
(-858.5215 10431.92 20157.54)
(-453.1659 1193.117 1100.362)
(-497.6679 1253.413 3432.893)
(-551.4084 1319.758 5945.768)
(-617.741 1393.739 8681.296)
(-701.4791 1477.688 10819.04)
(-1109.68 2161.315 15099.39)
(-1299.447 2325.257 14929.09)
(-1520.138 2535.747 16255.9)
(-1632.558 2826.897 17907.93)
(-813.4638 3231.655 28946.13)
(-1844.366 -5452.762 2016.384)
(-3362.984 4798.658 1707.385)
(-1843.13 5452.64 5948.235)
(-2620.431 12821.8 1530.416)
(-3246.834 14271.21 5052.356)
(-1775.406 16213.4 9696.641)
(-1958.992 19140.27 1415.077)
(-2452.955 20859.58 4562.993)
(-3018.283 23211.67 8314.545)
(-1643.352 26364.44 13349.18)
(-1473.204 23455.75 1347.519)
(-1777.004 25229.68 4292.515)
(-2210.252 27498.28 7650.852)
(-2688.165 30596.02 11699.42)
(-1453.189 34749.21 15858.39)
(-1107.273 24412.45 1338.302)
(-1294.346 26047.57 4233.54)
(-1553.421 28030.34 7463.385)
(-1912.917 30565.41 11182.26)
(-2284.523 34021.89 14517.6)
(-1675.38 53008.38 21566.45)
(-834.8986 20198.13 1378.341)
(-954.2442 21430.15 4341.202)
(-1111.61 22872.77 7608.556)
(-1325.051 24619.72 11286.45)
(-1609.445 26850.73 14388.76)
(-2569.555 40988.61 20915.47)
(-1353.134 46595.48 22044.55)
(-654.7279 13315.86 1300.022)
(-735.8553 14068.02 4078.833)
(-839.1901 14924.06 7113.222)
(-973.9877 15922.14 10477.9)
(-1152.807 17127.19 13213.55)
(-1893.833 25599.98 18879.16)
(-2145.149 28489.94 19431.95)
(-1109.263 32416.04 22156.26)
(-539.4698 7704.821 1198.682)
(-598.5839 8113.874 3749.22)
(-671.7111 8570.452 6513.56)
(-764.4519 9088.793 9546.521)
(-884.3371 9692.144 11956.46)
(-1427.48 14294.14 16860.31)
(-1690.896 15579.9 16973.98)
(-1867.666 17345.83 18901.16)
(-949.3707 19768.92 21273.63)
(-464.7893 3851.158 1114.253)
(-510.5122 4045.325 3476.914)
(-565.7571 4259.008 6023.476)
(-634.0044 4497.297 8797.117)
(-720.2977 4767.666 10966.67)
(-1140.478 6972.25 15328.96)
(-1338.009 7499.249 15203.25)
(-1571.749 8174.915 16607.06)
(-1704.05 9107.133 18361.62)
(-854.8972 10396.91 29838.48)
(-415.5292 1137.768 1050.786)
(-452.7512 1192.561 3273.018)
(-496.78 1252.241 5658.639)
(-549.967 1317.896 8243.284)
(-615.6325 1391.095 10243.09)
(-958.5394 2022.343 14237.69)
(-1106.241 2156.69 13997.21)
(-1295.306 2319.355 15115.74)
(-1514.966 2528.269 16459.39)
(-1626.21 2817.321 26427.53)
(-388.4546 1549.396 20137.07)
(-1778.955 -16213.77 2013.317)
(-3362.984 -4798.658 1707.385)
(-1843.13 -5452.64 5948.235)
(-2704.837 4310.577 1527.054)
(-3361.027 4798.743 5045.773)
(-1840.756 5452.423 9709.415)
(-2084.017 11764.08 1403.24)
(-2619.206 12822.4 4527.955)
(-3243.119 14272.17 8265.068)
(-1772.014 16213.18 13343.34)
(-1618.478 17796.76 1315.005)
(-1958.083 19142.1 4190.613)
(-2450.607 20863.31 7475.659)
(-3013.014 23216.95 11460.79)
(-1639.079 26368.09 15675.31)
(-1257.066 21991.43 1262.687)
(-1472.459 23460.23 3994.462)
(-1775.228 25239.13 7042.481)
(-2206.832 27513.13 10560.83)
(-2681.511 30616.14 13754.12)
(-1986.991 47680.35 20512.44)
(-966.8976 23018.12 1261.597)
(-1106.611 24420.38 3972.194)
(-1292.835 26064.34 6957.893)
(-1550.723 28056.99 10319.06)
(-1908.339 30603.11 13164.17)
(-3123.552 46717.14 18960.01)
(-1670.632 53072.81 19680.5)
(-741.7023 19121.26 1305.245)
(-834.2755 20202.55 4097.187)
(-952.8553 21439.41 7149.602)
(-1109.227 22887.33 10540.61)
(-1321.27 24640.04 13309.58)
(-2200.175 36855.09 19045.12)
(-2561.348 41025.51 19653.06)
(-1348.301 46639.84 22593.12)
(-589.2859 12644.02 1235.328)
(-654.1809 13314.09 3865.983)
(-734.6573 14064.21 6721.164)
(-837.1859 14917.83 9858.972)
(-970.932 15912.95 12360.19)
(-1575.619 23473.28 17498.58)
(-1887.959 25582.66 17753.7)
(-2137.37 28466.14 19941.57)
(-1104.777 32379.9 22724.21)
(-490.5784 7333.568 1142.097)
(-538.9943 7702.175 3565.149)
(-597.5556 8108.267 6179.261)
(-670.0205 8561.488 9029.378)
(-761.9361 9075.958 11262.85)
(-1208.543 13271.44 15790.4)
(-1423.09 14271.11 15756.07)
(-1685.301 15549.88 17317)
(-1860.52 17306.37 19281.33)
(-945.3423 19714.99 31655.59)
(-426.1353 3672.969 1063.936)
(-464.3683 3849.489 3314.561)
(-509.6103 4041.804 5731.704)
(-564.2918 4253.414 8351.667)
(-631.859 4489.353 10380.38)
(-984.2827 6525.883 14449.62)
(-1136.96 6958.311 14248.02)
(-1333.753 7481.43 15431.81)
(-1566.394 8152.302 16856.02)
(-1697.387 9078.127 27171.86)
(-408.0825 4996.689 20893.98)
(-383.4952 1087.056 1005.068)
(-415.1481 1137.242 3126.422)
(-451.94 1191.455 5397.12)
(-495.4733 1250.49 7847.871)
(-548.0747 1315.423 9728.963)
(-841.2078 1903.882 13481.02)
(-955.555 2018.066 13196.99)
(-1102.752 2151.283 14170.21)
(-1291.104 2312.614 15301.88)
(-1509.713 2519.882 24282.02)
(-779.2571 1353.118 18372.87)
(-351.118 1367.415 21728.46)
(-1650.063 -26359.47 2012.604)
(-3248.766 -14270.74 1709.515)
(-1777.74 -16213.62 5939.745)
(-2704.837 -4310.577 1527.054)
(-3361.027 -4798.743 5045.773)
(-1840.756 -5452.423 9709.415)
(-2147.411 3954.603 1399.609)
(-2703.606 4310.712 4517.807)
(-3357.263 4798.921 8253.729)
(-1837.307 5452.129 13359.79)
(-1718.674 10937.61 1303.447)
(-2083.109 11764.7 4155.025)
(-2616.842 12823.61 7416.943)
(-3237.715 14273.64 11390.64)
(-1767.595 16212.98 15666.16)
(-1379.198 16685.57 1231.619)
(-1617.744 17798.52 3896.771)
(-1956.327 19145.77 6872.226)
(-2447.186 20868.93 10314.83)
(-3006.146 23224.02 13469.22)
(-2241.639 36167.49 20197.72)
(-1096.719 20736.5 1189.601)
(-1256.434 21995.7 3745.001)
(-1471.014 23469.22 6558.518)
(-1772.634 25253.33 9728.376)
(-2202.368 27532.98 12423.52)
(-3667.784 42017.76 17800.78)
(-1982.098 47710.81 18346.85)
(-858.4399 21794.24 1193.936)
(-966.3202 23025.67 3746.176)
(-1105.323 24436.3 6532.385)
(-1290.622 26089.57 9625.757)
(-1547.194 28092.66 12153.89)
(-2610.462 42026.09 17196.83)
(-3115.581 46783.18 17316.34)
(-1665.924 53156.28 19627.52)
(-667.2639 18161.01 1239.737)
(-741.1479 19125.5 3881.283)
(-833.0589 20211.44 6751.015)
(-950.814 21453.38 9909.274)
(-1106.101 22906.85 12434.67)
(-1806.493 33822.32 17618.56)
(-2194.052 36891.15 17892.38)
(-2552.946 41073.24 20150.95)
(-1343.366 46696.63 23147.17)
(-535.6994 12037.92 1176.638)
(-588.7923 12642.38 3674.763)
(-653.1116 13310.58 6373.169)
(-732.8951 14058.52 9319.265)
(-834.5556 14909.55 11633.83)
(-1327.089 21809.85 16369.86)
(-1570.955 23458.38 16451.51)
(-1881.911 25563.24 18213.88)
(-2129.379 28439.95 20452.51)
(-1100.176 32341.1 34011.61)
(-449.6799 6995.719 1090.301)
(-490.1449 7331.073 3397.855)
(-538.0644 7696.907 5878.222)
(-596.0425 8099.886 8569.075)
(-667.8014 8549.566 10655.88)
(-1041.257 12428.03 14875.7)
(-1204.867 13250.45 14753.79)
(-1418.599 14244.21 16070.78)
(-1679.574 15515.63 17659.71)
(-1853.211 17262.2 28684.21)
(-451.064 9546.765 22453.59)
(-393.2425 3509.652 1017.55)
(-425.7485 3671.389 3165.757)
(-463.5446 3846.165 5466.093)
(-508.2827 4036.542 7949.807)
(-562.3679 4245.977 9857.468)
(-863.407 6145.078 13678.4)
(-981.2346 6512.992 13429.19)
(-1133.382 6941.987 14460.09)
(-1329.421 7461.047 15659.85)
(-1560.942 8126.902 24935.39)
(-813.0832 4370.595 19014.54)
(-368.1158 4436.928 22771.56)
(-355.8298 1040.296 962.6906)
(-383.1428 1086.557 2991.171)
(-414.4018 1136.195 5157.175)
(-450.7454 1189.802 7487.533)
(-493.757 1248.164 9264.646)
(-748.8729 1800.351 12805.55)
(-838.5674 1899.893 12494.63)
(-952.529 2013.055 13358.76)
(-1099.213 2145.094 14342.74)
(-1286.84 2305.036 22569.29)
(-726.8602 1211.135 16869.16)
(-710.0821 1197.437 19807.37)
(-311.611 1132.157 22701.78)
(-1463.657 -34709.47 2031.548)
(-3023.788 -23206.48 1719.089)
(-1648.889 -26360.19 5939.143)
(-2620.431 -12821.8 1530.416)
(-3246.834 -14271.21 5052.356)
(-1775.406 -16213.4 9696.641)
(-2147.411 -3954.603 1399.609)
(-2703.606 -4310.712 4517.807)
(-3357.263 -4798.921 8253.729)
(-1837.307 -5452.129 13359.79)
(-1769.439 3676.633 1299.825)
(-2146.502 3954.748 4144.112)
(-2701.23 4310.983 7399.915)
(-3351.789 4799.197 11374.39)
(-1832.814 5451.765 15684.67)
(-1463.385 10254.47 1220.481)
(-1717.943 10938.21 3862.06)
(-2081.353 11765.94 6812.778)
(-2613.397 12825.43 10232.33)
(-3230.675 14275.62 13385.21)
(-2417.678 22234.71 20158.65)
(-1202.544 15733.57 1159.933)
(-1378.578 16687.26 3651.696)
(-1616.322 17802.06 6395.442)
(-1953.763 19151.29 9489.656)
(-2442.723 20876.45 12130.6)
(-4112.688 31860.62 17363.54)
(-2236.543 36176.1 17908.02)
(-973.2674 19634.97 1125.265)
(-1096.17 20740.56 3529.907)
(-1255.208 22004.25 6153.013)
(-1468.901 23482.73 9065.568)
(-1769.247 25272.3 11450.33)
(-3013.874 37788.99 16083.52)
(-3659.785 42051.71 15932.22)
(-1977.332 47751.25 17939.95)
(-772.0011 20702.47 1133.415)
(-857.9272 21801.44 3546.671)
(-965.1955 23040.81 6164.06)
(-1103.435 24460.25 9041.714)
(-1287.725 26123.34 11342.1)
(-2116.71 38580.15 15880.17)
(-2604.832 42088.44 15706.74)
(-3107.657 46865.97 17283.41)
(-1661.256 53258.94 19572.55)
(-606.3859 17294.11 1180.397)
(-666.7645 18165.09 3687.684)
(-740.0643 19134.03 6398.085)
(-831.2695 20224.83 9360.637)
(-948.1354 21472.1 11693.77)
(-1512.361 31444.19 16462.24)
(-1801.696 33856.79 16549.5)
(-2187.761 36936.97 18342.66)
(-2544.346 41131.84 20653.76)
(-1338.327 46765.91 34612.04)
(-490.9032 11485.95 1122.973)
(-535.25 12036.39 3501.2)
(-587.8267 12639.12 6060.327)
(-651.5376 13305.34 8839.94)
(-730.5812 14050.96 11000.2)
(-1140.68 20435.1 15409.31)
(-1323.207 21796.6 15387.97)
(-1566.157 23441.54 16874.3)
(-1875.69 25541.63 18675.28)
(-2121.175 28411.24 30611.2)
(-525.3349 15952.05 24523.44)
(-414.8905 6685.889 1042.584)
(-449.2818 6993.358 3244.645)
(-489.2964 7326.103 5604.446)
(-536.6951 7689.03 8154.339)
(-594.0554 8088.736 10115.41)
(-912.5907 11707.47 14075.32)
(-1038.081 12408.64 13897.57)
(-1201.109 13225.84 15046.21)
(-1414.007 14213.41 16385.23)
(-1673.717 15477.11 26262.6)
(-887.3823 8374.24 20336.01)
(-405.6464 8659.943 24986.49)
(-364.8404 3359.016 974.5669)
(-392.885 3508.151 3028.516)
(-424.9911 3668.24 5222.497)
(-462.3315 3841.196 7583.783)
(-506.5387 4029.545 9385.531)
(-768.4284 5812.054 12990.53)
(-860.7131 6133.055 12711.39)
(-978.1362 6497.859 13627.68)
(-1129.744 6923.271 14671.69)
(-1325.015 7438.096 23160.43)
(-751.3386 3915.437 17436.38)
(-739.5251 3891.644 20705.69)
(-325.4477 3693.479 23996.32)
(-331.64 996.9497 923.2396)
(-355.5024 1039.821 2865.748)
(-382.4525 1085.562 4935.669)
(-413.3022 1134.63 7156.75)
(-449.1755 1187.605 8841.35)
(-674.637 1708.327 12195.49)
(-746.5032 1796.609 11867.84)
(-835.8912 1895.211 12646.84)
(-949.4615 2007.309 13520.1)
(-1095.625 2138.125 21151.39)
(-620.7094 1108.334 15671.37)
(-669.703 1072.985 18167.91)
(-636.8351 993.7901 20683.01)
(-270.3669 849.5989 23471.21)
(-1235.731 -38523.76 2106.624)
(-2698.591 -30566.15 1752.319)
(-1462.54 -34713.23 5998.567)
(-2454.171 -20857.72 1542.038)
(-3021.906 -23208.2 5081.523)
(-1646.632 -26361.82 9698.609)
(-2084.017 -11764.08 1403.24)
(-2619.206 -12822.4 4527.955)
(-3243.119 -14272.17 8265.068)
(-1772.014 -16213.18 13343.34)
(-1769.439 -3676.633 1299.825)
(-2146.502 -3954.748 4144.112)
(-2701.23 -4310.983 7399.915)
(-3351.789 -4799.197 11374.39)
(-1832.814 -5451.765 15684.67)
(-1506.023 3446.95 1216.958)
(-1768.709 3676.778 3851.192)
(-2144.745 3955.04 6794.56)
(-2697.769 4311.393 10208.38)
(-3344.657 4799.571 13365.61)
(-2507.014 7476.189 20174.35)
(-1275.472 9669.357 1149.248)
(-1462.768 10255.05 3618.265)
(-1716.527 10939.43 6337.537)
(-2078.791 11767.8 9406.335)
(-2608.905 12827.87 12032.35)
(-4420.361 19580.96 17231.09)
(-2412.42 22235.88 17818.29)
(-1066.863 14898.05 1096.914)
(-1202.005 15735.18 3440.829)
(-1377.374 16690.64 5997.34)
(-1614.245 17807.36 8837.076)
(-1950.416 19158.66 11166.35)
(-3343.507 28641.71 15642.57)
(-4104.494 31872.88 15401.95)
(-2231.614 36188.63 17357.31)
(-875.0404 18652.27 1067.809)
(-972.7802 19638.85 3340.425)
(-1095.101 20748.71 5803.03)
(-1253.412 22017.1 8509.756)
(-1466.139 23500.77 10675.1)
(-2421.45 34687.31 14827.11)
(-3008.496 37821.69 14396.6)
(-3651.983 42094.34 15589.25)
(-1972.695 47801.62 17531.33)
(-701.3857 19716.48 1078.676)
(-771.54 20709.35 3368.108)
(-856.9276 21815.88 5838.669)
(-963.5453 23063.59 8535.801)
(-1100.963 24492.28 10657.92)
(-1761.789 35876.51 14822.07)
(-2112.368 38638.74 14503.85)
(-2599.212 42165.92 15677.56)
(-3099.781 46965.64 17248.59)
(-1656.628 53380.92 28372.33)
(-555.5286 16504.15 1126.202)
(-605.9318 17298.03 3512.219)
(-665.7876 18173.28 6081.396)
(-738.4694 19146.88 8874.557)
(-828.92 20242.78 11049.65)
(-1296.376 29475.32 15483.12)
(-1508.397 31477.02 15461.73)
(-1796.77 33900.23 16963.48)
(-2181.302 36992.61 18797.41)
(-2535.547 41201.39 30897.86)
(-642.1633 23812.75 25061.77)
(-452.8168 10979.43 1073.578)
(-490.491 11484.51 3342.419)
(-534.37 12033.35 5776.192)
(-586.4044 12634.25 8408.798)
(-649.4698 13298.36 10437.22)
(-998.549 19258.66 14571.42)
(-1137.34 20423.08 14483.55)
(-1319.217 21781.53 15781.22)
(-1561.224 23422.67 17298.23)
(-1869.294 25517.73 27942.6)
(-1016.391 14041.06 22071.72)
(-472.2721 15306.05 28170.74)
(-384.8605 6399.976 998.3925)
(-414.5229 6683.648 3103.435)
(-448.5022 6988.653 5353.564)
(-488.0462 7318.669 7776.962)
(-534.8959 7678.547 9628.246)
(-811.7924 11076.61 13362.61)
(-909.7895 11689.4 13148.73)
(-1034.836 12385.86 14171.55)
(-1197.27 13197.6 15338.39)
(-1409.314 14178.67 24361.36)
(-805.4161 7513.69 18604.86)
(-804.7475 7618.381 22615.72)
(-356.2332 7387.093 26870.16)
(-340.0106 3219.344 934.562)
(-364.5084 3357.588 2901.286)
(-392.1846 3505.161 4997.701)
(-423.8749 3663.533 7247.925)
(-460.7371 3834.587 8955.513)
(-692.1255 5515.883 12369.68)
(-766.0125 5800.771 12071.38)
(-857.9758 6118.914 12898.28)
(-974.9874 6480.48 13825.72)
(-1126.045 6902.161 21695.54)
(-638.9858 3585.037 16186.71)
(-691.1936 3490.273 18967.33)
(-660.9139 3247.257 21807.74)
(-280.5724 2769.576 24971.9)
(-310.2676 956.5899 886.377)
(-331.3347 996.4968 2748.935)
(-354.8608 1038.874 4730.142)
(-381.4347 1084.076 6851.237)
(-411.8567 1132.548 8452.626)
(-613.7106 1625.466 11639.28)
(-672.4874 1704.8 11301.88)
(-744.1019 1792.209 12011.72)
(-833.1793 1889.835 12798.65)
(-946.3526 2000.83 19936.05)
(-528.7146 1028.372 14681.75)
(-574.5047 982.531 16865.74)
(-609.195 891.3686 18957.23)
(-560.3001 747.5438 21378.21)
(-227.8912 531.8793 16395.79)
(-1003.713 -33898.18 2245.681)
(-2301.193 -33924.32 1842.043)
(-1234.673 -38532.33 6227.772)
(-2213.81 -27483.52 1576.79)
(-2696.772 -30571.07 5182.075)
(-1460.391 -34721.01 9802.658)
(-1958.992 -19140.27 1415.077)
(-2452.955 -20859.58 4562.993)
(-3018.283 -23211.67 8314.545)
(-1643.352 -26364.44 13349.18)
(-1718.674 -10937.61 1303.447)
(-2083.109 -11764.7 4155.025)
(-2616.842 -12823.61 7416.943)
(-3237.715 -14273.64 11390.64)
(-1767.595 -16212.98 15666.16)
(-1506.023 -3446.95 1216.958)
(-1768.709 -3676.778 3851.192)
(-2144.745 -3955.04 6794.56)
(-2697.769 -4311.393 10208.38)
(-3344.657 -4799.571 13365.61)
(-2507.014 -7476.189 20174.35)
(-1312.4 3250.257 1145.852)
(-1505.407 3447.091 3607.7)
(-1767.294 3677.068 6319.425)
(-2142.18 3955.477 9380.812)
(-2693.256 4311.941 12003.82)
(-4576.547 6582.83 17198.62)
(-2501.671 7476.078 17815.8)
(-1131.355 9155.909 1086.676)
(-1274.937 9669.921 3408.769)
(-1461.572 10256.23 5941.609)
(-1714.458 10941.25 8756.003)
(-2075.448 11770.29 11067.29)
(-3571.372 17596.12 15494.08)
(-4411.981 19584.6 15235.35)
(-2407.346 22238.4 17216.23)
(-959.0266 14152.69 1040.689)
(-1066.386 14899.59 3255.319)
(-1200.959 15738.41 5654.46)
(-1375.614 16695.72 8291.729)
(-1611.531 17814.44 10403.43)
(-2669.971 26285.64 14402.67)
(-3338.176 28654.14 13876.35)
(-4096.561 31888.49 14934.9)
(-2226.853 36205.05 16805.93)
(-794.8596 17764.71 1015.902)
(-874.6029 18655.98 3171.089)
(-971.8321 19646.62 5494.443)
(-1093.535 20760.95 8029.677)
(-1251.064 22034.25 10024.68)
(-2006.672 32256.38 13826.06)
(-2417.366 34718.26 13272.32)
(-3003.234 37862.21 14088.01)
(-3644.377 42145.65 15244.6)
(-1968.186 47861.91 24809.15)
(-642.4266 18817.73 1028.747)
(-700.9671 19723.06 3206.506)
(-770.6404 20723.13 5547.208)
(-855.4598 21837.59 8088.559)
(-961.3829 23094.05 10064.98)
(-1506.277 33637.04 13930.2)
(-1758.224 35931.74 13537.24)
(-2108.032 38711.24 14476.6)
(-2593.604 42258.63 15646.65)
(-3091.954 47082.34 25026.24)
(-804.2331 27433.32 18815.96)
(-512.3093 15778.87 1076.37)
(-555.1125 16507.92 3351.89)
(-605.0427 17305.89 5794.184)
(-664.3489 18185.61 8438.145)
(-736.3743 19164.09 10478.75)
(-1133.361 27788.22 14631.89)
(-1292.979 29506.62 14541.15)
(-1504.328 31518.22 15846.99)
(-1791.713 33952.7 17381.58)
(-2174.672 37058.12 28115.92)
(-1220.515 21023.77 22396.01)
(-584.6248 25314.29 29554.17)
(-419.9539 10511.76 1027.866)
(-452.4364 10978.08 3196.205)
(-489.6832 11481.66 5516.098)
(-533.0731 12028.8 8017.013)
(-584.535 12627.77 9930.643)
(-887.67 18227.39 13826.95)
(-995.6105 19247.62 13694.99)
(-1133.908 20409.35 14852.31)
(-1315.119 21764.57 16175.54)
(-1556.158 23401.69 25876.43)
(-900.1528 12620.73 20133.73)
(-921.1597 13516.27 25354.52)
(-412.686 14124.98 31574.79)
(-358.6152 6134.755 957.2824)
(-384.5193 6397.844 2972.598)
(-413.8023 6679.182 5122.2)
(-447.3529 6981.614 7430.97)
(-486.4029 7308.773 9184.796)
(-730.9339 10515.05 12720.17)
(-809.284 11059.67 12482.16)
(-906.9291 11668.12 13406.93)
(-1031.524 12359.66 14445.31)
(-1193.349 13165.69 22801.29)
(-679.4886 6886.099 17248.69)
(-739.091 6843.597 20668.58)
(-714.666 6514.71 24310.99)
(-303.2796 5628.556 28465)
(-318.0756 3089.264 897.1901)
(-339.7011 3217.982 2782.821)
(-363.8576 3354.742 4789.185)
(-391.1517 3500.69 6937.836)
(-422.4074 3657.272 8560.787)
(-629.5303 5249.085 11803.93)
(-689.9353 5505.246 11493.88)
(-763.5583 5787.481 12248.14)
(-855.195 6102.651 13084.76)
(-971.7884 6460.851 20442.31)
(-543.2935 3327.646 15157.54)
(-590.5993 3197.763 17594.9)
(-626.9071 2915.169 19961.85)
(-578.1461 2440.45 22688.67)
(-234.1186 1695.96 17499.93)
(-291.2147 918.8688 851.8216)
(-309.9819 956.1574 2639.743)
(-330.736 995.5943 4538.625)
(-353.9143 1037.459 6567.631)
(-380.096 1082.098 8093.468)
(-562.7118 1550.13 11128.45)
(-611.744 1622.13 10785.98)
(-670.3096 1700.647 11438.36)
(-741.6693 1787.152 12155.22)
(-830.4317 1883.767 18870.71)
(-456.6383 962.5451 13834.76)
(-489.9735 912.0383 15792.87)
(-525.7077 816.6692 17588.99)
(-545.9424 671.1382 19585.24)
(-481.3966 469.6055 14933.24)
(-1665.373 2624.94 52026.15)
(-827.2967 -23767.8 2191.82)
(-1897.147 -29813.83 1992.456)
(-1002.7 -33901.59 6650.351)
(-1920.053 -30509.32 1664.613)
(-2299.425 -33933.93 5452.82)
(-1232.631 -38549.84 10192.47)
(-1777.921 -25224.98 1448.967)
(-2212.597 -27488.43 4667.653)
(-2693.268 -30581.01 8483.785)
(-1457.265 -34732.98 13500.03)
(-1618.478 -17796.76 1315.005)
(-1958.083 -19142.1 4190.613)
(-2450.607 -20863.31 7475.659)
(-3013.014 -23216.95 11460.79)
(-1639.079 -26368.09 15675.31)
(-1463.385 -10254.47 1220.481)
(-1717.943 -10938.21 3862.06)
(-2081.353 -11765.94 6812.778)
(-2613.397 -12825.43 10232.33)
(-3230.675 -14275.62 13385.21)
(-2417.678 -22234.71 20158.65)
(-1312.4 -3250.257 1145.852)
(-1505.407 -3447.091 3607.7)
(-1767.294 -3677.068 6319.425)
(-2142.18 -3955.477 9380.812)
(-2693.256 -4311.941 12003.82)
(-4576.547 -6582.83 17198.62)
(-2501.671 -7476.078 17815.8)
(-1164.009 3077.667 1083.415)
(-1311.866 3250.392 3398.59)
(-1504.212 3447.372 5924.016)
(-1765.226 3677.502 8730.665)
(-2138.834 3956.061 11036.95)
(-3687.023 5914.332 15450.8)
(-4568.064 6583.568 15191.91)
(-2496.518 7476.289 17197.71)
(-1016.895 8697.896 1030.879)
(-1130.882 9156.449 3224.606)
(-1273.897 9671.047 5601.036)
(-1459.822 10257.99 8213.743)
(-1711.756 10943.69 10307.1)
(-2841.45 16145.8 14254.85)
(-3566.022 17600.17 13700.12)
(-4403.889 19589.36 14725.14)
(-2402.455 22242.26 16614.02)
(-871.0506 13479.51 989.9313)
(-958.5987 14154.17 3089.691)
(-1065.458 14902.68 5352.531)
(-1199.426 15743.26 7821.658)
(-1373.313 16702.48 9765.532)
(-2206.137 24441.71 13421.44)
(-2665.971 26297.62 12776.77)
(-3333.007 28669.57 13456.48)
(-4088.89 31907.44 14467.13)
(-2222.259 36225.32 23516.2)
(-727.9407 16955.62 968.6039)
(-794.4628 17768.26 3018.015)
(-873.7507 18663.4 5218.435)
(-970.4418 19658.29 7606.076)
(-1091.486 20777.28 9462.605)
(-1712.314 30243.84 12986.02)
(-2003.341 32285.65 12376.43)
(-2413.369 34756.4 12988.16)
(-2998.091 37910.53 13777.88)
(-3636.969 42205.6 21590.77)
(-961.0916 24299.33 15433.07)
(-592.3403 17992.36 982.8862)
(-642.0434 18824.04 3059.024)
(-700.1494 19736.25 5283.238)
(-769.3183 20743.86 7687.697)
(-853.5352 21866.62 9540.566)
(-1315.304 31717.13 13157.13)
(-1503.233 33689.3 12722.59)
(-1754.664 35999.92 13511.6)
(-2103.704 38797.75 14447.75)
(-2588.009 42366.7 22703.07)
(-1505.141 24244.04 16631.81)
(-760.6506 29934.14 18496.13)
(-475.0314 15108.91 1030.293)
(-511.9257 15782.5 3204.397)
(-554.2973 16515.48 5531.586)
(-603.7325 17317.74 8042.142)
(-662.458 18202.12 9965.973)
(-1006.813 26307.77 13877.36)
(-1130.382 27818.09 13741.09)
(-1289.493 29545.76 14902.57)
(-1500.153 31567.81 16236.09)
(-1786.525 34014.25 25994.18)
(-1051.627 18925.25 20371.09)
(-1118.813 22430.51 26447.96)
(-517.9148 27682.6 35496.97)
(-391.243 10077.73 985.369)
(-419.601 10510.49 3060.834)
(-451.6905 10975.4 5276.454)
(-488.492 11477.39 7658.2)
(-531.3676 12022.74 9470.131)
(-798.9066 17308.45 13157.02)
(-885.0438 18217.16 12994.6)
(-992.5932 19234.97 14042.73)
(-1130.386 20393.84 15222.07)
(-1310.912 21745.63 24193.48)
(-750.7717 11578.95 18635.58)
(-825.4242 12165.4 23106.02)
(-813.8017 12508.16 28417.35)
(-345.9745 11855.33 35109.09)
(-335.4356 5887.651 918.894)
(-358.2972 6132.722 2850.835)
(-383.8501 6393.594 4907.715)
(-412.7395 6672.498 7111.74)
(-445.8413 6972.242 8778.075)
(-664.6568 10008.8 12135.33)
(-728.6624 10499.09 11881.45)
(-806.7233 11039.68 12726.53)
(-904.0094 11643.62 13664.92)
(-1028.142 12330 21471.31)
(-575.6655 6395.831 16138.34)
(-626.5886 6276.075 19147.6)
(-666.6913 5858.215 22200.81)
(-617.9734 4974.535 25749.05)
(-247.5949 3332.218 20146.62)
(-298.5236 2967.663 862.1639)
(-317.7861 3087.963 2672.108)
(-339.0938 3215.268 4594.932)
(-362.8974 3350.485 6650.07)
(-389.7932 3494.741 8196.214)
(-577.1489 5006.421 11284.57)
(-627.5276 5239.021 10967.73)
(-687.7109 5492.7 11661.63)
(-761.0659 5772.179 12424.51)
(-852.3709 6084.263 19345.15)
(-468.837 3115.528 14278.42)
(-502.8332 2969.434 16467.91)
(-539.0092 2672.294 18507.28)
(-559.1753 2192.843 20758.25)
(-492.3679 1498.923 15899.58)
(-1694.901 7910.072 55474.61)
(-274.0971 883.5017 819.3386)
(-290.9466 918.4551 2537.345)
(-309.4212 955.2953 4359.509)
(-329.8522 994.2445 6303.238)
(-352.6688 1035.576 7759.948)
(-519.3106 1481.096 10656.42)
(-560.9005 1546.964 10312.24)
(-609.752 1618.196 10915.81)
(-668.1038 1695.869 11574.49)
(-739.2053 1781.438 17920.88)
(-400.6047 906.3839 13093.05)
(-423.1597 853.934 14876.54)
(-449.1464 758.3541 16463.9)
(-474.7714 615.2153 18164.92)
(-480.6635 422.1663 13678.01)
(-3576.939 2329.659 47455.21)
(-1542.165 1758.463 30728.56)
(-711.474 -14606.92 2092.225)
(-1591.261 -20845.41 1965.763)
(-826.3925 -23761.66 6493.07)
(-1621.761 -26798.85 1808.789)
(-1895.4 -29818.78 5906.687)
(-1000.738 -33908.79 10907.97)
(-1556.214 -28003.84 1532.702)
(-1918.816 -30518.6 4932.014)