/*--------------------------------*- C++ -*----------------------------------*\
| =========                 |                                                 |
| \\      /  F ield         | OpenFOAM: The Open Source CFD Toolbox           |
|  \\    /   O peration     | Version:  2306                                  |
|   \\  /    A nd           | Website:  www.openfoam.com                      |
|    \\/     M anipulation  |                                                 |
\*---------------------------------------------------------------------------*/
FoamFile
{
    version     2.0;
    format      ascii;
    arch        "LSB;label=32;scalar=64";
    class       volScalarField;
    location    "1.5/phiEA";
    object      phi;
}
// * * * * * * * * * * * * * * * * * * * * * * * * * * * * * * * * * * * * * //

dimensions      [1 2 -3 0 0 -1 0];

internalField   nonuniform List<scalar> 
20000
(
-0.00485966
-0.004997126
-0.004509745
-0.004855133
-0.005301386
-0.004629397
-0.004992515
-0.004161762
-0.004505619
-0.004846251
-0.005831808
-0.00489483
-0.005296604
-0.00426871
-0.004625205
-0.004983467
-0.003863882
-0.004157976
-0.004497515
-0.004833137
-0.006659546
-0.005359067
-0.005826798
-0.004506274
-0.004890506
-0.00528722
-0.003961675
-0.004264869
-0.004616971
-0.004970107
-0.003611897
-0.003860368
-0.004150532
-0.004485539
-0.004815867
-0.007768846
-0.006085996
-0.006654413
-0.004922516
-0.005354574
-0.005816966
-0.004179079
-0.004502321
-0.004882012
-0.005273363
-0.003702585
-0.003958112
-0.004257315
-0.004604802
-0.004952512
-0.00339584
-0.003608609
-0.003853454
-0.004139524
-0.004469757
-0.004797371
-0.008860904
-0.007062714
-0.007764031
-0.005575462
-0.006081442
-0.006644345
-0.00456042
-0.004918421
-0.005345744
-0.005802446
-0.003904309
-0.004175417
-0.004494546
-0.004869455
-0.00525511
-0.003480687
-0.003699252
-0.0039511
-0.004246143
-0.004588765
-0.004933667
-0.003207582
-0.003392745
-0.003602134
-0.003843222
-0.00412501
-0.004452848
-0.004781559
-0.009752245
-0.008024529
-0.008856261
-0.006453879
-0.007058504
-0.007754612
-0.005159275
-0.005571328
-0.006072495
-0.006629481
-0.004258423
-0.004556634
-0.004910365
-0.00533269
-0.005783316
-0.003669503
-0.003900886
-0.004168208
-0.004483044
-0.004852905
-0.005235557
-0.003287452
-0.003477551
-0.003692688
-0.003940721
-0.00423141
-0.004571581
-0.004917514
-0.003040981
-0.003204656
-0.003386647
-0.003592546
-0.003829723
-0.004109452
-0.004438398
-0.004765536
-0.01036716
-0.008809352
-0.009747645
-0.007318852
-0.008020523
-0.008847193
-0.005965541
-0.006450074
-0.007050251
-0.007740734
-0.004814942
-0.00515546
-0.005563196
-0.006059269
-0.006609901
-0.004001153
-0.004254888
-0.004549178
-0.004898444
-0.005315479
-0.005762821
-0.003465256
-0.003666285
-0.003894144
-0.004157537
-0.004467874
-0.00483517
-0.005218713
-0.003116503
-0.003284488
-0.003471371
-0.003682967
-0.003927028
-0.004215618
-0.004556858
-0.004901103
-0.002891645
-0.003038207
-0.003198888
-0.003377611
-0.003579891
-0.003815249
-0.004096161
-0.004423758
-0.0047493
-0.01067875
-0.009350613
-0.01036256
-0.008024366
-0.008805422
-0.00973867
-0.006759494
-0.007315248
-0.008012684
-0.008833854
-0.005564614
-0.005962038
-0.006442606
-0.007038074
-0.007722488
-0.004522666
-0.004811384
-0.005147949
-0.005551165
-0.006041835
-0.006588924
-0.003777707
-0.003997831
-0.004247922
-0.004538137
-0.004882719
-0.005297032
-0.005745065
-0.003284675
-0.003462215
-0.00365994
-0.003884157
-0.004143455
-0.004451611
-0.004819895
-0.005201515
-0.002963302
-0.003113693
-0.003278644
-0.003462213
-0.003670135
-0.003912346
-0.004202091
-0.004541902
-0.004884433
-0.00275634
-0.002889006
-0.003032733
-0.003190339
-0.003365682
-0.003566317
-0.003802886
-0.004082699
-0.004408929
-0.004732854
-0.01067875
-0.009624822
-0.01067414
-0.008510722
-0.009346706
-0.01035358
-0.007406968
-0.008020841
-0.008797737
-0.009725476
-0.006302897
-0.006756182
-0.007308183
-0.008001132
-0.008816336
-0.00522547
-0.005561352
-0.005955154
-0.006431575
-0.007022047
-0.007702966
-0.004269253
-0.004519327
-0.004804376
-0.005136829
-0.005535295
-0.006023146
-0.006570781
-0.003580314
-0.003774571
-0.003991282
-0.004237601
-0.004523565
-0.004865857
-0.005281051
-0.005726838
-0.003122907
-0.003281793
-0.003456218
-0.003650538
-0.003870972
-0.004128353
-0.004437609
-0.004804302
-0.005183964
-0.002824518
-0.002960629
-0.003108148
-0.003269981
-0.003450121
-0.003656372
-0.003899772
-0.004188356
-0.004526716
-0.004867507
-0.002632693
-0.002753825
-0.002883798
-0.003024616
-0.003179045
-0.003352882
-0.003554725
-0.003790367
-0.004069068
-0.004393911
-0.004557967
-0.01036716
-0.009624822
-0.01067414
-0.00875704
-0.00962092
-0.01066515
-0.007853224
-0.008507224
-0.009339065
-0.01034039
-0.006904942
-0.007403734
-0.008013936
-0.008786418
-0.009708157
-0.005917663
-0.006299817
-0.006749683
-0.00729776
-0.007985942
-0.008797607
-0.004931886
-0.005222412
-0.005554937
-0.005944978
-0.006417046
-0.007004891
-0.007686544
-0.004045581
-0.004266102
-0.004512744
-0.004793993
-0.005122151
-0.005518277
-0.006006975
-0.006552183
-0.003403577
-0.003577343
-0.003768384
-0.003981573
-0.004223972
-0.004507935
-0.004851254
-0.005264645
-0.005708138
-0.002976406
-0.003120167
-0.003276105
-0.003447327
-0.00363812
-0.003856828
-0.004115355
-0.004423321
-0.004788393
-0.005166059
-0.002697708
-0.002821972
-0.002955355
-0.003099925
-0.003258537
-0.003437146
-0.003644587
-0.003887007
-0.004174412
-0.0045113
-0.004687084
-0.002518895
-0.002630291
-0.002748859
-0.002876072
-0.003013892
-0.003166926
-0.003341952
-0.003542988
-0.003777693
-0.004055267
-0.004234255
-0.004204708
-0.009752245
-0.009350613
-0.01036256
-0.00875704
-0.00962092
-0.01066515
-0.008079201
-0.00875355
-0.009613289
-0.01065194
-0.007319855
-0.007850017
-0.008500372
-0.009327814
-0.01032308
-0.006482124
-0.006901936
-0.00739739
-0.008003754
-0.008771541
-0.009689647
-0.005584574
-0.005914777
-0.006293767
-0.006740085
-0.007284044
-0.007969694
-0.008782148
-0.004672958
-0.004929003
-0.005216391
-0.005545448
-0.005931568
-0.006401486
-0.006990447
-0.007670165
-0.003845423
-0.004042598
-0.004259888
-0.004502985
-0.004780283
-0.005106407
-0.005503553
-0.005990391
-0.006533126
-0.003243579
-0.003400754
-0.003571478
-0.003759209
-0.003968747
-0.004209349
-0.004494401
-0.004836267
-0.005247815
-0.005688965
-0.002842577
-0.002973796
-0.003114758
-0.003267669
-0.00343558
-0.003624794
-0.003844655
-0.004102093
-0.004408747
-0.004772167
-0.004974358
-0.002581013
-0.002695276
-0.002816942
-0.002947528
-0.003089059
-0.003246254
-0.003426038
-0.003632625
-0.003874052
-0.004160262
-0.004347015
-0.00431866
-0.002413552
-0.002516598
-0.002625546
-0.002741489
-0.00286586
-0.003002379
-0.003156577
-0.003330887
-0.003531108
-0.003764864
-0.003908586
-0.00391211
-0.003833685
-0.008860904
-0.008809352
-0.009747645
-0.008510722
-0.009346706
-0.01035358
-0.008079201
-0.00875355
-0.009613289
-0.01065194
-0.007529948
-0.008076002
-0.008746714
-0.009602054
-0.01063461
-0.006871125
-0.007316876
-0.007843727
-0.008490271
-0.009313029
-0.01030459
-0.006116829
-0.006479309
-0.006896035
-0.007388026
-0.007990359
-0.008755631
-0.009674494
-0.005290967
-0.005581855
-0.005909103
-0.006284826
-0.006727446
-0.007269363
-0.007956274
-0.008767029
-0.004441349
-0.004670229
-0.004923324
-0.00520748
-0.005532935
-0.005917198
-0.006388385
-0.00697603
-0.007653831
-0.003664288
-0.003842589
-0.00403671
-0.004250671
-0.004490094
-0.004765571
-0.005092787
-0.005488456
-0.00597339
-0.006513605
-0.003097463
-0.00324089
-0.003395178
-0.003562776
-0.003747083
-0.003954981
-0.004196689
-0.004480516
-0.004820897
-0.005230558
-0.005482647
-0.002719447
-0.002840084
-0.00296864
-0.003106731
-0.003256519
-0.003422971
-0.003613327
-0.003832238
-0.00408857
-0.004393888
-0.004598471
-0.004574452
-0.002472998
-0.002578687
-0.002690472
-0.002809478
-0.002937184
-0.003077393
-0.003235739
-0.003414764
-0.003620487
-0.003860907
-0.004009514
-0.004011896
-0.003928032
-0.002315564
-0.002411352
-0.002512058
-0.002618503
-0.002731745
-0.002854895
-0.002992549
-0.003146101
-0.003319688
-0.003519084
-0.003628538
-0.003612973
-0.003574009
-0.003447982
-0.007768846
-0.008024529
-0.008856261
-0.008024366
-0.008805422
-0.00973867
-0.007853224
-0.008507224
-0.009339065
-0.01034039
-0.007529948
-0.008076002
-0.008746714
-0.009602054
-0.01063461
-0.007068093
-0.007526977
-0.008069729
-0.008736636
-0.009587291
-0.01061609
-0.006483635
-0.006868335
-0.007311027
-0.007834445
-0.008476984
-0.00929722
-0.01028949
-0.005794956
-0.006114178
-0.006473777
-0.006887318
-0.007375699
-0.007976027
-0.008742601
-0.0096598
-0.005028421
-0.005288395
-0.005576505
-0.005900713
-0.006273046
-0.006713913
-0.007257238
-0.00794314
-0.008752249
-0.004231814
-0.004438759
-0.004664851
-0.004914913
-0.005195724
-0.005519523
-0.005905101
-0.006375308
-0.006961641
-0.007637544
-0.003498916
-0.00366159
-0.003836994
-0.004027974
-0.004238492
-0.004476256
-0.004752846
-0.005078824
-0.005472982
-0.005955968
-0.006303696
-0.002963063
-0.003094896
-0.003235577
-0.003386901
-0.003551272
-0.003734065
-0.003943065
-0.004183702
-0.004466277
-0.004805142
-0.005044868
-0.005040322
-0.002605496
-0.002717063
-0.00283516
-0.002960986
-0.00309612
-0.003244548
-0.003412121
-0.003601631
-0.003819578
-0.004074785
-0.004234873
-0.004236414
-0.004141475
-0.002372532
-0.00247077
-0.00257409
-0.002683339
-0.002799608
-0.002926076
-0.003067408
-0.003225069
-0.003403325
-0.003608172
-0.003720899
-0.003702389
-0.003656825
-0.003518782
-0.002224044
-0.002313453
-0.002407002
-0.002505316
-0.002609188
-0.00272128
-0.002845534
-0.002982599
-0.003135499
-0.003308354
-0.003391329
-0.003354024
-0.003302989
-0.003222676
-0.003051312
-0.006659546
-0.007062714
-0.007764031
-0.007318852
-0.008020523
-0.008847193
-0.007406968
-0.008020841
-0.008797737
-0.009725476
-0.007319855
-0.007850017
-0.008500372
-0.009327814
-0.01032308
-0.007068093
-0.007526977
-0.008069729
-0.008736636
-0.009587291
-0.01061609
-0.006669364
-0.007065312
-0.007521145
-0.008060472
-0.00872338
-0.009571504
-0.01060099
-0.006142284
-0.006481008
-0.006862854
-0.00730239
-0.007822227
-0.008462768
-0.009284311
-0.01027489
-0.005507193
-0.005792448
-0.006108964
-0.0064656
-0.006875836
-0.007362503
-0.007964289
-0.008729961
-0.009645565
-0.004790944
-0.00502598
-0.005283331
-0.005568591
-0.005889653
-0.006260426
-0.006702735
-0.007245369
-0.007930292
-0.00873781
-0.004040557
-0.004229349
-0.004433651
-0.004656883
-0.004903813
-0.005183119
-0.005508232
-0.005893025
-0.006362256
-0.006947283
-0.007467043
-0.003346843
-0.003496342
-0.00365626
-0.003828689
-0.004016425
-0.004225415
-0.004464289
-0.004739802
-0.005064515
-0.005457127
-0.005768559
-0.005849957
-0.002838711
-0.002960609
-0.003089823
-0.003227687
-0.003375958
-0.003538919
-0.003722798
-0.003930842
-0.004170387
-0.004451685
-0.004635655
-0.004646761
-0.004543623
-0.002499526
-0.002603214
-0.002712353
-0.002827848
-0.002950864
-0.003084724
-0.003234248
-0.003401056
-0.003589708
-0.003806674
-0.003927291
-0.003903829
-0.003844614
-0.00367878
-0.002278706
-0.002370396
-0.002466366
-0.002567263
-0.002673905
-0.002789008
-0.002916567
-0.003057275
-0.003214242
-0.003391722
-0.003477026
-0.003435902
-0.00337727
-0.003284972
-0.003095635
-0.002138268
-0.002222018
-0.00230928
-0.00240054
-0.002496398
-0.002599183
-0.002712346
-0.002836059
-0.002972529
-0.00312477
-0.003187943
-0.003134219
-0.003066347
-0.002981066
-0.002861402
-0.002789064
-0.005831808
-0.006085996
-0.006654413
-0.006453879
-0.007058504
-0.007754612
-0.006759494
-0.007315248
-0.008012684
-0.008833854
-0.006904942
-0.007403734
-0.008013936
-0.008786418
-0.009708157
-0.006871125
-0.007316876
-0.007843727
-0.008490271
-0.009313029
-0.01030459
-0.006669364
-0.007065312
-0.007521145
-0.008060472
-0.00872338
-0.009571504
-0.01060099
-0.00631815
-0.006666745
-0.007059847
-0.007512533
-0.008048287
-0.008709199
-0.009558626
-0.0105864
-0.005837146
-0.0061398
-0.006475843
-0.006854754
-0.007291014
-0.007809148
-0.00845116
-0.009271827
-0.01026079
-0.00524694
-0.005504814
-0.005787515
-0.006101253
-0.006454824
-0.006863539
-0.007351695
-0.0079529
-0.00871771
-0.00963179
-0.004574215
-0.004788622
-0.005021173
-0.005275836
-0.005558152
-0.0058778
-0.006250002
-0.006691792
-0.007233758
-0.007917732
-0.008589806
-0.003864713
-0.004038206
-0.004224485
-0.004426079
-0.004646363
-0.004891908
-0.005172507
-0.005496961
-0.005880973
-0.00634923
-0.006796849
-0.007149846
-0.003206168
-0.003344382
-0.003491255
-0.003648346
-0.003817707
-0.004004022
-0.004214105
-0.004452021
-0.004726435
-0.005049855
-0.0052866
-0.005362769
-0.005318556
-0.00272309
-0.002836361
-0.002955758
-0.003082288
-0.003217252
-0.003364203
-0.003528227
-0.00371124
-0.003918311
-0.004156743
-0.004294741
-0.004272688
-0.004199718
-0.003987828
-0.002400573
-0.002497338
-0.002598702
-0.002705356
-0.002818175
-0.002939992
-0.003074919
-0.003223744
-0.003389776
-0.003577556
-0.003668632
-0.003620504
-0.00354592
-0.003426047
-0.003192642
-0.002190775
-0.002276655
-0.002366172
-0.002459824
-0.002558232
-0.002663771
-0.002779935
-0.002906919
-0.003046994
-0.003203261
-0.003268155
-0.003210223
-0.003134403
-0.003036994
-0.002900536
-0.002815313
-0.002057635
-0.002136321
-0.00221801
-0.002303079
-0.00239199
-0.002486817
-0.002590641
-0.002703303
-0.00282647
-0.00296234
-0.003010797
-0.002945713
-0.0028649
-0.002767724
-0.002650148
-0.002622526
-0.002643442
-0.005301386
-0.005359067
-0.005826798
-0.005575462
-0.006081442
-0.006644345
-0.005965541
-0.006450074
-0.007050251
-0.007740734
-0.006302897
-0.006756182
-0.007308183
-0.008001132
-0.008816336
-0.006482124
-0.006901936
-0.00739739
-0.008003754
-0.008771541
-0.009689647
-0.006483635
-0.006868335
-0.007311027
-0.007834445
-0.008476984
-0.00929722
-0.01028949
-0.00631815
-0.006666745
-0.007059847
-0.007512533
-0.008048287
-0.008709199
-0.009558626
-0.0105864
-0.006004216
-0.006315674
-0.006661596
-0.007051771
-0.00750119
-0.008035245
-0.008697629
-0.009546184
-0.01057233
-0.005561201
-0.00583479
-0.006134913
-0.006468206
-0.00684408
-0.007278831
-0.007798469
-0.008439934
-0.009259769
-0.0102472
-0.00500945
-0.005244678
-0.005500131
-0.005780214
-0.006091086
-0.006443279
-0.006853467
-0.007341208
-0.007941861
-0.008705849
-0.009491988
-0.004374977
-0.004572001
-0.004784045
-0.005014052
-0.005265946
-0.005546962
-0.005868009
-0.006239799
-0.006681088
-0.007222406
-0.007788896
-0.008344468
-0.003702077
-0.003862467
-0.004033565
-0.004217273
-0.004416079
-0.004635076
-0.004881885
-0.005161915
-0.005485712
-0.005868946
-0.006212759
-0.006515971
-0.006850506
-0.003075396
-0.003203813
-0.003339518
-0.003483699
-0.003637878
-0.003805909
-0.003993296
-0.004202513
-0.004439451
-0.004712742
-0.004892204
-0.004917613
-0.004886961
-0.004666724
-0.002615143
-0.002720837
-0.002831715
-0.002948549
-0.003072319
-0.003206041
-0.003354029
-0.003517261
-0.003699393
-0.003905472
-0.004010012
-0.003958908
-0.003865455
-0.003699516
-0.00337332
-0.002307849
-0.002398473
-0.00249301
-0.002591997
-0.002696098
-0.002807784
-0.002930638
-0.003064921
-0.003213037
-0.003378281
-0.00344757
-0.003381672
-0.003289038
-0.003163802
-0.002986313
-0.002868164
-0.002108121
-0.002188804
-0.002272598
-0.002359893
-0.002451166
-0.002548529
-0.002655098
-0.002770728
-0.002897131
-0.003036567
-0.003086329
-0.003016874
-0.002928096
-0.002818992
-0.002685328
-0.002645823
-0.002661027
-0.001981641
-0.002055763
-0.002132468
-0.002212053
-0.002294873
-0.002382803
-0.002478637
-0.002581996
-0.002694153
-0.002816768
-0.002854106
-0.002781586
-0.002692058
-0.002585423
-0.002460849
-0.00243137
-0.002489226
-0.002481778
-0.004997126
-0.00489483
-0.005296604
-0.004922516
-0.005354574
-0.005816966
-0.005159275
-0.005571328
-0.006072495
-0.006629481
-0.005564614
-0.005962038
-0.006442606
-0.007038074
-0.007722488
-0.005917663
-0.006299817
-0.006749683
-0.00729776
-0.007985942
-0.008797607
-0.006116829
-0.006479309
-0.006896035
-0.007388026
-0.007990359
-0.008755631
-0.009674494
-0.006142284
-0.006481008
-0.006862854
-0.00730239
-0.007822227
-0.008462768
-0.009284311
-0.01027489
-0.006004216
-0.006315674
-0.006661596
-0.007051771
-0.00750119
-0.008035245
-0.008697629
-0.009546184
-0.01057233
-0.005720326
-0.006001867
-0.006310802
-0.006653981
-0.007041129
-0.007489042
-0.008024604
-0.008686451
-0.009534179
-0.01055877
-0.005309405
-0.00555896
-0.005830151
-0.006127683
-0.006458136
-0.006832645
-0.007268883
-0.00778814
-0.008429091
-0.009248136
-0.01010973
-0.004791143
-0.005007293
-0.00524022
-0.005493197
-0.005770584
-0.006080189
-0.006433823
-0.006843695
-0.007331044
-0.007931173
-0.008585415
-0.009272658
-0.004190726
-0.004372863
-0.004567636
-0.004777264
-0.005004654
-0.005255341
-0.005537719
-0.005858425
-0.006229816
-0.006670621
-0.007105948
-0.00757459
-0.008142991
-0.003550912
-0.003699928
-0.003858031
-0.004026681
-0.004207743
-0.004405347
-0.004625574
-0.00487188
-0.005151343
-0.005474487
-0.005742936
-0.005957908
-0.006250104
-0.00659044
-0.002953326
-0.003073139
-0.003199156
-0.003332291
-0.003473701
-0.00362663
-0.003795707
-0.003982302
-0.004190635
-0.004426575
-0.004565499
-0.004551285
-0.00448524
-0.004302961
-0.003816303
-0.002514008
-0.002612982
-0.002716381
-0.002824808
-0.002939009
-0.003061607
-0.003196339
-0.003343595
-0.003506021
-0.003687255
-0.003767407
-0.003696201
-0.003582357
-0.003410099
-0.003146521
-0.002946845
-0.0022207
-0.002305831
-0.002394317
-0.002486577
-0.002583123
-0.002686149
-0.002798844
-0.002921101
-0.00305473
-0.003202126
-0.003255331
-0.003177465
-0.003071764
-0.002935319
-0.002762513
-0.002692762
-0.00269433
-0.002030227
-0.002106226
-0.002184904
-0.002266568
-0.002351584
-0.002441863
-0.002540224
-0.002646297
-0.002761389
-0.002887204
-0.002925545
-0.002848612
-0.002751244
-0.002633046
-0.002493121
-0.002452354
-0.00250486
-0.002492583
-0.001909855
-0.001979838
-0.002052056
-0.00212674
-0.002204168
-0.002286053
-0.00237496
-0.002470359
-0.002573247
-0.002684895
-0.002713711
-0.002636488
-0.002541621
-0.002428898
-0.002298285
-0.002257997
-0.002309234
-0.002340548
-0.002310721
-0.00485966
-0.004629397
-0.004992515
-0.004506274
-0.004890506
-0.00528722
-0.00456042
-0.004918421
-0.005345744
-0.005802446
-0.004814942
-0.00515546
-0.005563196
-0.006059269
-0.006609901
-0.00522547
-0.005561352
-0.005955154
-0.006431575
-0.007022047
-0.007702966
-0.005584574
-0.005914777
-0.006293767
-0.006740085
-0.007284044
-0.007969694
-0.008782148
-0.005794956
-0.006114178
-0.006473777
-0.006887318
-0.007375699
-0.007976027
-0.008742601
-0.0096598
-0.005837146
-0.0061398
-0.006475843
-0.006854754
-0.007291014
-0.007809148
-0.00845116
-0.009271827
-0.01026079
-0.005720326
-0.006001867
-0.006310802
-0.006653981
-0.007041129
-0.007489042
-0.008024604
-0.008686451
-0.009534179
-0.01055877
-0.005461287
-0.005718091
-0.005997242
-0.006303594
-0.006643942
-0.007029728
-0.007479133
-0.008014324
-0.008675664
-0.009522609
-0.01042181
-0.005077959
-0.005307269
-0.005554545
-0.005823284
-0.006118146
-0.006447345
-0.006823307
-0.007259262
-0.007778163
-0.008418629
-0.009130463
-0.009898368
-0.00458927
-0.004789083
-0.005003041
-0.005233618
-0.005484046
-0.005760259
-0.006071265
-0.006424648
-0.006834223
-0.007321202
-0.007822641
-0.00839602
-0.009103128
-0.004019486
-0.004188703
-0.004368691
-0.004561165
-0.004768311
-0.004994573
-0.005246582
-0.005528671
-0.005849049
-0.006220056
-0.006563248
-0.006912138
-0.007398062
-0.007995882
-0.003409824
-0.003548852
-0.003695681
-0.003851448
-0.004017583
-0.004197515
-0.004396312
-0.004616089
-0.004861895
-0.005140794
-0.005356882
-0.005507651
-0.005716654
-0.006018559
-0.006414214
-0.002838975
-0.00295116
-0.003068674
-0.003192234
-0.003322727
-0.003462957
-0.003616904
-0.00378525
-0.003971038
-0.004178469
-0.004288127
-0.004247216
-0.004152028
-0.003954897
-0.00354099
-0.003039703
-0.002418967
-0.002511931
-0.002608704
-0.002709757
-0.002815667
-0.002928757
-0.003052336
-0.003186388
-0.0033329
-0.003494504
-0.003556736
-0.003472236
-0.003344489
-0.003161518
-0.002906918
-0.002762724
-0.002737675
-0.002138577
-0.002218759
-0.002301836
-0.002388138
-0.002478062
-0.002573587
-0.002677591
-0.002789728
-0.002911379
-0.003044346
-0.003085431
-0.002999919
-0.002885848
-0.002741157
-0.002563965
-0.002494657
-0.002534483
-0.002512053
-0.001956649
-0.002028402
-0.002102474
-0.002179106
-0.002258585
-0.002342654
-0.002433901
-0.002531798
-0.002637369
-0.002751917
-0.00278151
-0.002699895
-0.00259738
-0.002473511
-0.002328277
-0.002277265
-0.002323324
-0.002350163
-0.0023169
-0.001841905
-0.001908118
-0.001976269
-0.002046544
-0.002119157
-0.002195693
-0.002278524
-0.002367023
-0.002461983
-0.002564396
-0.002586555
-0.002506543
-0.0024087
-0.002292707
-0.002158567
-0.002108502
-0.002144865
-0.002172851
-0.00218252
-0.002134768
-0.004509745
-0.004855133
-0.00426871
-0.004625205
-0.004983467
-0.004179079
-0.004502321
-0.004882012
-0.005273363
-0.004258423
-0.004556634
-0.004910365
-0.00533269
-0.005783316
-0.004522666
-0.004811384
-0.005147949
-0.005551165
-0.006041835
-0.006588924
-0.004931886
-0.005222412
-0.005554937
-0.005944978
-0.006417046
-0.007004891
-0.007686544
-0.005290967
-0.005581855
-0.005909103
-0.006284826
-0.006727446
-0.007269363
-0.007956274
-0.008767029
-0.005507193
-0.005792448
-0.006108964
-0.0064656
-0.006875836
-0.007362503
-0.007964289
-0.008729961
-0.009645565
-0.005561201
-0.00583479
-0.006134913
-0.006468206
-0.00684408
-0.007278831
-0.007798469
-0.008439934
-0.009259769
-0.0102472
-0.005461287
-0.005718091
-0.005997242
-0.006303594
-0.006643942
-0.007029728
-0.007479133
-0.008014324
-0.008675664
-0.009522609
-0.01042181
-0.005223189
-0.005459157
-0.005713691
-0.005990397
-0.006294087
-0.006633184
-0.007020428
-0.007469558
-0.008004403
-0.008665269
-0.009405709
-0.01021249
-0.004863946
-0.005075919
-0.005303059
-0.005548007
-0.005814223
-0.006107922
-0.006438533
-0.006814276
-0.007249968
-0.007768538
-0.008312796
-0.008949232
-0.009738376
-0.004401666
-0.0045873
-0.00478502
-0.004996741
-0.005224902
-0.005474234
-0.005751802
-0.006062605
-0.006415755
-0.006825051
-0.007221261
-0.0076519
-0.008249329
-0.008986945
-0.003859676
-0.004017548
-0.00418471
-0.004362505
-0.004552618
-0.004758705
-0.004986247
-0.005238007
-0.005519818
-0.005839882
-0.006119925
-0.006384536
-0.006752427
-0.007268845
-0.007916236
-0.003277675
-0.003407848
-0.003544782
-0.003689378
-0.003842746
-0.004007814
-0.004188904
-0.004387294
-0.004606624
-0.004851931
-0.005030269
-0.005137311
-0.005284955
-0.00550654
-0.00586137
-0.002731531
-0.002836894
-0.002946873
-0.003062035
-0.00318307
-0.003312447
-0.003453666
-0.003606935
-0.003774537
-0.0039595
-0.004047657
-0.003988931
-0.003874606
-0.00366256
-0.003263369
-0.002845418
-0.002776073
-0.00232942
-0.00241697
-0.00250782
-0.002602342
-0.002700986
-0.00280584
-0.002919884
-0.003042828
-0.003176189
-0.003321944
-0.003370681
-0.003277767
-0.003141508
-0.002951539
-0.002696643
-0.002557767
-0.002573062
-0.002535098
-0.002061013
-0.002136709
-0.002214916
-0.002295896
-0.002379958
-0.002468909
-0.002565383
-0.002668865
-0.002780437
-0.002901473
-0.002933283
-0.002843068
-0.002724227
-0.002574823
-0.002394141
-0.002316125
-0.00235003
-0.002367493
-0.002327645
-0.001887007
-0.001954891
-0.002024789
-0.002096894
-0.002171429
-0.002250003
-0.002335011
-0.002425822
-0.00252325
-0.002628315
-0.002651074
-0.002566729
-0.002461457
-0.002334745
-0.002186673
-0.002126422
-0.002157806
-0.002181517
-0.002188013
-0.002137939
-0.001777473
-0.001840231
-0.001904678
-0.00197096
-0.002039244
-0.002111004
-0.002188457
-0.002270905
-0.002358992
-0.002453508
-0.002470386
-0.002388899
-0.002289725
-0.002172449
-0.002037041
-0.00197991
-0.002002782
-0.002018568
-0.00202767
-0.002019265
-0.001956798
-0.004161762
-0.004505619
-0.004846251
-0.003961675
-0.004264869
-0.004616971
-0.004970107
-0.003904309
-0.004175417
-0.004494546
-0.004869455
-0.00525511
-0.004001153
-0.004254888
-0.004549178
-0.004898444
-0.005315479
-0.005762821
-0.004269253
-0.004519327
-0.004804376
-0.005136829
-0.005535295
-0.006023146
-0.006570781
-0.004672958
-0.004929003
-0.005216391
-0.005545448
-0.005931568
-0.006401486
-0.006990447
-0.007670165
-0.005028421
-0.005288395
-0.005576505
-0.005900713
-0.006273046
-0.006713913
-0.007257238
-0.00794314
-0.008752249
-0.00524694
-0.005504814
-0.005787515
-0.006101253
-0.006454824
-0.006863539
-0.007351695
-0.0079529
-0.00871771
-0.00963179
-0.005309405
-0.00555896
-0.005830151
-0.006127683
-0.006458136
-0.006832645
-0.007268883
-0.00778814
-0.008429091
-0.009248136
-0.01010973
-0.005223189
-0.005459157
-0.005713691
-0.005990397
-0.006294087
-0.006633184
-0.007020428
-0.007469558
-0.008004403
-0.008665269
-0.009405709
-0.01021249
-0.005003029
-0.005221155
-0.00545496
-0.005707173
-0.005981364
-0.006283895
-0.006624408
-0.007011441
-0.007460318
-0.007994843
-0.008560233
-0.009226808
-0.01005501
-0.004665066
-0.004861994
-0.005071896
-0.00529682
-0.005539377
-0.005804507
-0.006099573
-0.00643001
-0.006805552
-0.007241001
-0.007671161
-0.008149762
-0.008811864
-0.009630845
-0.004226593
-0.004399778
-0.004583412
-0.004778998
-0.004988422
-0.005215552
-0.005466196
-0.005743597
-0.006054211
-0.006407144
-0.006731912
-0.007064015
-0.007519612
-0.008148637
-0.00892765
-0.003710004
-0.003857817
-0.004013722
-0.004178787
-0.004354332
-0.004543446
-0.004750771
-0.004978095
-0.005229617
-0.005511163
-0.00574583
-0.005953259
-0.006237255
-0.006635482
-0.007198758
-0.003153523
-0.003275778
-0.003403942
-0.003538738
-0.003681043
-0.003833401
-0.00399959
-0.004180308
-0.004378294
-0.004597177
-0.004747541
-0.004823928
-0.004929514
-0.005091037
-0.005363904
-0.00263031
-0.002729531
-0.002832776
-0.002940499
-0.003053245
-0.00317322
-0.003303557
-0.003444143
-0.003596721
-0.003763564
-0.00383545
-0.003765012
-0.003638751
-0.003417963
-0.003024627
-0.002632451
-0.002607265
-0.002552529
-0.002244852
-0.002327498
-0.002413016
-0.002501704
-0.002593918
-0.002691556
-0.002797337
-0.002910785
-0.003033083
-0.003165741
-0.003204139
-0.003106072
-0.002965258
-0.002772085
-0.002517574
-0.00237413
-0.002384832
-0.002388013
-0.002339606
-0.001987604
-0.002059213
-0.002133009
-0.002209201
-0.00228803
-0.002371164
-0.002461035
-0.002557018
-0.002659971
-0.00277097
-0.002795535
-0.00270266
-0.002581505
-0.002430236
-0.002248412
-0.002162569
-0.002182342
-0.002197139
-0.002197569
-0.002143323
-0.001820973
-0.001885313
-0.00195141
-0.002019416
-0.002089505
-0.002163175
-0.002242659
-0.002327256
-0.002417627
-0.002514582
-0.002531923
-0.002446184
-0.00233981
-0.002212231
-0.002063531
-0.001996711
-0.002014819
-0.002026527
-0.002032616
-0.002022067
-0.001957924
-0.001716281
-0.001775859
-0.001836915
-0.001899562
-0.001963928
-0.002031396
-0.002104045
-0.002181136
-0.002263195
-0.002350866
-0.002363496
-0.002281457
-0.002182063
-0.002064875
-0.001929813
-0.001868088
-0.001880484
-0.001884826
-0.001884108
-0.001877429
-0.001853473
-0.001778735
-0.003863882
-0.004157976
-0.004497515
-0.004833137
-0.003702585
-0.003958112
-0.004257315
-0.004604802
-0.004952512
-0.003669503
-0.003900886
-0.004168208
-0.004483044
-0.004852905
-0.005235557
-0.003777707
-0.003997831
-0.004247922
-0.004538137
-0.004882719
-0.005297032
-0.005745065
-0.004045581
-0.004266102
-0.004512744
-0.004793993
-0.005122151
-0.005518277
-0.006006975
-0.006552183
-0.004441349
-0.004670229
-0.004923324
-0.00520748
-0.005532935
-0.005917198
-0.006388385
-0.00697603
-0.007653831
-0.004790944
-0.00502598
-0.005283331
-0.005568591
-0.005889653
-0.006260426
-0.006702735
-0.007245369
-0.007930292
-0.00873781
-0.00500945
-0.005244678
-0.005500131
-0.005780214
-0.006091086
-0.006443279
-0.006853467
-0.007341208
-0.007941861
-0.008705849
-0.009491988
-0.005077959
-0.005307269
-0.005554545
-0.005823284
-0.006118146
-0.006447345
-0.006823307
-0.007259262
-0.007778163
-0.008418629
-0.009130463
-0.009898368
-0.005003029
-0.005221155
-0.00545496
-0.005707173
-0.005981364
-0.006283895
-0.006624408
-0.007011441
-0.007460318
-0.007994843
-0.008560233
-0.009226808
-0.01005501
-0.004798441
-0.005001084
-0.005217145
-0.005448742
-0.00569857
-0.005971679
-0.00627558
-0.006615928
-0.007002769
-0.007451414
-0.007898237
-0.00839946
-0.009092066
-0.009949733
-0.004479477
-0.004663197
-0.004858144
-0.005065933
-0.005288583
-0.00553012
-0.005796573
-0.006091499
-0.006421778
-0.006797136
-0.00715029
-0.007521141
-0.008026162
-0.008719445
-0.009576774
-0.004062635
-0.004224783
-0.004396053
-0.004577646
-0.004771043
-0.004979495
-0.005207894
-0.005458398
-0.005735644
-0.006046083
-0.006319695
-0.006585359
-0.00694217
-0.007428783
-0.008097192
-0.0035694
-0.003708219
-0.003854146
-0.004008043
-0.00417096
-0.004345559
-0.00453587
-0.004743003
-0.00497012
-0.005221414
-0.005422367
-0.005589274
-0.0058159
-0.006129406
-0.006572036
-0.003036573
-0.003151699
-0.003272025
-0.00339814
-0.003530744
-0.00367209
-0.003825534
-0.003991382
-0.00417173
-0.004369312
-0.004498213
-0.00455266
-0.004628664
-0.004748592
-0.004959419
-0.00253473
-0.002628385
-0.00272557
-0.00282665
-0.002932058
-0.003043794
-0.003164701
-0.003294445
-0.003434387
-0.00358626
-0.003645583
-0.003567449
-0.00343426
-0.003209695
-0.002822989
-0.002442823
-0.002415708
-0.002403542
-0.002347906
-0.002164825
-0.002243001
-0.002323691
-0.002407132
-0.002493605
-0.002584859
-0.002683396
-0.002788616
-0.002901459
-0.003023101
-0.003053405
-0.002952431
-0.002809695
-0.00261624
-0.002364169
-0.002216544
-0.002214328
-0.002215646
-0.00220821
-0.002149089
-0.001918004
-0.00198587
-0.002055649
-0.002127505
-0.002201631
-0.002279573
-0.002363599
-0.002453007
-0.002548492
-0.002650909
-0.002669728
-0.002575582
-0.0024538
-0.002302616
-0.002121735
-0.002030607
-0.002037645
-0.002040879
-0.002041222
-0.002026824
-0.001959783
-0.001758262
-0.001819339
-0.001881957
-0.001946231
-0.002012298
-0.002081559
-0.002156111
-0.002235208
-0.002319391
-0.002409317
-0.002422299
-0.0023361
-0.002229738
-0.002102647
-0.001954887
-0.001883929
-0.001891772
-0.001892229
-0.001888649
-0.001879941
-0.001854426
-0.001778211
-0.001658086
-0.001714722