/*--------------------------------*- C++ -*----------------------------------*\
| =========                 |                                                 |
| \\      /  F ield         | OpenFOAM: The Open Source CFD Toolbox           |
|  \\    /   O peration     | Version:  2306                                  |
|   \\  /    A nd           | Website:  www.openfoam.com                      |
|    \\/     M anipulation  |                                                 |
\*---------------------------------------------------------------------------*/
FoamFile
{
    version     2.0;
    format      ascii;
    arch        "LSB;label=32;scalar=64";
    class       volVectorField;
    location    "1.2/phiI";
    object      i;
}
// * * * * * * * * * * * * * * * * * * * * * * * * * * * * * * * * * * * * * //

dimensions      [0 -2 0 0 0 1 0];

internalField   nonuniform List<vector> 
12000
(
(38.39941 5.296884 1648.494)
(38.56893 16.04375 1662.743)
(76.72726 6.992075 1510.366)
(38.95192 4.726939 4969.351)
(38.76744 28.59084 1691.444)
(76.98292 19.7241 1519.55)
(39.1417 14.32576 5012.153)
(69.89605 7.853492 1393.505)
(77.74722 6.624745 4553.243)
(40.06384 3.584796 8344.634)
(38.64695 45.79835 1734.422)
(77.32566 29.37112 1537.562)
(39.38297 25.72368 5098.359)
(70.01071 22.0278 1400.514)
(78.03184 18.63628 4580.832)
(40.29421 10.88341 8416.595)
(57.41545 8.138694 1299.727)
(70.73861 7.573128 4200.913)
(79.80101 5.888507 7644.748)
(41.75146 1.848515 11801.05)
(37.61294 69.99033 1789.748)
(77.32758 34.25338 1563.195)
(39.33186 41.8662 5227.432)
(70.21326 32.03744 1414.105)
(78.43502 27.6253 4634.949)
(40.62108 19.97968 8561.52)
(57.45255 22.89618 1305.477)
(70.867 21.20381 4221.97)
(80.14365 16.45586 7691.139)
(42.04353 5.65035 11903.62)
(47.27108 8.224451 1221.704)
(58.10265 7.908675 3918.05)
(72.43682 7.01123 7052.087)
(82.91741 4.769136 10806.39)
(44.04251 -0.5177326 15380.49)
(35.03664 94.59048 1849.515)
(76.24581 33.88719 1593.529)
(38.39782 65.38661 5393.504)
(70.41469 34.99983 1433.011)
(78.53323 32.01467 4711.996)
(40.7087 33.99255 8778.491)
(57.53647 33.41092 1316.556)
(71.09728 30.73758 4262.803)
(80.66789 24.12454 7782.149)
(42.50045 11.24783 12110.19)
(47.27452 23.23805 1226.604)
(58.14819 22.22302 3935.325)
(72.59274 19.55221 7087.489)
(83.34826 13.14025 10872.51)
(44.41865 -1.482081 15515.84)
(39.55347 8.173037 1154.593)
(47.85162 8.028443 3682.636)
(59.48856 7.447717 6576.275)
(75.0125 6.157078 9964.963)
(87.14537 3.243751 14073.92)
(46.97773 -3.565666 17232.4)
(31.2315 106.9062 1896.854)
(73.23742 30.77599 1622.409)
(35.94506 90.30623 5572.653)
(70.4404 29.08872 1454.486)
(77.58686 31.51863 4803.241)
(39.974 56.18147 9057.503)
(57.66802 36.52481 1331.771)
(71.34039 33.38458 4319.645)
(80.95873 27.52168 7911.804)
(42.79861 22.02687 12419.48)
(47.2995 34.1922 1236.007)
(58.24887 32.35917 3968.609)
(72.87862 28.13042 7156.157)
(84.05647 18.7987 11002.26)
(45.05281 -0.6549559 15788.52)
(39.53587 23.1803 1158.866)
(47.86096 22.66594 3697.355)
(59.551 20.87384 6605.313)
(75.21031 17.04102 10015.4)
(87.6965 8.620918 14161.16)
(47.46227 -10.67096 17384.49)
(33.71002 8.04844 1095.688)
(40.05754 8.002114 3480.091)
(49.02292 7.635681 6180.274)
(61.58991 6.747174 9289.894)
(78.50279 4.993565 12970.63)
(92.55685 1.279709 15764.08)
(49.91581 -6.601175 17284.44)
(27.22735 98.36426 1928.466)
(68.53513 28.81328 1642.359)
(32.24948 103.7481 5714.279)
(70.00773 17.48364 1473.485)
(74.74154 28.82282 4890.192)
(37.76648 81.75947 9357.986)
(57.82944 29.81756 1348.648)
(71.41993 27.46977 4384.3)
(80.28263 26.75936 8065.508)
(42.3658 42.20684 12817.09)
(47.37033 37.92953 1248.818)
(58.40479 35.24111 4014.357)
(73.20525 30.13994 7251.836)
(84.63985 20.68032 11187.24)
(45.63766 5.71648 16196.9)
(39.51938 34.36901 1167.043)
(47.89755 33.30363 3725.603)
(59.68528 30.24963 6661.278)
(75.58077 24.16369 10113.29)
(88.6555 11.53509 14332.42)
(48.32484 -15.99443 17690.92)
(33.67977 22.89716 1099.476)
(40.04438 22.6823 3492.926)
(49.04411 21.5194 6205.012)
(61.67809 18.82291 9331.254)
(78.75775 13.61929 13037.14)
(93.26306 2.800123 15862.03)
(50.50848 -19.8228 17435.91)
(29.17483 7.870623 1043.171)
(34.15571 7.896908 3302.26)
(41.07498 7.659645 5839.549)
(50.79852 7.038925 8728.322)
(64.43512 5.793316 12086.52)
(82.9621 3.496459 14524.55)
(97.97677 -0.674477 15814.69)
(52.85673 -9.624341 17336.54)
(24.04117 68.3799 1947.122)
(63.38961 26.46106 1654.066)
(28.32495 96.35357 5808.627)
(68.96284 8.428047 1485.093)
(70.18217 27.54699 4950.242)
(34.28765 97.46723 9594.995)
(57.93265 16.00039 1362.915)
(71.04571 16.25936 4441.641)
(77.76147 24.89596 8212.188)
(40.52825 68.80655 13244.77)
(47.5146 31.73496 1262.821)
(58.5961 28.5718 4065.186)
(73.39262 24.20889 7360.864)
(84.37342 19.50325 11406.8)
(45.61516 23.17007 16721.91)
(39.53277 38.67587 1178.126)
(47.98491 36.85695 3764.122)
(59.89012 32.66172 6738.281)
(76.03448 25.19632 10249.81)
(89.63743 11.34003 14576.8)
(49.27901 -15.30852 18150.01)
(33.63644 34.16115 1106.712)
(40.03656 33.59862 3517.489)
(49.10397 31.52154 6252.499)
(61.8635 27.04043 9411.004)
(79.24364 18.75441 13166.28)
(94.54543 2.172977 16054.38)
(51.59898 -31.27579 17741.12)
(29.13646 22.44456 1046.569)
(34.12896 22.45623 3313.638)
(41.07074 21.68437 5861.116)
(50.83775 19.77692 8763.546)
(64.55844 16.02945 12141.03)
(83.2908 9.214843 14599.2)
(98.83764 -2.9911 15912.16)
(53.55726 -28.93805 17487.39)
(25.59533 7.664721 995.8456)
(29.5742 7.734683 3143.66)
(35.05574 7.593304 5540.37)
(42.61715 7.139426 8245.299)
(53.2013 6.226715 11351.69)
(68.06567 4.566783 13531.54)
(87.43295 2.00759 14572.38)
(103.4051 -2.619006 15865.39)
(55.80042 -12.63527 17388.46)
(22.30907 24.36728 1955.694)
(59.186 19.19706 1660.312)
(25.18841 67.29078 5864.18)
(67.55162 4.872934 1490.765)
(65.14041 25.74291 4985.418)
(30.52019 92.36825 9752.459)
(57.84871 4.252117 1370.866)
(70.04881 7.736818 4476.764)
(73.48519 25.00424 8313.474)
(37.37556 87.9692 13581.45)
(47.71386 17.67627 1274.318)
(58.72931 15.11169 4108.298)
(73.13531 13.78507 7457.892)
(82.34192 18.90418 11616.68)
(44.27882 51.18497 17286.18)
(39.61594 33.25285 1190.12)
(48.14871 30.71498 3806.296)
(60.14146 26.05991 6824.027)
(76.38585 19.22752 10405.68)
(89.92828 9.581658 14867.28)
(49.78432 -1.364361 18740.42)
(33.60726 38.8951 1116.481)
(40.06211 37.75279 3550.808)
(49.22452 34.70178 6317.327)
(62.14283 28.73114 9520.858)
(79.87079 18.44424 13346.6)
(96.04102 -0.7137473 16328.99)
(52.92172 -36.26358 18198.56)
(29.07492 33.64389 1053.05)
(34.09241 33.48096 3335.372)
(41.08031 32.05372 5902.404)
(50.93304 28.81104 8831.194)
(64.81365 22.66548 12246.2)
(83.92568 11.78521 14744.15)
(100.4426 -7.143413 16103.53)
(54.87519 -46.50053 17791.4)
(25.55253 21.89806 998.9229)
(29.53867 22.04939 3153.868)
(35.03601 21.5727 5559.488)
(42.62648 20.16811 8275.999)
(53.26513 17.40452 11398.08)
(68.23432 12.43595 13592.69)
(87.83512 4.835304 14646.62)
(104.4202 -8.753487 15962.38)
(56.60854 -38.01718 17538.71)
(22.70766 7.442596 952.8217)
(25.95672 7.541628 3000.689)
(30.38111 7.462317 5273.51)
(36.41986 7.132221 7821.282)
(44.70314 6.431661 10720.03)
(56.26448 5.182952 12706.33)
(71.708 3.347282 13576.38)
(91.91534 0.5267429 14620.3)
(108.8417 -4.554094 15915.95)
(58.74678 -15.63408 17439.97)
(22.30907 -24.36728 1955.694)
(56.86446 7.046199 1663.008)
(23.47981 24.02438 5889.666)
(66.25782 3.128477 1493.157)
(61.00185 18.83939 5004.13)
(27.48137 65.13832 9844.945)
(57.57619 -0.589206 1374.092)
(68.67151 4.550359 4493.963)
(68.64826 24.30552 8372.686)
(33.84404 86.35555 13804.66)
(47.87522 4.863531 1280.308)
(58.66785 3.80504 4132.44)
(72.23405 6.33516 7517.521)
(78.49207 21.12706 11761.62)
(41.56699 75.07141 17729.66)
(39.77964 19.60653 1199.775)
(48.36642 16.9768 3841.054)
(60.33499 13.31023 6897.092)
(76.30609 9.993085 10544.91)
(88.56091 10.70331 15145.51)
(49.09094 28.49619 19374.7)
(33.63321 34.20372 1126.982)
(40.1593 32.38687 3586.93)
(49.42763 28.65768 6388.474)
(62.48566 22.21936 9643.476)
(80.44592 12.40482 13552.95)
(97.04925 -3.245043 16655.81)
(53.95359 -25.81759 18787.24)
(29.01444 38.6436 1061.777)
(34.07266 38.08431 3364.741)
(41.13029 35.89824 5958.469)
(51.10416 31.41795 8923.654)
(65.19472 23.36285 12391.25)
(84.77669 9.729666 14946.7)
(102.4507 -12.7175 16376.88)
(56.56574 -57.15328 18247.26)
(25.48033 32.94092 1004.784)
(29.48263 33.03559 3173.335)
(35.01306 32.11705 5596.012)
(42.66251 29.70451 8334.796)
(53.4088 25.11722 11487.25)
(68.57964 17.03182 13710.68)
(88.61844 4.854689 14790.75)
(106.3469 -16.41579 16152.81)
(58.15336 -61.67022 17841.53)
(22.66273 21.29457 955.6286)
(25.91629 21.54052 3009.932)
(30.35128 21.25755 5290.658)
(36.4108 20.23054 7848.486)
(44.73098 18.10449 10760.45)
(56.36007 14.35447 12758.37)
(71.92177 8.863885 13637.19)
(92.3907 0.4799181 14694.15)
(110.0106 -14.48783 16012.48)
(59.66219 -47.0608 17589.61)
(20.34225 7.215378 913.4461)
(23.03726 7.330319 2870.66)
(26.68733 7.294987 5032.902)
(31.60407 7.048755 7443.142)
(38.26437 6.505141 10165.83)
(47.36057 5.52263 11997.1)
(59.33904 4.145302 12748.27)
(75.36211 2.134607 13621.33)
(96.40919 -0.9463095 14668.13)
(114.2864 -6.479975 15966.16)
(61.69566 -18.62094 15606.93)
(24.04117 -68.3799 1947.122)
(56.86446 -7.046199 1663.008)
(23.47981 -24.02438 5889.666)
(65.49805 1.151969 1493.979)
(58.71132 6.938361 5012.186)
(25.81899 23.34782 9887.303)
(57.26173 -1.338569 1375.007)
(67.39904 2.999925 4501.23)
(64.63779 18.12633 8404.084)
(30.95186 61.897 13935.52)
(47.93537 -0.9968122 1282.349)
(58.40986 -0.7548405 4142.316)
(70.92402 3.894301 7546.809)
(73.96301 22.11848 11846.22)
(38.35395 78.20578 18023.15)
(39.96319 6.467252 1204.558)
(48.54045 4.542305 3859.28)
(60.31865 2.891402 6938.266)
(75.54965 4.180148 10630.75)
(85.28801 15.82279 15337.66)
(46.94359 58.49038 19872.19)
(33.73762 21.14875 1135.317)
(40.33565 19.02902 3616.122)
(49.68256 15.55693 6447.418)
(62.77121 10.54213 9748.472)
(80.60816 4.782241 13737.98)
(96.53471 0.08890703 16969.31)
(53.90039 5.91418 19419.44)
(28.99355 34.5564 1071.108)
(34.10926 33.45028 3396.36)
(41.25569 30.6403 6019.398)
(51.36723 25.51132 9025.39)
(65.66262 16.95537 12553.58)
(85.64064 3.572475 15178.84)
(104.1746 -16.03094 16702.56)
(58.12304 -50.19962 18834.37)
(25.39981 38.0814 1012.659)
(29.42972 37.92129 3199.568)
(35.01222 36.45558 5645.423)
(42.74973 33.07302 8414.736)
(53.64901 26.93394 11609.28)
(69.09212 16.43587 13873.53)
(89.69264 1.0569 14992.22)
(108.8664 -24.67479 16424.94)
(60.21096 -77.98236 18295.86)
(22.58474 32.11673 960.9693)
(25.84865 32.39146 3027.539)
(30.30625 31.81587 5323.371)
(36.40855 30.04353 7900.486)
(44.80314 26.50423 10837.91)
(56.56618 20.36319 12858.37)
(72.35678 11.43175 13754.47)
(93.32194 -2.038775 14837.49)
(112.2582 -25.64596 16201.99)
(61.43336 -76.78663 17891.28)
(20.29688 20.66889 916.0219)
(22.99433 20.96867 2879.092)
(26.65163 20.82405 5048.429)
(31.58291 20.05493 7467.537)
(38.26986 18.40455 10201.63)
(47.41229 15.4529 12042.42)
(59.46621 11.32318 12800.01)
(75.62079 5.312535 13681.8)
(96.95745 -3.852109 14741.59)
(115.6087 -20.19497 16062.23)
(62.71806 -56.0696 15739.74)
(18.37233 6.988872 877.2063)
(20.64471 7.112346 2751.608)
(23.70398 7.105329 4814.031)
(27.79464 6.920552 7102.253)
(33.25723 6.486495 9671.803)
(40.61278 5.700156 11374.88)
(50.02897 4.61898 12036.25)
(62.425 3.113577 12790.32)
(79.02794 0.9285454 13666.21)
(100.9143 -2.411807 14715.66)
(119.7389 -8.396903 14295.18)
(63.9938 -20.94642 11969.52)
(27.22735 -98.36426 1928.466)
(59.186 -19.19706 1660.312)
(25.18841 -67.29078 5864.18)
(65.49805 -1.151968 1493.979)
(58.71133 -6.938362 5012.186)
(25.81899 -23.34782 9887.303)
(57.05937 -0.5514556 1375.132)
(66.64956 1.119101 4503.73)
(62.40821 6.723962 8417.562)
(29.35877 22.33006 13995.37)
(47.92648 -2.039799 1282.611)
(58.10392 -1.380171 4145.174)
(69.69364 2.737792 7559.222)
(70.14474 17.04433 11890.97)
(35.65954 57.51005 18194.94)
(40.09459 -0.07656561 1205.941)
(48.60797 -1.08892 3865.582)
(60.08972 -1.098572 6955.292)
(74.34109 2.882289 10673.06)
(81.17467 19.13121 15449.7)
(44.13784 67.74441 20200.61)
(33.88404 8.01305 1139.288)
(40.52727 6.220613 3630.689)
(49.88222 3.882403 6478.59)
(62.82357 1.477028 9808.009)
(80.04848 1.209041 13852.43)
(94.00099 8.959331 17185.73)
(52.31285 42.03496 19913.88)
(29.04131 22.11479 1078.438)
(34.22297 20.65648 3421.559)
(41.45762 17.85617 6068.91)
(51.67914 13.37216 9110.147)
(66.07403 6.728909 12693.3)
(86.11492 -1.986368 15387.56)
(104.5095 -10.49324 17015.29)
(58.70756 -16.56931 19464.83)
(25.34608 34.47246 1021.046)
(29.41729 33.88995 3227.663)
(35.07028 31.93099 5698.746)
(42.91821 27.96924 8501.842)
(53.99416 21.19798 11743.94)
(69.72169 10.1373 14056.11)
(90.84476 -5.229819 15223.42)
(111.3045 -28.78138 16749.6)
(62.29267 -74.52065 18881.59)
(22.49195 37.30109 968.1326)
(25.77439 37.43091 3051.212)
(30.26855 36.47048 5367.499)
(36.43654 33.97496 7970.917)
(44.94124 29.21641 10943.38)
(56.89564 21.15017 12995.33)
(73.00019 9.54562 13916.39)
(94.61866 -7.577092 15037.94)
(115.288 -36.58924 16472.98)
(63.85727 -98.7558 18344.15)
(20.21674 31.23315 920.9183)
(22.92021 31.61657 2895.136)
(26.59312 31.2897 5078.013)
(31.55463 29.96195 7514.097)
(38.29586 27.21984 10270.11)
(47.53107 22.38755 12129.27)
(59.73444 15.63889 12899.39)
(76.14511 5.863776 13798.4)
(98.03609 -8.896872 14884.17)
(118.1764 -34.8358 16250.86)
(64.71503 -91.85171 16007.48)
(18.32749 20.03949 879.5819)
(20.60107 20.36999 2759.346)
(23.66507 20.31553 4828.194)
(27.76614 19.73609 7124.337)
(33.24788 18.41933 9703.896)
(40.63702 16.05949 11415)
(50.10444 12.81791 12081.31)
(62.58359 8.310005 12841.76)
(79.33133 1.78117 13726.35)
(101.5352 -8.161611 14788.76)
(121.214 -25.87582 14380.46)
(65.09932 -63.08257 12070.41)
(16.71171 6.766982 843.6994)
(18.65132 6.893845 2641.987)
(21.25694 6.905851 4613.586)
(24.71452 6.763812 6792.196)
(29.29111 6.411646 9226.612)
(35.36094 5.765069 10820.22)
(42.97189 4.899956 11411.32)
(52.70838 3.720542 12075.51)
(65.52231 2.08758 12832.32)
(82.70535 -0.271127 13710.85)
(105.4304 -3.870002 13180.95)
(123.9903 -9.891295 10972)
(65.68576 -22.65632 8468.446)
(31.23149 -106.9062 1896.854)
(63.38961 -26.46106 1654.066)
(28.32495 -96.35357 5808.627)
(66.25782 -3.128476 1493.157)
(61.00185 -18.83939 5004.13)
(27.48137 -65.13832 9844.945)
(57.05937 0.5514561 1375.132)
(66.64956 -1.119101 4503.73)
(62.40821 -6.723963 8417.562)
(29.35877 -22.33006 13995.37)
(47.90388 -0.8716926 1282.447)
(57.90549 -0.5564648 4145.601)
(68.96439 1.051964 7563.506)
(68.00651 6.399242 11910.14)
(34.15989 20.95369 18273.44)
(40.16611 -1.653437 1205.882)
(48.60298 -2.043747 3866.477)
(59.80075 -1.469964 6960.353)
(73.17396 2.332043 10691.07)
(77.61559 15.56944 15508.86)
(41.69618 51.88524 20392.5)
(34.0072 1.032356 1140.273)
(40.6629 -0.1295442 3634.996)
(49.96465 -1.284696 6489.585)
(62.63875 -1.638331 9832.904)
(78.97729 1.481622 13909.07)
(90.41935 15.27033 17311.65)
(49.90979 57.39324 20239.1)
(29.13945 9.16306 1081.821)
(34.37499 7.814823 3433.659)
(41.66567 5.712288 6093.865)
(51.91805 2.855628 9155.353)
(66.22023 -0.4859055 12773.02)
(85.80821 -2.663236 15516.96)
(102.709 2.129016 17230.94)
(57.67535 25.70401 19956.29)
(25.35033 22.60771 1027.581)
(29.47225 21.68625 3249.818)
(35.20283 19.65679 5741.48)
(43.1594 16.05035 8573.047)
(54.38426 10.3584 11856.79)
(70.29596 1.764551 14213.78)
(91.63025 -8.74253 15431.69)
(112.4857 -21.04617 17061.72)
(63.51284 -38.96274 19510.65)
(22.41601 34.06158 975.7367)
(25.72756 33.87558 3076.463)
(30.27314 32.54639 5414.869)
(36.52738 29.608 8047.127)
(45.16874 24.30785 11058.64)
(57.347 15.61085 13146.73)
(73.79105 3.345214 14098.13)
(96.05837 -14.00608 15268.3)
(118.4389 -41.50187 16796.73)
(66.46248 -98.79127 18928.69)
(20.11761 36.39406 927.4764)
(22.83268 36.71039 2916.671)
(26.5314 36.12444 5117.831)
(31.54009 34.26137 7576.98)
(38.36325 30.58991 10362.98)
(47.73491 24.24411 12247.59)
(60.15278 15.39958 13035.51)
(76.91896 2.689453 13959.43)
(99.55469 -16.17541 15083.66)
(121.7152 -48.46464 16520.76)
(67.5045 -119.4789 16409.49)
(18.24736 30.32403 884.0943)
(20.52424 30.77497 2774.057)
(23.59867 30.61359 4855.151)
(27.72153 29.6154 7166.433)
(33.24246 27.43817 9765.182)
(40.69947 23.5894 11491.76)
(50.26958 18.29749 12167.6)
(62.91364 10.94298 12940.54)
(79.94458 0.3263924 13842.3)
(102.7607 -15.72135 14930.6)
(124.101 -43.98728 14547.9)
(67.27168 -103.5764 12273.76)
(16.66797 19.41913 845.9)
(18.60798 19.76397 2649.125)
(21.21675 19.7709 4626.583)
(24.68171 19.32388 6812.334)
(29.27244 18.25688 9255.652)
(35.36682 16.31979 10856.19)
(43.01479 13.72928 11451.21)
(52.80746 10.19896 12120.31)
(65.71217 5.314274 12883.48)
(83.05324 -1.730974 13770.68)
(106.1236 -12.44946 13245.87)
(125.5842 -30.30386 11036.84)
(66.85233 -68.23901 8539.315)
(15.29688 6.551442 812.5973)
(16.97015 6.678959 2540.586)
(19.21642 6.703361 4428.972)
(22.18495 6.592449 6508.265)
(26.07994 6.299782 8821.816)
(31.19459 5.758973 10320.38)
(37.47522 5.047918 10854.01)
(45.34176 4.104384 11447.87)
(55.39877 2.827136 12114.74)
(68.63087 1.067109 12874.12)
(86.39411 -1.464642 12284.92)
(108.9553 -5.008251 10123.99)
(127.1211 -10.99054 7766.557)
(66.80136 -23.78121 5058.446)
(35.03664 -94.59048 1849.515)
(68.53513 -28.81328 1642.359)
(32.24948 -103.7481 5714.279)
(67.55162 -4.872934 1490.765)
(65.14041 -25.74291 4985.418)
(30.52019 -92.36825 9752.459)
(57.26173 1.338569 1375.007)
(67.39904 -2.999924 4501.23)
(64.63779 -18.12633 8404.085)
(30.95186 -61.897 13935.52)
(47.90388 0.8716931 1282.447)
(57.90549 0.5564653 4145.601)
(68.96439 -1.051964 7563.506)
(68.00651 -6.399242 11910.14)
(34.15989 -20.95369 18273.44)
(40.19464 -0.7774269 1205.59)
(48.58205 -0.8651548 3866.036)
(59.61014 -0.5685164 6961.188)
(72.47505 0.9477691 10697.31)
(75.60046 5.957248 15534.16)
(40.31592 19.19004 20480.09)
(34.0864 -1.039375 1140.046)
(40.73637 -1.639408 3634.915)
(49.96752 -2.057969 6491.34)
(62.37545 -1.615998 9840.507)
(77.89551 1.767946 13933.29)
(87.19136 13.66613 17377.98)
(47.71764 46.33087 20428.65)
(29.23286 1.947009 1082.543)
(34.50079 1.002057 3436.747)
(41.80993 -0.2455907 6101.463)
(52.02329 -1.598928 9171.624)
(66.09546 -2.398481 12806.74)
(84.91294 -0.3518646 15581.06)
(99.65288 11.44119 17355.96)
(55.67042 47.15357 20278.3)
(25.40698 9.928524 1030.518)
(29.57453 8.998874 3260.127)
(35.36629 7.405525 5762.226)
(43.39272 4.918474 8609.305)
(54.67703 1.423328 11917.5)
(70.56331 -3.060519 14304.15)
(91.57478 -6.53093 15560.97)
(111.4126 -4.667417 17276.6)
(63.03164 9.496266 19999.23)
(22.38852 22.72382 981.6223)
(25.73759 22.22884 3096.21)
(30.3427 20.81621 5452.432)
(36.68888 18.11727 8108.579)
(45.46389 13.55765 11153.45)
(57.83852 6.429846 13274.08)
(74.52797 -3.193003 14255.42)
(97.15438 -15.48811 15476.2)
(120.464 -31.57303 17108.39)
(68.3166 -61.27486 19556.69)
(20.02789 33.43815 934.4195)
(22.76252 33.52199 2939.563)
(26.49848 32.67256 5160.396)
(31.57069 30.49261 7644.663)
(38.499 26.42449 10463.79)
(48.03882 19.5661 12377.12)
(60.7101 10.04799 13186.14)
(77.87081 -3.424132 14140.42)
(101.2815 -22.76039 15313.27)
(125.5778 -54.19802 16843.75)
(70.63244 -123.0224 16928.62)
(18.1456 35.41256 890.1307)
(20.42962 35.85401 2793.773)
(23.5217 35.52403 4891.367)
(27.67891 34.13558 7223.158)
(33.25958 31.24786 9848.072)
(40.81775 26.22761 11595.93)
(50.53885 19.30216 12285.17)
(63.4205 9.679849 13075.88)
(80.84843 -4.135294 14002.5)
(104.5006 -24.7412 15129.18)
(128.1478 -60.30483 14787.53)
(70.34508 -135.6015 12579.05)
(16.58924 29.41427 850.0767)
(18.53072 29.90208 2662.685)
(21.14655 29.85604 4651.3)
(24.62706 29.08965 6850.683)
(29.24678 27.33687 9311.04)
(35.39089 24.19488 10924.86)
(43.11346 19.98299 11527.47)
(53.01872 14.23286 12206.07)
(66.10374 6.274116 12981.68)
(83.75504 -5.181963 13886)
(107.4955 -22.51399 13371.82)
(128.719 -51.1188 11164.12)
(69.15358 -112.1975 8682.171)
(15.25473 18.8148 814.6435)
(16.92772 19.16404 2547.198)
(19.17608 19.21161 4440.961)
(22.15 18.86141 6526.742)
(26.05545 17.97602 8848.289)
(31.18857 16.35896 10352.92)
(37.49624 14.23358 10889.76)
(45.4032 11.41339 11487.54)
(55.52134 7.595442 12159.29)
(68.85184 2.335299 12925.01)
(86.7863 -5.22469 12338.08)
(109.7047 -15.79604 10173.4)
(128.8021 -33.56081 7812.109)
(68.00814 -71.63157 5100.491)
(14.08067 6.345483 783.6317)
(15.53715 6.469595 2446.416)
(17.494 6.502473 4258.15)
(20.07306 6.414288 6246.775)
(23.43863 6.166735 8451.236)
(27.81603 5.704914 9865.858)
(33.10856 5.110139 10351.53)
(39.6001 4.3349 10887.9)
(47.72236 3.313279 11484.4)
(58.10003 1.938578 12153.81)
(71.75046 0.0519527 11538.28)
(89.27604 -2.397355 9441.509)
(111.5524 -5.846079 7169.663)
(129.1855 -11.71336 4640.569)
(67.35727 -24.3381 1685.385)
(37.61294 -69.99033 1789.748)
(73.23742 -30.77599 1622.409)
(35.94506 -90.30622 5572.653)
(68.96284 -8.428046 1485.093)
(70.18217 -27.54699 4950.242)
(34.28765 -97.46723 9594.995)
(57.57619 0.5892067 1374.092)
(68.67151 -4.550358 4493.963)
(68.64826 -24.30552 8372.686)
(33.84404 -86.35555 13804.66)
(47.92648 2.0398 1282.611)
(58.10392 1.380171 4145.174)
(69.69364 -2.737792 7559.222)
(70.14474 -17.04433 11890.97)
(35.65954 -57.51005 18194.94)
(40.19464 0.7774274 1205.59)
(48.58205 0.8651553 3866.036)
(59.61014 0.5685168 6961.188)
(72.47505 -0.9477689 10697.31)
(75.60046 -5.957249 15534.16)
(40.31592 -19.19004 20480.09)
(34.12332 -0.5863857 1139.696)
(40.76564 -0.7657533 3634.084)
(49.94995 -0.8540744 6490.719)
(62.19664 -0.5898568 9841.88)
(77.23745 0.8023826 13941.73)
(85.33338 5.387487 17406.28)
(46.45516 17.45023 20515.03)
(29.29774 -0.4921965 1082.222)
(34.58104 -1.016311 3436.147)
(41.88742 -1.616931 6101.555)
(52.03817 -2.089108 9174.512)
(65.86696 -1.828978 12817.32)
(83.94012 1.025557 15608.52)
(96.75154 11.78453 17421.57)
(53.72451 40.84803 20465.46)
(25.47059 2.615257 1031.057)
(29.66972 1.930981 3262.407)
(35.49756 0.9328334 5767.733)
(43.5503 -0.4371659 8620.683)
(54.81353 -2.051052 11939.8)
(70.51581 -3.410563 14342.62)
(90.85341 -2.180874 15624.93)
(108.876 7.645149 17400.68)
(61.42029 37.02652 20317.99)
(22.41276 10.36569 984.2069)
(25.79744 9.789508 3105.158)
(30.45345 8.659526 5470.115)
(36.86999 6.764707 8138.757)
(45.73206 3.80687 11202.24)
(58.20117 -0.4647779 13343.01)
(74.916 -5.639375 14345.87)
(97.34847 -10.39309 15605.36)
(120.1127 -11.42929 17322.51)
(68.38225 -6.589785 20042.5)
(19.97859 22.57526 939.7635)
(22.73979 22.38501 2957.344)
(26.52022 21.45988 5193.868)
(31.6627 19.4764 7698.667)
(38.70036 15.99162 10545.61)
(48.40412 10.3062 12484.09)
(61.30302 2.506995 13313.12)
(78.77024 -8.145093 14297.41)
(102.6875 -22.22502 15520.93)
(128.4446 -42.07711 17155.11)
(73.11918 -83.51483 17486.4)
(18.04787 32.67144 896.5071)
(20.34481 32.94667 2814.676)
(23.46316 32.43463 4929.951)
(27.66723 30.83411 7283.958)
(33.32581 27.67891 9937.562)
(41.01167 22.30296 11709.17)
(50.91895 14.84753 12413.99)
(64.08355 4.50663 13225.81)
(81.96098 -10.17404 14182.82)
(106.514 -31.49691 15358.15)
(132.7211 -66.87562 15074.48)
(73.87903 -141.8677 12973.22)
(16.48763 34.39919 855.6584)
(18.43288 34.91605 2680.834)
(21.06095 34.76933 4684.457)
(24.56618 33.71838 6902.265)
(29.23026 31.42342 9385.785)
(35.44889 27.36615 11017.81)
(43.28237 21.89328 11630.96)
(53.35312 14.38853 12322.93)
(66.69878 3.988651 13116.28)
(84.78847 -10.93133 14045.41)
(109.4561 -33.2777 13548.19)
(133.1604 -69.52793 11346.25)
(72.4357 -147.4574 8896.681)
(15.17857 28.52063 818.5243)
(16.85152 29.02393 2559.751)
(19.10458 29.05567 4463.743)
(22.08988 28.46001 6561.898)
(26.01681 27.01636 8898.73)
(31.18734 24.41006 10414.97)
(37.5496 20.97335 10958)
(45.53789 16.39954 11563.32)
(55.77847 10.19243 12244.55)
(69.30464 1.630898 13022.67)
(87.57629 -10.66289 12440.51)
(111.1902 -27.81419 10269.24)
(132.119 -56.36384 7901.522)
(70.39427 -117.871 5185.254)
(14.04047 18.23607 785.5405)
(15.49616 18.57772 2452.566)
(17.4542 18.65251 4269.257)
(20.03728 18.37315 6263.816)
(23.41082 17.62556 8475.517)
(27.80225 16.24735 9895.515)
(33.11512 14.47305 10383.88)
(39.63617 12.16021 10923.45)
(47.80223 9.11127 11523.85)
(58.24597 5.006731 12198.13)
(72.00239 -0.6276301 11583.52)
(89.70264 -7.954596 9482.002)
(112.343 -18.25914 7204.383)
(130.9239 -35.70245 4667.573)
(68.584 -73.31132 1699.307)
(13.02645 6.149491 756.5774)
(14.30475 6.269129 2358.67)
(16.02454 6.305453 4099.46)
(18.28819 6.234668 6004.827)
(21.23017 6.02172 8110.032)
(25.03209 5.621203 9449.713)
(29.5626 5.113502 9894.386)
(35.03308 4.465013 10382.78)
(41.73558 3.62587 10921.78)
(50.1136 2.526474 11520.81)
(60.81201 1.054679 10895.15)
(74.18994 -0.7421856 8872.376)
(91.40058 -3.084377 6689.082)
(113.2652 -6.39704 4285.084)
(130.2145 -12.07071 1546.409)
(38.64695 -45.79835 1734.422)
(76.24581 -33.88719 1593.529)
(38.39782 -65.38661 5393.504)
(70.00773 -17.48364 1473.485)
(74.74154 -28.82282 4890.192)
(37.76648 -81.75947 9357.986)
(57.84871 -4.252116 1370.866)
(70.04881 -7.736817 4476.764)
(73.48519 -25.00424 8313.474)
(37.37556 -87.9692 13581.45)
(47.93537 0.9968128 1282.349)
(58.40986 0.7548411 4142.316)
(70.92402 -3.894301 7546.809)
(73.96301 -22.11848 11846.22)
(38.35395 -78.20578 18023.15)
(40.16611 1.653438 1205.882)
(48.60298 2.043747 3866.477)
(59.80075 1.469965 6960.353)
(73.17396 -2.332043 10691.07)
(77.61559 -15.56944 15508.86)
(41.69618 -51.88524 20392.5)
(34.12332 0.5863861 1139.696)
(40.76564 0.7657538 3634.084)
(49.94995 0.8540748 6490.719)
(62.19664 0.5898573 9841.88)
(77.23745 -0.8023824 13941.73)
(85.33338 -5.387487 17406.28)
(46.45516 -17.45023 20515.03)
(29.32954 -0.4081715 1081.848)
(34.61829 -0.5724105 3435.137)
(41.91823 -0.7441781 6100.268)
(52.02573 -0.8403076 9173.814)
(65.70411 -0.6234377 12819.4)
(83.33407 0.6101858 15618.1)
(95.04844 4.825373 17449.47)
(52.57816 15.73463 20550.63)
(25.51784 -0.07250116 1030.683)
(29.73519 -0.4643987 3261.513)
(35.58 -0.9749614 5766.928)
(43.63402 -1.591596 8621.175)
(54.84484 -2.145581 11944.17)
(70.33193 -2.122546 14354.87)
(89.98794 0.2865258 15652.28)
(106.2969 9.925457 17465.54)
(59.71734 35.43772 20502.75)
(22.45144 3.055553 984.6123)
(25.86231 2.608671 3106.872)
(30.55236 1.891582 5474.224)
(37.00975 0.8139976 8147.099)
(45.90803 -0.7203821 11218.02)
(58.37815 -2.665654 13368.64)
(74.94513 -4.427164 14384.45)
(96.79897 -4.004188 15669.15)
(118.0895 3.88351 17445.61)
(67.15997 27.01306 20358)
(19.97906 10.5578 942.0632)
(22.76658 10.24609 2965.218)
(26.58662 9.502043 5209.219)
(31.78655 8.1272 7724.408)
(38.90588 5.864733 10586.27)
(48.71765 2.335778 12539.55)
(61.73546 -2.359351 13382.17)
(79.2785 -8.221541 14387.92)
(103.1295 -14.24881 15649.95)
(128.8098 -18.15599 17368.47)
(73.72774 -22.55588 17916.92)
(17.9842 22.23555 901.3918)
(20.29952 22.26951 2830.818)
(23.45008 21.69761 4960.082)
(27.70699 20.27592 7332.065)
(33.44876 17.62641 10009.45)
(41.2649 13.21822 11801.45)
(51.35442 7.060655 12520.58)
(64.77789 -1.411194 13352.48)
(83.02287 -13.09309 14339.59)
(108.2296 -28.95527 15565.67)
(136.4281 -52.56182 15351.25)
(76.8572 -100.8068 13396.72)
(16.38638 31.82407 861.5432)
(18.33937 32.22099 2700.031)
(20.98602 31.95636 4719.683)
(24.52537 30.77338 6957.363)
(29.24768 28.31626 9466.144)
(35.56127 24.03756 11118.3)
(43.53427 18.2037 11743.54)
(53.80925 10.14975 12451.1)
(67.46738 -1.016005 13265.59)
(86.06152 -16.90786 14225.15)
(111.7559 -40.21986 13751.68)
(138.2856 -76.74656 11564.27)
(76.26825 -155.7293 9173.741)
(15.0791 33.38396 823.7059)
(16.75333 33.94053 2576.536)
(19.01455 33.9187 4494.264)
(22.01803 33.11872 6609.112)
(25.97789 31.25685 8966.672)
(31.20452 27.93145 10498.76)
(37.64824 23.51026 11050.32)
(45.75717 17.58509 11666.16)
(56.17772 9.501144 12360.74)
(69.98753 -1.676372 13156.57)
(88.73889 -17.70139 12582.14)
(113.3221 -39.93579 10403.41)
(136.8504 -76.31066 8029.468)
(73.81393 -155.2643 5312.596)
(13.9676 27.65796 789.1584)
(15.42224 28.15813 2464.231)
(17.38305 28.24076 4290.348)
(19.97453 27.76996 6296.212)
(23.36444 26.56127 8521.742)
(27.78425 24.35434 9952.021)
(33.13815 21.50303 10445.54)
(39.71863 17.77262 10991.26)
(47.97273 12.83793 11599.18)
(58.54874 6.174969 12282.9)
(72.51615 -2.988091 11670.29)
(90.56113 -14.94448 9560.022)
(113.9119 -31.71474 7271.733)
(134.3608 -59.81318 4720.581)
(71.01227 -120.6817 1727.379)
(12.98827 17.68412 758.3633)
(14.2656 18.015 2364.408)
(15.98589 18.10218 4109.79)
(18.2524 17.8761 6020.612)
(21.2006 17.23411 8132.418)
(25.01348 16.04118 9476.912)
(29.55946 14.52952 9923.873)
(35.05213 12.5987 10414.94)
(41.7866 10.0992 10957.14)
(50.21181 6.822365 11560.05)
(60.98119 2.43219 10934.55)
(74.46593 -2.945159 8906.863)
(91.85243 -9.965218 6717.556)
(114.0829 -19.87884 4305.664)
(131.9814 -36.76128 1555.342)
(12.10579 5.963703 731.2456)
(13.23599 6.078054 2276.673)
(14.75964 6.115961 3951.549)
(16.76355 6.056398 5780.069)
(19.36082 5.871068 7794.397)
(22.70042 5.51885 9066.504)
(26.63604 5.078789 9475.614)
(31.3197 4.525429 9923.001)
(36.96814 3.823466 10414.03)
(43.88159 2.920676 10955.57)
(52.51535 1.7438 10329.65)
(62.93455 0.3625842 8381.784)
(75.98936 -1.327532 6288.137)
(92.80214 -3.536295 3998.795)
(114.1195 -6.669288 1428.127)
(38.76744 -28.59084 1691.444)
(77.32758 -34.25338 1563.195)
(39.33186 -41.8662 5227.432)
(70.4404 -29.08872 1454.486)
(77.58686 -31.51862 4803.241)
(39.974 -56.18147 9057.503)
(57.93265 -16.00039 1362.915)
(71.04571 -16.25936 4441.641)
(77.76147 -24.89596 8212.188)
(40.52825 -68.80655 13244.77)
(47.87522 -4.86353 1280.308)
(58.66785 -3.805039 4132.44)
(72.23405 -6.33516 7517.521)
(78.49207 -21.12706 11761.62)
(41.56699 -75.07141 17729.66)
(40.09459 0.07656621 1205.941)
(48.60797 1.08892 3865.582)
(60.08972 1.098573 6955.292)
(74.34109 -2.882289 10673.06)
(81.17467 -19.13121 15449.7)
(44.13784 -67.7444 20200.61)
(34.0864 1.039375 1140.046)
(40.73637 1.639408 3634.915)
(49.96752 2.05797 6491.34)
(62.37545 1.615999 9840.507)
(77.89551 -1.767946 13933.29)
(87.19136 -13.66613 17377.98)
(47.71764 -46.33087 20428.65)
(29.32954 0.4081719 1081.848)
(34.61829 0.5724109 3435.137)
(41.91823 0.7441786 6100.268)
(52.02573 0.840308 9173.814)
(65.70411 0.6234382 12819.4)
(83.33407 -0.6101856 15618.1)
(95.04844 -4.825374 17449.47)