/*--------------------------------*- C++ -*----------------------------------*\
| =========                 |                                                 |
| \\      /  F ield         | OpenFOAM: The Open Source CFD Toolbox           |
|  \\    /   O peration     | Version:  2306                                  |
|   \\  /    A nd           | Website:  www.openfoam.com                      |
|    \\/     M anipulation  |                                                 |
\*---------------------------------------------------------------------------*/
FoamFile
{
    version     2.0;
    format      ascii;
    arch        "LSB;label=32;scalar=64";
    class       volScalarField;
    location    "1.2/phiI";
    object      J;
}
// * * * * * * * * * * * * * * * * * * * * * * * * * * * * * * * * * * * * * //

dimensions      [0 -3 0 0 0 1 0];

internalField   nonuniform List<scalar> 
12000
(
-8.178487e+08
-8.25046e+08
-7.489735e+08
-8.235256e+08
-8.395408e+08
-7.536381e+08
-8.308361e+08
-6.908774e+08
-7.539417e+08
-8.387455e+08
-8.612313e+08
-7.627952e+08
-8.455567e+08
-6.94448e+08
-7.586826e+08
-8.4633e+08
-6.443451e+08
-6.953156e+08
-7.671272e+08
-8.639589e+08
-8.891476e+08
-7.758246e+08
-8.675719e+08
-7.013833e+08
-7.679923e+08
-8.616047e+08
-6.472788e+08
-6.989446e+08
-7.720451e+08
-8.71991e+08
-6.056828e+08
-6.483866e+08
-7.069462e+08
-7.888783e+08
-9.00091e+08
-9.194709e+08
-7.912069e+08
-8.95853e+08
-7.110374e+08
-7.812468e+08
-8.844478e+08
-6.529441e+08
-7.059964e+08
-7.817073e+08
-8.881745e+08
-6.081848e+08
-6.513679e+08
-7.107083e+08
-7.940809e+08
-9.087691e+08
-5.724629e+08
-6.094073e+08
-6.588533e+08
-7.260453e+08
-8.199169e+08
0
-9.436523e+08
-8.05807e+08
-9.264424e+08
-7.219783e+08
-7.969143e+08
-9.137632e+08
-6.60736e+08
-7.15823e+08
-7.954788e+08
-9.123892e+08
-6.129995e+08
-6.571277e+08
-7.180234e+08
-8.0431e+08
-9.262669e+08
-5.746458e+08
-6.119494e+08
-6.619417e+08
-7.300198e+08
-8.255258e+08
0
-5.433375e+08
-5.759207e+08
-6.189528e+08
-6.759712e+08
-7.531906e+08
0
0
-9.599723e+08
-8.158602e+08
-9.507485e+08
-7.315899e+08
-8.118184e+08
-9.453741e+08
-6.693656e+08
-7.269879e+08
-8.117893e+08
-9.434623e+08
-6.195738e+08
-6.650592e+08
-7.282326e+08
-8.189116e+08
-9.524766e+08
-5.788366e+08
-6.168433e+08
-6.679127e+08
-7.377543e+08
-8.365639e+08
0
-5.452733e+08
-5.78138e+08
-6.215845e+08
-6.792299e+08
-7.57466e+08
0
0
-5.174003e+08
-5.465653e+08
-5.847031e+08
-6.345092e+08
-7.002186e+08
0
0
0
-9.696747e+08
-8.218273e+08
-9.670859e+08
-7.373647e+08
-8.220874e+08
-9.704172e+08
-6.765998e+08
-7.36856e+08
-8.273534e+08
-9.769069e+08
-6.267553e+08
-6.738714e+08
-7.398709e+08
-8.362499e+08
-9.861373e+08
-5.845324e+08
-6.235344e+08
-6.761496e+08
-7.485703e+08
-8.523499e+08
0
-5.489838e+08
-5.823968e+08
-6.266547e+08
-6.855358e+08
-7.657947e+08
0
0
-5.191373e+08
-5.485312e+08
-5.869972e+08
-6.372828e+08
-7.037174e+08
0
0
0
-4.940573e+08
-5.204259e+08
-5.546993e+08
-5.989721e+08
-6.564814e+08
0
0
0
0
-9.741519e+08
-8.250556e+08
-9.767636e+08
-7.401844e+08
-8.281616e+08
-9.87192e+08
-6.805187e+08
-7.428282e+08
-8.380897e+08
-1.003342e+09
-6.326036e+08
-6.813198e+08
-7.502298e+08
-8.528579e+08
-1.022346e+09
-5.906994e+08
-6.308685e+08
-6.853379e+08
-7.609487e+08
-8.711524e+08
0
-5.540107e+08
-5.881923e+08
-6.335996e+08
-6.942536e+08
-7.77468e+08
0
0
-5.224623e+08
-5.523009e+08
-5.914066e+08
-6.426315e+08
-7.104951e+08
0
0
0
-4.956302e+08
-5.221893e+08
-5.56732e+08
-6.013874e+08
-6.594545e+08
0
0
0
0
-4.728639e+08
-4.96903e+08
-5.27998e+08
-5.678794e+08
-6.19076e+08
0
0
0
0
0
-9.741519e+08
-8.264654e+08
-9.812184e+08
-7.413833e+08
-8.31429e+08
-9.970985e+08
-6.820747e+08
-7.457601e+08
-8.44425e+08
-1.021002e+09
-6.355398e+08
-6.854089e+08
-7.565496e+08
-8.643329e+08
-1.050923e+09
-5.956274e+08
-6.368969e+08
-6.931772e+08
-7.720501e+08
-8.892411e+08
0
-5.594212e+08
-5.94489e+08
-6.412449e+08
-7.040239e+08
-7.908858e+08
0
0
-5.269567e+08
-5.574143e+08
-5.974183e+08
-6.499747e+08
-7.198888e+08
0
0
0
-4.986383e+08
-5.255666e+08
-5.606327e+08
-6.060342e+08
-6.651941e+08
0
0
0
0
-4.742987e+08
-4.984996e+08
-5.298204e+08
-5.700175e+08
-6.216612e+08
0
0
0
0
0
-4.534951e+08
-4.755481e+08
-5.039818e+08
-5.402386e+08
-5.864091e+08
0
0
0
0
0
9.419488e+08
-9.696747e+08
-8.264654e+08
-9.812184e+08
-7.418014e+08
-8.328484e+08
-1.001649e+09
-6.825001e+08
-7.470116e+08
-8.478175e+08
-1.031406e+09
-6.364926e+08
-6.870661e+08
-7.596752e+08
-8.710941e+08
-1.069975e+09
-5.979647e+08
-6.399783e+08
-6.975433e+08
-7.788796e+08
-9.01763e+08
0
-5.636896e+08
-5.995702e+08
-6.475964e+08
-7.12443e+08
-8.030135e+08
0
0
-5.317734e+08
-5.629367e+08
-6.039791e+08
-6.580993e+08
-7.304699e+08
0
0
0
-5.026971e+08
-5.301369e+08
-5.659336e+08
-6.123845e+08
-6.730948e+08
0
0
0
0
-4.770401e+08
-5.015541e+08
-5.33313e+08
-5.741243e+08
-6.266405e+08
0
0
0
0
0
-4.548117e+08
-4.770041e+08
-5.056309e+08
-5.421538e+08
-5.886946e+08
0
0
0
0
0
9.500692e+08
-4.356953e+08
-4.560332e+08
-4.821893e+08
-5.154011e+08
-5.574147e+08
0
0
0
0
0
8.603147e+08
9.018482e+08
-9.599723e+08
-8.250556e+08
-9.767636e+08
-7.418014e+08
-8.328484e+08
-1.001649e+09
-6.825506e+08
-7.47449e+08
-8.49285e+08
-1.036178e+09
-6.36581e+08
-6.875423e+08
-7.610194e+08
-8.74703e+08
-1.081182e+09
-5.985888e+08
-6.410191e+08
-6.993552e+08
-7.822868e+08
-9.091364e+08
0
-5.656275e+08
-6.020319e+08
-6.509068e+08
-7.172015e+08
-8.105359e+08
0
0
-5.35538e+08
-5.673368e+08
-6.093336e+08
-6.649259e+08
-7.396801e+08
0
0
0
-5.070331e+08
-5.350513e+08
-5.716843e+08
-6.193511e+08
-6.818842e+08
0
0
0
0
-4.807341e+08
-5.056802e+08
-5.380481e+08
-5.797186e+08
-6.334634e+08
0
0
0
0
0
-4.573254e+08
-4.797871e+08
-5.087881e+08
-5.458277e+08
-5.930893e+08
0
0
0
0
0
9.664715e+08
-4.369095e+08
-4.57369e+08
-4.836924e+08
-5.171327e+08
-5.594594e+08
0
0
0
0
0
8.654879e+08
9.09398e+08
-4.192633e+08
-4.381005e+08
-4.622829e+08
-4.928824e+08
-5.313974e+08
0
0
0
0
0
7.908824e+08
8.257974e+08
8.735211e+08
-9.436523e+08
-8.218273e+08
-9.670859e+08
-7.413833e+08
-8.31429e+08
-9.970985e+08
-6.825506e+08
-7.47449e+08
-8.49285e+08
-1.036178e+09
-6.364808e+08
-6.87613e+08
-7.614926e+08
-8.762592e+08
-1.086316e+09
-5.985148e+08
-6.411527e+08
-6.999058e+08
-7.837669e+08
-9.130637e+08
0
-5.660555e+08
-6.027319e+08
-6.520753e+08
-7.192258e+08
-8.143233e+08
0
0
-5.371877e+08
-5.693821e+08
-6.119889e+08
-6.685553e+08
-7.449603e+08
0
0
0
-5.103979e+08
-5.389303e+08
-5.763197e+08
-6.251063e+08
-6.893548e+08
0
0
0
0
-4.846704e+08
-5.101023e+08
-5.431624e+08
-5.858197e+08
-6.409913e+08
0
0
0
0
0
-4.607087e+08
-4.835413e+08
-5.130605e+08
-5.508205e+08
-5.990922e+08
0
0
0
0
0
9.912085e+08
-4.39226e+08
-4.599202e+08
-4.865675e+08
-5.20451e+08
-5.633861e+08
0
0
0
0
0
8.756583e+08
9.246378e+08
-4.20388e+08
-4.393322e+08
-4.636613e+08
-4.944596e+08
-5.332441e+08
0
0
0
0
0
7.947937e+08
8.306309e+08
8.806903e+08
-4.040351e+08
-4.215472e+08
-4.439976e+08
-4.723287e+08
-5.078387e+08
0
0
0
0
0
7.350826e+08
7.608703e+08
8.012142e+08
8.56115e+08
-9.194709e+08
-8.158602e+08
-9.507485e+08
-7.401844e+08
-8.281616e+08
-9.87192e+08
-6.825001e+08
-7.470116e+08
-8.478175e+08
-1.031406e+09
-6.364808e+08
-6.87613e+08
-7.614926e+08
-8.762592e+08
-1.086316e+09
-5.98349e+08
-6.41071e+08
-7.000053e+08
-7.842932e+08
-9.147535e+08
0
-5.658985e+08
-6.026973e+08
-6.522703e+08
-7.198761e+08
-8.15987e+08
0
0
-5.374881e+08
-5.69876e+08
-6.127967e+08
-6.698944e+08
-7.472612e+08
0
0
0
-5.118293e+08
-5.406737e+08
-5.785317e+08
-6.280292e+08
-6.934032e+08
0
0
0
0
-4.877075e+08
-5.135674e+08
-5.472468e+08
-5.908e+08
-6.472875e+08
0
0
0
0
0
-4.643067e+08
-4.87554e+08
-5.176596e+08
-5.562417e+08
-6.056772e+08
0
0
0
0
0
1.023417e+09
-4.423412e+08
-4.633577e+08
-4.904526e+08
-5.249521e+08
-5.687371e+08
0
0
0
0
0
8.902837e+08
9.476002e+08
-4.225321e+08
-4.416827e+08
-4.662956e+08
-4.97479e+08
-5.367867e+08
0
0
0
0
0
8.02389e+08
8.40129e+08
8.951589e+08
-4.050808e+08
-4.226877e+08
-4.45268e+08
-4.737739e+08
-5.095188e+08
0
0
0
0
0
7.382687e+08
7.645402e+08
8.058157e+08
8.630729e+08
-3.898764e+08
-4.062076e+08
-4.271249e+08
-4.534621e+08
-4.863602e+08
0
0
0
0
0
6.886502e+08
7.085247e+08
7.393685e+08
7.858981e+08
8.486329e+08
-8.891476e+08
-8.05807e+08
-9.264424e+08
-7.373647e+08
-8.220874e+08
-9.704172e+08
-6.820747e+08
-7.457601e+08
-8.44425e+08
-1.021002e+09
-6.36581e+08
-6.875423e+08
-7.610194e+08
-8.74703e+08
-1.081182e+09
-5.98349e+08
-6.41071e+08
-7.000053e+08
-7.842932e+08
-9.147535e+08
0
-5.657043e+08
-6.025477e+08
-6.522125e+08
-7.200138e+08
-8.165855e+08
0
0
-5.372866e+08
-5.697533e+08
-6.128139e+08
-6.701685e+08
-7.480395e+08
0
0
0
-5.120422e+08
-5.410318e+08
-5.791183e+08
-6.289792e+08
-6.949604e+08
0
0
0
0
-4.889666e+08
-5.150814e+08
-5.491355e+08
-5.932415e+08
-6.505597e+08
0
0
0
0
0
-4.670695e+08
-4.906799e+08
-5.213059e+08
-5.606272e+08
-6.111221e+08
0
0
0
0
0
1.05818e+09
-4.456485e+08
-4.670241e+08
-4.946234e+08
-5.29823e+08
-5.745815e+08
0
0
0
0
0
9.079819e+08
9.774646e+08
-4.254133e+08
-4.448469e+08
-4.698511e+08
-5.015688e+08
-5.416053e+08
0
0
0
0
0
8.130745e+08
8.537786e+08
9.169558e+08
-4.070729e+08
-4.248629e+08
-4.476939e+08
-4.765384e+08
-5.12739e+08
0
0
0
0
0
7.444101e+08
7.716635e+08
8.148558e+08
8.771191e+08
-3.908518e+08
-4.072679e+08
-4.283008e+08
-4.547931e+08
-4.878982e+08
0
0
0
0
0
6.913492e+08
7.115242e+08
7.42871e+08
7.903641e+08
8.555264e+08
-3.766742e+08
-3.919464e+08
-4.114946e+08
-4.360642e+08
-4.666651e+08
0
0
0
0
0
6.487212e+08
6.648476e+08
6.894186e+08
7.258449e+08
7.790707e+08
-8.612313e+08
-7.912069e+08
-8.95853e+08
-7.315899e+08
-8.118184e+08
-9.453741e+08
-6.805187e+08
-7.428282e+08
-8.380897e+08
-1.003342e+09
-6.364926e+08
-6.870661e+08
-7.596752e+08
-8.710941e+08
-1.069975e+09
-5.985148e+08
-6.411527e+08
-6.999058e+08
-7.837669e+08
-9.130637e+08
0
-5.657043e+08
-6.025477e+08
-6.522125e+08
-7.200138e+08
-8.165855e+08
0
0
-5.370809e+08
-5.695732e+08
-6.126844e+08
-6.701404e+08
-7.482254e+08
0
0
0
-5.118165e+08
-5.408601e+08
-5.7904e+08
-6.290616e+08
-6.953329e+08
0
0
0
0
-4.891165e+08
-5.153451e+08
-5.495744e+08
-5.939494e+08
-6.516896e+08
0
0
0
0
0
-4.681892e+08
-4.920124e+08
-5.229481e+08
-5.627159e+08
-6.138622e+08
0
0
0
0
0
1.084483e+09
-4.481779e+08
-4.698661e+08
-4.979106e+08
-5.337354e+08
-5.793724e+08
0
0
0
0
0
9.252093e+08
1.009657e+09
-4.284679e+08
-4.482159e+08
-4.736597e+08
-5.059825e+08
-5.468507e+08
0
0
0
0
0
8.255436e+08
8.702829e+08
9.453079e+08
-4.09748e+08
-4.277887e+08
-4.509652e+08
-4.802785e+08
-5.171127e+08
0
0
0
0
0
7.529378e+08
7.816794e+08
8.278442e+08
8.982931e+08
-3.927086e+08
-4.092884e+08
-4.305447e+08
-4.573373e+08
-4.908436e+08
0
0
0
0
0
6.965263e+08
7.173038e+08
7.496676e+08
7.991387e+08
8.694523e+08
-3.775866e+08
-3.929352e+08
-4.125872e+08
-4.372955e+08
-4.680803e+08
0
0
0
0
0
6.51063e+08
6.67396e+08
6.922876e+08
7.292468e+08
7.834854e+08
-3.643338e+08
-3.786495e+08
-3.969676e+08
-4.199571e+08
-4.485205e+08
0
0
0
0
0
6.136613e+08
6.271967e+08
6.476708e+08
6.773268e+08
7.196838e+08
-8.395408e+08
-7.758246e+08
-8.675719e+08
-7.219783e+08
-7.969143e+08
-9.137632e+08
-6.765998e+08
-7.36856e+08
-8.273534e+08
-9.769069e+08
-6.355398e+08
-6.854089e+08
-7.565496e+08
-8.643329e+08
-1.050923e+09
-5.985888e+08
-6.410191e+08
-6.993552e+08
-7.822868e+08
-9.091364e+08
0
-5.658985e+08
-6.026973e+08
-6.522703e+08
-7.198761e+08
-8.15987e+08
0
0
-5.370809e+08
-5.695732e+08
-6.126844e+08
-6.701404e+08
-7.482254e+08
0
0
0
-5.11608e+08
-5.406669e+08
-5.788771e+08
-6.289565e+08
-6.95341e+08
0
0
0
0
-4.888782e+08
-5.151457e+08
-5.494414e+08
-5.939267e+08
-6.51852e+08
0
0
0
0
0
-4.682924e+08
-4.922074e+08
-5.23283e+08
-5.632603e+08
-6.14723e+08
0
0
0
0
0
1.101133e+09
-4.491823e+08
-4.710513e+08
-4.993572e+08
-5.35554e+08
-5.817209e+08
0
0
0
0
0
9.3683e+08
1.033925e+09
-4.307956e+08
-4.508163e+08
-4.766463e+08
-5.095068e+08
-5.51121e+08
0
0
0
0
0
8.369967e+08
8.863328e+08
9.758801e+08
-4.125805e+08
-4.308992e+08
-4.544628e+08
-4.843057e+08
-5.218608e+08
0
0
0
0
0
7.626666e+08
7.933585e+08
8.435472e+08
9.258727e+08
-3.952007e+08
-4.120042e+08
-4.335681e+08
-4.607758e+08
-4.948394e+08
0
0
0
0
0
7.036523e+08
7.253245e+08
7.592216e+08
8.117485e+08
8.904737e+08
-3.793223e+08
-3.948181e+08
-4.146707e+08
-4.396472e+08
-4.707884e+08
0
0
0
0
0
6.555391e+08
6.722821e+08
6.978142e+08
7.358481e+08
7.92162e+08
-3.651896e+08
-3.795743e+08
-3.979862e+08
-4.211005e+08
-4.498284e+08
0
0
0
0
0
6.157284e+08
6.294133e+08
6.50113e+08
6.801162e+08
7.230438e+08
-3.52774e+08
-3.662215e+08
-3.834268e+08
-4.049953e+08
-4.317367e+08
0
0
0
0
0
5.823737e+08
5.940638e+08
6.116259e+08
6.367523e+08
6.717481e+08
-8.25046e+08
-7.627952e+08
-8.455567e+08
-7.110374e+08
-7.812468e+08
-8.844478e+08
-6.693656e+08
-7.269879e+08
-8.117893e+08
-9.434623e+08
-6.326036e+08
-6.813198e+08
-7.502298e+08
-8.528579e+08
-1.022346e+09
-5.979647e+08
-6.399783e+08
-6.975433e+08
-7.788796e+08
-9.01763e+08
0
-5.660555e+08
-6.027319e+08
-6.520753e+08
-7.192258e+08
-8.143233e+08
0
0
-5.372866e+08
-5.697533e+08
-6.128139e+08
-6.701685e+08
-7.480395e+08
0
0
0
-5.11608e+08
-5.406669e+08
-5.788771e+08
-6.289565e+08
-6.95341e+08
0
0
0
0
-4.886714e+08
-5.149482e+08
-5.492631e+08
-5.937843e+08
-6.517758e+08
0
0
0
0
0
-4.680486e+08
-4.919925e+08
-5.231177e+08
-5.631754e+08
-6.147676e+08
0
0
0
0
0
1.1106e+09
-4.492501e+08
-4.711949e+08
-4.996156e+08
-5.359819e+08
-5.823977e+08
0
0
0
0
0
9.432927e+08
1.049238e+09
-4.317026e+08
-4.518797e+08
-4.77934e+08
-5.111107e+08
-5.531685e+08
0
0
0
0
0
8.440745e+08
8.971291e+08
9.988666e+08
-4.147319e+08
-4.332909e+08
-4.571938e+08
-4.875053e+08
-5.257042e+08
0
0
0
0
0
7.712725e+08
8.040758e+08
8.588156e+08
9.556722e+08
-3.978364e+08
-4.148876e+08
-4.367956e+08
-4.644714e+08
-4.991674e+08
0
0
0
0
0
7.116572e+08
7.344682e+08
7.70359e+08
8.270024e+08
9.179236e+08
-3.816507e+08
-3.973475e+08
-4.174759e+08
-4.428231e+08
-4.744586e+08
0
0
0
0
0
6.616613e+08
6.790038e+08
7.054815e+08
7.451278e+08
8.046387e+08
-3.668163e+08
-3.813341e+08
-3.999271e+08
-4.232828e+08
-4.523296e+08
0
0
0
0
0
6.196692e+08
6.336485e+08
6.547943e+08
6.854888e+08
7.29565e+08
-3.535787e+08
-3.670888e+08
-3.843792e+08
-4.060606e+08
-4.329502e+08
0
0
0
0
0
5.842214e+08
5.960249e+08
6.137539e+08
6.39129e+08
6.745028e+08
-3.419255e+08
-3.545804e+08
-3.707743e+08
-3.910564e+08
-4.161588e+08
0
0
0
0
0
5.541326e+08
5.644354e+08
5.798587e+08
6.016957e+08
6.316747e+08
-8.178487e+08
-7.536381e+08
-8.308361e+08
-7.013833e+08
-7.679923e+08
-8.616047e+08
-6.60736e+08
-7.15823e+08
-7.954788e+08
-9.123892e+08
-6.267553e+08
-6.738714e+08
-7.398709e+08
-8.362499e+08
-9.861373e+08
-5.956274e+08
-6.368969e+08
-6.931772e+08
-7.720501e+08
-8.892411e+08
0
-5.656275e+08
-6.020319e+08
-6.509068e+08
-7.172015e+08
-8.105359e+08
0
0
-5.374881e+08
-5.69876e+08
-6.127967e+08
-6.698944e+08
-7.472612e+08
0
0
0
-5.118165e+08
-5.408601e+08
-5.7904e+08
-6.290616e+08
-6.953329e+08
0
0
0
0
-4.886714e+08
-5.149482e+08
-5.492631e+08
-5.937843e+08
-6.517758e+08
0
0
0
0
0
-4.67846e+08
-4.917954e+08
-5.229334e+08
-5.630148e+08
-6.146495e+08
0
0
0
0
0
1.114854e+09
-4.490053e+08
-4.709722e+08
-4.994311e+08
-5.358589e+08
-5.823709e+08
0
0
0
0
0
9.465623e+08
1.057924e+09
-4.31743e+08
-4.51984e+08
-4.781346e+08
-5.114519e+08
-5.537129e+08
0
0
0
0
0
8.474886e+08
9.031188e+08
1.013342e+09
-4.155556e+08
-4.342514e+08
-4.583498e+08
-4.889343e+08
-5.275119e+08
0
0
0
0
0
7.762699e+08
8.106813e+08
8.690597e+08
9.780437e+08
-3.998323e+08
-4.17097e+08
-4.393059e+08
-4.673951e+08
-5.026538e+08
0
0
0
0
0
7.185534e+08
7.425477e+08
7.805741e+08
8.418455e+08
9.47688e+08
-3.841109e+08
-4.000297e+08
-4.204662e+08
-4.462309e+08
-4.784266e+08
0
0
0
0
0
6.684604e+08
6.865487e+08
7.142187e+08
7.559477e+08
8.197499e+08
-3.689976e+08
-3.836968e+08
-4.025385e+08
-4.262275e+08
-4.557165e+08
0
0
0
0
0
6.250332e+08
6.39438e+08
6.612323e+08
6.929421e+08
7.38735e+08
-3.551069e+08
-3.687378e+08
-3.861924e+08
-4.080923e+08
-4.352693e+08
0
0
0
0
0
5.877366e+08
5.99762e+08
6.178187e+08
6.436844e+08
6.798092e+08
-3.426839e+08
-3.553957e+08
-3.716671e+08
-3.920518e+08
-4.172886e+08
0
0
0
0
0
5.558005e+08
5.661919e+08
5.817445e+08
6.037688e+08
6.340224e+08
-3.317277e+08
-3.436563e+08
-3.589259e+08
-3.780381e+08
-4.016567e+08
0
0
0
0
0
5.284032e+08
5.376409e+08
5.514111e+08
5.707763e+08
5.970531e+08
-7.489735e+08
-8.235256e+08
-6.94448e+08
-7.586826e+08
-8.4633e+08
-6.529441e+08
-7.059964e+08
-7.817073e+08
-8.881745e+08
-6.195738e+08
-6.650592e+08
-7.282326e+08
-8.189116e+08
-9.524766e+08
-5.906994e+08
-6.308685e+08
-6.853379e+08
-7.609487e+08
-8.711524e+08
0
-5.636896e+08
-5.995702e+08
-6.475964e+08
-7.12443e+08
-8.030135e+08
0
0
-5.371877e+08
-5.693821e+08
-6.119889e+08
-6.685553e+08
-7.449603e+08
0
0
0
-5.120422e+08
-5.410318e+08
-5.791183e+08
-6.289792e+08
-6.949604e+08
0
0
0
0
-4.888782e+08
-5.151457e+08
-5.494414e+08
-5.939267e+08
-6.51852e+08
0
0
0
0
0
-4.67846e+08
-4.917954e+08
-5.229334e+08
-5.630148e+08
-6.146495e+08
0
0
0
0
0
1.114854e+09
-4.488081e+08
-4.707782e+08
-4.992457e+08
-5.356901e+08
-5.822311e+08
0
0
0
0
0
9.479141e+08
1.061823e+09
-4.314998e+08
-4.517581e+08
-4.779391e+08
-5.11305e+08
-5.53641e+08
0
0
0
0
0
8.489085e+08
9.06144e+08
1.021543e+09
-4.155743e+08
-4.343249e+08
-4.585056e+08
-4.892092e+08
-5.279568e+08
0
0
0
0
0
7.783965e+08
8.138588e+08
8.747328e+08
9.921221e+08
-4.005841e+08
-4.179696e+08
-4.403506e+08
-4.686788e+08
-5.042657e+08
0
0
0
0
0
7.22379e+08
7.472261e+08
7.868518e+08
8.517809e+08
9.700249e+08
-3.859688e+08
-4.020786e+08
-4.227839e+08
-4.489164e+08
-4.816096e+08
0
0
0
0
0
6.742028e+08
6.930404e+08
7.219328e+08
7.658724e+08
8.344763e+08
-3.713004e+08
-3.861997e+08
-4.053189e+08
-4.293827e+08
-4.593721e+08
0
0
0
0
0
6.309379e+08
6.458622e+08
6.684549e+08
7.014353e+08
7.494338e+08
-3.571554e+08
-3.709507e+08
-3.886309e+08
-4.10832e+08
-4.384071e+08
0
0
0
0
0
5.925029e+08
6.04846e+08
6.233734e+08
6.499484e+08
6.871718e+08
-3.441228e+08
-3.569446e+08
-3.733656e+08
-3.939489e+08
-4.19446e+08
0
0
0
0
0
5.589686e+08
5.695323e+08
5.85337e+08
6.077281e+08
6.385221e+08
-3.324438e+08
-3.444245e+08
-3.597649e+08
-3.789707e+08
-4.027117e+08
0
0
0
0
0
5.299206e+08
5.392294e+08
5.531026e+08
5.726151e+08
5.991014e+08
-3.221273e+08
-3.33388e+08
-3.4781e+08
-3.658526e+08
-3.881218e+08
0
0
0
0
0
5.047921e+08
5.131857e+08
5.256496e+08
5.430665e+08
5.665142e+08
-6.908774e+08
-7.539417e+08
-8.387455e+08
-6.472788e+08
-6.989446e+08
-7.720451e+08
-8.71991e+08
-6.129995e+08
-6.571277e+08
-7.180234e+08
-8.0431e+08
-9.262669e+08
-5.845324e+08
-6.235344e+08
-6.761496e+08
-7.485703e+08
-8.523499e+08
0
-5.594212e+08
-5.94489e+08
-6.412449e+08
-7.040239e+08
-7.908858e+08
0
0
-5.35538e+08
-5.673368e+08
-6.093336e+08
-6.649259e+08
-7.396801e+08
0
0
0
-5.118293e+08
-5.406737e+08
-5.785317e+08
-6.280292e+08
-6.934032e+08
0
0
0
0
-4.891165e+08
-5.153451e+08
-5.495744e+08
-5.939494e+08
-6.516896e+08
0
0
0
0
0
-4.680486e+08
-4.919925e+08
-5.231177e+08
-5.631754e+08
-6.147676e+08
0
0
0
0
0
1.1106e+09
-4.488081e+08
-4.707782e+08
-4.992457e+08
-5.356901e+08
-5.822311e+08
0
0
0
0
0
9.479141e+08
1.061823e+09
-4.313087e+08
-4.515687e+08
-4.777555e+08
-5.111334e+08
-5.534903e+08
0
0
0
0
0
8.493862e+08
9.073936e+08
1.025223e+09
-4.153346e+08
-4.340989e+08
-4.583043e+08
-4.890475e+08
-5.278552e+08
0
0
0
0
0
7.790851e+08
8.151765e+08
8.775961e+08
1.0001e+09
-4.005856e+08
-4.180185e+08
-4.404709e+08
-4.689019e+08
-5.046337e+08
0
0
0
0
0
7.238396e+08
7.492095e+08
7.898634e+08
8.572772e+08
9.840909e+08
-3.866578e+08
-4.028751e+08
-4.237333e+08
-4.500773e+08
-4.830588e+08
0
0
0
0
0
6.772768e+08
6.966304e+08
7.263847e+08
7.719526e+08
8.443137e+08
-3.73035e+08
-3.881062e+08
-4.07467e+08
-4.318606e+08
-4.622935e+08
0
0
0
0
0
6.358479e+08
6.512803e+08
6.746628e+08
7.089309e+08
7.592524e+08
-3.593165e+08
-3.732928e+08
-3.912242e+08
-4.137639e+08
-4.41789e+08
0
0
0
0
0
5.977122e+08
6.104375e+08
6.295336e+08
6.569747e+08
6.955644e+08
-3.460511e+08
-3.590225e+08
-3.756486e+08
-3.965056e+08
-4.223631e+08
0
0
0
0
0
5.632505e+08
5.74059e+08
5.902226e+08
6.131377e+08
6.447102e+08
-3.338015e+08
-3.458827e+08
-3.613598e+08
-3.807468e+08
-4.047247e+08
0
0
0
0
0
5.327991e+08
5.422456e+08
5.563186e+08
5.761176e+08
6.030134e+08
-3.22805e+08
-3.341133e+08
-3.486003e+08
-3.667286e+08
-3.891096e+08
0
0
0
0
0
5.061815e+08
5.146335e+08
5.271815e+08
5.447173e+08
5.683316e+08
-3.130799e+08
-3.237218e+08
-3.373637e+08
-3.54425e+08
-3.754609e+08
0
0
0
0
0
4.829932e+08
4.907061e+08
5.021071e+08
5.17954e+08
5.391401e+08
-6.443451e+08
-6.953156e+08
-7.671272e+08
-8.639589e+08
-6.081848e+08
-6.513679e+08
-7.107083e+08
-7.940809e+08
-9.087691e+08
-5.788366e+08
-6.168433e+08
-6.679127e+08
-7.377543e+08
-8.365639e+08
0
-5.540107e+08
-5.881923e+08
-6.335996e+08
-6.942536e+08
-7.77468e+08
0
0
-5.317734e+08
-5.629367e+08
-6.039791e+08
-6.580993e+08
-7.304699e+08
0
0
0
-5.103979e+08
-5.389303e+08
-5.763197e+08
-6.251063e+08
-6.893548e+08
0
0
0
0
-4.889666e+08
-5.150814e+08
-5.491355e+08
-5.932415e+08
-6.505597e+08
0
0
0
0
0
-4.682924e+08
-4.922074e+08
-5.23283e+08
-5.632603e+08
-6.14723e+08
0
0
0
0
0
1.101133e+09
-4.490053e+08
-4.709722e+08
-4.994311e+08
-5.358589e+08
-5.823709e+08
0
0
0
0
0
9.465623e+08
1.057924e+09
-4.313087e+08
-4.515687e+08
-4.777555e+08
-5.111334e+08
-5.534903e+08
0
0
0
0
0
8.493862e+08
9.073936e+08
1.025223e+09
-4.1515e+08
-4.339149e+08
-4.581244e+08
-4.888764e+08
-5.276997e+08
0
0
0
0
0
7.792313e+08
8.156186e+08
8.787789e+08
1.003681e+09
-4.003506e+08
-4.177945e+08
-4.402673e+08
-4.687312e+08
-5.045127e+08
0
0
0
0
0
7.241811e+08
7.498473e+08
7.911096e+08
8.600527e+08
9.920735e+08
-3.866457e+08
-4.029043e+08
-4.238251e+08
-4.502589e+08
-4.833661e+08
0
0
0
0
0
6.78342e+08
6.97994e+08
7.282641e+08
7.748623e+08
8.497538e+08
-3.736691e+08
-3.888363e+08
-4.083341e+08
-4.329163e+08
-4.63605e+08
0
0
0
0
0
6.384015e+08
6.541709e+08
6.78083e+08
7.132403e+08
7.652479e+08
-3.609405e+08
-3.750721e+08
-3.932219e+08
-4.16059e+08
-4.444825e+08
0
0
0
0
0
6.019891e+08
6.150798e+08
6.347226e+08
6.630095e+08
7.029703e+08
-3.480839e+08
-3.612199e+08
-3.780743e+08
-3.992386e+08
-4.255031e+08
0
0
0
0
0
5.679025e+08
5.790019e+08
5.955925e+08
6.191356e+08
6.516524e+08
-3.356202e+08
-3.478382e+08
-3.635027e+08
-3.831393e+08
-4.07445e+08
0
0
0
0
0
5.366792e+08
5.4632e+08
5.606751e+08
5.8088e+08
6.083587e+08
-3.240885e+08
-3.354889e+08
-3.501013e+08
-3.683955e+08
-3.909929e+08
0
0
0
0
0
5.088146e+08
5.173787e+08
5.300894e+08
5.478555e+08
5.717935e+08
-3.137225e+08
-3.244081e+08
-3.381096e+08
-3.552498e+08
-3.763881e+08
0
0
0
0
0
4.842724e+08
4.920338e+08
5.03505e+08
5.194503e+08
5.407723e+08
-3.045438e+08
-3.146129e+08
-3.27532e+08
-3.436901e+08
-3.635947e+08
0
0
0
0
0
4.627658e+08
4.699187e+08
4.804399e+08
4.949872e+08
5.143258e+08
-6.056828e+08
-6.483866e+08
-7.069462e+08
-7.888783e+08
-9.00091e+08
-5.746458e+08
-6.119494e+08
-6.619417e+08
-7.300198e+08
-8.255258e+08
0
-5.489838e+08
-5.823968e+08
-6.266547e+08
-6.855358e+08
-7.657947e+08
0
0
-5.269567e+08
-5.574143e+08
-5.974183e+08
-6.499747e+08
-7.198888e+08
0
0
0
-5.070331e+08
-5.350513e+08
-5.716843e+08
-6.193511e+08
-6.818842e+08
0
0
0
0
-4.877075e+08
-5.135674e+08
-5.472468e+08
-5.908e+08
-6.472875e+08
0
0
0
0
0
-4.681892e+08
-4.920124e+08
-5.229481e+08
-5.627159e+08
-6.138622e+08
0
0
0
0
0
1.084483e+09
-4.492501e+08
-4.711949e+08
-4.996156e+08
-5.359819e+08
-5.823977e+08
0
0
0
0
0
9.432927e+08
1.049238e+09
-4.314998e+08
-4.517581e+08
-4.779391e+08
-5.11305e+08
-5.53641e+08
0
0
0
0
0
8.489085e+08
9.06144e+08
1.021543e+09
-4.1515e+08
-4.339149e+08
-4.581244e+08
-4.888764e+08
-5.276997e+08
0
0
0
0
0
7.792313e+08
8.156186e+08
8.787789e+08
1.003681e+09
-4.001725e+08
-4.176163e+08
-4.40092e+08
-4.685626e+08
-5.043562e+08
0
0
0
0
0
7.2418e+08
7.499805e+08
7.915268e+08
8.612003e+08
9.956606e+08
-3.864161e+08
-4.026837e+08
-4.236216e+08
-4.500832e+08
-4.832323e+08
0
0
0
0
0
6.78496e+08
6.983076e+08
7.288643e+08
7.760646e+08
8.525052e+08
-3.736462e+08
-3.888497e+08
-4.084027e+08
-4.330642e+08
-4.638632e+08
0
0
0
0
0
6.392112e+08
6.551656e+08
6.793742e+08
7.150514e+08
7.681104e+08
-3.615259e+08
-3.757442e+08
-3.940171e+08
-4.170237e+08
-4.456758e+08
0
0
0
0
0
6.041597e+08
6.174854e+08
6.374795e+08
6.663199e+08
7.072101e+08
-3.496078e+08
-3.628851e+08
-3.799379e+08
-4.013718e+08
-4.279962e+08
0
0
0
0
0
5.716815e+08
5.830535e+08
6.000448e+08
6.241828e+08
6.576117e+08
-3.375363e+08
-3.499046e+08
-3.657776e+08
-3.856942e+08
-4.103699e+08
0
0
0
0
0
5.408732e+08
5.507423e+08
5.65429e+08
5.861129e+08
6.142854e+08
-3.258074e+08
-3.37333e+08
-3.521172e+08
-3.7064e+08
-3.935367e+08
0
0
0
0
0
5.123557e+08
5.210772e+08
5.340159e+08
5.521059e+08
5.765006e+08
-3.149383e+08
-3.257084e+08
-3.395251e+08
-3.568178e+08
-3.781546e+08
0
0
0
0
0
4.866947e+08
4.945491e+08
5.06155e+08
5.222902e+08
5.438752e+08
-3.051539e+08
-3.152636e+08
-3.282375e+08
-3.444682e+08
-3.644671e+08
0
0
0
0
0
4.639491e+08
4.71143e+08
4.817235e+08
4.963537e+08
5.158058e+08
-2.964805e+08
-3.060192e+08
-3.182688e+08
-3.335904e+08
-3.524538e+08
0
0
0
0
0
4.439171e+08
4.506007e+08
4.603804e+08
4.738343e+08
4.916256e+08
-5.724629e+08
-6.094073e+08
-6.588533e+08
-7.260453e+08
-8.199169e+08
0
-5.452733e+08
-5.78138e+08
-6.215845e+08
-6.792299e+08
-7.57466e+08
0
0
-5.224623e+08
-5.523009e+08
-5.914066e+08
-6.426315e+08
-7.104951e+08
0
0
0
-5.026971e+08
-5.301369e+08
-5.659336e+08
-6.123845e+08
-6.730948e+08
0
0
0
0
-4.846704e+08
-5.101023e+08
-5.431624e+08
-5.858197e+08
-6.409913e+08
0
0
0
0
0
-4.670695e+08
-4.906799e+08
-5.213059e+08
-5.606272e+08
-6.111221e+08
0
0
0
0
0
1.05818e+09
-4.491823e+08
-4.710513e+08
-4.993572e+08
-5.35554e+08
-5.817209e+08
0
0
0
0
0
9.3683e+08
1.033925e+09
-4.31743e+08
-4.51984e+08
-4.781346e+08
-5.114519e+08
-5.537129e+08
0
0
0
0
0
8.474886e+08
9.031188e+08
1.013342e+09
-4.153346e+08
-4.340989e+08
-4.583043e+08
-4.890475e+08
-5.278552e+08
0
0
0
0
0
7.790851e+08
8.151765e+08
8.775961e+08
1.0001e+09
-4.001725e+08
-4.176163e+08
-4.40092e+08
-4.685626e+08
-5.043562e+08
0
0
0
0
0
7.2418e+08
7.499805e+08
7.915268e+08
8.612003e+08
9.956606e+08
-3.862445e+08
-4.025115e+08
-4.234514e+08
-4.499181e+08
-4.830769e+08
0
0
0
0
0
6.784217e+08
6.983028e+08
7.289876e+08
7.764671e+08
8.536452e+08
-3.734226e+08
-3.886333e+08
-4.082009e+08
-4.328862e+08
-4.637212e+08
0
0
0
0
0
6.392553e+08
6.553034e+08
6.796659e+08
7.15626e+08
7.692926e+08
-3.614941e+08
-3.757449e+08
-3.940669e+08
-4.171439e+08
-4.458939e+08
0
0
0
0
0
6.047921e+08
6.182412e+08
6.384204e+08
6.675613e+08
7.089834e+08
-3.501496e+08
-3.635057e+08
-3.806702e+08
-4.022571e+08
-4.290873e+08
0
0
0
0
0
5.735589e+08
5.851015e+08
6.023416e+08
6.268517e+08
6.608647e+08
-3.389694e+08
-3.514668e+08
-3.67521e+08
-3.876831e+08
-4.126855e+08
0
0
0
0
0
5.442491e+08
5.543285e+08
5.693198e+08
5.904465e+08
6.192689e+08
-3.276173e+08
-3.392803e+08
-3.542558e+08
-3.730348e+08
-3.962691e+08
0
0
0
0
0
5.161665e+08
5.250709e+08
5.382748e+08
5.567424e+08
5.816727e+08
-3.165658e+08
-3.27451e+08
-3.414257e+08
-3.589284e+08
-3.805394e+08
0
0
0
0
0
4.899457e+08
4.9793e+08
5.097238e+08
5.261243e+08
5.480777e+08
-3.063069e+08
-3.16495e+08
-3.295752e+08
-3.459463e+08
-3.661277e+08
0
0
0
0
0
4.661881e+08
4.734604e+08
4.841545e+08
4.989439e+08
5.186147e+08
-2.970607e+08
-3.066369e+08
-3.189376e+08
-3.34326e+08
-3.532763e+08
0
0
0
0
0
4.450159e+08
4.517348e+08
4.615654e+08
4.7509e+08
4.929776e+08
-2.888541e+08
-2.979019e+08
-3.095312e+08
-3.240779e+08
-3.419775e+08
0
0
0
0
0
4.262893e+08
4.325735e+08
4.417182e+08
4.54237e+08
4.707122e+08
-5.433375e+08
-5.759207e+08
-6.189528e+08
-6.759712e+08
-7.531906e+08
0
0
-5.191373e+08
-5.485312e+08
-5.869972e+08
-6.372828e+08
-7.037174e+08
0
0
0
-4.986383e+08
-5.255666e+08
-5.606327e+08
-6.060342e+08
-6.651941e+08
0
0
0
0
-4.807341e+08
-5.056802e+08
-5.380481e+08
-5.797186e+08
-6.334634e+08
0
0
0
0
0
-4.643067e+08
-4.87554e+08
-5.176596e+08
-5.562417e+08
-6.056772e+08
0
0
0
0
0
1.023417e+09
-4.481779e+08
-4.698661e+08
-4.979106e+08
-5.337354e+08
-5.793724e+08
0
0
0
0
0
9.252093e+08
1.009657e+09
-4.317026e+08
-4.518797e+08
-4.77934e+08
-5.111107e+08
-5.531685e+08
0
0
0
0
0
8.440745e+08
8.971291e+08
9.988666e+08
-4.155743e+08
-4.343249e+08
-4.585056e+08
-4.892092e+08
-5.279568e+08
0
0
0
0
0
7.783965e+08
8.138588e+08
8.747328e+08
9.921221e+08
-4.003506e+08
-4.177945e+08
-4.402673e+08
-4.687312e+08
-5.045127e+08
0
0
0
0
0
7.241811e+08
7.498473e+08
7.911096e+08
8.600527e+08
9.920735e+08
-3.862445e+08
-4.025115e+08
-4.234514e+08
-4.499181e+08
-4.830769e+08
0
0
0
0
0
6.784217e+08
6.983028e+08
7.289876e+08
7.764671e+08
8.536452e+08
-3.732575e+08
-3.884673e+08
-4.080361e+08
-4.327254e+08
-4.635682e+08
0
0
0
0
0
6.391426e+08
6.552297e+08
6.796574e+08
7.157423e+08
7.696886e+08
-3.612765e+08
-3.755336e+08
-3.93868e+08
-4.169657e+08
-4.457468e+08
0
0
0
0
0
6.047672e+08
6.182758e+08
6.385446e+08
6.678365e+08
7.095424e+08
-3.501105e+08
-3.634958e+08
-3.807047e+08
-4.023545e+08
-4.292721e+08
0
0
0
0
0
5.740626e+08
5.856914e+08
6.030558e+08
6.277545e+08
6.620758e+08
-3.394724e+08
-3.520414e+08
-3.681975e+08
-3.884988e+08
-4.136873e+08
0
0
0
0
0
5.458947e+08
5.561025e+08
5.712773e+08
5.926709e+08
6.2189e+08
-3.289683e+08
-3.407491e+08
-3.558906e+08
-3.748945e+08
-3.984267e+08
0
0
0
0
0
5.192098e+08
5.282799e+08
5.41723e+08
5.605323e+08
5.859519e+08
-3.182784e+08
-3.292901e+08
-3.434402e+08
-3.611785e+08
-3.830989e+08
0
0
0
0
0
4.934306e+08
5.015647e+08
5.135749e+08
5.302814e+08
5.526617e+08
-3.078501e+08
-3.181447e+08
-3.313705e+08
-3.479351e+08
-3.683689e+08
0
0
0
0
0
4.691879e+08
4.76569e+08
4.874207e+08
5.024314e+08
5.22407e+08
-2.981558e+08
-3.078046e+08
-3.202041e+08
-3.357222e+08
-3.548408e+08
0
0
0
0
0
4.470942e+08
4.5388e+08
4.638076e+08
4.774679e+08
4.955405e+08
-2.894066e+08
-2.984892e+08
-3.101659e+08
-3.247749e+08
-3.427547e+08
0
0
0
0
0
4.273134e+08
4.33628e+08
4.428169e+08
4.55397e+08
4.719552e+08
-2.816365e+08
-2.902247e+08
-3.012794e+08
-3.151078e+08
-3.32115e+08
0
0
0
0
0
4.097523e+08
4.15691e+08
4.242844e+08
4.359921e+08
4.513313e+08
-5.174003e+08
-5.465653e+08
-5.847031e+08
-6.345092e+08
-7.002186e+08
0
0
0
-4.956302e+08
-5.221893e+08
-5.56732e+08
-6.013874e+08
-6.594545e+08
0
0
0
0
-4.770401e+08
-5.015541e+08
-5.33313e+08
-5.741243e+08