/*--------------------------------*- C++ -*----------------------------------*\
| =========                 |                                                 |
| \\      /  F ield         | OpenFOAM: The Open Source CFD Toolbox           |
|  \\    /   O peration     | Version:  2306                                  |
|   \\  /    A nd           | Website:  www.openfoam.com                      |
|    \\/     M anipulation  |                                                 |
\*---------------------------------------------------------------------------*/
FoamFile
{
    version     2.0;
    format      ascii;
    arch        "LSB;label=32;scalar=64";
    class       volScalarField;
    location    "1.2/phiI";
    object      phi;
}
// * * * * * * * * * * * * * * * * * * * * * * * * * * * * * * * * * * * * * //

dimensions      [1 2 -3 0 0 -1 0];

internalField   nonuniform List<scalar> 
12000
(
1.625232
1.625161
1.620112
1.626111
1.625018
1.620019
1.626048
1.615002
1.620917
1.627882
1.62478
1.619849
1.62592
1.614897
1.620829
1.627834
1.610792
1.615745
1.62254
1.630562
1.624407
1.619627
1.625705
1.614708
1.620669
1.627737
1.610684
1.615644
1.622462
1.630537
1.607346
1.611486
1.617242
1.624995
1.634176
1.623847
1.619392
1.625362
1.61447
1.620461
1.627568
1.610487
1.615462
1.622321
1.630486
1.607236
1.61138
1.617149
1.624931
1.634183
1.60449
1.607998
1.612882
1.619506
1.628304
1.638764
1.623146
1.619175
1.624833
1.614241
1.620242
1.627284
1.610238
1.615234
1.62214
1.630387
1.607036
1.611189
1.616981
1.624819
1.634196
1.604381
1.607891
1.612783
1.619424
1.62826
1.638812
1.602072
1.605105
1.60931
1.614993
1.622557
1.632501
1.643367
1.622421
1.618982
1.624158
1.614082
1.620041
1.626819
1.61
1.615017
1.621954
1.630192
1.606781
1.610949
1.616773
1.62468
1.634192
1.604181
1.607696
1.612604
1.619279
1.628189
1.638907
1.601965
1.604999
1.609208
1.614903
1.62249
1.632484
1.643455
1.599995
1.602657
1.606346
1.611294
1.617837
1.626424
1.636711
1.647983
1.621835
1.618791
1.62345
1.614008
1.619858
1.626194
1.609841
1.614868
1.621783
1.629824
1.606531
1.610719
1.616579
1.624544
1.63412
1.603922
1.607447
1.612379
1.619102
1.628107
1.639025
1.601767
1.604803
1.609023
1.614742
1.622375
1.632463
1.643631
1.59989
1.602551
1.606244
1.6112
1.617759
1.626377
1.63672
1.648111
1.598182
1.600551
1.603834
1.60822
1.613965
1.621439
1.630303
1.640935
1.652613
1.62151
1.618629
1.622873
1.613969
1.619673
1.625519
1.609787
1.6148
1.621622
1.629275
1.606357
1.610568
1.616451
1.62442
1.633883
1.603665
1.607204
1.612168
1.618943
1.628038
1.639111
1.60151
1.604551
1.608788
1.614542
1.62224
1.632455
1.643872
1.599696
1.602357
1.606057
1.61103
1.617623
1.626301
1.636751
1.648369
1.59808
1.600448
1.603732
1.608125
1.613882
1.621378
1.630276
1.64097
1.652781
1.596582
1.598713
1.601672
1.605612
1.610743
1.617348
1.625053
1.634195
1.645173
1.657257
1.62151
1.618535
1.622553
1.613943
1.619515
1.624962
1.609784
1.614765
1.62145
1.628651
1.606295
1.610518
1.616396
1.624292
1.633437
1.603479
1.607037
1.612032
1.618845
1.627979
1.639043
1.601248
1.6043
1.608561
1.614359
1.622129
1.632473
1.644114
1.599441
1.602105
1.605816
1.610816
1.617457
1.62622
1.636815
1.648731
1.59789
1.600257
1.603546
1.607951
1.613733
1.621273
1.630239
1.641052
1.65312
1.596483
1.598613
1.601572
1.605516
1.610657
1.617279
1.625009
1.634188
1.645233
1.657465
1.595155
1.59709
1.599783
1.603364
1.608005
1.613937
1.620742
1.62868
1.638101
1.649424
1.661914
1.621835
1.618535
1.622553
1.613928
1.619422
1.624651
1.609795
1.614739
1.621298
1.628124
1.606293
1.610517
1.616366
1.624139
1.632882
1.603403
1.606978
1.611991
1.618809
1.627895
1.638731
1.601053
1.604119
1.608406
1.614246
1.622075
1.632498
1.644216
1.59918
1.60185
1.605578
1.610611
1.617311
1.626171
1.636921
1.649131
1.597641
1.600008
1.603304
1.607729
1.613547
1.621151
1.630212
1.641189
1.653604
1.596298
1.598426
1.601388
1.605342
1.610502
1.617157
1.624935
1.634189
1.645366
1.657884
1.595058
1.596993
1.599685
1.60327
1.607918
1.613864
1.620687
1.628651
1.638113
1.64951
1.662162
1.59387
1.595642
1.598113
1.601398
1.605641
1.611033
1.617142
1.624147
1.632318
1.642018
1.653688
1.66558
1.622421
1.618629
1.622873
1.613928
1.619422
1.624651
1.609802
1.614725
1.621208
1.627826
1.606308
1.610528
1.616344
1.623997
1.632394
1.603393
1.606977
1.611993
1.618789
1.627768
1.638264
1.600966
1.604046
1.608353
1.614218
1.622065
1.632472
1.644036
1.598981
1.601659
1.605408
1.610476
1.617231
1.626172
1.637029
1.6494
1.597383
1.599752
1.60306
1.60751
1.613374
1.621054
1.630225
1.641381
1.654159
1.596055
1.598181
1.601148
1.605116
1.610304
1.617007
1.624856
1.634216
1.645575
1.658489
1.594879
1.596811
1.599505
1.603096
1.60776
1.613731
1.620591
1.628609
1.638152
1.649693
1.662662
1.593777
1.595547
1.598019
1.601305
1.605555
1.610957
1.61708
1.624106
1.632306
1.642051
1.6538
1.66586
1.592705
1.594338
1.596622
1.599658
1.603571
1.608522
1.614071
1.620357
1.627564
1.635969
1.645949
1.657048
1.668298
1.623146
1.618791
1.62345
1.613943
1.619515
1.624962
1.609802
1.614725
1.621208
1.627826
1.60632
1.610535
1.61633
1.623911
1.632115
1.603404
1.606992
1.612005
1.618771
1.62764
1.637828
1.600947
1.604036
1.608354
1.614227
1.622059
1.632379
1.643655
1.598886
1.601574
1.60534
1.610433
1.617222
1.626197
1.637061
1.649352
1.597181
1.599556
1.602878
1.607356
1.613265
1.621016
1.630281
1.641573
1.654597
1.595801
1.597927
1.600902
1.604889
1.610112
1.616875
1.624808
1.63429
1.645854
1.659201
1.594642
1.596571
1.599268
1.60287
1.607555
1.613565
1.620478
1.628573
1.638232
1.649975
1.663387
1.593603
1.59537
1.597842
1.601135
1.605396
1.610819
1.616971
1.624036
1.632294
1.642127
1.654033
1.666421
1.592615
1.594246
1.59653
1.599568
1.603485
1.608445
1.614006
1.620307
1.627536
1.635972
1.646001
1.65718
1.6686
1.591642
1.593155
1.595279
1.598102
1.601736
1.606319
1.611412
1.617119
1.623582
1.630991
1.639631
1.649048
1.65954
1.670097
1.623847
1.618982
1.624158
1.613969
1.619673
1.625519
1.609795
1.614739
1.621298
1.628124
1.60632
1.610535
1.61633
1.623911
1.632115
1.603415
1.607004
1.612013
1.618758
1.62756
1.637572
1.600953
1.604048
1.60837
1.61424
1.622046
1.632268
1.64327
1.598859
1.601555
1.605331
1.610438
1.617238
1.626208
1.637001
1.649058
1.597081
1.599463
1.602798
1.607296
1.613236
1.621031
1.630341
1.641662
1.654679
1.595601
1.597729
1.600714
1.604721
1.60998
1.616799
1.624812
1.634402
1.646129
1.659806
1.594394
1.596321
1.599023
1.60264
1.607352
1.613408
1.620386
1.628573
1.638368
1.650339
1.664255
1.593372
1.595137
1.59761
1.600911
1.605189
1.610643
1.616836
1.62396
1.632301
1.64226
1.654387
1.667241
1.592446
1.594074
1.596359
1.5994
1.603327
1.608305
1.613888
1.620221
1.627493
1.635992
1.646115
1.657452
1.669208
1.591554
1.593066
1.59519
1.598015
1.601652
1.606242
1.611345
1.617065
1.623544
1.630977
1.63965
1.649115
1.659686
1.670414
1.590665
1.592075
1.59406
1.5967
1.600093
1.604363
1.609075
1.614311
1.620177
1.626818
1.63443
1.64252
1.651348
1.66119
1.670996
1.624407
1.619175
1.624833
1.614008
1.619858
1.626194
1.609784
1.614765
1.62145
1.628651
1.606308
1.610528
1.616344
1.623997
1.632394
1.603415
1.607004
1.612013
1.618758
1.62756
1.637572
1.600961
1.604058
1.608382
1.614248
1.622035
1.632196
1.643038
1.59886
1.601561
1.605343
1.610454
1.617254
1.626202
1.636908
1.648723
1.597049
1.599436
1.60278
1.60729
1.613246
1.621057
1.630368
1.641635
1.654471
1.595498
1.597631
1.600624
1.604647
1.609931
1.616789
1.624851
1.634497
1.646275
1.660018
1.594196
1.596124
1.598833
1.602464
1.607203
1.613304
1.620344
1.628619
1.638535
1.650697
1.665027
1.593131
1.594892
1.597369
1.600679
1.604979
1.61047
1.616713
1.623907
1.63235
1.642457
1.654837
1.668229
1.592223
1.593847
1.596132
1.59918
1.603121
1.608123
1.61374
1.620117
1.627452
1.636041
1.646301
1.657861
1.670096
1.591391
1.592899
1.595023
1.597851
1.601496
1.6061
1.611222
1.616967
1.623481
1.63096
1.6397
1.649259
1.659987
1.671052
1.590581
1.591989
1.593973
1.596614
1.600011
1.604287
1.609007
1.614253
1.620133
1.626792
1.634429
1.642552
1.651426
1.661346
1.67132
1.589764
1.591083
1.592946
1.595426
1.598611
1.60261
1.606998
1.611839
1.617219
1.623244
1.630064
1.637145
1.644666
1.652872
1.662015
1.62478
1.619392
1.625362
1.614082
1.620041
1.626819
1.609787
1.6148
1.621622
1.629275
1.606293
1.610517
1.616366
1.624139
1.632882
1.603404
1.606992
1.612005
1.618771
1.62764
1.637828
1.600961
1.604058
1.608382
1.614248
1.622035
1.632196
1.643038
1.598865
1.601568
1.605353
1.610465
1.617262
1.626194
1.636844
1.648513
1.597046
1.599437
1.602785
1.607302
1.613263
1.621076
1.63037
1.64156
1.654185
1.595462
1.597599
1.600598
1.604631
1.609929
1.616806
1.624887
1.634541
1.646281
1.659894
1.594093
1.596023
1.598737
1.60238
1.607138
1.61327
1.620352
1.628682
1.638664
1.6509
1.665368
1.592937
1.594697
1.597178
1.600499
1.60482
1.610345
1.616638
1.6239
1.632437
1.64268
1.655278
1.669132
1.591987
1.593609
1.595895
1.598951
1.602908
1.60794
1.613597
1.620029
1.627439
1.636137
1.646559
1.658379
1.671174
1.591174
1.592679
1.594802
1.597635
1.601292
1.605916
1.611065
1.616846
1.623408
1.630955
1.639792
1.649486
1.660438
1.671986
1.590422
1.591827
1.593811
1.596455
1.599858
1.604146
1.608882
1.614149
1.620056
1.626751
1.634438
1.642627
1.651592
1.661666
1.671973
1.589682
1.591
1.592862
1.595343
1.59853
1.602535
1.606929
1.61178
1.617171
1.623211
1.63005
1.637155
1.644707
1.652957
1.662176
1.588929
1.590168
1.591923
1.594261
1.597263
1.601025
1.605133
1.60964
1.614612
1.620136
1.626321
1.632628
1.639162
1.646088
1.653634
1.625018
1.619627
1.625705
1.614241
1.620242
1.627284
1.609841
1.614868
1.621783
1.629824
1.606295
1.610518
1.616396
1.624292
1.633437
1.603393
1.606977
1.611993
1.618789
1.627768
1.638264
1.600953
1.604048
1.60837
1.61424
1.622046
1.632268
1.64327
1.598865
1.601568
1.605353
1.610465
1.617262
1.626194
1.636844
1.648513
1.59705
1.599442
1.602793
1.607311
1.613274
1.621085
1.630365
1.641503
1.653998
1.595457
1.597596
1.600599
1.604636
1.609941
1.616825
1.62491
1.63455
1.646223
1.659658
1.594055
1.595988
1.598706
1.602355
1.607125
1.613273
1.620376
1.628728
1.638725
1.650939
1.665328
1.592834
1.594595
1.597079
1.600409
1.604744
1.610293
1.616619
1.623926
1.632524
1.642843
1.655538
1.669574
1.591798
1.593418
1.595706
1.59877
1.602743
1.607802
1.613497
1.619982
1.627466
1.636267
1.646837
1.658885
1.672172
1.590946
1.592447
1.594571
1.597409
1.601079
1.605728
1.610909
1.616733
1.623354
1.630982
1.639936
1.649791
1.661005
1.673122
1.590212
1.591613
1.593597
1.596244
1.599657
1.603962
1.60872
1.614016
1.619962
1.62671
1.634469
1.642752
1.651849
1.662144
1.672929
1.589529
1.590843
1.592705
1.595188
1.598381
1.602396
1.606804
1.611671
1.617084
1.623153
1.630032
1.637184
1.644799
1.653137
1.662505
1.588849
1.590087
1.591842
1.594181
1.597184
1.600952
1.605065
1.60958
1.614561
1.620097
1.626298
1.632624
1.639179
1.646135
1.653723
1.58815
1.589319
1.590979
1.593191
1.596029
1.599583
1.603446
1.607663
1.61229
1.617394
1.623062
1.628754
1.634534
1.640498
1.646799
1.625161
1.619849
1.62592
1.61447
1.620461
1.627568
1.61
1.615017
1.621954
1.630192
1.606357
1.610568
1.616451
1.62442
1.633883
1.603403
1.606978
1.611991
1.618809
1.627895
1.638731
1.600947
1.604036
1.608354
1.614227
1.622059
1.632379
1.643655
1.59886
1.601561
1.605343
1.610454
1.617254
1.626202
1.636908
1.648723
1.59705
1.599442
1.602793
1.607311
1.613274
1.621085
1.630365
1.641503
1.653998
1.59546
1.597599
1.600604
1.604643
1.60995
1.616835
1.624919
1.634547
1.646173
1.659493
1.594049
1.595982
1.598703
1.602356
1.60713
1.613285
1.620396
1.628754
1.638742
1.650898
1.66514
1.592796
1.594558
1.597045
1.600379
1.604722
1.610283
1.616627
1.623956
1.632581
1.642921
1.655609
1.669598
1.591697
1.593316
1.595606
1.598675
1.60266
1.607737
1.613457
1.619978
1.627511
1.636378
1.647034
1.659189
1.672688
1.590762
1.59226
1.594385
1.597229
1.600912
1.605582
1.610793
1.616658
1.623335
1.631042
1.640107
1.650113
1.661558
1.674184
1.58999
1.591388
1.593371
1.596023
1.599447
1.603772
1.608556
1.613886
1.619878
1.626689
1.634536
1.642933
1.65219
1.662743
1.674095
1.589325
1.590636
1.592497
1.594982
1.598183
1.602213
1.60664
1.611532
1.616976
1.623087
1.630021
1.637243
1.644949
1.653414
1.662996
1.5887
1.589935
1.591689
1.59403
1.597038
1.600815
1.60494
1.609469
1.614469
1.620029
1.626261
1.632623
1.639224
1.646238
1.65391
1.588073
1.58924
1.590899
1.593112
1.595953
1.599511
1.603379
1.607603
1.612237
1.617351
1.623032
1.628738
1.634536
1.640521
1.646849
1.587422
1.588528
1.590102
1.592202
1.594894
1.598262
1.601909
1.605873
1.610201
1.614947
1.620183
1.625376
1.630562
1.635798
1.641167
1.625232
1.620019
1.626048
1.614708
1.620669
1.627737
1.610238
1.615234
1.62214
1.630387
1.606531
1.610719
1.616579
1.624544
1.63412
1.603479
1.607037
1.612032
1.618845
1.627979
1.639043
1.600966
1.604046
1.608353
1.614218
1.622065
1.632472
1.644036
1.598859
1.601555
1.605331
1.610438
1.617238
1.626208
1.637001
1.649058
1.597046
1.599437
1.602785
1.607302
1.613263
1.621076
1.63037
1.64156
1.654185
1.59546
1.597599
1.600604
1.604643
1.60995
1.616835
1.624919
1.634547
1.646173
1.659493
1.59405
1.595984
1.598706
1.60236
1.607136
1.613294
1.620407
1.628765
1.638741
1.650856
1.664997
1.592788
1.594551
1.597039
1.600375
1.604721
1.610288
1.616639
1.623978
1.63261
1.642945
1.655585
1.669448
1.591659
1.593278
1.595569
1.598641
1.602631
1.607717
1.613451
1.61999
1.627548
1.636445
1.647129
1.659285
1.67276
1.590663
1.59216
1.594285
1.597133
1.600824
1.605508
1.610738
1.61663
1.623346
1.631105
1.640243
1.650337
1.661894
1.674748
1.589812
1.591206
1.593189
1.595845
1.599279
1.603621
1.608429
1.613792
1.619827
1.626699
1.634629
1.643137
1.652543
1.663327
1.675188
1.58911
1.590417
1.592277
1.594766
1.597976
1.602023
1.606471
1.611391
1.616873
1.623033
1.630034
1.63734
1.645157
1.653778
1.663611
1.588502
1.589733
1.591487
1.59383
1.596845
1.600635
1.604776
1.609325
1.614351
1.619945
1.626221
1.632636
1.639303
1.646404
1.654197
1.587928
1.589092
1.590751
1.592966
1.595811
1.599377
1.603255
1.607491
1.612141
1.617275
1.622982
1.628717
1.634548
1.640576
1.646958
1.587347
1.588451
1.590025
1.592125
1.59482
1.598192
1.601843
1.605813
1.610147
1.614903
1.620149
1.625353
1.630552
1.635804
1.641192
1.586739
1.587788
1.589285
1.591283
1.593845
1.597046
1.6005
1.60424
1.608306
1.612745
1.617613
1.62239
1.627096
1.63176
1.63643
1.620112
1.626111
1.614897
1.620829
1.627834
1.610487
1.615462
1.622321
1.630486
1.606781
1.610949
1.616773
1.62468
1.634192
1.603665
1.607204
1.612168
1.618943
1.628038
1.639111
1.601053
1.604119
1.608406
1.614246
1.622075
1.632498
1.644216
1.598886
1.601574
1.60534
1.610433
1.617222
1.626197
1.637061
1.649352
1.597049
1.599436
1.60278
1.60729
1.613246
1.621057
1.630368
1.641635
1.654471
1.595457
1.597596
1.600599
1.604636
1.609941
1.616825
1.62491
1.63455
1.646223
1.659658
1.59405
1.595984
1.598706
1.60236
1.607136
1.613294
1.620407
1.628765
1.638741
1.650856
1.664997
1.592789
1.594552
1.59704
1.600377
1.604725
1.610294
1.616647
1.623989
1.632621
1.642947
1.65555
1.669322
1.591651
1.59327
1.595562
1.598635
1.602627
1.607716
1.613456
1.620003
1.627571
1.636478
1.64716
1.659274
1.672637
1.590625
1.592122
1.594248
1.597097
1.600791
1.605481
1.610721
1.616627
1.623364
1.63115
1.64032
1.650445
1.66201
1.674852
1.589715
1.591108
1.593091
1.595749
1.599188
1.603541
1.608364
1.613748
1.619812
1.626724
1.634711
1.643291
1.652787
1.663685
1.675776
1.588936
1.59024
1.5921
1.594592
1.59781
1.601871
1.606338
1.611284
1.6168
1.623007
1.630072
1.63746
1.645385
1.654152
1.664211
1.588293
1.589521
1.591273
1.593619
1.596642
1.600446
1.604606
1.609178
1.614235
1.619867
1.626197
1.632676
1.639423
1.646631
1.654572
1.587736
1.588897
1.590554
1.592771
1.595622
1.599199
1.603092
1.607346
1.612018
1.617179
1.622922
1.628698
1.63458
1.640668
1.647132
1.587206
1.588308
1.589881
1.591982
1.594681
1.59806
1.601721
1.605701
1.610049
1.614822
1.620089
1.625317
1.630542
1.635825
1.641251
1.586667
1.587714
1.58921
1.591209
1.593773
1.596977
1.600435
1.604181
1.608253
1.612699
1.617576
1.622362
1.627079
1.631755
1.636438
1.586096
1.587094
1.588521
1.590427
1.59287
1.59592
1.599201
1.602742
1.606577
1.610746
1.615296
1.619722
1.624031
1.628237
1.63236
1.615002
1.620917
1.627882
1.610684
1.615644
1.622462
1.630537
1.607036
1.611189
1.616981
1.624819
1.634196
1.603922
1.607447
1.612379
1.619102
1.628107
1.639025
1.601248
1.6043
1.608561
1.614359
1.622129
1.632473
1.644114
1.598981
1.601659
1.605408
1.610476
1.617231
1.626172
1.637029
1.6494
1.597081
1.599463
1.602798
1.607296
1.613236
1.621031
1.630341
1.641662
1.654679
1.595462
1.597599
1.600598
1.604631
1.609929
1.616806
1.624887
1.634541
1.646281
1.659894
1.594049
1.595982
1.598703
1.602356
1.60713
1.613285
1.620396
1.628754
1.638742
1.650898
1.66514
1.592789
1.594552
1.59704
1.600377
1.604725
1.610294
1.616647
1.623989
1.632621
1.642947
1.65555
1.669322
1.591651
1.593271
1.595563
1.598636
1.602628
1.607719
1.613461
1.620011
1.627582
1.636489
1.647164
1.659244
1.672524
1.590617
1.592114
1.594239
1.597089
1.600784
1.605476
1.61072
1.616633
1.623377
1.631175
1.640356
1.650481
1.662008
1.674747
1.589678
1.59107
1.593053
1.595712
1.599153
1.60351
1.60834
1.613734
1.619813
1.626747
1.634762
1.643377
1.652905
1.663813
1.675896
1.588842
1.590144
1.592003
1.594497
1.597719
1.601787
1.606266
1.611228
1.616766
1.623004
1.630113
1.637556
1.645553
1.654409
1.66458
1.588125
1.589349
1.591101
1.593448
1.596478
1.600294
1.604469
1.609062
1.614146
1.619816
1.626195
1.632736
1.639562
1.646874
1.654956
1.587534
1.588691
1.590347
1.592566
1.595423
1.599013
1.602921
1.607195
1.611892
1.617086
1.622871
1.628697
1.634639
1.640804
1.647367
1.58702
1.588118
1.58969
1.591793
1.594497
1.597886
1.601559
1.605555
1.609922
1.614718
1.620015
1.625276
1.630539
1.635868
1.641351
1.586529
1.587574
1.58907
1.59107
1.593637
1.596848
1.600315
1.60407
1.608154
1.612614
1.617509
1.622315
1.627053
1.631753
1.636463
1.586025
1.587021
1.588448
1.590355
1.5928
1.595853
1.599138
1.602683
1.606524
1.610699
1.615257
1.619691
1.624009
1.628224
1.632357
1.585489
1.58644
1.587804
1.589626
1.591962
1.594874
1.597999
1.601361
1.60499
1.60892
1.613192
1.617315
1.621291
1.62512
1.628808
1.610792
1.615745
1.62254
1.630562
1.607236
1.61138
1.617149
1.624931
1.634183
1.604181
1.607696
1.612604
1.619279
1.628189
1.638907
1.60151
1.604551
1.608788
1.614542
1.62224
1.632455
1.643872
1.59918
1.60185
1.605578
1.610611
1.617311
1.626171
1.636921
1.649131
1.597181
1.599556
1.602878
1.607356
1.613265
1.621016
1.630281
1.641573
1.654597
1.595498
1.597631
1.600624
1.604647
1.609931
1.616789
1.624851
1.634497
1.646275
1.660018
1.594055
1.595988
1.598706
1.602355
1.607125
1.613273
1.620376
1.628728
1.638725
1.650939
1.665328
1.592788
1.594551
1.597039
1.600375
1.604721
1.610288
1.616639
1.623978
1.63261
1.642945
1.655585
1.669448
1.591651
1.593271
1.595563
1.598636
1.602628
1.607719
1.613461
1.620011
1.627582
1.636489
1.647164
1.659244
1.672524
1.590617
1.592114
1.594239
1.597089
1.600784
1.605477
1.610722
1.616637
1.623384
1.631185
1.640369
1.650488
1.661982
1.674642
1.589671
1.591062
1.593044
1.595703
1.599144
1.603503
1.608334
1.613732
1.619819
1.626761
1.634789
1.643415
1.652945
1.663817
1.6758
1.588807
1.590108
1.591966
1.594459
1.597682
1.601753
1.606237
1.611206
1.616755
1.623009
1.63014
1.637613
1.645645
1.654533
1.664713
1.588035
1.589256
1.591007
1.593355
1.596387
1.600209
1.604393
1.608998
1.614099
1.619793
1.626204
1.632788
1.639669
1.647052
1.655219
1.587371
1.588524
1.590179
1.592399
1.595262
1.598862
1.602783
1.607074
1.611793
1.617016
1.62284
1.628714
1.634715
1.640955
1.647619
1.586824
1.587918
1.589488
1.591593
1.594303
1.597703
1.60139
1.605403
1.609791
1.614613
1.619945
1.625245
1.630555
1.63594
1.641494
1.586348
1.58739
1.588884
1.590886
1.593458
1.596678
1.600155
1.603924
1.608024
1.612505
1.617425
1.622258
1.627026
1.63176
1.636512
1.585892
1.586886
1.588312
1.59022
1.592668
1.595727
1.599019
1.602574
1.606425
1.610612
1.615186
1.619636
1.623971
1.628204
1.632358
1.58542
1.58637
1.587733
1.589556
1.591893
1.594809
1.597937
1.601303
1.604936
1.608872
1.613151
1.617282
1.621264
1.625101
1.628796
1.584914
1.585822
1.587128
1.588875
1.591111
1.593899
1.596881
1.600081
1.603525
1.607242
1.611268
1.615128
1.618818
1.622332
1.625665
1.607346
1.611486
1.617242
1.624995
1.634176
1.604381
1.607891
1.612783
1.619424
1.62826
1.638812
1.601767
1.604803
1.609023
1.614742
1.622375
1.632463
1.643631
1.599441
1.602105
1.605816
1.610816
1.617457
1.62622
1.636815
1.648731
1.597383
1.599752
1.60306
1.60751
1.613374
1.621054
1.630225
1.641381
1.654159
1.595601
1.597729
1.600714
1.604721
1.60998
1.616799
1.624812
1.634402
1.646129
1.659806
1.594093
1.596023
1.598737
1.60238
1.607138
1.61327
1.620352
1.628682
1.638664
1.6509
1.665368
1.592796
1.594558
1.597045
1.600379
1.604722
1.610283
1.616627
1.623956
1.632581
1.642921
1.655609
1.669598
1.591651
1.59327
1.595562
1.598635
1.602627
1.607716
1.613456
1.620003
1.627571
1.636478
1.64716
1.659274
1.672637
1.590617
1.592114
1.594239
1.597089
1.600784
1.605477
1.610722
1.616637
1.623384
1.631185
1.640369
1.650488
1.661982
1.674642
1.589671
1.591062
1.593044
1.595703
1.599144
1.603502
1.608334
1.613733
1.619822
1.626768
1.634799
1.643428
1.652952
1.663794
1.675699
1.5888
1.5901
1.591957
1.59445
1.597672
1.601744
1.606228
1.6112
1.616753
1.623014
1.630155
1.637641
1.645685
1.654576
1.664721
1.588001
1.589221
1.59097
1.593318
1.59635
1.600174
1.60436
1.608971
1.614079
1.619784
1.626213
1.63282
1.63973
1.647147
1.655346
1.587283
1.588434
1.590088
1.592308
1.595173
1.598777
1.602705
1.607005
1.611737
1.616979
1.622828
1.628733
1.634776
1.641069
1.6478
1.586666
1.587757
1.589326
1.591432
1.594146
1.597554
1.601252
1.605279
1.609685
1.614531
1.619894
1.625231
1.630586
1.636027
1.641652
1.586157
1.587195
1.588689
1.590692
1.593269
1.596499
1.599988
1.603771
1.60789
1.612393
1.617342
1.622207
1.627011
1.631787
1.63659
1.585715
1.586706
1.588131
1.59004
1.592493
1.595561
1.598863
1.602429
1.606294
1.610499
1.615094
1.619567
1.623926
1.628187
1.632371
1.58529
1.586237
1.5876
1.589424
1.591764
1.594686
1.59782
1.601194
1.604838
1.608785
1.613077
1.617221
1.621218
1.625069
1.62878
1.584847
1.585754
1.58706
1.588806
1.591044
1.593834
1.59682
1.600024
1.603472
1.607194
1.611226
1.615093
1.618789
1.622309
1.625647
1.584367
1.585238
1.586491
1.588166
1.590312
1.592985
1.595837
1.59889
1.602166
1.605693
1.609499
1.613128
1.61657
1.619816
1.622853
1.60449
1.607998
1.612882
1.619506
1.628304
1.638764
1.601965
1.604999
1.609208
1.614903
1.62249
1.632484
1.643455
1.599696
1.602357
1.606057
1.61103
1.617623
1.626301
1.636751
1.648369
1.597641
1.600008
1.603304
1.607729
1.613547
1.621151
1.630212
1.641189
1.653604
1.595801
1.597927
1.600902
1.604889
1.610112
1.616875
1.624808
1.63429
1.645854
1.659201
1.594196
1.596124
1.598833
1.602464
1.607203
1.613304
1.620344
1.628619
1.638535
1.650697
1.665027
1.592834
1.594595
1.597079
1.600409
1.604744
1.610293
1.616619
1.623926
1.632524
1.642843
1.655538
1.669574
1.591659
1.593278
1.595569
1.598641
1.602631
1.607717
1.613451
1.61999
1.627548
1.636445
1.647129
1.659285
1.67276
1.590617
1.592114
1.594239
1.597089
1.600784
1.605476
1.61072
1.616633
1.623377
1.631175
1.640356
1.650481
1.662008
1.674747
1.589671
1.591062
1.593044
1.595703
1.599144
1.603502
1.608334
1.613733
1.619822
1.626768
1.634799
1.643428
1.652952
1.663794
1.675699
1.5888
1.5901
1.591957
1.594449
1.597671
1.601742
1.606227
1.611199
1.616753
1.623016
1.630161
1.637651
1.645698
1.654585
1.664699
1.587994
1.589213
1.590962
1.593309
1.59634
1.600163
1.60435
1.608962
1.614073
1.619782
1.626218
1.632835
1.639759
1.647189
1.655391
1.587251
1.5884
1.590053
1.592272
1.595136
1.598741
1.602671
1.606974
1.611712
1.616961
1.622823
1.628745
1.63481
1.641133
1.647898
1.586581
1.58767
1.589237
1.591343
1.594058
1.59747
1.601173
1.605207
1.609623
1.614484
1.619866
1.625227
1.630613
1.636093
1.641769
1.586005
1.587039
1.588531
1.590534
1.593115
1.596352
1.599851
1.603646
1.60778
1.612303
1.617277
1.622171
1.627009
1.631827
1.636682
1.58553
1.586518
1.587941
1.589852
1.592309
1.595385
1.598698
1.602277
1.606158
1.610383
1.615002
1.619501
1.623888
1.628181
1.632403
1.585118
1.586063
1.587425
1.58925
1.591594
1.594523
1.597666
1.601051
1.604707
1.60867
1.612981
1.617144
1.621161
1.625033
1.628767
1.58472
1.585625
1.58693
1.588678
1.590919
1.593714
1.596706
1.599917
1.603373
1.607106
1.61115
1.615029
1.618736
1.622268
1.625618
1.584302
1.585171
1.586424
1.5881
1.590247
1.592922
1.595778
1.598834
1.602114
1.605645
1.609457
1.613091
1.616538
1.619789
1.622831
1.583846
1.584682
1.585887
1.587498
1.58956
1.592127
1.59486
1.597778
1.600902
1.604255
1.607864
1.611287
1.614512
1.617527
1.620314
1.602072
1.605105
1.60931
1.614993
1.622557
1.632501
1.643367
1.59989
1.602551
1.606244
1.6112
1.617759
1.626377
1.63672
1.648111
1.59789
1.600257
1.603546
1.607951
1.613733
1.621273
1.630239
1.641052
1.65312
1.596055
1.598181
1.601148
1.605116
1.610304
1.617007
1.624856
1.634216
1.645575
1.658489
1.594394
1.596321
1.599023
1.60264
1.607352
1.613408
1.620386
1.628573
1.638368
1.650339
1.664255
1.592937
1.594697
1.597178
1.600499
1.60482
1.610345
1.616638
1.6239
1.632437
1.64268
1.655278
1.669132
1.591697
1.593316
1.595606
1.598675
1.60266
1.607737
1.613457
1.619978
1.627511
1.636378
1.647034
1.659189
1.672688
1.590625
1.592122
1.594248
1.597097
1.600791
1.605481
1.610721
1.616627
1.623364
1.63115
1.64032
1.650445
1.66201
1.674852
1.589671
1.591062
1.593044
1.595703
1.599144
1.603503
1.608334
1.613732
1.619819
1.626761
1.634789
1.643415
1.652945
1.663817
1.6758
1.5888
1.5901
1.591957
1.594449
1.597671
1.601742
1.606227
1.611199
1.616753
1.623016
1.630161
1.637651
1.645698
1.654585
1.664699
1.587995
1.589214
1.590962
1.593308
1.596339
1.600161
1.604348
1.608959
1.614071
1.619782
1.62622
1.632841
1.639769
1.647202
1.6554
1.587245
1.588394
1.590045
1.592263
1.595126
1.59873
1.602659
1.606963
1.611702
1.616954
1.62282
1.62875
1.634826
1.641162
1.64794
1.586551
1.587637
1.589203
1.591308
1.594022
1.597434
1.601138
1.605174
1.609594
1.61446
1.619851
1.625224
1.630626
1.636129
1.641834
1.585923
1.586955
1.588445
1.590448
1.59303
1.59627
1.599772
1.603573
1.607715
1.612248
1.617237
1.622149
1.627011
1.631858
1.636752
1.585382
1.586366
1.587788
1.589699
1.592159
1.595242
1.598563
1.602152
1.606046
1.610287
1.614927
1.619449
1.623863
1.628188
1.632448
1.584938
1.58588
1.58724
1.589066
1.591414
1.594351
1.597504
1.600901
1.604571
1.60855
1.612882
1.617067
1.621107
1.625004
1.628767
1.584552
1.585455
1.586759
1.588508
1.590752
1.593555
1.596555
1.599776
1.603244
1.60699
1.611051
1.614945
1.61867
1.622218
1.625586
1.584178
1.585046
1.586298
1.587975
1.590125
1.592805
1.595666
1.598728
1.602017
1.605557
1.609379
1.613024
1.616481
1.619741
1.622793
1.583782
1.584617
1.585822
1.587433
1.589496
1.592066
1.594801
1.597723
1.60085
1.604208
1.607822
1.61125
1.614479
1.617498
1.620289
1.583347
1.584152
1.585313
1.586865
1.58885
1.591318
1.593942
1.596736
1.599721
1.602917
1.606347
1.609586
1.612619
1.615431
1.618005
1.599995
1.602657
1.606346
1.611294
1.617837
1.626424
1.636711
1.647983
1.59808
1.600448
1.603732
1.608125
1.613882
1.621378
1.630276
1.64097
1.652781
1.596298
1.598426
1.601388
1.605342
1.610502
1.617157
1.624935
1.634189
1.645366
1.657884
1.594642
1.596571
1.599268
1.60287
1.607555
1.613565
1.620478
1.628573
1.638232
1.649975
1.663387
1.593131
1.594892
1.597369
1.600679
1.604979
1.61047
1.616713
1.623907
1.63235
1.642457
1.654837
1.668229
1.591798
1.593418
1.595706
1.59877
1.602743
1.607802
1.613497
1.619982
1.627466
1.636267
1.646837
1.658885
1.672172
1.590663
1.59216
1.594285
1.597133
1.600824
1.605508
1.610738
1.61663
1.623346
1.631105
1.640243
1.650337
1.661894
1.674748
1.589678
1.59107
1.593053
1.595712
1.599153
1.60351
1.60834
1.613734
1.619813
1.626747
1.634762
1.643377
1.652905
1.663813
1.675896
1.5888
1.5901
1.591957
1.59445
1.597672
1.601744
1.606228
1.6112
1.616753
1.623014
1.630155
1.637641
1.645685
1.654576
1.664721
1.587995
1.589214
1.590962
1.593308
1.596339
1.600161
1.604348
1.608959
1.614071
1.619782
1.62622
1.632841
1.639769
1.647202
1.6554
1.587246
1.588394
1.590045
1.592262
1.595125
1.598728
1.602657
1.60696
1.611699
1.616952
1.622819
1.628752
1.634831
1.641172
1.647954
1.586546
1.587631
1.589196
1.591299
1.594012
1.597423
1.601126
1.605162
1.609582
1.614449
1.619843
1.625222
1.630632
1.636145
1.641863
1.585894
1.586925
1.588413
1.590414
1.592995
1.596234
1.599737
1.603539
1.607683
1.61222
1.617215
1.622136
1.627009
1.631874
1.636789
1.585304
1.586286
1.587706
1.589616
1.592076
1.595161
1.598485
1.602079
1.605979
1.610228
1.61488
1.619416
1.623847
1.628193
1.632481
1.584795
1.585733
1.587092
1.588918
1.591269
1.594211
1.597372
1.600777
1.604457
1.608451
1.6128
1.617004
1.621065
1.624986
1.628777
1.584377
1.585277
1.58658
1.588329
1.590577
1.593387
1.596396
1.599627
1.603107
1.606869
1.610947
1.61486
1.618603
1.622172
1.625562
1.584014
1.58488
1.586131
1.587809
1.589962
1.592649
1.595518
1.598589
1.601888
1.60544
1.609278
1.612936
1.616408
1.619682
1.622747
1.58366
1.584495
1.585698
1.587311
1.589377
1.59195
1.594692
1.597619
1.600754
1.60412
1.607744
1.61118
1.614419
1.617445
1.620244
1.583284
1.584089
1.585249
1.586801
1.588788
1.591258
1.593884
1.596682
1.59967
1.60287
1.606305
1.609548
1.612585
1.615401
1.617977
1.582869
1.583646
1.584766
1.586263
1.588177
1.590555
1.593076
1.595757
1.598614
1.601665
1.604934
1.608006
1.610868
1.613503
1.615891
1.598182
1.600551
1.603834
1.60822
1.613965
1.621439
1.630303
1.640935
1.652613
1.596483
1.598613
1.601572
1.605516
1.610657
1.617279
1.625009
1.634188
1.645233
1.657465
1.594879
1.596811
1.599505
1.603096
1.60776
1.613731
1.620591
1.628609
1.638152
1.649693
1.662662
1.593372
1.595137
1.59761
1.600911
1.605189
1.610643
1.616836
1.62396
1.632301
1.64226
1.654387
1.667241
1.591987
1.593609
1.595895
1.598951
1.602908
1.60794
1.613597
1.620029
1.627439
1.636137
1.646559
1.658379
1.671174
1.590762
1.59226
1.594385
1.597229
1.600912
1.605582
1.610793
1.616658
1.623335
1.631042
1.640107
1.650113
1.661558
1.674184
1.589715
1.591108