/*--------------------------------*- C++ -*----------------------------------*\
| =========                 |                                                 |
| \\      /  F ield         | OpenFOAM: The Open Source CFD Toolbox           |
|  \\    /   O peration     | Version:  2306                                  |
|   \\  /    A nd           | Website:  www.openfoam.com                      |
|    \\/     M anipulation  |                                                 |
\*---------------------------------------------------------------------------*/
FoamFile
{
    version     2.0;
    format      ascii;
    arch        "LSB;label=32;scalar=64";
    class       volScalarField;
    location    "1.2/phiI";
    object      T;
}
// * * * * * * * * * * * * * * * * * * * * * * * * * * * * * * * * * * * * * //

dimensions      [0 0 0 1 0 0 0];

internalField   nonuniform List<scalar> 
12000
(
1212.624
1212.456
1214.683
1212.705
1212.063
1214.674
1212.537
1216.546
1214.753
1212.77
1211.325
1214.653
1212.146
1216.581
1214.744
1212.602
1218.261
1216.606
1214.808
1212.819
1210.056
1214.61
1211.411
1216.657
1214.722
1212.212
1218.306
1216.64
1214.799
1212.651
1219.888
1218.311
1216.652
1214.848
1212.85
1208.137
1214.532
1210.153
1216.796
1214.678
1211.48
1218.409
1216.716
1214.777
1212.261
1219.935
1218.356
1216.686
1214.839
1212.682
1221.452
1219.931
1218.349
1216.683
1214.872
1212.862
1205.924
1214.386
1208.26
1217.022
1214.597
1210.233
1218.596
1216.853
1214.732
1211.533
1220.042
1218.459
1216.761
1214.816
1212.293
1221.498
1219.978
1218.394
1216.717
1214.862
1212.694
1222.96
1221.489
1219.962
1218.374
1216.701
1214.879
1212.871
1203.896
1214.091
1206.082
1217.329
1214.446
1208.366
1218.903
1217.074
1214.647
1210.295
1220.236
1218.644
1216.896
1214.769
1211.568
1221.601
1220.085
1218.496
1216.792
1214.839
1212.305
1223.003
1221.535
1220.009
1218.419
1216.734
1214.869
1212.704
1224.413
1222.992
1221.515
1219.981
1218.385
1216.702
1214.884
1212.881
1202.391
1213.719
1204.085
1217.564
1214.152
1206.221
1219.333
1217.371
1214.49
1208.452
1220.555
1218.946
1217.112
1214.68
1210.339
1221.789
1220.277
1218.679
1216.924
1214.79
1211.582
1223.101
1221.638
1220.115
1218.52
1216.808
1214.844
1212.316
1224.454
1223.035
1221.56
1220.028
1218.43
1216.735
1214.874
1212.714
1225.811
1224.441
1223.013
1221.529
1219.988
1218.382
1216.704
1214.889
1212.891
1201.598
1213.387
1202.603
1217.693
1213.784
1204.255
1219.722
1217.599
1214.196
1206.34
1221.004
1219.365
1217.398
1214.517
1208.52
1222.098
1220.592
1218.976
1217.135
1214.697
1210.361
1223.279
1221.824
1220.306
1218.701
1216.938
1214.793
1211.595
1224.546
1223.133
1221.663
1220.133
1218.53
1216.808
1214.848
1212.326
1225.85
1224.482
1223.056
1221.574
1220.034
1218.427
1216.736
1214.879
1212.724
1227.155
1225.836
1224.458
1223.024
1221.532
1219.982
1218.38
1216.704
1214.894
1212.9
1201.598
1213.194
1201.821
1217.744
1213.457
1202.794
1220.005
1217.725
1213.832
1204.403
1221.426
1219.746
1217.62
1214.223
1206.438
1222.533
1221.031
1219.384
1217.411
1214.528
1208.561
1223.571
1222.129
1220.616
1218.992
1217.142
1214.697
1210.381
1224.713
1223.309
1221.848
1220.322
1218.708
1216.936
1214.795
1211.608
1225.937
1224.574
1223.154
1221.676
1220.138
1218.526
1216.808
1214.852
1212.337
1227.191
1225.874
1224.499
1223.067
1221.577
1220.028
1218.424
1216.737
1214.883
1212.733
1228.443
1227.176
1225.85
1224.466
1223.023
1221.523
1219.976
1218.377
1216.705
1214.899
1212.91
1202.391
1213.194
1201.821
1217.759
1213.268
1202.023
1220.18
1217.777
1213.511
1202.964
1221.749
1220.025
1217.743
1213.864
1204.53
1222.947
1221.445
1219.757
1217.625
1214.233
1206.505
1223.981
1222.555
1221.045
1219.39
1217.408
1214.522
1208.596
1224.988
1223.598
1222.148
1220.627
1218.994
1217.135
1214.696
1210.401
1226.094
1224.74
1223.329
1221.86
1220.325
1218.702
1216.933
1214.798
1211.621
1227.273
1225.961
1224.591
1223.163
1221.678
1220.131
1218.522
1216.807
1214.856
1212.348
1228.477
1227.212
1225.888
1224.506
1223.066
1221.567
1220.022
1218.421
1216.737
1214.887
1212.743
1229.676
1228.461
1227.188
1225.855
1224.462
1223.012
1221.515
1219.971
1218.374
1216.706
1214.903
1212.925
1203.896
1213.387
1202.603
1217.759
1213.268
1202.023
1220.262
1217.791
1213.325
1202.204
1221.959
1220.198
1217.794
1213.548
1203.112
1223.27
1221.763
1220.031
1217.746
1213.878
1204.622
1224.375
1222.962
1221.451
1219.754
1217.616
1214.227
1206.563
1225.373
1224
1222.565
1221.046
1219.381
1217.391
1214.516
1208.632
1226.352
1225.011
1223.613
1222.156
1220.625
1218.983
1217.128
1214.695
1210.422
1227.422
1226.117
1224.756
1223.337
1221.859
1220.316
1218.696
1216.931
1214.8
1211.635
1228.555
1227.294
1225.975
1224.597
1223.162
1221.668
1220.125
1218.518
1216.807
1214.859
1212.359
1229.709
1228.496
1227.224
1225.893
1224.503
1223.054
1221.559
1220.016
1218.417
1216.737
1214.892
1212.759
1230.855
1229.693
1228.471
1227.19
1225.849
1224.45
1223.002
1221.507
1219.965
1218.371
1216.706
1214.913
1212.945
1205.924
1213.719
1204.085
1217.744
1213.457
1202.794
1220.262
1217.791
1213.325
1202.204
1222.061
1220.279
1217.809
1213.365
1202.363
1223.483
1221.97
1220.202
1217.797
1213.567
1203.221
1224.685
1223.28
1221.765
1220.024
1217.734
1213.874
1204.7
1225.744
1224.388
1222.966
1221.445
1219.738
1217.593
1214.22
1206.62
1226.713
1225.389
1224.008
1222.564
1221.035
1219.36
1217.377
1214.511
1208.667
1227.665
1226.372
1225.024
1223.618
1222.151
1220.611
1218.973
1217.121
1214.694
1210.443
1228.696
1227.442
1226.131
1224.761
1223.334
1221.848
1220.307
1218.69
1216.928
1214.802
1211.649
1229.783
1228.574
1227.306
1225.979
1224.593
1223.15
1221.659
1220.118
1218.514
1216.806
1214.863
1212.376
1230.886
1229.725
1228.506
1227.227
1225.887
1224.49
1223.044
1221.551
1220.01
1218.414
1216.736
1214.901
1212.779
1231.981
1230.87
1229.701
1228.472
1227.183
1225.835
1224.438
1222.992
1221.499
1219.958
1218.367
1216.71
1214.927
1212.97
1208.137
1214.091
1206.082
1217.693
1213.784
1204.255
1220.18
1217.777
1213.511
1202.964
1222.061
1220.279
1217.809
1213.365
1202.363
1223.588
1222.072
1220.283
1217.812
1213.387
1202.482
1224.891
1223.492
1221.97
1220.193
1217.784
1213.567
1203.315
1226.037
1224.694
1223.28
1221.754
1220.003
1217.708
1213.871
1204.777
1227.063
1225.755
1224.39
1222.958
1221.426
1219.71
1217.573
1214.214
1206.675
1228.005
1226.728
1225.395
1224.005
1222.551
1221.012
1219.342
1217.362
1214.505
1208.702
1228.926
1227.683
1226.383
1225.026
1223.611
1222.135
1220.599
1218.962
1217.114
1214.693
1210.464
1229.917
1228.714
1227.453
1226.134
1224.756
1223.32
1221.837
1220.299
1218.684
1216.925
1214.804
1211.669
1230.957
1229.8
1228.583
1227.308
1225.973
1224.58
1223.139
1221.65
1220.111
1218.509
1216.804
1214.871
1212.398
1232.011
1230.901
1229.734
1228.507
1227.219
1225.873
1224.478
1223.034
1221.542
1220.003
1218.41
1216.741
1214.914
1212.805
1233.054
1231.994
1230.877
1229.701
1228.464
1227.168
1225.823
1224.427
1222.982
1221.49
1219.952
1218.368
1216.719
1214.945
1213
1210.056
1214.386
1208.26
1217.564
1214.152
1206.221
1220.005
1217.725
1213.832
1204.403
1221.959
1220.198
1217.794
1213.548
1203.112
1223.588
1222.072
1220.283
1217.812
1213.387
1202.482
1224.993
1223.596
1222.07
1220.273
1217.799
1213.39
1202.583
1226.233
1224.898
1223.489
1221.957
1220.17
1217.758
1213.567
1203.407
1227.34
1226.044
1224.692
1223.267
1221.73
1219.971
1217.686
1213.867
1204.853
1228.335
1227.072
1225.755
1224.38
1222.937
1221.396
1219.686
1217.553
1214.208
1206.73
1229.248
1228.018
1226.732
1225.39
1223.99
1222.527
1220.993
1219.324
1217.347
1214.5
1208.737
1230.136
1228.942
1227.691
1226.383
1225.017
1223.594
1222.121
1220.586
1218.951
1217.106
1214.692
1210.491
1231.085
1229.933
1228.723
1227.454
1226.126
1224.741
1223.308
1221.826
1220.29
1218.677
1216.921
1214.811
1211.695
1232.079
1230.972
1229.808
1228.584
1227.301
1225.958
1224.568
1223.128
1221.641
1220.103
1218.504
1216.807
1214.884
1212.425
1233.083
1232.025
1230.908
1229.733
1228.498
1227.204
1225.861
1224.467
1223.024
1221.533
1219.996
1218.41
1216.749
1214.933
1212.836
1234.077
1233.067
1232
1230.875
1229.691
1228.448
1227.155
1225.811
1224.415
1222.972
1221.481
1219.949
1218.372
1216.732
1214.968
1211.325
1214.532
1210.153
1217.329
1214.446
1208.366
1219.722
1217.599
1214.196
1206.34
1221.749
1220.025
1217.743
1213.864
1204.53
1223.483
1221.97
1220.202
1217.797
1213.567
1203.221
1224.993
1223.596
1222.07
1220.273
1217.799
1213.39
1202.583
1226.33
1224.999
1223.592
1222.056
1220.25
1217.774
1213.393
1202.683
1227.525
1226.239
1224.894
1223.474
1221.931
1220.137
1217.736
1213.567
1203.497
1228.597
1227.346
1226.042
1224.679
1223.243
1221.697
1219.944
1217.664
1213.863
1204.927
1229.56
1228.343
1227.072
1225.745
1224.36
1222.908
1221.371
1219.662
1217.533
1214.201
1206.785
1230.441
1229.259
1228.021
1226.726
1225.375
1223.966
1222.507
1220.973
1219.306
1217.332
1214.494
1208.778
1231.294
1230.15
1228.949
1227.69
1226.373
1224.999
1223.578
1222.107
1220.573
1218.94
1217.097
1214.696
1210.525
1232.202
1231.1
1229.941
1228.723
1227.446
1226.11
1224.728
1223.296
1221.815
1220.28
1218.67
1216.922
1214.822
1211.726
1233.149
1232.092
1230.979
1229.807
1228.575
1227.285
1225.945
1224.556
1223.117
1221.631
1220.095
1218.503
1216.815
1214.902
1212.458
1234.104
1233.096
1232.03
1230.907
1229.724
1228.482
1227.191
1225.848
1224.455
1223.013
1221.524
1219.993
1218.414
1216.762
1214.956
1235.048
1234.088
1233.071
1231.998
1230.866
1229.675
1228.435
1227.142
1225.798
1224.404
1222.96
1221.475
1219.95
1218.381
1216.75
1212.063
1214.61
1211.411
1217.022
1214.597
1210.233
1219.333
1217.371
1214.49
1208.452
1221.426
1219.746
1217.62
1214.223
1206.438
1223.27
1221.763
1220.031
1217.746
1213.878
1204.622
1224.891
1223.492
1221.97
1220.193
1217.784
1213.567
1203.315
1226.33
1224.999
1223.592
1222.056
1220.25
1217.774
1213.393
1202.683
1227.618
1226.335
1224.994
1223.577
1222.029
1220.216
1217.751
1213.394
1202.781
1228.773
1227.53
1226.234
1224.879
1223.447
1221.895
1220.108
1217.713
1213.566
1203.585
1229.809
1228.603
1227.343
1226.028
1224.654
1223.21
1221.668
1219.916
1217.642
1213.859
1205
1230.738
1229.567
1228.342
1227.061
1225.724
1224.331
1222.882
1221.346
1219.637
1217.513
1214.194
1206.844
1231.585
1230.451
1229.261
1228.014
1226.71
1225.351
1223.946
1222.486
1220.953
1219.287
1217.316
1214.493
1208.824
1232.401
1231.307
1230.155
1228.946
1227.679
1226.354
1224.983
1223.563
1222.092
1220.559
1218.928
1217.093
1214.704
1210.564
1233.266
1232.215
1231.106
1229.939
1228.713
1227.429
1226.096
1224.714
1223.283
1221.804
1220.27
1218.666
1216.927
1214.839
1211.763
1234.167
1233.161
1232.098
1230.977
1229.797
1228.559
1227.271
1225.932
1224.543
1223.106
1221.62
1220.091
1218.506
1216.826
1214.924
1235.075
1234.116
1233.1
1232.028
1230.897
1229.708
1228.468
1227.177
1225.835
1224.443
1223.001
1221.518
1219.993
1218.422
1216.779
1235.971
1235.059
1234.092
1233.068
1231.987
1230.849
1229.661
1228.421
1227.128
1225.785
1224.391
1222.952
1221.473
1219.955
1218.394
1212.456
1214.653
1212.146
1216.796
1214.678
1211.48
1218.903
1217.074
1214.647
1210.295
1221.004
1219.365
1217.398
1214.517
1208.52
1222.947
1221.445
1219.757
1217.625
1214.233
1206.505
1224.685
1223.28
1221.765
1220.024
1217.734
1213.874
1204.7
1226.233
1224.898
1223.489
1221.957
1220.17
1217.758
1213.567
1203.407
1227.618
1226.335
1224.994
1223.577
1222.029
1220.216
1217.751
1213.394
1202.781
1228.861
1227.622
1226.33
1224.978
1223.549
1221.993
1220.186
1217.729
1213.395
1202.877
1229.977
1228.777
1227.526
1226.219
1224.852
1223.413
1221.865
1220.079
1217.69
1213.564
1203.672
1230.975
1229.814
1228.599
1227.329
1226.004
1224.622
1223.181
1221.639
1219.889
1217.619
1213.854
1205.077
1231.868
1230.744
1229.566
1228.331
1227.041
1225.696
1224.305
1222.857
1221.32
1219.613
1217.492
1214.192
1206.907
1232.679
1231.593
1230.452
1229.254
1227.998
1226.686
1225.33
1223.925
1222.466
1220.933
1219.268
1217.304
1214.497
1208.876
1233.458
1232.412
1231.311
1230.152
1228.934
1227.659
1226.337
1224.967
1223.547
1222.077
1220.545
1218.92
1217.094
1214.718
1210.609
1234.281
1233.278
1232.22
1231.104
1229.929
1228.696
1227.414
1226.082
1224.7
1223.27
1221.791
1220.263
1218.667
1216.936
1214.86
1235.136
1234.178
1233.165
1232.095
1230.967
1229.781
1228.545
1227.257
1225.919
1224.53
1223.093
1221.613
1220.09
1218.513
1216.843
1235.997
1235.086
1234.119
1233.097
1232.017
1230.88
1229.693
1228.454
1227.164
1225.822
1224.43
1222.993
1221.515
1219.998
1218.435
1236.845
1235.98
1235.062
1234.088
1233.058
1231.971
1230.835
1229.647
1228.407
1227.115
1225.771
1224.381
1222.948
1221.475
1219.964
1212.624
1214.674
1212.537
1216.657
1214.722
1212.212
1218.596
1216.853
1214.732
1211.533
1220.555
1218.946
1217.112
1214.68
1210.339
1222.533
1221.031
1219.384
1217.411
1214.528
1208.561
1224.375
1222.962
1221.451
1219.754
1217.616
1214.227
1206.563
1226.037
1224.694
1223.28
1221.754
1220.003
1217.708
1213.871
1204.777
1227.525
1226.239
1224.894
1223.474
1221.931
1220.137
1217.736
1213.567
1203.497
1228.861
1227.622
1226.33
1224.978
1223.549
1221.993
1220.186
1217.729
1213.395
1202.877
1230.06
1228.865
1227.617
1226.314
1224.951
1223.513
1221.962
1220.156
1217.706
1213.396
1202.97
1231.135
1229.98
1228.772
1227.511
1226.193
1224.818
1223.382
1221.834
1220.05
1217.667
1213.562
1203.763
1232.094
1230.979
1229.81
1228.586
1227.306
1225.973
1224.594
1223.153
1221.611
1219.861
1217.596
1213.854
1205.158
1232.95
1231.873
1230.742
1229.555
1228.311
1227.013
1225.671
1224.28
1222.831
1221.295
1219.588
1217.475
1214.195
1206.976
1233.724
1232.687
1231.594
1230.444
1229.237
1227.974
1226.666
1225.309
1223.904
1222.445
1220.912
1219.252
1217.298
1214.506
1208.932
1234.465
1233.468
1232.416
1231.307
1230.139
1228.915
1227.643
1226.321
1224.95
1223.531
1222.061
1220.534
1218.916
1217.099
1214.736
1235.245
1234.291
1233.282
1232.216
1231.092
1229.911
1228.681
1227.399
1226.067
1224.686
1223.256
1221.782
1220.26
1218.671
1216.95
1236.056
1235.146
1234.182
1233.162
1232.085
1230.95
1229.766
1228.53
1227.243
1225.905
1224.517
1223.084
1221.61
1220.094
1218.524
1236.871
1236.006
1235.089
1234.116
1233.086
1232
1230.865
1229.679
1228.44
1227.15
1225.808
1224.419
1222.988
1221.517
1220.006
1237.673
1236.854
1235.983
1235.058
1234.077
1233.041
1231.956
1230.82
1229.632
1228.392
1227.1
1225.76
1224.375
1222.947
1221.481
1214.683
1212.705
1216.581
1214.744
1212.602
1218.409
1216.716
1214.777
1212.261
1220.236
1218.644
1216.896
1214.769
1211.568
1222.098
1220.592
1218.976
1217.135
1214.697
1210.361
1223.981
1222.555
1221.045
1219.39
1217.408
1214.522
1208.596
1225.744
1224.388
1222.966
1221.445
1219.738
1217.593
1214.22
1206.62
1227.34
1226.044
1224.692
1223.267
1221.73
1219.971
1217.686
1213.867
1204.853
1228.773
1227.53
1226.234
1224.879
1223.447
1221.895
1220.108
1217.713
1213.566
1203.585
1230.06
1228.865
1227.617
1226.314
1224.951
1223.513
1221.962
1220.156
1217.706
1213.396
1202.97
1231.215
1230.063
1228.859
1227.601
1226.288
1224.916
1223.482
1221.931
1220.127
1217.683
1213.396
1203.068
1232.247
1231.138
1229.975
1228.758
1227.486
1226.16
1224.789
1223.352
1221.804
1220.02
1217.644
1213.565
1203.857
1233.167
1232.098
1230.975
1229.797
1228.562
1227.275
1225.946
1224.566
1223.124
1221.582
1219.832
1217.577
1213.859
1205.244
1233.984
1232.955
1231.871
1230.731
1229.534
1228.283
1226.989
1225.646
1224.255
1222.806
1221.268
1219.566
1217.463
1214.203
1207.049
1234.72
1233.731
1232.686
1231.586
1230.427
1229.213
1227.953
1226.645
1225.288
1223.883
1222.423
1220.894
1219.24
1217.295
1214.52
1235.423
1234.474
1233.471
1232.411
1231.294
1230.12
1228.898
1227.626
1226.304
1224.933
1223.514
1222.048
1220.527
1218.916
1217.108
1236.161
1235.255
1234.295
1233.278
1232.205
1231.075
1229.896
1228.665
1227.384
1226.052
1224.671
1223.245
1221.777
1220.262
1218.68
1236.928
1236.065
1235.149
1234.178
1233.151
1232.067
1230.935
1229.751
1228.515
1227.229
1225.89
1224.506
1223.078
1221.611
1220.101
1237.697
1236.879
1236.009
1235.085
1234.105
1233.069
1231.986
1230.851
1229.664
1228.426
1227.135
1225.796
1224.413
1222.987
1221.522
1238.454
1237.681
1236.856
1235.979
1235.047
1234.06
1233.026
1231.941
1230.805
1229.618
1228.377
1227.087
1225.752
1224.372
1222.95
1216.546
1214.753
1212.77
1218.306
1216.64
1214.799
1212.651
1220.042
1218.459
1216.761
1214.816
1212.293
1221.789
1220.277
1218.679
1216.924
1214.79
1211.582
1223.571
1222.129
1220.616
1218.992
1217.142
1214.697
1210.381
1225.373
1224
1222.565
1221.046
1219.381
1217.391
1214.516
1208.632
1227.063
1225.755
1224.39
1222.958
1221.426
1219.71
1217.573
1214.214
1206.675
1228.597
1227.346
1226.042
1224.679
1223.243
1221.697
1219.944
1217.664
1213.863
1204.927
1229.977
1228.777
1227.526
1226.219
1224.852
1223.413
1221.865
1220.079
1217.69
1213.564
1203.672
1231.215
1230.063
1228.859
1227.601
1226.288
1224.916
1223.482
1221.931
1220.127
1217.683
1213.396
1203.068
1232.324
1231.217
1230.058
1228.844
1227.575
1226.254
1224.886
1223.451
1221.899
1220.097
1217.659
1213.401
1203.17
1233.314
1232.25
1231.133
1229.961
1228.733
1227.454
1226.132
1224.76
1223.322
1221.773
1219.99
1217.624
1213.573
1203.956
1234.193
1233.17
1232.094
1230.962
1229.774
1228.533
1227.249
1225.919
1224.538
1223.096
1221.551
1219.807
1217.563
1213.868
1205.334
1234.971
1233.989
1232.952
1231.86
1230.711
1229.508
1228.26
1226.964
1225.622
1224.23
1222.779
1221.244
1219.549
1217.456
1214.216
1235.669
1234.727
1233.73
1232.678
1231.569
1230.404
1229.193
1227.933
1226.624
1225.267
1223.861
1222.404
1220.88
1219.233
1217.298
1236.333
1235.432
1234.476
1233.465
1232.398
1231.274
1230.103
1228.881
1227.608
1226.286
1224.915
1223.499
1222.039
1220.524
1218.92
1237.03
1236.171
1235.258
1234.291
1233.267
1232.187
1231.059
1229.88
1228.65
1227.369
1226.036
1224.658
1223.238
1221.775
1220.267
1237.752
1236.936
1236.068
1235.145
1234.167
1233.134
1232.052
1230.92
1229.736
1228.501
1227.213
1225.878
1224.498
1223.077
1221.615
1238.478
1237.705
1236.882
1236.005
1235.073
1234.088
1233.055
1231.971
1230.836
1229.649
1228.41
1227.122
1225.788
1224.41
1222.99
1239.19
1238.462
1237.683
1236.852
1235.967
1235.03
1234.046
1233.011
1231.927
1230.79
1229.602
1228.364
1227.078
1225.747
1224.373
1218.261
1216.606
1214.808
1212.819
1219.935
1218.356
1216.686
1214.839
1212.682
1221.601
1220.085
1218.496
1216.792
1214.839
1212.305
1223.279
1221.824
1220.306
1218.701
1216.938
1214.793
1211.595
1224.988
1223.598
1222.148
1220.627
1218.994
1217.135
1214.696
1210.401
1226.713
1225.389
1224.008
1222.564
1221.035
1219.36
1217.377
1214.511
1208.667
1228.335
1227.072
1225.755
1224.38
1222.937
1221.396
1219.686
1217.553
1214.208
1206.73
1229.809
1228.603
1227.343
1226.028
1224.654
1223.21
1221.668
1219.916
1217.642
1213.859
1205
1231.135
1229.98
1228.772
1227.511
1226.193
1224.818
1223.382
1221.834
1220.05
1217.667
1213.562
1203.763
1232.324
1231.217
1230.058
1228.844
1227.575
1226.254
1224.886
1223.451
1221.899
1220.097
1217.659
1213.401
1203.17
1233.387
1232.326
1231.212
1230.043
1228.819
1227.543
1226.225
1224.856
1223.42
1221.868
1220.066
1217.64
1213.411
1203.276
1234.334
1233.316
1232.245
1231.119
1229.937
1228.703
1227.427
1226.104
1224.73
1223.292
1221.741
1219.963
1217.609
1213.586
1204.059
1235.172
1234.196
1233.166
1232.081
1230.94
1229.746
1228.508
1227.223
1225.892
1224.51
1223.065
1221.524
1219.786
1217.553
1213.883
1235.911
1234.975
1233.985
1232.941
1231.84
1230.685
1229.485
1228.236
1226.94
1225.597
1224.203
1222.755
1221.225
1219.536
1217.453
1236.571
1235.675
1234.726
1233.722
1232.662
1231.546
1230.384
1229.173
1227.912
1226.603
1225.244
1223.841
1222.389
1220.87
1219.231
1237.196
1236.341
1235.433
1234.471
1233.452
1232.378
1231.257
1230.085
1228.863
1227.591
1226.268
1224.9
1223.489
1222.034
1220.525
1237.852
1237.039
1236.173
1235.253
1234.279
1233.249
1232.172
1231.043
1229.864
1228.634
1227.352
1226.023
1224.649
1223.234
1221.778
1238.531
1237.761
1236.938
1236.063
1235.134
1234.15
1233.119
1232.037
1230.905
1229.721
1228.484
1227.2
1225.869
1224.494
1223.078
1239.213
1238.485
1237.707
1236.877
1235.993
1235.057
1234.073
1233.04
1231.956
1230.821
1229.633
1228.396
1227.113
1225.783
1224.41
1239.882
1239.197
1238.463
1237.678
1236.841
1235.951
1235.016
1234.031
1232.997
1231.912
1230.774
1229.588
1228.354
1227.073
1225.747
1219.888
1218.311
1216.652
1214.848
1212.85
1221.498
1219.978
1218.394
1216.717
1214.862
1212.694
1223.101
1221.638
1220.115
1218.52
1216.808
1214.844
1212.316
1224.713
1223.309
1221.848
1220.322
1218.708
1216.936
1214.795
1211.608
1226.352
1225.011
1223.613
1222.156
1220.625
1218.983
1217.128
1214.695
1210.422
1228.005
1226.728
1225.395
1224.005
1222.551
1221.012
1219.342
1217.362
1214.505
1208.702
1229.56
1228.343
1227.072
1225.745
1224.36
1222.908
1221.371
1219.662
1217.533
1214.201
1206.785
1230.975
1229.814
1228.599
1227.329
1226.004
1224.622
1223.181
1221.639
1219.889
1217.619
1213.854
1205.077
1232.247
1231.138
1229.975
1228.758
1227.486
1226.16
1224.789
1223.352
1221.804
1220.02
1217.644
1213.565
1203.857
1233.387
1232.326
1231.212
1230.043
1228.819
1227.543
1226.225
1224.856
1223.42
1221.868
1220.066
1217.64
1213.411
1203.276
1234.405
1233.39
1232.321
1231.197
1230.019
1228.788
1227.515
1226.196
1224.826
1223.389
1221.835
1220.038
1217.624
1213.425
1203.385
1235.309
1234.337
1233.311
1232.231
1231.096
1229.908
1228.676
1227.399
1226.075
1224.701
1223.26
1221.712
1219.94
1217.598
1213.603
1236.105
1235.175
1234.191
1233.153
1232.059
1230.912
1229.721
1228.482
1227.197
1225.864
1224.481
1223.038
1221.502
1219.77
1217.548
1236.805
1235.915
1234.972
1233.975
1232.922
1231.815
1230.663
1229.462
1228.213
1226.916
1225.57
1224.179
1222.735
1221.21
1219.528
1237.427
1236.577
1235.674
1234.717
1233.705
1232.639
1231.526
1230.364
1229.152
1227.891
1226.58
1225.224
1223.825
1222.378
1220.865
1238.013
1237.204
1236.342
1235.427
1234.457
1233.433
1232.361
1231.24
1230.068
1228.845
1227.572
1226.251
1224.888
1223.482
1222.032
1238.628
1237.86
1237.04
1236.168
1235.241
1234.261
1233.233
1232.156
1231.027
1229.848
1228.617
1227.337
1226.012
1224.644
1223.234
1239.265
1238.539
1237.762
1236.934
1236.052
1235.117
1234.135
1233.104
1232.022
1230.889
1229.704
1228.47
1227.19
1225.864
1224.494
1239.904
1239.22
1238.487
1237.702
1236.866
1235.977
1235.042
1234.058
1233.025
1231.941
1230.805
1229.619
1228.386
1227.107
1225.782
1240.53
1239.889
1239.198
1238.458
1237.667
1236.824
1235.937
1235.001
1234.016
1232.982
1231.895
1230.76
1229.577
1228.347
1227.07
1221.452
1219.931
1218.349
1216.683
1214.872
1212.862
1223.003
1221.535
1220.009
1218.419
1216.734
1214.869
1212.704
1224.546
1223.133
1221.663
1220.133
1218.53
1216.808
1214.848
1212.326
1226.094
1224.74
1223.329
1221.86
1220.325
1218.702
1216.933
1214.798
1211.621
1227.665
1226.372
1225.024
1223.618
1222.151
1220.611
1218.973
1217.121
1214.694
1210.443
1229.248
1228.018
1226.732
1225.39
1223.99
1222.527
1220.993
1219.324
1217.347
1214.5
1208.737
1230.738
1229.567
1228.342
1227.061
1225.724
1224.331
1222.882
1221.346
1219.637
1217.513
1214.194
1206.844
1232.094
1230.979
1229.81
1228.586
1227.306
1225.973
1224.594
1223.153
1221.611
1219.861
1217.596
1213.854
1205.158
1233.314
1232.25
1231.133
1229.961
1228.733
1227.454
1226.132
1224.76
1223.322
1221.773
1219.99
1217.624
1213.573
1203.956
1234.405
1233.39
1232.321
1231.197
1230.019
1228.788
1227.515
1226.196
1224.826
1223.389
1221.835
1220.038
1217.624
1213.425
1203.385
1235.377
1234.407
1233.384
1232.307
1231.174
1229.989
1228.761
1227.488
1226.167
1224.796
1223.357
1221.805
1220.015
1217.614
1213.444
1236.238
1235.311
1234.331
1233.298
1232.209
1231.067
1229.882
1228.65
1227.372
1226.047
1224.67
1223.231
1221.688
1219.923
1217.593
1236.993
1236.108
1235.17
1234.179
1233.132
1232.033
1230.888
1229.696
1228.457
1227.171
1225.836
1224.453
1223.015
1221.483
1219.758
1237.653
1236.808
1235.911
1234.961
1233.956
1232.897
1231.793
1230.64
1229.439
1228.189
1226.89
1225.546
1224.159
1222.719
1221.2
1238.237
1237.432
1236.575
1235.665
1234.701
1233.684
1232.62
1231.507
1230.344
1229.131
1227.868
1226.56
1225.208
1223.813
1222.371
1238.785
1238.02
1237.204
1236.336
1235.414
1234.438
1233.416
1232.344
1231.222
1230.05
1228.826
1227.555
1226.238
1224.879
1223.478
1239.36
1238.636
1237.861
1237.035
1236.156
1235.224
1234.245
1233.218
1232.14
1231.011
1229.831
1228.601
1227.326
1226.005
1224.642
1239.955
1239.273
1238.54
1237.757
1236.922
1236.035
1235.102
1234.12
1233.088
1232.007
1230.873
1229.69
1228.459
1227.183
1225.862
1240.552
1239.911
1239.222
1238.482
1237.691
1236.849
1235.962
1235.027
1234.043
1233.01
1231.924
1230.79
1229.608
1228.379
1227.104
1241.136
1240.536
1239.889
1239.193
1238.447
1237.651
1236.81
1235.922
1234.986
1234.001
1232.965
1231.881
1230.749
1229.569
1228.343
1222.96
1221.489
1219.962
1218.374
1216.701
1214.879
1212.871
1224.454
1223.035
1221.56
1220.028
1218.43
1216.735
1214.874
1212.714
1225.937
1224.574
1223.154
1221.676
1220.138
1218.526
1216.808
1214.852
1212.337
1227.422
1226.117
1224.756
1223.337
1221.859
1220.316
1218.696
1216.931
1214.8
1211.635
1228.926
1227.683
1226.383
1225.026
1223.611
1222.135
1220.599
1218.962
1217.114
1214.693
1210.464
1230.441
1229.259
1228.021
1226.726
1225.375
1223.966
1222.507
1220.973
1219.306
1217.332
1214.494
1208.778
1231.868
1230.744
1229.566
1228.331
1227.041
1225.696
1224.305
1222.857
1221.32
1219.613
1217.492
1214.192
1206.907
1233.167
1232.098
1230.975
1229.797
1228.562
1227.275
1225.946
1224.566
1223.124
1221.582
1219.832
1217.577
1213.859
1205.244
1234.334
1233.316
1232.245
1231.119
1229.937
1228.703
1227.427
1226.104
1224.73
1223.292
1221.741
1219.963
1217.609
1213.586
1204.059
1235.377
1234.407
1233.384
1232.307
1231.174
1229.989
1228.761
1227.488
1226.167
1224.796
1223.357
1221.805
1220.015
1217.614
1213.444
1236.304
1235.379
1234.402
1233.37
1232.284
1231.145
1229.963
1228.734
1227.46
1226.139
1224.765
1223.327
1221.78
1219.996
1217.608
1237.121
1236.239
1235.305
1234.318
1233.276
1232.181
1231.043
1229.857
1228.624
1227.344
1226.017
1224.641
1223.206
1221.667
1219.909
1237.836
1236.995
1236.103
1235.158
1234.159
1233.107
1232.01
1230.865
1229.672
1228.431
1227.143
1225.809
1224.43
1222.996
1221.469
1238.457
1237.656
1236.805
1235.901
1234.943
1233.932
1232.876
1231.771
1230.618
1229.416
1228.164
1226.866
1225.526
1224.142
1222.707
1239.002
1238.241
1237.43
1236.567
1235.649
1234.68
1233.665
1232.6
1231.487
1230.324
1229.109
1227.848
1226.543
1225.195
1223.805
1239.512
1238.791
1238.021
1237.198
1236.323
1235.395
1234.422
1233.399
1232.327
1231.205
1230.031
1228.809
1227.541
1226.229
1224.874
1240.047
1239.367
1238.637
1237.856
1237.023
1236.139
1235.209
1234.23
1233.202
1232.124
1230.994
1229.815
1228.589
1227.318
1226.002
1240.602
1239.962
1239.274
1238.536
1237.746
1236.906
1236.02
1235.087
1234.105
1233.073
1231.99
1230.858
1229.678
1228.452
1227.18
1241.157
1240.558
1239.912
1239.217
1238.471
1237.675
1236.835
1235.948
1235.013
1234.028
1232.993
1231.91
1230.779
1229.6
1228.375
1241.699
1241.142
1240.537
1239.884
1239.182
1238.431
1237.637
1236.796
1235.908
1234.971
1233.985
1232.951
1231.869
1230.741
1229.565
1224.413
1222.992
1221.515
1219.981
1218.385
1216.702
1214.884
1212.881
1225.85
1224.482
1223.056
1221.574
1220.034
1218.427
1216.736
1214.879
1212.724
1227.273
1225.961
1224.591
1223.163
1221.678
1220.131
1218.522
1216.807
1214.856
1212.348
1228.696
1227.442
1226.131
1224.761
1223.334
1221.848
1220.307
1218.69
1216.928
1214.802
1211.649
1230.136
1228.942
1227.691
1226.383
1225.017
1223.594
1222.121
1220.586
1218.951
1217.106
1214.692
1210.491
1231.585
1230.451
1229.261
1228.014
1226.71
1225.351
1223.946
1222.486
1220.953
1219.287
1217.316
1214.493
1208.824
1232.95
1231.873
1230.742
1229.555
1228.311
1227.013
1225.671
1224.28
1222.831
1221.295
1219.588
1217.475
1214.195
1206.976
1234.193
1233.17
1232.094
1230.962
1229.774
1228.533
1227.249
1225.919
1224.538
1223.096
1221.551
1219.807
1217.563
1213.868
1205.334
1235.309
1234.337
1233.311
1232.231
1231.096
1229.908
1228.676
1227.399
1226.075
1224.701
1223.26
1221.712
1219.94
1217.598
1213.603
1236.304
1235.379
1234.402
1233.37
1232.284
1231.145
1229.963
1228.734
1227.46
1226.139
1224.765
1223.327
1221.78
1219.996
1217.608
1237.185
1236.305
1235.373
1234.388
1233.348
1232.256
1231.12
1229.937
1228.708
1227.432
1226.108
1224.735
1223.301
1221.759
1219.982
1237.96
1237.123
1236.234
1235.293
1234.297
1233.25
1232.158
1231.018
1229.831
1228.597
1227.315
1225.989
1224.616
1223.185
1221.651
1238.634
1237.838
1236.991
1236.091
1235.139
1234.134
1233.084
1231.987
1230.841
1229.647
1228.404
1227.117
1225.786
1224.411
1222.981
1239.216
1238.46
1237.653
1236.794
1235.883
1234.919
1233.911
1232.855
1231.749
1230.595
1229.391
1228.14
1226.846
1225.51
1224.13
1239.724
1239.006
1238.24
1237.422
1236.551
1235.629
1234.661
1233.646
1232.581
1231.467
1230.301
1229.089
1227.831
1226.53
1225.186
1240.196
1239.518
1238.792
1238.014
1237.185
1236.304
1235.379
1234.405
1233.382
1232.309
1231.185
1230.013
1228.795
1227.531
1226.223
1240.692
1240.054
1239.368
1238.631
1237.844
1237.006
1236.124
1235.193
1234.214
1233.186
1232.106
1230.978
1229.802
1228.581
1227.313
1241.206
1240.608
1239.963
1239.269
1238.524
1237.73
1236.891
1236.005
1235.072
1234.089
1233.056
1231.974
1230.846
1229.67
1228.448
1241.72
1241.163
1240.559
1239.907
1239.205
1238.455
1237.661
1236.821
1235.933
1234.998
1234.012
1232.978
1231.898
1230.77
1229.596
1242.222
1241.705
1241.142
1240.532
1239.873
1239.167
1238.417
1237.623
1236.781
1235.893
1234.955
1233.97
1232.939
1231.86
1230.735
1225.811
1224.441
1223.013
1221.529
1219.988
1218.382
1216.704
1214.889
1212.891
1227.191
1225.874
1224.499
1223.067
1221.577
1220.028
1218.424
1216.737
1214.883
1212.733
1228.555
1227.294
1225.975
1224.597
1223.162
1221.668
1220.125
1218.518
1216.807
1214.859
1212.359
1229.917
1228.714
1227.453
1226.134
1224.756
1223.32
1221.837
1220.299
1218.684
1216.925
1214.804
1211.669
1231.294
1230.15
1228.949
1227.69
1226.373
1224.999
1223.578
1222.107
1220.573
1218.94
1217.097
1214.696
1210.525
1232.679
1231.593
1230.452
1229.254
1227.998
1226.686
1225.33
1223.925
1222.466
1220.933
1219.268