/*--------------------------------*- C++ -*----------------------------------*\
| =========                 |                                                 |
| \\      /  F ield         | OpenFOAM: The Open Source CFD Toolbox           |
|  \\    /   O peration     | Version:  2306                                  |
|   \\  /    A nd           | Website:  www.openfoam.com                      |
|    \\/     M anipulation  |                                                 |
\*---------------------------------------------------------------------------*/
FoamFile
{
    version     2.0;
    format      ascii;
    arch        "LSB;label=32;scalar=64";
    class       volScalarField;
    location    "0.3/electrolyte";
    object      T;
}
// * * * * * * * * * * * * * * * * * * * * * * * * * * * * * * * * * * * * * //

dimensions      [0 0 0 1 0 0 0];

internalField   nonuniform List<scalar> 
4000
(
1102.272
1102.15
1103.711
1102.273
1101.866
1103.699
1102.151
1105.044
1103.709
1102.274
1101.339
1103.671
1101.868
1105.064
1103.697
1102.152
1106.297
1105.04
1103.707
1102.276
1100.45
1103.616
1101.342
1105.108
1103.669
1101.87
1106.326
1105.06
1103.695
1102.153
1107.506
1106.29
1105.035
1103.705
1102.277
1099.141
1103.515
1100.457
1105.182
1103.612
1101.345
1106.391
1105.102
1103.666
1101.871
1107.538
1106.319
1105.055
1103.693
1102.155
1108.684
1107.497
1106.283
1105.031
1103.703
1097.656
1103.343
1099.159
1105.295
1103.509
1100.465
1106.504
1105.175
1103.609
1101.349
1107.608
1106.383
1105.097
1103.664
1101.873
1108.715
1107.529
1106.312
1105.05
1103.691
1109.833
1108.674
1107.489
1106.276
1105.026
1096.301
1103.085
1097.689
1105.435
1103.334
1099.177
1106.683
1105.285
1103.503
1100.473
1107.732
1106.495
1105.168
1103.605
1101.352
1108.786
1107.598
1106.375
1105.091
1103.661
1109.864
1108.705
1107.52
1106.304
1105.044
1110.952
1109.821
1108.663
1107.479
1106.269
1095.296
1102.795
1096.347
1105.535
1103.076
1097.721
1106.921
1105.42
1103.325
1099.195
1107.929
1106.671
1105.275
1103.497
1100.481
1108.911
1107.722
1106.486
1105.161
1103.601
1109.933
1108.775
1107.589
1106.367
1105.085
1110.982
1109.852
1108.694
1107.51
1106.297
1112.04
1110.94
1109.81
1108.653
1107.47
1094.766
1102.549
1095.352
1105.579
1102.788
1096.392
1107.136
1105.517
1103.067
1097.752
1108.195
1106.904
1105.405
1103.317
1099.213
1109.11
1107.916
1106.659
1105.265
1103.491
1110.055
1108.899
1107.711
1106.477
1105.154
1111.049
1109.921
1108.764
1107.579
1106.359
1112.069
1110.969
1109.84
1108.684
1107.501
1113.095
1112.027
1110.927
1109.798
1108.642
1094.766
1102.41
1094.827
1105.588
1102.545
1095.407
1107.293
1105.56
1102.78
1096.436
1108.446
1107.115
1105.498
1103.057
1097.783
1109.378
1108.176
1106.886
1105.39
1103.307
1110.249
1109.095
1107.902
1106.647
1105.255
1111.168
1110.042
1108.887
1107.699
1106.467
1112.134
1111.036
1109.908
1108.753
1107.569
1113.123
1112.056
1110.957
1109.828
1108.673
1114.116
1113.082
1112.014
1110.915
1109.786
1095.296
1102.41
1094.827
1105.585
1102.407
1094.887
1107.39
1105.569
1102.539
1095.461
1108.64
1107.27
1105.54
1102.773
1096.48
1109.637
1108.424
1107.094
1105.48
1103.048
1110.513
1109.359
1108.158
1106.869
1105.375
1111.356
1110.234
1109.081
1107.888
1106.634
1112.249
1111.154
1110.029
1108.874
1107.688
1113.186
1112.12
1111.023
1109.896
1108.741
1114.144
1113.11
1112.043
1110.944
1109.816
1115.102
1114.102
1113.068
1112.001
1110.902
1096.301
1102.549
1095.352
1105.585
1102.407
1094.887
1107.436
1105.566
1102.403
1094.946
1108.767
1107.366
1105.549
1102.534
1095.513
1109.84
1108.616
1107.247
1105.52
1102.765
1110.768
1109.614
1108.402
1107.073
1105.461
1111.612
1110.494
1109.341
1108.14
1106.851
1112.432
1111.341
1110.219
1109.066
1107.874
1113.298
1112.235
1111.14
1110.015
1108.862
1114.205
1113.172
1112.107
1111.01
1109.884
1115.129
1114.13
1113.096
1112.029
1110.931
1116.053
1115.089
1114.089
1113.055
1111.988
1097.656
1102.795
1096.347
1105.588
1102.545
1095.407
1107.436
1105.566
1102.403
1094.946
1108.829
1107.411
1105.546
1102.399
1095.003
1109.976
1108.742
1107.342
1105.529
1102.528
1110.971
1109.816
1108.592
1107.223
1105.501
1111.861
1110.746
1109.592
1108.38
1107.051
1112.68
1111.593
1110.475
1109.322
1108.121
1113.476
1112.416
1111.325
1110.203
1109.051
1114.314
1113.284
1112.22
1111.126
1110.002
1115.189
1114.191
1113.159
1112.093
1110.997
1116.08
1115.115
1114.116
1113.082
1112.016
1116.969
1116.039
1115.075
1114.075
1113.041
1099.141
1103.085
1097.689
1105.579
1102.788
1096.392
1107.39
1105.569
1102.539
1095.461
1108.829
1107.411
1105.546
1102.399
1095.003
1110.043
1108.803
1107.387
1105.526
1102.394
1111.107
1109.951
1108.716
1107.318
1105.509
1112.06
1110.947
1109.792
1108.567
1107.2
1112.922
1111.839
1110.724
1109.57
1108.358
1113.717
1112.661
1111.574
1110.455
1109.303
1114.488
1113.46
1112.4
1111.309
1110.188
1115.296
1114.3
1113.269
1112.206
1111.112
1116.139
1115.175
1114.177
1113.144
1112.079
1116.994
1116.066
1115.101
1114.102
1113.069
1117.848
1116.955
1116.025
1115.061
1114.061
1100.45
1103.343
1099.159
1105.535
1103.076
1097.721
1107.293
1105.56
1102.78
1096.436
1108.767
1107.366
1105.549
1102.534
1095.513
1110.043
1108.803
1107.387
1105.526
1102.394
1111.175
1110.018
1108.778
1107.362
1105.506
1112.194
1111.083
1109.926
1108.691
1107.293
1113.117
1112.037
1110.923
1109.768
1108.543
1113.953
1112.901
1111.818
1110.702
1109.548
1114.722
1113.698
1112.642
1111.555
1110.436
1115.465
1114.471
1113.444
1112.384
1111.293
1116.243
1115.281
1114.285
1113.254
1112.191
1117.052
1116.124
1115.161
1114.162
1113.13
1117.873
1116.98
1116.051
1115.087
1114.088
1118.692
1117.834
1116.941
1116.011
1115.047
1101.339
1103.515
1100.457
1105.435
1103.334
1099.177
1107.136
1105.517
1103.067
1097.752
1108.64
1107.27
1105.54
1102.773
1096.48
1109.976
1108.742
1107.342
1105.529
1102.528
1111.175
1110.018
1108.778
1107.362
1105.506
1112.261
1111.15
1109.992
1108.752
1107.337
1113.248
1112.17
1111.058
1109.9
1108.666
1114.143
1113.094
1112.013
1110.9
1109.744
1114.953
1113.932
1112.88
1111.796
1110.68
1115.695
1114.704
1113.679
1112.623
1111.535
1116.409
1115.449
1114.455
1113.427
1112.367
1117.155
1116.228
1115.266
1114.27
1113.239
1117.93
1117.038
1116.11
1115.146
1114.148
1118.717
1117.859
1116.966
1116.037
1115.073
1119.499
1118.678
1117.82
1116.927
1115.997
1101.866
1103.616
1101.342
1105.295
1103.509
1100.465
1106.921
1105.42
1103.325
1099.195
1108.446
1107.115
1105.498
1103.057
1097.783
1109.84
1108.616
1107.247
1105.52
1102.765
1111.107
1109.951
1108.716
1107.318
1105.509
1112.261
1111.15
1109.992
1108.752
1107.337
1113.314
1112.237
1111.125
1109.966
1108.726
1114.271
1113.225
1112.146
1111.033
1109.875
1115.138
1114.121
1113.071
1111.99
1110.876
1115.92
1114.932
1113.911
1112.858
1111.774
1116.633
1115.676
1114.685
1113.661
1112.604
1117.318
1116.393
1115.433
1114.439
1113.411
1118.031
1117.14
1116.213
1115.251
1114.254
1118.773
1117.916
1117.024
1116.095
1115.132
1119.524
1118.703
1117.845
1116.952
1116.023
1120.272
1119.486
1118.664
1117.806
1116.913
1102.15
1103.671
1101.868
1105.182
1103.612
1101.345
1106.683
1105.285
1103.503
1100.473
1108.195
1106.904
1105.405
1103.317
1099.213
1109.637
1108.424
1107.094
1105.48
1103.048
1110.971
1109.816
1108.592
1107.223
1105.501
1112.194
1111.083
1109.926
1108.691
1107.293
1113.314
1112.237
1111.125
1109.966
1108.726
1114.336
1113.29
1112.212
1111.1
1109.941
1115.264
1114.249
1113.201
1112.122
1111.008
1116.102
1115.117
1114.098
1113.049
1111.967
1116.855
1115.9
1114.912
1113.89
1112.837
1117.538
1116.615
1115.658
1114.667
1113.642
1118.191
1117.302
1116.377
1115.417
1114.422
1118.872
1118.017
1117.125
1116.198
1115.236
1119.579
1118.759
1117.902
1117.009
1116.081
1120.296
1119.51
1118.689
1117.831
1116.938
1121.008
1120.258
1119.472
1118.65
1117.792
1102.272
1103.699
1102.151
1105.108
1103.669
1101.87
1106.504
1105.175
1103.609
1101.349
1107.929
1106.671
1105.275
1103.497
1100.481
1109.378
1108.176
1106.886
1105.39
1103.307
1110.768
1109.614
1108.402
1107.073
1105.461
1112.06
1110.947
1109.792
1108.567
1107.2
1113.248
1112.17
1111.058
1109.9
1108.666
1114.336
1113.29
1112.212
1111.1
1109.941
1115.327
1114.313
1113.266
1112.188
1111.075
1116.226
1115.242
1114.226
1113.178
1112.098
1117.033
1116.081
1115.095
1114.076
1113.026
1117.755
1116.835
1115.88
1114.891
1113.87
1118.408
1117.52
1116.597
1115.64
1114.648
1119.03
1118.176
1117.286
1116.361
1115.4
1119.677
1118.857
1118.002
1117.11
1116.183
1120.35
1119.565
1118.744
1117.887
1116.995
1121.032
1120.282
1119.497
1118.675
1117.817
1121.71
1120.995
1120.245
1119.458
1118.636
1103.711
1102.273
1105.064
1103.697
1102.152
1106.391
1105.102
1103.666
1101.871
1107.732
1106.495
1105.168
1103.605
1101.352
1109.11
1107.916
1106.659
1105.265
1103.491
1110.513
1109.359
1108.158
1106.869
1105.375
1111.861
1110.746
1109.592
1108.38
1107.051
1113.117
1112.037
1110.923
1109.768
1108.543
1114.271
1113.225
1112.146
1111.033
1109.875
1115.327
1114.313
1113.266
1112.188
1111.075
1116.288
1115.305
1114.29
1113.243
1112.164
1117.155
1116.204
1115.22
1114.203
1113.155
1117.931
1117.013
1116.06
1115.074
1114.054
1118.622
1117.736
1116.815
1115.86
1114.871
1119.243
1118.391
1117.503
1116.579
1115.621
1119.833
1119.014
1118.16
1117.27
1116.344
1120.447
1119.663
1118.843
1117.987
1117.095
1121.086
1120.337
1119.551
1118.73
1117.873
1121.733
1121.019
1120.269
1119.483
1118.661
1122.376
1121.696
1120.982
1120.231
1119.445
1105.044
1103.709
1102.274
1106.326
1105.06
1103.695
1102.153
1107.608
1106.383
1105.097
1103.664
1101.873
1108.911
1107.722
1106.486
1105.161
1103.601
1110.249
1109.095
1107.902
1106.647
1105.255
1111.612
1110.494
1109.341
1108.14
1106.851
1112.922
1111.839
1110.724
1109.57
1108.358
1114.143
1113.094
1112.013
1110.9
1109.744
1115.264
1114.249
1113.201
1112.122
1111.008
1116.288
1115.305
1114.29
1113.243
1112.164
1117.216
1116.266
1115.283
1114.267
1113.219
1118.051
1117.134
1116.183
1115.198
1114.181
1118.795
1117.911
1116.992
1116.039
1115.052
1119.454
1118.603
1117.717
1116.796
1115.84
1120.043
1119.226
1118.373
1117.485
1116.561
1120.601
1119.817
1118.999
1118.144
1117.254
1121.182
1120.433
1119.648
1118.828
1117.972
1121.787
1121.073
1120.323
1119.537
1118.716
1122.4
1121.72
1121.005
1120.255
1119.469
1123.008
1122.363
1121.683
1120.968
1120.217
1106.297
1105.04
1103.707
1102.276
1107.538
1106.319
1105.055
1103.693
1102.155
1108.786
1107.598
1106.375
1105.091
1103.661
1110.055
1108.899
1107.711
1106.477
1105.154
1111.356
1110.234
1109.081
1107.888
1106.634
1112.68
1111.593
1110.475
1109.322
1108.121
1113.953
1112.901
1111.818
1110.702
1109.548
1115.138
1114.121
1113.071
1111.99
1110.876
1116.226
1115.242
1114.226
1113.178
1112.098
1117.216
1116.266
1115.283
1114.267
1113.219
1118.111
1117.195
1116.244
1115.26
1114.244
1118.914
1118.031
1117.113
1116.161
1115.176
1119.625
1118.776
1117.891
1116.972
1116.018
1120.252
1119.436
1118.585
1117.698
1116.777
1120.809
1120.027
1119.209
1118.356
1117.467
1121.334
1120.586
1119.802
1118.983
1118.128
1121.881
1121.168
1120.419
1119.634
1118.813
1122.452
1121.773
1121.059
1120.309
1119.523
1123.031
1122.387
1121.707
1120.992
1120.241
1123.605
1122.995
1122.35
1121.67
1120.955
1107.506
1106.29
1105.035
1103.705
1102.277
1108.715
1107.529
1106.312
1105.05
1103.691
1109.933
1108.775
1107.589
1106.367
1105.085
1111.168
1110.042
1108.887
1107.699
1106.467
1112.432
1111.341
1110.219
1109.066
1107.874
1113.717
1112.661
1111.574
1110.455
1109.303
1114.953
1113.932
1112.88
1111.796
1110.68
1116.102
1115.117
1114.098
1113.049
1111.967
1117.155
1116.204
1115.22
1114.203
1113.155
1118.111
1117.195
1116.244
1115.26
1114.244
1118.973
1118.091
1117.174
1116.223
1115.238
1119.742
1118.894
1118.01
1117.092
1116.14
1120.421
1119.606
1118.756
1117.872
1116.952
1121.015
1120.234
1119.418
1118.566
1117.679
1121.539
1120.792
1120.01
1119.192
1118.338
1122.032
1121.319
1120.571
1119.787
1118.967
1122.546
1121.868
1121.154
1120.404
1119.619
1123.083
1122.439
1121.76
1121.045
1120.295
1123.628
1123.018
1122.374
1121.694
1120.978
1124.168
1123.592
1122.982
1122.337
1121.657
1108.684
1107.497
1106.283
1105.031
1103.703
1109.864
1108.705
1107.52
1106.304
1105.044
1111.049
1109.921
1108.764
1107.579
1106.359
1112.249
1111.154
1110.029
1108.874
1107.688
1113.476
1112.416
1111.325
1110.203
1109.051
1114.722
1113.698
1112.642
1111.555
1110.436
1115.92
1114.932
1113.911
1112.858
1111.774
1117.033
1116.081
1115.095
1114.076
1113.026
1118.051
1117.134
1116.183
1115.198
1114.181
1118.973
1118.091
1117.174
1116.223
1115.238
1119.801
1118.953
1118.07
1117.153
1116.201
1120.537
1119.723
1118.874
1117.99
1117.072
1121.182
1120.402
1119.587
1118.737
1117.852
1121.743
1120.997
1120.216
1119.399
1118.547
1122.235
1121.523
1120.776
1119.993
1119.175
1122.695
1122.017
1121.304
1120.555
1119.771
1123.176
1122.533
1121.854
1121.14
1120.39
1123.68
1123.07
1122.426
1121.746
1121.031
1124.191
1123.615
1123.005
1122.36
1121.68
1124.696
1124.155
1123.58
1122.969
1122.324
1109.833
1108.674
1107.489
1106.276
1105.026
1110.982
1109.852
1108.694
1107.51
1106.297
1112.134
1111.036
1109.908
1108.753
1107.569
1113.298
1112.235
1111.14
1110.015
1108.862
1114.488
1113.46
1112.4
1111.309
1110.188
1115.695
1114.704
1113.679
1112.623
1111.535
1116.855
1115.9
1114.912
1113.89
1112.837
1117.931
1117.013
1116.06
1115.074
1114.054
1118.914
1118.031
1117.113
1116.161
1115.176
1119.801
1118.953
1118.07
1117.153
1116.201
1120.595
1119.782
1118.933
1118.05
1117.132
1121.297
1120.518
1119.704
1118.854
1117.97
1121.909
1121.164
1120.384
1119.569
1118.718
1122.437
1121.726
1120.98
1120.198
1119.381
1122.897
1122.22
1121.507
1120.76
1119.977
1123.324
1122.681
1122.003
1121.289
1120.54
1123.772
1123.163
1122.519
1121.84
1121.125
1124.242
1123.667
1123.057
1122.413
1121.733
1124.719
1124.178
1123.603
1122.993
1122.347
1125.191
1124.684
1124.143
1123.567
1122.957
1110.952
1109.821
1108.663
1107.479
1106.269
1112.069
1110.969
1109.84
1108.684
1107.501
1113.186
1112.12
1111.023
1109.896
1108.741
1114.314
1113.284
1112.22
1111.126
1110.002
1115.465
1114.471
1113.444
1112.384
1111.293
1116.633
1115.676
1114.685
1113.661
1112.604
1117.755
1116.835
1115.88
1114.891
1113.87
1118.795
1117.911
1116.992
1116.039
1115.052
1119.742
1118.894
1118.01
1117.092
1116.14
1120.595
1119.782
1118.933
1118.05
1117.132
1121.354
1120.576
1119.762
1118.913
1118.03
1122.023
1121.278
1120.499
1119.684
1118.835
1122.602
1121.891
1121.146
1120.366
1119.55
1123.097
1122.42
1121.709
1120.962
1120.181
1123.524
1122.881
1122.204
1121.491
1120.743
1123.919
1123.31
1122.666
1121.988
1121.274
1124.334
1123.759
1123.15
1122.505
1121.826
1124.77
1124.23
1123.654
1123.044
1122.399
1125.213
1124.707
1124.166
1123.59
1122.98
1125.651
1125.179
1124.672
1124.131
1123.555
1112.04
1110.94
1109.81
1108.653
1107.47
1113.123
1112.056
1110.957
1109.828
1108.673
1114.205
1113.172
1112.107
1111.01
1109.884
1115.296
1114.3
1113.269
1112.206
1111.112
1116.409
1115.449
1114.455
1113.427
1112.367
1117.538
1116.615
1115.658
1114.667
1113.642
1118.622
1117.736
1116.815
1115.86
1114.871
1119.625
1118.776
1117.891
1116.972
1116.018
1120.537
1119.723
1118.874
1117.99
1117.072
1121.354
1120.576
1119.762
1118.913
1118.03
1122.08
1121.336
1120.557
1119.743
1118.894
1122.714
1122.005
1121.26
1120.48
1119.665
1123.26
1122.584
1121.874
1121.128
1120.347
1123.723
1123.081
1122.404
1121.692
1120.945
1124.117
1123.509
1122.866
1122.188
1121.475
1124.479
1123.905
1123.296
1122.652
1121.973
1124.861
1124.321
1123.746
1123.136
1122.492
1125.264
1124.758
1124.217
1123.642
1123.031
1125.674
1125.201
1124.695
1124.153
1123.578
1126.078
1125.64
1125.167
1124.66
1124.118
1113.095
1112.027
1110.927
1109.798
1108.642
1114.144
1113.11
1112.043
1110.944
1109.816
1115.189
1114.191
1113.159
1112.093
1110.997
1116.243
1115.281
1114.285
1113.254
1112.191
1117.318
1116.393
1115.433
1114.439
1113.411
1118.408
1117.52
1116.597
1115.64
1114.648
1119.454
1118.603
1117.717
1116.796
1115.84
1120.421
1119.606
1118.756
1117.872
1116.952
1121.297
1120.518
1119.704
1118.854
1117.97
1122.08
1121.336
1120.557
1119.743
1118.894
1122.771
1122.062
1121.317
1120.538
1119.724
1123.372
1122.697
1121.987
1121.242
1120.462
1123.885
1123.243
1122.567
1121.856
1121.11
1124.314
1123.707
1123.064
1122.387
1121.675
1124.676
1124.102
1123.494
1122.851
1122.172
1125.005
1124.466
1123.891
1123.282
1122.638
1125.355
1124.848
1124.308
1123.733
1123.123
1125.724
1125.252
1124.746
1124.204
1123.629
1126.101
1125.662
1125.189
1124.682
1124.141
1126.472
1126.067
1125.628
1125.155
1124.648
1114.116
1113.082
1112.014
1110.915
1109.786
1115.129
1114.13
1113.096
1112.029
1110.931
1116.139
1115.175
1114.177
1113.144
1112.079
1117.155
1116.228
1115.266
1114.27
1113.239
1118.191
1117.302
1116.377
1115.417
1114.422
1119.243
1118.391
1117.503
1116.579
1115.621
1120.252
1119.436
1118.585
1117.698
1116.777
1121.182
1120.402
1119.587
1118.737
1117.852
1122.023
1121.278
1120.499
1119.684
1118.835
1122.771
1122.062
1121.317
1120.538
1119.724
1123.429
1122.753
1122.044
1121.299
1120.519
1123.996
1123.355
1122.679
1121.969
1121.224
1124.475
1123.868
1123.227
1122.55
1121.839
1124.872
1124.299
1123.691
1123.048
1122.371
1125.201
1124.662
1124.088
1123.479
1122.835
1125.498
1124.992
1124.452
1123.877
1123.268
1125.814
1125.342
1124.836
1124.295
1123.72
1126.151
1125.713
1125.24
1124.733
1124.192
1126.494
1126.089
1125.65
1125.177
1124.67
1126.832
1126.461
1126.056
1125.616
1125.143
1115.102
1114.102
1113.068
1112.001
1110.902
1116.08
1115.115
1114.116
1113.082
1112.016
1117.052
1116.124
1115.161
1114.162
1113.13
1118.031
1117.14
1116.213
1115.251
1114.254
1119.03
1118.176
1117.286
1116.361
1115.4
1120.043
1119.226
1118.373
1117.485
1116.561
1121.015
1120.234
1119.418
1118.566
1117.679
1121.909
1121.164
1120.384
1119.569
1118.718
1122.714
1122.005
1121.26
1120.48
1119.665
1123.429
1122.753
1122.044
1121.299
1120.519
1124.052
1123.411
1122.736
1122.026
1121.281
1124.586
1123.979
1123.338
1122.662
1121.951
1125.032
1124.459
1123.852
1123.21
1122.533
1125.396
1124.857
1124.283
1123.675
1123.032
1125.693
1125.187
1124.647
1124.073
1123.464
1125.957
1125.485
1124.979
1124.439
1123.863
1126.241
1125.802
1125.33
1124.823
1124.282
1126.544
1126.14
1125.701
1125.228
1124.721
1126.854
1126.483
1126.078
1125.639
1125.166
1127.159
1126.821
1126.45
1126.044
1125.605
1116.053
1115.089
1114.089
1113.055
1111.988
1116.994
1116.066
1115.101
1114.102
1113.069
1117.93
1117.038
1116.11
1115.146
1114.148
1118.872
1118.017
1117.125
1116.198
1115.236
1119.833
1119.014
1118.16
1117.27
1116.344
1120.809
1120.027
1119.209
1118.356
1117.467
1121.743
1120.997
1120.216
1119.399
1118.547
1122.602
1121.891
1121.146
1120.366
1119.55
1123.372
1122.697
1121.987
1121.242
1120.462
1124.052
1123.411
1122.736
1122.026
1121.281
1124.642
1124.035
1123.394
1122.718
1122.008
1125.142
1124.57
1123.963
1123.321
1122.645
1125.556
1125.017
1124.443
1123.836
1123.193
1125.887
1125.381
1124.842
1124.268
1123.659
1126.151
1125.679
1125.173
1124.633
1124.058
1126.383
1125.944
1125.472
1124.966
1124.425
1126.633
1126.229
1125.79
1125.317
1124.81
1126.904
1126.533
1126.128
1125.689
1125.216
1127.181
1126.843
1126.472
1126.066
1125.627
1127.453
1127.148
1126.81
1126.438
1126.033
1116.969
1116.039
1115.075
1114.075
1113.041
1117.873
1116.98
1116.051
1115.087
1114.088
1118.773
1117.916
1117.024
1116.095
1115.132
1119.677
1118.857
1118.002
1117.11
1116.183
1120.601
1119.817
1118.999
1118.144
1117.254
1121.539
1120.792
1120.01
1119.192
1118.338
1122.437
1121.726
1120.98
1120.198
1119.381
1123.26
1122.584
1121.874
1121.128
1120.347
1123.996
1123.355
1122.679
1121.969
1121.224
1124.642
1124.035
1123.394
1122.718
1122.008
1125.198
1124.625
1124.018
1123.377
1122.701
1125.665
1125.126
1124.553
1123.946
1123.304
1126.045
1125.54
1125.001
1124.427
1123.819
1126.344
1125.872
1125.366
1124.826
1124.252
1126.576
1126.137
1125.665
1125.159
1124.618
1126.775
1126.37
1125.932
1125.459
1124.952
1126.993
1126.622
1126.217
1125.778
1125.305
1127.231
1126.893
1126.522
1126.116
1125.677
1127.475
1127.17
1126.832
1126.46
1126.055
1127.713
1127.442
1127.137
1126.799
1126.427
1117.848
1116.955
1116.025
1115.061
1114.061
1118.717
1117.859
1116.966
1116.037
1115.073
1119.579
1118.759
1117.902
1117.009
1116.081
1120.447
1119.663
1118.843
1117.987
1117.095
1121.334
1120.586
1119.802
1118.983
1118.128
1122.235
1121.523
1120.776
1119.993
1119.175
1123.097
1122.42
1121.709
1120.962
1120.181
1123.885
1123.243
1122.567
1121.856
1121.11
1124.586
1123.979
1123.338
1122.662
1121.951
1125.198
1124.625
1124.018
1123.377
1122.701
1125.721
1125.182
1124.609
1124.002
1123.36
1126.155
1125.65
1125.111
1124.537
1123.93
1126.502
1126.03
1125.525
1124.985
1124.411
1126.768
1126.329
1125.857
1125.351
1124.811
1126.967
1126.562
1126.124
1125.651
1125.145
1127.134
1126.763
1126.358
1125.919
1125.446
1127.319
1126.981
1126.61
1126.205
1125.766
1127.524
1127.22
1126.882
1126.51
1126.104
1127.735
1127.464
1127.159
1126.821
1126.449
1127.941
1127.703
1127.431
1127.126
1126.788
1118.692
1117.834
1116.941
1116.011
1115.047
1119.524
1118.703
1117.845
1116.952
1116.023
1120.35
1119.565
1118.744
1117.887
1116.995
1121.182
1120.433
1119.648
1118.828
1117.972
1122.032
1121.319
1120.571
1119.787
1118.967
1122.897
1122.22
1121.507
1120.76
1119.977
1123.723
1123.081
1122.404
1121.692
1120.945
1124.475
1123.868
1123.227
1122.55
1121.839
1125.142
1124.57
1123.963
1123.321
1122.645
1125.721
1125.182
1124.609
1124.002
1123.36
1126.21
1125.705
1125.166
1124.593
1123.985
1126.611
1126.139
1125.634
1125.095
1124.521
1126.925
1126.487
1126.015
1125.509
1124.97
1127.158
1126.754
1126.315
1125.843
1125.337
1127.325
1126.954
1126.549
1126.11
1125.637
1127.459
1127.122
1126.75
1126.345
1125.906
1127.612
1127.308
1126.97
1126.598
1126.193
1127.785
1127.513
1127.209
1126.87
1126.499
1127.963
1127.725
1127.453
1127.148
1126.81
1128.136
1127.931
1127.692
1127.421
1127.116
1119.499
1118.678
1117.82
1116.927
1115.997
1120.296
1119.51
1118.689
1117.831
1116.938
1121.086
1120.337
1119.551
1118.73
1117.873
1121.881
1121.168
1120.419
1119.634
1118.813
1122.695
1122.017
1121.304
1120.555
1119.771
1123.524
1122.881
1122.204
1121.491
1120.743
1124.314
1123.707
1123.064
1122.387
1121.675
1125.032
1124.459
1123.852
1123.21
1122.533
1125.665
1125.126
1124.553
1123.946
1123.304
1126.21
1125.705
1125.166
1124.593
1123.985
1126.666
1126.194
1125.689
1125.15
1124.577
1127.034
1126.596
1126.124
1125.618
1125.079
1127.315
1126.911
1126.472
1126
1125.494
1127.516
1127.145
1126.74
1126.301
1125.828
1127.65
1127.312
1126.941
1126.535
1126.096
1127.752
1127.448
1127.11
1126.738
1126.333
1127.872
1127.601
1127.296
1126.958
1126.586
1128.012
1127.774
1127.502
1127.198
1126.859
1128.157
1127.952
1127.714
1127.442
1127.137
1128.297
1128.125
1127.92
1127.682
1127.41
1120.272
1119.486
1118.664
1117.806
1116.913
1121.032
1120.282
1119.497
1118.675
1117.817
1121.787
1121.073
1120.323
1119.537
1118.716
1122.546
1121.868
1121.154
1120.404
1119.619
1123.324
1122.681
1122.003
1121.289
1120.54
1124.117
1123.509
1122.866
1122.188
1121.475
1124.872
1124.299
1123.691
1123.048
1122.371
1125.556
1125.017
1124.443
1123.836
1123.193
1126.155
1125.65
1125.111
1124.537
1123.93
1126.666
1126.194
1125.689
1125.15
1124.577
1127.088
1126.65
1126.179
1125.673
1125.134
1127.423
1127.019
1126.581
1126.109
1125.603
1127.672
1127.301
1126.896
1126.458
1125.985
1127.84
1127.502
1127.131
1126.725
1126.287
1127.942
1127.637
1127.299
1126.927
1126.522
1128.012
1127.74
1127.436
1127.097
1126.726
1128.099
1127.861
1127.59
1127.285
1126.947
1128.206
1128.001
1127.763
1127.492
1127.186
1128.319
1128.147
1127.942
1127.704
1127.432
1128.426
1128.287
1128.115
1127.91
1127.671
1121.008
1120.258
1119.472
1118.65
1117.792
1121.733
1121.019
1120.269
1119.483
1118.661
1122.452
1121.773
1121.059
1120.309
1119.523
1123.176
1122.533
1121.854
1121.14
1120.39
1123.919
1123.31
1122.666
1121.988
1121.274
1124.676
1124.102
1123.494
1122.851
1122.172
1125.396
1124.857
1124.283
1123.675
1123.032
1126.045
1125.54
1125.001
1124.427
1123.819
1126.611
1126.139
1125.634
1125.095
1124.521
1127.088
1126.65
1126.179
1125.673
1125.134
1127.478
1127.073
1126.635
1126.163
1125.658
1127.78
1127.409
1127.004
1126.566
1126.094
1127.997
1127.658
1127.287
1126.882
1126.443
1128.132
1127.827
1127.489
1127.117
1126.712
1128.202
1127.93
1127.625
1127.286
1126.914
1128.239
1128
1127.729
1127.424
1127.085
1128.294
1128.089
1127.85
1127.579
1127.274
1128.368
1128.196
1127.991
1127.753
1127.481
1128.448
1128.309
1128.137
1127.932
1127.693
1128.521
1128.416
1128.277
1128.105
1127.9
1121.71
1120.995
1120.245
1119.458
1118.636
1122.4
1121.72
1121.005
1120.255
1119.469
1123.083
1122.439
1121.76
1121.045
1120.295
1123.772
1123.163
1122.519
1121.84
1121.125
1124.479
1123.905
1123.296
1122.652
1121.973
1125.201
1124.662
1124.088
1123.479
1122.835
1125.887
1125.381
1124.842
1124.268
1123.659
1126.502
1126.03
1125.525
1124.985
1124.411
1127.034
1126.596
1126.124
1125.618
1125.079
1127.478
1127.073
1126.635
1126.163
1125.658
1127.835
1127.463
1127.059
1126.62
1126.148
1128.104
1127.766
1127.395
1126.99
1126.551
1128.288
1127.983
1127.644
1127.273
1126.867
1128.391
1128.119
1127.814
1127.475
1127.103
1128.428
1128.189
1127.917
1127.612
1127.273
1128.433
1128.227
1127.989
1127.717
1127.412
1128.455
1128.283
1128.078
1127.839
1127.567
1128.496
1128.358
1128.186
1127.98
1127.742
1128.542
1128.438
1128.299
1128.127
1127.921
1128.584
1128.511
1128.406
1128.267
1128.095
1122.376
1121.696
1120.982
1120.231
1119.445
1123.031
1122.387
1121.707
1120.992
1120.241
1123.68
1123.07
1122.426
1121.746
1121.031
1124.334
1123.759
1123.15
1122.505
1121.826
1125.005
1124.466
1123.891
1123.282
1122.638
1125.693
1125.187
1124.647
1124.073
1123.464
1126.344
1125.872
1125.366
1124.826
1124.252
1126.925
1126.487
1126.015
1125.509
1124.97
1127.423
1127.019
1126.581
1126.109
1125.603
1127.835
1127.463
1127.059
1126.62
1126.148
1128.159
1127.82
1127.449
1127.044
1126.605
1128.395
1128.09
1127.752
1127.38
1126.975
1128.547
1128.274
1127.969
1127.63
1127.259
1128.617
1128.378
1128.106
1127.8
1127.462
1128.622
1128.416
1128.177
1127.905
1127.599
1128.593
1128.422
1128.216
1127.977
1127.705
1128.583
1128.444
1128.273
1128.067
1127.828
1128.591
1128.486
1128.347
1128.175
1127.97
1128.605
1128.533
1128.428
1128.289
1128.117
1128.612
1128.574
1128.501
1128.396
1128.257
1123.008
1122.363
1121.683
1120.968
1120.217
1123.628
1123.018
1122.374
1121.694
1120.978
1124.242
1123.667
1123.057
1122.413
1121.733
1124.861
1124.321
1123.746
1123.136
1122.492
1125.498
1124.992
1124.452
1123.877
1123.268
1126.151
1125.679
1125.173
1124.633
1124.058
1126.768
1126.329
1125.857
1125.351
1124.811
1127.315
1126.911
1126.472
1126
1125.494
1127.78
1127.409
1127.004
1126.566
1126.094
1128.159
1127.82
1127.449
1127.044
1126.605
1128.45
1128.145
1127.806
1127.435
1127.029
1128.654
1128.382
1128.076
1127.738
1127.366
1128.772
1128.533
1128.261
1127.955
1127.617
1128.81
1128.604
1128.365
1128.093
1127.787
1128.782
1128.61
1128.404
1128.165
1127.892
1128.722
1128.583
1128.41
1128.205
1127.966
1128.678
1128.573
1128.434
1128.262
1128.056
1128.654
1128.581
1128.476
1128.337
1128.165
1128.634
1128.596
1128.523
1128.418
1128.279
1128.603
1128.564
1128.492
1128.386
1123.605
1122.995
1122.35
1121.67
1120.955
1124.191
1123.615
1123.005
1122.36
1121.68
1124.77
1124.23
1123.654
1123.044
1122.399
1125.355
1124.848
1124.308
1123.733
1123.123
1125.957
1125.485
1124.979
1124.439
1123.863
1126.576
1126.137
1125.665
1125.159
1124.618
1127.158
1126.754
1126.315
1125.843
1125.337
1127.672
1127.301
1126.896
1126.458
1125.985
1128.104
1127.766
1127.395
1126.99
1126.551
1128.45
1128.145
1127.806
1127.435
1127.029
1128.708
1128.436
1128.131
1127.792
1127.42
1128.88
1128.64
1128.368
1128.063
1127.724
1128.966
1128.759
1128.52
1128.247
1127.942
1128.97
1128.798
1128.591
1128.352
1128.08
1128.91
1128.77
1128.598
1128.392
1128.152
1128.816
1128.711
1128.572
1128.399
1128.193
1128.741
1128.668
1128.563
1128.424
1128.251
1128.683
1128.644
1128.571
1128.466
1128.327
1128.624
1128.586
1128.513
1128.408
1128.593
1128.555
1128.482
1124.168
1123.592
1122.982
1122.337
1121.657
1124.719
1124.178
1123.603
1122.993
1122.347
1125.264
1124.758
1124.217
1123.642
1123.031
1125.814
1125.342
1124.836
1124.295
1123.72
1126.383
1125.944
1125.472
1124.966
1124.425
1126.967
1126.562
1126.124
1125.651
1125.145
1127.516
1127.145
1126.74
1126.301
1125.828
1127.997
1127.658
1127.287
1126.882
1126.443
1128.395
1128.09
1127.752
1127.38
1126.975
1128.708
1128.436
1128.131
1127.792
1127.42
1128.934
1128.695
1128.422
1128.117
1127.778
1129.073
1128.866
1128.627
1128.354
1128.049
1129.126
1128.953
1128.746
1128.507
1128.234
1129.099
1128.958
1128.785
1128.579
1128.34
1129.004
1128.899
1128.758
1128.586
1128.38
1128.879
1128.805
1128.7
1128.561
1128.388
1128.77
1128.731
1128.658
1128.553
1128.413
1128.673
1128.634
1128.561
1128.456
1128.615
1128.576
1128.503
1128.584
1128.545
1124.696
1124.155
1123.58
1122.969
1122.324
1125.213
1124.707
1124.166
1123.59
1122.98
1125.724
1125.252
1124.746
1124.204
1123.629
1126.241
1125.802
1125.33
1124.823
1124.282
1126.775
1126.37
1125.932
1125.459
1124.952
1127.325
1126.954
1126.549
1126.11
1125.637
1127.84
1127.502
1127.131
1126.725
1126.287
1128.288
1127.983
1127.644
1127.273
1126.867
1128.654
1128.382
1128.076
1127.738
1127.366
1128.934
1128.695
1128.422
1128.117
1127.778
1129.127
1128.92
1128.681
1128.408
1128.103
1129.233
1129.06
1128.853
1128.614
1128.341
1129.254
1129.113
1128.94
1128.733
1128.494
1129.192
1129.086
1128.946
1128.773
1128.566
1129.066
1128.992
1128.887
1128.747
1128.574
1128.909
1128.868
1128.795
1128.69
1128.55
1128.76
1128.721
1128.647
1128.542
1128.663
1128.625
1128.552
1128.605
1128.567
1128.574
1125.191
1124.684
1124.143
1123.567
1122.957
1125.674
1125.201
1124.695
1124.153
1123.578
1126.151
1125.713
1125.24
1124.733
1124.192
1126.633
1126.229
1125.79
1125.317
1124.81
1127.134
1126.763
1126.358
1125.919
1125.446
1127.65
1127.312
1126.941
1126.535
1126.096
1128.132
1127.827
1127.489
1127.117
1126.712
1128.547
1128.274
1127.969
1127.63
1127.259
1128.88
1128.64
1128.368
1128.063
1127.724