/*--------------------------------*- C++ -*----------------------------------*\
| =========                 |                                                 |
| \\      /  F ield         | OpenFOAM: The Open Source CFD Toolbox           |
|  \\    /   O peration     | Version:  2306                                  |
|   \\  /    A nd           | Website:  www.openfoam.com                      |
|    \\/     M anipulation  |                                                 |
\*---------------------------------------------------------------------------*/
FoamFile
{
    version     2.0;
    format      ascii;
    arch        "LSB;label=32;scalar=64";
    class       volScalarField;
    location    "1.2/fuel";
    object      H2;
}
// * * * * * * * * * * * * * * * * * * * * * * * * * * * * * * * * * * * * * //

dimensions      [0 0 0 0 0 0 0];

internalField   nonuniform List<scalar> 
16000
(
0.6198419
0.6246855
0.5538203
0.6201215
0.6345296
0.556999
0.6249714
0.4925775
0.554033
0.6206682
0.6494776
0.5634193
0.6348286
0.49495
0.557215
0.6255302
0.4426629
0.4927398
0.5544492
0.6214738
0.6689867
0.5730753
0.6497984
0.4997313
0.5636424
0.6354131
0.4445365
0.4951144
0.5576379
0.6263535
0.4018902
0.4427908
0.4930578
0.555063
0.6225343
0.6901921
0.5855287
0.6693407
0.5068987
0.5733098
0.6504255
0.4483051
0.4999002
0.564079
0.6362743
0.4034153
0.4446658
0.4954366
0.5582613
0.6274374
0.3680439
0.4019937
0.4430414
0.493527
0.5558712
0.6235861
0.7064805
0.5989213
0.6905889
0.5161019
0.58578
0.6700324
0.4539383
0.5070747
0.5737686
0.6513492
0.406478
0.4484374
0.500231
0.5647227
0.6374079
0.3693121
0.4035198
0.4449193
0.4959118
0.5590822
0.6285123
0.3394939
0.3681295
0.4021967
0.4434114
0.4941449
0.5566726
0.6244582
0.7170147
0.6092199
0.7069043
0.5259502
0.5991938
0.6913647
0.4611441
0.5162885
0.5862718
0.6710514
0.4110455
0.4540755
0.5074195
0.5744451
0.6525653
0.3718558
0.4065847
0.4486969
0.500719
0.5655703
0.6385322
0.3405665
0.3693985
0.4037249
0.4452935
0.4965378
0.5598963
0.6294037
0.3150752
0.339566
0.3682976
0.4024965
0.4438988
0.4947577
0.5573368
0.6253256
0.723073
0.6159468
0.7174534
0.5334948
0.6095043
0.7077325
0.4688223
0.5261501
0.5997273
0.6925082
0.4168701
0.4612885
0.5166539
0.5869968
0.6723933
0.3756422
0.4111557
0.4543445
0.507928
0.5753357
0.6537714
0.3427157
0.3719439
0.406794
0.4490797
0.5013617
0.5664108
0.639465
0.3159951
0.3406392
0.3695681
0.4040277
0.4457864
0.4971585
0.560571
0.6302903
0.2939401
0.3151368
0.3397075
0.3685458
0.4028916
0.4443822
0.4952653
0.5579972
0.6261882
0.7258142
0.6198687
0.7235197
0.5384163
0.6162371
0.7183104
0.4746849
0.5337014
0.610061
0.708953
0.4230557
0.468976
0.5265417
0.6005142
0.6940148
0.3804589
0.4169857
0.4615717
0.5171929
0.5879517
0.6737247
0.3459099
0.3757329
0.4113719
0.4547414
0.5085977
0.576219
0.654774
0.3178366
0.3427896
0.3721166
0.4071032
0.4495842
0.501999
0.5671077
0.6403933
0.2947382
0.3160571
0.3407819
0.3698186
0.4044268
0.4462753
0.4976728
0.5612418
0.6311722
0.2754593
0.2939933
0.3152577
0.3399167
0.3688731
0.4032835
0.4447826
0.4957699
0.5586537
0.6270461
0.7258142
0.6216635
0.7262646
0.5412868
0.6201619
0.7243923
0.4785027
0.5386259
0.616805
0.7195732
0.427766
0.474843
0.5341063
0.610882
0.7105612
0.38556
0.423178
0.4692774
0.5271198
0.601551
0.6955107
0.349965
0.3805535
0.4172123
0.4619898
0.5179031
0.5888988
0.6748372
0.32057
0.3459858
0.3759108
0.4116912
0.4552644
0.5092619
0.5769526
0.6557738
0.2963348
0.3178996
0.3429348
0.3723718
0.4075105
0.4500844
0.5025273
0.5678009
0.6413172
0.2761587
0.2947918
0.316179
0.3409928
0.3701488
0.4048226
0.4466802
0.498184
0.5619088
0.6320493
0.2591561
0.2755058
0.2940979
0.3154365
0.3401926
0.3691977
0.403608
0.4451805
0.4962713
0.5593063
0.6311958
0.723073
0.6216635
0.7262646
0.5426016
0.6219579
0.7271441
0.4807282
0.5414977
0.6207355
0.7256778
0.4308288
0.4786624
0.5390364
0.6176426
0.7212366
0.3894358
0.4278912
0.4751529
0.5347039
0.6119636
0.712158
0.3542501
0.3856598
0.423418
0.4697226
0.5278816
0.6025799
0.6967722
0.3240345
0.3500441
0.3807393
0.417547
0.4625406
0.5186074
0.5896888
0.6759524
0.2987022
0.3206347
0.346135
0.3761737
0.412112
0.455783
0.5098133
0.5776833
0.6567705
0.277557
0.2963892
0.3180234
0.3431494
0.3727083
0.4079146
0.450499
0.5030526
0.5684904
0.6422365
0.2597743
0.2762055
0.2948971
0.3163592
0.341271
0.3704764
0.4051504
0.4470826
0.498692
0.5625719
0.6362921
0.2446624
0.259197
0.2755972
0.2942526
0.3156724
0.3404662
0.3694665
0.4039304
0.4455757
0.4967696
0.562462
0.6340489
0.7170147
0.6198687
0.7235197
0.5426016
0.6219579
0.7271441
0.4817475
0.542813
0.622534
0.7284397
0.4326131
0.4808885
0.5419109
0.6215813
0.7273709
0.3919528
0.430955
0.4789755
0.5396423
0.6187459
0.7228883
0.3575
0.3895378
0.4281371
0.4756105
0.5354914
0.613037
0.713505
0.3276885
0.3543333
0.3858559
0.4237727
0.4703094
0.5286376
0.603445
0.6980484
0.3016985
0.3241016
0.3501995
0.3810139
0.4179881
0.463087
0.5191946
0.5904794
0.6770703
0.2796284
0.2987579
0.3207617
0.3463556
0.3765202
0.4125294
0.4562135
0.5103623
0.5784113
0.6577643
0.2610095
0.2776044
0.2964961
0.3182065
0.3434323
0.3730421
0.4082494
0.4509111
0.5035749
0.5691762
0.6466861
0.2452129
0.2598155
0.2762975
0.295053
0.3165969
0.341547
0.3707477
0.4054761
0.4474824
0.4991969
0.5657783
0.6392225
0.2316896
0.2446988
0.2592776
0.2757325
0.2944568
0.3159065
0.3406928
0.3697335
0.4042507
0.4459684
0.4991783
0.5646251
0.6362109
0.7064805
0.6159468
0.7174534
0.5412868
0.6201619
0.7243923
0.4817475
0.542813
0.622534
0.7284397
0.4334303
0.4819081
0.5432273
0.6233834
0.730146
0.3934182
0.4327397
0.4812029
0.5425205
0.6226954
0.7290519
0.3596081
0.3920554
0.4312028
0.4794378
0.5404407
0.6198407
0.7242789
0.3304556
0.3575848
0.3897381
0.4285003
0.4762137
0.5362728
0.6139398
0.714868
0.3048538
0.327759
0.3544968
0.3861458
0.4242403
0.4708917
0.5292728
0.6043176
0.6993395
0.2822469
0.3017562
0.3242336
0.3504292
0.381376
0.4184258
0.4635424
0.519782
0.5912704
0.6781907
0.262838
0.2796769
0.2988674
0.3209495
0.3466464
0.376864
0.4128757
0.456642
0.5109091
0.5791365
0.6625833
0.2463124
0.2610513
0.2776978
0.2966543
0.318448
0.343713
0.3733185
0.4085821
0.4513207
0.5040942
0.5724937
0.6498106
0.2321831
0.2452495
0.2598966
0.2764337
0.2952586
0.3168328
0.3417754
0.3710171
0.4057996
0.4478797
0.5016377
0.5679839
0.6414538
0.2200079
0.2317221
0.2447704
0.259397
0.275911
0.2946594
0.3161002
0.3409178
0.3699986
0.4045688
0.4478663
0.5008257
0.5662612
0.6376636
0.6901921
0.6092199
0.7069043
0.5384163
0.6162371
0.7183104
0.4807282
0.5414977
0.6207355
0.7256778
0.4334303
0.4819081
0.5432273
0.6233834
0.730146
0.3940891
0.4335569
0.482223
0.5438384
0.6245022
0.7318402
0.3608348
0.3935209
0.4329881
0.4816671
0.5433237
0.6238009
0.7304652
0.3322487
0.3596933
0.3922568
0.4315688
0.4800471
0.5412328
0.6207599
0.7256833
0.30724
0.3305272
0.3577514
0.3900341
0.4289792
0.4768123
0.5369296
0.6148507
0.7162471
0.2850006
0.3049143
0.3278975
0.3547386
0.3865282
0.4247044
0.4713808
0.5299132
0.6051979
0.7006458
0.2651469
0.2822971
0.3018698
0.3244288
0.3507321
0.3817352
0.4187905
0.4639978
0.5203694
0.5920619
0.6836529
0.2479388
0.2628806
0.2797724
0.2990294
0.3211972
0.3469349
0.3771492
0.4132204
0.4570686
0.5114535
0.58265
0.6661538
0.2331683
0.2463495
0.2611335
0.2778359
0.296863
0.3186876
0.3439455
0.3735933
0.4089127
0.4517279
0.5066055
0.5748066
0.6522341
0.2204529
0.2322158
0.2453216
0.2600167
0.2766135
0.2954627
0.317028
0.3420024
0.3712848
0.406121
0.4497996
0.5033128
0.5696587
0.6429598
0.2094323
0.2200372
0.2317862
0.2448765
0.2595545
0.2760882
0.2948271
0.3162926
0.3411413
0.370262
0.4061058
0.4491623
0.5020704
0.567359
0.6383935
0.6689867
0.5989213
0.6905889
0.5334948
0.6095043
0.7077325
0.4785027
0.5386259
0.616805
0.7195732
0.4326131
0.4808885
0.5419109
0.6215813
0.7273709
0.3940891
0.4335569
0.482223
0.5438384
0.6245022
0.7318402
0.3613963
0.3941919
0.4338055
0.4826878
0.5446436
0.6256124
0.7332635
0.3332915
0.36092
0.3937227
0.433355
0.4822787
0.5441206
0.6247279
0.7318904
0.3087851
0.3323206
0.3598606
0.3925546
0.4320513
0.4806516
0.5418975
0.6216858
0.7271017
0.2870808
0.3073014
0.3306681
0.3579977
0.3904246
0.4294545
0.4773153
0.537592
0.6157697
0.7176427
0.2675723
0.2850532
0.3050333
0.3281025
0.3550576
0.3869076
0.4250943
0.4718739
0.5305589
0.6060859
0.7070749
0.2499907
0.265191
0.282396
0.3020378
0.3246862
0.3510327
0.3820344
0.4191551
0.4644532
0.5209569
0.5959144
0.6883069
0.2346247
0.2479766
0.2629646
0.2799137
0.2992432
0.3214431
0.3471742
0.3774331
0.4135636
0.4574934
0.5140904
0.5852115
0.669101
0.2213409
0.2332014
0.2464224
0.2612551
0.2780181
0.2970701
0.3188861
0.3441766
0.3738663
0.4092414
0.4536966
0.5083516
0.5765896
0.6539
0.2098356
0.2204823
0.2322802
0.2454283
0.2601752
0.2767919
0.2956316
0.3172219
0.3422277
0.3715506
0.4076741
0.4511152
0.5045831
0.5707864
0.643719
0.1998117
0.2094588
0.2200949
0.2318811
0.2450165
0.2597109
0.2762349
0.2949936
0.3164837
0.3413632
0.3715343
0.4071542
0.4501406
0.5029049
0.5679101
0.6494776
0.5855287
0.6693407
0.5259502
0.5991938
0.6913647
0.4746849
0.5337014
0.610061
0.708953
0.4308288
0.4786624
0.5390364
0.6176426
0.7212366
0.3934182
0.4327397
0.4812029
0.5425205
0.6226954
0.7290519
0.3613963
0.3941919
0.4338055
0.4826878
0.5446436
0.6256124
0.7332635
0.3337688
0.3614815
0.3943937
0.4341728
0.4833004
0.5454425
0.6265427
0.7346979
0.3096833
0.3333635
0.3610874
0.3940208
0.4338387
0.4828856
0.5447884
0.6256604
0.7333277
0.2884268
0.3088466
0.3324619
0.360108
0.3929472
0.4325301
0.4811589
0.5425667
0.6226185
0.7285342
0.2694026
0.2871341
0.3074223
0.3308766
0.3583227
0.3908121
0.4298538
0.4778225
0.53826
0.616697
0.7245112
0.2521438
0.2676183
0.2851565
0.3052094
0.328373
0.3553742
0.3872264
0.4254871
0.4723709
0.53121
0.6104442
0.713912
0.2364607
0.2500297
0.2652778
0.2825422
0.3022596
0.3249417
0.3512831
0.3823336
0.4195196
0.4649085
0.5238154
0.5990858
0.6928211
0.2226529
0.2346585
0.2480511
0.2630889
0.2801001
0.2994553
0.3216469
0.3474123
0.3777156
0.4139051
0.45955
0.5160058
0.5872933
0.6712657
0.2106402
0.2213707
0.2332666
0.2465305
0.2614157
0.278199
0.2972416
0.3190833
0.3444061
0.3741376
0.41083
0.4550631
0.5096954
0.5778085
0.6547518
0.200179
0.2098622
0.2205403
0.2323757
0.2455691
0.2603326
0.2769395
0.2957994
0.3174145
0.3424516
0.372835
0.408737
0.452112
0.5054378
0.5713541
0.1910219
0.1998358
0.209511
0.2201803
0.2320065
0.2451555
0.2598403
0.2763805
0.295159
0.3166734
0.3424351
0.3724013
0.4079452
0.4507962
0.5033236
0.6345296
0.5730753
0.6497984
0.5161019
0.58578
0.6700324
0.4688223
0.5261501
0.5997273
0.6925082
0.427766
0.474843
0.5341063
0.610882
0.7105612
0.3919528
0.430955
0.4789755
0.5396423
0.6187459
0.7228883
0.3608348
0.3935209
0.4329881
0.4816671
0.5433237
0.6238009
0.7304652
0.3337688
0.3614815
0.3943937
0.4341728
0.4833004
0.5454425
0.6265427
0.7346979
0.3100942
0.3338407
0.3616489
0.394692
0.4346568
0.4839082
0.5461116
0.627478
0.7361433
0.2892089
0.3097448
0.3335048
0.361335
0.394414
0.4343186
0.4833941
0.54546
0.6265985
0.7347771
0.2705861
0.2884801
0.3089678
0.3326711
0.3604344
0.3933368
0.4329317
0.4816694
0.5432405
0.623558
0.7355708
0.2537673
0.2694492
0.2872389
0.3076011
0.3311517
0.3586453
0.3911376
0.4302564
0.4783339
0.5389336
0.6212484
0.7317177
0.2383855
0.2521846
0.267709
0.2853096
0.3054418
0.3286415
0.3556401
0.3875475
0.4258831
0.472872
0.5344037
0.6148408
0.7224863
0.2243057
0.2364955
0.2501066
0.2654064
0.2827353
0.3024796
0.3251546
0.3515334
0.3826327
0.4198841
0.4671233
0.5261563
0.6020675
0.6968439
0.2118285
0.2226832
0.234725
0.2481614
0.263253
0.2802851
0.2996312
0.3218498
0.3476493
0.3779968
0.4155587
0.4610412
0.5175585
0.5888005
0.6724416
0.2009115
0.2106671
0.2214293
0.2333632
0.2466731
0.2615752
0.2783488
0.297412
0.3192792
0.3446342
0.3754489
0.4119313
0.4561139
0.5106129
0.5784294
0.1913577
0.2002032
0.2099147
0.2206262
0.2325018
0.245709
0.2604628
0.2770862
0.2959659
0.3176057
0.3435329
0.3737132
0.4095419
0.4527822
0.5058677
0.1829592
0.1910438
0.1998832
0.2095883
0.2202932
0.232131
0.2452706
0.2599687
0.2765251
0.2953231
0.3175897
0.343165
0.3730551
0.4084749
0.451125
0.6246855
0.5634193
0.6348286
0.5068987
0.5733098
0.6504255
0.4611441
0.5162885
0.5862718
0.6710514
0.4230557
0.468976
0.5265417
0.6005142
0.6940148
0.3894358
0.4278912
0.4751529
0.5347039
0.6119636
0.712158
0.3596081
0.3920554
0.4312028
0.4794378
0.5404407
0.6198407
0.7242789
0.3332915
0.36092
0.3937227
0.433355
0.4822787
0.5441206
0.6247279
0.7318904
0.3100942
0.3338407
0.3616489
0.394692
0.4346568
0.4839082
0.5461116
0.627478
0.7361433
0.2895666
0.3101557
0.333982
0.3618964
0.3950852
0.4351371
0.4844171
0.546784
0.6284183
0.7376
0.2712736
0.2892622
0.3098658
0.3337139
0.3616615
0.3948041
0.4347206
0.4839053
0.5461353
0.6275422
0.7418866
0.2548165
0.2706328
0.2885851
0.309147
0.332947
0.3607583
0.3936636
0.4333359
0.4821833
0.5439189
0.6281611
0.74262
0.2398358
0.2538086
0.2695411
0.2873942
0.3078372
0.3314247
0.3589163
0.3914658
0.4306622
0.4788494
0.5422385
0.6257926
0.7404214
0.2260371
0.2384218
0.2522648
0.2678433
0.2855117
0.3056727
0.328867
0.355908
0.3878712
0.4262822
0.4753293
0.5376069
0.6201356
0.7335643
0.2133243
0.2243369
0.2365641
0.2502205
0.265576
0.2829269
0.3026629
0.3253673
0.3517836
0.3829317
0.4216566
0.4689339
0.5283486
0.6046506
0.6996208
0.2019928
0.2118558
0.222743
0.2348235
0.2483069
0.2634159
0.2804385
0.2998063
0.3220517
0.3478852
0.3793579
0.4167562
0.4622489
0.5186802
0.58961
0.1920274
0.2009359
0.2107202
0.2215162
0.2334908
0.2468147
0.2617072
0.2784976
0.2975813
0.3194738
0.3457365
0.3763571
0.4127777
0.4568308
0.5110798
0.1832675
0.1913798
0.2002509
0.2099924
0.2207397
0.2326269
0.2458248
0.2605921
0.2772317
0.2961313
0.3185295
0.3442716
0.3743779
0.4100829
0.4531192
0.175537
0.1829793
0.1910872
0.1999536
0.2096905
0.2204053
0.2322339
0.2453848
0.2600963
0.2766686
0.296116
0.3182133
0.3437153
0.3734929
0.4087406
0.6198419
0.556999
0.6249714
0.4997313
0.5636424
0.6354131
0.4539383
0.5070747
0.5737686
0.6513492
0.4168701
0.4612885
0.5166539
0.5869968
0.6723933
0.38556
0.423178
0.4692774
0.5271198
0.601551
0.6955107
0.3575
0.3895378
0.4281371
0.4756105
0.5354914
0.613037
0.713505
0.3322487
0.3596933
0.3922568
0.4315688
0.4800471
0.5412328
0.6207599
0.7256833
0.3096833
0.3333635
0.3610874
0.3940208
0.4338387
0.4828856
0.5447884
0.6256604
0.7333277
0.2895666
0.3101557
0.333982
0.3618964
0.3950852
0.4351371
0.4844171
0.546784
0.6284183
0.7376
0.271588
0.2896199
0.3102767
0.334191
0.3622229
0.3954755
0.4355392
0.4849284
0.5474597
0.6293636
0.7447402
0.2554258
0.2713202
0.2893671
0.310045
0.3339898
0.3619855
0.3951309
0.4351247
0.4844192
0.5468142
0.6321601
0.7487775
0.2407726
0.2548578
0.2707248
0.2887406
0.3093835
0.3332208
0.3610299
0.3939925
0.4337427
0.4827005
0.5472414
0.6325678
0.7507648
0.2273407
0.2398725
0.2538898
0.2696772
0.2875991
0.3080716
0.3316541
0.3591894
0.3917965
0.4310713
0.4813782
0.5455237
0.6310777
0.7507958
0.2148902
0.2260696
0.2384933
0.2523836
0.2680207
0.2857123
0.3058665
0.3290942
0.3561781
0.3881975
0.4282394
0.4777913
0.5414472
0.6267533
0.748641
0.2033532
0.2133525
0.2243985
0.2366657
0.2503709
0.2657445
0.2830865
0.3028461
0.32558
0.3520337
0.3843856
0.4231042
0.470628
0.5302412
0.6063916
0.1930156
0.2020176
0.2119098
0.2228316
0.2349536
0.2484515
0.263551
0.2805912
0.2999805
0.3222526
0.3490268
0.3803427
0.4177255
0.4631207
0.5192819
0.1838822
0.1920497
0.2009841
0.2107988
0.221631
0.2336174
0.246932
0.2618383
0.2786454
0.2977494
0.3204143
0.3464994
0.3770548
0.413355
0.4571955
0.1758211
0.1832878
0.1914233
0.2003216
0.2100952
0.2208524
0.2327305
0.2459397
0.2607205
0.2773763
0.2969302
0.3191602
0.3448306
0.3748245
0.4103548
0.1686819
0.1755555
0.1830191
0.1911514
0.2000466
0.209792
0.2204981
0.2323362
0.2454982
0.2602229
0.2773618
0.2966553
0.3186832
0.3440836
0.3737123
0.5538203
0.6201215
0.49495
0.557215
0.6255302
0.4483051
0.4999002
0.564079
0.6362743
0.4110455
0.4540755
0.5074195
0.5744451
0.6525653
0.3804589
0.4169857
0.4615717
0.5171929
0.5879517
0.6737247
0.3542501
0.3856598
0.423418
0.4697226
0.5278816
0.6025799
0.6967722
0.3304556
0.3575848
0.3897381
0.4285003
0.4762137
0.5362728
0.6139398
0.714868
0.3087851
0.3323206
0.3598606
0.3925546
0.4320513
0.4806516
0.5418975
0.6216858
0.7271017
0.2892089
0.3097448
0.3335048
0.361335
0.394414
0.4343186
0.4833941
0.54546
0.6265985
0.7347771
0.271588
0.2896199
0.3102767
0.334191
0.3622229
0.3954755
0.4355392
0.4849284
0.5474597
0.6293636
0.7447402
0.2557044
0.2716346
0.2897247
0.3104557
0.3344668
0.362547
0.3958022
0.4359431
0.4854421
0.5481387
0.6339868
0.7515552
0.2413164
0.255467
0.271412
0.2895223
0.3102813
0.3342636
0.3622569
0.3954593
0.4355309
0.4849357
0.5501354
0.6364499
0.7565227
0.2281823
0.2408092
0.254939
0.2708609
0.2889458
0.3096184
0.3334505
0.3613032
0.3943234
0.4341521
0.4852333
0.5504113
0.6374777
0.7600167
0.2160685
0.2273735
0.2399448
0.2540101
0.2698569
0.2878026
0.3082684
0.3318853
0.3594647
0.3921299
0.4330776
0.4838903
0.5493319
0.6371817
0.7629851
0.2047764
0.2149196
0.2261337
0.2385993
0.2525406
0.2681968
0.2858808
0.3060617
0.3293231
0.3564502
0.389797
0.4301996
0.4807402
0.5462249
0.6355194
0.7747077
0.1942582
0.2033788
0.2134081
0.2244898
0.2367999
0.2505202
0.2658848
0.2832461
0.3030293
0.3257925
0.3532498
0.3855722
0.4244582
0.4720892
0.5315135
0.1847888
0.1930383
0.2020667
0.2119899
0.2229485
0.2350827
0.2485713
0.2636853
0.2807431
0.3001538
0.3232249
0.3498522
0.3811395
0.418425
0.4635882
0.1763872
0.1839026
0.1920937
0.2010556
0.2109026
0.221745
0.2337223
0.2470484
0.2619685
0.2787922
0.298562
0.3210648
0.3470852
0.3775305
0.4136486
0.1689444
0.1758397
0.1833277
0.1914879
0.200415
0.2101972
0.2209457
0.2328334
0.2460538
0.2608479
0.2780745
0.2974754
0.3196373
0.3452061
0.3750489
0.1623315
0.168699
0.1755921
0.183078
0.1912364
0.2001389
0.209876
0.2205902
0.2324377
0.2456108
0.2608344
0.2778331
0.2970616
0.3189977
0.3442682
0.4925775
0.554033
0.6206682
0.4445365
0.4951144
0.5576379
0.6263535
0.406478
0.4484374
0.500231
0.5647227
0.6374079
0.3756422
0.4111557
0.4543445
0.507928
0.5753357
0.6537714
0.349965
0.3805535
0.4172123
0.4619898
0.5179031
0.5888988
0.6748372
0.3276885
0.3543333
0.3858559
0.4237727
0.4703094
0.5286376
0.603445
0.6980484
0.30724
0.3305272
0.3577514
0.3900341
0.4289792
0.4768123
0.5369296
0.6148507
0.7162471
0.2884268
0.3088466
0.3324619
0.360108
0.3929472
0.4325301
0.4811589
0.5425667
0.6226185
0.7285342
0.2712736
0.2892622
0.3098658
0.3337139
0.3616615
0.3948041
0.4347206
0.4839053
0.5461353
0.6275422
0.7418866
0.2557044
0.2716346
0.2897247
0.3104557
0.3344668
0.362547
0.3958022
0.4359431
0.4854421
0.5481387
0.6339868
0.7515552
0.241565
0.2557455
0.2717264
0.2898799
0.3106919
0.3347405
0.3628182
0.3961302
0.4363489
0.4859581
0.551458
0.6382218
0.7591202
0.2286708
0.241353
0.255548
0.271548
0.2897273
0.310516
0.3344929
0.3625297
0.3957894
0.4359391
0.4874619
0.5532119
0.6411035
0.7651155
0.216829
0.2282152
0.2408815
0.2550593
0.2710407
0.2891495
0.3098153
0.3336816
0.3615782
0.3946564
0.4361563
0.4876485
0.5539348
0.6428802
0.7703403
0.2058467
0.2160982
0.2274384
0.240052
0.254169
0.2700353
0.2879736
0.3084668
0.3321183
0.3597422
0.3937649
0.4350703
0.4868008
0.5537155
0.644157
0.7794841
0.1955575
0.204803
0.2149774
0.2262288
0.2387392
0.2526966
0.2683447
0.2860506
0.3062585
0.3295538
0.3577843
0.3913988
0.4325469
0.4844035
0.5525226
0.6503625
0.7894305
0.1859283
0.1942815
0.2034292
0.2134905
0.2246103
0.2369332
0.2506446
0.2660251
0.2834055
0.3032122
0.3268258
0.3542418
0.3866817
0.4256256
0.473071
0.1772219
0.1848096
0.193083
0.2021394
0.2120956
0.2230647
0.2351898
0.2486906
0.263819
0.2808942
0.3009925
0.3239275
0.3505199
0.3817144
0.4188
0.1694675
0.1764059
0.1839429
0.1921589
0.20115
0.2110057
0.2218393
0.2338265
0.2471641
0.2620979
0.2795017
0.2991237
0.3215642
0.3474845
0.3777723
0.1625748
0.1689616
0.1758764
0.1833869
0.1915733
0.2005078
0.2102816
0.2210383
0.2329355
0.2461671
0.2614636
0.2785507
0.2978877
0.3199577
0.3453948
0.1564323
0.1623473
0.1687327
0.1756463
0.1831559
0.1913207
0.2002153
0.2099594
0.2206816
0.2325384
0.2461544
0.2612499
0.2781881
0.2973335
0.3191553
0.4426629
0.4927398
0.5544492
0.6214738
0.4034153
0.4446658
0.4954366
0.5582613
0.6274374
0.3718558
0.4065847
0.4486969
0.500719
0.5655703
0.6385322
0.3459099
0.3757329
0.4113719
0.4547414
0.5085977
0.576219
0.654774
0.3240345
0.3500441
0.3807393
0.417547
0.4625406
0.5186074
0.5896888
0.6759524
0.3048538
0.327759
0.3544968
0.3861458
0.4242403
0.4708917
0.5292728
0.6043176
0.6993395
0.2870808
0.3073014
0.3306681
0.3579977
0.3904246
0.4294545
0.4773153
0.537592
0.6157697
0.7176427
0.2705861
0.2884801
0.3089678
0.3326711
0.3604344
0.3933368
0.4329317
0.4816694
0.5432405
0.623558
0.7355708
0.2554258
0.2713202
0.2893671
0.310045
0.3339898
0.3619855
0.3951309
0.4351247
0.4844192
0.5468142
0.6321601
0.7487775
0.241565
0.2557455
0.2717264
0.2898799
0.3106919
0.3347405
0.3628182
0.3961302
0.4363489
0.4859581
0.551458
0.6382218
0.7591202
0.2288941
0.2416016
0.2558265
0.2718622
0.2900847
0.3109265
0.3349695
0.3630905
0.3964598
0.4367564
0.4884803
0.554491
0.6427612
0.7674314
0.2172702
0.2287036
0.2414251
0.2556681
0.2717275
0.2899308
0.3107125
0.3347233
0.3628037
0.396121
0.4379351
0.4898008
0.5565435
0.6461035
0.7745255
0.2065372
0.2168586
0.2282799
0.2409886
0.2552182
0.2712193
0.2893203
0.3100134
0.333914
0.3618549
0.3962865
0.4380673
0.4903325
0.5578026
0.6487346
0.7837254
0.1965341
0.2058736
0.2161566
0.2275344
0.2401935
0.2543268
0.2701852
0.2881458
0.3086668
0.3323531
0.3611027
0.3953887
0.4373789
0.4901474
0.5587076
0.6533585
0.7915184
0.1871192
0.1955817
0.2048554
0.2150632
0.2263544
0.2388783
0.2528275
0.2684937
0.2862216
0.3064568
0.3306848
0.3591201
0.3933167
0.4354604
0.4892216
0.5631313
0.6592899
0.8005199
0.1782707
0.1859497
0.1943275
0.203504
0.2135994
0.2247301
0.2370442
0.2507688
0.2661652
0.2835648
0.304102
0.3276685
0.3551692
0.3876383
0.4264099
0.1702386
0.177241
0.1848505
0.1931493
0.2022354
0.2122006
0.223161
0.2352964
0.2488092
0.263952
0.2816256
0.3015983
0.3244957
0.3510015
0.3820226
0.1630596
0.1694848
0.176443
0.1840027
0.1922451
0.2012437
0.2110911
0.2219331
0.2339299
0.247279
0.262723
0.2799919
0.2995548
0.3219046
0.3476876
0.1566584
0.1625907
0.1689955
0.1759309
0.1834651
0.191658
0.2005846
0.2103654
0.2211302
0.2330369
0.2467142
0.2618833
0.2789108
0.2981646
0.3201187
0.1509381
0.156447
0.1623786
0.1687828
0.175718
0.1832333
0.1913905
0.2002912
0.2100421
0.2207723
0.233025
0.2465237
0.2615629
0.2784256
0.2974697
0.4018902
0.4427908
0.4930578
0.555063
0.6225343
0.3693121
0.4035198
0.4449193
0.4959118
0.5590822
0.6285123
0.3427157
0.3719439
0.406794
0.4490797
0.5013617
0.5664108
0.639465
0.32057
0.3459858
0.3759108
0.4116912
0.4552644
0.5092619
0.5769526
0.6557738
0.3016985
0.3241016
0.3501995
0.3810139
0.4179881
0.463087
0.5191946
0.5904794
0.6770703
0.2850006
0.3049143
0.3278975
0.3547386
0.3865282
0.4247044
0.4713808
0.5299132
0.6051979
0.7006458
0.2694026
0.2871341
0.3074223
0.3308766
0.3583227
0.3908121
0.4298538
0.4778225
0.53826
0.616697
0.7245112
0.2548165
0.2706328
0.2885851
0.309147
0.332947
0.3607583
0.3936636
0.4333359
0.4821833
0.5439189
0.6281611
0.74262
0.2413164
0.255467
0.271412
0.2895223
0.3102813
0.3342636
0.3622569
0.3954593
0.4355309
0.4849357
0.5501354
0.6364499
0.7565227
0.2288941
0.2416016
0.2558265
0.2718622
0.2900847
0.3109265
0.3349695
0.3630905
0.3964598
0.4367564
0.4884803
0.554491
0.6427612
0.7674314
0.2174719
0.2289269
0.2416737
0.2559465
0.2720415
0.290288
0.3111227
0.3351995
0.363364
0.3967907
0.4387478
0.4907837
0.5577372
0.647591
0.7764703
0.2069378
0.2172997
0.2287682
0.241532
0.2558267
0.2719058
0.2901012
0.3109099
0.3349548
0.3630791
0.3977425
0.4397828
0.4923334
0.5601169
0.651417
0.7866019
0.1971639
0.2065641
0.2169169
0.2283759
0.2411301
0.255376
0.2713689
0.2894922
0.3102127
0.3341479
0.3632094
0.3978407
0.440191
0.4932767
0.5619841
0.6561138
0.7939565
0.1880139
0.1965585
0.2059265
0.2162432
0.2276614
0.2403341
0.2544594
0.2703363
0.2883194
0.3088682
0.3335044
0.362454
0.3972699
0.4400318
0.4939527
0.5652718
0.6607417
0.8015835
0.1793661
0.1871413
0.1956295
0.2049332
0.2151765
0.2264792
0.238995
0.2529594
0.2686439
0.2863939
0.3074287
0.3318174
0.3607195
0.3956958
0.4392867
0.4973141
0.5694804
0.6665275
0.8091407
0.171207
0.1782903
0.1859918
0.1943957
0.2036029
0.2137076
0.2248298
0.2371552
0.250893
0.2663052
0.2843394
0.3048272
0.3284562
0.3559687
0.3882809
0.163774
0.1702562
0.1772787
0.1849113
0.193237
0.2023309
0.2122877
0.2232568
0.2354024
0.2489272
0.2645957
0.2821536
0.3020881
0.3249055
0.3512597
0.1571089
0.1630756
0.169519
0.176498
0.1840817
0.1923307
0.2013214
0.2111759
0.2220262
0.2340327
0.2478342
0.2631548
0.2803681
0.2998486
0.3220776
0.1511489
0.1566732
0.1626221
0.1690458
0.1760029
0.1835429
0.1917282
0.2006608
0.2104486
0.2212215
0.2335264
0.2470871
0.2622007
0.2791525
0.2983036
0.1458091
0.1509518
0.156476
0.1624249
0.168849
0.1757893
0.1832973
0.1914598
0.2003664
0.2101242
0.2212104
0.2333554
0.2468017
0.2617722
0.2785446
0.3680439
0.4019937
0.4430414
0.493527
0.5558712
0.6235861
0.3405665
0.3693985
0.4037249
0.4452935
0.4965378
0.5598963
0.6294037
0.3178366
0.3427896
0.3721166
0.4071032
0.4495842
0.501999
0.5671077
0.6403933
0.2987022
0.3206347
0.346135
0.3761737
0.412112
0.455783
0.5098133
0.5776833
0.6567705
0.2822469
0.3017562
0.3242336
0.3504292
0.381376
0.4184258
0.4635424
0.519782
0.5912704
0.6781907
0.2675723
0.2850532
0.3050333
0.3281025
0.3550576
0.3869076
0.4250943
0.4718739
0.5305589
0.6060859
0.7070749
0.2537673
0.2694492
0.2872389
0.3076011
0.3311517
0.3586453
0.3911376
0.4302564
0.4783339
0.5389336
0.6212484
0.7317177
0.2407726
0.2548578
0.2707248
0.2887406
0.3093835
0.3332208
0.3610299
0.3939925
0.4337427
0.4827005
0.5472414
0.6325678
0.7507648
0.2286708
0.241353
0.255548
0.271548
0.2897273
0.310516
0.3344929
0.3625297
0.3957894
0.4359391
0.4874619
0.5532119
0.6411035
0.7651155
0.2174719
0.2289269
0.2416737
0.2559465
0.2720415
0.290288
0.3111227
0.3351995
0.363364
0.3967907
0.4387478
0.4907837
0.5577372
0.647591
0.7764703
0.2071209
0.2175014
0.2289914
0.2417804
0.2561049
0.2722196
0.2904581
0.3113197
0.3354305
0.3636387
0.3984077
0.4405661
0.493249
0.5611861
0.6526871
0.7880326
0.1975293
0.2069646
0.2173579
0.228864
0.2416732
0.2559842
0.272055
0.2902724
0.3111083
0.3351874
0.3644252
0.3992435
0.4417836
0.4950486
0.5639079
0.6580397
0.7958516
0.1885908
0.1971883
0.2066169
0.2170034
0.2285027
0.2412707
0.2555083
0.2715195
0.2896651
0.3104132
0.3352927
0.3645007
0.3995679
0.4425197
0.4964566
0.5672437
0.6624713
0.803012
0.1801889
0.1880362
0.1966067
0.2060051
0.2163577
0.2277875
0.2404522
0.2545929
0.2704884
0.2884943
0.3098561
0.3346479
0.3640194
0.3994308
0.4430453
0.4989471
0.5705287
0.6674069
0.8097773
0.1722181
0.1793865
0.187185
0.1957004
0.2050361
0.2152892
0.2265839
0.2391126
0.2530923
0.2687951
0.2872388
0.3084019
0.3331731
0.3627025
0.398817
0.4457
0.5021318
0.5746275
0.6725297
0.8158726
0.1646709
0.1712251
0.178329
0.1860542
0.1944859
0.2037011
0.2137977
0.2249295
0.237266
0.2510171
0.266986
0.2849706
0.3055052
0.3291351
0.3565057
0.1577726
0.1637903
0.1702909
0.1773345
0.1849916
0.1933241
0.20241
0.2123743
0.2233521
0.2355078
0.2494983
0.2650603
0.2825805
0.3024413
0.3251251
0.1515685
0.1571238
0.1631073
0.1695698
0.1765707
0.1841602
0.1924016
0.2013985
0.2112601
0.2221186
0.2345291
0.2482175
0.2634861
0.2806244
0.2999979
0.1460059
0.1511626
0.1567023
0.1626687
0.1691123
0.1760745
0.1836072
0.1917978
0.2007365
0.2105312
0.2216621
0.2338599
0.2473689
0.2624136
0.2792739
0.1410104
0.1458219
0.1509788
0.1565191
0.1624863
0.1689149
0.1758482
0.1833609
0.1915286
0.2004411
0.2105208
0.2215078
0.2336042
0.2469877
0.2618771
0.3394939
0.3681295
0.4021967
0.4434114
0.4941449
0.5566726
0.6244582
0.3159951
0.3406392
0.3695681
0.4040277
0.4457864
0.4971585
0.560571
0.6302903
0.2963348
0.3178996
0.3429348
0.3723718
0.4075105
0.4500844
0.5025273
0.5678009
0.6413172
0.2796284
0.2987579
0.3207617
0.3463556
0.3765202
0.4125294
0.4562135
0.5103623
0.5784113
0.6577643
0.2651469
0.2822971
0.3018698
0.3244288
0.3507321
0.3817352
0.4187905
0.4639978
0.5203694
0.5920619
0.6836529
0.2521438
0.2676183
0.2851565
0.3052094
0.328373
0.3553742
0.3872264
0.4254871
0.4723709
0.53121
0.6104442
0.713912
0.2398358
0.2538086
0.2695411
0.2873942
0.3078372
0.3314247
0.3589163
0.3914658
0.4306622
0.4788494
0.5422385
0.6257926
0.7404214
0.2281823
0.2408092
0.254939
0.2708609
0.2889458
0.3096184
0.3334505
0.3613032
0.3943234
0.4341521
0.4852333
0.5504113
0.6374777
0.7600167
0.2172702
0.2287036
0.2414251
0.2556681
0.2717275
0.2899308
0.3107125
0.3347233
0.3628037
0.396121
0.4379351
0.4898008
0.5565435
0.6461035
0.7745255
0.2071209
0.2175014
0.2289914
0.2417804
0.2561049
0.2722196
0.2904581
0.3113197
0.3354305
0.3636387
0.3984077
0.4405661
0.493249
0.5611861
0.6526871
0.7880326
0.1976962
0.2071476
0.2175595
0.229087
0.2419214
0.2562622
0.2723686
0.2906289
0.3115176
0.3356624
0.3649805
0.3998839
0.4425124
0.4958674
0.5648202
0.6590161
0.7968567
0.1889253
0.1975536
0.2070173
0.2174443
0.2289905
0.2418134
0.2561161
0.272205
0.2904443
0.3113076
0.3363244
0.3656711
0.4008689
0.4439284
0.4979274
0.568626
0.6638447
0.8042271
0.1807191
0.1886131
0.1972365
0.2066953
0.2171178
0.2286287
0.2413885
0.2556414
0.271671
0.289839
0.3113945
0.3363841
0.3659358
0.4014614
0.4450333
0.5004515
0.5717783
0.6685766
0.8106762
0.1729771
0.1802094
0.1880803
0.1966783
0.2061089
0.2164715
0.2278934
0.2405712
0.2547275
0.2706418
0.2893518
0.3108373
0.3359726
0.3658169
0.4018835
0.4469951
0.5029346
0.575276
0.6731778
0.8163164
0.1656069
0.1722368
0.1794266
0.1872499
0.1957941
0.2051383
0.2153838
0.2266895
0.2392311
0.2532261
0.2695366
0.2880847
0.3095669
0.3348536
0.365302
0.4040399
0.4495034
0.506027
0.5788976
0.6774596
0.8210526
0.1586056
0.1646876
0.1712607
0.1783864
0.1861368
0.1945755
0.2037829
0.2138877
0.225029
0.2373768
0.2516204
0.2675407
0.2855607
0.3060894
0.3295912
0.1521867
0.1577877
0.1638224
0.1703425
0.1774084
0.1850714
0.1933963
0.2024887
0.2124605
0.2234469
0.2360181
0.2499103
0.2654358
0.2828883