/*--------------------------------*- C++ -*----------------------------------*\
| =========                 |                                                 |
| \\      /  F ield         | OpenFOAM: The Open Source CFD Toolbox           |
|  \\    /   O peration     | Version:  2306                                  |
|   \\  /    A nd           | Website:  www.openfoam.com                      |
|    \\/     M anipulation  |                                                 |
\*---------------------------------------------------------------------------*/
FoamFile
{
    version     2.0;
    format      ascii;
    arch        "LSB;label=32;scalar=64";
    class       volScalarField;
    location    "1.2/fuel";
    object      H2O;
}
// * * * * * * * * * * * * * * * * * * * * * * * * * * * * * * * * * * * * * //

dimensions      [0 0 0 0 0 0 0];

internalField   nonuniform List<scalar> 
16000
(
0.3801661
0.3753223
0.446188
0.3798865
0.3654781
0.4430093
0.3750365
0.5074308
0.4459753
0.3793398
0.3505298
0.4365889
0.365179
0.5050582
0.4427932
0.3744777
0.5573451
0.5072684
0.4455591
0.3785342
0.3310202
0.4269327
0.3502089
0.5002769
0.4363657
0.3645945
0.5554715
0.5048938
0.4423704
0.3736543
0.5981174
0.5572172
0.5069504
0.4449453
0.3774736
0.3098143
0.414479
0.3306662
0.4931093
0.4266982
0.3495818
0.5517028
0.500108
0.4359291
0.3637334
0.5965923
0.5553422
0.5045716
0.4417469
0.3725705
0.6319633
0.5980139
0.5569666
0.5064813
0.4441371
0.3764218
0.2935255
0.4010861
0.3094175
0.483906
0.4142277
0.3299745
0.5460695
0.4929333
0.4262393
0.3486581
0.5935296
0.5515705
0.4997772
0.4352854
0.3625998
0.6306951
0.5964878
0.5550887
0.5040964
0.440926
0.3714955
0.6605129
0.6318777
0.5978109
0.5565966
0.5058634
0.4433357
0.3755497
0.2829909
0.3907873
0.2931017
0.4740575
0.4008136
0.3086417
0.5388637
0.4837194
0.4137359
0.3289554
0.5889621
0.5459323
0.4925886
0.4255629
0.3474421
0.6281514
0.5934229
0.5513111
0.4992892
0.4344378
0.3614754
0.6594403
0.6306087
0.5962827
0.5547145
0.5034704
0.440112
0.3706041
0.6849312
0.6604409
0.6317097
0.5975111
0.5561092
0.5052506
0.4426715
0.3746823
0.2769324
0.3840602
0.2825522
0.4665128
0.3905029
0.2922735
0.5311853
0.4738576
0.4002801
0.3074982
0.5831373
0.5387192
0.483354
0.4130109
0.3276136
0.624365
0.5888518
0.5456634
0.4920801
0.4246722
0.3462359
0.6572911
0.6280634
0.5932135
0.5509282
0.4986464
0.4335973
0.3605426
0.6840114
0.6593676
0.6304392
0.5959799
0.5542215
0.5028497
0.4394372
0.3697175
0.706066
0.6848697
0.6602993
0.6314614
0.597116
0.5556257
0.5047429
0.4420111
0.3738196
0.2741911
0.3801382
0.2764857
0.4615912
0.38377
0.2816952
0.5253227
0.4663062
0.3899462
0.2910529
0.5769517
0.5310317
0.473466
0.3994932
0.3059916
0.6195483
0.5830218
0.538436
0.4828149
0.412056
0.3262821
0.6540969
0.6242743
0.5886356
0.5452664
0.4914103
0.4237889
0.3452332
0.6821699
0.6572172
0.6278906
0.5929044
0.5504237
0.4980091
0.4329004
0.3596143
0.7052679
0.6839494
0.6592249
0.6301886
0.5955808
0.5537327
0.5023354
0.4387664
0.3688356
0.7245464
0.7060128
0.6847488
0.6600901
0.6311342
0.5967241
0.5552253
0.5042383
0.4413545
0.3729617
0.2741911
0.3783434
0.2737407
0.4587207
0.379845
0.2756131
0.5215048
0.4613816
0.383202
0.2804324
0.5722414
0.5251646
0.4659013
0.3891252
0.2894447
0.6144472
0.5768294
0.5307302
0.4728879
0.3984564
0.3044956
0.6500418
0.6194537
0.5827952
0.538018
0.4821048
0.4111089
0.3251696
0.6794364
0.654021
0.6240964
0.5883163
0.5447435
0.4907461
0.4230553
0.3442335
0.7036713
0.6821069
0.657072
0.6276354
0.592497
0.5499235
0.4974808
0.4322072
0.3586904
0.723847
0.7052143
0.6838275
0.659014
0.6298584
0.595185
0.5533277
0.5018242
0.4380994
0.3679585
0.7408493
0.7244999
0.7059082
0.6845699
0.6598143
0.6308095
0.5963996
0.5548275
0.5037369
0.4407019
0.368812
0.2769324
0.3783434
0.2737407
0.4574059
0.378049
0.2728611
0.5192793
0.4585098
0.3792714
0.2743276
0.5691786
0.5213451
0.4609711
0.3823645
0.2787689
0.6105713
0.5721162
0.5248547
0.4653037
0.3880436
0.2878479
0.6457567
0.6143473
0.5765894
0.5302851
0.4721261
0.3974275
0.3032341
0.675972
0.6499627
0.6192678
0.5824605
0.5374671
0.4814005
0.4103188
0.3240544
0.7013039
0.6793718
0.6538718
0.6238335
0.5878955
0.5442248
0.4901947
0.4223245
0.3432367
0.7224487
0.7036169
0.681983
0.6568575
0.6272989
0.592093
0.5495089
0.4969555
0.4315176
0.3577711
0.7402311
0.7238002
0.705109
0.6836473
0.6587358
0.6295308
0.5948572
0.5529253
0.5013161
0.4374363
0.3637155
0.7553426
0.7408083
0.7244085
0.7057534
0.684334
0.6595406
0.6305407
0.5960772
0.5544322
0.5032386
0.4375461
0.3659588
0.2829909
0.3801382
0.2764857
0.4574059
0.378049
0.2728611
0.51826
0.4571944
0.3774728
0.2715656
0.5673942
0.519119
0.4580966
0.3784256
0.2726345
0.6080543
0.5690523
0.5210321
0.4603652
0.3812612
0.2771172
0.6425067
0.6104693
0.5718703
0.5243971
0.4645162
0.3869701
0.2865009
0.6723179
0.6456735
0.6141512
0.5762347
0.5296983
0.4713701
0.3965624
0.3019579
0.6983076
0.6759048
0.6498073
0.6189932
0.5820194
0.5369207
0.4808132
0.4095283
0.3229365
0.7203773
0.7012482
0.6792448
0.6536512
0.6234869
0.5874781
0.5437944
0.4896457
0.4215965
0.3422429
0.7389959
0.7224013
0.70351
0.6817999
0.6565745
0.6269651
0.5917582
0.5490968
0.4964332
0.4308319
0.3533214
0.7547921
0.7401899
0.7237082
0.7049531
0.6834096
0.6584599
0.6292595
0.5945315
0.5525255
0.5008112
0.4342299
0.3607851
0.7683151
0.7553063
0.7407277
0.7242732
0.7055493
0.6841
0.659314
0.6302738
0.5957569
0.5540395
0.5008299
0.435383
0.3637967
0.2935255
0.3840602
0.2825522
0.4587207
0.379845
0.2756131
0.51826
0.4571944
0.3774728
0.2715656
0.5665771
0.5180994
0.4567802
0.3766234
0.2698592
0.6065889
0.5672676
0.5188046
0.457487
0.3773115
0.2709534
0.6403987
0.6079517
0.5688046
0.5205697
0.4595668
0.3801663
0.2757266
0.6695509
0.642422
0.610269
0.5715071
0.5237938
0.4637348
0.3860674
0.2851379
0.6951523
0.6722475
0.64551
0.6138613
0.5757671
0.529116
0.4707349
0.3956898
0.3006668
0.7177588
0.6982498
0.6757729
0.6495776
0.6186312
0.5815817
0.5364653
0.4802259
0.4087372
0.3218161
0.7371674
0.7203288
0.7011386
0.6790569
0.6533605
0.6231431
0.5871318
0.5433658
0.4890989
0.4208714
0.3374238
0.7536926
0.7389541
0.722308
0.7033518
0.6815584
0.6562938
0.6266887
0.5914255
0.5486872
0.4959139
0.4275143
0.3501968
0.7678216
0.7547555
0.7401088
0.723572
0.7047475
0.6831737
0.6582314
0.6289901
0.5942079
0.5521282
0.4983704
0.4320242
0.3585538
0.7799965
0.7682826
0.7552346
0.7406084
0.7240947
0.7053467
0.6839062
0.659089
0.6300086
0.5954388
0.5521417
0.4991824
0.4337469
0.362344
0.3098143
0.3907873
0.2931017
0.4615912
0.38377
0.2816952
0.5192793
0.4585098
0.3792714
0.2743276
0.5665771
0.5180994
0.4567802
0.3766234
0.2698592
0.605918
0.5664504
0.5177845
0.456169
0.3755046
0.268165
0.639172
0.6064861
0.5670192
0.5183404
0.4566837
0.376206
0.2695401
0.6677577
0.6403135
0.6077503
0.5684386
0.5199604
0.4587747
0.3792471
0.2743222
0.6927661
0.6694792
0.6422554
0.609973
0.5710282
0.5231953
0.463078
0.3851565
0.2837587
0.7150051
0.6950918
0.6721089
0.6452682
0.613479
0.575303
0.5286268
0.4700945
0.3948095
0.2993604
0.7348585
0.7177086
0.6981363
0.6755777
0.6492747
0.618272
0.581217
0.5360099
0.4796384
0.4079457
0.3163538
0.7520663
0.7371247
0.7202333
0.7009766
0.6788092
0.653072
0.6228579
0.5867871
0.5429392
0.4885545
0.4173578
0.3338532
0.7668364
0.7536556
0.7388719
0.7221699
0.7031431
0.6813188
0.6560613
0.6264139
0.5910948
0.54828
0.4934025
0.4252014
0.3477732
0.7795515
0.7677889
0.7546835
0.7399887
0.7233922
0.7045434
0.6829784
0.6580045
0.6287224
0.5938865
0.5502083
0.4966953
0.4303494
0.3570477
0.7905718
0.7799672
0.7682185
0.7551286
0.7404509
0.7239175
0.705179
0.6837138
0.6588656
0.6297453
0.5939018
0.5508456
0.4979377
0.4326491
0.3616141
0.3310202
0.4010861
0.3094175
0.4665128
0.3905029
0.2922735
0.5215048
0.4613816
0.383202
0.2804324
0.5673942
0.519119
0.4580966
0.3784256
0.2726345
0.605918
0.5664504
0.5177845
0.456169
0.3755046
0.268165
0.6386105
0.6058152
0.5662018
0.5173196
0.4553638
0.3743945
0.2667417
0.6667149
0.6390868
0.6062844
0.5666523
0.5177287
0.4558869
0.375279
0.2681149
0.691221
0.6676858
0.6401462
0.6074525
0.567956
0.5193559
0.45811
0.3783211
0.2729038
0.7129249
0.6927047
0.6693383
0.642009
0.6095825
0.5705529
0.5226922
0.4624156
0.3842374
0.2823632
0.7324331
0.7149526
0.6949728
0.671904
0.6449492
0.6130995
0.5749132
0.5281337
0.4694488
0.3939215
0.2929313
0.7500144
0.7348144
0.7176098
0.6979682
0.6753202
0.6489741
0.6179727
0.5808524
0.5355546
0.4790509
0.4040931
0.3116997
0.76538
0.7520284
0.7370408
0.7200921
0.7007629
0.6785634
0.6528326
0.6225741
0.5864439
0.5425145
0.4859175
0.4147963
0.3309061
0.7786635
0.7668033
0.7535826
0.7387502
0.7219876
0.702936
0.6811204
0.6558302
0.6261409
0.5907662
0.5463112
0.4916565
0.4234183
0.3461073
0.7901685
0.7795221
0.7677245
0.7545768
0.7398302
0.7232138
0.7043745
0.6827845
0.6577791
0.6284566
0.5923334
0.5488927
0.495425
0.4292216
0.3562885
0.8001921
0.7905453
0.7799095
0.7681236
0.7549885
0.7402945
0.7237708
0.7050124
0.6835228
0.6586437
0.6284729
0.5928534
0.5498672
0.4971032
0.432098
0.3505298
0.414479
0.3306662
0.4740575
0.4008136
0.3086417
0.5253227
0.4663062
0.3899462
0.2910529
0.5691786
0.5213451
0.4609711
0.3823645
0.2787689
0.6065889
0.5672676
0.5188046
0.457487
0.3773115
0.2709534
0.6386105
0.6058152
0.5662018
0.5173196
0.4553638
0.3743945
0.2667417
0.6662376
0.6385253
0.6056134
0.5658346
0.516707
0.4545649
0.3734642
0.2653074
0.6903228
0.666643
0.6389193
0.6059862
0.5661686
0.5171219
0.455219
0.3743465
0.2666776
0.711579
0.6911594
0.6675445
0.6398988
0.6070599
0.5674773
0.5188487
0.4574407
0.3773885
0.2714713
0.7306028
0.7128716
0.6925838
0.6691298
0.641684
0.609195
0.5701536
0.522185
0.4617476
0.3833101
0.2754946
0.7478612
0.7323871
0.7148492
0.6947967
0.6716335
0.6446326
0.6127808
0.5745203
0.5276367
0.4687977
0.3895631
0.286094
0.7635441
0.7499753
0.7347276
0.7174635
0.6977465
0.6750647
0.6487237
0.6176735
0.5804878
0.5350992
0.4761924
0.4009218
0.3071854
0.7773515
0.7653463
0.751954
0.7369165
0.7199057
0.7005508
0.6783595
0.6525945
0.6222916
0.5861024
0.5404578
0.4840021
0.4127144
0.3287413
0.7893639
0.7786337
0.7667381
0.7534746
0.7385896
0.7218067
0.7027645
0.6809232
0.6556007
0.6258696
0.5891775
0.5449448
0.4903126
0.4221994
0.3452555
0.7998248
0.7901419
0.7794641
0.767629
0.7544359
0.7396728
0.7230662
0.7042067
0.682592
0.6575553
0.6271722
0.5912706
0.5478959
0.4945703
0.4286539
0.8089817
0.800168
0.7904931
0.7798241
0.7679982
0.7548495
0.7401651
0.7236252
0.7048471
0.6833331
0.6575717
0.6276059
0.5920624
0.5492117
0.4966845
0.3654781
0.4269327
0.3502089
0.483906
0.4142277
0.3299745
0.5311853
0.4738576
0.4002801
0.3074982
0.5722414
0.5251646
0.4659013
0.3891252
0.2894447
0.6080543
0.5690523
0.5210321
0.4603652
0.3812612
0.2771172
0.639172
0.6064861
0.5670192
0.5183404
0.4566837
0.376206
0.2695401
0.6662376
0.6385253
0.6056134
0.5658346
0.516707
0.4545649
0.3734642
0.2653074
0.6899119
0.6661658
0.6383579
0.6053151
0.5653505
0.5160993
0.4538958
0.3725289
0.2638619
0.7107969
0.6902613
0.6665016
0.6386718
0.6055931
0.5656887
0.5166134
0.4545474
0.3734083
0.2652282
0.7294193
0.7115256
0.6910383
0.6673354
0.6395724
0.6066702
0.5670756
0.5183381
0.4567669
0.376449
0.2644346
0.7462377
0.7305562
0.7127668
0.692405
0.6688548
0.6413615
0.6088695
0.569751
0.5216737
0.4610739
0.3787587
0.268288
0.7616192
0.7478205
0.7322964
0.7146961
0.6945642
0.671365
0.6443667
0.6124596
0.5741243
0.5271356
0.4656039
0.3851665
0.2775196
0.7756988
0.7635092
0.7498984
0.734599
0.7172705
0.6975265
0.6748519
0.6484734
0.6173745
0.5801234
0.5328844
0.4738515
0.39794
0.3031626
0.7881757
0.7773212
0.7652798
0.7518437
0.7367524
0.7197206
0.7003748
0.6781566
0.6523575
0.6220104
0.5844488
0.5389666
0.4824494
0.4112072
0.3275654
0.7990923
0.789337
0.7785751
0.7666415
0.7533319
0.7384302
0.7216569
0.7025941
0.6807273
0.6553726
0.6245583
0.5880762
0.543894
0.4893951
0.4215785
0.8086458
0.7998006
0.7900894
0.7793782
0.767503
0.754296
0.7395426
0.7229196
0.7040402
0.6824007
0.656474
0.626294
0.5904657
0.5472257
0.4941404
0.8170441
0.8089597
0.8001206
0.7904158
0.7797112
0.7678738
0.7547344
0.7400366
0.7234806
0.7046829
0.6824167
0.6568418
0.6269521
0.5915326
0.5488829
0.3753223
0.4365889
0.365179
0.4931093
0.4266982
0.3495818
0.5388637
0.4837194
0.4137359
0.3289554
0.5769517
0.5310317
0.473466
0.3994932
0.3059916
0.6105713
0.5721162
0.5248547
0.4653037
0.3880436
0.2878479
0.6403987
0.6079517
0.5688046
0.5205697
0.4595668
0.3801663
0.2757266
0.6667149
0.6390868
0.6062844
0.5666523
0.5177287
0.4558869
0.375279
0.2681149
0.6899119
0.6661658
0.6383579
0.6053151
0.5653505
0.5160993
0.4538958
0.3725289
0.2638619
0.7104391
0.6898504
0.6660244
0.6381103
0.6049218
0.5648702
0.5155904
0.4532234
0.3715886
0.2624052
0.7287318
0.7107436
0.6901402
0.6662925
0.6383453
0.6052029
0.5652867
0.5161022
0.4538721
0.3724646
0.2581186
0.7451886
0.7293726
0.7114206
0.6908591
0.6670595
0.6392485
0.6063434
0.5666714
0.5178242
0.4560885
0.3718458
0.2573853
0.760169
0.7461965
0.7304643
0.7126116
0.6921689
0.6685817
0.6410905
0.6085413
0.5693452
0.5211581
0.457769
0.3742144
0.259584
0.7739674
0.7615829
0.7477403
0.7321621
0.7144941
0.6943334
0.6711395
0.6440987
0.6121359
0.5737252
0.5246783
0.4624007
0.3798716
0.2664415
0.7866798
0.7756675
0.7634407
0.7497846
0.7344294
0.7170788
0.6973432
0.6746391
0.6482232
0.6170755
0.5783509
0.5310738
0.4716591
0.3953568
0.3003857
0.7980111
0.7881483
0.7772614
0.7651813
0.7516981
0.7365895
0.7195672
0.7001998
0.6779547
0.6521216
0.6206493
0.5832513
0.5377589
0.4813277
0.4103977
0.8079761
0.7990679
0.789284
0.7784882
0.766514
0.7531903
0.7382982
0.7215081
0.7024248
0.6805327
0.6542703
0.6236501
0.5872298
0.543177
0.4889282
0.8167357
0.8086237
0.7997529
0.7900117
0.7792647
0.7673778
0.7541803
0.7394133
0.722774
0.7038748
0.6814769
0.6557352
0.6256293
0.5899247
0.5468886
0.824466
0.8170239
0.8089164
0.8000502
0.7903136
0.7795991
0.7677708
0.7546202
0.7399091
0.7233371
0.7038901
0.6817932
0.6562916
0.6265143
0.591267
0.3801661
0.4430093
0.3750365
0.5002769
0.4363657
0.3645945
0.5460695
0.4929333
0.4262393
0.3486581
0.5831373
0.5387192
0.483354
0.4130109
0.3276136
0.6144472
0.5768294
0.5307302
0.4728879
0.3984564
0.3044956
0.6425067
0.6104693
0.5718703
0.5243971
0.4645162
0.3869701
0.2865009
0.6677577
0.6403135
0.6077503
0.5684386
0.5199604
0.4587747
0.3792471
0.2743222
0.6903228
0.666643
0.6389193
0.6059862
0.5661686
0.5171219
0.455219
0.3743465
0.2666776
0.7104391
0.6898504
0.6660244
0.6381103
0.6049218
0.5648702
0.5155904
0.4532234
0.3715886
0.2624052
0.7284174
0.7103858
0.6897294
0.6658154
0.6377838
0.6045316
0.5644681
0.5150791
0.4525477
0.3706432
0.2552649
0.7445793
0.7286852
0.7106387
0.6899611
0.6660167
0.6380212
0.6048762
0.5648826
0.5155883
0.4531932
0.3678467
0.2512277
0.7592322
0.7451473
0.7292807
0.7112652
0.6906225
0.6667856
0.6389769
0.6060146
0.5662646
0.517307
0.452766
0.367439
0.2492404
0.7726638
0.7601323
0.7461153
0.7303282
0.7124066
0.6919345
0.6683523
0.6408173
0.6082106
0.5689361
0.5186293
0.4544838
0.3689292
0.2492095
0.7851139
0.7739349
0.7615115
0.7476214
0.7319847
0.7142934
0.6941396
0.6709123
0.6438287
0.6118097
0.571768
0.5222163
0.4585603
0.3732537
0.2513644
0.7966507
0.7866516
0.7756059
0.763339
0.7496342
0.7342609
0.7169192
0.6971599
0.6744265
0.6479731
0.6156216
0.5769032
0.5293797
0.4697665
0.3936158
0.806988
0.7979862
0.7880943
0.7771729
0.7650512
0.7515536
0.7364544
0.7194145
0.7000256
0.6777539
0.65098
0.6196645
0.582282
0.536887
0.480726
0.8161211
0.8079538
0.7990197
0.7892054
0.7783734
0.7663873
0.7530731
0.7381671
0.7213603
0.7022567
0.6795921
0.6535074
0.6229524
0.5866525
0.5428123
0.824182
0.8167155
0.8085802
0.7996822
0.7899089
0.779152
0.7672742
0.7540653
0.7392849
0.7226294
0.7030758
0.6808462
0.6551762
0.6251827
0.5896527
0.8313209
0.8244475
0.8169842
0.8088521
0.7999572
0.7902121
0.7795063
0.7676685
0.7545068
0.7397825
0.7226439
0.7033508
0.6813232
0.6559233
0.6262949
0.446188
0.3798865
0.5050582
0.4427932
0.3744777
0.5517028
0.500108
0.4359291
0.3637334
0.5889621
0.5459323
0.4925886
0.4255629
0.3474421
0.6195483
0.5830218
0.538436
0.4828149
0.412056
0.3262821
0.6457567
0.6143473
0.5765894
0.5302851
0.4721261
0.3974275
0.3032341
0.6695509
0.642422
0.610269
0.5715071
0.5237938
0.4637348
0.3860674
0.2851379
0.691221
0.6676858
0.6401462
0.6074525
0.567956
0.5193559
0.45811
0.3783211
0.2729038
0.7107969
0.6902613
0.6665016
0.6386718
0.6055931
0.5656887
0.5166134
0.4545474
0.3734083
0.2652282
0.7284174
0.7103858
0.6897294
0.6658154
0.6377838
0.6045316
0.5644681
0.5150791
0.4525477
0.3706432
0.2552649
0.7443007
0.7283708
0.710281
0.6895504
0.6655397
0.6374598
0.6042049
0.5640642
0.5145654
0.4518687
0.36602
0.2484498
0.7586884
0.7445381
0.7285934
0.7104834
0.6897247
0.6657428
0.6377498
0.6045477
0.5644764
0.5150718
0.449872
0.3635568
0.2434823
0.7718222
0.7591955
0.7450661
0.7291445
0.71106
0.6903877
0.6665559
0.6387035
0.6056837
0.5658553
0.5147742
0.4495961
0.3625291
0.2399883
0.7839356
0.7726309
0.76006
0.745995
0.7301485
0.7122031
0.6917377
0.6681211
0.640542
0.6078772
0.5669298
0.5161172
0.4506755
0.3628251
0.2370199
0.7952275
0.7850846
0.7738707
0.7614055
0.7474645
0.7318086
0.7141249
0.6939443
0.6706833
0.6435566
0.6102101
0.5698078
0.5192673
0.4537826
0.3644875
0.2252971
0.8057454
0.7966251
0.786596
0.7755147
0.7632048
0.7494849
0.7341206
0.7167597
0.6969768
0.6742139
0.646757
0.614435
0.5755493
0.5279185
0.4684942
0.8152145
0.8069653
0.7979372
0.7880142
0.7770559
0.764922
0.7514337
0.73632
0.7192626
0.6998523
0.6767816
0.6501546
0.6188676
0.5815825
0.5364195
0.8236159
0.8161007
0.8079098
0.7989483
0.7891015
0.7782594
0.7662824
0.7529566
0.7380368
0.7212135
0.7014441
0.6789416
0.6529216
0.6224767
0.586359
0.8310583
0.8241634
0.8166756
0.8085156
0.7995888
0.7898069
0.7790587
0.7671713
0.7539512
0.7391574
0.7219313
0.7025306
0.6803691
0.6548008
0.6249583
0.837671
0.8313038
0.8244109
0.8169253
0.8087672
0.7998649
0.7901281
0.7794142
0.767567
0.7543942
0.739171
0.7221726
0.7029445
0.6810088
0.6557386
0.5074308
0.4459753
0.3793398
0.5554715
0.5048938
0.4423704
0.3736543
0.5935296
0.5515705
0.4997772
0.4352854
0.3625998
0.624365
0.5888518
0.5456634
0.4920801
0.4246722
0.3462359
0.6500418
0.6194537
0.5827952
0.538018
0.4821048
0.4111089
0.3251696
0.6723179
0.6456735
0.6141512
0.5762347
0.5296983
0.4713701
0.3965624
0.3019579
0.6927661
0.6694792
0.6422554
0.609973
0.5710282
0.5231953
0.463078
0.3851565
0.2837587
0.711579
0.6911594
0.6675445
0.6398988
0.6070599
0.5674773
0.5188487
0.4574407
0.3773885
0.2714713
0.7287318
0.7107436
0.6901402
0.6662925
0.6383453
0.6052029
0.5652867
0.5161022
0.4538721
0.3724646
0.2581186
0.7443007
0.7283708
0.710281
0.6895504
0.6655397
0.6374598
0.6042049
0.5640642
0.5145654
0.4518687
0.36602
0.2484498
0.7584397
0.7442596
0.7282791
0.7101259
0.6893141
0.665266
0.6371886
0.6038768
0.5636585
0.5140493
0.4485493
0.3617849
0.2408847
0.7713337
0.7586518
0.744457
0.7284574
0.7102784
0.6894901
0.6655136
0.6374771
0.6042177
0.5640682
0.5125456
0.4467954
0.3589032
0.2348894
0.7831752
0.7717893
0.7591233
0.7449458
0.7289647
0.7108562
0.6901908
0.6663249
0.6384285
0.6053507
0.563851
0.5123589
0.4460725
0.3571265
0.2296645
0.7941572
0.783906
0.7725661
0.7599528
0.7458361
0.7299701
0.7120322
0.6915393
0.6678881
0.6402646
0.6062422
0.564937
0.5132067
0.4462918
0.3558497
0.2205206
0.8044461
0.7952009
0.7850268
0.7737757
0.7612655
0.7473085
0.7316607
0.7139552
0.6937476
0.6704526
0.6422225
0.6086083
0.5674605
0.515604
0.4474848
0.3496441
0.2105739
0.814075
0.805722
0.7965746
0.7865136
0.7753941
0.7630715
0.7493605
0.7339803
0.7166002
0.6967938
0.6731806
0.645765
0.6133254
0.5743819
0.5269367
0.8227811
0.8151937
0.8069206
0.7978645
0.7879085
0.7769398
0.7648149
0.7513145
0.7361863
0.7191115
0.6990136
0.676079
0.6494869
0.6182928
0.5812075
0.8305353
0.8235971
0.8160604
0.8078446
0.7988539
0.7889984
0.7781651
0.7661783
0.7528409
0.7379075
0.720504
0.7008824
0.6784422
0.6525223
0.6222349
0.8374277
0.8310412
0.8241266
0.8166164
0.8084303
0.799496
0.7897225
0.7789661
0.7670692
0.753838
0.7385418
0.721455
0.7021184
0.6800487
0.6546121
0.84357
0.8376552
0.83127
0.8243567
0.8168474
0.8086828
0.7997885
0.7900447
0.7793228
0.7674663
0.7538507
0.7387554
0.7218176
0.7026726
0.6808511
0.5573451
0.5072684
0.4455591
0.3785342
0.5965923
0.5553422
0.5045716
0.4417469
0.3725705
0.6281514
0.5934229
0.5513111
0.4992892
0.4344378
0.3614754
0.6540969
0.6242743
0.5886356
0.5452664
0.4914103
0.4237889
0.3452332
0.675972
0.6499627
0.6192678
0.5824605
0.5374671
0.4814005
0.4103188
0.3240544
0.6951523
0.6722475
0.64551
0.6138613
0.5757671
0.529116
0.4707349
0.3956898
0.3006668
0.7129249
0.6927047
0.6693383
0.642009
0.6095825
0.5705529
0.5226922
0.4624156
0.3842374
0.2823632
0.7294193
0.7115256
0.6910383
0.6673354
0.6395724
0.6066702
0.5670756
0.5183381
0.4567669
0.376449
0.2644346
0.7445793
0.7286852
0.7106387
0.6899611
0.6660167
0.6380212
0.6048762
0.5648826
0.5155883
0.4531932
0.3678467
0.2512277
0.7584397
0.7442596
0.7282791
0.7101259
0.6893141
0.665266
0.6371886
0.6038768
0.5636585
0.5140493
0.4485493
0.3617849
0.2408847
0.7711104
0.7584032
0.7441786
0.7281432
0.7099211
0.6890796
0.6650369
0.6369163
0.6035473
0.5632509
0.5115272
0.4455163
0.3572454
0.2325734
0.782734
0.7713009
0.7585796
0.744337
0.7282779
0.710075
0.6892936
0.6652832
0.6372031
0.603886
0.5620722
0.5102066
0.4434637
0.3539031
0.2254792
0.7934666
0.7831456
0.7717245
0.7590161
0.7447869
0.7287862
0.7106854
0.6899927
0.6660924
0.6381518
0.6037206
0.56194
0.5096749
0.4422047
0.351272
0.2162791
0.8034695
0.7941303
0.7838476
0.77247
0.7598113
0.7456783
0.7298202
0.71186
0.6913393
0.6676533
0.6389041
0.6046184
0.5626284
0.50986
0.4412997
0.3466479
0.208486
0.8128841
0.8044219
0.7951484
0.784941
0.7736501
0.7611265
0.7471776
0.7315117
0.7137841
0.6935493
0.6693216
0.6408866
0.6066904
0.564547
0.5107859
0.4368759
0.3407164
0.1994841
0.8217324
0.8140536
0.805676
0.7964998
0.7864047
0.7752744
0.7629605
0.7492362
0.7338402
0.7164409
0.6959041
0.672338
0.6448376
0.6123689
0.5735975
0.8297642
0.822762
0.8151528
0.8068542
0.7977684
0.7878035
0.7768435
0.7647083
0.7511958
0.7360533
0.7183802
0.6984078
0.6755108
0.6490053
0.6179846
0.8369429
0.8305179
0.82356
0.8160006
0.8077584
0.7987601
0.788913
0.7780713
0.7660748
0.752726
0.7372824
0.7200138
0.7004513
0.6781019
0.6523193
0.8433438
0.8374118
0.8310073
0.8240722
0.8165381
0.8083455
0.7994192
0.7896387
0.7788742
0.7669679
0.7532909
0.738122
0.721095
0.7018415
0.6798877
0.8490639
0.8435553
0.837624
0.8312199
0.824285
0.81677
0.808613
0.7997127
0.789962
0.7792321
0.7669798
0.7534814
0.7384425
0.7215801
0.7025363
0.5981174
0.5572172
0.5069504
0.4449453
0.3774736
0.6306951
0.5964878
0.5550887
0.5040964
0.440926
0.3714955
0.6572911
0.6280634
0.5932135
0.5509282
0.4986464
0.4335973
0.3605426
0.6794364
0.654021
0.6240964
0.5883163
0.5447435
0.4907461
0.4230553
0.3442335
0.6983076
0.6759048
0.6498073
0.6189932
0.5820194
0.5369207
0.4808132
0.4095283
0.3229365
0.7150051
0.6950918
0.6721089
0.6452682
0.613479
0.575303
0.5286268
0.4700945
0.3948095
0.2993604
0.7306028
0.7128716
0.6925838
0.6691298
0.641684
0.609195
0.5701536
0.522185
0.4617476
0.3833101
0.2754946
0.7451886
0.7293726
0.7114206
0.6908591
0.6670595
0.6392485
0.6063434
0.5666714
0.5178242
0.4560885
0.3718458
0.2573853
0.7586884
0.7445381
0.7285934
0.7104834
0.6897247
0.6657428
0.6377498
0.6045477
0.5644764
0.5150718
0.449872
0.3635568
0.2434823
0.7711104
0.7584032
0.7441786
0.7281432
0.7099211
0.6890796
0.6650369
0.6369163
0.6035473
0.5632509
0.5115272
0.4455163
0.3572454
0.2325734
0.7825323
0.7710776
0.7583311
0.7440586
0.7279639
0.7097178
0.6888834
0.6648069
0.6366428
0.6032164
0.5612595
0.5092237
0.44227
0.3524155
0.2235344
0.7930661
0.7827044
0.7712363
0.7584728
0.7441784
0.7280996
0.7099046
0.6890962
0.6650517
0.6369277
0.6022645
0.5602245
0.507674
0.4398903
0.3485894
0.2134025
0.8028397
0.7934398
0.7830873
0.7716286
0.7588747
0.7446291
0.7286365
0.7105136
0.6897934
0.6658585
0.6367974
0.6021664
0.5598164
0.5067307
0.4380231
0.3438926
0.2060478
0.8119894
0.8034451
0.7940774
0.783761
0.7723431
0.7596706
0.7455457
0.7296692
0.7116864
0.6911378
0.6665021
0.6375528
0.6027372
0.5599755
0.5060547
0.4347353
0.3392645
0.1984205
0.8206369
0.812862
0.8043741
0.7950706
0.7848276
0.7735253
0.7610097
0.7470457
0.7313616
0.7136118
0.6925774
0.6681891
0.6392873
0.6043113
0.5607206
0.5026933
0.4305266
0.3334786
0.1908631
0.8287958
0.8217128
0.8140115
0.8056078
0.796401
0.7862965
0.7751746
0.7628496
0.749112
0.7337002
0.7156664
0.6951789
0.6715503
0.6440381
0.6117263
0.8362285
0.8297466
0.8227244
0.815092
0.8067666
0.797673
0.7877164
0.7767476
0.7646023
0.7510778
0.7354097
0.7178521
0.697918
0.675101
0.6487471
0.8428934
0.8369269
0.8304837
0.823505
0.8159216
0.8076728
0.7986825
0.7888282
0.7779783
0.7659721
0.7521709
0.7368506
0.7196376
0.7001575
0.6779289
0.8488532
0.8433291
0.8373804
0.830957
0.8240001
0.8164604
0.8082754
0.799343
0.7895555
0.7787829
0.7664784
0.752918
0.7378047
0.7208532
0.7017024
0.8541927
0.8490503
0.8435263
0.8375776
0.8311537
0.8242137
0.8167059
0.8085437
0.7996374
0.7898799
0.778794
0.7666493
0.7532033
0.7382331
0.7214611
0.6319633
0.5980139
0.5569666
0.5064813
0.4441371
0.3764218
0.6594403
0.6306087
0.5962827
0.5547145
0.5034704
0.440112
0.3706041
0.6821699
0.6572172
0.6278906
0.5929044
0.5504237
0.4980091
0.4329004
0.3596143
0.7013039
0.6793718
0.6538718
0.6238335
0.5878955
0.5442248
0.4901947
0.4223245
0.3432367
0.7177588
0.6982498
0.6757729
0.6495776
0.6186312
0.5815817
0.5364653
0.4802259
0.4087372
0.3218161
0.7324331
0.7149526
0.6949728
0.671904
0.6449492
0.6130995
0.5749132
0.5281337
0.4694488
0.3939215
0.2929313
0.7462377
0.7305562
0.7127668
0.692405
0.6688548
0.6413615
0.6088695
0.569751
0.5216737
0.4610739
0.3787587
0.268288
0.7592322
0.7451473
0.7292807
0.7112652
0.6906225
0.6667856
0.6389769
0.6060146
0.5662646
0.517307
0.452766
0.367439
0.2492404
0.7713337
0.7586518
0.744457
0.7284574
0.7102784
0.6894901
0.6655136
0.6374771
0.6042177
0.5640682
0.5125456
0.4467954
0.3589032
0.2348894
0.7825323
0.7710776
0.7583311
0.7440586
0.7279639
0.7097178
0.6888834
0.6648069
0.6366428
0.6032164
0.5612595
0.5092237
0.44227
0.3524155
0.2235344
0.792883
0.7825028
0.7710131
0.7582244
0.7439002
0.7277858
0.7095476
0.6886863
0.6645759
0.6363681
0.6015994
0.5594412
0.5067584
0.4388211
0.3473193
0.2119718
0.8024744
0.7930393
0.7826462
0.7711405
0.7583316
0.7440209
0.7279504
0.7097334
0.6888978
0.6648191
0.6355816
0.6007636
0.5582236
0.5049587
0.4360992
0.3419666
0.2041526
0.8114126
0.8028153
0.793387
0.7830007
0.7715017
0.7587341
0.7444968
0.7284859
0.7103407
0.6895929
0.6647137
0.6355061
0.6004392
0.5574876
0.5035507
0.4327634
0.3375349
0.196992
0.8198142
0.8119671
0.8033969
0.7939988
0.7836465
0.772217
0.7595525
0.7454122
0.729517
0.7115115
0.69015
0.6653585
0.6359874
0.6005763
0.556962
0.5010603
0.4294784
0.3325991
0.1902264
0.8277848
0.8206166
0.8128183
0.8043032
0.7949678
0.784715
0.7734205
0.7608921
0.7469128
0.7312103
0.712767
0.6916042
0.6668333
0.6373042
0.60119
0.5543073
0.4978755
0.4253795
0.3274762
0.1841309
0.8353317
0.8287777
0.8216741
0.8139491
0.8055177
0.7963027
0.7862064
0.775075
0.7627387
0.748988
0.7330194
0.7150351
0.6945009
0.6708714
0.6435011
0.8422297
0.8362123
0.8297119
0.8226685
0.8150117
0.8066795
0.7975939
0.7876298
0.7766523
0.7644969
0.7505068
0.7349451
0.7174252
0.6975648
0.6748813
0.8484335
0.8428785
0.8368953
0.830433
0.8234323
0.8158431
0.8076019
0.7986054
0.788744
0.7778858
0.7654756
0.7517876
0.7365193
0.7193813
0.7000082
0.8539959
0.8488395
0.8433
0.8373339
0.8308905
0.8239286
0.816396
0.8082057
0.7992673
0.7894729
0.7783423
0.7661448
0.7526361
0.7375917
0.7207318
0.8589912
0.85418
0.8490232
0.8434832
0.8375162
0.8310879
0.8241548
0.8166424
0.8084749
0.7995627
0.7894833
0.7784966
0.7664005
0.7530173
0.7381282
0.6605129
0.6318777
0.5978109
0.5565966
0.5058634
0.4433357
0.3755497
0.6840114
0.6593676
0.6304392
0.5959799
0.5542215
0.5028497
0.4394372
0.3697175
0.7036713
0.6821069
0.657072
0.6276354
0.592497
0.5499235
0.4974808
0.4322072
0.3586904
0.7203773
0.7012482
0.6792448
0.6536512
0.6234869
0.5874781
0.5437944
0.4896457
0.4215965
0.3422429
0.7348585
0.7177086
0.6981363
0.6755777
0.6492747
0.618272
0.581217
0.5360099
0.4796384
0.4079457
0.3163538
0.7478612
0.7323871
0.7148492
0.6947967
0.6716335
0.6446326
0.6127808
0.5745203
0.5276367
0.4687977
0.3895631
0.286094
0.760169
0.7461965
0.7304643
0.7126116
0.6921689
0.6685817
0.6410905
0.6085413
0.5693452
0.5211581
0.457769
0.3742144
0.259584
0.7718222
0.7591955
0.7450661
0.7291445
0.71106
0.6903877
0.6665559
0.6387035
0.6056837
0.5658553
0.5147742
0.4495961
0.3625291
0.2399883
0.782734
0.7713009
0.7585796
0.744337
0.7282779
0.710075
0.6892936
0.6652832
0.6372031
0.603886
0.5620722
0.5102066
0.4434637
0.3539031
0.2254792
0.792883
0.7825028
0.7710131
0.7582244
0.7439002
0.7277858
0.7095476
0.6886863
0.6645759
0.6363681
0.6015994
0.5594412
0.5067584
0.4388211
0.3473193
0.2119718
0.8023074
0.7928563
0.7824447
0.7709175
0.7580834
0.7437429
0.7276368
0.7093768
0.6884885
0.664344
0.6350262
0.6001231
0.5574948
0.50414
0.435187
0.3409902
0.2031474
0.8110781
0.80245
0.7929866
0.7825599
0.771014
0.7581914
0.743889
0.7278005
0.7095614
0.6886985
0.6636821
0.6343356
0.5991381
0.5560789
0.5020799
0.431381
0.3361615
0.1957768
0.819284
0.8113903
0.8027672
0.7933086
0.7828864
0.7713758
0.7586163
0.7443637
0.7283344
0.7101668
0.6886116
0.6636223
0.634071
0.5985456
0.554974
0.4995558
0.4282287
0.3314295
0.1893275
0.8270257
0.8197937
0.811923
0.8033254
0.793895
0.7835327
0.7721111
0.7594335
0.7452776
0.7293636
0.7106539
0.6891688
0.6640338
0.6341898
0.5981236
0.5530122
0.4970727
0.4247309
0.3268281
0.1836871
0.8343957
0.827766
0.8205765
0.8127534
0.8042095
0.7948656
0.7846204
0.773315
0.7607736
0.7467789
0.7304688
0.7119211
0.6904392
0.6651528
0.6347048
0.5959671
0.5505038
0.4939802
0.4211092
0.3225461
0.1789507
0.8413967
0.835315
0.8287421
0.8216167
0.8138665
0.8054281
0.7962209
0.7861164
0.7749754
0.762628
0.7483847
0.7324647
0.7144451
0.6939167
0.6704153
0.8478154
0.8422146
0.8361801
0.8296603
0.8225946
0.8149319
0.8066073
0.7975152
0.7875436
0.7765575
0.7639867
0.7500947
0.7345696