/*--------------------------------*- C++ -*----------------------------------*\
| =========                 |                                                 |
| \\      /  F ield         | OpenFOAM: The Open Source CFD Toolbox           |
|  \\    /   O peration     | Version:  2306                                  |
|   \\  /    A nd           | Website:  www.openfoam.com                      |
|    \\/     M anipulation  |                                                 |
\*---------------------------------------------------------------------------*/
FoamFile
{
    version     2.0;
    format      ascii;
    arch        "LSB;label=32;scalar=64";
    class       volScalarField;
    location    "1.2/fuel";
    object      iDmdtfuel.H2;
}
// * * * * * * * * * * * * * * * * * * * * * * * * * * * * * * * * * * * * * //

dimensions      [1 -3 -1 0 0 0 0];

internalField   nonuniform List<scalar> 
16000
(
-9.530014
-9.614749
-8.726922
-9.086445
-9.785728
-8.782148
-9.164897
-8.047412
-8.341656
-8.773954
-10.04301
-8.890786
-9.323091
-8.089632
-8.393038
-8.848241
-7.501643
-7.709277
-8.067992
-8.582403
-10.37685
-9.047016
-9.560903
-8.171702
-8.494061
-8.99801
-7.536163
-7.748718
-8.116764
-8.6544
-7.047997
-7.199872
-7.467633
-7.897909
-8.50158
-10.73612
-9.235955
-9.869131
-8.287226
-8.639237
-9.223126
-7.602762
-7.825353
-8.212633
-8.799596
-7.077278
-7.232227
-7.505159
-7.945169
-8.572925
-6.657841
-6.775389
-6.983293
-7.316006
-7.823316
-0
-11.00528
-9.420067
-10.20041
-8.422027
-8.81466
-9.514957
-7.695237
-7.933157
-8.350373
-9.017999
-7.133473
-7.294622
-7.578054
-8.038077
-8.716922
-6.683252
-6.802911
-7.01414
-7.352389
-7.87003
-0
-6.315257
-6.409491
-6.579112
-6.846522
-7.247895
-0
-0
-11.1733
-9.543867
-10.44765
-8.546099
-8.985433
-9.828774
-7.800619
-8.05885
-8.516794
-9.301567
-7.210751
-7.381208
-7.680569
-8.171598
-8.933851
-6.731827
-6.855707
-7.073614
-7.423064
-7.961901
-0
-6.337688
-6.433434
-6.6054
-6.876455
-7.28382
-0
-0
-6.009386
-6.087543
-6.230224
-6.454596
-6.784193
-0
-0
-0
-11.26726
-9.612486
-10.60145
-8.622751
-9.099912
-10.06236
-7.893826
-8.174419
-8.678797
-9.607217
-7.297314
-7.479796
-7.80006
-8.333035
-9.216299
-6.798141
-6.928267
-7.156117
-7.522465
-8.094031
-0
-6.380435
-6.479184
-6.655817
-6.934162
-7.35362
-0
-0
-6.029433
-6.108725
-6.253133
-6.480128
-6.813741
-0
-0
-0
-5.733153
-5.799542
-5.922828
-6.116107
-6.397316
-0
-0
-0
-0
-11.30895
-9.646982
-10.68725
-8.659885
-9.163191
-10.20737
-7.947713
-8.245604
-8.787103
-9.834412
-7.371612
-7.566889
-7.909878
-8.490339
-9.521966
-6.87144
-7.009473
-7.250017
-7.63836
-8.254012
-0
-6.438456
-6.541601
-6.725082
-7.014212
-7.451832
-0
-0
-6.067542
-6.149073
-6.296894
-6.529089
-6.870711
-0
-0
-0
-5.751248
-5.81851
-5.943126
-6.138377
-6.42252
-0
-0
-0
-0
-5.481305
-5.538976
-5.647484
-5.81769
-6.063267
-0
-0
-0
-0
-0
-11.30895
-9.661168
-10.72526
-8.675423
-9.194937
-10.28817
-7.970586
-8.279979
-8.846854
-9.975394
-7.412305
-7.617076
-7.977312
-8.595263
-9.749167
-6.932865
-7.079073
-7.332901
-7.744897
-8.410189
-0
-6.50191
-6.610528
-6.802557
-7.105322
-7.566431
-0
-0
-6.119024
-6.203805
-6.356575
-6.596348
-6.949759
-0
-0
-0
-5.785575
-5.854553
-5.98178
-6.180912
-6.470856
-0
-0
-0
-0
-5.497765
-5.556128
-5.665687
-5.837439
-6.085254
-0
-0
-0
-0
-0
-5.250005
-5.301004
-5.398058
-5.550212
-5.768775
-0
-0
-0
-0
-0
-0
-11.26726
-9.661168
-10.72526
-8.680703
-9.207975
-10.32395
-7.977949
-8.294311
-8.876806
-10.05397
-7.42746
-7.638282
-8.009781
-8.653096
-9.890307
-6.964992
-7.117053
-7.38049
-7.810113
-8.514176
-0
-6.55405
-6.668195
-6.868886
-7.185718
-7.671863
-0
-0
-6.17483
-6.263601
-6.422438
-6.671567
-7.039767
-0
-0
-0
-5.831764
-5.903213
-6.034192
-6.238913
-6.537264
-0
-0
-0
-0
-5.528939
-5.588655
-5.700266
-5.875043
-6.127253
-0
-0
-0
-0
-0
-5.265078
-5.316634
-5.41454
-5.567938
-5.788279
-0
-0
-0
-0
-0
-0
-5.036257
-5.082094
-5.169983
-5.307747
-5.504795
-0
-0
-0
-0
-0
-0
-0
-11.1733
-9.646982
-10.68725
-8.680703
-9.207975
-10.32395
-7.9795
-8.299163
-8.889106
-10.08879
-7.43068
-7.645049
-8.023287
-8.682104
-9.969124
-6.975464
-7.131104
-7.400504
-7.841444
-8.571493
-0
-6.580251
-6.698232
-6.904928
-7.231699
-7.736206
-0
-0
-6.219924
-6.312646
-6.477466
-6.735919
-7.119201
-0
-0
-0
-5.881453
-5.955903
-6.091413
-6.302904
-6.61155
-0
-0
-0
-0
-5.57074
-5.632391
-5.746929
-5.926021
-6.184526
-0
-0
-0
-0
-0
-5.293582
-5.346223
-5.445786
-5.601605
-5.825417
-0
-0
-0
-0
-0
-0
-5.050135
-5.096429
-5.185021
-5.32381
-5.522306
-0
-0
-0
-0
-0
-0
-0
-4.837728
-4.879481
-4.959933
-5.085887
-5.265464
-0
-0
-0
-0
-0
-0
-0
-0
-11.00528
-9.612486
-10.60145
-8.675423
-9.194937
-10.28817
-7.9795
-8.299163
-8.889106
-10.08879
-7.43043
-7.646446
-8.02785
-8.694031
-10.0041
-6.976355
-7.134017
-7.406841
-7.854464
-8.600302
-0
-6.587687
-6.707927
-6.918167
-7.250952
-7.767065
-0
-0
-6.241785
-6.337177
-6.505991
-6.770726
-7.164445
-0
-0
-0
-5.921027
-5.998396
-6.138271
-6.356314
-6.675078
-0
-0
-0
-0
-5.615412
-5.679391
-5.797419
-5.981657
-6.24772
-0
-0
-0
-0
-0
-5.331687
-5.385872
-5.487783
-5.647029
-5.875767
-0
-0
-0
-0
-0
-0
-5.076346
-5.123526
-5.21348
-5.354256
-5.555565
-0
-0
-0
-0
-0
-0
-0
-4.850566
-4.892699
-4.97374
-5.100553
-5.281337
-0
-0
-0
-0
-0
-0
-0
-0
-4.652542
-4.691015
-4.765301
-4.881421
-5.046428
-0
-0
-0
-0
-0
-0
-0
-0
-0
-10.73612
-9.543867
-10.44765
-8.659885
-9.163191
-10.20737
-7.977949
-8.294311
-8.876806
-10.05397
-7.43043
-7.646446
-8.02785
-8.694031
-10.0041
-6.975154
-7.133733
-7.408124
-7.858864
-8.612177
-0
-6.587193
-6.708665
-6.920844
-7.257009
-7.779895
-0
-0
-6.24713
-6.344044
-6.515102
-6.783419
-7.18331
-0
-0
-0
-5.93959
-6.018888
-6.161583
-6.383854
-6.709271
-0
-0
-0
-0
-5.650533
-5.716742
-5.838064
-6.027161
-6.300427
-0
-0
-0
-0
-0
-5.372169
-5.428195
-5.532876
-5.696156
-5.930717
-0
-0
-0
-0
-0
-0
-5.111291
-5.159726
-5.251599
-5.39517
-5.600441
-0
-0
-0
-0
-0
-0
-0
-4.874787
-4.917654
-4.999834
-5.128305
-5.311425
-0
-0
-0
-0
-0
-0
-0
-0
-4.664466
-4.70326
-4.778048
-4.894897
-5.060926
-0
-0
-0
-0
-0
-0
-0
-0
-0
-4.479156
-4.514967
-4.584065
-4.691837
-4.84452
-0
-0
-0
-0
-0
-0
-0
-0
-0
-0
-10.37685
-9.420067
-10.20041
-8.622751
-9.099912
-10.06236
-7.970586
-8.279979
-8.846854
-9.975394
-7.43068
-7.645049
-8.023287
-8.682104
-9.969124
-6.975154
-7.133733
-7.408124
-7.858864
-8.612177
-0
-6.585472
-6.707488
-6.920526
-7.258218
-7.78424
-0
-0
-6.245765
-6.343483
-6.51571
-6.785926
-7.189216
-0
-0
-0
-5.943434
-6.023802
-6.168012
-6.392556
-6.721649
-0
-0
-0
-0
-5.666506
-5.734161
-5.85755
-6.049667
-6.327452
-0
-0
-0
-0
-0
-5.403629
-5.461394
-5.568643
-5.73565
-5.975616
-0
-0
-0
-0
-0
-0
-5.148221
-5.19814
-5.292254
-5.439079
-5.648973
-0
-0
-0
-0
-0
-0
-0
-4.907001
-4.950902
-5.034678
-5.165468
-5.351856
-0
-0
-0
-0
-0
-0
-0
-0
-4.686944
-4.726353
-4.802105
-4.920361
-5.08836
-0
-0
-0
-0
-0
-0
-0
-0
-0
-4.490272
-4.526355
-4.595885
-4.704286
-4.857846
-0
-0
-0
-0
-0
-0
-0
-0
-0
-0
-4.316286
-4.349913
-4.414594
-4.515185
-4.657263
-0
-0
-0
-0
-0
-0
-0
-0
-0
-0
-10.04301
-9.235955
-9.869131
-8.546099
-8.985433
-9.828774
-7.947713
-8.245604
-8.787103
-9.834412
-7.42746
-7.638282
-8.009781
-8.653096
-9.890307
-6.976355
-7.134017
-7.406841
-7.854464
-8.600302
-0
-6.585472
-6.707488
-6.920526
-7.258218
-7.78424
-0
-0
-6.243751
-6.341815
-6.51454
-6.785577
-7.190382
-0
-0
-0
-5.941507
-6.022423
-6.167383
-6.393056
-6.724039
-0
-0
-0
-0
-5.669236
-5.737672
-5.862126
-6.055778
-6.335897
-0
-0
-0
-0
-0
-5.417525
-5.476398
-5.585217
-5.754463
-5.997686
-0
-0
-0
-0
-0
-0
-5.17662
-5.227921
-5.324079
-5.473853
-5.687943
-0
-0
-0
-0
-0
-0
-0
-4.940881
-4.985996
-5.071619
-5.205085
-5.395244
-0
-0
-0
-0
-0
-0
-0
-0
-4.716772
-4.757045
-4.834142
-4.954355
-5.125096
-0
-0
-0
-0
-0
-0
-0
-0
-0
-4.511211
-4.547815
-4.618171
-4.727779
-4.883025
-0
-0
-0
-0
-0
-0
-0
-0
-0
-0
-4.326682
-4.360543
-4.425598
-4.526737
-4.669577
-0
-0
-0
-0
-0
-0
-0
-0
-0
-0
-4.162862
-4.194668
-4.255547
-4.349894
-4.482735
-0
-0
-0
-0
-0
-0
-0
-0
-0
-0
-9.785728
-9.047016
-9.560903
-8.422027
-8.81466
-9.514957
-7.893826
-8.174419
-8.678797
-9.607217
-7.412305
-7.617076
-7.977312
-8.595263
-9.749167
-6.975464
-7.131104
-7.400504
-7.841444
-8.571493
-0
-6.587193
-6.708665
-6.920844
-7.257009
-7.779895
-0
-0
-6.243751
-6.341815
-6.51454
-6.785577
-7.190382
-0
-0
-0
-5.939329
-6.020476
-6.165743
-6.391881
-6.72366
-0
-0
-0
-0
-5.666935
-5.735762
-5.860718
-6.055082
-6.336307
-0
-0
-0
-0
-0
-5.419409
-5.478866
-5.588462
-5.758788
-6.003586
-0
-0
-0
-0
-0
-0
-5.188819
-5.240985
-5.338363
-5.489856
-5.706384
-0
-0
-0
-0
-0
-0
-0
-4.966683
-5.012915
-5.100197
-5.236045
-5.429562
-0
-0
-0
-0
-0
-0
-0
-0
-4.748006
-4.789285
-4.867927
-4.990378
-5.164253
-0
-0
-0
-0
-0
-0
-0
-0
-0
-4.53894
-4.576272
-4.647775
-4.759056
-4.91664
-0
-0
-0
-0
-0
-0
-0
-0
-0
-0
-4.346254
-4.380559
-4.446327
-4.548513
-4.692814
-0
-0
-0
-0
-0
-0
-0
-0
-0
-0
-4.172613
-4.204622
-4.265828
-4.360655
-4.494165
-0
-0
-0
-0
-0
-0
-0
-0
-0
-0
-4.017986
-4.048244
-4.105807
-4.194674
-4.31939
-0
-0
-0
-0
-0
-0
-0
-0
-0
-0
-9.614749
-8.890786
-9.323091
-8.287226
-8.639237
-9.223126
-7.800619
-8.05885
-8.516794
-9.301567
-7.371612
-7.566889
-7.909878
-8.490339
-9.521966
-6.964992
-7.117053
-7.38049
-7.810113
-8.514176
-0
-6.587687
-6.707927
-6.918167
-7.250952
-7.767065
-0
-0
-6.245765
-6.343483
-6.51571
-6.785926
-7.189216
-0
-0
-0
-5.939329
-6.020476
-6.165743
-6.391881
-6.72366
-0
-0
-0
-0
-5.664672
-5.733659
-5.858811
-6.053449
-6.335111
-0
-0
-0
-0
-0
-5.41686
-5.476602
-5.586547
-5.757337
-6.002819
-0
-0
-0
-0
-0
-0
-5.190047
-5.24266
-5.340618
-5.492898
-5.710532
-0
-0
-0
-0
-0
-0
-0
-4.977474
-5.024393
-5.11264
-5.249838
-5.445243
-0
-0
-0
-0
-0
-0
-0
-0
-4.771584
-4.813774
-4.893784
-5.018195
-5.194813
-0
-0
-0
-0
-0
-0
-0
-0
-0
-4.567861
-4.606033
-4.678844
-4.792023
-4.952255
-0
-0
-0
-0
-0
-0
-0
-0
-0
-0
-4.372125
-4.407047
-4.473804
-4.577435
-4.723752
-0
-0
-0
-0
-0
-0
-0
-0
-0
-0
-4.190961
-4.223353
-4.285181
-4.380924
-4.515711
-0
-0
-0
-0
-0
-0
-0
-0
-0
-0
-4.027157
-4.05759
-4.115443
-4.204734
-4.33004
-0
-0
-0
-0
-0
-0
-0
-0
-0
-0
-3.880884
-3.909811
-3.964444
-4.048448
-4.165957
-0
-0
-0
-0
-0
-0
-0
-0
-0
-0
-9.530014
-8.782148
-9.164897
-8.171702
-8.494061
-8.99801
-7.695237
-7.933157
-8.350373
-9.017999
-7.297314
-7.479796
-7.80006
-8.333035
-9.216299
-6.932865
-7.079073
-7.332901
-7.744897
-8.410189
-0
-6.580251
-6.698232
-6.904928
-7.231699
-7.736206
-0
-0
-6.24713
-6.344044
-6.515102
-6.783419
-7.18331
-0
-0
-0
-5.941507
-6.022423
-6.167383
-6.393056
-6.724039
-0
-0
-0
-0
-5.664672
-5.733659
-5.858811
-6.053449
-6.335111
-0
-0
-0
-0
-0
-5.414559
-5.474415
-5.584489
-5.755445
-6.001172
-0
-0
-0
-0
-0
-0
-5.187337
-5.240162
-5.338366
-5.490959
-5.709026
-0
-0
-0
-0
-0
-0
-0
-4.978189
-5.025453
-5.114142
-5.251927
-5.448137
-0
-0
-0
-0
-0
-0
-0
-0
-4.781193
-4.823935
-4.904721
-5.030214
-5.208327
-0
-0
-0
-0
-0
-0
-0
-0
-0
-4.589513
-4.628438
-4.702389
-4.817206
-4.979719
-0
-0
-0
-0
-0
-0
-0
-0
-0
-0
-4.399007
-4.434638
-4.502512
-4.607771
-4.756355
-0
-0
-0
-0
-0
-0
-0
-0
-0
-0
-4.215174
-4.248096
-4.31078
-4.407784
-4.544327
-0
-0
-0
-0
-0
-0
-0
-0
-0
-0
-4.044405
-4.075171
-4.13357
-4.223668
-4.3501
-0
-0
-0
-0
-0
-0
-0
-0
-0
-0
-3.889529
-3.918611
-3.973499
-4.057882
-4.175916
-0
-0
-0
-0
-0
-0
-0
-0
-0
-0
-3.750887
-3.778655
-3.830677
-3.910321
-4.021377
-0
-0
-0
-0
-0
-0
-0
-0
-0
-0
-8.726922
-9.086445
-8.089632
-8.393038
-8.848241
-7.602762
-7.825353
-8.212633
-8.799596
-7.210751
-7.381208
-7.680569
-8.171598
-8.933851
-6.87144
-7.009473
-7.250017
-7.63836
-8.254012
-0
-6.55405
-6.668195
-6.868886
-7.185718
-7.671863
-0
-0
-6.241785
-6.337177
-6.505991
-6.770726
-7.164445
-0
-0
-0
-5.943434
-6.023802
-6.168012
-6.392556
-6.721649
-0
-0
-0
-0
-5.666935
-5.735762
-5.860718
-6.055082
-6.336307
-0
-0
-0
-0
-0
-5.414559
-5.474415
-5.584489
-5.755445
-6.001172
-0
-0
-0
-0
-0
-0
-5.185029
-5.237937
-5.336227
-5.488921
-5.707125
-0
-0
-0
-0
-0
-0
-0
-4.975378
-5.022802
-5.111666
-5.249663
-5.446154
-0
-0
-0
-0
-0
-0
-0
-0
-4.781502
-4.824514
-4.905641
-5.031578
-5.210289
-0
-0
-0
-0
-0
-0
-0
-0
-0
-4.598122
-4.637492
-4.712076
-4.827773
-4.991492
-0
-0
-0
-0
-0
-0
-0
-0
-0
-0
-4.418982
-4.455237
-4.524072
-4.630717
-4.781225
-0
-0
-0
-0
-0
-0
-0
-0
-0
-0
-0
-4.240248
-4.273772
-4.337419
-4.435832
-4.574337
-0
-0
-0
-0
-0
-0
-0
-0
-0
-0
-4.067132
-4.098355
-4.157504
-4.248708
-4.376683
-0
-0
-0
-0
-0
-0
-0
-0
-0
-0
-3.905785
-3.935156
-3.990528
-4.075627
-4.19466
-0
-0
-0
-0
-0
-0
-0
-0
-0
-0
-3.759054
-3.786959
-3.839209
-3.919191
-4.030718
-0
-0
-0
-0
-0
-0
-0
-0
-0
-0
-3.627399
-3.654158
-3.703831
-3.77954
-3.884768
-0
-0
-0
-0
-0
-0
-0
-0
-0
-0
-8.047412
-8.341656
-8.773954
-7.536163
-7.748718
-8.116764
-8.6544
-7.133473
-7.294622
-7.578054
-8.038077
-8.716922
-6.798141
-6.928267
-7.156117
-7.522465
-8.094031
-0
-6.50191
-6.610528
-6.802557
-7.105322
-7.566431
-0
-0
-6.219924
-6.312646
-6.477466
-6.735919
-7.119201
-0
-0
-0
-5.93959
-6.018888
-6.161583
-6.383854
-6.709271
-0
-0
-0
-0
-5.669236
-5.737672
-5.862126
-6.055778
-6.335897
-0
-0
-0
-0
-0
-5.41686
-5.476602
-5.586547
-5.757337
-6.002819
-0
-0
-0
-0
-0
-0
-5.185029
-5.237937
-5.336227
-5.488921
-5.707125
-0
-0
-0
-0
-0
-0
-0
-4.973085
-5.020569
-5.109491
-5.247546
-5.44411
-0
-0
-0
-0
-0
-0
-0
-0
-4.778634
-4.821766
-4.903019
-5.029098
-5.20799
-0
-0
-0
-0
-0
-0
-0
-0
-0
-4.598108
-4.637691
-4.712539
-4.828576
-4.992747
-0
-0
-0
-0
-0
-0
-0
-0
-0
-0
-4.426738
-4.463354
-4.532708
-4.640077
-4.791574
-0
-0
-0
-0
-0
-0
-0
-0
-0
-0
-0
-4.25875
-4.292797
-4.357259
-4.456855
-4.597002
-0
-0
-0
-0
-0
-0
-0
-0
-0
-0
-0
-0
-4.090593
-4.122332
-4.182317
-4.27475
-4.404438
-0
-0
-0
-0
-0
-0
-0
-0
-0
-0
-3.927172
-3.956941
-4.012973
-4.099051
-4.219449
-0
-0
-0
-0
-0
-0
-0
-0
-0
-0
-3.77441
-3.802568
-3.855247
-3.93587
-4.04829
-0
-0
-0
-0
-0
-0
-0
-0
-0
-0
-3.635132
-3.662011
-3.711889
-3.787903
-3.893555
-0
-0
-0
-0
-0
-0
-0
-0
-0
-0
-3.509911
-3.535768
-3.583324
-3.655458
-3.755394
-0
-0
-0
-0
-0
-0
-0
-0
-0
-0
-7.501643
-7.709277
-8.067992
-8.582403
-7.077278
-7.232227
-7.505159
-7.945169
-8.572925
-6.731827
-6.855707
-7.073614
-7.423064
-7.961901
-0
-6.438456
-6.541601
-6.725082
-7.014212
-7.451832
-0
-0
-6.17483
-6.263601
-6.422438
-6.671567
-7.039767
-0
-0
-0
-5.921027
-5.998396
-6.138271
-6.356314
-6.675078
-0
-0
-0
-0
-5.666506
-5.734161
-5.85755
-6.049667
-6.327452
-0
-0
-0
-0
-0
-5.419409
-5.478866
-5.588462
-5.758788
-6.003586
-0
-0
-0
-0
-0
-0
-5.187337
-5.240162
-5.338366
-5.490959
-5.709026
-0
-0
-0
-0
-0
-0
-0
-4.973085
-5.020569
-5.109491
-5.247546
-5.44411
-0
-0
-0
-0
-0
-0
-0
-0
-4.776369
-4.819546
-4.900835
-5.026946
-5.205871
-0
-0
-0
-0
-0
-0
-0
-0
-0
-4.595215
-4.634888
-4.709825
-4.825957
-4.99024
-0
-0
-0
-0
-0
-0
-0
-0
-0
-0
-4.426468
-4.46325
-4.532809
-4.640441
-4.792284
-0
-0
-0
-0
-0
-0
-0
-0
-0
-0
-0
-4.265772
-4.300114
-4.365004
-4.465201
-4.60617
-0
-0
-0
-0
-0
-0
-0
-0
-0
-0
-0
-0
-4.107793
-4.139972
-4.200655
-4.294107
-4.42521
-0
-0
-0
-0
-0
-0
-0
-0
-0
-0
-0
-0
-0
-3.949188
-3.9794
-4.036163
-4.123323
-4.245226
-0
-0
-0
-0
-0
-0
-0
-0
-0
-0
-3.794587
-3.823091
-3.876355
-3.957849
-4.071486
-0
-0
-0
-0
-0
-0
-0
-0
-0
-0
-3.649669
-3.676771
-3.727032
-3.803621
-3.910075
-0
-0
-0
-0
-0
-0
-0
-0
-0
-0
-3.517246
-3.54321
-3.59095
-3.66336
-3.763679
-0
-0
-0
-0
-0
-0
-0
-0
-0
-0
-3.397985
-3.423014
-3.468637
-3.537513
-3.632615
-0
-0
-0
-0
-0
-0
-0
-0
-0
-0
-7.047997
-7.199872
-7.467633
-7.897909
-8.50158
-6.683252
-6.802911
-7.01414
-7.352389
-7.87003
-0
-6.380435
-6.479184
-6.655817
-6.934162
-7.35362
-0
-0
-6.119024
-6.203805
-6.356575
-6.596348
-6.949759
-0
-0
-0
-5.881453
-5.955903
-6.091413
-6.302904
-6.61155
-0
-0
-0
-0
-5.650533
-5.716742
-5.838064
-6.027161
-6.300427
-0
-0
-0
-0
-0
-5.417525
-5.476398
-5.585217
-5.754463
-5.997686
-0
-0
-0
-0
-0
-0
-5.190047
-5.24266
-5.340618
-5.492898
-5.710532
-0
-0
-0
-0
-0
-0
-0
-4.975378
-5.022802
-5.111666
-5.249663
-5.446154
-0
-0
-0
-0
-0
-0
-0
-0
-4.776369
-4.819546
-4.900835
-5.026946
-5.205871
-0
-0
-0
-0
-0
-0
-0
-0
-0
-4.592988
-4.632694
-4.707652
-4.823797
-4.988087
-0
-0
-0
-0
-0
-0
-0
-0
-0
-0
-4.423575
-4.460423
-4.530043
-4.637734
-4.789642
-0
-0
-0
-0
-0
-0
-0
-0
-0
-0
-0
-4.265298
-4.29977
-4.364818
-4.465218
-4.606452
-0
-0
-0
-0
-0
-0
-0
-0
-0
-0
-0
-0
-4.11418
-4.146601
-4.20764
-4.301593
-4.433384
-0
-0
-0
-0
-0
-0
-0
-0
-0
-0
-0
-0
-0
-3.965231
-3.995816
-4.053181
-4.141224
-4.264356
-0
-0
-0
-0
-0
-0
-0
-0
-0
-0
-0
-0
-0
-0
-3.8153
-3.844188
-3.898095
-3.980545
-4.095516
-0
-0
-0
-0
-0
-0
-0
-0
-0
-0
-3.668748
-3.696151
-3.746933
-3.824301
-3.931845
-0
-0
-0
-0
-0
-0
-0
-0
-0
-0
-3.531036
-3.557197
-3.60528
-3.678207
-3.779251
-0
-0
-0
-0
-0
-0
-0
-0
-0
-0
-3.404955
-3.43008
-3.475869
-3.544995
-3.640445
-0
-0
-0
-0
-0
-0
-0
-0
-0
-0
-3.29121
-3.31549
-3.359324
-3.425206
-3.515881
-0
-0
-0
-0
-0
-0
-0
-0
-0
-0
-6.657841
-6.775389
-6.983293
-7.316006
-7.823316
-0
-6.337688
-6.433434
-6.6054
-6.876455
-7.28382
-0
-0
-6.067542
-6.149073
-6.296894
-6.529089
-6.870711
-0
-0
-0
-5.831764
-5.903213
-6.034192
-6.238913
-6.537264
-0
-0
-0
-0
-5.615412
-5.679391
-5.797419
-5.981657
-6.24772
-0
-0
-0
-0
-0
-5.403629
-5.461394
-5.568643
-5.73565
-5.975616
-0
-0
-0
-0
-0
-0
-5.188819
-5.240985
-5.338363
-5.489856
-5.706384
-0
-0
-0
-0
-0
-0
-0
-4.978189
-5.025453
-5.114142
-5.251927
-5.448137
-0
-0
-0
-0
-0
-0
-0
-0
-4.778634
-4.821766
-4.903019
-5.029098
-5.20799
-0
-0
-0
-0
-0
-0
-0
-0
-0
-4.592988
-4.632694
-4.707652
-4.823797
-4.988087
-0
-0
-0
-0
-0
-0
-0
-0
-0
-0
-4.421394
-4.458264
-4.527895
-4.635586
-4.787483
-0
-0
-0
-0
-0
-0
-0
-0
-0
-0
-0
-4.262422
-4.296943
-4.36203
-4.462463
-4.603727
-0
-0
-0
-0
-0
-0
-0
-0
-0
-0
-0
-0
-4.113545
-4.146066
-4.207228
-4.301335
-4.433329
-0
-0
-0
-0
-0
-0
-0
-0
-0
-0
-0
-0
-0
-3.971066
-4.001849
-4.059511
-4.147977
-4.271688
-0
-0
-0
-0
-0
-0
-0
-0
-0
-0
-0
-0
-0
-0
-3.830311
-3.859516
-3.913945
-3.997166
-4.113213
-0
-0
-0
-0
-0
-0
-0
-0
-0
-0
-0
-0
-0
-0
-0
-3.688286
-3.71602
-3.76737
-3.845589
-3.954322
-0
-0
-0
-0
-0
-0
-0
-0
-0
-0
-3.549113
-3.575541
-3.624087
-3.697716
-3.799741
-0
-0
-0
-0
-0
-0
-0
-0
-0
-0
-3.41806
-3.443359
-3.489459
-3.559053
-3.655159
-0
-0
-0
-0
-0
-0
-0
-0
-0
-0
-3.297844
-3.322211
-3.366195
-3.432305
-3.523297
-0
-0
-0
-0
-0
-0
-0
-0
-0
-0
-3.189249
-3.212817
-3.255005
-3.318107
-3.4047
-0
-0
-0
-0
-0
-0
-0
-0
-0
-0
-6.315257
-6.409491
-6.579112
-6.846522
-7.247895
-0
-0
-6.029433
-6.108725
-6.253133
-6.480128
-6.813741
-0
-0
-0
-5.785575
-5.854553
-5.98178
-6.180912
-6.470856
-0
-0
-0
-0
-5.57074
-5.632391
-5.746929
-5.926021
-6.184526
-0
-0
-0
-0
-0
-5.372169
-5.428195
-5.532876
-5.696156
-5.930717
-0
-0
-0
-0
-0
-0
-5.17662
-5.227921
-5.324079
-5.473853
-5.687943
-0
-0
-0
-0
-0
-0
-0
-4.977474
-5.024393
-5.11264
-5.249838
-5.445243
-0
-0
-0
-0
-0
-0
-0
-0
-4.781502
-4.824514
-4.905641
-5.031578
-5.210289
-0
-0
-0
-0
-0
-0
-0
-0
-0
-4.595215
-4.634888
-4.709825
-4.825957
-4.99024
-0
-0
-0
-0
-0
-0
-0
-0
-0
-0
-4.421394
-4.458264
-4.527895
-4.635586
-4.787483
-0
-0
-0
-0
-0
-0
-0
-0
-0
-0
-0
-4.260292
-4.294827
-4.359916
-4.460339
-4.601581
-0
-0
-0
-0
-0
-0
-0
-0
-0
-0
-0
-0
-4.1107
-4.143255
-4.204439
-4.298559
-4.430558
-0
-0
-0
-0
-0
-0
-0
-0
-0
-0
-0
-0
-0
-3.970304
-4.001163
-4.058918
-4.147502
-4.271366
-0
-0
-0
-0
-0
-0
-0
-0
-0
-0
-0
-0
-0
-0
-3.835664
-3.865031
-3.919708
-4.003287
-4.119826
-0
-0
-0
-0
-0
-0
-0
-0
-0
-0
-0
-0
-0
-0
-0
-3.702375
-3.730376
-3.78218
-3.861077
-3.970757
-0
-0
-0
-0
-0
-0
-0
-0
-0
-0
-0
-0
-0
-0
-0
-0
-3.567583
-3.594301
-3.64335
-3.717738
-3.820828
-0
-0
-0
-0
-0
-0
-0
-0
-0
-0
-3.435223
-3.460756
-3.507273
-3.577498
-3.674491
-0
-0
-0
-0
-0
-0
-0
-0
-0
-0
-3.31032
-3.334843
-3.379107
-3.445642
-3.537231
-0
-0
-0
-0
-0
-0
-0
-0
-0
-0
-3.195574
-3.219219
-3.261544
-3.324855
-3.411738
-0
-0
-0
-0
-0
-0
-0
-0
-0
-0
-3.091751
-3.114682
-3.155318
-3.215851
-3.29865
-0
-0
-0
-0
-0
-0
-0
-0
-0
-0
-6.009386
-6.087543
-6.230224
-6.454596
-6.784193
-0
-0
-0
-5.751248
-5.81851
-5.943126
-6.138377
-6.42252
-0
-0
-0
-0
-5.528939
-5.588655
-5.700266
-5.875043
-6.127253
-0
-0
-0
-0
-0
-5.331687
-5.385872
-5.487783
-5.647029
-5.875767
-0
-0
-0
-0
-0
-0
-5.148221
-5.19814
-5.292254
-5.439079
-5.648973
-0
-0
-0
-0
-0
-0
-0
-4.966683
-5.012915
-5.100197
-5.236045
-5.429562
-0
-0
-0
-0
-0
-0
-0
-0
-4.781193
-4.823935
-4.904721
-5.030214
-5.208327
-0
-0
-0
-0
-0
-0
-0
-0
-0
-4.598108
-4.637691
-4.712539
-4.828576
-4.992747
-0
-0
-0
-0
-0
-0
-0
-0
-0
-0
-4.423575
-4.460423
-4.530043
-4.637734
-4.789642
-0
-0
-0
-0
-0
-0
-0
-0
-0
-0
-0
-4.260292
-4.294827
-4.359916
-4.460339
-4.601581
-0
-0
-0
-0
-0
-0
-0
-0
-0
-0
-0
-0
-4.108623
-4.141185
-4.202366
-4.296468
-4.428437
-0
-0
-0
-0
-0
-0
-0
-0
-0
-0
-0
-0
-0
-3.9675
-3.998382
-4.056146
-4.144727
-4.268577
-0
-0
-0
-0
-0
-0
-0
-0
-0
-0
-0
-0
-0
-0
-3.834801
-3.864226
-3.918973
-4.00264
-4.119294
-0
-0
-0
-0
-0
-0
-0
-0
-0
-0
-0
-0
-0
-0
-0
-3.707308
-3.735439
-3.787451
-3.866651
-3.976752
-0
-0
-0
-0
-0
-0
-0
-0
-0
-0
-0
-0
-0
-0
-0
-0
-3.580841
-3.607788
-3.657231
-3.732218
-3.836147
-0
-0
-0
-0
-0
-0
-0
-0
-0
-0
-0
-0
-0
-0
-0
-0
-0
-3.452723
-3.478508
-3.525474
-3.596379
-3.694331
-0
-0
-0
-0
-0
-0
-0
-0
-0
-0
-3.326645
-3.351375
-3.396014
-3.463122
-3.555514
-0
-0
-0
-0
-0
-0
-0
-0
-0
-0
-3.207472
-3.231255
-3.273834
-3.337532
-3.42496
-0
-0
-0
-0
-0
-0
-0
-0
-0
-0
-3.09779
-3.120791
-3.161552
-3.222276
-3.305341
-0
-0
-0
-0
-0
-0
-0
-0
-0
-0
-2.998469
-3.020758
-3.059972
-3.11809
-3.197373
-0
-0
-0
-0
-0
-0
-0
-0
-0
-0
-5.733153
-5.799542
-5.922828
-6.116107
-6.397316
-0
-0
-0
-0
-5.497765
-5.556128
-5.665687
-5.837439
-6.085254
-0
-0
-0
-0
-0
-5.293582
-5.346223
-5.445786
-5.601605
-5.825417
-0
-0
-0
-0
-0
-0
-5.111291
-5.159726
-5.251599
-5.39517
-5.600441
-0
-0
-0
-0
-0
-0
-0
-4.940881
-4.985996
-5.071619
-5.205085
-5.395244
-0
-0
-0
-0
-0
-0
-0
-0
-4.771584
-4.813774
-4.893784
-5.018195
-5.194813
-0
-0
-0
-0
-0
-0
-0
-0
-0
-4.598122
-4.637492
-4.712076
-4.827773
-4.991492
-0
-0
-0
-0
-0
-0
-0
-0
-0
-0
-4.426468
-4.46325
-4.532809
-4.640441
-4.792284
-0
-0
-0
-0
-0
-0
-0
-0
-0
-0
-0
-4.262422
-4.296943
-4.36203
-4.462463
-4.603727
-0
-0
-0
-0
-0
-0
-0
-0
-0
-0
-0
-0
-4.108623
-4.141185
-4.202366
-4.296468
-4.428437
-0
-0
-0
-0
-0
-0
-0
-0
-0
-0
-0
-0
-0
-3.965477
-3.996363
-4.054118
-4.142676
-4.26649
-0
-0
-0
-0
-0
-0
-0
-0
-0
-0
-0
-0
-0
-0
-3.832047
-3.861484
-3.91623
-3.999883
-4.11651
-0
-0
-0
-0
-0
-0
-0
-0
-0
-0
-0
-0
-0
-0
-0
-3.706371
-3.734541
-3.786604
-3.865868
-3.976053
-0
-0
-0
-0
-0
-0
-0
-0
-0
-0
-0
-0
-0
-0
-0
-0
-3.585402
-3.612456
-3.662071
-3.737316
-3.841606
-0
-0
-0
-0
-0
-0
-0
-0
-0
-0
-0
-0
-0
-0
-0
-0
-0
-3.465231
-3.491211
-3.538524
-3.609957
-3.708655
-0
-0
-0
-0
-0
-0
-0
-0
-0
-0
-0
-0
-0
-0
-0
-0
-0
-0
-3.343256
-3.368208
-3.413248
-3.48097
-3.574226
-0
-0
-0
-0
-0
-0
-0
-0
-0
-0
-3.223027
-3.246993
-3.289911
-3.354129
-3.44229
-0
-0
-0
-0
-0
-0
-0
-0
-0
-0
-3.109154
-3.132278
-3.17327
-3.234348
-3.317913
-0
-0
-0
-0
-0
-0
-0
-0
-0
-0
-3.004244
-3.026596
-3.065924
-3.124217
-3.203745
-0
-0
-0
-0
-0
-0
-0
-0
-0
-0
-2.909115
-2.93082
-2.968656
-3.024543
-3.100526
-0
-0
-0
-0
-0
-0
-0
-0
-0
-0
-5.481305
-5.538976
-5.647484
-5.81769
-6.063267
-0
-0
-0
-0
-0
-5.265078
-5.316634
-5.41454
-5.567938
-5.788279
-0
-0
-0
-0
-0
-0
-5.076346
-5.123526
-5.21348
-5.354256
-5.555565
-0
-0
-0
-0
-0
-0
-0
-4.907001
-4.950902
-5.034678
-5.165468
-5.351856
-0
-0
-0
-0
-0
-0
-0
-0
-4.748006
-4.789285
-4.867927
-4.990378
-5.164253
-0
-0
-0
-0
-0
-0
-0
-0
-0
-4.589513
-4.628438
-4.702389
-4.817206
-4.979719
-0
-0
-0
-0
-0
-0
-0
-0
-0
-0
-4.426738
-4.463354
-4.532708
-4.640077
-4.791574
-0
-0
-0
-0
-0
-0
-0
-0
-0
-0
-0
-4.265298
-4.29977
-4.364818
-4.465218
-4.606452
-0
-0
-0
-0
-0
-0
-0
-0
-0
-0
-0
-0
-4.1107
-4.143255
-4.204439
-4.298559
-4.430558
-0
-0
-0
-0
-0
-0
-0
-0
-0
-0
-0
-0
-0
-3.965477
-3.996363
-4.054118
-4.142676
-4.26649
-0
-0
-0
-0
-0
-0
-0
-0
-0
-0
-0
-0
-0
-0
-3.830079
-3.859517
-3.91425
-3.997876
-4.114462
-0
-0
-0
-0
-0
-0
-0
-0
-0
-0
-0
-0
-0
-0
-0
-3.703672
-3.731846
-3.783899
-3.863141
-3.973288
-0
-0
-0
-0
-0
-0
-0
-0
-0
-0
-0
-0
-0
-0
-0
-0
-3.584407
-3.611489
-3.661137
-3.736427
-3.840777
-0
-0
-0
-0
-0
-0
-0
-0
-0
-0
-0
-0
-0
-0
-0
-0
-0
-3.469465
-3.49553
-3.542989
-3.614639
-3.713648
-0
-0
-0
-0
-0
-0
-0
-0
-0
-0
-0
-0
-0
-0
-0
-0
-0
-0
-3.355085
-3.380204
-3.425548
-3.493742
-3.587662
-0
-0
-0
-0
-0
-0
-0
-0
-0
-0
-0
-0
-0
-0
-0
-0
-0
-0
-0
-3.238827
-3.262986
-3.306265
-3.371038
-3.459984
-0
-0
-0
-0
-0
-0
-0
-0
-0
-0
-3.123999
-3.147287
-3.188584
-3.250137
-3.334371
-0
-0
-0
-0
-0
-0
-0
-0
-0
-0
-3.015115
-3.037577
-3.077115
-3.135732
-3.215719
-0
-0
-0
-0
-0
-0
-0
-0
-0
-0
-2.914643
-2.936405
-2.974347
-3.030395
-3.106604
-0
-0
-0
-0
-0
-0
-0
-0
-0
-0
-2.823532
-2.844595
-2.881157
-2.93491
-3.007834
-0
-0
-0
-0
-0
-0
-0
-0
-0
-0
-5.250005
-5.301004
-5.398058
-5.550212
-5.768775
-0
-0
-0
-0
-0
-0
-5.050135
-5.096429
-5.185021
-5.32381
-5.522306
-0
-0
-0
-0
-0
-0
-0
-4.874787
-4.917654
-4.999834
-5.128305
-5.311425
-0
-0
-0
-0
-0
-0
-0
-0
-4.716772
-4.757045
-4.834142
-4.954355
-5.125096
-0
-0
-0
-0
-0
-0
-0
-0
-0
-4.567861
-4.606033
-4.678844
-4.792023
-4.952255
-0
-0
-0
-0
-0
-0
-0
-0
-0
-0
-4.418982
-4.455237
-4.524072
-4.630717
-4.781225
-0
-0
-0
-0
-0
-0
-0
-0
-0
-0
-0
-4.265772
-4.300115
-4.365004
-4.465201
-4.60617
-0
-0
-0
-0
-0
-0
-0
-0
-0
-0
-0
-0
-4.113545
-4.146066
-4.207228
-4.301335
-4.433329
-0
-0
-0
-0
-0
-0
-0
-0
-0
-0
-0
-0
-0
-3.9675
-3.998382
-4.056146
-4.144727
-4.268577
-0
-0
-0
-0
-0
-0
-0
-0
-0
-0
-0
-0
-0
-0
-3.830079
-3.859517
-3.91425
-3.997876
-4.114462
-0
-0
-0
-0
-0
-0
-0
-0
-0
-0
-0
-0
-0
-0
-0
-3.701761
-3.729931
-3.781969
-3.861181
-3.971285
-0
-0
-0
-0
-0
-0
-0
-0
-0
-0
-0
-0
-0
-0
-0
-0
-3.581768
-3.608848
-3.658479
-3.733738
-3.838042
-0
-0
-0
-0
-0
-0
-0
-0
-0
-0
-0
-0
-0
-0
-0
-0
-0
-3.468429
-3.49451
-3.54199
-3.613668
-3.712717
-0
-0
-0
-0
-0
-0
-0
-0
-0
-0
-0
-0
-0
-0
-0
-0
-0
-0
-3.359029
-3.384215
-3.429681
-3.498062
-3.592248
-0
-0
-0
-0
-0
-0
-0
-0
-0
-0
-0
-0
-0
-0
-0
-0
-0
-0
-0
-3.25004
-3.27434
-3.317888
-3.383081
-3.472625
-0
-0
-0
-0
-0
-0
-0
-0
-0
-0
-0
-0
-0
-0
-0
-0
-0
-0
-0
-0
-3.139055
-3.162513
-3.204133
-3.26619
-3.351136
-0
-0
-0
-0
-0
-0
-0
-0
-0
-0
-3.029308
-3.051913
-3.091729
-3.150779
-3.231379
-0
-0
-0
-0
-0
-0
-0
-0
-0
-0
-2.925056
-2.946919
-2.98505
-3.041397
-3.118028
-0
-0
-0
-0
-0
-0
-0
-0
-0
-0
-2.828832
-2.849947
-2.886606
-2.940507
-3.013641
-0
-0
-0
-0
-0
-0
-0
-0
-0
-0
-2.741434
-2.761944
-2.797219
-2.848987
-2.919002
-0
-0
-0
-0
-0
-0
-0
-0
-0
-0
-5.036257
-5.082094
-5.169983
-5.307747
-5.504795
-0
-0
-0
-0
-0
-0
-0
-4.850566
-4.892699
-4.97374
-5.100553
-5.281337
-0
-0
-0
-0
-0
-0
-0
-0
-4.686944
-4.726353
-4.802105
-4.920361
-5.08836
-0
-0
-0
-0
-0
-0
-0
-0
-0
-4.53894
-4.576272
-4.647775
-4.759056
-4.91664
-0
-0
-0
-0
-0
-0
-0
-0
-0
-0
-4.399007
-4.434638
-4.502512
-4.607771
-4.756355
-0
-0
-0
-0
-0
-0
-0
-0
-0
-0
-4.25875
-4.292797
-4.357259
-4.456855
-4.597002
-0
-0
-0
-0
-0
-0
-0
-0
-0
-0
-0
-0
-4.11418
-4.146601
-4.20764
-4.301593
-4.433384
-0
-0
-0
-0
-0
-0
-0
-0
-0
-0
-0
-0
-0
-3.970304
-4.001163
-4.058918
-4.147502
-4.271366
-0
-0
-0
-0
-0
-0
-0
-0
-0
-0
-0
-0
-0
-0
-3.832047
-3.861484
-3.91623
-3.999883
-4.11651
-0
-0
-0
-0
-0
-0
-0
-0
-0
-0
-0
-0
-0
-0
-0
-3.701761
-3.729931
-3.781969
-3.861181
-3.971285
-0
-0
-0
-0
-0
-0
-0
-0
-0
-0
-0
-0
-0
-0
-0
-0
-3.579913
-3.606987
-3.656599
-3.731827
-3.836086
-0
-0
-0
-0
-0
-0
-0
-0
-0
-0
-0
-0
-0
-0
-0
-0
-0
-3.465852
-3.491926
-3.539385
-3.611025
-3.710023
-0
-0
-0
-0
-0
-0
-0
-0
-0
-0
-0
-0
-0
-0
-0
-0
-0
-0
-3.357965
-3.383159
-3.428634
-3.497031
-3.591239
-0
-0
-0
-0
-0
-0
-0
-0
-0
-0
-0
-0
-0
-0
-0
-0
-0
-0
-0
-3.253728
-3.27808
-3.321729
-3.387081
-3.476856
-0
-0
-0
-0
-0
-0
-0
-0
-0
-0
-0
-0
-0
-0
-0
-0
-0
-0
-0
-0
-3.149707
-3.173285
-3.215142
-3.277575
-3.363059
-0
-0
-0
-0
-0
-0
-0
-0
-0
-0
-0
-0
-0
-0
-0
-0
-0
-0
-0
-0
-3.04368
-3.066433
-3.106541
-3.166047
-3.247299
-0
-0
-0
-0
-0
-0
-0
-0
-0
-0
-2.938641
-2.960635
-2.999018
-3.055762
-3.132955
-0
-0
-0
-0
-0
-0
-0
-0
-0
-0
-2.838822
-2.860024
-2.896859
-2.951035
-3.024557
-0
-0
-0
-0
-0
-0
-0
-0
-0
-0
-2.746521
-2.767079
-2.802442
-2.854348
-2.924557
-0
-0
-0
-0
-0
-0
-0
-0
-0
-0
-2.662799
-2.682598
-2.716711
-2.766527
-2.83383
-0
-0
-0
-0
-0
-0
-0
-0
-0
-0
-4.837728
-4.879481
-4.959933
-5.085887
-5.265464
-0
-0
-0
-0
-0
-0
-0
-0
-4.664466
-4.70326
-4.778048
-4.894897
-5.060926
-0
-0
-0
-0
-0
-0
-0
-0
-0
-4.511211
-4.547815
-4.618171
-4.727779
-4.883025
-0
-0
-0
-0
-0
-0
-0
-0
-0
-0
-4.372125
-4.407047
-4.473804
-4.577435
-4.723752
-0
-0
-0
-0
-0
-0
-0
-0
-0
-0
-4.240248
-4.273773
-4.337419
-4.435832
-4.574337
-0
-0
-0
-0
-0
-0
-0
-0
-0
-0
-4.107793
-4.139972
-4.200655
-4.294107
-4.42521
-0
-0
-0
-0
-0
-0
-0
-0
-0
-0
-0
-0
-0
-3.971066
-4.001849
-4.059511
-4.147977
-4.271688
-0
-0
-0
-0
-0
-0
-0
-0
-0
-0
-0
-0
-0
-0
-3.834801
-3.864226
-3.918973
-4.00264
-4.119294
-0
-0
-0
-0
-0
-0
-0
-0
-0
-0
-0
-0
-0
-0
-0
-3.703672
-3.731846
-3.7839
-3.863141
-3.973288
-0
-0
-0
-0
-0
-0
-0
-0
-0
-0
-0
-0
-0
-0
-0
-0
-3.579913
-3.606987
-3.656599
-3.731827
-3.836086
-0
-0
-0
-0
-0
-0
-0
-0
-0
-0
-0
-0
-0
-0
-0
-0
-0
-3.464052
-3.490118
-3.537557
-3.609164
-3.708116
-0
-0
-0
-0
-0
-0
-0
-0
-0
-0
-0
-0
-0
-0
-0
-0
-0
-0
-3.355452
-3.380635
-3.426084
-3.49444
-3.588591
-0
-0
-0
-0
-0
-0
-0
-0
-0
-0
-0
-0
-0
-0
-0
-0
-0
-0
-0
-3.252647
-3.276999
-3.320649
-3.386005
-3.47579
-0
-0
-0
-0
-0
-0
-0
-0
-0
-0
-0
-0
-0
-0
-0
-0
-0
-0
-0
-0
-3.153167
-3.176784
-3.218724
-3.281294
-3.366977
-0
-0
-0
-0
-0
-0
-0
-0
-0
-0
-0
-0
-0
-0
-0
-0
-0
-0
-0
-0
-3.053821
-3.076674
-3.116993
-3.176836
-3.258573
-0
-0
-0
-0
-0
-0
-0
-0
-0
-0
-0
-0
-0
-0
-0
-0
-0
-0
-0
-0
-2.95238
-2.974507
-3.013152
-3.070312
-3.1481
-0
-0
-0
-0
-0
-0
-0
-0
-0
-0
-2.851849
-2.873163
-2.910231
-2.964769
-3.03881
-0
-0
-0
-0
-0
-0
-0
-0
-0
-0
-2.756113
-2.776754
-2.812276
-2.864437
-2.935004
-0
-0
-0
-0
-0
-0
-0
-0
-0
-0
-2.667689
-2.687529
-2.721725
-2.771668
-2.839151
-0
-0
-0
-0
-0
-0
-0
-0
-0
-0