/*--------------------------------*- C++ -*----------------------------------*\
| =========                 |                                                 |
| \\      /  F ield         | OpenFOAM: The Open Source CFD Toolbox           |
|  \\    /   O peration     | Version:  2306                                  |
|   \\  /    A nd           | Website:  www.openfoam.com                      |
|    \\/     M anipulation  |                                                 |
\*---------------------------------------------------------------------------*/
FoamFile
{
    version     2.0;
    format      ascii;
    arch        "LSB;label=32;scalar=64";
    class       volScalarField;
    location    "1.2/fuel";
    object      iDmdtfuel.H2O;
}
// * * * * * * * * * * * * * * * * * * * * * * * * * * * * * * * * * * * * * //

dimensions      [1 -3 -1 0 0 0 0];

internalField   nonuniform List<scalar> 
16000
(
85.16428
85.9215
77.9875
81.20035
87.44944
78.48103
81.90143
71.91511
74.5446
78.40779
89.74862
79.45186
83.31512
72.2924
75.00377
79.07166
67.03789
68.89339
72.09902
76.69602
92.73199
80.84799
85.4403
73.02582
75.90656
80.41006
67.34637
69.24585
72.53486
77.33941
62.98391
64.34113
66.73396
70.57909
75.97375
95.94252
82.53644
88.19476
74.05819
77.20391
82.42179
67.94153
69.93069
73.3916
78.63694
63.24557
64.63026
67.0693
71.00142
76.61132
59.4973
60.54777
62.40568
65.37895
69.91249
0
98.34785
84.18174
91.15521
75.26283
78.77157
85.02971
68.76792
70.89408
74.6225
80.58869
63.74776
65.18785
67.72072
71.83168
77.89813
59.72439
60.79371
62.68135
65.70408
70.32995
0
56.43583
57.27795
58.79375
61.18344
64.77028
0
0
99.84936
85.28807
93.36465
76.37158
80.29766
87.83412
69.70966
72.01732
76.10971
83.12277
64.43835
65.96162
68.63684
73.02489
79.83671
60.15848
61.26552
63.21283
66.33567
71.15094
0
56.63628
57.49191
59.02867
61.45094
65.09132
0
0
53.70243
54.40089
55.67594
57.68102
60.62644
0
0
0
100.6891
85.90128
94.73911
77.05658
81.3207
89.92154
70.5426
73.0501
77.55744
85.85419
65.21192
66.84265
69.70467
74.46755
82.36078
60.75109
61.91395
63.95012
67.22396
72.33171
0
57.01829
57.90075
59.47922
61.96663
65.71509
0
0
53.88158
54.59017
55.88066
57.90919
60.89049
0
0
0
51.2339
51.82718
52.92892
54.65614
57.16915
0
0
0
0
101.0616
86.20955
95.50581
77.38843
81.88619
91.21746
71.02416
73.68624
78.5253
87.8845
65.87587
67.62095
70.68605
75.87329
85.09235
61.40612
62.63964
64.78924
68.25964
73.76137
0
57.53679
58.45854
60.0982
62.68199
66.59275
0
0
54.22214
54.95074
56.27173
58.34673
61.39961
0
0
0
51.3956
51.99669
53.11031
54.85515
57.39438
0
0
0
0
48.98328
49.49865
50.46833
51.98936
54.18394
0
0
0
0
0
101.0616
86.33632
95.84546
77.52728
82.16988
91.9395
71.22856
73.99343
79.05926
89.14438
66.23952
68.06944
71.28866
76.81094
87.12272
61.95504
63.26162
65.52993
69.21171
75.15704
0
58.10384
59.0745
60.79055
63.49619
67.61686
0
0
54.68221
55.43985
56.80507
58.94778
62.10601
0
0
0
51.70237
52.31878
53.45574
55.23527
57.82633
0
0
0
0
49.13037
49.65193
50.631
52.16584
54.38043
0
0
0
0
0
46.91629
47.37204
48.23935
49.59907
51.55224
0
0
0
0
0
0
100.6891
86.33632
95.84546
77.57447
82.28639
92.25919
71.29435
74.12151
79.32693
89.8466
66.37495
68.25894
71.57883
77.32775
88.384
62.24214
63.60102
65.9552
69.79451
76.08631
0
58.56978
59.58984
61.38329
64.21465
68.55904
0
0
55.18091
55.97421
57.39365
59.61997
62.91036
0
0
0
52.11513
52.75363
53.92412
55.75359
58.41978
0
0
0
0
49.40896
49.9426
50.94001
52.50189
54.75575
0
0
0
0
0
47.05098
47.51171
48.38664
49.75747
51.72653
0
0
0
0
0
0
45.00614
45.41576
46.20117
47.4323
49.1932
0
0
0
0
0
0
0
99.84936
86.20955
95.50581
77.57447
82.28639
92.25919
71.30822
74.16487
79.43684
90.1577
66.40373
68.31942
71.69951
77.58698
89.08834
62.33572
63.72658
66.13406
70.07449
76.59852
0
58.80393
59.85826
61.70538
64.62555
69.13404
0
0
55.5839
56.4125
57.8854
60.19505
63.62021
0
0
0
52.55918
53.22449
54.43547
56.32544
59.08363
0
0
0
0
49.78251
50.33345
51.35701
52.95746
55.26756
0
0
0
0
0
47.30571
47.77613
48.66587
50.05833
52.05841
0
0
0
0
0
0
45.13016
45.54386
46.33556
47.57584
49.34968
0
0
0
0
0
0
0
43.23201
43.60512
44.32407
45.44965
47.05443
0
0
0
0
0
0
0
0
98.34785
85.90128
94.73911
77.52728
82.16988
91.9395
71.30822
74.16487
79.43684
90.1577
66.40149
68.3319
71.74029
77.69357
89.40091
62.34368
63.75262
66.19069
70.19084
76.85597
0
58.87039
59.9449
61.82369
64.7976
69.4098
0
0
55.77926
56.63172
58.14031
60.5061
64.02454
0
0
0
52.91283
53.60423
54.85421
56.80273
59.65135
0
0
0
0
50.18172
50.75346
51.80821
53.45464
55.83229
0
0
0
0
0
47.64623
48.13045
49.04117
50.46426
52.50836
0
0
0
0
0
0
45.3644
45.78602
46.58989
47.84792
49.6469
0
0
0
0
0
0
0
43.34673
43.72324
44.44747
45.58072
47.19628
0
0
0
0
0
0
0
0
41.5771
41.92091
42.58477
43.62246
45.09704
0
0
0
0
0
0
0
0
0
95.94252
85.28807
93.36465
77.38843
81.88619
91.21746
71.29435
74.12151
79.32693
89.8466
66.40149
68.3319
71.74029
77.69357
89.40091
62.33296
63.75008
66.20215
70.23016
76.96209
0
58.86597
59.95149
61.84762
64.85173
69.52446
0
0
55.82702
56.69308
58.22173
60.61953
64.19312
0
0
0
53.07871
53.78736
55.06254
57.04885
59.95691
0
0
0
0
50.49558
51.08724
52.17143
53.86128
56.3033
0
0
0
0
0
48.00799
48.50867
49.44414
50.90328
52.99942
0
0
0
0
0
0
45.67668
46.10952
46.93053
48.21354
50.04793
0
0
0
0
0
0
0
43.56318
43.94625
44.68065
45.82872
47.46516
0
0
0
0
0
0
0
0
41.68366
42.03034
42.69867
43.74289
45.2266
0
0
0
0
0
0
0
0
0
40.02765
40.34767
40.96516
41.92826
43.2927
0
0
0
0
0
0
0
0
0
0
92.73199
84.18174
91.15521
77.05658
81.3207
89.92154
71.22856
73.99343
79.05926
89.14438
66.40373
68.31942
71.69951
77.58698
89.08834
62.33296
63.75008
66.20215
70.23016
76.96209
0
58.85059
59.94097
61.84478
64.86253
69.56329
0
0
55.81482
56.68807
58.22716
60.64193
64.2459
0
0
0
53.11307
53.83127
55.11998
57.12661
60.06753
0
0
0
0
50.63832
51.24291
52.34557
54.0624
56.54481
0
0
0
0
0
48.28914
48.80535
49.76377
51.25621
53.40065
0
0
0
0
0
0
46.0067
46.4528
47.29384
48.60593
50.48163
0
0
0
0
0
0
0
43.85105
44.24337
44.99203
46.16083
47.82647
0
0
0
0
0
0
0
0
41.88453
42.23671
42.91366
43.97044
45.47175
0
0
0
0
0
0
0
0
0
40.12698
40.44944
41.07079
42.0395
43.41179
0
0
0
0
0
0
0
0
0
0
38.57217
38.87268
39.45069
40.34962
41.61929
0
0
0
0
0
0
0
0
0
0
89.74862
82.53644
88.19476
76.37158
80.29766
87.83412
71.02416
73.68624
78.5253
87.8845
66.37495
68.25894
71.57883
77.32775
88.384
62.34368
63.75262
66.19069
70.19084
76.85597
0
58.85059
59.94097
61.84478
64.86253
69.56329
0
0
55.79683
56.67316
58.21671
60.63881
64.25633
0
0
0
53.09584
53.81894
55.11436
57.13108
60.08888
0
0
0
0
50.66271
51.27429
52.38646
54.11702
56.62028
0
0
0
0
0
48.41332
48.93943
49.91188
51.42434
53.59788
0
0
0
0
0
0
46.26049
46.71893
47.57825
48.91669
50.82988
0
0
0
0
0
0
0
44.15382
44.55699
45.32215
46.51486
48.2142
0
0
0
0
0
0
0
0
42.15109
42.51098
43.19996
44.27423
45.80005
0
0
0
0
0
0
0
0
0
40.3141
40.64121
41.26994
42.24945
43.6368
0
0
0
0
0
0
0
0
0
0
38.66508
38.96767
39.54903
40.45285
41.72933
0
0
0
0
0
0
0
0
0
0
37.20111
37.48534
38.02938
38.87251
40.05964
0
0
0
0
0
0
0
0
0
0
87.44944
80.84799
85.4403
75.26283
78.77157
85.02971
70.5426
73.0501
77.55744
85.85419
66.23952
68.06944
71.28866
76.81094
87.12272
62.33572
63.72658
66.13406
70.07449
76.59852
0
58.86597
59.95149
61.84762
64.85173
69.52446
0
0
55.79683
56.67316
58.21671
60.63881
64.25633
0
0
0
53.07638
53.80155
55.09971
57.12057
60.0855
0
0
0
0
50.64215
51.25721
52.37387
54.11079
56.62395
0
0
0
0
0
48.43015
48.96148
49.94088
51.46298
53.6506
0
0
0
0
0
0
46.3695
46.83568
47.70589
49.0597
50.99468
0
0
0
0
0
0
0
44.3844
44.79755
45.57753
46.79153
48.52088
0
0
0
0
0
0
0
0
42.43021
42.79909
43.50187
44.59614
46.14997
0
0
0
0
0
0
0
0
0
40.56191
40.89552
41.5345
42.52896
43.93719
0
0
0
0
0
0
0
0
0
0
38.83998
39.14654
39.73428
40.64746
41.93699
0
0
0
0
0
0
0
0
0
0
37.28825
37.57429
38.12126
38.96868
40.16177
0
0
0
0
0
0
0
0
0
0
35.90644
36.17683
36.69125
37.4854
38.59991
0
0
0
0
0
0
0
0
0
0
85.9215
79.45186
83.31512
74.05819
77.20391
82.42179
69.70966
72.01732
76.10971
83.12277
65.87587
67.62095
70.68605
75.87329
85.09235
62.24214
63.60102
65.9552
69.79451
76.08631
0
58.87039
59.9449
61.82369
64.7976
69.4098
0
0
55.81482
56.68807
58.22716
60.64193
64.2459
0
0
0
53.07638
53.80155
55.09971
57.12057
60.0855
0
0
0
0
50.62192
51.23842
52.35683
54.0962
56.61325
0
0
0
0
0
48.40737
48.94126
49.92377
51.45002
53.64375
0
0
0
0
0
0
46.38047
46.85064
47.72604
49.08688
51.03175
0
0
0
0
0
0
0
44.48083
44.90012
45.68873
46.9148
48.66102
0
0
0
0
0
0
0
0
42.64091
43.01794
43.73294
44.84473
46.42306
0
0
0
0
0
0
0
0
0
40.82035
41.16148
41.81215
42.82356
44.25546
0
0
0
0
0
0
0
0
0
0
39.07117
39.38325
39.97982
40.90592
42.21346
0
0
0
0
0
0
0
0
0
0
37.45222
37.74168
38.2942
39.14981
40.35432
0
0
0
0
0
0
0
0
0
0
35.98839
36.26036
36.77735
37.5753
38.69509
0
0
0
0
0
0
0
0
0
0
34.68124
34.93974
35.42796
36.17866
37.22877
0
0
0
0
0
0
0
0
0
0
85.16428
78.48103
81.90143
73.02582
75.90656
80.41006
68.76792
70.89408
74.6225
80.58869
65.21192
66.84265
69.70467
74.46755
82.36078
61.95504
63.26162
65.52993
69.21171
75.15704
0
58.80393
59.85826
61.70538
64.62555
69.13404
0
0
55.82702
56.69308
58.22173
60.61953
64.19312
0
0
0
53.09584
53.81894
55.11436
57.13108
60.08888
0
0
0
0
50.62192
51.23842
52.35683
54.0962
56.61325
0
0
0
0
0
48.38681
48.92171
49.90538
51.43311
53.62903
0
0
0
0
0
0
46.35626
46.82832
47.70592
49.06955
51.01829
0
0
0
0
0
0
0
44.48722
44.90959
45.70216
46.93346
48.68687
0
0
0
0
0
0
0
0
42.72678
43.10874
43.83068
44.95214
46.54383
0
0
0
0
0
0
0
0
0
41.01384
41.3617
42.02255
43.04861
44.50089
0
0
0
0
0
0
0
0
0
0
39.3114
39.62982
40.23637
41.17701
42.50482
0
0
0
0
0
0
0
0
0
0
37.6686
37.96279
38.52297
39.38984
40.61004
0
0
0
0
0
0
0
0
0
0
36.14253
36.41746
36.93934
37.7445
38.87435
0
0
0
0
0
0
0
0
0
0
34.75849
35.01838
35.50889
36.26297
37.31776
0
0
0
0
0
0
0
0
0
0
33.51952
33.76768
34.23256
34.94429
35.93674
0
0
0
0
0
0
0
0
0
0
77.9875
81.20035
72.2924
75.00377
79.07166
67.94153
69.93069
73.3916
78.63694
64.43835
65.96162
68.63684
73.02489
79.83671
61.40612
62.63964
64.78924
68.25964
73.76137
0
58.56978
59.58984
61.38329
64.21465
68.55904
0
0
55.77926
56.63172
58.14031
60.5061
64.02454
0
0
0
53.11307
53.83127
55.11998
57.12661
60.06753
0
0
0
0
50.64215
51.25721
52.37387
54.11079
56.62395
0
0
0
0
0
48.38681
48.92171
49.90538
51.43311
53.62903
0
0
0
0
0
0
46.33563
46.80844
47.6868
49.05134
51.0013
0
0
0
0
0
0
0
44.4621
44.8859
45.68003
46.91323
48.66915
0
0
0
0
0
0
0
0
42.72954
43.11391
43.8389
44.96432
46.56136
0
0
0
0
0
0
0
0
0
41.09078
41.44261
42.10912
43.14304
44.6061
0
0
0
0
0
0
0
0
0
0
39.48991
39.8139
40.42903
41.38206
42.72706
0
0
0
0
0
0
0
0
0
0
0
37.89267
38.19225
38.76103
39.64049
40.87823
0
0
0
0
0
0
0
0
0
0
36.34563
36.62465
37.15323
37.96827
39.11191
0
0
0
0
0
0
0
0
0
0
34.90376
35.16623
35.66106
36.42155
37.48527
0
0
0
0
0
0
0
0
0
0
33.59251
33.84188
34.30881
35.02357
36.02022
0
0
0
0
0
0
0
0
0
0
32.41599
32.65511
33.09901
33.77558
34.71595
0
0
0
0
0
0
0
0
0
0
71.91511
74.5446
78.40779
67.34637
69.24585
72.53486
77.33941
63.74776
65.18785
67.72072
71.83168
77.89813
60.75109
61.91395
63.95012
67.22396
72.33171
0
58.10384
59.0745
60.79055
63.49619
67.61686
0
0
55.5839
56.4125
57.8854
60.19505
63.62021
0
0
0
53.07871
53.78736
55.06254
57.04885
59.95691
0
0
0
0
50.66271
51.27429
52.38646
54.11702
56.62028
0
0
0
0
0
48.40737
48.94126
49.92377
51.45002
53.64375
0
0
0
0
0
0
46.33563
46.80844
47.6868
49.05134
51.0013
0
0
0
0
0
0
0
44.44161
44.86595
45.66059
46.89431
48.65089
0
0
0
0
0
0
0
0
42.70391
43.08936
43.81547
44.94217
46.54082
0
0
0
0
0
0
0
0
0
41.09065
41.44438
42.11326
43.15022
44.61732
0
0
0
0
0
0
0
0
0
0
39.55922
39.88644
40.50621
41.4657
42.81955
0
0
0
0
0
0
0
0
0
0
0
38.058
38.36227
38.93832
39.82836
41.08077
0
0
0
0
0
0
0
0
0
0
0
0
36.55529
36.83891
37.37497
38.20099
39.35994
0
0
0
0
0
0
0
0
0
0
35.09489
35.36091
35.86163
36.63087
37.7068
0
0
0
0
0
0
0
0
0
0
33.72974
33.98137
34.45214
35.17262
36.17725
0
0
0
0
0
0
0
0
0
0
32.48509
32.72529
33.17102
33.85032
34.79447
0
0
0
0
0
0
0
0
0
0
31.36606
31.59713
32.02211
32.66673
33.5598
0
0
0
0
0
0
0
0
0
0
67.03789
68.89339
72.09902
76.69602
63.24557
64.63026
67.0693
71.00142
76.61132
60.15848
61.26552
63.21283
66.33567
71.15094
0
57.53679
58.45854
60.0982
62.68199
66.59275
0
0
55.18091
55.97421
57.39365
59.61997
62.91036
0
0
0
52.91283
53.60423
54.85421
56.80273
59.65135
0
0
0
0
50.63832
51.24291
52.34557
54.0624
56.54481
0
0
0
0
0
48.43015
48.96148
49.94088
51.46298
53.6506
0
0
0
0
0
0
46.35626
46.82832
47.70592
49.06955
51.01829
0
0
0
0
0
0
0
44.44161
44.86595
45.66059
46.89431
48.65089
0
0
0
0
0
0
0
0
42.68367
43.06952
43.79595
44.92294
46.52188
0
0
0
0
0
0
0
0
0
41.0648
41.41934
42.089
43.12681
44.59492
0
0
0
0
0
0
0
0
0
0
39.55681
39.8855
40.50712
41.46896
42.82589
0
0
0
0
0
0
0
0
0
0
0
38.12076
38.42766
39.00754
39.90294
41.1627
0
0
0
0
0
0
0
0
0
0
0
0
36.70899
36.99655
37.53885
38.37397
39.54556
0
0
0
0
0
0
0
0
0
0
0
0
0
35.29163
35.56161
36.06887
36.84777
37.93715
0
0
0
0
0
0
0
0
0
0
33.91004
34.16478
34.64076
35.36903
36.38453
0
0
0
0
0
0
0
0
0
0
32.615
32.85719
33.30635
33.99078
34.9421
0
0
0
0
0
0
0
0
0
0
31.43161
31.66364
32.09026
32.73734
33.63384
0
0
0
0
0
0
0
0
0
0
30.36585
30.58951
30.99722
31.61273
32.4626
0
0
0
0
0
0
0
0
0
0
62.98391
64.34113
66.73396
70.57909
75.97375
59.72439
60.79371
62.68135
65.70408
70.32995
0
57.01829
57.90075
59.47922
61.96663
65.71509
0
0
54.68221
55.43985
56.80507
58.94778
62.10601
0
0
0
52.55918
53.22449
54.43547
56.32544
59.08363
0
0
0
0
50.49558
51.08724
52.17143
53.86128
56.3033
0
0
0
0
0
48.41332
48.93943
49.91188
51.42434
53.59788
0
0
0
0
0
0
46.38047
46.85064
47.72604
49.08688
51.03175
0
0
0
0
0
0
0
44.4621
44.8859
45.68003
46.91323
48.66915
0
0
0
0
0
0
0
0
42.68367
43.06952
43.79595
44.92294
46.52188
0
0
0
0
0
0
0
0
0
41.0449
41.39973
42.06959
43.10751
44.57568
0
0
0
0
0
0
0
0
0
0
39.53095
39.86024
40.4824
41.44477
42.80228
0
0
0
0
0
0
0
0
0
0
0
38.11653
38.42458
39.00588
39.9031
41.16522
0
0
0
0
0
0
0
0
0
0
0
0
36.76607
37.05579
37.60127
38.44087
39.61861
0
0
0
0
0
0
0
0
0
0
0
0
0
35.435
35.70832
36.22095
37.00775
38.1081
0
0
0
0
0
0
0
0
0
0
0
0
0
0
34.09514
34.35331
34.83504
35.57185
36.59928
0
0
0
0
0
0
0
0
0
0
32.7855
33.03038
33.48419
34.17559
35.13665
0
0
0
0
0
0
0
0
0
0
31.55484
31.78863
32.21832
32.87003
33.773
0
0
0
0
0
0
0
0
0
0
30.42813
30.65265
31.06185
31.67959
32.53257
0
0
0
0
0
0
0
0
0
0
29.41166
29.62864
30.02035
30.6091
31.41941
0
0
0
0
0
0
0
0
0
0
59.4973
60.54777
62.40568
65.37895
69.91249
0
56.63628
57.49191
59.02867
61.45094
65.09132
0
0
54.22214
54.95074
56.27173
58.34673
61.39961
0
0
0
52.11513
52.75363
53.92412
55.75359
58.41978
0
0
0
0
50.18172
50.75346
51.80821
53.45464
55.83229
0
0
0
0
0
48.28914
48.80535
49.76377
51.25621
53.40065
0
0
0
0
0
0
46.3695
46.83568
47.70589
49.0597
50.99468
0
0
0
0
0
0
0
44.48722
44.90959
45.70216
46.93346
48.68687
0
0
0
0
0
0
0
0
42.70391
43.08936
43.81547
44.94217
46.54082
0
0
0
0
0
0
0
0
0
41.0449
41.39973
42.06959
43.10751
44.57568
0
0
0
0
0
0
0
0
0
0
39.51146
39.84095
40.4632
41.42557
42.78299
0
0
0
0
0
0
0
0
0
0
0
38.09082
38.39931
38.98096
39.87847
41.14087
0
0
0
0
0
0
0
0
0
0
0
0
36.7604
37.05101
37.59758
38.43857
39.61812
0
0
0
0
0
0
0
0
0
0
0
0
0
35.48714
35.76223
36.27752
37.06809
38.17362
0
0
0
0
0
0
0
0
0
0
0
0
0
0
34.22929
34.49028
34.97668
35.72038
36.75743
0
0
0
0
0
0
0
0
0
0
0
0
0
0
0
32.9601
33.20794
33.66682
34.36583
35.33751
0
0
0
0
0
0
0
0
0
0
31.71639
31.95256
32.38639
33.04436
33.9561
0
0
0
0
0
0
0
0
0
0
30.54525
30.77133
31.18329
31.80521
32.66406
0
0
0
0
0
0
0
0
0
0
29.47094
29.68869
30.08176
30.67254
31.48569
0
0
0
0
0
0
0
0
0
0
28.50049
28.7111
29.08811
29.65202
30.42585
0
0
0
0
0
0
0
0
0
0
56.43583
57.27795
58.79375
61.18344
64.77028
0
0
53.88158
54.59017
55.88066
57.90919
60.89049
0
0
0
51.70237
52.31878
53.45574
55.23527
57.82633
0
0
0
0
49.78251
50.33345
51.35701
52.95746
55.26756
0
0
0
0
0
48.00799
48.50867
49.44414
50.90328
52.99942
0
0
0
0
0
0
46.26049
46.71893
47.57825
48.91669
50.82988
0
0
0
0
0
0
0
44.48083
44.90012
45.68873
46.9148
48.66102
0
0
0
0
0
0
0
0
42.72954
43.11391
43.8389
44.96432
46.56136
0
0
0
0
0
0
0
0
0
41.0648
41.41934
42.089
43.12681
44.59492
0
0
0
0
0
0
0
0
0
0
39.51146
39.84095
40.4632
41.42557
42.78299
0
0
0
0
0
0
0
0
0
0
0
38.07178
38.3804
38.96207
39.85949
41.12169
0
0
0
0
0
0
0
0
0
0
0
0
36.73497
37.02589
37.57266
38.41376
39.59336
0
0
0
0
0
0
0
0
0
0
0
0
0
35.48033
35.7561
36.27222
37.06385
38.17075
0
0
0
0
0
0
0
0
0
0
0
0
0
0
34.27713
34.53957
35.02819
35.77508
36.81653
0
0
0
0
0
0
0
0
0
0
0
0
0
0
0
33.08601
33.33623
33.79917
34.50423
35.48438
0
0
0
0
0
0
0
0
0
0
0
0
0
0
0
0
31.88145
32.12021
32.55853
33.22329
34.14455
0
0
0
0
0
0
0
0
0
0
30.69862
30.9268
31.34249
31.97005
32.83682
0
0
0
0
0
0
0
0
0
0
29.58244
29.80158
30.19714
30.79173
31.6102
0
0
0
0
0
0
0
0
0
0
28.55701
28.76831
29.14655
29.71232
30.48874
0
0
0
0
0
0
0
0
0
0
27.6292
27.83413
28.19727
28.73822
29.47815
0
0
0
0
0
0
0
0
0
0
53.70243
54.40089
55.67594
57.68102
60.62644
0
0
0
51.3956
51.99669
53.11031
54.85515
57.39438
0
0
0
0
49.40896
49.9426
50.94001
52.50189
54.75575
0
0
0
0
0
47.64623
48.13045
49.04117
50.46426
52.50836
0
0
0
0
0
0
46.0067
46.4528
47.29384
48.60593
50.48163
0
0
0
0
0
0
0
44.3844
44.79755
45.57753
46.79153
48.52088
0
0
0
0
0
0
0
0
42.72678
43.10874
43.83068
44.95214
46.54383
0
0
0
0
0
0
0
0
0
41.09065
41.44438
42.11326
43.15022
44.61732
0
0
0
0
0
0
0
0
0
0
39.53095
39.86024
40.4824
41.44477
42.80228
0
0
0
0
0
0
0
0
0
0
0
38.07178
38.3804
38.96207
39.85949
41.12169
0
0
0
0
0
0
0
0
0
0
0
0
36.71641
37.0074
37.55414
38.39507
39.5744
0
0
0
0
0
0
0
0
0
0
0
0
0
35.45527
35.73125
36.24745
37.03905
38.14583
0
0
0
0
0
0
0
0
0
0
0
0
0
0
34.26942
34.53238
35.02162
35.7693
36.81177
0
0
0
0
0
0
0
0
0
0
0
0
0
0
0
33.13009
33.38147
33.84628
34.55404
35.53795
0
0
0
0
0
0
0
0
0
0
0
0
0
0
0
0
31.99992
32.24073
32.68258
33.35269
34.28144
0
0
0
0
0
0
0
0
0
0
0
0
0
0
0
0
0
30.855
31.08543
31.50514
32.13877
33.01411
0
0
0
0
0
0
0
0
0
0
29.72832
29.94931
30.34823
30.94793
31.77359
0
0
0
0
0
0
0
0
0
0
28.66334
28.87587
29.25638
29.82561
30.60691
0
0
0
0
0
0
0
0
0
0
27.68317
27.88872
28.25298
28.79563
29.53794
0
0
0
0
0
0
0
0
0
0
26.7956
26.99479
27.34522
27.86459
28.57309
0
0
0
0
0
0
0
0
0
0
51.2339
51.82718
52.92892
54.65614
57.16915
0
0
0
0
49.13037
49.65193
50.631
52.16584
54.38043
0
0
0
0
0
47.30571
47.77613
48.66587
50.05833
52.05841
0
0
0
0
0
0
45.67668
46.10952
46.93053
48.21354
50.04793
0
0
0
0
0
0
0
44.15382
44.55699
45.32215
46.51486
48.2142
0
0
0
0
0
0
0
0
42.64091
43.01794
43.73294
44.84473
46.42306
0
0
0
0
0
0
0
0
0
41.09078
41.44261
42.10912
43.14304
44.6061
0
0
0
0
0
0
0
0
0
0
39.55681
39.8855
40.50712
41.46896
42.82589
0
0
0
0
0
0
0
0
0
0
0
38.09082
38.39931
38.98096
39.87847
41.14087
0
0
0
0
0
0
0
0
0
0
0
0
36.71641
37.0074
37.55414
38.39507
39.5744
0
0
0
0
0
0
0
0
0
0
0
0
0
35.4372
35.7132
36.22932
37.02072
38.12717
0
0
0
0
0
0
0
0
0
0
0
0
0
0
34.24481
34.50787
34.9971
35.74466
36.78689
0
0
0
0
0
0
0
0
0
0
0
0
0
0
0
33.12171
33.37345
33.83871
34.54705
35.53171
0
0
0
0
0
0
0
0
0
0
0
0
0
0
0
0
32.04068
32.28245
32.72583
33.39825
34.33023
0
0
0
0
0
0
0
0
0
0
0
0
0
0
0
0
0
30.96678
31.19895
31.62176
32.26011
33.14213
0
0
0
0
0
0
0
0
0
0
0
0
0
0
0
0
0
0
29.87677
30.09974
30.50224
31.10744
31.94081
0
0
0
0
0
0
0
0
0
0
28.80234
29.01651
29.40005
29.97393
30.76177
0
0
0
0
0
0
0
0
0
0
27.78473
27.99138
28.35769
28.90352
29.65028
0
0
0
0
0
0
0
0
0
0
26.84721
27.04695
27.3984
27.91934
28.63003
0
0
0
0
0
0
0
0
0
0
25.99709
26.19105
26.52918
27.02861
27.70763
0
0
0
0
0
0
0
0
0
0
48.98328
49.49865
50.46833
51.98936
54.18394
0
0
0
0
0
47.05098
47.51171
48.38664
49.75747
51.72653
0
0
0
0
0
0
45.3644
45.78602
46.58989
47.84792
49.6469
0
0
0
0
0
0
0
43.85105
44.24337
44.99203
46.16083
47.82647
0
0
0
0
0
0
0
0
42.43021
42.79909
43.50187
44.59614
46.14997
0
0
0
0
0
0
0
0
0
41.01384
41.3617
42.02255
43.04861
44.50089
0
0
0
0
0
0
0
0
0
0
39.55922
39.88644
40.50621
41.4657
42.81955
0
0
0
0
0
0
0
0
0
0
0
38.11653
38.42458
39.00588
39.9031
41.16522
0
0
0
0
0
0
0
0
0
0
0
0
36.73497
37.02589
37.57266
38.41376
39.59336
0
0
0
0
0
0
0
0
0
0
0
0
0
35.4372
35.7132
36.22932
37.02072
38.12717
0
0
0
0
0
0
0
0
0
0
0
0
0
0
34.22722
34.49029
34.97941
35.72673
36.76859
0
0
0
0
0
0
0
0
0
0
0
0
0
0
0
33.09759
33.34937
33.81454
34.52267
35.50699
0
0
0
0
0
0
0
0
0
0
0
0
0
0
0
0
32.03179
32.27381
32.71748
33.3903
34.32282
0
0
0
0
0
0
0
0
0
0
0
0
0
0
0
0
0
31.00462
31.23754
31.66166
32.30196
33.18675
0
0
0
0
0
0
0
0
0
0
0
0
0
0
0
0
0
0
29.98247
30.20694
30.61216
31.22157
32.06088
0
0
0
0
0
0
0
0
0
0
0
0
0
0
0
0
0
0
0
28.94354
29.15944
29.54619
30.12503
30.91989
0
0
0
0
0
0
0
0
0
0
27.91739
28.1255
28.49455
29.04461
29.79736
0
0
0
0
0
0
0
0
0
0
26.94436
27.14508
27.49841
28.02224
28.73704
0
0
0
0
0
0
0
0
0
0
26.04649
26.24097
26.58003
27.0809
27.76194
0
0
0
0
0
0
0
0
0
0
25.23228
25.42052
25.74725
26.22761
26.87929
0
0
0
0
0
0
0
0
0
0
46.91629
47.37204
48.23935
49.59907
51.55224
0
0
0
0
0
0
45.13016
45.54386
46.33556
47.57584
49.34968
0
0
0
0
0
0
0
43.56318
43.94625
44.68065
45.82872
47.46516
0
0
0
0
0
0
0
0
42.15109
42.51098
43.19996
44.27423
45.80005
0
0
0
0
0
0
0
0
0
40.82035
41.16148
41.81215
42.82356
44.25546
0
0
0
0
0
0
0
0
0
0
39.48991
39.8139
40.42903
41.38206
42.72706
0
0
0
0
0
0
0
0
0
0
0
38.12076
38.42766
39.00754
39.90294
41.1627
0
0
0
0
0
0
0
0
0
0
0
0
36.7604
37.05101
37.59759
38.43857
39.61812
0
0
0
0
0
0
0
0
0
0
0
0
0
35.45527
35.73125
36.24745
37.03905
38.14583
0
0
0
0
0
0
0
0
0
0
0
0
0
0
34.22722
34.49029
34.97941
35.72673
36.76859
0
0
0
0
0
0
0
0
0
0
0
0
0
0
0
33.08052
33.33225
33.79729
34.50516
35.48909
0
0
0
0
0
0
0
0
0
0
0
0
0
0
0
0
32.00821
32.2502
32.69373
33.36628
34.29838
0
0
0
0
0
0
0
0
0
0
0
0
0
0
0
0
0
30.99536
31.22843
31.65274
32.29328
33.17843
0
0
0
0
0
0
0
0
0
0
0
0
0
0
0
0
0
0
30.01772
30.24279
30.64909
31.26018
32.10186
0
0
0
0
0
0
0
0
0
0
0
0
0
0
0
0
0
0
0
29.04374
29.2609
29.65007
30.23265
31.03285
0
0
0
0
0
0
0
0
0
0
0
0
0
0
0
0
0
0
0
0
28.05194
28.26156
28.6335
29.18806
29.94718
0
0
0
0
0
0
0
0
0
0
27.07118
27.27319
27.62901
28.15671
28.87698
0
0
0
0
0
0
0
0
0
0
26.13955
26.33492
26.67568
27.17922
27.86403
0
0
0
0
0
0
0
0
0
0
25.27965
25.46834
25.79594
26.27763
26.93118
0
0
0
0
0
0
0
0
0
0
24.49863
24.68191
24.99714
25.45976
26.08545
0
0
0
0
0
0
0
0
0
0
45.00614
45.41576
46.20117
47.4323
49.1932
0
0
0
0
0
0
0
43.34673
43.72324
44.44747
45.58072
47.19628
0
0
0
0
0
0
0
0
41.88453
42.23671
42.91366
43.97044
45.47175
0
0
0
0
0
0
0
0
0
40.56191
40.89552
41.5345
42.52896
43.93719
0
0
0
0
0
0
0
0
0
0
39.3114
39.62982
40.23637
41.17701
42.50482
0
0
0
0
0
0
0
0
0
0
38.058
38.36227
38.93832
39.82836
41.08077
0
0
0
0
0
0
0
0
0
0
0
0
36.76607
37.05579
37.60127
38.44087
39.61861
0
0
0
0
0
0
0
0
0
0
0
0
0
35.48033
35.7561
36.27222
37.06385
38.17075
0
0
0
0
0
0
0
0
0
0
0
0
0
0
34.24481
34.50787
34.9971
35.74466
36.78689
0
0
0
0
0
0
0
0
0
0
0
0
0
0
0
33.08052
33.33225
33.79729
34.50516
35.48909
0
0
0
0
0
0
0
0
0
0
0
0
0
0
0
0
31.99163
32.23357
32.67693
33.3492
34.2809
0
0
0
0
0
0
0
0
0
0
0
0
0
0
0
0
0
30.97233
31.20534
31.62945
32.26966
33.15434
0
0
0
0
0
0
0
0
0
0
0
0
0
0
0
0
0
0
30.00821
30.23335
30.63974
31.25096
32.09284
0
0
0
0
0
0
0
0
0
0
0
0
0
0
0
0
0
0
0
29.0767
29.29432
29.68439
30.2684
31.07067
0
0
0
0
0
0
0
0
0
0
0
0
0
0
0
0
0
0
0
0
28.14712
28.35783
28.73188
29.28981
30.05373
0
0
0
0
0
0
0
0
0
0
0
0
0
0
0
0
0
0
0
0
27.19963
27.40295
27.76137
28.29315
29.01925
0
0
0
0
0
0
0
0
0
0
26.26095
26.45749
26.80051
27.30759
27.99742
0
0
0
0
0
0
0
0
0
0
25.36893
25.5584
25.88757
26.37171
27.02873
0
0
0
0
0
0
0
0
0
0
24.54408
24.7278
25.04382
25.50768
26.13509
0
0
0
0
0
0
0
0
0
0
23.79591
23.97284
24.27769
24.72287
25.32431
0
0
0
0
0
0
0
0
0
0
43.23201
43.60512
44.32407
45.44965
47.05443
0
0
0
0
0
0
0
0
41.68366
42.03034
42.69867
43.74289
45.2266
0
0
0
0
0
0
0
0
0
40.3141
40.64121
41.26994
42.24945
43.6368
0
0
0
0
0
0
0
0
0
0
39.07117
39.38325
39.97982
40.90592
42.21346
0
0
0
0
0
0
0
0
0
0
37.89267
38.19225
38.76103
39.64049
40.87823
0
0
0
0
0
0
0
0
0
0
36.70899
36.99655
37.53885
38.37397
39.54556
0
0
0
0
0
0
0
0
0
0
0
0
0
35.48714
35.76223
36.27752
37.06809
38.17362
0
0
0
0
0
0
0
0
0
0
0
0
0
0
34.26942
34.53238
35.02162
35.7693
36.81177
0
0
0
0
0
0
0
0
0
0
0
0
0
0
0
33.09759
33.34937
33.81454
34.52267
35.50699
0
0
0
0
0
0
0
0
0
0
0
0
0
0
0
0
31.99163
32.23357
32.67693
33.3492
34.2809
0
0
0
0
0
0
0
0
0
0
0
0
0
0
0
0
0
30.95625
31.18918
31.61312
32.25303
33.1373
0
0
0
0
0
0
0
0
0
0
0
0
0
0
0
0
0
0
29.98575
30.21079
30.61695
31.22781
32.06918
0
0
0
0
0
0
0
0
0
0
0
0
0
0
0
0
0
0
0
29.06704
29.28466
29.67473
30.25878
31.06114
0
0
0
0
0
0
0
0
0
0
0
0
0
0
0
0
0
0
0
0
28.17804
28.3891
28.76389
29.32304
30.08874
0
0
0
0
0
0
0
0
0
0
0
0
0
0
0
0
0
0
0
0
27.29025
27.49448
27.85478
28.38956
29.12
0
0
0
0
0
0
0
0
0
0
0
0
0
0
0
0
0
0
0
0
26.38373
26.58146
26.92681
27.43762
28.13276
0
0
0
0
0
0
0
0
0
0
25.48534
25.67581
26.00707
26.49444
27.1561
0
0
0
0
0
0
0
0
0
0
24.6298
24.81426
25.1317
25.59783
26.22845
0
0
0
0
0
0
0
0
0
0
23.83961
24.01691
24.3225
24.76881
25.37186
0
0
0
0
0
0
0
0
0
0
23.12155
23.29317
23.58659
24.0158
24.5937
0
0
0
0
0
0
0
0
0
0
41.5771
41.92091
42.58477
43.62246
45.09704
0
0
0
0
0
0
0
0
0
40.12698
40.44944
41.07079
42.0395
43.41179
0
0
0
0
0
0
0
0
0
0
38.83998
39.14654
39.73428
40.64746
41.93699
0
0
0
0
0
0
0
0
0
0
37.6686
37.96279
38.52297
39.38984
40.61004
0
0
0
0
0
0
0
0
0
0
36.55529
36.83891
37.37497
38.20099
39.35994
0
0
0
0
0
0
0
0
0
0
35.435
35.70832
36.22095
37.00775
38.1081
0
0
0
0
0
0
0
0
0
0
0
0
0
0
34.27713
34.53957
35.02819
35.77508
36.81653
0
0
0
0
0
0
0
0
0
0
0
0
0
0
0
33.12171
33.37345
33.83871
34.54705
35.53171
0
0
0
0
0
0
0
0
0
0
0
0
0
0
0
0
32.00821
32.2502
32.69373
33.36628
34.29838
0
0
0
0
0
0
0
0
0
0
0
0
0
0
0
0
0
30.95625
31.18918
31.61312
32.25303
33.1373
0
0
0
0
0
0
0
0
0
0
0
0
0
0
0
0
0
0
29.97016
30.19511
30.60108
31.21164
32.05258
0
0
0
0
0
0
0
0
0
0
0
0
0
0
0
0
0
0
0
29.04518
29.26266
29.65247
30.23613
31.03795
0
0
0
0
0
0
0
0
0
0
0
0
0
0
0
0
0
0
0
0
28.16831
28.37931
28.75404
29.31315
30.07884
0
0
0
0
0
0
0
0
0
0
0
0
0
0
0
0
0
0
0
0
27.31937
27.52383
27.88474
28.42056
29.15255
0
0
0
0
0
0
0
0
0
0
0
0
0
0
0
0
0
0
0
0
26.47014
26.66867
27.01567
27.52919
28.22826
0
0
0
0
0
0
0
0
0
0
0
0
0
0
0
0
0
0
0
0
25.60293
25.79441
26.12781
26.61858
27.28511
0
0
0
0
0
0
0
0
0
0
24.74152
24.92693
25.24623
25.71538
26.35026
0
0
0
0
0
0
0
0
0
0
23.92207
24.09998
24.40692
24.85531
25.46135
0
0
0
0
0
0
0
0
0
0
23.16357
23.33556
23.62964
24.05992
24.63931
0
0
0
0
0
0
0
0
0
0
22.47731
22.64045
22.92378
23.33634
23.89254
0
0
0
0
0
0
0
0
0
0
40.02765
40.34767
40.96516
41.92826
43.2927
0
0
0
0
0
0
0
0
0
0
38.66508
38.96767
39.54903
40.45285
41.72933
0
0
0
0
0
0
0
0
0
0
37.45222
37.74168
38.2942
39.14981
40.35432
0
0
0
0
0
0
0
0
0
0
36.34563
36.62465
37.15323
37.96827
39.11191
0
0
0
0
0
0
0
0
0
0
35.29163
35.56161
36.06887
36.84777
37.93715
0
0
0
0
0
0
0
0
0
0
34.22929
34.49028
34.97668
35.72038
36.75743
0
0
0
0
0
0
0
0
0
0
0
0
0
0
0
33.13009
33.38147
33.84628
34.55404
35.53795
0
0
0
0
0
0
0
0
0
0
0
0
0
0
0
0
32.03179
32.27381
32.71748
33.3903
34.32282
0
0
0
0
0
0
0
0
0
0
0
0
0
0
0
0
0
30.97233
31.20534
31.62945
32.26966
33.15434
0
0
0
0
0
0
0
0
0
0
0
0
0
0
0
0
0
0
29.97016
30.19511
30.60108
31.21164
32.05258
0
0
0
0
0
0
0
0
0
0
0
0
0
0
0
0
0
0
0
29.03006
29.24744
29.63706
30.22041
31.02181
0
0
0
0
0
0
0
0
0
0
0
0
0
0
0
0
0
0
0
0
28.14704
28.35788
28.73232
29.29101
30.05615
0
0
0
0
0
0
0
0
0
0
0
0
0
0
0
0
0
0
0
0
27.30964
27.51399
27.87479
28.41049
29.14239
0
0
0
0
0
0
0
0
0
0
0
0
0
0
0
0
0
0
0
0
26.49762
26.69634
27.04382
27.55823
28.25863
0
0
0
0
0
0
0
0
0
0
0
0
0
0
0
0
0
0
0
0
25.68553
25.87763
26.21253
26.70573
27.37583
0
0
0
0
0
0
0
0
0
0
0
0
0
0
0
0
0
0
0
0
24.85424
25.04061
25.36181
25.83409
26.47344
0
0
0
0
0
0
0
0
0
0
24.02951
24.20819
24.51688
24.96801
25.57803
0
0
0
0
0
0
0
0
0
0
23.24292
23.41554
23.7108
24.14304
24.72518
0
0
0
0
0
0
0
0
0
0
22.51781
22.68123
22.96521
23.37874
23.93635
0
0
0
0
0
0
0
0
0
0
21.86062
22.01646
22.2869
22.68444
23.21863
0
0
0
0
0
0
0
0
0
0
38.57217
38.87268
39.45069
40.34962
41.61929
0
0
0
0
0
0
0
0
0
0
37.28825
37.57429
38.12126
38.96868
40.16177
0
0
0
0
0
0
0
0
0
0
36.14253
36.41746
36.93934
37.7445
38.87435
0
0
0
0
0
0
0
0
0
0
35.09489
35.36091
35.86163
36.63087
37.7068
0
0
0
0
0
0
0
0
0
0
34.09514
34.35331
34.83504
35.57185
36.59928
0
0
0
0
0
0
0
0
0
0
33.08601
33.33623
33.79917
34.50423
35.48438
0
0
0
0
0
0
0
0
0
0
0
0
0
0
0
0
32.04068
32.28245
32.72583
33.39825
34.33023
0
0
0
0
0
0
0
0
0
0
0
0
0
0
0
0
0
30.99536
31.22843
31.65274
32.29328
33.17843
0
0
0
0
0
0
0
0
0
0
0
0
0
0
0
0
0
0
29.98575
30.21079
30.61695
31.22781
32.06918
0
0
0
0
0
0
0
0
0
0
0
0
0
0
0
0
0
0
0
29.03006
29.24744
29.63706
30.22041
31.02181
0
0
0
0
0
0
0
0
0
0
0
0
0
0
0
0
0
0
0
0
28.13239
28.34312
28.71736
29.27574
30.04046
0
0
0
0
0
0
0
0
0
0
0
0
0
0
0
0
0
0
0
0
27.28897
27.49313
27.85363
28.3889
29.12023
0
0
0
0
0
0
0
0
0
0
0
0
0
0
0
0
0
0
0
0
26.48794
26.68652
27.03384
27.54807
28.24831
0
0
0
0
0
0
0
0
0
0
0
0
0
0
0
0
0
0
0
0
25.71158
25.90377
26.23908
26.73301
27.40428
0
0
0
0
0
0
0
0
0
0
0
0
0
0
0
0
0
0
0
0
24.93326
25.12022
25.44272
25.91722
26.5598
0
0
0
0
0
0
0
0
0
0
0
0
0
0
0
0
0
0
0
0
24.13781
24.31724
24.62773
25.08169
25.69585
0
0
0
0
0
0
0
0
0
0
23.34625
23.51966
23.81647
24.25129
24.83708
0
0
0
0
0
0
0
0
0
0
22.59436
22.75824
23.04339
23.45868
24.01888
0
0
0
0
0
0
0
0
0
0
21.89962
22.05579
22.32678
22.72527
23.26074
0
0
0
0
0
0
0
0
0
0
21.27764
21.41874
21.67774
22.05782
22.57195
0
0
0
0
0
0
0
0
0
0
37.20111
37.48534
38.02938
38.87251
40.05964
0
0
0
0
0
0
0
0
0
0
35.98839
36.26036
36.77735
37.5753
38.69509
0
0
0
0
0
0
0
0
0
0
34.90376
35.16623
35.66106
36.42155
37.48527
0
0
0
0
0
0
0
0
0
0
33.91004
34.16478
34.64076
35.36903
36.38453
0
0
0
0
0
0
0
0
0
0
32.9601
33.20794
33.66682
34.36583
35.33751
0
0
0
0
0
0
0
0
0
0
31.99992
32.24073
32.68258
33.35269
34.28144
0
0
0
0
0
0
0
0
0
0
0
0
0
0
0
0
0
31.00462
31.23754
31.66166
32.30196
33.18675
0
0
0
0
0
0
0
0
0
0
0
0
0
0
0
0
0
0
30.00821
30.23335
30.63974
31.25096
32.09284
0
0
0
0
0
0
0
0
0
0
0
0
0
0
0