/*--------------------------------*- C++ -*----------------------------------*\
| =========                 |                                                 |
| \\      /  F ield         | OpenFOAM: The Open Source CFD Toolbox           |
|  \\    /   O peration     | Version:  2306                                  |
|   \\  /    A nd           | Website:  www.openfoam.com                      |
|    \\/     M anipulation  |                                                 |
\*---------------------------------------------------------------------------*/
FoamFile
{
    version     2.0;
    format      ascii;
    arch        "LSB;label=32;scalar=64";
    class       volScalarField;
    location    "1.2/fuel";
    object      nernst;
}
// * * * * * * * * * * * * * * * * * * * * * * * * * * * * * * * * * * * * * //

dimensions      [1 2 -3 0 0 -1 0];

internalField   nonuniform List<scalar> 
16000
(
-1.740887
-1.741817
-1.728475
-1.74095
-1.743703
-1.729091
-1.741881
-1.717277
-1.72852
-1.741069
-1.74656
-1.730335
-1.743771
-1.717746
-1.729137
-1.742004
-1.708197
-1.71731
-1.728607
-1.741244
-1.750277
-1.732207
-1.746635
-1.718693
-1.730382
-1.743901
-1.708579
-1.717779
-1.729225
-1.742183
-1.700693
-1.708222
-1.717375
-1.728734
-1.741473
-1.754278
-1.73462
-1.750364
-1.720117
-1.732256
-1.746778
-1.709351
-1.718727
-1.730473
-1.74409
-1.701017
-1.708605
-1.717845
-1.729354
-1.742418
-1.694328
-1.700713
-1.708273
-1.717471
-1.728901
-1.741703
-1.757212
-1.737202
-1.754382
-1.721954
-1.734671
-1.750527
-1.71051
-1.720151
-1.732351
-1.746986
-1.701669
-1.709376
-1.718793
-1.730606
-1.74434
-1.694609
-1.701036
-1.708656
-1.717942
-1.729524
-1.742655
-1.68881
-1.694344
-1.700754
-1.708349
-1.717597
-1.729069
-1.741897
-1.758958
-1.739141
-1.757332
-1.723928
-1.737257
-1.754574
-1.712006
-1.721988
-1.734772
-1.750764
-1.702648
-1.710536
-1.72022
-1.732491
-1.747258
-1.695174
-1.701688
-1.709428
-1.718892
-1.730782
-1.744589
-1.689057
-1.694624
-1.701078
-1.708733
-1.71807
-1.729694
-1.742854
-1.68394
-1.688822
-1.694378
-1.700817
-1.70845
-1.717725
-1.729211
-1.74209
-1.759863
-1.740353
-1.759091
-1.725437
-1.739198
-1.757548
-1.713618
-1.723962
-1.737366
-1.754852
-1.703912
-1.712031
-1.722059
-1.734922
-1.751075
-1.696022
-1.702668
-1.710589
-1.720322
-1.732675
-1.747532
-1.689555
-1.695189
-1.70173
-1.709506
-1.719023
-1.730958
-1.7448
-1.684162
-1.68907
-1.694659
-1.701141
-1.708834
-1.718198
-1.729838
-1.743052
-1.679583
-1.68395
-1.688851
-1.694431
-1.7009
-1.708552
-1.717832
-1.729352
-1.742282
-1.760238
-1.741022
-1.760004
-1.726411
-1.740412
-1.759325
-1.714864
-1.725471
-1.739313
-1.757858
-1.705275
-1.713642
-1.724036
-1.737528
-1.755214
-1.697115
-1.703931
-1.712085
-1.722166
-1.73512
-1.751386
-1.690303
-1.696037
-1.70271
-1.710668
-1.720457
-1.73286
-1.747763
-1.684608
-1.689568
-1.695224
-1.701794
-1.709609
-1.719155
-1.731106
-1.74501
-1.679783
-1.684172
-1.689099
-1.694712
-1.701225
-1.708937
-1.718307
-1.729981
-1.743249
-1.675638
-1.679591
-1.683975
-1.688897
-1.694502
-1.700984
-1.708637
-1.717939
-1.729492
-1.742473
-1.760238
-1.741314
-1.760383
-1.72697
-1.741083
-1.76025
-1.715683
-1.726445
-1.740531
-1.759657
-1.706336
-1.714887
-1.725546
-1.739483
-1.758261
-1.698296
-1.705293
-1.713697
-1.724147
-1.737742
-1.755578
-1.691267
-1.69713
-1.703973
-1.712167
-1.722307
-1.735318
-1.751651
-1.685277
-1.690316
-1.696072
-1.702775
-1.710774
-1.720593
-1.733016
-1.747994
-1.680187
-1.684618
-1.689597
-1.695277
-1.701879
-1.709714
-1.719266
-1.731254
-1.74522
-1.675821
-1.679792
-1.684197
-1.689144
-1.694783
-1.701309
-1.709023
-1.718415
-1.730123
-1.743446
-1.672032
-1.675645
-1.679613
-1.684015
-1.688958
-1.694573
-1.701055
-1.708722
-1.718045
-1.729631
-1.743403
-1.759863
-1.741314
-1.760383
-1.727222
-1.741377
-1.760634
-1.716163
-1.727004
-1.741205
-1.760596
-1.70704
-1.715705
-1.72652
-1.740706
-1.760088
-1.699219
-1.706352
-1.714941
-1.72566
-1.739708
-1.758666
-1.692309
-1.69831
-1.705335
-1.713781
-1.724297
-1.737958
-1.75589
-1.686139
-1.691279
-1.697165
-1.704039
-1.712276
-1.72245
-1.735486
-1.751917
-1.680793
-1.685287
-1.690345
-1.696126
-1.702861
-1.710881
-1.720708
-1.733172
-1.748225
-1.67619
-1.680195
-1.684643
-1.689643
-1.695349
-1.701965
-1.709801
-1.719376
-1.731401
-1.745429
-1.672202
-1.675828
-1.679813
-1.684236
-1.689205
-1.694855
-1.70138
-1.709109
-1.718522
-1.730265
-1.744402
-1.66871
-1.672038
-1.675664
-1.679647
-1.684068
-1.68902
-1.694633
-1.701125
-1.708807
-1.71815
-1.730307
-1.744131
-1.758958
-1.741022
-1.760004
-1.727222
-1.741377
-1.760634
-1.716383
-1.727256
-1.7415
-1.760988
-1.707458
-1.716184
-1.72708
-1.741384
-1.761044
-1.699835
-1.707055
-1.715758
-1.726636
-1.740939
-1.76052
-1.693124
-1.69923
-1.706393
-1.715025
-1.725813
-1.739934
-1.759013
-1.68707
-1.692319
-1.698344
-1.705402
-1.713894
-1.724447
-1.738141
-1.756206
-1.681573
-1.686148
-1.691308
-1.69722
-1.704128
-1.712386
-1.72257
-1.735654
-1.752184
-1.676744
-1.680801
-1.685312
-1.690391
-1.696199
-1.702949
-1.71097
-1.720822
-1.733327
-1.748456
-1.672542
-1.676197
-1.680217
-1.684683
-1.689705
-1.695422
-1.702037
-1.709888
-1.719485
-1.731547
-1.746445
-1.668867
-1.672207
-1.675847
-1.679848
-1.68429
-1.689268
-1.694915
-1.701451
-1.709194
-1.718628
-1.730951
-1.745157
-1.665628
-1.668715
-1.672055
-1.675695
-1.679695
-1.684123
-1.689071
-1.694693
-1.701195
-1.708891
-1.718661
-1.730834
-1.744726
-1.757212
-1.740353
-1.759091
-1.72697
-1.741083
-1.76025
-1.716383
-1.727256
-1.7415
-1.760988
-1.707651
-1.716404
-1.727332
-1.741681
-1.761444
-1.700203
-1.707472
-1.716237
-1.727196
-1.74162
-1.761494
-1.693671
-1.699846
-1.707096
-1.715843
-1.72679
-1.741171
-1.760891
-1.6878
-1.693133
-1.699264
-1.70646
-1.71514
-1.725966
-1.740126
-1.759364
-1.682415
-1.687078
-1.692348
-1.6984
-1.705493
-1.714009
-1.724574
-1.738325
-1.756526
-1.677456
-1.68158
-1.686173
-1.691355
-1.697294
-1.704217
-1.712479
-1.722689
-1.735822
-1.752453
-1.673051
-1.67675
-1.680822
-1.685352
-1.690454
-1.696272
-1.703022
-1.71106
-1.720935
-1.733481
-1.749582
-1.669183
-1.672547
-1.676216
-1.680252
-1.684737
-1.689767
-1.695482
-1.702108
-1.709975
-1.719594
-1.732257
-1.747265
-1.665774
-1.668872
-1.672224
-1.675878
-1.679896
-1.684345
-1.68932
-1.694975
-1.701521
-1.709278
-1.719145
-1.731488
-1.745778
-1.662751
-1.665632
-1.66873
-1.672083
-1.675738
-1.679744
-1.684168
-1.689123
-1.694752
-1.701264
-1.709298
-1.71906
-1.73126
-1.745178
-1.754278
-1.739141
-1.757332
-1.726411
-1.740412
-1.759325
-1.716163
-1.727004
-1.741205
-1.760596
-1.707651
-1.716404
-1.727332
-1.741681
-1.761444
-1.700374
-1.707665
-1.716457
-1.727449
-1.74192
-1.761901
-1.693998
-1.700213
-1.707512
-1.716321
-1.727352
-1.741858
-1.761879
-1.688292
-1.693679
-1.699878
-1.707162
-1.715957
-1.726945
-1.741368
-1.761265
-1.683077
-1.687807
-1.693161
-1.699319
-1.706551
-1.715255
-1.726096
-1.740319
-1.75972
-1.678226
-1.682422
-1.687103
-1.692395
-1.698475
-1.705585
-1.714105
-1.724702
-1.738511
-1.75685
-1.673708
-1.677462
-1.681602
-1.686213
-1.691418
-1.697369
-1.704292
-1.712571
-1.722809
-1.73599
-1.753769
-1.669655
-1.673057
-1.676769
-1.680858
-1.685406
-1.690517
-1.696334
-1.703095
-1.711148
-1.721048
-1.734233
-1.750541
-1.666068
-1.669187
-1.672564
-1.676248
-1.6803
-1.684792
-1.68982
-1.695543
-1.702179
-1.710061
-1.720122
-1.732817
-1.747955
-1.662888
-1.665778
-1.668887
-1.672252
-1.675921
-1.679945
-1.684391
-1.689371
-1.695034
-1.701591
-1.709689
-1.719547
-1.731923
-1.746256
-1.660051
-1.662754
-1.665645
-1.668756
-1.672122
-1.675781
-1.679784
-1.684214
-1.689174
-1.694811
-1.701601
-1.709613
-1.71938
-1.731581
-1.745485
-1.750277
-1.737202
-1.754382
-1.725437
-1.739198
-1.757548
-1.715683
-1.726445
-1.740531
-1.759657
-1.707458
-1.716184
-1.72708
-1.741384
-1.761044
-1.700374
-1.707665
-1.716457
-1.727449
-1.74192
-1.761901
-1.694151
-1.700384
-1.707705
-1.716541
-1.727605
-1.742159
-1.762294
-1.688587
-1.694006
-1.700245
-1.707578
-1.716436
-1.727508
-1.742058
-1.762268
-1.683522
-1.688298
-1.693706
-1.699932
-1.707252
-1.716073
-1.727076
-1.741567
-1.761644
-1.678831
-1.683082
-1.687831
-1.693207
-1.699394
-1.706643
-1.715352
-1.726226
-1.740515
-1.760081
-1.674417
-1.678231
-1.682443
-1.687143
-1.69246
-1.698552
-1.705663
-1.714202
-1.72483
-1.738699
-1.758455
-1.670264
-1.673712
-1.677481
-1.681637
-1.686269
-1.691483
-1.697431
-1.704367
-1.712664
-1.722929
-1.736812
-1.755031
-1.666509
-1.66966
-1.673073
-1.676801
-1.680906
-1.685462
-1.69057
-1.696395
-1.703167
-1.711237
-1.721597
-1.734845
-1.751394
-1.663164
-1.666072
-1.669202
-1.672592
-1.676291
-1.680349
-1.684838
-1.689872
-1.695603
-1.70225
-1.710477
-1.720535
-1.733277
-1.748497
-1.66018
-1.662891
-1.665792
-1.668912
-1.672291
-1.675965
-1.679985
-1.684436
-1.689423
-1.695093
-1.701929
-1.710006
-1.719871
-1.732252
-1.746582
-1.657505
-1.660053
-1.662766
-1.665669
-1.668791
-1.672162
-1.675818
-1.679824
-1.684258
-1.689225
-1.695095
-1.701858
-1.709865
-1.71962
-1.731796
-1.74656
-1.73462
-1.750364
-1.723928
-1.737257
-1.754574
-1.714864
-1.725471
-1.739313
-1.757858
-1.70704
-1.715705
-1.72652
-1.740706
-1.760088
-1.700203
-1.707472
-1.716237
-1.727196
-1.74162
-1.761494
-1.694151
-1.700384
-1.707705
-1.716541
-1.727605
-1.742159
-1.762294
-1.688724
-1.694158
-1.700415
-1.70777
-1.716655
-1.727762
-1.742361
-1.76269
-1.68379
-1.688592
-1.694032
-1.700298
-1.707668
-1.716551
-1.727639
-1.74226
-1.762661
-1.679239
-1.683527
-1.68832
-1.693751
-1.700007
-1.707344
-1.716169
-1.727208
-1.741767
-1.762027
-1.674974
-1.678835
-1.683102
-1.687871
-1.693271
-1.69947
-1.70672
-1.71545
-1.726358
-1.740712
-1.761867
-1.670921
-1.674421
-1.67825
-1.682479
-1.6872
-1.692525
-1.698616
-1.70574
-1.7143
-1.724961
-1.739624
-1.760281
-1.667077
-1.670268
-1.673729
-1.677513
-1.681686
-1.686325
-1.691536
-1.697494
-1.704442
-1.712756
-1.723513
-1.737547
-1.756307
-1.663577
-1.666513
-1.669675
-1.673102
-1.676844
-1.680955
-1.685508
-1.690623
-1.696456
-1.703239
-1.711665
-1.722035
-1.735369
-1.752104
-1.660439
-1.663167
-1.666086
-1.669228
-1.672631
-1.676335
-1.68039
-1.684883
-1.689924
-1.695662
-1.702592
-1.710799
-1.720869
-1.733627
-1.748876
-1.657627
-1.660182
-1.662903
-1.665815
-1.668948
-1.672331
-1.676002
-1.680025
-1.684481
-1.689474
-1.695379
-1.702187
-1.710258
-1.720113
-1.732471
-1.655096
-1.657508
-1.660065
-1.662788
-1.665701
-1.668827
-1.672194
-1.675854
-1.679864
-1.684303
-1.68947
-1.69531
-1.702062
-1.710052
-1.719779
-1.743703
-1.732207
-1.746635
-1.721954
-1.734671
-1.750527
-1.713618
-1.723962
-1.737366
-1.754852
-1.706336
-1.714887
-1.725546
-1.739483
-1.758261
-1.699835
-1.707055
-1.715758
-1.726636
-1.740939
-1.76052
-1.693998
-1.700213
-1.707512
-1.716321
-1.727352
-1.741858
-1.761879
-1.688724
-1.694158
-1.700415
-1.70777
-1.716655
-1.727762
-1.742361
-1.76269
-1.683916
-1.688729
-1.694184
-1.700468
-1.70786
-1.716771
-1.727894
-1.742565
-1.763089
-1.679485
-1.683794
-1.688614
-1.694077
-1.700372
-1.707759
-1.716647
-1.727771
-1.742464
-1.763058
-1.675351
-1.679242
-1.683546
-1.688359
-1.693814
-1.700082
-1.70742
-1.716266
-1.72734
-1.741969
-1.76392
-1.671439
-1.674977
-1.678853
-1.683137
-1.687926
-1.693336
-1.699534
-1.706798
-1.715548
-1.726491
-1.741683
-1.763862
-1.66769
-1.670925
-1.674437
-1.678282
-1.682529
-1.687257
-1.69258
-1.698681
-1.705819
-1.714398
-1.725599
-1.7406
-1.762552
-1.664109
-1.66708
-1.670283
-1.673757
-1.677557
-1.681736
-1.686372
-1.69159
-1.697557
-1.704516
-1.713206
-1.724022
-1.738258
-1.757526
-1.660828
-1.66358
-1.666526
-1.6697
-1.673141
-1.676889
-1.680996
-1.685554
-1.690675
-1.696516
-1.703588
-1.712001
-1.722403
-1.735786
-1.752621
-1.657873
-1.660442
-1.663179
-1.666109
-1.669264
-1.672671
-1.676371
-1.68043
-1.684929
-1.689975
-1.695951
-1.702851
-1.711056
-1.721119
-1.733862
-1.655212
-1.65763
-1.660194
-1.662925
-1.665848
-1.668984
-1.672364
-1.676038
-1.680065
-1.684525
-1.68972
-1.695593
-1.702391
-1.710446
-1.720272
-1.652807
-1.655098
-1.657518
-1.660084
-1.662818
-1.665735
-1.668857
-1.672227
-1.675889
-1.679904
-1.684518
-1.689652
-1.695478
-1.702211
-1.710175
-1.741817
-1.730335
-1.743771
-1.720117
-1.732256
-1.746778
-1.712006
-1.721988
-1.734772
-1.750764
-1.705275
-1.713642
-1.724036
-1.737528
-1.755214
-1.699219
-1.706352
-1.714941
-1.72566
-1.739708
-1.758666
-1.693671
-1.699846
-1.707096
-1.715843
-1.72679
-1.741171
-1.760891
-1.688587
-1.694006
-1.700245
-1.707578
-1.716436
-1.727508
-1.742058
-1.762268
-1.683916
-1.688729
-1.694184
-1.700468
-1.70786
-1.716771
-1.727894
-1.742565
-1.763089
-1.6796
-1.68392
-1.688751
-1.694228
-1.700542
-1.70795
-1.716867
-1.728026
-1.74277
-1.763493
-1.675578
-1.679488
-1.683813
-1.688652
-1.694139
-1.700447
-1.707834
-1.716744
-1.727904
-1.742668
-1.765014
-1.671788
-1.675353
-1.67926
-1.683581
-1.688414
-1.693878
-1.700145
-1.707496
-1.716364
-1.727473
-1.742961
-1.765951
-1.668173
-1.671441
-1.674993
-1.678884
-1.683187
-1.687983
-1.69339
-1.699598
-1.706876
-1.715648
-1.727144
-1.74269
-1.766246
-1.664684
-1.667693
-1.670939
-1.674466
-1.678326
-1.682579
-1.687305
-1.692635
-1.698746
-1.705898
-1.714882
-1.726256
-1.741768
-1.765481
-1.661329
-1.664111
-1.667093
-1.670308
-1.673797
-1.677602
-1.681778
-1.686419
-1.691644
-1.697619
-1.70488
-1.713589
-1.724503
-1.738903
-1.758537
-1.65824
-1.660831
-1.663592
-1.66655
-1.669736
-1.673181
-1.676925
-1.681037
-1.6856
-1.690727
-1.69681
-1.703857
-1.712279
-1.722688
-1.73607
-1.655444
-1.657875
-1.660453
-1.6632
-1.666142
-1.6693
-1.672704
-1.676407
-1.68047
-1.684973
-1.690223
-1.696165
-1.703057
-1.711247
-1.721283
-1.652917
-1.655214
-1.65764
-1.660213
-1.662955
-1.665881
-1.669014
-1.672396
-1.676073
-1.680105
-1.684741
-1.689901
-1.695761
-1.70254
-1.710567
-1.650626
-1.652809
-1.655108
-1.657536
-1.660112
-1.662849
-1.665762
-1.668887
-1.672259
-1.675925
-1.680094
-1.684673
-1.689792
-1.695599
-1.702307
-1.740887
-1.729091
-1.741881
-1.718693
-1.730382
-1.743901
-1.71051
-1.720151
-1.732351
-1.746986
-1.703912
-1.712031
-1.722059
-1.734922
-1.751075
-1.698296
-1.705293
-1.713697
-1.724147
-1.737742
-1.755578
-1.693124
-1.69923
-1.706393
-1.715025
-1.725813
-1.739934
-1.759013
-1.688292
-1.693679
-1.699878
-1.707162
-1.715957
-1.726945
-1.741368
-1.761265
-1.68379
-1.688592
-1.694032
-1.700298
-1.707668
-1.716551
-1.727639
-1.74226
-1.762661
-1.6796
-1.68392
-1.688751
-1.694228
-1.700542
-1.70795
-1.716867
-1.728026
-1.74277
-1.763493
-1.675684
-1.679603
-1.683938
-1.688789
-1.694291
-1.700616
-1.708025
-1.716963
-1.728159
-1.742976
-1.76548
-1.671999
-1.67558
-1.679504
-1.683847
-1.688707
-1.694203
-1.700509
-1.70791
-1.716841
-1.728037
-1.743672
-1.767059
-1.6685
-1.67179
-1.675368
-1.67929
-1.683629
-1.68847
-1.693932
-1.700208
-1.707574
-1.716462
-1.728127
-1.743948
-1.768265
-1.665136
-1.668175
-1.671455
-1.675021
-1.678928
-1.683237
-1.68803
-1.693445
-1.699663
-1.706955
-1.716135
-1.727804
-1.743856
-1.769086
-1.66187
-1.664686
-1.667706
-1.670965
-1.674506
-1.678372
-1.682622
-1.687353
-1.692691
-1.698812
-1.706285
-1.715372
-1.727038
-1.743216
-1.769498
-1.658713
-1.661331
-1.664123
-1.667117
-1.670345
-1.673838
-1.677639
-1.681819
-1.686465
-1.691697
-1.697922
-1.705183
-1.713947
-1.72493
-1.739401
-1.655793
-1.658242
-1.660842
-1.663613
-1.666583
-1.669773
-1.673214
-1.676962
-1.681078
-1.685645
-1.690978
-1.697031
-1.704077
-1.71249
-1.722873
-1.653139
-1.655446
-1.657885
-1.660473
-1.663231
-1.666176
-1.66933
-1.672737
-1.676443
-1.68051
-1.68519
-1.690404
-1.696334
-1.703207
-1.711368
-1.650731
-1.652919
-1.655223
-1.657658
-1.660242
-1.662986
-1.665909
-1.669044
-1.672429
-1.676109
-1.680296
-1.684896
-1.690041
-1.695881
-1.702634
-1.648541
-1.650627
-1.652818
-1.655125
-1.657563
-1.660141
-1.662874
-1.66579
-1.668917
-1.672291
-1.676096
-1.680229
-1.684792
-1.689892
-1.695675
-1.728475
-1.74095
-1.717746
-1.729137
-1.742004
-1.709351
-1.718727
-1.730473
-1.74409
-1.702648
-1.710536
-1.72022
-1.732491
-1.747258
-1.697115
-1.703931
-1.712085
-1.722166
-1.73512
-1.751386
-1.692309
-1.69831
-1.705335
-1.713781
-1.724297
-1.737958
-1.75589
-1.6878
-1.693133
-1.699264
-1.70646
-1.71514
-1.725966
-1.740126
-1.759364
-1.683522
-1.688298
-1.693706
-1.699932
-1.707252
-1.716073
-1.727076
-1.741567
-1.761644
-1.679485
-1.683794
-1.688614
-1.694077
-1.700372
-1.707759
-1.716647
-1.727771
-1.742464
-1.763058
-1.675684
-1.679603
-1.683938
-1.688789
-1.694291
-1.700616
-1.708025
-1.716963
-1.728159
-1.742976
-1.76548
-1.672098
-1.675686
-1.679619
-1.683972
-1.688843
-1.694354
-1.700678
-1.708101
-1.71706
-1.728293
-1.743986
-1.767534
-1.668697
-1.672001
-1.675594
-1.679534
-1.683895
-1.688762
-1.694255
-1.700571
-1.707986
-1.716939
-1.728691
-1.744645
-1.76932
-1.665443
-1.668501
-1.671804
-1.675395
-1.679333
-1.683679
-1.688516
-1.693985
-1.700271
-1.707651
-1.716944
-1.728759
-1.745043
-1.770885
-1.662297
-1.665138
-1.668187
-1.67148
-1.675061
-1.678973
-1.683278
-1.688078
-1.6935
-1.699728
-1.707342
-1.716618
-1.728568
-1.745198
-1.772458
-1.659225
-1.661872
-1.664698
-1.66773
-1.671002
-1.674547
-1.67841
-1.682664
-1.687402
-1.692747
-1.699134
-1.706672
-1.715955
-1.728004
-1.745119
-1.776864
-1.656241
-1.658715
-1.661342
-1.664145
-1.66715
-1.670382
-1.673871
-1.677676
-1.68186
-1.686512
-1.691956
-1.69817
-1.705464
-1.714258
-1.725242
-1.65347
-1.655794
-1.658252
-1.660862
-1.663644
-1.666617
-1.669803
-1.673247
-1.676998
-1.681118
-1.685865
-1.691163
-1.697209
-1.70424
-1.712621
-1.650942
-1.65314
-1.655456
-1.657904
-1.660501
-1.663262
-1.666203
-1.66936
-1.672769
-1.676479
-1.680702
-1.685344
-1.690543
-1.696454
-1.703299
-1.648641
-1.650732
-1.652928
-1.65524
-1.657685
-1.660271
-1.663012
-1.665936
-1.669074
-1.672461
-1.67628
-1.68043
-1.685014
-1.690139
-1.695955
-1.646542
-1.648542
-1.650635
-1.652834
-1.655149
-1.65759
-1.660165
-1.662899
-1.665817
-1.668946
-1.672446
-1.676213
-1.68033
-1.684875
-1.689951
-1.717277
-1.72852
-1.741069
-1.708579
-1.717779
-1.729225
-1.742183
-1.701669
-1.709376
-1.718793
-1.730606
-1.74434
-1.696022
-1.702668
-1.710589
-1.720322
-1.732675
-1.747532
-1.691267
-1.69713
-1.703973
-1.712167
-1.722307
-1.735318
-1.751651
-1.68707
-1.692319
-1.698344
-1.705402
-1.713894
-1.724447
-1.738141
-1.756206
-1.683077
-1.687807
-1.693161
-1.699319
-1.706551
-1.715255
-1.726096
-1.740319
-1.75972
-1.679239
-1.683527
-1.68832
-1.693751
-1.700007
-1.707344
-1.716169
-1.727208
-1.741767
-1.762027
-1.675578
-1.679488
-1.683813
-1.688652
-1.694139
-1.700447
-1.707834
-1.716744
-1.727904
-1.742668
-1.765014
-1.672098
-1.675686
-1.679619
-1.683972
-1.688843
-1.694354
-1.700678
-1.708101
-1.71706
-1.728293
-1.743986
-1.767534
-1.668789
-1.6721
-1.6757
-1.679649
-1.68402
-1.688898
-1.694406
-1.70074
-1.708177
-1.717158
-1.728947
-1.744954
-1.769774
-1.665628
-1.668698
-1.672014
-1.675621
-1.679577
-1.683944
-1.688808
-1.694308
-1.700634
-1.708063
-1.717417
-1.729303
-1.745694
-1.771814
-1.662586
-1.665444
-1.668513
-1.671828
-1.675435
-1.679378
-1.683719
-1.688563
-1.694039
-1.700335
-1.708031
-1.7174
-1.729462
-1.746243
-1.773828
-1.659628
-1.662298
-1.665149
-1.668211
-1.671517
-1.675102
-1.67901
-1.68332
-1.688126
-1.693556
-1.700048
-1.70772
-1.717181
-1.729446
-1.746728
-1.777285
-1.656727
-1.659226
-1.661883
-1.664719
-1.667764
-1.67104
-1.674582
-1.678448
-1.682707
-1.68745
-1.693022
-1.699451
-1.707134
-1.716676
-1.729266
-1.74841
-1.781297
-1.653896
-1.656243
-1.658725
-1.661362
-1.664176
-1.667184
-1.670412
-1.673905
-1.677713
-1.681901
-1.686738
-1.692164
-1.698398
-1.705704
-1.714476
-1.651257
-1.653471
-1.655804
-1.658271
-1.66089
-1.663675
-1.666644
-1.669833
-1.67328
-1.677034
-1.681312
-1.686022
-1.691311
-1.697338
-1.704336
-1.648842
-1.650943
-1.653149
-1.655473
-1.65793
-1.66053
-1.663287
-1.666231
-1.66939
-1.672802
-1.676651
-1.680835
-1.685462
-1.690641
-1.696524
-1.646638
-1.648642
-1.65074
-1.652944
-1.655265
-1.657712
-1.660294
-1.663037
-1.665963
-1.669103
-1.672616
-1.676397
-1.68053
-1.685095
-1.690197
-1.644621
-1.646543
-1.648549
-1.650651
-1.652857
-1.655175
-1.657612
-1.660188
-1.662925
-1.665844
-1.669087
-1.672549
-1.6763
-1.680399
-1.684921
-1.708197
-1.71731
-1.728607
-1.741244
-1.701017
-1.708605
-1.717845
-1.729354
-1.742418
-1.695174
-1.701688
-1.709428
-1.718892
-1.730782
-1.744589
-1.690303
-1.696037
-1.70271
-1.710668
-1.720457
-1.73286
-1.747763
-1.686139
-1.691279
-1.697165
-1.704039
-1.712276
-1.72245
-1.735486
-1.751917
-1.682415
-1.687078
-1.692348
-1.6984
-1.705493
-1.714009
-1.724574
-1.738325
-1.756526
-1.678831
-1.683082
-1.687831
-1.693207
-1.699394
-1.706643
-1.715352
-1.726226
-1.740515
-1.760081
-1.675351
-1.679242
-1.683546
-1.688359
-1.693814
-1.700082
-1.70742
-1.716266
-1.72734
-1.741969
-1.76392
-1.671999
-1.67558
-1.679504
-1.683847
-1.688707
-1.694203
-1.700509
-1.70791
-1.716841
-1.728037
-1.743672
-1.767059
-1.668789
-1.6721
-1.6757
-1.679649
-1.68402
-1.688898
-1.694406
-1.70074
-1.708177
-1.717158
-1.728947
-1.744954
-1.769774
-1.665715
-1.66879
-1.672113
-1.675727
-1.679691
-1.684068
-1.688944
-1.694459
-1.700802
-1.708253
-1.717634
-1.729551
-1.745984
-1.772216
-1.662761
-1.665629
-1.66871
-1.672038
-1.67566
-1.679621
-1.683984
-1.688853
-1.694361
-1.700697
-1.708437
-1.717853
-1.729967
-1.746816
-1.774554
-1.659902
-1.662587
-1.665455
-1.668536
-1.671864
-1.675475
-1.679414
-1.68376
-1.688609
-1.694093
-1.700647
-1.708383
-1.71791
-1.730234
-1.747543
-1.777853
-1.657109
-1.659629
-1.662309
-1.665171
-1.668244
-1.671554
-1.675135
-1.679048
-1.683363
-1.688174
-1.693827
-1.700356
-1.708162
-1.717829
-1.730445
-1.748813
-1.781076
-1.654358
-1.656728
-1.659236
-1.661903
-1.664751
-1.667798
-1.671071
-1.674616
-1.678486
-1.68275
-1.687689
-1.693289
-1.699832
-1.707707
-1.717619
-1.731406
-1.750424
-1.784732
-1.651664
-1.653897
-1.656252
-1.658744
-1.661391
-1.664207
-1.667212
-1.670443
-1.673938
-1.677749
-1.682101
-1.686914
-1.692353
-1.69859
-1.705864
-1.649144
-1.651258
-1.65348
-1.655821
-1.658297
-1.660919
-1.663701
-1.666672
-1.669863
-1.673312
-1.677207
-1.681447
-1.686145
-1.691415
-1.69741
-1.64683
-1.648843
-1.650951
-1.653165
-1.655498
-1.657957
-1.660554
-1.663313
-1.666258
-1.669419
-1.672957
-1.676766
-1.680935
-1.685542
-1.690694
-1.644713
-1.646638
-1.648649
-1.650755
-1.652967
-1.655291
-1.657734
-1.660318
-1.663062
-1.66599
-1.669244
-1.672718
-1.676483
-1.680597
-1.685139
-1.642772
-1.644622
-1.64655
-1.648564
-1.650673
-1.652881
-1.655196
-1.657634
-1.660212
-1.662949
-1.665973
-1.669178
-1.672625
-1.676358
-1.680435
-1.700693
-1.708222
-1.717375
-1.728734
-1.741473
-1.694609
-1.701036
-1.708656
-1.717942
-1.729524
-1.742655
-1.689555
-1.695189
-1.70173
-1.709506
-1.719023
-1.730958
-1.7448
-1.685277
-1.690316
-1.696072
-1.702775
-1.710774
-1.720593
-1.733016
-1.747994
-1.681573
-1.686148
-1.691308
-1.69722
-1.704128
-1.712386
-1.72257
-1.735654
-1.752184
-1.678226
-1.682422
-1.687103
-1.692395
-1.698475
-1.705585
-1.714105
-1.724702
-1.738511
-1.75685
-1.674974
-1.678835
-1.683102
-1.687871
-1.693271
-1.69947
-1.70672
-1.71545
-1.726358
-1.740712
-1.761867
-1.671788
-1.675353
-1.67926
-1.683581
-1.688414
-1.693878
-1.700145
-1.707496
-1.716364
-1.727473
-1.742961
-1.765951
-1.668697
-1.672001
-1.675594
-1.679534
-1.683895
-1.688762
-1.694255
-1.700571
-1.707986
-1.716939
-1.728691
-1.744645
-1.76932
-1.665715
-1.66879
-1.672113
-1.675727
-1.679691
-1.684068
-1.688944
-1.694459
-1.700802
-1.708253
-1.717634
-1.729551
-1.745984
-1.772216
-1.662843
-1.665716
-1.668802
-1.672137
-1.675766
-1.679735
-1.684108
-1.688989
-1.694511
-1.700864
-1.708625
-1.718061
-1.730197
-1.747075
-1.774877
-1.660068
-1.662761
-1.66564
-1.668732
-1.672074
-1.6757
-1.679657
-1.684024
-1.688899
-1.694415
-1.701003
-1.708771
-1.718329
-1.73068
-1.748007
-1.778262
-1.657369
-1.659902
-1.662597
-1.665476
-1.668569
-1.671901
-1.675508
-1.679451
-1.683802
-1.688657
-1.694358
-1.700933
-1.70878
-1.718473
-1.731069
-1.749243
-1.781196
-1.654722
-1.65711
-1.659639
-1.662328
-1.665202
-1.668278
-1.671585
-1.675169
-1.679086
-1.683405
-1.68841
-1.694087
-1.700719
-1.708673
-1.718566
-1.731775
-1.750541
-1.784325
-1.652104
-1.654358
-1.656737
-1.659255
-1.661932
-1.664783
-1.667827
-1.671102
-1.674651
-1.678525
-1.682961
-1.687919
-1.693611
-1.700305
-1.708457
-1.719197
-1.732693
-1.752051
-1.787497
-1.649532
-1.651665
-1.653906
-1.656269
-1.65877
-1.66142
-1.664233
-1.66724
-1.670473
-1.673971
-1.677927
-1.682253
-1.687074
-1.692509
-1.698711
-1.647119
-1.649145
-1.651266
-1.653496
-1.655846
-1.658325
-1.660943
-1.663726
-1.666699
-1.669892
-1.673469
-1.677325
-1.681551
-1.68623
-1.691468
-1.644898
-1.646831
-1.648851
-1.650966
-1.653188
-1.655523
-1.657979
-1.660577
-1.663338
-1.666285
-1.66956
-1.673058
-1.676852
-1.681
-1.685582
-1.64286
-1.644714
-1.646646
-1.648664
-1.650777
-1.652991
-1.655311
-1.657756
-1.660341
-1.663087
-1.666119
-1.669334
-1.672792
-1.676539
-1.680632
-1.640987
-1.642772
-1.644629
-1.646563
-1.648584
-1.650695
-1.652901
-1.655216
-1.657655
-1.660235
-1.663068
-1.666054
-1.669244
-1.672673
-1.676385
-1.694328
-1.700713
-1.708273
-1.717471
-1.728901
-1.741703
-1.689057
-1.694624
-1.701078
-1.708733
-1.71807
-1.729694
-1.742854
-1.684608
-1.689568
-1.695224
-1.701794
-1.709609
-1.719155
-1.731106
-1.74501
-1.680793
-1.685287
-1.690345
-1.696126
-1.702861
-1.710881
-1.720708
-1.733172
-1.748225
-1.677456
-1.68158
-1.686173
-1.691355
-1.697294
-1.704217
-1.712479
-1.722689
-1.735822
-1.752453
-1.674417
-1.678231
-1.682443
-1.687143
-1.69246
-1.698552
-1.705663
-1.714202
-1.72483
-1.738699
-1.758455
-1.671439
-1.674977
-1.678853
-1.683137
-1.687926
-1.693336
-1.699534
-1.706798
-1.715548
-1.726491
-1.741683
-1.763862
-1.6685
-1.67179
-1.675368
-1.67929
-1.683629
-1.68847
-1.693932
-1.700208
-1.707574
-1.716462
-1.728127
-1.743948
-1.768265
-1.665628
-1.668698
-1.672014
-1.675621
-1.679577
-1.683944
-1.688808
-1.694308
-1.700634
-1.708063
-1.717417
-1.729303
-1.745694
-1.771814
-1.662843
-1.665716
-1.668802
-1.672137
-1.675766
-1.679735
-1.684108
-1.688989
-1.694511
-1.700864
-1.708625
-1.718061
-1.730197
-1.747075
-1.774877
-1.660145
-1.662843
-1.665727
-1.668824
-1.672172
-1.675805
-1.679771
-1.684148
-1.689035
-1.694564
-1.701169
-1.708951
-1.718522
-1.730885
-1.748222
-1.778468
-1.657527
-1.660068
-1.662771
-1.66566
-1.668765
-1.67211
-1.675732
-1.679693
-1.684065
-1.688945
-1.694674
-1.701272
-1.709139
-1.718843
-1.731437
-1.749552
-1.781367
-1.654969
-1.657369
-1.659912
-1.662616
-1.665507
-1.668602
-1.671931
-1.675541
-1.679488
-1.683843
-1.688886
-1.694596
-1.701256
-1.70922
-1.719083
-1.732136
-1.75077
-1.784219
-1.652452
-1.654722
-1.657119
-1.659657
-1.662357
-1.665234
-1.668307
-1.671616
-1.675203
-1.679124
-1.683613
-1.688633
-1.694393
-1.701139
-1.709256
-1.719532
-1.732855
-1.752088
-1.78705
-1.649953
-1.652105
-1.654367
-1.656754
-1.659282
-1.661962
-1.664809
-1.667856
-1.671134
-1.674686
-1.678713
-1.683162
-1.688197
-1.694013
-1.700926
-1.709702
-1.720136
-1.733732
-1.75341
-1.789732
-1.647492
-1.649533
-1.651673
-1.653922
-1.656294
-1.658798
-1.661444
-1.664259
-1.667268
-1.670503
-1.674132
-1.67806
-1.68239
-1.687204
-1.692603
-1.645175
-1.64712
-1.649152
-1.651282
-1.653519
-1.655871
-1.658347
-1.660966
-1.663751
-1.666726
-1.670034
-1.673572
-1.677414
-1.681621
-1.68627
-1.643038
-1.644899
-1.646838
-1.648865
-1.650988
-1.653212
-1.655544
-1.658001
-1.660601
-1.663363
-1.666414
-1.66965
-1.673132
-1.676906
-1.681031
-1.641072
-1.642861
-1.644721
-1.646659
-1.648685
-1.6508
-1.653011
-1.655332
-1.657777
-1.660364
-1.663206
-1.6662
-1.669399
-1.672839
-1.676565
-1.639262
-1.640988
-1.642779
-1.644642
-1.646583
-1.648606
-1.650714
-1.65292
-1.655236
-1.657677
-1.660345
-1.663142
-1.666112
-1.669284
-1.672694
-1.68881
-1.694344
-1.700754
-1.708349
-1.717597
-1.729069
-1.741897
-1.684162
-1.68907
-1.694659
-1.701141
-1.708834
-1.718198
-1.729838
-1.743052
-1.680187
-1.684618
-1.689597
-1.695277
-1.701879
-1.709714
-1.719266
-1.731254
-1.74522
-1.676744
-1.680801
-1.685312
-1.690391
-1.696199
-1.702949
-1.71097
-1.720822
-1.733327
-1.748456
-1.673708
-1.677462
-1.681602
-1.686213
-1.691418
-1.697369
-1.704292
-1.712571
-1.722809
-1.73599
-1.753769
-1.670921
-1.674421
-1.67825
-1.682479
-1.6872
-1.692525
-1.698616
-1.70574
-1.7143
-1.724961
-1.739624
-1.760281
-1.668173
-1.671441
-1.674993
-1.678884
-1.683187
-1.687983
-1.69339
-1.699598
-1.706876
-1.715648
-1.727144
-1.74269
-1.766246
-1.665443
-1.668501
-1.671804
-1.675395
-1.679333
-1.683679
-1.688516
-1.693985
-1.700271
-1.707651
-1.716944
-1.728759
-1.745043
-1.770885
-1.662761
-1.665629
-1.66871
-1.672038
-1.67566
-1.679621
-1.683984
-1.688853
-1.694361
-1.700697
-1.708437
-1.717853
-1.729967
-1.746816
-1.774554
-1.660145
-1.662843
-1.665727
-1.668824
-1.672172
-1.675805
-1.679771
-1.684148
-1.689035
-1.694564
-1.701169
-1.708951
-1.718522
-1.730885
-1.748222
-1.778468
-1.657601
-1.660146
-1.662853
-1.665747
-1.668857
-1.672208
-1.675837
-1.679806
-1.684188
-1.68908
-1.694821
-1.70143
-1.709306
-1.719016
-1.731611
-1.74971
-1.781473
-1.655119
-1.657527
-1.660077
-1.66279
-1.665691
-1.668798
-1.67214
-1.675765
-1.679729
-1.684106
-1.68917
-1.694898
-1.70157
-1.709538
-1.719391
-1.732393
-1.750972
-1.784234
-1.652688
-1.654969
-1.657378
-1.65993
-1.662645
-1.665538
-1.66863
-1.671961
-1.675574
-1.679525
-1.684045
-1.68909
-1.694869
-1.701616
-1.709699
-1.719845
-1.733072
-1.752223
-1.78685
-1.650286
-1.652452
-1.654731
-1.657136
-1.659684
-1.662387
-1.66526
-1.668335
-1.671647
-1.675238
-1.67931
-1.683808
-1.688897
-1.694749
-1.70162
-1.710008
-1.720302
-1.733824
-1.753431
-1.789303
-1.647895
-1.649953
-1.652113
-1.654384
-1.65678
-1.65931
-1.661987
-1.664836
-1.667885
-1.671166
-1.674856
-1.678891
-1.683405
-1.688545
-1.694542
-1.70195
-1.710437
-1.720894
-1.734595
-1.754537
-1.791513
-1.645532
-1.647492
-1.649541
-1.651688
-1.653946
-1.65632
-1.65882
-1.661468
-1.664285
-1.667296
-1.670649
-1.674249
-1.678178
-1.682499
-1.687277
-1.643304
-1.645176
-1.647127
-1.649166
-1.651304
-1.653543
-1.655892
-1.658369
-1.66099
-1.663776
-1.666856
-1.670125
-1.673649
-1.677471