/*--------------------------------*- C++ -*----------------------------------*\
| =========                 |                                                 |
| \\      /  F ield         | OpenFOAM: The Open Source CFD Toolbox           |
|  \\    /   O peration     | Version:  2306                                  |
|   \\  /    A nd           | Website:  www.openfoam.com                      |
|    \\/     M anipulation  |                                                 |
\*---------------------------------------------------------------------------*/
FoamFile
{
    version     2.0;
    format      ascii;
    arch        "LSB;label=32;scalar=64";
    class       volScalarField;
    location    "1.2/fuel";
    object      p_rgh;
}
// * * * * * * * * * * * * * * * * * * * * * * * * * * * * * * * * * * * * * //

dimensions      [1 -1 -2 0 0 0 0];

internalField   nonuniform List<scalar> 
16000
(
100529.6
100523.1
100445.3
100512.3
100511.6
100438.7
100505.6
100378
100430.8
100474.6
100491.3
100426.7
100493.5
100372.1
100424.1
100467.4
100326.8
100365.8
100399.3
100431
100472.4
100406.1
100472.4
100361.1
100411.7
100454.1
100321.5
100359.8
100392.2
100423.1
100287.7
100316.3
100339.3
100362.7
100340.3
100434.1
100385.1
100452.4
100342.5
100390.6
100431.2
100311.7
100348.6
100379.1
100408.5
100283
100311
100333
100355.2
100331
100256.7
100278.6
100293.5
100308.4
100286.6
100323
100427.6
100347.8
100412.8
100323.1
100369.1
100408.8
100295.1
100329.6
100357
100383.5
100274.2
100301
100321.2
100341.3
100313.6
100252.5
100273.8
100287.9
100301.8
100278.3
100313.4
100231.6
100248.7
100258.6
100266.9
100244.2
100272
100317.4
100422.2
100337.6
100405.4
100290.1
100331.1
100366.5
100277.8
100309.9
100334.1
100358.4
100259.4
100284.2
100301.6
100318
100284.3
100244.5
100264.8
100277.6
100289.6
100262.7
100295.5
100227.8
100244.3
100253.7
100261.2
100237.1
100263.6
100307.8
100210.8
100224.4
100230.9
100235.4
100211.7
100232
100267.4
100308.1
100421.7
100330.1
100399.5
100280.2
100320.5
100357.2
100248.9
100276.5
100294.7
100313
100243.9
100266.6
100281
100293.6
100253.5
100231.2
100249.9
100260.3
100269.1
100236.9
100265.4
100220.5
100236.2
100244.4
100250.4
100223.7
100247.7
100289.7
100207.2
100220.5
100226.5
100230.3
100205.5
100224.7
100258.9
100298.3
100193.2
100204.2
100208.5
100210.3
100187
100201.1
100228.1
100259.6
100300.4
100421.4
100327.8
100398.6
100273
100312.7
100350
100239.8
100266.3
100283.1
100301.4
100218.3
100237.4
100246.6
100252.5
100201.7
100217.1
100234.1
100242
100247.5
100209.3
100233.5
100208.4
100222.8
100229.1
100232.5
100201.5
100221.4
100259.3
100200.6
100213.1
100218.2
100220.7
100193.9
100211.1
100242.9
100280
100189.9
100200.7
100204.5
100205.8
100181.6
100194.9
100220.8
100251
100290.5
100178.1
100187.2
100189.9
100190.1
100167.4
100177.8
100197.8
100221.5
100253
100290.7
100421.4
100326.7
100398.2
100270.5
100310.2
100348.5
100233.2
100258.9
100274.7
100292.8
100210
100228.1
100235.8
100239.9
100185.4
100194.2
100208.3
100212.1
100212
100164.8
100180.4
100195.7
100208.6
100212.8
100213.5
100177.8
100193.2
100227.1
100189.6
100201
100204.4
100204.9
100174.7
100188.6
100216.4
100249.1
100183.8
100193.9
100197
100197.2
100171.3
100183.1
100207
100234.8
100271.8
100175.1
100183.9
100186.2
100185.9
100162.6
100172.3
100191.5
100214.1
100244.4
100280.6
100165
100172.6
100174.2
100173.2
100151.6
100159.2
100174.8
100192.1
100216
100244.9
100266.2
100421.7
100326.7
100398.2
100269.3
100309.1
100347.8
100230.8
100256.3
100272
100290.5
100203.9
100221.3
100228.1
100230.8
100173.9
100186.7
100199.9
100202.4
100200.5
100149.9
100163.2
100175
100185.5
100186.5
100182.8
100140
100148.1
100173.6
100177.9
100188
100189.8
100188.1
100154.2
100164.4
100188.1
100216.3
100173.7
100182.8
100184.5
100183.1
100154.5
100163.7
100184.4
100208.1
100240.6
100169.4
100177.8
100179.3
100178.2
100153.4
100161.9
100179.6
100200.3
100228.1
100261.7
100162.2
100169.6
100170.8
100169.4
100147.2
100154.3
100169.3
100185.8
100208.6
100236.2
100255.8
100153.5
100160
100160.7
100158.9
100138.4
100144.2
100156.6
100169.9
100187.4
100209.2
100224.4
100271.9
100422.2
100327.8
100398.6
100269.3
100309.1
100347.8
100229.7
100255.1
100270.8
100289.5
100201.7
100218.9
100225.3
100227.7
100170
100181.2
100193.8
100195.4
100192.3
100139.4
100151.2
100168.1
100177.8
100177.7
100172.6
100127.1
100132.7
100156.1
100159.1
100167.2
100166.3
100161.1
100121.8
100126.3
100142.7
100162.1
100162.9
100171
100171.3
100168
100136.5
100142.9
100160.2
100179.5
100207.3
100160.1
100167.6
100168
100165.4
100138.5
100144.9
100160.2
100177.5
100201.2
100230
100156.9
100163.9
100164.5
100162.4
100139
100145.1
100158.9
100173.8
100194.6
100219.7
100236.1
100150.9
100157.1
100157.5
100155.5
100134.4
100139.8
100151.7
100164.3
100181
100201.7
100215.4
100261.5
100143.3
100148.8
100148.9
100146.7
100127.2
100131.7
100141.9
100152.2
100165.7
100181.5
100191.8
100229.2
100262.5
100427.6
100330.1
100399.5
100270.5
100310.2
100348.5
100229.7
100255.1
100270.8
100289.5
100200.7
100217.8
100224
100226.3
100168.2
100179.2
100191.5
100192.9
100189.4
100135.6
100147
100163.1
100172.3
100171.5
100165.4
100118.1
100122
100143.9
100152.7
100160.2
100158.4
100152
100110.6
100113.1
100127.2
100144.1
100145.8
100152.1
100150.1
100144
100108.3
100110.2
100121.9
100133.6
100152.4
100150.1
100156.7
100155.9
100151.8
100122.5
100126.7
100139.2
100153
100172.2
100196
100148.3
100154.5
100154.1
100150.8
100125.6
100130
100141.9
100154.2
100171.7
100192.5
100203.2
100146
100151.8
100151.7
100149
100127
100131.5
100142.4
100153.8
100169
100187.6
100198.5
100242
100140.8
100146.2
100146.1
100143.5
100123.6
100127.7
100137.4
100147.2
100160.1
100175.1
100184.2
100220.3
100251.9
100134.2
100139
100138.6
100136.1
100117.6
100121.1
100129.6
100137.9
100148.5
100160.6
100166.6
100195.9
100221.3
100260.5
100434.1
100337.6
100405.4
100273
100312.7
100350
100230.8
100256.3
100272
100290.5
100200.7
100217.8
100224
100226.3
100168.2
100178.2
100190.5
100191.7
100188
100133.9
100145.1
100161.2
100170.2
100169.1
100162.7
100114.7
100118
100139.6
100148.2
100155.2
100152.8
100145.6
100102.8
100103.9
100116.4
100131.7
100139.9
100145.7
100143
100135.8
100098.5
100098.8
100108.6
100117.9
100134.1
100134.3
100139.4
100136.8
100130.3
100097.6
100098.2
100106.5
100114.4
100126
100140.2
100139
100144.4
100143
100138.4
100111.3
100113.8
100123.5
100133.1
100147
100163.2
100167.7
100137.9
100143.1
100142.2
100138.5
100114.9
100118
100127.3
100136.7
100149.3
100164.5
100170.6
100208.9
100136.3
100141.3
100140.7
100137.6
100116.8
100120.2
100129.1
100137.9
100149.6
100163
100169.9
100203.4
100231.9
100131.9
100136.5
100136
100133.2
100114.3
100117.5
100125.6
100133.5
100143.5
100154.9
100160.1
100188.3
100212.3
100249.8
100126
100130.2
100129.5
100126.8
100109.3
100112.1
100119.2
100126
100134.6
100143.9
100147.5
100170.1
100189.3
100219.7
100258.3
100472.4
100347.8
100412.8
100280.2
100320.5
100357.2
100233.2
100258.9
100274.7
100292.8
100201.7
100218.9
100225.3
100227.7
100170
100178.2
100190.5
100191.7
100188
100133.9
100145.1
100160.3
100169.3
100168
100161.4
100113.1
100116.2
100137.7
100146.4
100153.3
100150.6
100143.1
100099.8
100100.4
100112.4
100127.2
100135.7
100141.1
100137.8
100130.1
100091.6
100090.9
100099.3
100107
100121.4
100128.9
100133.5
100130.2
100122.9
100088.9
100088.3
100095
100101
100110.1
100121.5
100124.5
100128.6
100125.5
100118.9
100088.9
100088.7
100095
100100.1
100108.2
100116.4
100110.3
100129.3
100133.8
100131.9
100127.1
100101.9
100103.5
100111.1
100118.3
100128.1
100139.6
100140.5
100173.3
100128.8
100133.2
100131.8
100127.9
100105.8
100108
100115.6
100122.8
100132.4
100143.1
100146.3
100175.2
100197.4
100127.6
100131.9
100130.9
100127.7
100108.1
100110.7
100118.1
100125.1
100134.2
100144.3
100147.7
100173.9
100195.1
100229.6
100123.8
100127.9
100127
100124
100106.2
100108.7
100115.6
100122
100130.2
100139
100141.8
100163.6
100181.6
100210.5
100247.6
100118.6
100122.2
100121.3
100118.5
100101.9
100104.2
100110.3
100116
100123
100130.5
100132.4
100150.6
100164.4
100187.9
100217.9
100491.3
100385.1
100452.4
100290.1
100331.1
100366.5
100239.8
100266.3
100283.1
100301.4
100203.9
100221.3
100228.1
100230.8
100173.9
100179.2
100191.5
100192.9
100189.4
100135.6
100147
100160.3
100169.3
100168
100161.4
100113.1
100116.2
100137.7
100145.6
100152.4
100149.7
100142
100098.5
100098.8
100110.6
100125.2
100134.1
100139.3
100135.9
100127.9
100089
100087.8
100095.8
100102.9
100116.7
100125
100129.3
100125.5
100117.7
100082.8
100081.3
100087.1
100091.7
100099.1
100108.5
100119.4
100123.1
100119.5
100112.2
100081.1
100079.9
100085
100088.6
100094.6
100100.3
100090.3
100115.8
100119.2
100115.9
100109.4
100081.7
100081.1
100085.9
100089.5
100094.9
100100.3
100092.9
100112
100120.7
100124.5
100122.4
100117.4
100093.9
100094.9
100101
100106.4
100113.8
100121.7
100120.8
100144.9
100160.4
100120.6
100124.4
100122.7
100118.7
100098
100099.5
100105.8
100111.5
100118.9
100127
100127.6
100150.1
100165.9
100194
100119.8
100123.6
100122.3
100118.9
100100.5
100102.5
100108.7
100114.4
100121.8
100129.5
100131
100151.2
100167
100193.2
100227.2
100116.5
100120.1
100119
100115.9
100099.1
100101.1
100106.9
100112.3
100119
100126
100127.3
100144.9
100157.8
100180.1
100208.7
100111.8
100115.1
100114
100111.1
100095.4
100097.2
100102.5
100107.3
100113.3
100119.3
100120.2
100135.1
100145.6
100163.2
100186.4
100511.6
100406.1
100472.4
100323.1
100369.1
100408.8
100248.9
100276.5
100294.7
100313
100210
100228.1
100235.8
100239.9
100185.4
100181.2
100193.8
100195.4
100192.3
100139.4
100151.2
100161.2
100170.2
100169.1
100162.7
100114.7
100118
100139.6
100145.6
100152.4
100149.7
100142
100098.5
100098.8
100110.6
100125.2
100133.3
100138.5
100135
100126.9
100087.8
100086.5
100094.3
100101
100114.7
100123.5
100127.7
100123.7
100115.7
100080.4
100078.7
100084
100088.1
100094.9
100103.7
100115.8
100119.2
100115.2
100107.4
100075.7
100073.7
100078.1
100080.6
100085.3
100089.2
100076.4
100111.1
100114.1
100110.3
100103.2
100074.6
100073.1
100077
100079.5
100083.3
100086.7
100076.2
100093.3
100108.1
100110.9
100107.5
100101.1
100075.6
100074.6
100078.5
100081.1
100085
100088.2
100081
100094.1
100087.7
100113.1
100116.3
100113.9
100109
100087.1
100087.6
100092.7
100096.9
100102.5
100108.3
100105.8
100124.5
100134.6
100156
100113.2
100116.5
100114.7
100110.6
100091.2
100092.3
100097.6
100102.1
100108.1
100114.2
100113.5
100130.8
100142.3
100163.1
100190.1
100112.8
100116
100114.6
100111.2
100093.8
100095.3
100100.7
100105.4
100111.4
100117.6
100117.8
100134.1
100145.3
100165.4
100191.2
100109.9
100113
100111.8
100108.7
100092.8
100094.3
100099.4
100104
100109.6
100115.3
100115.6
100130
100139.8
100156.6
100178.6
100105.6
100108.5
100107.3
100104.4
100089.5
100091
100095.7
100099.8
100104.8
100109.9
100110
100122.6
100130.7
100144.6
100161.9
100523.1
100426.7
100493.5
100342.5
100390.6
100431.2
100277.8
100309.9
100334.1
100358.4
100218.3
100237.4
100246.6
100252.5
100201.7
100186.7
100199.9
100202.4
100200.5
100149.9
100163.2
100163.1
100172.3
100171.5
100165.4
100118.1
100122
100143.9
100146.4
100153.3
100150.6
100143.1
100099.8
100100.4
100112.4
100127.2
100133.3
100138.5
100135
100126.9
100087.8
100086.5
100094.3
100101
100114.7
100122.8
100126.9
100122.9
100114.8
100079.4
100077.5
100082.6
100086.5
100093.1
100101.6
100114.4
100117.7
100113.6
100105.6
100073.6
100071.4
100075.4
100077.5
100081.7
100085
100071.2
100107.8
100110.5
100106.4
100098.8
100069.7
100067.6
100070.9
100072.5
100075.2
100077.2
100064.7
100080.5
100103.7
100106.2
100102.4
100095.4
100069.2
100067.5
100070.6
100072.2
100074.8
100076.5
100067
100078.5
100071.6
100101.3
100103.6
100100.2
100094
100070.3
100069.2
100072.3
100074.2
100077
100079.2
100071.9
100082
100074.8
100071.1
100106.2
100108.9
100106.5
100101.6
100081.1
100081.3
100085.6
100088.9
100093.4
100097.7
100094.5
100108.9
100115.9
100131
100150.8
100106.5
100109.4
100107.5
100103.4
100085.1
100085.9
100090.4
100094.2
100099.1
100103.9
100102.2
100116.3
100124.2
100140
100160
100106.3
100109.2
100107.7
100104.2
100087.8
100089
100093.6
100097.6
100102.7
100107.6
100107.1
100120.5
100128.9
100144
100163.7
100103.8
100106.6
100105.3
100102.1
100087.1
100088.3
100092.8
100096.7
100101.5
100106.2
100105.9
100118.1
100125.6
100138.8
100155.2
100099.9
100102.5
100101.2
100098.3
100084.2
100085.4
100089.6
100093.1
100097.5
100101.7
100101.3
100112.2
100118.6
100129.8
100143.4
100529.6
100438.7
100505.6
100361.1
100411.7
100454.1
100295.1
100329.6
100357
100383.5
100243.9
100266.6
100281
100293.6
100253.5
100194.2
100208.3
100212.1
100212
100164.8
100180.4
100168.1
100177.8
100177.7
100172.6
100127.1
100132.7
100156.1
100148.2
100155.2
100152.8
100145.6
100102.8
100103.9
100116.4
100131.7
100134.1
100139.3
100135.9
100127.9
100089
100087.8
100095.8
100102.9
100116.7
100122.8
100126.9
100122.9
100114.8
100079.4
100077.5
100082.6
100086.5
100093.1
100101.6
100113.8
100117
100112.8
100104.8
100072.6
100070.3
100074.2
100076.2
100080.1
100083.1
100068.8
100106.4
100109.1
100104.8
100097.2
100067.8
100065.5
100068.5
100069.8
100072.1
100073.6
100060.2
100075.9
100100.6
100102.8
100098.7
100091.4
100064.7
100062.5
100065.1
100066
100067.8
100068.5
100057.3
100067.7
100060.7
100097.2
100099.2
100095.4
100088.7
100064.4
100062.7
100065.2
100066.3
100068.1
100069
100059.9
100068.8
100061.5
100058.3
100095.1
100097.1
100093.7
100087.7
100065.7
100064.4
100067.1
100068.5
100070.7
100072
100065.1
100072.7
100066.1
100061.5
100028.8
100099.9
100102.3
100099.8
100095
100075.9
100075.8
100079.4
100082.2
100085.8
100089.1
100085.5
100097.2
100101.6
100112.9
100126.8
100100.5
100103
100101
100096.9
100079.8
100080.3
100084.2
100087.4
100091.4
100095.2
100093.2
100104.8
100110.5
100122.2
100137.4
100100.4
100103
100101.4
100098
100082.5
100083.4
100087.5
100090.9
100095.1
100099.2
100098.1
100109.5
100115.9
100127.8
100142.5
100098.2
100100.7
100099.3
100096.2
100081.9
100083
100086.9
100090.3
100094.4
100098.3
100097.6
100108.1
100114.1
100124.6
100137.6
100094.6
100097
100095.7
100092.8
100079.4
100080.4
100084.1
100087.2
100091
100094.6
100093.9
100103.3
100108.6
100117.8
100128.8
100445.3
100512.3
100372.1
100424.1
100467.4
100311.7
100348.6
100379.1
100408.5
100259.4
100284.2
100301.6
100318
100284.3
100217.1
100234.1
100242
100247.5
100209.3
100233.5
100175
100185.5
100186.5
100182.8
100140
100148.1
100173.6
100152.7
100160.2
100158.4
100152
100110.6
100113.1
100127.2
100144.1
100135.7
100141.1
100137.8
100130.1
100091.6
100090.9
100099.3
100107
100121.4
100123.5
100127.7
100123.7
100115.7
100080.4
100078.7
100084
100088.1
100094.9
100103.7
100113.8
100117
100112.8
100104.8
100072.6
100070.3
100074.2
100076.2
100080.1
100083.1
100068.8
100105.8
100108.4
100104.1
100096.4
100067
100064.6
100067.4
100068.6
100070.8
100072
100058.2
100073.8
100099.4
100101.5
100097.3
100089.9
100062.9
100060.6
100063
100063.6
100065.1
100065.4
100053.6
100063.7
100056.9
100094.2
100096.1
100092
100085
100060.3
100058.2
100060.2
100060.8
100061.9
100062
100051.7
100059.8
100052.4
100049.8
100091.3
100093
100089.2
100082.8
100060.3
100058.5
100060.6
100061.3
100062.7
100063
100054.7
100061.5
100054.9
100051
100028.1
100089.5
100091.2
100087.9
100082.1
100061.6
100060.3
100062.6
100063.6
100065.3
100066.1
100059.6
100065.8
100059.3
100055.1
100027.7
100027.9
100094.2
100096.3
100093.8
100089.1
100071.1
100070.9
100074.1
100076.3
100079.3
100081.9
100078.2
100087.8
100090.9
100099.1
100109.5
100094.9
100097.1
100095.1
100091.1
100075
100075.3
100078.7
100081.4
100084.8
100087.9
100085.6
100095.4
100099.7
100108.8
100120
100095
100097.3
100095.6
100092.3
100077.6
100078.3
100081.9
100084.9
100088.5
100092
100090.6
100100.3
100105.4
100114.9
100126.5
100093
100095.3
100093.8
100090.8
100077.3
100078.1
100081.6
100084.6
100088.1
100091.5
100090.5
100099.6
100104.4
100113.2
100123.6
100089.7
100091.9
100090.5
100087.7
100075
100075.8
100079.2
100081.9
100085.3
100088.4
100087.4
100095.7
100100.1
100107.8
100116.9
100378
100430.8
100474.6
100321.5
100359.8
100392.2
100423.1
100274.2
100301
100321.2
100341.3
100313.6
100231.2
100249.9
100260.3
100269.1
100236.9
100265.4
100195.7
100208.6
100212.8
100213.5
100177.8
100193.2
100227.1
100159.1
100167.2
100166.3
100161.1
100121.8
100126.3
100142.7
100162.1
100139.9
100145.7
100143
100135.8
100098.5
100098.8
100108.6
100117.9
100134.1
100125
100129.3
100125.5
100117.7
100082.8
100081.3
100087.1
100091.7
100099.1
100108.5
100114.4
100117.7
100113.6
100105.6
100073.6
100071.4
100075.4
100077.5
100081.7
100085
100071.2
100105.8
100108.4
100104.1
100096.4
100067
100064.6
100067.4
100068.6
100070.8
100072
100058.2
100073.8
100098.8
100100.9
100096.7
100089.2
100062.2
100059.7
100062
100062.5
100063.9
100064
100051.9
100062
100055.3
100093.1
100094.8
100090.7
100083.6
100058.7
100056.4
100058.3
100058.6
100059.5
100059.3
100048.5
100056.4
100049.3
100047.2
100088.5
100090
100086
100079.4
100056.5
100054.3
100056.1
100056.3
100057.1
100056.8
100047.6
100053.8
100047.3
100043.9
100027.9
100085.9
100087.3
100083.7
100077.6
100056.5
100054.8
100056.6
100057.1
100058.1
100058.1
100050.4
100056.1
100049.7
100046.3
100027.1
100027.8
100084.4
100085.9
100082.6
100077.1
100057.9
100056.6
100058.6
100059.4
100060.7
100061.2
100055.1
100060.2
100054.2
100049.9
100027.2
100027
100027.9
100089
100090.8
100088.3
100083.8
100066.9
100066.6
100069.4
100071.2
100073.7
100075.8
100072.1
100080.3
100082.3
100088.7
100096.1
100089.8
100091.7
100089.7
100085.9
100070.6
100070.8
100073.8
100076.1
100079.1
100081.6
100079.2
100087.6
100090.9
100098.2
100106.9
100090
100092
100090.4
100087.1
100073.2
100073.7
100077
100079.5
100082.7
100085.6
100084
100092.6
100096.6
100104.5
100113.7
100088.2
100090.2
100088.8
100085.8
100073
100073.6
100076.9
100079.4
100082.6
100085.5
100084.3
100092.3
100096.3
100103.7
100112.3
100085.2
100087.1
100085.7
100083
100070.9
100071.6
100074.7
100077.1
100080.1
100082.8
100081.7
100089.1
100092.8
100099.4
100107
100326.8
100365.8
100399.3
100431
100283
100311
100333
100355.2
100331
100244.5
100264.8
100277.6
100289.6
100262.7
100295.5
100208.4
100222.8
100229.1
100232.5
100201.5
100221.4
100259.3
100177.9
100188
100189.8
100188.1
100154.2
100164.4
100188.1
100216.3
100145.8
100152.1
100150.1
100144
100108.3
100110.2
100121.9
100133.6
100152.4
100128.9
100133.5
100130.2
100122.9
100088.9
100088.3
100095
100101
100110.1
100121.5
100115.8
100119.2
100115.2
100107.4
100075.7
100073.7
100078.1
100080.6
100085.3
100089.2
100076.4
100106.4
100109.1
100104.8
100097.2
100067.8
100065.5
100068.5
100069.8
100072.1
100073.6
100060.2
100075.9
100098.8
100100.9
100096.7
100089.2
100062.2
100059.7
100062
100062.5
100063.9
100064
100051.9
100062
100055.3
100092.6
100094.3
100090.1
100082.9
100058
100055.6
100057.4
100057.7
100058.4
100058.1
100047.1
100054.9
100047.9
100046
100087.4
100088.9
100084.8
100078
100055
100052.7
100054.3
100054.4
100055
100054.4
100044.8
100050.9
100044.7
100041.8
100027.9
100083.3
100084.6
100080.7
100074.4
100053
100051
100052.4
100052.5
100053.1
100052.6
100044.2
100049.4
100043.3
100040.4
100027
100027.8
100081
100082.2
100078.7
100072.8
100053.2
100051.5
100053.1
100053.4
100054.1
100054
100047
100051.6
100045.9
100042.5
100026.8
100026.9
100027.9
100079.8
100081
100077.8
100072.5
100054.6
100053.3
100055
100055.6
100056.7
100057
100051.3
100055.7
100050
100046.1
100026.4
100026.6
100027
100027.9
100084.1
100085.8
100083.3
100079
100063.1
100062.6
100065.1
100066.7
100068.8
100070.5
100066.9
100074
100075.3
100080.3
100086.1
100085
100086.8
100084.7
100081
100066.6
100066.7
100069.4
100071.4
100074
100076.1
100073.6
100081
100083.5
100089.5
100096.5
100085.3
100087.2
100085.5
100082.3
100069.1
100069.5
100072.5
100074.7
100077.6
100080.1
100078.3
100085.9
100089.2
100095.8
100103.5
100083.7
100085.6
100084.1
100081.2
100069
100069.6
100072.5
100074.8
100077.6
100080.1
100078.8
100086
100089.3
100095.6
100102.8
100080.9
100082.7
100081.3
100078.6
100067.2
100067.7
100070.5
100072.7
100075.4
100077.8
100076.6
100083.3
100086.4
100092.1
100098.7
100287.7
100316.3
100339.3
100362.7
100340.3
100252.5
100273.8
100287.9
100301.8
100278.3
100313.4
100220.5
100236.2
100244.4
100250.4
100223.7
100247.7
100289.7
100189.6
100201
100204.4
100204.9
100174.7
100188.6
100216.4
100249.1
100162.9
100171
100171.3
100168
100136.5
100142.9
100160.2
100179.5
100207.3
100134.3
100139.4
100136.8
100130.3
100097.6
100098.2
100106.5
100114.4
100126
100140.2
100119.4
100123.1
100119.5
100112.2
100081.1
100079.9
100085
100088.6
100094.6
100100.3
100090.3
100107.8
100110.5
100106.4
100098.8
100069.7
100067.6
100070.9
100072.5
100075.2
100077.2
100064.7
100080.5
100099.4
100101.5
100097.3
100089.9
100062.9
100060.6
100063
100063.6
100065.1
100065.4
100053.6
100063.7
100056.9
100092.6
100094.3
100090.1
100082.9
100058
100055.6
100057.4
100057.7
100058.4
100058.1
100047.1
100054.9
100047.9
100046
100086.9
100088.3
100084.2
100077.4
100054.3
100052
100053.5
100053.5
100054
100053.3
100043.6
100049.6
100043.5
100040.8
100027.9
100082.3
100083.5
100079.5
100073.1
100051.7
100049.5
100050.8
100050.8
100051.1
100050.5
100041.7
100046.9
100041
100038.6
100027
100027.8
100078.6
100079.6
100075.9
100069.8
100050
100048
100049.3
100049.2
100049.6
100049
100041.4
100045.7
100040.3
100037.5
100026.6
100026.9
100027.8
100076.5
100077.6
100074.1
100068.6
100050.2
100048.6
100049.9
100050.1
100050.7
100050.4
100044
100048
100042.7
100039.7
100026
100026.6
100027
100027.8
100075.4
100076.5
100073.4
100068.4
100051.5
100050.3
100051.8
100052.3
100053.2
100053.3
100048
100051.8
100046.6
100042.9
100025.8
100025.9
100026.6
100027
100027.8
100079.7
100081.1
100078.7
100074.6
100059.5
100059.1
100061.3
100062.7
100064.5
100065.9
100062.3
100068.6
100069.5
100073.6
100078.1
100080.6
100082.2
100080.2
100076.6
100063
100062.9
100065.4
100067.2
100069.4
100071.2
100068.7
100075.3
100077.3
100082.3
100088
100081
100082.7
100081
100077.9
100065.4
100065.7
100068.4
100070.4
100072.9
100075.1
100073.3
100080
100082.8
100088.4
100094.9
100079.5
100081.2
100079.7
100076.9
100065.4
100065.8
100068.5
100070.5
100073.1
100075.3
100073.9
100080.4
100083.2
100088.7
100094.8
100076.9
100078.5
100077.2
100074.5
100063.7
100064.1
100066.7
100068.7
100071.1
100073.2
100072
100078.1
100080.7
100085.8
100091.4
100256.7
100278.6
100293.5
100308.4
100286.6
100323
100227.8
100244.3
100253.7
100261.2
100237.1
100263.6
100307.8
100200.6
100213.1
100218.2
100220.7
100193.9
100211.1
100242.9
100280
100173.7
100182.8
100184.5
100183.1
100154.5
100163.7
100184.4
100208.1
100240.6
100150.1
100156.7
100155.9
100151.8
100122.5
100126.7
100139.2
100153
100172.2
100196
100124.5
100128.6
100125.5
100118.9
100088.9
100088.7
100095
100100.1
100108.2
100116.4
100110.3
100111.1
100114.1
100110.3
100103.2
100074.6
100073.1
100077
100079.5
100083.3
100086.7
100076.2
100093.3
100100.6
100102.8
100098.7
100091.4
100064.7
100062.5
100065.1
100066
100067.8
100068.5
100057.3
100067.7
100060.7
100093.1
100094.8
100090.7
100083.6
100058.7
100056.4
100058.3
100058.6
100059.5
100059.3
100048.5
100056.4
100049.3
100047.2
100086.9
100088.3
100084.2
100077.4
100054.3
100052
100053.5
100053.5
100054
100053.3
100043.6
100049.6
100043.5
100040.8
100027.9
100081.8
100083
100079
100072.5
100051.1
100048.9
100050.1
100050
100050.3
100049.5
100040.6
100045.8
100040
100037.8
100027
100027.8
100077.6
100078.6
100074.8
100068.7
100048.7
100046.6
100047.8
100047.6
100047.8
100047.1
100039.2
100043.5
100038.4
100035.9
100026.6
100026.9
100027.8
100074.2
100075.1
100071.5
100065.8
100047.2
100045.3
100046.4
100046.3
100046.5
100045.9
100038.9
100042.7
100037.8
100035.3
100025.9
100026.6
100027
100027.8
100072.4
100073.3
100069.9
100064.7
100047.4
100045.9
100047.1
100047.2
100047.7
100047.3
100041.4
100044.9
100040.1
100037.2
100025.5
100025.9
100026.6
100027
100027.8
100071.4
100072.4
100069.4
100064.6
100048.7
100047.5
100048.9
100049.3
100050
100050.1
100045.1
100048.5
100043.6
100040.3
100025.1
100025.4
100025.9
100026.6
100027
100027.8
100075.5
100076.8
100074.5
100070.5
100056.3
100055.8
100057.8
100059
100060.6
100061.7
100058.4
100063.9
100064.5
100067.9
100071.6
100076.5
100077.9
100076
100072.5
100059.6
100059.5
100061.8
100063.3
100065.3
100066.9
100064.4
100070.3
100071.9
100076.2
100080.9
100076.9
100078.5
100076.8
100073.8
100061.9
100062.2
100064.6
100066.4
100068.7
100070.6
100068.8
100074.9
100077.2
100082.1
100087.6
100075.6
100077.1
100075.7
100073
100061.9
100062.3
100064.8
100066.6
100068.9
100070.9
100069.5
100075.3
100077.8
100082.6
100088
100073.1
100074.6
100073.3
100070.8
100060.4
100060.8
100063.2
100065
100067.2
100069.1
100067.8
100073.4
100075.7
100080.2
100085.2
100231.6
100248.7
100258.6
100266.9
100244.2
100272
100317.4
100207.2
100220.5
100226.5
100230.3
100205.5
100224.7
100258.9
100298.3
100183.8
100193.9
100197
100197.2
100171.3
100183.1
100207
100234.8
100271.8
100160.1
100167.6
100168
100165.4
100138.5
100144.9
100160.2
100177.5
100201.2
100230
100139
100144.4
100143
100138.4
100111.3
100113.8
100123.5
100133.1
100147
100163.2
100167.7
100115.8
100119.2
100115.9
100109.4
100081.7
100081.1
100085.9
100089.5
100094.9
100100.3
100092.9
100112
100103.7
100106.2
100102.4
100095.4
100069.2
100067.5
100070.6
100072.2
100074.8
100076.5
100067
100078.5
100071.6
100094.2
100096.1
100092
100085
100060.3
100058.2
100060.2
100060.8
100061.9
100062
100051.7
100059.8
100052.4
100049.8
100087.4
100088.9
100084.8
100078
100055
100052.7
100054.3
100054.4
100055
100054.4
100044.8
100050.9
100044.7
100041.8
100027.9
100081.8
100083
100079
100072.5
100051.1
100048.9
100050.1
100050
100050.3
100049.5
100040.6
100045.8
100040
100037.8
100027
100027.8
100077.2
100078.1
100074.3
100068.2
100048.1
100046
100047.1
100046.9
100047.1
100046.2
100038.2
100042.5
100037.5
100035.3
100026.6
100026.9
100027.8
100073.3
100074.2
100070.5
100064.7
100046
100044
100045
100044.8
100044.9
100044.2
100036.9
100040.8
100036.1
100034
100025.9
100026.6
100026.9
100027.8
100070.2
100071
100067.5
100062
100044.6
100042.8
100043.8
100043.7
100043.8
100043.2
100036.8
100040.2
100035.7
100033.4
100025.4
100025.8
100026.6
100026.9
100027.8
100068.5
100069.3
100066.1
100061.1
100044.9
100043.4
100044.5
100044.6
100044.9
100044.6
100039
100042.2
100037.8
100035.2
100024.8
100025.3
100025.9
100026.6
100026.9
100027.8
100067.7
100068.6
100065.7
100061.1
100046.1
100045
100046.2
100046.6
100047.2
100047.2
100042.6
100045.5
100041.1
100037.9
100024.4
100024.7
100025.4
100025.9
100026.6
100026.9
100027.8
100071.7
100072.8
100070.6
100066.7
100053.3
100052.8
100054.6
100055.7
100057.1
100058.1
100054.8
100059.8
100060.2
100063.1
100066.2
100072.6
100074
100072
100068.7
100056.4
100056.3
100058.4
100059.8
100061.6
100062.9
100060.5
100065.9
100067.2
100070.9
100075
100073.1
100074.5
100072.9
100070
100058.7
100058.9
100061.1
100062.8
100064.8
100066.5
100064.7
100070.2
100072.2
100076.5
100081.3
100071.8
100073.3
100071.9
100069.3
100058.8
100059.1
100061.3
100063.1
100065.1
100066.9
100065.5
100070.8
100073
100077.2
100081.9
100069.6
100071
100069.7
100067.2
100057.3
100057.7
100059.9
100061.6
100063.6
100065.3
100064
100069.1
100071.2
100075.2
100079.6
100210.8
100224.4
100230.9
100235.4
100211.7
100232
100267.4
100308.1
100189.9
100200.7
100204.5
100205.8
100181.6
100194.9
100220.8
100251
100290.5
100169.4
100177.8
100179.3
100178.2
100153.4
100161.9
100179.6
100200.3
100228.1
100261.7
100148.3
100154.5
100154.1
100150.8
100125.6
100130
100141.9
100154.2
100171.7
100192.5
100203.2
100129.3
100133.8
100131.9
100127.1
100101.9
100103.5
100111.1
100118.3
100128.1
100139.6
100140.5
100173.3
100108.1
100110.9
100107.5
100101.1
100075.6
100074.6
100078.5
100081.1
100085
100088.2
100081
100094.1
100087.7
100097.2
100099.2
100095.4
100088.7
100064.4
100062.7
100065.2
100066.3
100068.1
100069
100059.9
100068.8
100061.5
100058.3
100088.5
100090
100086
100079.4
100056.5
100054.3
100056.1
100056.3
100057.1
100056.8
100047.6
100053.8
100047.3
100043.9
100027.9
100082.3
100083.5
100079.5
100073.1
100051.7
100049.5
100050.8
100050.8
100051.1
100050.5
100041.7
100046.9
100041
100038.6
100027
100027.8
100077.2
100078.1
100074.3
100068.2
100048.1
100046
100047.1
100046.9
100047.1
100046.2
100038.2
100042.5
100037.5
100035.3
100026.6
100026.9
100027.8
100072.9
100073.7
100070
100064.2
100045.4
100043.4
100044.4
100044.2
100044.2
100043.4
100036.1
100039.9
100035.3
100033.4
100025.9
100026.6
100026.9
100027.8
100069.3
100070.1
100066.5
100061
100043.5
100041.6
100042.5
100042.3
100042.4
100041.6
100035
100038.4
100034.2
100032.2
100025.4
100025.8
100026.6
100026.9
100027.8
100066.5
100067.1
100063.8
100058.6
100042.2
100040.5
100041.4
100041.3
100041.4
100040.8
100034.9
100037.9
100033.8
100031.8
100024.7
100025.3
100025.9
100026.6
100026.9
100027.8
100064.9
100065.6
100062.6
100057.8
100042.5
100041.1
100042.1
100042.1
100042.5
100042.1
100037
100039.8
100035.8
100033.4
100024.1
100024.7
100025.4
100025.9
100026.6
100026.9
100027.8
100064.2
100065
100062.2
100057.9
100043.7
100042.6
100043.8
100044
100044.6
100044.6
100040.2
100042.9
100038.8
100035.9
100023.7
100024.1
100024.7
100025.4
100025.9
100026.6
100026.9
100027.8
100068
100069.1
100066.9
100063.2
100050.5
100050
100051.7
100052.6
100053.9
100054.7
100051.7
100056.2
100056.4
100058.9
100061.5
100069
100070.2
100068.4
100065.2
100053.5
100053.3
100055.3
100056.5
100058.1
100059.4
100057
100061.9
100063
100066.2
100069.8
100069.5
100070.8
100069.2
100066.4
100055.7
100055.8
100057.9
100059.4
100061.3
100062.8
100061
100066.1
100067.8
100071.6
100075.9
100068.3
100069.7
100068.3
100065.8
100055.8
100056
100058.2
100059.7
100061.6
100063.2
100061.8
100066.7
100068.6
100072.4
100076.6
100066.2
100067.5
100066.2
100063.9
100054.4
100054.7
100056.8
100058.3
100060.2
100061.8
100060.5
100065.2
100067
100070.7
100074.7
100193.2
100204.2
100208.5
100210.3
100187
100201.1
100228.1
100259.6
100300.4
100175.1
100183.9
100186.2
100185.9
100162.6
100172.3
100191.5
100214.1
100244.4