/*--------------------------------*- C++ -*----------------------------------*\
| =========                 |                                                 |
| \\      /  F ield         | OpenFOAM: The Open Source CFD Toolbox           |
|  \\    /   O peration     | Version:  2306                                  |
|   \\  /    A nd           | Website:  www.openfoam.com                      |
|    \\/     M anipulation  |                                                 |
\*---------------------------------------------------------------------------*/
FoamFile
{
    version     2.0;
    format      ascii;
    arch        "LSB;label=32;scalar=64";
    class       volScalarField;
    location    "1.2/fuel";
    object      T;
}
// * * * * * * * * * * * * * * * * * * * * * * * * * * * * * * * * * * * * * //

dimensions      [0 0 0 1 0 0 0];

internalField   nonuniform List<scalar> 
16000
(
1119.205
1119.067
1120.832
1119.216
1118.749
1120.82
1119.078
1122.344
1120.84
1119.232
1118.16
1120.788
1118.761
1122.367
1120.827
1119.095
1123.774
1122.348
1120.852
1119.252
1117.177
1120.725
1118.176
1122.416
1120.795
1118.779
1123.809
1122.37
1120.838
1119.116
1125.158
1123.775
1122.355
1120.867
1119.277
1115.743
1120.606
1117.198
1122.5
1120.73
1118.196
1123.884
1122.419
1120.806
1118.801
1125.196
1123.809
1122.377
1120.854
1119.142
1126.503
1125.156
1123.779
1122.367
1120.887
1119.308
1114.122
1120.4
1115.775
1122.623
1120.608
1117.224
1124.017
1122.5
1120.74
1118.222
1125.279
1123.883
1122.425
1120.821
1118.829
1126.541
1125.193
1123.812
1122.389
1120.874
1119.172
1127.808
1126.498
1125.157
1123.787
1122.383
1120.912
1119.338
1112.641
1120.099
1114.168
1122.768
1120.399
1115.811
1124.221
1122.62
1120.616
1117.256
1125.426
1124.014
1122.505
1120.754
1118.252
1126.625
1125.275
1123.886
1122.435
1120.84
1118.861
1127.845
1126.535
1125.193
1123.82
1122.404
1120.898
1119.204
1129.072
1127.801
1126.497
1125.162
1123.799
1122.403
1120.937
1119.369
1111.541
1119.764
1112.701
1122.866
1120.098
1114.218
1124.486
1122.758
1120.403
1115.852
1125.656
1124.214
1122.62
1120.628
1117.292
1126.773
1125.42
1124.014
1122.513
1120.772
1118.288
1127.926
1126.618
1125.275
1123.893
1122.45
1120.864
1118.894
1129.107
1127.837
1126.533
1125.198
1123.831
1122.424
1120.923
1119.235
1130.292
1129.063
1127.798
1126.499
1125.17
1123.815
1122.423
1120.962
1119.4
1110.959
1119.479
1111.611
1122.903
1119.765
1112.765
1124.727
1122.852
1120.101
1114.272
1125.96
1124.473
1122.753
1120.411
1115.897
1127.006
1125.646
1124.211
1122.625
1120.644
1117.335
1128.07
1126.765
1125.418
1124.019
1122.526
1120.795
1118.325
1129.185
1127.918
1126.616
1125.279
1123.903
1122.469
1120.889
1118.928
1130.325
1129.098
1127.833
1126.535
1125.206
1123.847
1122.444
1120.948
1119.267
1131.468
1130.282
1129.058
1127.797
1126.504
1125.182
1123.831
1122.443
1120.987
1119.431
1110.959
1119.318
1111.035
1122.902
1119.483
1111.685
1124.902
1122.888
1119.77
1112.833
1126.251
1124.708
1122.843
1120.109
1114.331
1127.317
1125.945
1124.463
1122.752
1120.424
1115.949
1128.297
1126.994
1125.641
1124.212
1122.634
1120.665
1117.378
1129.323
1128.06
1126.76
1125.42
1124.027
1122.543
1120.819
1118.363
1130.4
1129.175
1127.913
1126.616
1125.286
1123.918
1122.488
1120.913
1118.962
1131.5
1130.315
1129.092
1127.833
1126.54
1125.218
1123.862
1122.464
1120.973
1119.299
1132.599
1131.457
1130.276
1129.056
1127.8
1126.513
1125.195
1123.847
1122.464
1121.013
1119.584
1111.541
1119.318
1111.035
1122.892
1119.324
1111.115
1125.008
1122.887
1119.492
1111.763
1126.476
1124.881
1122.877
1119.78
1112.904
1127.62
1126.23
1124.694
1122.838
1120.121
1114.395
1128.602
1127.3
1125.933
1124.458
1122.755
1120.442
1116
1129.541
1128.284
1126.987
1125.638
1124.216
1122.647
1120.686
1117.423
1130.531
1129.311
1128.054
1126.759
1125.425
1124.04
1122.56
1120.842
1118.401
1131.57
1130.389
1129.168
1127.912
1126.621
1125.296
1123.932
1122.507
1120.938
1118.996
1132.629
1131.488
1130.308
1129.09
1127.835
1126.549
1125.23
1123.878
1122.484
1120.998
1119.456
1133.683
1132.587
1131.449
1130.272
1129.057
1127.807
1126.523
1125.207
1123.863
1122.484
1121.137
1119.875
1112.641
1119.479
1111.611
1122.892
1119.324
1111.115
1125.058
1122.877
1119.334
1111.198
1126.624
1124.987
1122.876
1119.504
1111.845
1127.861
1126.453
1124.864
1122.871
1119.794
1112.981
1128.901
1127.599
1126.214
1124.684
1122.838
1120.138
1114.459
1129.834
1128.584
1127.287
1125.925
1124.456
1122.763
1120.459
1116.053
1130.739
1129.527
1128.275
1126.982
1125.64
1124.225
1122.661
1120.708
1117.467
1131.696
1130.519
1129.304
1128.051
1126.762
1125.434
1124.052
1122.577
1120.866
1118.44
1132.696
1131.558
1130.381
1129.165
1127.914
1126.628
1125.308
1123.947
1122.526
1120.963
1119.165
1133.712
1132.617
1131.48
1130.304
1129.09
1127.842
1126.558
1125.242
1123.894
1122.504
1121.122
1119.762
1134.723
1133.671
1132.578
1131.444
1130.271
1129.061
1127.814
1126.532
1125.22
1123.879
1122.585
1121.362
1120.181
1114.122
1119.764
1112.701
1122.902
1119.483
1111.685
1125.058
1122.877
1119.334
1111.198
1126.697
1125.036
1122.867
1119.348
1111.286
1128.022
1126.6
1124.969
1122.87
1119.521
1111.931
1129.141
1127.837
1126.434
1124.851
1122.869
1119.813
1113.057
1130.122
1128.879
1127.581
1126.201
1124.678
1122.841
1120.155
1114.522
1131.019
1129.816
1128.57
1127.278
1125.921
1124.459
1122.77
1120.477
1116.105
1131.894
1130.725
1129.516
1128.269
1126.981
1125.645
1124.233
1122.674
1120.73
1117.513
1132.816
1131.683
1130.51
1129.299
1128.051
1126.768
1125.443
1124.065
1122.594
1120.89
1118.63
1133.777
1132.684
1131.55
1130.376
1129.165
1127.919
1126.637
1125.319
1123.962
1122.545
1121.085
1119.503
1134.75
1133.7
1132.608
1131.475
1130.303
1129.094
1127.848
1126.567
1125.254
1123.91
1122.603
1121.347
1120.087
1135.716
1134.71
1133.662
1132.572
1131.443
1130.274
1129.066
1127.82
1126.541
1125.232
1123.96
1122.765
1121.59
1120.499
1115.743
1120.099
1114.168
1122.903
1119.765
1112.765
1125.008
1122.887
1119.492
1111.763
1126.697
1125.036
1122.867
1119.348
1111.286
1128.102
1126.672
1125.017
1122.861
1119.367
1111.377
1129.304
1127.997
1126.579
1124.955
1122.868
1119.542
1112.018
1130.356
1129.117
1127.817
1126.419
1124.843
1122.871
1119.831
1113.133
1131.296
1130.101
1128.861
1127.568
1126.193
1124.676
1122.845
1120.172
1114.586
1132.162
1131.001
1129.801
1128.56
1127.272
1125.921
1124.462
1122.778
1120.496
1116.157
1133.005
1131.879
1130.713
1129.509
1128.266
1126.984
1125.65
1124.242
1122.687
1120.752
1117.735
1133.891
1132.802
1131.673
1130.504
1129.298
1128.055
1126.774
1125.452
1124.077
1122.611
1121.008
1119.025
1134.812
1133.764
1132.674
1131.544
1130.375
1129.169
1127.925
1126.644
1125.329
1123.976
1122.639
1121.31
1119.873
1135.743
1134.737
1133.69
1132.602
1131.473
1130.306
1129.099
1127.854
1126.576
1125.266
1123.988
1122.778
1121.576
1120.429
1136.665
1135.703
1134.7
1133.655
1132.569
1131.444
1130.277
1129.07
1127.827
1126.55
1125.295
1124.101
1122.942
1121.819
1120.827
1117.177
1120.4
1115.775
1122.866
1120.098
1114.218
1124.902
1122.888
1119.77
1112.833
1126.624
1124.987
1122.876
1119.504
1111.845
1128.102
1126.672
1125.017
1122.861
1119.367
1111.377
1129.385
1128.076
1126.65
1125.003
1122.859
1119.39
1111.469
1130.514
1129.278
1127.975
1126.563
1124.945
1122.87
1119.564
1112.103
1131.521
1130.332
1129.097
1127.8
1126.407
1124.838
1122.873
1119.85
1113.208
1132.426
1131.275
1130.083
1128.847
1127.558
1126.188
1124.674
1122.849
1120.189
1114.649
1133.261
1132.143
1130.986
1129.79
1128.553
1127.27
1125.92
1124.464
1122.786
1120.514
1116.409
1134.073
1132.99
1131.867
1130.705
1129.505
1128.267
1126.987
1125.655
1124.25
1122.701
1120.86
1118.196
1134.922
1133.877
1132.792
1131.666
1130.501
1129.299
1128.059
1126.78
1125.46
1124.09
1122.696
1121.232
1119.472
1135.802
1134.798
1133.753
1132.667
1131.541
1130.377
1129.172
1127.93
1126.652
1125.34
1124.049
1122.806
1121.542
1120.27
1136.691
1135.729
1134.727
1133.683
1132.598
1131.474
1130.308
1129.103
1127.861
1126.585
1125.326
1124.124
1122.952
1121.808
1120.782
1137.57
1136.652
1135.693
1134.693
1133.651
1132.569
1131.445
1130.28
1129.075
1127.834
1126.598
1125.403
1124.239
1123.118
1122.051
1118.16
1120.606
1117.198
1122.768
1120.399
1115.811
1124.727
1122.852
1120.101
1114.272
1126.476
1124.881
1122.877
1119.78
1112.904
1128.022
1126.6
1124.969
1122.87
1119.521
1111.931
1129.385
1128.076
1126.65
1125.003
1122.859
1119.39
1111.469
1130.594
1129.359
1128.054
1126.633
1124.993
1122.862
1119.413
1111.559
1131.674
1130.49
1129.257
1127.957
1126.55
1124.94
1122.872
1119.585
1112.187
1132.642
1131.497
1130.312
1129.08
1127.788
1126.4
1124.834
1122.876
1119.869
1113.283
1133.515
1132.405
1131.257
1130.068
1128.836
1127.551
1126.183
1124.672
1122.853
1120.206
1114.948
1134.318
1133.243
1132.128
1130.974
1129.782
1128.549
1127.267
1125.92
1124.467
1122.794
1120.604
1116.877
1135.096
1134.057
1132.977
1131.858
1130.7
1129.504
1128.268
1126.989
1125.66
1124.259
1122.767
1121.074
1118.732
1135.908
1134.907
1133.866
1132.784
1131.662
1130.502
1129.301
1128.062
1126.786
1125.469
1124.151
1122.846
1121.47
1119.97
1136.748
1135.788
1134.788
1133.746
1132.664
1131.542
1130.378
1129.176
1127.935
1126.66
1125.395
1124.174
1122.97
1121.78
1120.686
1137.594
1136.677
1135.719
1134.719
1133.679
1132.598
1131.475
1130.311
1129.107
1127.867
1126.63
1125.429
1124.256
1123.123
1122.042
1138.431
1137.556
1136.641
1135.685
1134.688
1133.65
1132.569
1131.446
1130.282
1129.079
1127.868
1126.678
1125.508
1124.374
1123.292
1118.749
1120.725
1118.176
1122.623
1120.608
1117.224
1124.486
1122.758
1120.403
1115.852
1126.251
1124.708
1122.843
1120.109
1114.331
1127.861
1126.453
1124.864
1122.871
1119.794
1112.981
1129.304
1127.997
1126.579
1124.955
1122.868
1119.542
1112.018
1130.594
1129.359
1128.054
1126.633
1124.993
1122.862
1119.413
1111.559
1131.75
1130.568
1129.337
1128.036
1126.62
1124.987
1122.864
1119.436
1111.648
1132.788
1131.649
1130.468
1129.239
1127.943
1126.541
1124.934
1122.874
1119.607
1112.271
1133.721
1132.619
1131.477
1130.295
1129.067
1127.779
1126.392
1124.829
1122.878
1119.888
1113.634
1134.561
1133.494
1132.388
1131.242
1130.057
1128.829
1127.545
1126.178
1124.67
1122.857
1120.291
1115.452
1135.331
1134.299
1133.227
1132.116
1130.966
1129.777
1128.545
1127.265
1125.92
1124.47
1122.833
1120.778
1117.355
1136.075
1135.08
1134.044
1132.968
1131.852
1130.698
1129.503
1128.268
1126.992
1125.665
1124.3
1122.888
1121.31
1119.365
1136.85
1135.893
1134.896
1133.858
1132.779
1131.661
1130.502
1129.303
1128.066
1126.792
1125.513
1124.255
1122.995
1121.721
1120.513
1137.649
1136.734
1135.777
1134.78
1133.742
1132.663
1131.542
1130.38
1129.179
1127.941
1126.7
1125.486
1124.293
1123.134
1122.023
1138.454
1137.581
1136.666
1135.711
1134.715
1133.678
1132.598
1131.476
1130.313
1129.111
1127.899
1126.705
1125.528
1124.385
1123.294
1139.249
1138.417
1137.546
1136.633
1135.68
1134.687
1133.649
1132.569
1131.447
1130.285
1129.102
1127.925
1126.754
1125.609
1124.506
1119.067
1120.788
1118.761
1122.5
1120.73
1118.196
1124.221
1122.62
1120.616
1117.256
1125.96
1124.473
1122.753
1120.411
1115.897
1127.62
1126.23
1124.694
1122.838
1120.121
1114.395
1129.141
1127.837
1126.434
1124.851
1122.869
1119.813
1113.057
1130.514
1129.278
1127.975
1126.563
1124.945
1122.87
1119.564
1112.103
1131.75
1130.568
1129.337
1128.036
1126.62
1124.987
1122.864
1119.436
1111.648
1132.862
1131.725
1130.547
1129.318
1128.021
1126.61
1124.981
1122.866
1119.459
1111.737
1133.862
1132.765
1131.628
1130.45
1129.224
1127.933
1126.532
1124.928
1122.876
1119.628
1112.664
1134.759
1133.698
1132.599
1131.461
1130.282
1129.057
1127.769
1126.384
1124.825
1122.881
1119.979
1114.198
1135.565
1134.54
1133.476
1132.373
1131.231
1130.05
1128.822
1127.538
1126.174
1124.669
1122.877
1120.447
1115.92
1136.302
1135.313
1134.284
1133.215
1132.107
1130.961
1129.773
1128.542
1127.263
1125.919
1124.484
1122.908
1120.96
1117.835
1137.011
1136.059
1135.067
1134.034
1132.961
1131.849
1130.696
1129.502
1128.269
1126.994
1125.69
1124.37
1123.012
1121.578
1120.143
1137.748
1136.835
1135.881
1134.887
1133.852
1132.777
1131.66
1130.502
1129.305
1128.069
1126.821
1125.582
1124.352
1123.146
1121.986
1138.508
1137.636
1136.723
1135.769
1134.775
1133.74
1132.662
1131.542
1130.381
1129.182
1127.967
1126.763
1125.57
1124.408
1123.297
1139.272
1138.441
1137.57
1136.658
1135.706
1134.713
1133.677
1132.598
1131.477
1130.315
1129.132
1127.95
1126.775
1125.622
1124.511
1140.025
1139.235
1138.406
1137.537
1136.628
1135.678
1134.685
1133.648
1132.569
1131.449
1130.298
1129.139
1127.977
1126.827
1125.707
1119.205
1120.82
1119.078
1122.416
1120.795
1118.779
1124.017
1122.5
1120.74
1118.222
1125.656
1124.214
1122.62
1120.628
1117.292
1127.317
1125.945
1124.463
1122.752
1120.424
1115.949
1128.901
1127.599
1126.214
1124.684
1122.838
1120.138
1114.459
1130.356
1129.117
1127.817
1126.419
1124.843
1122.871
1119.831
1113.133
1131.674
1130.49
1129.257
1127.957
1126.55
1124.94
1122.872
1119.585
1112.187
1132.862
1131.725
1130.547
1129.318
1128.021
1126.61
1124.981
1122.866
1119.459
1111.737
1133.933
1132.838
1131.704
1130.528
1129.303
1128.01
1126.6
1124.975
1122.869
1119.482
1112.153
1134.894
1133.839
1132.744
1131.611
1130.436
1129.213
1127.922
1126.522
1124.923
1122.879
1119.73
1113.283
1135.755
1134.737
1133.679
1132.583
1131.448
1130.272
1129.047
1127.76
1126.377
1124.82
1122.893
1120.139
1114.697
1136.527
1135.545
1134.523
1133.462
1132.362
1131.223
1130.042
1128.814
1127.532
1126.169
1124.66
1122.92
1120.602
1116.347
1137.229
1136.284
1135.298
1134.272
1133.206
1132.101
1130.955
1129.768
1128.538
1127.26
1125.918
1124.509
1122.984
1121.145
1118.304
1137.904
1136.995
1136.046
1135.057
1134.027
1132.957
1131.846
1130.693
1129.501
1128.269
1127.005
1125.725
1124.435
1123.143
1121.892
1138.603
1137.733
1136.823
1135.872
1134.881
1133.849
1132.775
1131.659
1130.502
1129.306
1128.086
1126.863
1125.643
1124.446
1123.298
1139.324
1138.494
1137.624
1136.714
1135.764
1134.772
1133.738
1132.661
1131.542
1130.383
1129.198
1128.008
1126.819
1125.65
1124.521
1140.047
1139.258
1138.43
1137.561
1136.653
1135.703
1134.711
1133.675
1132.597
1131.478
1130.327
1129.164
1127.997
1126.841
1125.713
1140.76
1140.012
1139.225
1138.398
1137.532
1136.625
1135.676
1134.683
1133.647
1132.569
1131.454
1130.318
1129.171
1128.026
1126.898
1120.832
1119.216
1122.367
1120.827
1119.095
1123.884
1122.419
1120.806
1118.801
1125.426
1124.014
1122.505
1120.754
1118.252
1127.006
1125.646
1124.211
1122.625
1120.644
1117.335
1128.602
1127.3
1125.933
1124.458
1122.755
1120.442
1116
1130.122
1128.879
1127.581
1126.201
1124.678
1122.841
1120.155
1114.522
1131.521
1130.332
1129.097
1127.8
1126.407
1124.838
1122.873
1119.85
1113.208
1132.788
1131.649
1130.468
1129.239
1127.943
1126.541
1124.934
1122.874
1119.607
1112.271
1133.933
1132.838
1131.704
1130.528
1129.303
1128.01
1126.6
1124.975
1122.869
1119.482
1112.153
1134.962
1133.909
1132.817
1131.686
1130.513
1129.291
1127.999
1126.591
1124.969
1122.871
1119.592
1112.803
1135.886
1134.872
1133.819
1132.727
1131.597
1130.425
1129.202
1127.912
1126.513
1124.917
1122.89
1119.902
1113.82
1136.71
1135.734
1134.718
1133.664
1132.57
1131.438
1130.262
1129.038
1127.751
1126.37
1124.799
1122.92
1120.293
1115.131
1137.447
1136.507
1135.528
1134.509
1133.451
1132.353
1131.215
1130.034
1128.807
1127.526
1126.146
1124.652
1122.965
1120.754
1116.721
1138.115
1137.212
1136.269
1135.285
1134.262
1133.2
1132.095
1130.95
1129.763
1128.534
1127.248
1125.915
1124.534
1123.059
1121.326
1119.19
1138.754
1137.888
1136.982
1136.036
1135.049
1134.022
1132.953
1131.842
1130.691
1129.5
1128.27
1127.016
1125.753
1124.497
1123.286
1139.416
1138.588
1137.721
1136.814
1135.866
1134.878
1133.846
1132.773
1131.658
1130.502
1129.313
1128.107
1126.896
1125.697
1124.537
1140.097
1139.31
1138.483
1137.616
1136.708
1135.761
1134.77
1133.736
1132.66
1131.542
1130.39
1129.219
1128.041
1126.87
1125.726
1140.781
1140.034
1139.247
1138.421
1137.556
1136.65
1135.701
1134.709
1133.674
1132.597
1131.482
1130.342
1129.191
1128.04
1126.904
1141.454
1140.746
1140.001
1139.216
1138.392
1137.529
1136.622
1135.673
1134.681
1133.646
1132.569
1131.46
1130.334
1129.201
1128.073
1122.344
1120.84
1119.232
1123.809
1122.37
1120.838
1119.116
1125.279
1123.883
1122.425
1120.821
1118.829
1126.773
1125.42
1124.014
1122.513
1120.772
1118.288
1128.297
1126.994
1125.641
1124.212
1122.634
1120.665
1117.378
1129.834
1128.584
1127.287
1125.925
1124.456
1122.763
1120.459
1116.053
1131.296
1130.101
1128.861
1127.568
1126.193
1124.676
1122.845
1120.172
1114.586
1132.642
1131.497
1130.312
1129.08
1127.788
1126.4
1124.834
1122.876
1119.869
1113.283
1133.862
1132.765
1131.628
1130.45
1129.224
1127.933
1126.532
1124.928
1122.876
1119.628
1112.664
1134.962
1133.909
1132.817
1131.686
1130.513
1129.291
1127.999
1126.591
1124.969
1122.871
1119.592
1112.803
1135.951
1134.939
1133.889
1132.8
1131.672
1130.502
1129.28
1127.987
1126.581
1124.963
1122.883
1119.774
1113.363
1136.836
1135.864
1134.852
1133.802
1132.713
1131.586
1130.413
1129.191
1127.901
1126.505
1124.89
1122.913
1120.063
1114.278
1137.624
1136.69
1135.716
1134.703
1133.651
1132.56
1131.428
1130.252
1129.028
1127.743
1126.333
1124.769
1122.95
1120.438
1115.497
1138.325
1137.427
1136.49
1135.514
1134.498
1133.442
1132.345
1131.206
1130.026
1128.8
1127.494
1126.11
1124.647
1123.01
1120.896
1117.371
1138.958
1138.097
1137.197
1136.256
1135.276
1134.256
1133.193
1132.089
1130.944
1129.758
1128.515
1127.226
1125.91
1124.557
1123.127
1121.678
1119.718
1139.562
1138.738
1137.875
1136.971
1136.028
1135.044
1134.018
1132.949
1131.839
1130.688
1129.492
1128.262
1127.017
1125.772
1124.557
1140.187
1139.401
1138.576
1137.712
1136.807
1135.862
1134.874
1133.843
1132.771
1131.656
1130.501
1129.316
1128.118
1126.921
1125.747
1140.83
1140.084
1139.298
1138.474
1137.609
1136.705
1135.757
1134.767
1133.734
1132.659
1131.542
1130.396
1129.234
1128.069
1126.918
1141.475
1140.768
1140.023
1139.239
1138.415
1137.552
1136.647
1135.698
1134.707
1133.673
1132.595
1131.483
1130.353
1129.214
1128.079
1142.108
1141.441
1140.735
1139.992
1139.21
1138.389
1137.525
1136.619
1135.671
1134.679
1133.64
1132.563
1131.463
1130.348
1129.228
1123.774
1122.348
1120.852
1119.252
1125.196
1123.809
1122.377
1120.854
1119.142
1126.625
1125.275
1123.886
1122.435
1120.84
1118.861
1128.07
1126.765
1125.418
1124.019
1122.526
1120.795
1118.325
1129.541
1128.284
1126.987
1125.638
1124.216
1122.647
1120.686
1117.423
1131.019
1129.816
1128.57
1127.278
1125.921
1124.459
1122.77
1120.477
1116.105
1132.426
1131.275
1130.083
1128.847
1127.558
1126.188
1124.674
1122.849
1120.189
1114.649
1133.721
1132.619
1131.477
1130.295
1129.067
1127.779
1126.392
1124.829
1122.878
1119.888
1113.634
1134.894
1133.839
1132.744
1131.611
1130.436
1129.213
1127.922
1126.522
1124.923
1122.879
1119.73
1113.283
1135.951
1134.939
1133.889
1132.8
1131.672
1130.502
1129.28
1127.987
1126.581
1124.963
1122.883
1119.774
1113.363
1136.899
1135.929
1134.92
1133.872
1132.786
1131.66
1130.49
1129.268
1127.976
1126.571
1124.934
1122.905
1119.941
1113.838
1137.746
1136.815
1135.845
1134.836
1133.789
1132.702
1131.574
1130.402
1129.18
1127.891
1126.46
1124.849
1122.937
1120.213
1114.659
1138.497
1137.604
1136.672
1135.701
1134.69
1133.641
1132.55
1131.418
1130.242
1129.018
1127.698
1126.275
1124.746
1122.981
1120.573
1116.118
1139.162
1138.306
1137.411
1136.477
1135.503
1134.489
1133.433
1132.336
1131.198
1130.018
1128.763
1127.443
1126.08
1124.645
1123.053
1121.181
1118.072
1139.76
1138.941
1138.083
1137.185
1136.247
1135.269
1134.249
1133.187
1132.083
1130.939
1129.734
1128.479
1127.203
1125.904
1124.575
1123.255
1121.898
1120.02
1140.329
1139.546
1138.725
1137.864
1136.963
1136.022
1135.039
1134.013
1132.945
1131.835
1130.674
1129.469
1128.243
1127.007
1125.782
1140.917
1140.172
1139.389
1138.567
1137.705
1136.803
1135.858
1134.87
1133.84
1132.768
1131.649
1130.489
1129.309
1128.121
1126.941
1141.522
1140.816
1140.072
1139.289
1138.467
1137.605
1136.701
1135.754
1134.764
1133.732
1132.653
1131.535
1130.394
1129.243
1128.093
1142.129
1141.462
1140.757
1140.014
1139.232
1138.412
1137.549
1136.643
1135.695
1134.705
1133.665
1132.585
1131.481
1130.36
1129.235
1142.723
1142.095
1141.43
1140.727
1139.986
1139.206
1138.385
1137.522
1136.616
1135.668
1134.669
1133.625
1132.554
1131.462
1130.358
1125.158
1123.775
1122.355
1120.867
1119.277
1126.541
1125.193
1123.812
1122.389
1120.874
1119.172
1127.926
1126.618
1125.275
1123.893
1122.45
1120.864
1118.894
1129.323
1128.06
1126.76
1125.42
1124.027
1122.543
1120.819
1118.363
1130.739
1129.527
1128.275
1126.982
1125.64
1124.225
1122.661
1120.708
1117.467
1132.162
1131.001
1129.801
1128.56
1127.272
1125.921
1124.462
1122.778
1120.496
1116.157
1133.515
1132.405
1131.257
1130.068
1128.836
1127.551
1126.183
1124.672
1122.853
1120.206
1114.948
1134.759
1133.698
1132.599
1131.461
1130.282
1129.057
1127.769
1126.384
1124.825
1122.881
1119.979
1114.198
1135.886
1134.872
1133.819
1132.727
1131.597
1130.425
1129.202
1127.912
1126.513
1124.917
1122.89
1119.902
1113.82
1136.899
1135.929
1134.92
1133.872
1132.786
1131.66
1130.49
1129.268
1127.976
1126.571
1124.934
1122.905
1119.941
1113.838
1137.807
1136.878
1135.91
1134.903
1133.858
1132.774
1131.648
1130.478
1129.256
1127.965
1126.524
1124.888
1122.928
1120.095
1114.231
1138.614
1137.725
1136.797
1135.829
1134.823
1133.778
1132.691
1131.563
1130.391
1129.169
1127.839
1126.391
1124.815
1122.962
1120.35
1115.3
1139.328
1138.477
1137.587
1136.657
1135.688
1134.681
1133.631
1132.54
1131.408
1130.232
1128.97
1127.627
1126.227
1124.727
1123.012
1120.846
1116.89
1139.958
1139.144
1138.29
1137.398
1136.466
1135.494
1134.48
1133.425
1132.328
1131.19
1129.978
1128.703
1127.398
1126.053
1124.643
1123.141
1121.486
1118.577
1140.522
1139.743
1138.927
1138.071
1137.175
1136.24
1135.262
1134.242
1133.18
1132.077
1130.91
1129.688
1128.443
1127.177
1125.893
1124.597
1123.333
1122.028
1120.247
1141.055
1140.314
1139.533
1138.714
1137.856
1136.958
1136.017
1135.034
1134.008
1132.94
1131.816
1130.639
1129.435
1128.212
1126.983
1141.607
1140.903
1140.16
1139.38
1138.56
1137.7
1136.798
1135.854
1134.867
1133.837
1132.755
1131.625
1130.468
1129.294
1128.117
1142.175
1141.509
1140.805
1140.063
1139.283
1138.463
1137.601
1136.697
1135.751
1134.762
1133.721
1132.634
1131.521
1130.388
1129.248
1142.743
1142.116
1141.451
1140.748
1140.008
1139.228
1138.408
1137.545
1136.64
1135.693
1134.693
1133.647
1132.571
1131.474
1130.365
1143.3
1142.711
1142.084
1141.421
1140.721
1139.982
1139.202
1138.381
1137.518
1136.613
1135.654
1134.646
1133.607
1132.543
1131.46
1126.503
1125.156
1123.779
1122.367
1120.887
1119.308
1127.845
1126.535
1125.193
1123.82
1122.404
1120.898
1119.204
1129.185
1127.918
1126.616
1125.279
1123.903
1122.469
1120.889
1118.928
1130.531
1129.311
1128.054
1126.759
1125.425
1124.04
1122.56
1120.842
1118.401
1131.894
1130.725
1129.516
1128.269
1126.981
1125.645
1124.233
1122.674
1120.73
1117.513
1133.261
1132.143
1130.986
1129.79
1128.553
1127.27
1125.92
1124.464
1122.786
1120.514
1116.409
1134.561
1133.494
1132.388
1131.242
1130.057
1128.829
1127.545
1126.178
1124.67
1122.857
1120.291
1115.452
1135.755
1134.737
1133.679
1132.583
1131.448
1130.272
1129.047
1127.76
1126.377
1124.82
1122.893
1120.139
1114.697
1136.836
1135.864
1134.852
1133.802
1132.713
1131.586
1130.413
1129.191
1127.901
1126.505
1124.89
1122.913
1120.063
1114.278
1137.807
1136.878
1135.91
1134.903
1133.858
1132.774
1131.648
1130.478
1129.256
1127.965
1126.524
1124.888
1122.928
1120.095
1114.231
1138.674
1137.786
1136.859
1135.894
1134.89
1133.847
1132.763
1131.637
1130.466
1129.245
1127.91
1126.449
1124.851
1122.952
1120.235
1114.891
1139.443
1138.594
1137.707
1136.781
1135.816
1134.813
1133.767
1132.68
1131.552
1130.38
1129.113
1127.756
1126.331
1124.788
1122.988
1120.627
1116.121
1140.12
1139.309
1138.46
1137.572
1136.645
1135.679
1134.671
1133.621
1132.53
1131.398
1130.182
1128.892
1127.565
1126.185
1124.713
1123.079
1121.184
1117.51
1140.714
1139.94
1139.128
1138.277
1137.387
1136.457
1135.485
1134.472
1133.416
1132.32
1131.148
1129.912
1128.649
1127.357
1126.029
1124.639
1123.234
1121.704
1118.977
1141.243
1140.505
1139.729
1138.915
1138.061
1137.168
1136.233
1135.255
1134.235
1133.174
1132.045
1130.857
1129.642
1128.405
1127.15
1125.857
1124.608
1123.379
1122.127
1120.446
1141.742
1141.04
1140.301
1139.523
1138.706
1137.85
1136.952
1136.011
1135.028
1134.003
1132.917
1131.771
1130.592
1129.387
1128.163
1142.257
1141.593
1140.891
1140.151
1139.372
1138.555
1137.695
1136.793
1135.849
1134.863
1133.82
1132.722
1131.592
1130.438
1129.272
1142.788
1142.162
1141.498
1140.796
1140.057
1139.278
1138.459
1137.597
1136.694
1135.748
1134.747
1133.694
1132.61
1131.501
1130.378
1143.32
1142.73
1142.105
1141.442
1140.742
1140.003
1139.224
1138.404
1137.541
1136.637
1135.677
1134.667
1133.624
1132.554
1131.466
1143.839
1143.288
1142.7
1142.076
1141.415
1140.717
1139.978
1139.198
1138.377
1137.515
1136.596
1135.625
1134.62
1133.586
1132.529
1127.808
1126.498
1125.157
1123.787
1122.383
1120.912
1119.338
1129.107
1127.837
1126.533
1125.198
1123.831
1122.424
1120.923
1119.235
1130.4
1129.175
1127.913
1126.616
1125.286
1123.918
1122.488
1120.913
1118.962
1131.696
1130.519
1129.304
1128.051
1126.762
1125.434
1124.052
1122.577
1120.866
1118.44
1133.005
1131.879
1130.713
1129.509
1128.266
1126.984
1125.65
1124.242
1122.687
1120.752
1117.735
1134.318
1133.243
1132.128
1130.974
1129.782
1128.549
1127.267
1125.92
1124.467
1122.794
1120.604
1116.877
1135.565
1134.54
1133.476
1132.373
1131.231
1130.05
1128.822
1127.538
1126.174
1124.669
1122.877
1120.447
1115.92
1136.71
1135.734
1134.718
1133.664
1132.57
1131.438
1130.262
1129.038
1127.751
1126.37
1124.799
1122.92
1120.293
1115.131
1137.746
1136.815
1135.845
1134.836
1133.789
1132.702
1131.574
1130.402
1129.18
1127.891
1126.46
1124.849
1122.937
1120.213
1114.659
1138.674
1137.786
1136.859
1135.894
1134.89
1133.847
1132.763
1131.637
1130.466
1129.245
1127.91
1126.449
1124.851
1122.952
1120.235
1114.891
1139.5
1138.653
1137.768
1136.844
1135.881
1134.879
1133.836
1132.751
1131.625
1130.455
1129.186
1127.822
1126.384
1124.819
1122.975
1120.517
1115.74
1140.231
1139.423
1138.577
1137.692
1136.769
1135.806
1134.802
1133.756
1132.669
1131.541
1130.323
1129.025
1127.683
1126.279
1124.766
1123.045
1120.983
1116.808
1140.871
1140.101
1139.293
1138.446
1137.561
1136.636
1135.669
1134.661
1133.611
1132.52
1131.346
1130.1
1128.823
1127.511
1126.149
1124.686
1123.169
1121.451
1118.029
1141.43
1140.696
1139.925
1139.115
1138.266
1137.379
1136.449
1135.477
1134.463
1133.408
1132.276
1131.078
1129.852
1128.6
1127.321
1125.976
1124.632
1123.301
1121.873
1119.325
1141.924
1141.227
1140.491
1139.717
1138.905
1138.054
1137.161
1136.225
1135.248
1134.228
1133.139
1131.986
1130.803
1129.594
1128.366
1127.076
1125.83
1124.615
1123.416
1122.213
1120.638
1142.389
1141.727
1141.027
1140.29
1139.515
1138.7
1137.844
1136.946
1136.005
1135.023
1133.976
1132.864
1131.715
1130.532
1129.32
1142.869
1142.244
1141.581
1140.881
1140.144
1139.367
1138.55
1137.69
1136.789
1135.845
1134.842
1133.778
1132.679
1131.551
1130.402
1143.364
1142.775
1142.15
1141.489
1140.789
1140.052
1139.274
1138.454
1137.593
1136.69
1135.729
1134.712
1133.661
1132.58
1131.479
1143.859
1143.307
1142.72
1142.096
1141.436
1140.737
1139.999
1139.22
1138.4
1137.538
1136.619
1135.645
1134.636
1133.598
1132.535
1144.341
1143.827
1143.277
1142.692
1142.07
1141.411
1140.712
1139.973
1139.194
1138.374
1137.496
1136.562
1135.593
1134.592
1133.564
1129.072
1127.801
1126.497
1125.162
1123.799
1122.403
1120.937
1119.369
1130.325
1129.098
1127.833
1126.535
1125.206
1123.847
1122.444
1120.948
1119.267
1131.57
1130.389
1129.168
1127.912
1126.621
1125.296
1123.932
1122.507
1120.938
1118.996
1132.816
1131.683
1130.51
1129.299
1128.051
1126.768
1125.443
1124.065
1122.594
1120.89
1118.63
1134.073
1132.99
1131.867
1130.705
1129.505
1128.267
1126.987
1125.655
1124.25
1122.701
1120.86
1118.196
1135.331
1134.299
1133.227
1132.116
1130.966
1129.777
1128.545
1127.265
1125.92
1124.47
1122.833
1120.778
1117.355
1136.527
1135.545
1134.523
1133.462
1132.362
1131.223
1130.042
1128.814
1127.532
1126.169
1124.66
1122.92
1120.602
1116.347
1137.624
1136.69
1135.716
1134.703
1133.651
1132.56
1131.428
1130.252
1129.028
1127.743
1126.333
1124.769
1122.95
1120.438
1115.497
1138.614
1137.725
1136.797
1135.829
1134.823
1133.778
1132.691
1131.563
1130.391
1129.169
1127.839
1126.391
1124.815
1122.962
1120.35
1115.3
1139.5
1138.653
1137.768
1136.844
1135.881
1134.879
1133.836
1132.751
1131.625
1130.455
1129.186
1127.822
1126.384
1124.819
1122.975
1120.517
1115.74
1140.287
1139.481
1138.636
1137.753
1136.831
1135.87
1134.868
1133.824
1132.74
1131.613
1130.395
1129.092
1127.744
1126.328
1124.793
1123.029
1120.883
1116.46
1140.979
1140.212
1139.406
1138.562
1137.68
1136.759
1135.796
1134.791
1133.745
1132.659
1131.484
1130.232
1128.947
1127.62
1126.235
1124.723
1123.129
1121.278
1117.401
1141.583
1140.853
1140.085
1139.279
1138.435
1137.551
1136.626
1135.659
1134.651
1133.601
1132.468
1131.263
1130.028
1128.763
1127.464
1126.073
1124.658
1123.242
1121.668
1118.492
1142.107
1141.413
1140.681
1139.912
1139.104
1138.258
1137.37
1136.44
1135.468
1134.455
1133.363
1132.204
1131.014
1129.797
1128.556
1127.238
1125.915
1124.628
1123.354
1122.015
1119.659
1142.567
1141.908
1141.213
1140.479
1139.708
1138.898
1138.047
1137.153
1136.218
1135.241
1134.192
1133.076
1131.927
1130.749
1129.547
1128.266
1127.026
1125.816
1124.623
1123.449
1122.293
1120.835
1142.997
1142.374
1141.714
1141.017
1140.282
1139.509
1138.694
1137.838
1136.94
1136
1134.993
1133.917
1132.8
1131.644
1130.451
1143.443
1142.855
1142.232
1141.572
1140.874
1140.138
1139.362
1138.544
1137.685
1136.784
1135.821
1134.794
1133.728
1132.628
1131.502
1143.902
1143.351
1142.764
1142.142
1141.482
1140.785
1140.047
1139.269
1138.45
1137.589
1136.669
1135.689
1134.672
1133.623
1132.547
1144.36
1143.846
1143.297
1142.711
1142.09
1141.431
1140.733
1139.995
1139.216
1138.396
1137.517
1136.581
1135.609
1134.603
1133.569
1144.807
1144.329
1143.817