/*--------------------------------*- C++ -*----------------------------------*\
| =========                 |                                                 |
| \\      /  F ield         | OpenFOAM: The Open Source CFD Toolbox           |
|  \\    /   O peration     | Version:  2306                                  |
|   \\  /    A nd           | Website:  www.openfoam.com                      |
|    \\/     M anipulation  |                                                 |
\*---------------------------------------------------------------------------*/
FoamFile
{
    version     2.0;
    format      ascii;
    arch        "LSB;label=32;scalar=64";
    class       volVectorField;
    location    "1.2/fuel";
    object      U;
}
// * * * * * * * * * * * * * * * * * * * * * * * * * * * * * * * * * * * * * //

dimensions      [0 1 -1 0 0 0 0];

internalField   nonuniform List<vector> 
16000
(
(8.587809e-05 6.672659e-05 -0.004453713)
(8.6e-05 0.0001827701 -0.004522729)
(0.0001540672 6.758648e-05 -0.003722686)
(8.410361e-05 7.114798e-05 -0.01413126)
(8.65641e-05 0.0003237723 -0.004663575)
(0.00015356 0.0001891475 -0.003764255)
(8.411941e-05 0.0001933932 -0.01434845)
(0.0001203456 6.114734e-05 -0.003127564)
(0.0001506757 7.079486e-05 -0.01182679)
(7.789162e-05 7.750919e-05 -0.02097271)
(8.69276e-05 0.0003994946 -0.004880636)
(0.0001530439 0.0003321274 -0.003847446)
(8.446454e-05 0.0003420284 -0.01479146)
(0.0001190638 0.0001721379 -0.003156484)
(0.0001500033 0.0001964798 -0.01195786)
(7.767605e-05 0.0002113107 -0.02129299)
(9.160139e-05 5.438162e-05 -0.0026833)
(0.0001176828 6.366067e-05 -0.009947455)
(0.0001393136 7.476555e-05 -0.01756884)
(7.045868e-05 8.275478e-05 -0.03447241)
(8.904643e-05 0.0005835023 -0.005167431)
(0.0001513243 0.00042279 -0.003971752)
(8.44696e-05 0.0004244609 -0.01547415)
(0.00011681 0.0003006857 -0.003213851)
(0.0001491504 0.0003445428 -0.01222006)
(7.753601e-05 0.0003725547 -0.02194626)
(9.038109e-05 0.0001535262 -0.002704906)
(0.0001163058 0.0001777267 -0.01003879)
(0.0001383023 0.0002072203 -0.01776241)
(6.997112e-05 0.000232198 -0.03499688)
(7.10196e-05 4.864723e-05 -0.002342796)
(8.960148e-05 5.643541e-05 -0.008542743)
(0.0001087585 6.64941e-05 -0.01478931)
(0.0001261089 7.758216e-05 -0.02889505)
(5.845859e-05 0.0001037202 -0.02804139)
(8.812947e-05 0.0004574263 -0.005494034)
(0.0001517082 0.0005930141 -0.004128186)
(8.610559e-05 0.0006150242 -0.01637596)
(0.0001126299 0.0003850177 -0.003298439)
(0.0001468864 0.0004392556 -0.01261194)
(7.67622e-05 0.0004673349 -0.02295283)
(8.81665e-05 0.0002673501 -0.002747506)
(0.0001138626 0.0003101024 -0.01021989)
(0.0001367449 0.0003624131 -0.01814965)
(6.926093e-05 0.0004081441 -0.03606632)
(6.999176e-05 0.0001375793 -0.002359637)
(8.831794e-05 0.0001580017 -0.008611068)
(0.0001072115 0.0001851921 -0.01492435)
(0.0001247036 0.0002197718 -0.02921222)
(5.736382e-05 0.0002895271 -0.02846703)
(5.682352e-05 4.386576e-05 -0.002073322)
(6.946413e-05 5.037506e-05 -0.007465044)
(8.285495e-05 5.859706e-05 -0.01270979)
(9.837851e-05 6.827219e-05 -0.02433826)
(0.0001038936 9.214571e-05 -0.02350846)
(0.0004994836 0.0009487998 -0.055906)
(9.188046e-05 0.0001212452 -0.005734001)
(0.0001463097 0.0004827795 -0.004298562)
(8.456941e-05 0.0004854186 -0.01740458)
(0.0001089063 0.0005313514 -0.003402505)
(0.0001465561 0.0006134184 -0.01310517)
(7.730726e-05 0.0006671262 -0.02428219)
(8.424932e-05 0.0003431681 -0.002809769)
(0.0001093845 0.0003973558 -0.01048703)
(0.0001333661 0.0004634252 -0.01872843)
(6.757235e-05 0.0005173001 -0.03771514)
(6.810588e-05 0.0002390336 -0.002392687)
(8.597902e-05 0.0002748708 -0.008745728)
(0.0001044232 0.0003223979 -0.01519214)
(0.0001223276 0.0003833036 -0.02984646)
(5.539499e-05 0.0005065021 -0.02933596)
(5.596211e-05 0.0001242086 -0.002086836)
(6.839131e-05 0.0001412838 -0.007518359)
(8.146808e-05 0.0001635752 -0.0128109)
(9.663359e-05 0.0001939325 -0.02455968)
(0.0001015612 0.0002583514 -0.02376575)
(0.0004886789 0.002690198 -0.05675708)
(4.652908e-05 3.983753e-05 -0.001854788)
(5.558003e-05 4.535018e-05 -0.006611456)
(6.42157e-05 5.209194e-05 -0.0111132)
(7.500329e-05 5.980578e-05 -0.02092771)
(8.087322e-05 7.93998e-05 -0.01980498)
(0.0008888568 0.000836434 -0.0468658)
(0.0005126323 0.0009789793 -0.03943551)
(9.421825e-05 6.006628e-05 -0.005886884)
(0.0001497684 0.0001798168 -0.004414058)
(8.788548e-05 0.0001380973 -0.01815713)
(0.000100352 0.0004358129 -0.003513811)
(0.0001402486 0.0005001619 -0.01364387)
(7.446757e-05 0.0005332189 -0.02579866)
(8.042571e-05 0.0004692984 -0.002885185)
(0.0001052937 0.0005465763 -0.01081577)
(0.0001315047 0.0006415979 -0.01945692)
(6.683752e-05 0.0007278325 -0.03989413)
(6.482592e-05 0.0003071961 -0.002440678)
(8.186761e-05 0.000352951 -0.008942629)
(9.941802e-05 0.000413707 -0.01558718)
(0.0001176531 0.000491673 -0.03079505)
(5.165581e-05 0.0006526371 -0.03067554)
(5.437188e-05 0.000215406 -0.002113259)
(6.641753e-05 0.000245249 -0.007622946)
(7.892135e-05 0.0002839877 -0.0130102)
(9.344335e-05 0.0003368001 -0.0249985)
(9.728481e-05 0.0004484283 -0.024281)
(0.0004687793 0.004702993 -0.05849138)
(4.580007e-05 0.000112903 -0.001865882)
(5.468504e-05 0.0001273483 -0.006654281)
(6.307343e-05 0.0001456255 -0.01119216)
(7.349595e-05 0.0001701102 -0.02109361)
(7.860951e-05 0.0002229068 -0.01998454)
(0.0008664971 0.002378048 -0.04738039)
(0.0005009226 0.002849389 -0.04003945)
(3.891266e-05 3.641124e-05 -0.001673919)
(4.551228e-05 4.113365e-05 -0.005918718)
(5.137809e-05 4.675239e-05 -0.009847849)
(5.810453e-05 5.294597e-05 -0.01830825)
(6.178938e-05 6.873648e-05 -0.01703308)
(0.000691539 0.0007184373 -0.03948327)
(0.0009164291 0.0008617856 -0.03304691)
(0.0005007974 0.001012959 -0.04377234)
(9.606576e-05 8.113017e-06 -0.005972941)
(0.0001517671 0.0001000766 -0.004484288)
(8.993527e-05 7.004717e-05 -0.01863588)
(9.931334e-05 0.0001746015 -0.00358517)
(0.0001430968 0.0001894236 -0.01400726)
(7.675769e-05 0.0001707894 -0.02690638)
(7.291495e-05 0.000385977 -0.002964995)
(9.627593e-05 0.0004485449 -0.01116864)
(0.0001234 0.0005247395 -0.02025296)
(6.246924e-05 0.0005888818 -0.04238718)
(6.152457e-05 0.0004173994 -0.002498114)
(7.781117e-05 0.0004813547 -0.009181215)
(9.46405e-05 0.0005653082 -0.01607339)
(0.0001140129 0.000674533 -0.03198958)
(4.812921e-05 0.0008977886 -0.03244756)
(5.163419e-05 0.0002770097 -0.00215143)
(6.300089e-05 0.0003152407 -0.007774887)
(7.449717e-05 0.0003649359 -0.01330166)
(8.782423e-05 0.000432857 -0.02564633)
(8.955241e-05 0.0005784131 -0.02505136)
(0.0004316203 0.006075563 -0.06117249)
(4.444884e-05 0.0001955008 -0.001887504)
(5.30295e-05 0.0002206686 -0.006737975)
(6.096094e-05 0.0002523146 -0.01134707)
(7.07068e-05 0.0002946838 -0.02142038)
(7.438248e-05 0.0003854368 -0.02034105)
(0.0008248732 0.004124493 -0.04840818)
(0.0004792525 0.004980817 -0.04126997)
(3.828892e-05 0.0001032631 -0.00168319)
(4.475732e-05 0.000115613 -0.005953905)
(5.043367e-05 0.0001308308 -0.009911317)
(5.688121e-05 0.0001507227 -0.01843788)
(5.99434e-05 0.0001930713 -0.0171676)
(0.0006704916 0.002044094 -0.03984255)
(0.0008924793 0.002511387 -0.03341222)
(0.0004885228 0.002900617 -0.04444477)
(3.306107e-05 3.345979e-05 -0.001521798)
(3.806685e-05 3.755751e-05 -0.005344995)
(4.207102e-05 4.230404e-05 -0.008820392)
(4.648345e-05 4.73693e-05 -0.01623155)
(4.780295e-05 6.035027e-05 -0.01490403)
(0.0005286477 0.0006207524 -0.03395944)
(0.00071287 0.0007397306 -0.02783321)
(0.0008918028 0.0008871155 -0.0366754)
(0.0004887619 0.001019821 -0.04444212)
(9.690215e-05 2.646801e-06 -0.006011208)
(0.0001537836 3.385607e-05 -0.004522522)
(9.162377e-05 1.297282e-05 -0.01890519)
(9.83819e-05 9.927042e-05 -0.003626753)
(0.0001446942 0.0001055996 -0.01422804)
(7.813424e-05 8.968574e-05 -0.02761042)
(7.126353e-05 0.0001597448 -0.003013976)
(9.496359e-05 0.0001812993 -0.01139359)
(0.0001248621 0.000205241 -0.02078934)
(6.355901e-05 0.000208819 -0.04420042)
(5.539475e-05 0.0003437017 -0.002558494)
(7.00053e-05 0.0003959471 -0.009434726)
(8.485517e-05 0.0004644248 -0.01659559)
(0.0001038204 0.0005534588 -0.03329969)
(4.023424e-05 0.0007406377 -0.03447151)
(4.883239e-05 0.0003745034 -0.002196664)
(5.953835e-05 0.0004273135 -0.007956807)
(7.004262e-05 0.0004949304 -0.01365489)
(8.224715e-05 0.0005872492 -0.02644402)
(8.185136e-05 0.0007811231 -0.02602229)
(0.0003949783 0.008326397 -0.06471887)
(4.214e-05 0.0002514955 -0.001918609)
(5.019053e-05 0.000283796 -0.006858944)
(5.733762e-05 0.0003244471 -0.01157216)
(6.591769e-05 0.0003789954 -0.02189863)
(6.714014e-05 0.0004967874 -0.02086708)
(0.0007502938 0.00532507 -0.04995033)
(0.0004389899 0.006439671 -0.04319698)
(3.712954e-05 0.0001785774 -0.00170121)
(4.335581e-05 0.0002000403 -0.006022451)
(4.867991e-05 0.0002263129 -0.01003537)
(5.460672e-05 0.0002606155 -0.01869201)
(5.648461e-05 0.0003331049 -0.01743309)
(0.0006308546 0.003532008 -0.04055351)
(0.0008477713 0.004355217 -0.03414195)
(0.0004656725 0.005069455 -0.04581452)
(3.252158e-05 9.494353e-05 -0.001529661)
(3.74225e-05 0.000105636 -0.005374423)
(4.12795e-05 0.0001184708 -0.00887257)
(4.548128e-05 0.0001349242 -0.0163358)
(4.634108e-05 0.0001695651 -0.01500913)
(0.0005116293 0.001766691 -0.03422872)
(0.0006905407 0.002156157 -0.02808836)
(0.0008669693 0.002544407 -0.03708227)
(0.0004759107 0.002954054 -0.04513045)
(2.849623e-05 3.089534e-05 -0.001392096)
(3.234709e-05 3.448412e-05 -0.004862162)
(3.5196e-05 3.855125e-05 -0.00796904)
(3.806102e-05 4.275599e-05 -0.01454469)
(3.822717e-05 5.365199e-05 -0.01321599)
(0.0004088463 0.0005442597 -0.02971741)
(0.0005450635 0.000638804 -0.02393368)
(0.0006935114 0.0007598829 -0.03088572)
(0.0008718551 0.0008901167 -0.03722697)
(0.0005126929 0.001141237 -0.03757082)
(9.690215e-05 -2.646801e-06 -0.006011208)
(0.0001546995 1.063215e-05 -0.0045392)
(9.238891e-05 4.135235e-06 -0.01902489)
(9.848783e-05 3.694458e-05 -0.003648443)
(0.0001464921 3.643111e-05 -0.01434828)
(7.943754e-05 2.307705e-05 -0.02800625)
(6.996789e-05 9.156182e-05 -0.003041542)
(9.385485e-05 0.0001030369 -0.01152458)
(0.0001255576 0.0001147777 -0.02111513)
(6.414892e-05 0.0001125162 -0.04535151)
(5.381732e-05 0.0001449916 -0.002594174)
(6.819236e-05 0.0001648167 -0.009589329)
(8.298612e-05 0.0001910579 -0.0169282)
(0.0001036742 0.0002237139 -0.03417731)
(3.879348e-05 0.0003021929 -0.0359481)
(4.380033e-05 0.0003085431 -0.002244019)
(5.320344e-05 0.0003518371 -0.00814891)
(6.18009e-05 0.0004072225 -0.01403045)
(7.156769e-05 0.0004830256 -0.02730443)
(6.657043e-05 0.0006445631 -0.02708358)
(0.0003180176 0.006890176 -0.06883656)
(3.975163e-05 0.0003386439 -0.001955162)
(4.727069e-05 0.0003828727 -0.007002367)
(5.36162e-05 0.0004376587 -0.01184171)
(6.099879e-05 0.0005108592 -0.02247845)
(5.953673e-05 0.0006653775 -0.02151534)
(0.0006741732 0.007170394 -0.05189269)
(0.0003987775 0.008819965 -0.04572764)
(3.516019e-05 0.0002297618 -0.001727042)
(4.096913e-05 0.0002573326 -0.006121118)
(4.569568e-05 0.0002910977 -0.0102147)
(5.074191e-05 0.0003352628 -0.01906155)
(5.065619e-05 0.0004290901 -0.01782141)
(0.000563224 0.004554686 -0.04160697)
(0.0007678639 0.005624726 -0.03525736)
(0.0004234812 0.006562939 -0.0479685)
(3.151673e-05 0.0001640084 -0.001544907)
(3.622331e-05 0.0001825506 -0.005431595)
(3.980564e-05 0.0002046566 -0.00897423)
(4.361268e-05 0.0002329526 -0.0165394)
(4.359793e-05 0.0002920826 -0.01521563)
(0.0004795158 0.003046016 -0.03475816)
(0.0006484393 0.003725235 -0.02859345)
(0.0008204382 0.004411466 -0.03789476)
(0.0004518555 0.005162377 -0.04652935)
(2.802537e-05 8.770466e-05 -0.001398846)
(3.179088e-05 9.704547e-05 -0.004887138)
(3.452377e-05 0.0001080236 -0.008012703)
(3.722675e-05 0.0001218336 -0.01463045)
(3.704833e-05 0.0001507742 -0.01330052)
(0.0003954203 0.001549242 -0.02992791)
(0.0005270577 0.001862281 -0.02412499)
(0.0006707097 0.002180304 -0.03116999)
(0.0008461707 0.002580527 -0.03764416)
(0.0004980498 0.003275169 -0.03814791)
(2.484472e-05 2.864575e-05 -0.001280239)
(2.788641e-05 3.181861e-05 -0.004450243)
(2.991583e-05 3.533986e-05 -0.007252236)
(3.184962e-05 3.888454e-05 -0.01314648)
(3.129352e-05 4.818328e-05 -0.01184472)
(0.0003269148 0.0004833306 -0.0263544)
(0.0004214963 0.0005598521 -0.02094003)
(0.0005304465 0.0006554853 -0.02655636)
(0.0006778215 0.0007613723 -0.03134394)
(0.0009118064 0.0009905147 -0.03146353)
(0.004255544 0.01063089 -0.09856835)
(9.606576e-05 -8.113018e-06 -0.005972941)
(0.0001546995 -1.063215e-05 -0.0045392)
(9.238891e-05 -4.135235e-06 -0.01902489)
(9.854195e-05 1.162989e-05 -0.003657597)
(0.0001473102 1.141574e-05 -0.01440074)
(8.00302e-05 7.224122e-06 -0.02818212)
(6.968685e-05 3.53435e-05 -0.003055373)
(9.386814e-05 3.86371e-05 -0.01159296)
(0.000126841 4.104887e-05 -0.02129258)
(6.500272e-05 3.48143e-05 -0.04599845)
(5.261265e-05 8.343021e-05 -0.00261365)
(6.67938e-05 9.437221e-05 -0.009676263)
(8.152384e-05 0.000108497 -0.01712187)
(0.0001033241 0.0001254957 -0.03470983)
(3.77208e-05 0.0001678683 -0.03688489)
(4.23979e-05 0.0001318428 -0.002271045)
(5.151922e-05 0.0001490253 -0.008261631)
(5.968569e-05 0.0001714911 -0.0142593)
(6.905082e-05 0.0002024868 -0.02784861)
(6.291496e-05 0.0002752629 -0.02779829)
(0.0003004829 0.002869988 -0.07177059)
(3.556185e-05 0.0002790518 -0.00199333)
(4.208776e-05 0.0003153713 -0.007153243)
(4.700178e-05 0.0003602885 -0.01212653)
(5.224834e-05 0.0004204549 -0.02309789)
(4.635412e-05 0.0005484514 -0.02221142)
(0.0005285429 0.005922893 -0.05406727)
(0.0003158305 0.007304584 -0.0489372)
(3.310791e-05 0.0003083509 -0.001757174)
(3.849087e-05 0.0003458499 -0.006237121)
(4.259615e-05 0.0003910284 -0.01042736)
(4.671815e-05 0.0004498151 -0.01950426)
(4.447438e-05 0.0005719511 -0.0182926)
(0.000491633 0.006085249 -0.04290397)
(0.0006857384 0.007570947 -0.03665065)
(0.0003806134 0.008980565 -0.05079423)
(2.981816e-05 0.0002110294 -0.001566696)
(3.419239e-05 0.0002348593 -0.005513602)
(3.73126e-05 0.0002632682 -0.009120586)
(4.045856e-05 0.0002996871 -0.01683398)
(3.90096e-05 0.0003760573 -0.01551568)
(0.0004255666 0.003924866 -0.03553622)
(0.0005766824 0.004804732 -0.02935899)
(0.0007375923 0.005700357 -0.03914393)
(0.000407683 0.00669107 -0.04875738)
(2.714694e-05 0.0001513584 -0.001411908)
(3.075379e-05 0.0001675272 -0.004935546)
(3.32696e-05 0.0001863965 -0.008097541)
(3.566823e-05 0.0002100936 -0.01479739)
(3.483432e-05 0.0002593885 -0.01346598)
(0.0003700629 0.002666937 -0.03033973)
(0.0004930516 0.003210508 -0.02450132)
(0.0006276573 0.00376617 -0.03173249)
(0.0007978778 0.004473467 -0.03847478)
(0.0004702887 0.005723241 -0.03933114)
(2.443027e-05 8.134733e-05 -0.001286095)
(2.740172e-05 8.958461e-05 -0.004471702)
(2.933784e-05 9.907007e-05 -0.007289313)
(3.114476e-05 0.0001108361 -0.01321829)
(3.032371e-05 0.0001354236 -0.01191424)
(0.0003161159 0.001375948 -0.02652379)
(0.0004073087 0.001632281 -0.02108964)
(0.0005121408 0.001881049 -0.02676956)
(0.0006545434 0.002207514 -0.0316358)
(0.00088287 0.002844836 -0.03181178)
(0.004117116 0.03066589 -0.1002552)
(2.18894e-05 2.665836e-05 -0.001182812)
(2.431842e-05 2.948399e-05 -0.004094801)
(2.580116e-05 3.256418e-05 -0.00664045)
(2.708104e-05 3.558578e-05 -0.01196885)
(2.620448e-05 4.363949e-05 -0.01070797)
(0.0002676031 0.0004336901 -0.02362258)
(0.0003370207 0.0004970143 -0.01856736)
(0.000410116 0.0005740345 -0.02323331)
(0.0005186218 0.0006561839 -0.02694621)
(0.0007086179 0.0008452791 -0.02648629)
(0.007556885 0.009135826 -0.08250706)
(0.004378843 0.01056999 -0.01008891)
(9.421825e-05 -6.006628e-05 -0.005886884)
(0.0001537836 -3.385607e-05 -0.004522522)
(9.162377e-05 -1.297282e-05 -0.01890519)
(9.854195e-05 -1.162989e-05 -0.003657597)
(0.0001473102 -1.141574e-05 -0.01440074)
(8.00302e-05 -7.224122e-06 -0.02818212)
(6.955869e-05 1.113305e-05 -0.00306102)
(9.388078e-05 1.213983e-05 -0.01162184)
(0.0001274287 1.281264e-05 -0.02137001)
(6.539422e-05 1.081164e-05 -0.04628586)
(5.226669e-05 3.284026e-05 -0.002623069)
(6.646135e-05 3.657203e-05 -0.00971993)
(8.133691e-05 4.129562e-05 -0.01722303)
(0.0001040117 4.643847e-05 -0.03499991)
(3.765178e-05 6.208408e-05 -0.03741131)
(4.134202e-05 7.602715e-05 -0.002285385)
(5.024725e-05 8.564149e-05 -0.008323093)
(5.810096e-05 9.799086e-05 -0.014388)
(6.717714e-05 0.0001148937 -0.02816512)
(6.027334e-05 0.0001551646 -0.02823177)
(0.0002878548 0.001600451 -0.07362983)
(3.43339e-05 0.000120341 -0.002014412)
(4.060975e-05 0.0001351585 -0.007238684)
(4.513009e-05 0.0001538642 -0.01229353)
(4.978062e-05 0.0001793256 -0.02347232)
(4.230059e-05 0.0002376447 -0.0226548)
(0.000489536 0.002553943 -0.05547754)
(0.000295815 0.003057267 -0.05092952)
(2.957117e-05 0.0002540941 -0.001788593)
(3.41856e-05 0.0002849046 -0.006358883)
(3.722109e-05 0.0003219402 -0.0106512)
(3.977699e-05 0.0003702234 -0.01997449)
(3.416175e-05 0.0004709655 -0.01879323)
(0.000369389 0.005018093 -0.04433865)
(0.0005301119 0.006254923 -0.03842939)
(0.0002942233 0.007447329 -0.05448993)
(2.803841e-05 0.0002824204 -0.001591945)
(3.206953e-05 0.0003146511 -0.005609309)
(3.470409e-05 0.0003524489 -0.009292695)
(3.714893e-05 0.0004006252 -0.01718342)
(3.412133e-05 0.000499542 -0.01587545)
(0.0003680511 0.005219986 -0.03647925)
(0.0005005404 0.006417599 -0.03029298)
(0.0006515202 0.007668391 -0.04070274)
(0.0003621374 0.009151556 -0.05166503)
(2.566809e-05 0.0001947527 -0.001430525)
(2.900538e-05 0.0002155356 -0.005004771)
(3.115825e-05 0.0002397781 -0.008219251)
(3.305067e-05 0.0002702593 -0.01503792)
(3.114874e-05 0.0003338125 -0.01370517)
(0.0003277614 0.003434231 -0.0309413)
(0.0004359675 0.004137295 -0.02506896)
(0.0005544082 0.004859018 -0.03259111)
(0.0007121647 0.005783277 -0.03977486)
(0.0004196607 0.007430263 -0.04120463)
(2.365611e-05 0.0001402695 -0.001297405)
(2.649671e-05 0.0001545052 -0.004513201)
(2.825795e-05 0.0001707803 -0.007361181)
(2.982621e-05 0.0001909312 -0.01335767)
(2.850121e-05 0.0002327408 -0.01204993)
(0.0002957085 0.002365729 -0.02685381)
(0.0003804936 0.002809636 -0.02138253)
(0.0004775371 0.003242247 -0.02718877)
(0.0006105252 0.003812707 -0.03221132)
(0.0008279627 0.004931051 -0.03251354)
(0.003836598 0.05354942 -0.1035272)
(2.152197e-05 7.572587e-05 -0.001187938)
(2.389237e-05 8.304238e-05 -0.00411343)
(2.529913e-05 9.132267e-05 -0.00667232)
(2.647755e-05 0.0001014573 -0.01202986)
(2.539267e-05 0.0001226649 -0.01076618)
(0.0002587362 0.001234712 -0.02376198)
(0.0003256184 0.001449163 -0.0186878)
(0.0003957208 0.001647438 -0.02340008)
(0.0005000049 0.001902664 -0.02716535)
(0.0006828276 0.002427957 -0.02672916)
(0.007287369 0.02634746 -0.08356247)
(0.00424196 0.03081612 -0.01052278)
(1.945505e-05 2.488988e-05 -0.001097225)
(2.143125e-05 2.742412e-05 -0.003785045)
(2.251061e-05 3.014009e-05 -0.006112331)
(2.336917e-05 3.274444e-05 -0.01096342)
(2.230221e-05 3.979972e-05 -0.009750444)
(0.0002241229 0.0003925127 -0.02135799)
(0.0002758714 0.0004458507 -0.01664044)
(0.0003279058 0.0005093059 -0.02059991)
(0.0004009057 0.000574273 -0.02357156)
(0.0005424671 0.0007275611 -0.02276686)
(0.005868312 0.007763545 -0.06942851)
(0.007799753 0.00910744 -0.008406268)
(0.004231111 0.01086789 -0.02904724)
(9.188046e-05 -0.0001212452 -0.005734001)
(0.0001517671 -0.0001000766 -0.004484288)
(8.993527e-05 -7.004717e-05 -0.01863588)
(9.848783e-05 -3.694458e-05 -0.003648443)
(0.0001464921 -3.643111e-05 -0.01434828)
(7.943754e-05 -2.307706e-05 -0.02800625)
(6.955869e-05 -1.113305e-05 -0.00306102)
(9.388078e-05 -1.213983e-05 -0.01162184)
(0.0001274287 -1.281264e-05 -0.02137001)
(6.539422e-05 -1.081164e-05 -0.04628586)
(5.2107e-05 1.034392e-05 -0.002626789)
(6.63105e-05 1.150043e-05 -0.00973777)
(8.125972e-05 1.292814e-05 -0.01726576)
(0.0001043326 1.444329e-05 -0.03512652)
(3.763097e-05 1.915629e-05 -0.03764518)
(4.100491e-05 3.029598e-05 -0.002292071)
(4.986882e-05 3.378583e-05 -0.008352856)
(5.766579e-05 3.827984e-05 -0.0144527)
(6.675738e-05 4.440884e-05 -0.02833047)
(5.970128e-05 6.050354e-05 -0.02846793)
(0.0002855464 0.0006042439 -0.07467485)
(3.34184e-05 6.948011e-05 -0.002025297)
(3.950661e-05 7.783003e-05 -0.007283952)
(4.374551e-05 8.819018e-05 -0.01238461)
(4.79787e-05 0.0001022415 -0.0236826)
(3.943792e-05 0.0001346363 -0.02291261)
(0.0004617983 0.001440703 -0.05633057)
(0.0002815081 0.001706713 -0.05218625)
(2.849819e-05 0.0001103429 -0.001805409)
(3.290165e-05 0.0001231343 -0.006425567)
(3.561777e-05 0.000138804 -0.01077788)
(3.768634e-05 0.0001595559 -0.02024773)
(3.080222e-05 0.0002054958 -0.01909848)
(0.0003303814 0.002188151 -0.04520923)
(0.0004871965 0.002701452 -0.03935685)
(0.0002717916 0.003140535 -0.05667191)
(2.501461e-05 0.0002327086 -0.001618256)
(2.844165e-05 0.0002591929 -0.005709659)
(3.026052e-05 0.0002901533 -0.009473448)
(3.154901e-05 0.0003296741 -0.01755334)
(2.610859e-05 0.000410966 -0.01625515)
(0.0002731301 0.004299005 -0.03751651)
(0.0003710048 0.005292175 -0.0315071)
(0.0004908043 0.006337221 -0.04278196)
(0.0002721305 0.007597152 -0.05576954)
(2.411219e-05 0.0002600153 -0.001451968)
(2.716889e-05 0.0002879967 -0.005085028)
(2.893771e-05 0.0003200995 -0.008361327)
(3.028971e-05 0.000360224 -0.01532087)
(2.721192e-05 0.0004422397 -0.01398916)
(0.0002825215 0.004552663 -0.03166164)
(0.0003750187 0.005501441 -0.02575035)
(0.0004763796 0.006487662 -0.03363768)
(0.0006223105 0.007778447 -0.04138746)
(0.0003665003 0.01016042 -0.04366086)
(2.235732e-05 0.0001804779 -0.001313489)
(2.497677e-05 0.0001987764 -0.004572392)
(2.644717e-05 0.0002196768 -0.007463973)
(2.76206e-05 0.0002455784 -0.0135578)
(2.547833e-05 0.0002993962 -0.01224525)
(0.0002618184 0.003044724 -0.02733366)
(0.0003357899 0.003618259 -0.02182305)
(0.000419523 0.004179023 -0.02782625)
(0.0005357405 0.004920512 -0.03310897)
(0.0007309005 0.006379443 -0.03360287)
(0.003332703 0.06973077 -0.1094742)
(2.083497e-05 0.0001304796 -0.001197823)
(2.309595e-05 0.0001431066 -0.004149389)
(2.43601e-05 0.0001572919 -0.006733962)
(2.534749e-05 0.0001746203 -0.01214798)
(2.386646e-05 0.0002106323 -0.01087948)
(0.0002419737 0.002120783 -0.02403266)
(0.0003040572 0.002491415 -0.01892265)
(0.0003684948 0.002835233 -0.02372644)
(0.0004647756 0.003279151 -0.02759459)
(0.0006337631 0.004193021 -0.02721502)
(0.006748482 0.04563195 -0.08553925)
(0.003964233 0.05424075 -0.01140355)
(1.912717e-05 7.071981e-05 -0.001101749)
(2.105397e-05 7.726479e-05 -0.003801365)
(2.20705e-05 8.455027e-05 -0.006140011)
(2.28468e-05 9.337403e-05 -0.01101589)
(2.161243e-05 0.0001118798 -0.009799896)
(0.0002167122 0.00111753 -0.02147478)
(0.000266515 0.001300027 -0.01673961)
(0.0003163519 0.001461734 -0.02073421)
(0.0003862913 0.001665213 -0.02374319)
(0.0005219449 0.002089846 -0.02294874)
(0.005634637 0.02238497 -0.07018376)
(0.007532041 0.02654473 -0.00872703)
(0.004087026 0.03146786 -0.02989482)
(1.743075e-05 2.330704e-05 -0.001021475)
(1.905316e-05 2.559319e-05 -0.003512796)
(1.984931e-05 2.800645e-05 -0.005651917)
(2.040165e-05 3.027026e-05 -0.0100952)
(1.927472e-05 3.651455e-05 -0.00893283)
(0.0001907924 0.0003577622 -0.0194504)
(0.0002310626 0.0004034319 -0.0150434)
(0.0002684034 0.0004566628 -0.01846146)
(0.0003205296 0.0005092603 -0.02089783)
(0.0004192366 0.0006361635 -0.01991343)
(0.00449791 0.006665915 -0.05966153)
(0.006058516 0.007748002 -0.007052122)
(0.007517165 0.009321515 -0.02426964)
(0.004192618 0.01093751 -0.01071671)
(8.812947e-05 -0.0004574263 -0.005494034)
(0.0001497684 -0.0001798168 -0.004414058)
(8.788548e-05 -0.0001380973 -0.01815713)
(9.83819e-05 -9.927042e-05 -0.003626753)
(0.0001446942 -0.0001055996 -0.01422804)
(7.813424e-05 -8.968574e-05 -0.02761042)
(6.968685e-05 -3.53435e-05 -0.003055373)
(9.386814e-05 -3.86371e-05 -0.01159296)
(0.000126841 -4.104887e-05 -0.02129258)
(6.500272e-05 -3.48143e-05 -0.04599845)
(5.2107e-05 -1.034392e-05 -0.002626789)
(6.63105e-05 -1.150043e-05 -0.00973777)
(8.125972e-05 -1.292814e-05 -0.01726576)
(0.0001043326 -1.444329e-05 -0.03512652)
(3.763097e-05 -1.915629e-05 -0.03764518)
(4.084888e-05 9.539522e-06 -0.002294618)
(4.969496e-05 1.062507e-05 -0.008364612)
(5.746965e-05 1.19966e-05 -0.01447914)
(6.657573e-05 1.385168e-05 -0.02840034)
(5.945909e-05 1.872025e-05 -0.02857103)
(0.0002846058 0.0001863079 -0.07513923)
(3.310891e-05 2.791879e-05 -0.002030185)
(3.914731e-05 3.105294e-05 -0.007305087)
(4.330642e-05 3.495231e-05 -0.01242875)
(4.742376e-05 4.028534e-05 -0.02378831)
(3.849128e-05 5.342658e-05 -0.02304734)
(0.0004544158 0.0005663614 -0.05679521)
(0.0002784828 0.0006480573 -0.0528937)
(2.770411e-05 6.375572e-05 -0.00181386)
(3.19513e-05 7.09891e-05 -0.006459933)
(3.444093e-05 7.969713e-05 -0.01084501)
(3.617013e-05 9.119141e-05 -0.0203965)
(2.843685e-05 0.0001166805 -0.01926989)
(0.0003030123 0.001239345 -0.04571316)
(0.0004568009 0.001524118 -0.03990995)
(0.0002558979 0.001756101 -0.05804267)
(2.407344e-05 0.0001016055 -0.001631913)
(2.732568e-05 0.0001127406 -0.005762874)
(2.88886e-05 0.0001259612 -0.00957238)
(2.979913e-05 0.0001431005 -0.0177606)
(2.343559e-05 0.0001800657 -0.01647805)
(0.0002414876 0.001884561 -0.0381134)
(0.0003292897 0.002309074 -0.03206392)
(0.0004444878 0.002743644 -0.04378433)
(0.000247348 0.003221775 -0.05790002)
(2.149911e-05 0.0002142208 -0.001474314)
(2.40714e-05 0.0002372083 -0.005169155)
(2.520667e-05 0.0002634773 -0.00851037)
(2.568412e-05 0.000296342 -0.01561985)
(2.083194e-05 0.0003635353 -0.01428762)
(0.0002090238 0.003745383 -0.03245229)
(0.0002746729 0.004530413 -0.02665286)
(0.0003444066 0.005349859 -0.03507139)
(0.0004564885 0.006429244 -0.04377886)
(0.0002639822 0.008445828 -0.0470624)
(2.098644e-05 0.0002404603 -0.001331909)
(2.337433e-05 0.0002650006 -0.004640602)
(2.453548e-05 0.0002925701 -0.007583175)
(2.528564e-05 0.0003265268 -0.01379149)
(2.224373e-05 0.0003957859 -0.01247521)
(0.0002255075 0.00402614 -0.02790256)
(0.0002879281 0.004795959 -0.02234521)
(0.0003574297 0.00555549 -0.02859083)
(0.0004558094 0.006569564 -0.03419601)
(0.0006279493 0.008581527 -0.0349622)
(0.002784738 0.09483548 -0.1168482)
(1.968583e-05 0.0001678719 -0.001211849)
(2.176275e-05 0.000184101 -0.004200556)
(2.279077e-05 0.0002023087 -0.006821895)
(2.346355e-05 0.0002245657 -0.01231709)
(2.134247e-05 0.0002708566 -0.01104201)
(0.000214232 0.002728191 -0.02442475)
(0.000268272 0.00320664 -0.01927532)
(0.0003231548 0.003651706 -0.02422176)
(0.0004057727 0.004227438 -0.02826355)
(0.0005505602 0.005413837 -0.02796532)
(0.00580484 0.05910925 -0.08922986)
(0.003456573 0.07077689 -0.01572989)
(1.851358e-05 0.0001217738 -0.001110457)
(2.034807e-05 0.0001330555 -0.00383281)
(2.12466e-05 0.0001455196 -0.006193447)
(2.186787e-05 0.0001605848 -0.01111725)
(2.031524e-05 0.0001919726 -0.009895938)
(0.0002026988 0.001917913 -0.02170084)
(0.0002488167 0.002232817 -0.01693235)
(0.0002944922 0.002512633 -0.02099598)
(0.0003586265 0.002865559 -0.02407759)
(0.0004829029 0.003601454 -0.02331089)
(0.005170274 0.03862922 -0.07157067)
(0.006995989 0.0463252 -0.009381959)
(0.003794859 0.05612662 -0.03153584)
(1.713645e-05 6.62364e-05 -0.001025494)
(1.871681e-05 7.212531e-05 -0.003527204)
(1.946048e-05 7.858491e-05 -0.005676175)
(1.994507e-05 8.633161e-05 -0.01014079)
(1.868142e-05 0.0001026506 -0.008975357)
(0.0001845038 0.001018622 -0.01954968)
(0.0002232466 0.001176362 -0.01512652)
(0.0002589321 0.001310672 -0.01857208)
(0.0003088133 0.001476716 -0.02103619)
(0.0004031639 0.001827285 -0.02005553)
(0.004313598 0.01921699 -0.06023929)
(0.005824613 0.02257686 -0.00730624)
(0.007238275 0.02698161 -0.02486602)
(0.004045856 0.03177388 -0.01124098)
(1.572632e-05 2.188221e-05 -0.0009539831)
(1.707589e-05 2.395601e-05 -0.003271716)
(1.765764e-05 2.61139e-05 -0.005247103)
(1.800342e-05 2.809791e-05 -0.009338033)
(1.685663e-05 3.367036e-05 -0.008226707)
(0.0001649554 0.0003280643 -0.01782149)
(0.000196717 0.0003676483 -0.01369835)
(0.0002248323 0.0004130545 -0.01668924)
(0.0002623607 0.0004564372 -0.01872699)
(0.0003351689 0.0005637488 -0.0176531)
(0.003474343 0.005818262 -0.05217246)
(0.004642421 0.00665649 -0.006045273)
(0.005837749 0.007915107 -0.02040053)
(0.007453391 0.009371244 -0.008938021)
(0.004107006 0.01092276 -0.005487934)
(8.904643e-05 -0.0005835023 -0.005167431)
(0.0001463097 -0.0004827795 -0.004298562)
(8.456941e-05 -0.0004854186 -0.01740458)
(9.931334e-05 -0.0001746015 -0.00358517)
(0.0001430968 -0.0001894236 -0.01400726)
(7.675769e-05 -0.0001707894 -0.02690638)
(6.996789e-05 -9.156182e-05 -0.003041542)
(9.385485e-05 -0.0001030369 -0.01152458)
(0.0001255576 -0.0001147777 -0.02111513)
(6.414892e-05 -0.0001125162 -0.04535151)
(5.226669e-05 -3.284026e-05 -0.002623069)
(6.646135e-05 -3.657203e-05 -0.00971993)
(8.133691e-05 -4.129562e-05 -0.01722303)
(0.0001040117 -4.643847e-05 -0.03499991)
(3.765178e-05 -6.208408e-05 -0.03741131)
(4.084888e-05 -9.539522e-06 -0.002294618)
(4.969496e-05 -1.062507e-05 -0.008364612)
(5.746965e-05 -1.19966e-05 -0.01447914)
(6.657573e-05 -1.385168e-05 -0.02840034)
(5.945909e-05 -1.872025e-05 -0.02857103)
(0.0002846058 -0.0001863079 -0.07513923)
(3.296563e-05 8.787583e-06 -0.002031975)
(3.89817e-05 9.763602e-06 -0.00731314)
(4.310629e-05 1.095684e-05 -0.0124462)
(4.71748e-05 1.25797e-05 -0.02383154)
(3.807346e-05 1.656226e-05 -0.0231043)
(0.000451237 0.0001750955 -0.05699803)
(0.0002772259 0.0001997791 -0.05320794)
(2.742601e-05 2.577443e-05 -0.001817508)
(3.162584e-05 2.854258e-05 -0.006475387)
(3.404278e-05 3.188096e-05 -0.01087638)
(3.566017e-05 3.632582e-05 -0.02046859)
(2.759368e-05 4.668829e-05 -0.01935611)
(0.0002936003 0.0004940122 -0.04597615)
(0.0004483196 0.0006004579 -0.04021075)
(0.0002519777 0.0006728274 -0.05881583)
(2.338099e-05 5.873448e-05 -0.001638592)
(2.650494e-05 6.504426e-05 -0.005789554)
(2.788747e-05 7.239732e-05 -0.00962337)
(2.8536e-05 8.190123e-05 -0.01787021)
(2.155632e-05 0.0001023561 -0.01659942)
(0.0002193288 0.001069284 -0.03844642)
(0.0003000747 0.0013076 -0.03237784)
(0.0004118794 0.001548183 -0.04437619)
(0.0002299131 0.001803929 -0.059227)
(2.066965e-05 9.394301e-05 -0.001485568)
(2.309632e-05 0.0001036947 -0.005212388)
(2.402655e-05 0.0001149815 -0.008589361)
(2.420918e-05 0.0001292996 -0.0157817)
(1.86744e-05 0.000159742 -0.01445681)
(0.0001840759 0.001647018 -0.03288647)