/*--------------------------------*- C++ -*----------------------------------*\
| =========                 |                                                 |
| \\      /  F ield         | OpenFOAM: The Open Source CFD Toolbox           |
|  \\    /   O peration     | Version:  2306                                  |
|   \\  /    A nd           | Website:  www.openfoam.com                      |
|    \\/     M anipulation  |                                                 |
\*---------------------------------------------------------------------------*/
FoamFile
{
    version     2.0;
    format      ascii;
    arch        "LSB;label=32;scalar=64";
    class       volScalarField;
    location    "1.2/fuel";
    object      X.H2O;
}
// * * * * * * * * * * * * * * * * * * * * * * * * * * * * * * * * * * * * * //

dimensions      [0 0 0 0 0 0 0];

internalField   nonuniform List<scalar> 
16000
(
0.06422521
0.06299777
0.08269958
0.06415392
0.06055136
0.08172825
0.06292583
0.1033624
0.0826343
0.06401468
0.05695529
0.07979369
0.06047803
0.102486
0.08166255
0.06278535
0.123495
0.1033022
0.08250667
0.06380989
0.05246537
0.07695106
0.05687962
0.1007401
0.0797271
0.06033487
0.1226757
0.1024255
0.08153411
0.06257875
0.1427654
0.1234389
0.1031844
0.08231876
0.06354096
0.04782851
0.07339882
0.05238594
0.09817222
0.07688299
0.05673192
0.1210438
0.1006789
0.07959693
0.06012436
0.1419912
0.1226193
0.1023071
0.08134502
0.06230746
0.1611783
0.1427127
0.123329
0.1030109
0.08207185
0.06327499
0.04442722
0.06971488
0.04774403
0.09495907
0.07332841
0.05223093
0.1186441
0.09810989
0.07674996
0.05651477
0.1404497
0.1209869
0.1005592
0.07940533
0.05984798
0.160443
0.1419383
0.1225089
0.1021326
0.08109656
0.06203917
0.1787917
0.1611285
0.1426095
0.123167
0.1027827
0.08182757
0.06305503
0.04229749
0.06697329
0.04434051
0.09162118
0.06964132
0.04757912
0.1156416
0.0948949
0.07319079
0.05200305
0.1381835
0.1185862
0.09798792
0.07655415
0.05622969
0.1589794
0.1403963
0.1208754
0.1003827
0.07915359
0.05957467
0.178091
0.160393
0.1418346
0.1223462
0.1019033
0.08085076
0.06181728
0.1956656
0.1787446
0.1610309
0.1424571
0.1229539
0.1025568
0.08162555
0.06283677
0.0410966
0.06522362
0.04220995
0.08913154
0.06689867
0.04417129
0.1125223
0.09155449
0.0694975
0.04733662
0.1353489
0.1155821
0.0947693
0.07298822
0.05170387
0.1568283
0.1381293
0.1184729
0.09780824
0.07629691
0.05594781
0.1766967
0.158929
0.1402916
0.120711
0.1001508
0.07890455
0.05934852
0.1949961
0.1780437
0.160295
0.1416815
0.122132
0.1016762
0.08064748
0.06159708
0.2118546
0.1956207
0.178652
0.1608868
0.1422565
0.1227429
0.1023701
0.08142509
0.06262019
0.04055883
0.0642181
0.04100872
0.08753794
0.06514884
0.0420392
0.1101943
0.08906415
0.06675279
0.04392252
0.1324046
0.1124607
0.09142391
0.06928575
0.04701814
0.1541385
0.1352933
0.1154657
0.09458426
0.07272209
0.05140801
0.1746478
0.1567772
0.138023
0.1183057
0.09757203
0.07604244
0.05571416
0.1936643
0.176649
0.1588302
0.1401372
0.1204948
0.09992128
0.07869851
0.05912399
0.2112137
0.1949511
0.1779507
0.1601504
0.1414801
0.1219201
0.1014885
0.08044575
0.06137858
0.2274073
0.2118118
0.1955325
0.1785152
0.1606971
0.1420579
0.1225684
0.1021847
0.08122618
0.0624053
0.04055883
0.06376147
0.04047081
0.08661932
0.06414335
0.04083735
0.1087025
0.0874706
0.06500268
0.04178825
0.1302065
0.1101321
0.08893223
0.06653803
0.04359587
0.151345
0.132347
0.1123399
0.09123146
0.06900745
0.04670308
0.1720863
0.1540861
0.1351843
0.115294
0.09434099
0.0724588
0.05116154
0.1917076
0.1745994
0.156677
0.1378662
0.1180859
0.09733827
0.0758316
0.05548177
0.2099389
0.1936189
0.1765553
0.1586843
0.139934
0.1202807
0.09973138
0.07849398
0.05890109
0.2267927
0.2111708
0.1948626
0.1778134
0.1599599
0.1412807
0.1217448
0.1013022
0.08024558
0.06116178
0.2423666
0.2273664
0.2117277
0.1954023
0.178335
0.1605092
0.1418936
0.1223953
0.1020009
0.08102883
0.06137274
0.0410966
0.06376147
0.04047081
0.0862012
0.06368675
0.04029919
0.1078416
0.08655214
0.06399728
0.04058554
0.1287972
0.1086405
0.08733881
0.06478756
0.04145881
0.1492594
0.1301486
0.1100104
0.08873782
0.06625581
0.04327276
0.1694265
0.1512908
0.1322341
0.1121618
0.09097836
0.06873206
0.04643828
0.1892618
0.1720367
0.1539834
0.1350235
0.1150682
0.09410022
0.07223972
0.05091517
0.2080662
0.1916616
0.1745044
0.156529
0.1376599
0.1178683
0.09714459
0.07562199
0.05525067
0.2255703
0.2098956
0.1935298
0.1764169
0.1584923
0.1397327
0.1201036
0.09954288
0.07829094
0.05867982
0.2417763
0.2267517
0.2110864
0.1947319
0.1776326
0.1597712
0.1411157
0.1215708
0.1011173
0.08004697
0.06012001
0.2567703
0.2423274
0.227286
0.2116033
0.1952306
0.1781564
0.1603537
0.1417307
0.1222235
0.1018184
0.08007984
0.06066934
0.04229749
0.0642181
0.04100872
0.0862012
0.06368675
0.04029919
0.1074494
0.0861341
0.06354076
0.04004703
0.1279833
0.1077798
0.08642065
0.06378232
0.04025502
0.1479217
0.1287395
0.1085191
0.08714461
0.06450491
0.04113298
0.1674407
0.1492049
0.130035
0.1098309
0.08848218
0.06597657
0.04300115
0.1867226
0.1693753
0.1511846
0.1320675
0.1119274
0.0907278
0.06850111
0.04617122
0.2057259
0.1892147
0.1719395
0.1538318
0.1348118
0.1148446
0.09389989
0.07202098
0.05066891
0.2237749
0.2080224
0.1915713
0.1743641
0.1563342
0.1374556
0.117688
0.09695205
0.07541362
0.05502085
0.2406024
0.225529
0.2098106
0.193398
0.1762346
0.158302
0.1395662
0.1199278
0.09935576
0.07808941
0.05761629
0.2562027
0.241737
0.226671
0.2109616
0.1945596
0.1774534
0.1596152
0.140952
0.1213982
0.1009339
0.07909191
0.05940725
0.2706526
0.2567328
0.2422503
0.227167
0.2114394
0.1950605
0.1780088
0.1601995
0.141569
0.1220531
0.1009407
0.07943435
0.06013984
0.04442722
0.06522362
0.04220995
0.08661932
0.06414335
0.04083735
0.1074494
0.0861341
0.06354076
0.04004703
0.1276124
0.1073877
0.0860028
0.06332591
0.03971608
0.1471489
0.1279258
0.1076588
0.08622694
0.0634999
0.03992815
0.1661668
0.1478675
0.1286262
0.10834
0.08688928
0.06422527
0.04085963
0.1848268
0.1673893
0.1490981
0.1298672
0.1095946
0.08822911
0.06574234
0.04272721
0.2032965
0.186674
0.1692748
0.1510277
0.1318482
0.1116953
0.0905177
0.06826871
0.04590187
0.2215314
0.2056811
0.1891223
0.1717959
0.1536321
0.1346021
0.1146585
0.09369989
0.07180259
0.05042277
0.2388785
0.2237331
0.2079363
0.1914378
0.1741793
0.1561411
0.1372862
0.1175088
0.09676065
0.07520648
0.0539146
0.255074
0.2405628
0.2254477
0.2096849
0.1932245
0.176054
0.1581446
0.139401
0.1197533
0.09917003
0.07712004
0.05687677
0.2701061
0.256165
0.2416597
0.2265516
0.2107971
0.1943889
0.1773051
0.1594603
0.1407896
0.1212269
0.1000513
0.07844005
0.05886818
0.2840439
0.2706165
0.2566588
0.2421363
0.2270101
0.2112769
0.1949198
0.1778623
0.1600465
0.1414085
0.1212327
0.1003442
0.07894881
0.05978574
0.04782851
0.06697329
0.04434051
0.08753794
0.06514884
0.0420392
0.1078416
0.08655214
0.06399728
0.04058554
0.1276124
0.1073877
0.0860028
0.06332591
0.03971608
0.1467966
0.1275549
0.1072669
0.08580936
0.06304367
0.0393888
0.1654307
0.1470949
0.127813
0.1074803
0.08597226
0.06322051
0.03965434
0.1836105
0.1661156
0.1477611
0.1284591
0.1081044
0.08663655
0.0639911
0.04058447
0.2014828
0.184778
0.1672883
0.1489402
0.1296464
0.1093607
0.08801685
0.06550658
0.04245091
0.2192029
0.2032503
0.1865786
0.1691263
0.150821
0.1316309
0.1115007
0.09030629
0.06803483
0.04563022
0.2367246
0.2214887
0.205593
0.1889858
0.1716066
0.1534343
0.1344277
0.1144728
0.09350021
0.07158454
0.04923253
0.2534165
0.2388384
0.2236508
0.207809
0.191262
0.1739962
0.1559812
0.1371179
0.1173306
0.0965704
0.07420887
0.05310363
0.2690196
0.255036
0.240485
0.2253275
0.2095193
0.1930525
0.1759045
0.1579883
0.1392369
0.1195801
0.09827612
0.07644966
0.05630724
0.2835173
0.2700699
0.2560908
0.2415453
0.2263942
0.210634
0.1942477
0.1771581
0.1593067
0.1406284
0.1204026
0.09944962
0.07794786
0.0585061
0.2969717
0.2840092
0.2705455
0.2565494
0.2419859
0.2268545
0.2111424
0.1947802
0.1777169
0.1598947
0.1406361
0.1206756
0.09989561
0.07862432
0.05960833
0.05246537
0.06971488
0.04774403
0.08913154
0.06689867
0.04417129
0.1087025
0.0874706
0.06500268
0.04178825
0.1279833
0.1077798
0.08642065
0.06378232
0.04025502
0.1467966
0.1275549
0.1072669
0.08580936
0.06304367
0.0393888
0.1650949
0.1467427
0.1274423
0.1070887
0.08555504
0.06276445
0.03911484
0.1829075
0.1653797
0.1469889
0.1276465
0.1072455
0.08572019
0.06298686
0.03937913
0.200319
0.183562
0.166015
0.1476039
0.1282391
0.1078711
0.08642491
0.06375581
0.0403075
0.2174645
0.2014363
0.1846821
0.167139
0.1487324
0.1294277
0.1091644
0.08780322
0.0652693
0.04217226
0.2344893
0.2191588
0.2031594
0.1864375
0.1689306
0.1506162
0.1314487
0.1113048
0.09009355
0.06779945
0.04430566
0.2513459
0.2366837
0.2214046
0.2054629
0.1888058
0.1714191
0.1532697
0.1342535
0.1142873
0.09330086
0.0705301
0.04823099
0.2674243
0.2533782
0.2387597
0.2235291
0.2076412
0.1910877
0.1738445
0.1558222
0.1369506
0.1171535
0.09565347
0.07348777
0.05243974
0.2824703
0.2689832
0.2549614
0.2403699
0.225169
0.209355
0.1929101
0.1757562
0.1578332
0.139074
0.1187461
0.0976588
0.07593587
0.05591782
0.2964637
0.2834825
0.2699987
0.2559811
0.2413944
0.2262381
0.2104992
0.1941076
0.1770121
0.1591542
0.1398525
0.1198409
0.09899545
0.07761775
0.05832411
0.309461
0.2969383
0.2839409
0.2704403
0.256405
0.2418367
0.2267259
0.2110091
0.1946416
0.1775727
0.1591636
0.1401118
0.1202567
0.09959587
0.07846181
0.05695529
0.07339882
0.05238594
0.09162118
0.06964132
0.04757912
0.1101943
0.08906415
0.06675279
0.04392252
0.1287972
0.1086405
0.08733881
0.06478756
0.04145881
0.1471489
0.1279258
0.1076588
0.08622694
0.0634999
0.03992815
0.1650949
0.1467427
0.1274423
0.1070887
0.08555504
0.06276445
0.03911484
0.1825869
0.165044
0.1466369
0.1272762
0.1068544
0.08530334
0.06253109
0.03883967
0.1996462
0.1828592
0.1652795
0.1468324
0.1274273
0.107013
0.08550938
0.06275239
0.03910252
0.2163491
0.2002728
0.1834665
0.1658664
0.1473968
0.1280211
0.1076757
0.08621227
0.06351939
0.04002871
0.2328206
0.2174202
0.201345
0.1845404
0.1669423
0.1485264
0.1292442
0.1089669
0.0875882
0.06503048
0.0408141
0.2491973
0.2344471
0.219072
0.2030249
0.1862515
0.1687366
0.1504444
0.1312653
0.1111077
0.08987948
0.06665251
0.04291928
0.2654314
0.2513067
0.2366032
0.2212802
0.2052913
0.1886275
0.1712631
0.1531053
0.1340796
0.1141021
0.09233615
0.06967051
0.04727041
0.2809332
0.2673874
0.2533026
0.2386431
0.2233687
0.2074749
0.1909432
0.1736936
0.1556641
0.1367842
0.1162994
0.09499217
0.07290552
0.05195523
0.295454
0.2824353
0.2689115
0.2548509
0.240218
0.2250119
0.2092191
0.1927689
0.1756089
0.1576792
0.1382896
0.1181705
0.09718597
0.07558613
0.05571934
0.3089706
0.2964303
0.283414
0.2698932
0.2558362
0.2412448
0.226109
0.2103653
0.1939685
0.1768674
0.15842
0.1393241
0.119417
0.09869091
0.07745199
0.3215345
0.3094288
0.2968725
0.2838397
0.2703015
0.2562617
0.2417134
0.2265982
0.2108768
0.1945042
0.176878
0.1586675
0.1397175
0.1199768
0.09944578
0.06055136
0.07695106
0.05687962
0.09495907
0.07332841
0.05223093
0.1125223
0.09155449
0.0694975
0.04733662
0.1302065
0.1101321
0.08893223
0.06653803
0.04359587
0.1479217
0.1287395
0.1085191
0.08714461
0.06450491
0.04113298
0.1654307
0.1470949
0.127813
0.1074803
0.08597226
0.06322051
0.03965434
0.1825869
0.165044
0.1466369
0.1272762
0.1068544
0.08530334
0.06253109
0.03883967
0.1993394
0.1825386
0.1649441
0.1464807
0.1270575
0.1066223
0.08509297
0.06229706
0.0385633
0.2157042
0.1996002
0.1827641
0.1651315
0.1466263
0.1272103
0.1068186
0.08529783
0.06251711
0.03882451
0.2317498
0.216305
0.2001819
0.1833254
0.1656706
0.1471917
0.1278386
0.1074794
0.0859986
0.06328185
0.03867269
0.2475933
0.2327782
0.2173331
0.20121
0.1843535
0.1667473
0.1483536
0.1290595
0.1087681
0.08737181
0.06386692
0.0394125
0.2633637
0.2491569
0.2343641
0.2189436
0.2028477
0.1860671
0.1685739
0.1502715
0.1310807
0.1109093
0.08883545
0.06550916
0.04121224
0.2790133
0.2653938
0.2512296
0.2364841
0.2211162
0.2051211
0.188479
0.1711072
0.1529412
0.1339059
0.1132056
0.09155243
0.06886914
0.04642328
0.2939716
0.2808978
0.2673149
0.2531908
0.2384894
0.2232096
0.2073371
0.1907997
0.1735437
0.155507
0.1359819
0.1156839
0.09445895
0.07248611
0.05169314
0.307996
0.2954203
0.2823664
0.2688053
0.2547051
0.2400673
0.2248818
0.2090842
0.1926286
0.1754627
0.1569374
0.1377485
0.1177297
0.0968643
0.07540847
0.3210608
0.3089384
0.2963643
0.2833125
0.269754
0.2556926
0.241121
0.225981
0.2102326
0.1938306
0.1761699
0.1579202
0.1389253
0.1191328
0.09853802
0.3332131
0.3215035
0.3093654
0.2967751
0.2837061
0.2701638
0.2561433
0.241591
0.2264716
0.2107455
0.1938422
0.1764068
0.1582946
0.1394542
0.1198367
0.06299777
0.07979369
0.06047803
0.09817222
0.07688299
0.05673192
0.1156416
0.0948949
0.07319079
0.05200305
0.1324046
0.1124607
0.09142391
0.06928575
0.04701814
0.1492594
0.1301486
0.1100104
0.08873782
0.06625581
0.04327276
0.1661668
0.1478675
0.1286262
0.10834
0.08688928
0.06422527
0.04085963
0.1829075
0.1653797
0.1469889
0.1276465
0.1072455
0.08572019
0.06298686
0.03937913
0.1993394
0.1825386
0.1649441
0.1464807
0.1270575
0.1066223
0.08509297
0.06229706
0.0385633
0.21541
0.1992935
0.1824438
0.1647965
0.1462751
0.1268409
0.1064284
0.08488199
0.06206236
0.03828571
0.2311307
0.2156603
0.1995098
0.1826237
0.1649366
0.146422
0.1270287
0.1066234
0.08508555
0.06228101
0.03747428
0.246564
0.2317076
0.2162183
0.2000476
0.1831394
0.1654765
0.1470199
0.1276551
0.1072821
0.08578392
0.06212651
0.03733628
0.2618201
0.2475528
0.2326949
0.2172042
0.201032
0.1841682
0.1665837
0.1481796
0.1288735
0.108568
0.08631651
0.06271924
0.03775078
0.2770213
0.2633249
0.2490773
0.2342412
0.2187742
0.2026718
0.1859124
0.1684101
0.1500975
0.1308949
0.1099411
0.08779841
0.06415011
0.03905716
0.2921203
0.2789771
0.2653198
0.2511154
0.2363271
0.2209535
0.2049795
0.1883308
0.1709517
0.1527773
0.1330647
0.1124776
0.09082351
0.06818018
0.04584335
0.3065653
0.2939376
0.2808281
0.2672075
0.2530434
0.238337
0.2230777
0.2072
0.1906569
0.1733946
0.1547488
0.1354038
0.1151877
0.09407536
0.07226156
0.3201194
0.3079636
0.295354
0.2822642
0.2686652
0.2545605
0.2399427
0.2247528
0.2089503
0.1924894
0.1747583
0.1564258
0.1373341
0.1174299
0.09670096
0.3327553
0.3210297
0.3088748
0.2962666
0.2831785
0.2696159
0.2555737
0.2409982
0.2258539
0.2101008
0.193166
0.1756952
0.157543
0.1386579
0.1189901
0.3445162
0.3331832
0.3214423
0.3092714
0.2966464
0.2835735
0.2700499
0.2560257
0.2414695
0.2263459
0.210113
0.1933932
0.1760525
0.1580454
0.1393223
0.06422521
0.08172825
0.06292583
0.1007401
0.0797271
0.06033487
0.1186441
0.09810989
0.07674996
0.05651477
0.1353489
0.1155821
0.0947693
0.07298822
0.05170387
0.151345
0.132347
0.1123399
0.09123146
0.06900745
0.04670308
0.1674407
0.1492049
0.130035
0.1098309
0.08848218
0.06597657
0.04300115
0.1836105
0.1661156
0.1477611
0.1284591
0.1081044
0.08663655
0.0639911
0.04058447
0.1996462
0.1828592
0.1652795
0.1468324
0.1274273
0.107013
0.08550938
0.06275239
0.03910252
0.21541
0.1992935
0.1824438
0.1647965
0.1462751
0.1268409
0.1064284
0.08488199
0.06206236
0.03828571
0.2308482
0.2153662
0.1992033
0.1823037
0.164602
0.1460713
0.1266598
0.1062339
0.0846704
0.061827
0.03693851
0.2459689
0.2310887
0.215574
0.1993761
0.1824386
0.1647434
0.1462512
0.1268465
0.1064276
0.08487252
0.06113417
0.03618651
0.2608296
0.2465237
0.2316247
0.21609
0.1998704
0.1829551
0.1653139
0.1468473
0.1274708
0.1070839
0.08473874
0.0610336
0.0358189
0.2755344
0.2617813
0.2474729
0.2325715
0.2170341
0.2008554
0.1840128
0.166419
0.1480044
0.1286863
0.1075913
0.08527782
0.06140176
0.0358132
0.2901996
0.2769841
0.2632486
0.2489595
0.2340791
0.2186062
0.2025243
0.1857567
0.1682453
0.1499223
0.1299877
0.1089791
0.08656824
0.06247839
0.03621188
0.3047786
0.2920855
0.2789059
0.2652101
0.2509647
0.2361712
0.2208181
0.2048381
0.1881828
0.1707963
0.1519832
0.1323817
0.1118004
0.09019818
0.06771856
0.3187376
0.3065325
0.2938705
0.2807248
0.2670658
0.252897
0.2382106
0.2229466
0.2070638
0.190515
0.1726751
0.1542028
0.1349378
0.1148308
0.09387016
0.3318454
0.3200882
0.3078996
0.2952556
0.2821294
0.2685262
0.2544409
0.239819
0.2246246
0.2088174
0.1918184
0.1742727
0.1560341
0.1370523
0.1172777
0.3440734
0.3327253
0.3209684
0.3087806
0.2961375
0.2830455
0.2695016
0.2554558
0.2408764
0.2257278
0.2094659
0.1927138
0.175337
0.1572902
0.1385237
0.3554613
0.3444873
0.3331242
0.3213516
0.3091473
0.2965186
0.2834639
0.2699369
0.2559091
0.2413491
0.2257404
0.2096841
0.1930556
0.1758159
0.1579206
0.08269958
0.06415392
0.102486
0.08166255
0.06278535
0.1210438
0.1006789
0.07959693
0.06012436
0.1381835
0.1185862
0.09798792
0.07655415
0.05622969
0.1541385
0.1352933
0.1154657
0.09458426
0.07272209
0.05140801
0.1694265
0.1512908
0.1322341
0.1121618
0.09097836
0.06873206
0.04643828
0.1848268
0.1673893
0.1490981
0.1298672
0.1095946
0.08822911
0.06574234
0.04272721
0.200319
0.183562
0.166015
0.1476039
0.1282391
0.1078711
0.08642491
0.06375581
0.0403075
0.2157042
0.1996002
0.1827641
0.1651315
0.1466263
0.1272103
0.1068186
0.08529783
0.06251711
0.03882451
0.2308482
0.2153662
0.1992033
0.1823037
0.164602
0.1460713
0.1266598
0.1062339
0.0846704
0.061827
0.03693851
0.2456974
0.2308064
0.2152802
0.1990699
0.1821191
0.1644093
0.145901
0.1264782
0.1060388
0.08445821
0.06068437
0.03567312
0.2602569
0.2459288
0.2310062
0.2154464
0.1991998
0.1822551
0.1645818
0.1460797
0.1266636
0.1062311
0.0838367
0.06008126
0.03476309
0.2745802
0.2607909
0.2464443
0.231502
0.2159208
0.1996947
0.1828006
0.1651505
0.1466737
0.1272855
0.106118
0.08375111
0.05983077
0.03412912
0.2887659
0.275497
0.2617046
0.2473547
0.2324088
0.2168654
0.2007072
0.1838562
0.1662531
0.1478281
0.1277724
0.1066292
0.08408637
0.05990284
0.03359443
0.3029251
0.2901638
0.2769107
0.2631354
0.248804
0.2339181
0.2184652
0.2023758
0.1855999
0.1680793
0.1490666
0.1290855
0.107837
0.08505741
0.06030867
0.03151726
0.3170119
0.3047451
0.292017
0.2788005
0.2650654
0.2508153
0.2360416
0.2206829
0.2046969
0.188035
0.1700432
0.1513384
0.1317462
0.1112194
0.08977984
0.3305098
0.3187059
0.3064679
0.2937711
0.2805885
0.2669252
0.2527758
0.238085
0.2228163
0.2069283
0.1898299
0.172157
0.1537625
0.1346025
0.1146398
0.3431933
0.3318152
0.3200265
0.3078049
0.2951258
0.2819957
0.2684112
0.2543221
0.2396962
0.2244975
0.2081766
0.1913559
0.1739008
0.1557677
0.1369092
0.3550328
0.3440444
0.3326661
0.3208775
0.3086562
0.2960094
0.2829356
0.2693883
0.2553388
0.2407555
0.2251201
0.209034
0.1923725
0.1750969
0.1571632
0.366065
0.3554334
0.3444302
0.3330366
0.3212319
0.3090241
0.2964129
0.2833551
0.2698247
0.2557935
0.2407684
0.2253299
0.2093617
0.1928302
0.1756974
0.1033624
0.0826343
0.06401468
0.1226757
0.1024255
0.08153411
0.06257875
0.1404497
0.1209869
0.1005592
0.07940533
0.05984798
0.1568283
0.1381293
0.1184729
0.09780824
0.07629691
0.05594781
0.1720863
0.1540861
0.1351843
0.115294
0.09434099
0.0724588
0.05116154
0.1867226
0.1693753
0.1511846
0.1320675
0.1119274
0.0907278
0.06850111
0.04617122
0.2014828
0.184778
0.1672883
0.1489402
0.1296464
0.1093607
0.08801685
0.06550658
0.04245091
0.2163491
0.2002728
0.1834665
0.1658664
0.1473968
0.1280211
0.1076757
0.08621227
0.06351939
0.04002871
0.2311307
0.2156603
0.1995098
0.1826237
0.1649366
0.146422
0.1270287
0.1066234
0.08508555
0.06228101
0.03747428
0.2456974
0.2308064
0.2152802
0.1990699
0.1821191
0.1644093
0.145901
0.1264782
0.1060388
0.08445821
0.06068437
0.03567312
0.2599956
0.2456574
0.2307241
0.2151528
0.198894
0.1819361
0.1642482
0.1457301
0.1262961
0.1058431
0.08342701
0.05964981
0.03429129
0.2740285
0.2602184
0.2458497
0.2308841
0.215278
0.199025
0.1821016
0.1644196
0.1459076
0.1264801
0.1052748
0.08288621
0.05895239
0.03321284
0.2878459
0.2745431
0.2607147
0.2463267
0.2313401
0.215753
0.1995476
0.1826454
0.1649863
0.1464993
0.1263825
0.1052044
0.08266411
0.058525
0.03228477
0.3015416
0.28873
0.2754234
0.2615911
0.2471986
0.2322473
0.2167238
0.200558
0.1836987
0.1660862
0.1469668
0.126871
0.1055243
0.08273145
0.05821908
0.03068633
0.315222
0.3028906
0.2900932
0.276802
0.2629861
0.2486497
0.2337832
0.2183233
0.2022264
0.1854421
0.1672683
0.148215
0.1280135
0.1064336
0.08309844
0.05674657
0.02898382
0.3288421
0.3169797
0.3046791
0.2919155
0.2786613
0.2649218
0.2506908
0.2359121
0.2205479
0.2045559
0.1873183
0.1694317
0.1507381
0.1312007
0.1108306
0.3419017
0.3304793
0.3186436
0.3063721
0.2936398
0.2804532
0.2668087
0.2526552
0.2379602
0.2226868
0.2062744
0.1893367
0.1717392
0.1534457
0.1344231
0.3541812
0.3431642
0.3317557
0.319935
0.3076797
0.2949969
0.281885
0.268297
0.2542042
0.2395743
0.2238842
0.207735
0.1910018
0.1736479
0.1556324
0.3656501
0.3550048
0.3439872
0.3325783
0.3207574
0.3085326
0.2959034
0.2828265
0.2692758
0.2552228
0.2401728
0.2247067
0.2087081
0.1921438
0.1749763
0.3763425
0.366038
0.3553783
0.3443457
0.332921
0.3211129
0.3089222
0.2963081
0.2832472
0.2697135
0.2552358
0.2403748
0.2250213
0.2091464
0.1927173
0.123495
0.1033022
0.08250667
0.06380989
0.1419912
0.1226193
0.1023071
0.08134502
0.06230746
0.1589794
0.1403963
0.1208754
0.1003827
0.07915359
0.05957467
0.1746478
0.1567772
0.138023
0.1183057
0.09757203
0.07604244
0.05571416
0.1892618
0.1720367
0.1539834
0.1350235
0.1150682
0.09410022
0.07223972
0.05091517
0.2032965
0.186674
0.1692748
0.1510277
0.1318482
0.1116953
0.0905177
0.06826871
0.04590187
0.2174645
0.2014363
0.1846821
0.167139
0.1487324
0.1294277
0.1091644
0.08780322
0.0652693
0.04217226
0.2317498
0.216305
0.2001819
0.1833254
0.1656706
0.1471917
0.1278386
0.1074794
0.0859986
0.06328185
0.03867269
0.2459689
0.2310887
0.215574
0.1993761
0.1824386
0.1647434
0.1462512
0.1268465
0.1064276
0.08487252
0.06113417
0.03618651
0.2599956
0.2456574
0.2307241
0.2151528
0.198894
0.1819361
0.1642482
0.1457301
0.1262961
0.1058431
0.08342701
0.05964981
0.03429129
0.2737768
0.2599572
0.2455785
0.2306023
0.2149849
0.1987197
0.181783
0.1640865
0.1455587
0.1261134
0.1048915
0.08249356
0.05855354
0.03280013
0.2873139
0.2739915
0.2601426
0.2457327
0.230723
0.2151111
0.1988787
0.1819475
0.1642568
0.1457349
0.1255864
0.1043963
0.08186656
0.05775463
0.03154912
0.3006539
0.2878102
0.2744699
0.2606019
0.2461715
0.2311795
0.2156125
0.1993997
0.1824894
0.1648212
0.1456488
0.1255274
0.1041976
0.08148381
0.05713056
0.0299558
0.313886
0.3015071
0.2886592
0.2753143
0.2614413
0.2470438
0.2321117
0.2165813
0.2004078
0.18354
0.1652704
0.1461166
0.1258348
0.1042667
0.08120958
0.05604401
0.02863113
0.3271122
0.3151887
0.3028226
0.2899885
0.2766584
0.2628379
0.2485202
0.2336473
0.2181805
0.2020759
0.1846708
0.1664607
0.1472023
0.1266953
0.1046132
0.07987942
0.05466896
0.02712875
0.3402889
0.328811
0.3169161
0.3045814
0.2917815
0.2785232
0.2648022
0.2505666
0.2357827
0.2204131
0.2038721
0.1867364
0.1688622
0.1502227
0.1308355
0.3529313
0.3418722
0.3304191
0.3185512
0.3062455
0.2935095
0.2803411
0.2666928
0.2525354
0.237836
0.2220612
0.2058036
0.188939
0.1714386
0.1532762
0.3648256
0.3541531
0.3431067
0.3316674
0.3198143
0.3075554
0.2948903
0.2817751
0.2681837
0.2540872
0.2389864
0.2234617
0.2073969
0.1907609
0.1735195
0.3759406
0.365623
0.3549495
0.3439024
0.3324624
0.3206382
0.3084304
0.2957983
0.2827182
0.2691642
0.2546632
0.2397765
0.2243949
0.2084897
0.192029
0.3863081
0.3763164
0.3659847
0.3552965
0.3442339
0.3328061
0.3210146
0.3088211
0.2962041
0.2831401
0.2691773
0.2548579
0.2400789
0.2248152
0.2090385
0.1427654
0.1234389
0.1031844
0.08231876
0.06354096
0.160443
0.1419383
0.1225089
0.1021326
0.08109656
0.06203917
0.1766967
0.158929
0.1402916
0.120711
0.1001508
0.07890455
0.05934852
0.1917076
0.1745994
0.156677
0.1378662
0.1180859
0.09733827
0.0758316
0.05548177
0.2057259
0.1892147
0.1719395
0.1538318
0.1348118
0.1148446
0.09389989
0.07202098
0.05066891
0.2192029
0.2032503
0.1865786
0.1691263
0.150821
0.1316309
0.1115007
0.09030629
0.06803483
0.04563022
0.2328206
0.2174202
0.201345
0.1845404
0.1669423
0.1485264
0.1292442
0.1089669
0.0875882
0.06503048
0.0408141
0.246564
0.2317076
0.2162183
0.2000476
0.1831394
0.1654765
0.1470199
0.1276551
0.1072821
0.08578392
0.06212651
0.03733628
0.2602569
0.2459288
0.2310062
0.2154464
0.1991998
0.1822551
0.1645818
0.1460797
0.1266636
0.1062311
0.0838367
0.06008126
0.03476309
0.2737768
0.2599572
0.2455785
0.2306023
0.2149849
0.1987197
0.181783
0.1640865
0.1455587
0.1261134
0.1048915
0.08249356
0.05855354
0.03280013
0.2870712
0.2737399
0.2598816
0.2454618
0.2304416
0.2148184
0.1985739
0.1816295
0.1639244
0.1453868
0.1252244
0.1040292
0.08150365
0.05740128
0.03120958
0.3001405
0.2872784
0.2739187
0.2600303
0.2455783
0.2305632
0.2149714
0.1987319
0.1817929
0.1640933
0.1448936
0.1247648
0.1034526
0.08078395
0.05649865
0.0294642
0.3130286
0.3006195
0.2877398
0.2743614
0.2604529
0.2460175
0.231045
0.2154712
0.199251
0.1823326
0.1640161
0.1448429
0.124584
0.1031031
0.0802227
0.05540268
0.0282213
0.3258212
0.3138526
0.3014389
0.2885542
0.2751703
0.2612926
0.2469138
0.2319753
0.2164378
0.2002566
0.1827644
0.1644646
0.1451383
0.1246544
0.1028533
0.07924188
0.05433554
0.02695317
0.3386162
0.3270802
0.3151232
0.3027218
0.2898503
0.2765158
0.2627135
0.2483899
0.2335104
0.2180366
0.2013402
0.1839022
0.1654997
0.1459564
0.1249849
0.1016191
0.07799984
0.05301897
0.02571705
0.3513708
0.3402589
0.3287496
0.3168218
0.3044522
0.2916485
0.2784082
0.2646828
0.2504425
0.2356536
0.2197592
0.2033168
0.1861943
0.1683731
0.1498776
0.3636156
0.3529029
0.3418141
0.3303299
0.3184291
0.3061199
0.2934015
0.2802296
0.2665776
0.2524163
0.2372365
0.2216109
0.205424
0.1886528
0.1712777
0.3751419
0.3647984
0.3540975
0.3430214
0.3315508
0.3196943
0.3074526
0.2947844
0.281666
0.2680712
0.2535227
0.2385814
0.2231382
0.2071669
0.1906386
0.3859186
0.3759144
0.3655696
0.3548676
0.3437903
0.3323472
0.3205396
0.3083291
0.295694
0.2826108
0.2686261
0.2542827
0.2394775
0.2241858
0.20838
0.3959749
0.3862828
0.3762648
0.3659056
0.3551884
0.3441228
0.3327111
0.320917
0.3087208
0.296101
0.2826239
0.2688139
0.2545738
0.2398813
0.224712
0.1611783
0.1427127
0.123329
0.1030109
0.08207185
0.06327499
0.178091
0.160393
0.1418346
0.1223462
0.1019033
0.08085076
0.06181728
0.1936643
0.176649
0.1588302
0.1401372
0.1204948
0.09992128
0.07869851
0.05912399
0.2080662
0.1916616
0.1745044
0.156529
0.1376599
0.1178683
0.09714459
0.07562199
0.05525067
0.2215314
0.2056811
0.1891223
0.1717959
0.1536321
0.1346021
0.1146585
0.09369989
0.07180259
0.05042277
0.2344893
0.2191588
0.2031594
0.1864375
0.1689306
0.1506162
0.1314487
0.1113048
0.09009355
0.06779945
0.04430566
0.2475933
0.2327782
0.2173331
0.20121
0.1843535
0.1667473
0.1483536
0.1290595
0.1087681
0.08737181
0.06386692
0.0394125
0.2608296
0.2465237
0.2316247
0.21609
0.1998704
0.1829551
0.1653139
0.1468473
0.1274708
0.1070839
0.08473874
0.0610336
0.0358189
0.2740285
0.2602184
0.2458497
0.2308841
0.215278
0.199025
0.1821016
0.1644196
0.1459076
0.1264801
0.1052748
0.08288621
0.05895239
0.03321284
0.2870712
0.2737399
0.2598816
0.2454618
0.2304416
0.2148184
0.1985739
0.1816295
0.1639244
0.1453868
0.1252244
0.1040292
0.08150365
0.05740128
0.03120958
0.2999063
0.2870358
0.2736673
0.2597696
0.2453078
0.2302823
0.2146792
0.1984276
0.1814755
0.1637618
0.14455
0.1244181
0.1031134
0.0804622
0.05620097
0.02922086
0.3125329
0.3001063
0.2872083
0.2738108
0.2598821
0.2454251
0.2304295
0.2148312
0.1985846
0.1816377
0.1632971
0.1441195
0.1238811
0.1024494
0.07964763
0.05495705
0.02790424
0.3249927
0.3129955
0.3005517
0.2876354
0.2742182
0.260305
0.2458885
0.2309097
0.2153292
0.1991016
0.1815674
0.1632525
0.1439528
0.1235575
0.1019327
0.07865805
0.05393995
0.02671797
0.3373678
0.3257891
0.3137869
0.3013378
0.2884156
0.2750273
0.2611678
0.2467829
0.2318379
0.2162933
0.1995171
0.1819979
0.1635367
0.1440232
0.123327
0.1010243
0.07769282
0.05282053
0.02561382
0.3497524
0.3385853
0.327017
0.315026
0.3025886
0.289713
0.2763962
0.2625883
0.2482586
0.2333727
0.2173333
0.2006068
0.1829872
0.1643168
0.144339
0.1221693
0.09987323
0.07650113
0.0516733
0.02463262
0.3621048
0.3513418
0.3401996
0.3286586
0.3166972
0.304324
0.2915377
0.2782933
0.2645636
0.2503186
0.2350271
0.2192281
0.2027994
0.1857286
0.1680455
0.3739699
0.3635881
0.3528468
0.341728
0.3302121
0.3183079
0.3060158
0.2932941
0.2801188
0.2664631
0.2518408
0.2368049
0.2212477
0.2051507
0.1884996
0.3851446
0.3751156
0.3647447
0.354015
0.3429087
0.331435
0.3195951
0.3073505
0.2946794
0.2815578
0.2675286
0.253134
0.2382713
0.2229182
0.2070501
0.3955973
0.3858932
0.3758627
0.3654903
0.3547592
0.343679
0.332252
0.3204417
0.3082285
0.2955905
0.2820929
0.2682603
0.2539956
0.2392771
0.2240809
0.4053554
0.3959504
0.3862329
0.3761883
0.365801
0.355081
0.344031
0.3326169
0.3208202
0.3086213
0.2956035
0.2822741
0.2685408
0.254384
0.2397823
0.1787917
0.1611285
0.1426095
0.123167
0.1027827
0.08182757
0.06305503
0.1949961
0.1780437
0.160295
0.1416815
0.122132
0.1016762
0.08064748
0.06159708
0.2099389
0.1936189
0.1765553
0.1586843
0.139934
0.1202807
0.09973138
0.07849398
0.05890109
0.2237749
0.2080224
0.1915713
0.1743641
0.1563342
0.1374556
0.117688
0.09695205
0.07541362
0.05502085
0.2367246
0.2214887
0.205593
0.1889858
0.1716066
0.1534343
0.1344277
0.1144728
0.09350021
0.07158454
0.04923253
0.2491973
0.2344471
0.219072
0.2030249
0.1862515
0.1687366
0.1504444
0.1312653
0.1111077
0.08987948
0.06665251
0.04291928
0.2618201
0.2475528
0.2326949
0.2172042
0.201032
0.1841682
0.1665837
0.1481796
0.1288735
0.108568
0.08631651
0.06271924
0.03775078
0.2745802
0.2607909
0.2464443
0.231502
0.2159208
0.1996947
0.1828006
0.1651505
0.1466737
0.1272855
0.106118
0.08375111
0.05983077
0.03412912
0.2873139
0.2739915
0.2601426
0.2457327
0.230723
0.2151111
0.1988787
0.1819475
0.1642568
0.1457349
0.1255864
0.1043963
0.08186656
0.05775463
0.03154912
0.2999063
0.2870358
0.2736673
0.2597696
0.2453078
0.2302823
0.2146792
0.1984276
0.1814755
0.1637618
0.14455
0.1244181
0.1031134
0.0804622
0.05620097
0.02922086
0.3123067
0.2998722
0.2869659
0.2735596
0.2596217
0.245155
0.230149
0.2145395
0.1982809
0.1813211
0.1629698
0.1437905
0.1235607
0.1021486
0.07937606
0.05473198
0.02773661
0.3245137
0.3124999
0.3000388
0.2871045
0.2736683
0.2597349
0.2452969
0.2302953
0.2146904
0.1984367
0.1808811
0.1625639
0.1432861
0.1229407
0.1013953
0.07825077
0.05362705
0.02651846
0.3365667
0.3249608
0.3129301
0.3004511
0.2874976
0.274076
0.2601811
0.2457588
0.2307738
0.2151864