/*--------------------------------*- C++ -*----------------------------------*\
| =========                 |                                                 |
| \\      /  F ield         | OpenFOAM: The Open Source CFD Toolbox           |
|  \\    /   O peration     | Version:  2306                                  |
|   \\  /    A nd           | Website:  www.openfoam.com                      |
|    \\/     M anipulation  |                                                 |
\*---------------------------------------------------------------------------*/
FoamFile
{
    version     2.0;
    format      ascii;
    arch        "LSB;label=32;scalar=64";
    class       volScalarField;
    location    "1.2/fuel";
    object      X.H2;
}
// * * * * * * * * * * * * * * * * * * * * * * * * * * * * * * * * * * * * * //

dimensions      [0 0 0 0 0 0 0];

internalField   nonuniform List<scalar> 
16000
(
0.9357748
0.9370022
0.9173004
0.9358461
0.9394486
0.9182717
0.9370742
0.8966376
0.9173657
0.9359853
0.9430447
0.9202063
0.939522
0.897514
0.9183374
0.9372147
0.876505
0.8966978
0.9174933
0.9361901
0.9475346
0.9230489
0.9431204
0.8992599
0.9202729
0.9396651
0.8773243
0.8975745
0.9184659
0.9374213
0.8572346
0.8765611
0.8968156
0.9176812
0.936459
0.9521715
0.9266012
0.9476141
0.9018278
0.923117
0.9432681
0.8789562
0.8993211
0.9204031
0.9398756
0.8580088
0.8773807
0.8976929
0.918655
0.9376925
0.8388217
0.8572873
0.876671
0.8969891
0.9179282
0.936725
0.9555728
0.9302851
0.952256
0.9050409
0.9266716
0.9477691
0.8813559
0.9018901
0.92325
0.9434852
0.8595503
0.8790131
0.8994408
0.9205947
0.940152
0.839557
0.8580617
0.8774911
0.8978674
0.9189034
0.9379608
0.8212083
0.8388715
0.8573905
0.876833
0.8972173
0.9181724
0.936945
0.9577025
0.9330267
0.9556595
0.9083788
0.9303587
0.9524209
0.8843584
0.9051051
0.9268092
0.947997
0.8618165
0.8814138
0.9020121
0.9234458
0.9437703
0.8410206
0.8596037
0.8791246
0.8996173
0.9208464
0.9404253
0.821909
0.839607
0.8581654
0.8776538
0.8980967
0.9191492
0.9381827
0.8043344
0.8212554
0.8389691
0.8575429
0.8770461
0.8974432
0.9183744
0.9371632
0.9589034
0.9347764
0.95779
0.9108685
0.9331013
0.9558287
0.8874777
0.9084455
0.9305025
0.9526634
0.8646511
0.8844179
0.9052307
0.9270118
0.9482961
0.8431717
0.8618707
0.8815271
0.9021918
0.9237031
0.9440522
0.8233033
0.841071
0.8597084
0.879289
0.8998492
0.9210954
0.9406515
0.8050039
0.8219563
0.839705
0.8583185
0.877868
0.8983238
0.9193525
0.9384029
0.7881454
0.8043793
0.821348
0.8391132
0.8577435
0.8772571
0.8976299
0.9185749
0.9373798
0.9594412
0.9357819
0.9589913
0.9124621
0.9348512
0.9579608
0.8898057
0.9109359
0.9332472
0.9560775
0.8675954
0.8875393
0.9085761
0.9307143
0.9529819
0.8458615
0.8647067
0.8845343
0.9054157
0.9272779
0.948592
0.8253522
0.8432228
0.861977
0.8816943
0.902428
0.9239576
0.9442858
0.8063357
0.823351
0.8411698
0.8598628
0.8795052
0.9000787
0.9213015
0.940876
0.7887863
0.8050489
0.8220493
0.8398496
0.8585199
0.8780799
0.8985115
0.9195542
0.9386214
0.7725927
0.7881882
0.8044675
0.8214848
0.8393029
0.8579421
0.8774316
0.8978153
0.9187738
0.9375947
0.9594412
0.9362385
0.9595292
0.9133807
0.9358566
0.9591627
0.8912975
0.9125294
0.9349973
0.9582118
0.8697935
0.8898679
0.9110678
0.933462
0.9564041
0.848655
0.867653
0.8876601
0.9087685
0.9309925
0.9532969
0.8279137
0.8459139
0.8648157
0.884706
0.905659
0.9275412
0.9488385
0.8082924
0.8254006
0.843323
0.8621338
0.8819141
0.9026617
0.9241684
0.9445182
0.7900611
0.8063811
0.8234447
0.8413157
0.860066
0.8797193
0.9002686
0.921506
0.9410989
0.7732073
0.7888292
0.8051374
0.8221866
0.8400401
0.8587193
0.8782552
0.8986978
0.9197544
0.9388382
0.7576334
0.7726336
0.7882723
0.8045977
0.821665
0.8394908
0.8581064
0.8776047
0.8979991
0.9189712
0.9386273
0.9589034
0.9362385
0.9595292
0.9137988
0.9363132
0.9597008
0.8921584
0.9134479
0.9360027
0.9594145
0.8712028
0.8913595
0.9126612
0.9352124
0.9585412
0.8507406
0.8698514
0.8899896
0.9112622
0.9337442
0.9567272
0.8305735
0.8487092
0.8677659
0.8878382
0.9090216
0.9312679
0.9535617
0.8107382
0.8279633
0.8460166
0.8649765
0.8849318
0.9058998
0.9277603
0.9490848
0.7919338
0.8083384
0.8254956
0.843471
0.8623401
0.8821317
0.9028554
0.924378
0.9447493
0.7744297
0.7901044
0.8064702
0.8235831
0.8415077
0.8602673
0.8798964
0.9004571
0.9217091
0.9413202
0.7582237
0.7732483
0.7889136
0.8052681
0.8223674
0.8402288
0.8588843
0.8784292
0.8988827
0.919953
0.93988
0.7432297
0.7576726
0.772714
0.7883967
0.8047694
0.8218436
0.8396463
0.8582693
0.8777765
0.8981816
0.9199202
0.9393307
0.9577025
0.9357819
0.9589913
0.9137988
0.9363132
0.9597008
0.8925506
0.9138659
0.9364592
0.959953
0.8720167
0.8922202
0.9135793
0.9362177
0.959745
0.8520783
0.8712605
0.8914809
0.9128554
0.9354951
0.958867
0.8325593
0.8507951
0.869965
0.8901691
0.9115178
0.9340234
0.9569988
0.8132774
0.8306247
0.8488154
0.8679325
0.8880726
0.9092722
0.9314989
0.9538288
0.7942741
0.8107853
0.8280605
0.8461682
0.8651882
0.8851554
0.9061001
0.927979
0.9493311
0.7762251
0.7919776
0.8084287
0.8256359
0.8436658
0.8625444
0.882312
0.9030479
0.9245864
0.9449792
0.7593976
0.774471
0.7901894
0.806602
0.8237654
0.841698
0.8604338
0.8800722
0.9006442
0.9219106
0.9423837
0.7437973
0.758263
0.773329
0.7890384
0.8054404
0.8225466
0.8403848
0.859048
0.8786018
0.8990661
0.9209081
0.9405928
0.7293474
0.7432672
0.7577497
0.772833
0.7885606
0.8049395
0.8219912
0.8398005
0.858431
0.8779469
0.8990593
0.9205656
0.9398602
0.9555728
0.9347764
0.95779
0.9133807
0.9358566
0.9591627
0.8925506
0.9138659
0.9364592
0.959953
0.8723876
0.8926123
0.9139972
0.9366741
0.9602839
0.8528511
0.8720742
0.8923412
0.9137731
0.9365001
0.9600719
0.8338332
0.8521325
0.8713738
0.89166
0.9131107
0.9357747
0.9591404
0.8151732
0.8326107
0.8509019
0.8701328
0.8904054
0.9117709
0.9342577
0.9572728
0.7967035
0.813326
0.8307252
0.8489723
0.8681518
0.8883047
0.9094823
0.9317313
0.9540981
0.7784686
0.7943189
0.8108777
0.8282041
0.8463679
0.8653979
0.8853415
0.9063001
0.9281974
0.9495772
0.7611215
0.7762669
0.7920637
0.8085622
0.8258207
0.8438589
0.8627138
0.8824912
0.9032393
0.9247935
0.9460854
0.744926
0.7594372
0.7745523
0.7903151
0.8067755
0.823946
0.8418554
0.860599
0.8802467
0.90083
0.92288
0.9431232
0.7298939
0.743835
0.7583403
0.7734484
0.7892029
0.8056111
0.8226949
0.8405397
0.8592104
0.8787731
0.8999487
0.92156
0.9411318
0.7159561
0.7293835
0.7433412
0.7578637
0.7729899
0.7887231
0.8050802
0.8221377
0.8399535
0.8585915
0.8787673
0.8996558
0.9210512
0.9402143
0.9521715
0.9330267
0.9556595
0.9124621
0.9348512
0.9579608
0.8921584
0.9134479
0.9360027
0.9594145
0.8723876
0.8926123
0.9139972
0.9366741
0.9602839
0.8532034
0.8724451
0.8927331
0.9141906
0.9369563
0.9606112
0.8345693
0.8529051
0.872187
0.8925197
0.9140277
0.9367795
0.9603457
0.8163895
0.8338844
0.8522389
0.8715409
0.8918956
0.9133635
0.9360089
0.9594155
0.7985172
0.815222
0.8327117
0.8510598
0.8703536
0.8906393
0.9119831
0.9344934
0.9575491
0.7807971
0.7967497
0.8134214
0.8308737
0.849179
0.8683691
0.8884993
0.9096937
0.9319652
0.9543698
0.7632754
0.7785113
0.794407
0.8110142
0.8283934
0.8465657
0.8655723
0.8855272
0.9064998
0.9284155
0.9507675
0.7465835
0.7611616
0.7763492
0.792191
0.808738
0.8260038
0.8440188
0.8628821
0.8826694
0.9034296
0.9257911
0.9468964
0.7309804
0.744964
0.759515
0.7746725
0.7904807
0.8069475
0.8240955
0.8420117
0.8607631
0.8804199
0.9017239
0.9235503
0.9436928
0.7164827
0.7299301
0.7439092
0.7584547
0.7736058
0.789366
0.8057523
0.8228419
0.8406933
0.8593716
0.8795974
0.9005504
0.9220521
0.9414939
0.7030283
0.7159908
0.7294545
0.7434506
0.7580141
0.7731455
0.7888576
0.8052198
0.8222831
0.8401053
0.8593639
0.8793244
0.9001044
0.9213757
0.9403917
0.9475346
0.9302851
0.952256
0.9108685
0.9331013
0.9558287
0.8912975
0.9125294
0.9349973
0.9582118
0.8720167
0.8922202
0.9135793
0.9362177
0.959745
0.8532034
0.8724451
0.8927331
0.9141906
0.9369563
0.9606112
0.8349051
0.8532573
0.8725577
0.8929113
0.914445
0.9372355
0.9608852
0.8170925
0.8346203
0.8530111
0.8723535
0.8927545
0.9142798
0.9370131
0.9606209
0.799681
0.816438
0.833985
0.8523961
0.8717609
0.8921289
0.9135751
0.9362442
0.9596925
0.7825355
0.7985637
0.8153179
0.832861
0.8512676
0.8705723
0.8908356
0.9121968
0.9347307
0.9578277
0.7655107
0.7808412
0.7968406
0.8135625
0.8310694
0.8493838
0.8685513
0.8886952
0.9099064
0.9322005
0.9556943
0.7486541
0.7633163
0.7785954
0.7945371
0.8111942
0.8285809
0.8467303
0.8657465
0.8857127
0.9066991
0.9294699
0.951769
0.7325757
0.7466218
0.7612403
0.7764709
0.7923588
0.8089123
0.8261555
0.8441778
0.8630494
0.8828465
0.9043465
0.9265122
0.9475603
0.7175297
0.7310168
0.7450386
0.7596301
0.774831
0.790645
0.8070899
0.8242438
0.8421668
0.860926
0.8812539
0.9023412
0.9240641
0.9440822
0.7035363
0.7165175
0.7300013
0.7440189
0.7586056
0.7737619
0.7895008
0.8058924
0.8229879
0.8408458
0.8601475
0.8801591
0.9010046
0.9223823
0.9416759
0.690539
0.7030617
0.7160591
0.7295597
0.743595
0.7581633
0.7732741
0.7889909
0.8053584
0.8224273
0.8408364
0.8598882
0.8797433
0.9004041
0.9215382
0.9430447
0.9266012
0.9476141
0.9083788
0.9303587
0.9524209
0.8898057
0.9109359
0.9332472
0.9560775
0.8712028
0.8913595
0.9126612
0.9352124
0.9585412
0.8528511
0.8720742
0.8923412
0.9137731
0.9365001
0.9600719
0.8349051
0.8532573
0.8725577
0.8929113
0.914445
0.9372355
0.9608852
0.8174131
0.834956
0.8533631
0.8727238
0.8931456
0.9146967
0.9374689
0.9611603
0.8003538
0.8171408
0.8347205
0.8531676
0.8725727
0.892987
0.9144906
0.9372476
0.9608975
0.7836509
0.7997272
0.8165335
0.8341336
0.8526032
0.8719789
0.8923243
0.9137877
0.9364806
0.9599713
0.7671794
0.7825798
0.798655
0.8154596
0.8330577
0.8514736
0.8707558
0.8910331
0.9124118
0.9349695
0.9591859
0.7508027
0.7655529
0.780928
0.7969751
0.8137485
0.8312634
0.8495556
0.8687347
0.8888923
0.9101205
0.9333475
0.9570807
0.7345686
0.7486933
0.7633968
0.7787198
0.7947087
0.8113725
0.8287369
0.8468947
0.8659204
0.8858979
0.9076638
0.9303295
0.9527296
0.7190668
0.7326126
0.7466974
0.7613569
0.7766313
0.7925251
0.8090568
0.8263064
0.8443359
0.8632158
0.8837006
0.9050078
0.9270945
0.9480448
0.704546
0.7175647
0.7310885
0.7451491
0.759782
0.7749881
0.7907809
0.8072311
0.8243911
0.8423208
0.8617104
0.8818295
0.902814
0.9244139
0.9442807
0.6910294
0.7035697
0.716586
0.7301068
0.7441638
0.7587552
0.773891
0.7896347
0.8060315
0.8231326
0.84158
0.8606759
0.880583
0.9013091
0.922548
0.6784655
0.6905712
0.7031275
0.7161603
0.7296985
0.7437383
0.7582866
0.7734018
0.7891232
0.8054958
0.823122
0.8413325
0.8602825
0.8800232
0.9005542
0.9394486
0.9230489
0.9431204
0.9050409
0.9266716
0.9477691
0.8874777
0.9084455
0.9305025
0.9526634
0.8697935
0.8898679
0.9110678
0.933462
0.9564041
0.8520783
0.8712605
0.8914809
0.9128554
0.9354951
0.958867
0.8345693
0.8529051
0.872187
0.8925197
0.9140277
0.9367795
0.9603457
0.8174131
0.834956
0.8533631
0.8727238
0.8931456
0.9146967
0.9374689
0.9611603
0.8006606
0.8174614
0.8350559
0.8535193
0.8729425
0.8933777
0.914907
0.9377029
0.9614367
0.7842958
0.8003998
0.8172359
0.8348685
0.8533737
0.8727897
0.8931814
0.9147022
0.9374829
0.9611755
0.7682502
0.783695
0.7998181
0.8166746
0.8343294
0.8528083
0.8721614
0.8925206
0.9140014
0.9367181
0.9613273
0.7524067
0.7672218
0.7826669
0.79879
0.8156465
0.8332527
0.8516464
0.8709405
0.8912319
0.9126282
0.9361331
0.9605875
0.7366363
0.7508431
0.7656359
0.7810564
0.7971523
0.8139329
0.8314261
0.8497285
0.8689193
0.8890907
0.9111645
0.9344908
0.9587878
0.7209867
0.7346062
0.7487704
0.7635159
0.7788838
0.7948789
0.811521
0.8288928
0.8470588
0.8660941
0.8867944
0.9084476
0.9311309
0.9535767
0.7060284
0.7191022
0.7326851
0.7468092
0.7615106
0.7767904
0.7926629
0.8092003
0.8264563
0.844493
0.8640181
0.8843161
0.905541
0.9275139
0.9483069
0.692004
0.7045797
0.7176336
0.7311947
0.7452949
0.7599327
0.7751182
0.7909158
0.8073714
0.8245373
0.8430626
0.8622515
0.8822703
0.9031357
0.9245915
0.6789392
0.6910616
0.7036357
0.7166875
0.730246
0.7443074
0.758879
0.774019
0.7897674
0.8061694
0.8238301
0.8420798
0.8610747
0.8808672
0.901462
0.6667869
0.6784965
0.6906346
0.7032249
0.7162939
0.7298362
0.7438567
0.758409
0.7735284
0.7892545
0.8061578
0.8235932
0.8417054
0.8605458
0.8801633
0.9370022
0.9202063
0.939522
0.9018278
0.923117
0.9432681
0.8843584
0.9051051
0.9268092
0.947997
0.8675954
0.8875393
0.9085761
0.9307143
0.9529819
0.8507406
0.8698514
0.8899896
0.9112622
0.9337442
0.9567272
0.8338332
0.8521325
0.8713738
0.89166
0.9131107
0.9357747
0.9591404
0.8170925
0.8346203
0.8530111
0.8723535
0.8927545
0.9142798
0.9370131
0.9606209
0.8006606
0.8174614
0.8350559
0.8535193
0.8729425
0.8933777
0.914907
0.9377029
0.9614367
0.78459
0.8007065
0.8175562
0.8352035
0.8537249
0.8731591
0.8935716
0.915118
0.9379376
0.9617143
0.7688693
0.7843397
0.8004902
0.8173763
0.8350634
0.853578
0.8729713
0.8933766
0.9149145
0.937719
0.9625257
0.753436
0.7682924
0.7837817
0.7999524
0.8168606
0.8345235
0.8529801
0.8723449
0.8927179
0.9142161
0.9378735
0.9626637
0.7381799
0.7524472
0.7673051
0.7827958
0.798968
0.8158318
0.8334163
0.8518204
0.8711265
0.891432
0.9136835
0.9372808
0.9622492
0.7229787
0.7366751
0.7509227
0.7657588
0.7812258
0.7973282
0.8140876
0.8315899
0.8499025
0.8691051
0.8900589
0.9122016
0.9358499
0.9609428
0.7078797
0.7210229
0.7346802
0.7488846
0.7636729
0.7790465
0.7950205
0.8116692
0.8290483
0.8472227
0.8669353
0.8875224
0.9091765
0.9318198
0.9541567
0.6934347
0.7060624
0.7191719
0.7327925
0.7469566
0.761663
0.7769223
0.7928
0.8093431
0.8266054
0.8452512
0.8645962
0.8848123
0.9059246
0.9277384
0.6798806
0.6920364
0.704646
0.7177358
0.7313348
0.7454395
0.7600573
0.7752472
0.7910497
0.8075106
0.8252417
0.8435742
0.8626659
0.8825701
0.903299
0.6672447
0.6789703
0.6911252
0.7037334
0.7168215
0.7303841
0.7444263
0.7590018
0.7741461
0.7898992
0.806834
0.8243048
0.842457
0.8613421
0.8810099
0.6554838
0.6668168
0.6785577
0.6907286
0.7033536
0.7164265
0.7299501
0.7439743
0.7585305
0.7736541
0.789887
0.8066068
0.8239475
0.8419546
0.8606777
0.9357748
0.9182717
0.9370742
0.8992599
0.9202729
0.9396651
0.8813559
0.9018901
0.92325
0.9434852
0.8646511
0.8844179
0.9052307
0.9270118
0.9482961
0.848655
0.867653
0.8876601
0.9087685
0.9309925
0.9532969
0.8325593
0.8507951
0.869965
0.8901691
0.9115178
0.9340234
0.9569988
0.8163895
0.8338844
0.8522389
0.8715409
0.8918956
0.9133635
0.9360089
0.9594155
0.8003538
0.8171408
0.8347205
0.8531676
0.8725727
0.892987
0.9144906
0.9372476
0.9608975
0.78459
0.8007065
0.8175562
0.8352035
0.8537249
0.8731591
0.8935716
0.915118
0.9379376
0.9617143
0.7691518
0.7846338
0.8007967
0.8176963
0.835398
0.8539287
0.8733402
0.8937661
0.9153296
0.938173
0.9630615
0.7540311
0.7689113
0.784426
0.8006239
0.8175614
0.8352566
0.8537488
0.8731535
0.8935724
0.9151275
0.9388658
0.9638135
0.7391704
0.7534763
0.7683753
0.78391
0.8001296
0.8170449
0.8346861
0.8531527
0.8725292
0.8929161
0.9152613
0.9389664
0.9641811
0.7244656
0.7382187
0.7525271
0.7674285
0.7829659
0.7991446
0.8159872
0.833581
0.8519956
0.8713137
0.8924087
0.9147222
0.9385982
0.9641868
0.7098004
0.7230159
0.7367514
0.7510405
0.7659209
0.7813938
0.7974757
0.8142433
0.8317547
0.8500777
0.8700123
0.8910209
0.9134318
0.9375216
0.9637881
0.6952214
0.7079145
0.7210941
0.7347899
0.7490353
0.7638288
0.7791819
0.7951619
0.8118172
0.8292037
0.8480168
0.8676183
0.8881996
0.9098018
0.9322814
0.6812624
0.6934675
0.7061295
0.7192752
0.7329342
0.747103
0.7617894
0.7770534
0.7929362
0.809485
0.8273249
0.8457972
0.8650622
0.8851692
0.9061298
0.6681546
0.6799118
0.6921004
0.7047444
0.7178706
0.7314738
0.7455591
0.760181
0.7753754
0.7911826
0.8081816
0.8257273
0.8439659
0.8629477
0.8827223
0.6559266
0.6672747
0.6790316
0.6912194
0.7038625
0.7169545
0.7304984
0.7445442
0.7591236
0.7742722
0.7905341
0.8072862
0.824663
0.8427098
0.8614763
0.6445387
0.6555127
0.6668758
0.6786484
0.6908527
0.7034814
0.7165361
0.7300631
0.7440909
0.7586509
0.7742596
0.7903159
0.8069444
0.8241841
0.8420794
0.9173004
0.9358461
0.897514
0.9183374
0.9372147
0.8789562
0.8993211
0.9204031
0.9398756
0.8618165
0.8814138
0.9020121
0.9234458
0.9437703
0.8458615
0.8647067
0.8845343
0.9054157
0.9272779
0.948592
0.8305735
0.8487092
0.8677659
0.8878382
0.9090216
0.9312679
0.9535617
0.8151732
0.8326107
0.8509019
0.8701328
0.8904054
0.9117709
0.9342577
0.9572728
0.799681
0.816438
0.833985
0.8523961
0.8717609
0.8921289
0.9135751
0.9362442
0.9596925
0.7842958
0.8003998
0.8172359
0.8348685
0.8533737
0.8727897
0.8931814
0.9147022
0.9374829
0.9611755
0.7691518
0.7846338
0.8007967
0.8176963
0.835398
0.8539287
0.8733402
0.8937661
0.9153296
0.938173
0.9630615
0.7543026
0.7691936
0.7847198
0.8009301
0.8178809
0.8355907
0.854099
0.8735218
0.8939612
0.9155418
0.9393156
0.9643269
0.7397431
0.7540712
0.7689938
0.7845536
0.8008002
0.8177449
0.8354182
0.8539203
0.8733364
0.8937689
0.9161633
0.9399187
0.9652369
0.7254198
0.7392091
0.7535557
0.768498
0.7840792
0.8003053
0.8171994
0.8348495
0.8533263
0.8727145
0.893882
0.9162489
0.9401692
0.9658709
0.7112341
0.724503
0.7382954
0.7526453
0.7675912
0.7831346
0.7992928
0.8161438
0.8337469
0.8521719
0.8722276
0.8933708
0.9159136
0.9400972
0.9664056
0.6970749
0.7098362
0.7230893
0.7368646
0.751196
0.7660819
0.7815348
0.7976242
0.8144001
0.8319207
0.8509334
0.8709145
0.892163
0.9149426
0.9396913
0.9684827
0.6829881
0.6952549
0.707983
0.7211995
0.7349346
0.7491847
0.7639584
0.7793171
0.7953031
0.811965
0.8299568
0.8486616
0.8682538
0.8887806
0.9102202
0.6694902
0.6812941
0.6935321
0.7062289
0.7194115
0.7330748
0.7472242
0.761915
0.7771837
0.7930717
0.8101701
0.827843
0.8462375
0.8653975
0.8853602
0.6568067
0.6681848
0.6799735
0.6921951
0.7048742
0.7180043
0.7315888
0.7456779
0.7603038
0.7755025
0.7918234
0.8086441
0.8260992
0.8442323
0.8630908
0.6449672
0.6559556
0.6673339
0.6791225
0.6913438
0.7039906
0.7170644
0.7306117
0.7446612
0.7592445
0.7748799
0.790966
0.8076275
0.8249031
0.8428368
0.633935
0.6445666
0.6555698
0.6669634
0.6787681
0.6909759
0.7035871
0.7166449
0.7301753
0.7442065
0.7592316
0.7746701
0.7906383
0.8071698
0.8243026
0.8966376
0.9173657
0.9359853
0.8773243
0.8975745
0.9184659
0.9374213
0.8595503
0.8790131
0.8994408
0.9205947
0.940152
0.8431717
0.8618707
0.8815271
0.9021918
0.9237031
0.9440522
0.8279137
0.8459139
0.8648157
0.884706
0.905659
0.9275412
0.9488385
0.8132774
0.8306247
0.8488154
0.8679325
0.8880726
0.9092722
0.9314989
0.9538288
0.7985172
0.815222
0.8327117
0.8510598
0.8703536
0.8906393
0.9119831
0.9344934
0.9575491
0.7836509
0.7997272
0.8165335
0.8341336
0.8526032
0.8719789
0.8923243
0.9137877
0.9364806
0.9599713
0.7688693
0.7843397
0.8004902
0.8173763
0.8350634
0.853578
0.8729713
0.8933766
0.9149145
0.937719
0.9625257
0.7543026
0.7691936
0.7847198
0.8009301
0.8178809
0.8355907
0.854099
0.8735218
0.8939612
0.9155418
0.9393156
0.9643269
0.7400044
0.7543426
0.7692759
0.7848472
0.801106
0.8180639
0.8357518
0.8542699
0.8737039
0.8941569
0.916573
0.9403502
0.9657087
0.7259715
0.7397816
0.7541503
0.7691159
0.784722
0.800975
0.8178984
0.8355804
0.8540924
0.8735199
0.8947252
0.9171138
0.9410476
0.9667872
0.7121541
0.7254569
0.7392853
0.7536733
0.7686599
0.784247
0.8004524
0.8173546
0.8350137
0.8535007
0.8736175
0.8947956
0.9173359
0.941475
0.9677152
0.6984584
0.71127
0.7245766
0.7384089
0.7528014
0.7677527
0.7832762
0.799442
0.8163013
0.8339138
0.8530332
0.873129
0.8944757
0.9172685
0.9417809
0.9693137
0.684778
0.6971094
0.7099068
0.723198
0.7370139
0.7513503
0.7662168
0.7816767
0.7977736
0.8145579
0.8327317
0.851785
0.8719865
0.8935664
0.9169016
0.9432534
0.9710162
0.6711579
0.6830203
0.6953209
0.7080845
0.7213387
0.7350782
0.7493092
0.7640879
0.7794521
0.7954441
0.8126817
0.8305683
0.8492619
0.8687993
0.8891694
0.6580983
0.6695207
0.6813564
0.6936279
0.7063602
0.7195468
0.7331913
0.7473448
0.7620398
0.7773132
0.7937256
0.8106633
0.8282608
0.8465543
0.8655769
0.6458188
0.6568358
0.6682443
0.680065
0.6923203
0.7050031
0.718115
0.731703
0.7457958
0.7604257
0.7761158
0.792265
0.8089982
0.8263521
0.8443676
0.6343499
0.6449952
0.6560128
0.6674217
0.6792426
0.6914674
0.7040966
0.7171735
0.7307242
0.7447772
0.7598272
0.7752933
0.7912919
0.8078562
0.8250237
0.6236575
0.633962
0.6446217
0.6556543
0.667079
0.6788871
0.6910778
0.7036919
0.7167528
0.7302865
0.7447642
0.7596252
0.7749787
0.7908536
0.8072827
0.876505
0.8966978
0.9174933
0.9361901
0.8580088
0.8773807
0.8976929
0.918655
0.9376925
0.8410206
0.8596037
0.8791246
0.8996173
0.9208464
0.9404253
0.8253522
0.8432228
0.861977
0.8816943
0.902428
0.9239576
0.9442858
0.8107382
0.8279633
0.8460166
0.8649765
0.8849318
0.9058998
0.9277603
0.9490848
0.7967035
0.813326
0.8307252
0.8489723
0.8681518
0.8883047
0.9094823
0.9317313
0.9540981
0.7825355
0.7985637
0.8153179
0.832861
0.8512676
0.8705723
0.8908356
0.9121968
0.9347307
0.9578277
0.7682502
0.783695
0.7998181
0.8166746
0.8343294
0.8528083
0.8721614
0.8925206
0.9140014
0.9367181
0.9613273
0.7540311
0.7689113
0.784426
0.8006239
0.8175614
0.8352566
0.8537488
0.8731535
0.8935724
0.9151275
0.9388658
0.9638135
0.7400044
0.7543426
0.7692759
0.7848472
0.801106
0.8180639
0.8357518
0.8542699
0.8737039
0.8941569
0.916573
0.9403502
0.9657087
0.7262232
0.7400428
0.7544215
0.7693977
0.7850151
0.8012803
0.818217
0.8359135
0.8544413
0.8738866
0.8951085
0.9175064
0.9414465
0.9671999
0.7126861
0.7260085
0.7398574
0.7542673
0.769277
0.7848889
0.8011213
0.8180525
0.8357432
0.8542651
0.8744136
0.8956037
0.9181334
0.9422454
0.9684509
0.6993461
0.7121898
0.7255301
0.7393981
0.7538285
0.7688205
0.7843875
0.8006003
0.8175106
0.8351788
0.8543512
0.8744726
0.8958024
0.9185162
0.9428694
0.9700442
0.686114
0.6984929
0.7113408
0.7246857
0.7385587
0.7529562
0.7678883
0.7834187
0.7995922
0.81646
0.8347296
0.8538834
0.8741652
0.8957333
0.9187904
0.943956
0.9713689
0.6728878
0.6848113
0.6971774
0.7100115
0.7233416
0.7371621
0.7514798
0.7663527
0.7818195
0.7979241
0.8153292
0.8335393
0.8527977
0.8733047
0.8953868
0.9201206
0.945331
0.9728712
0.6597111
0.671189
0.6830839
0.6954186
0.7082185
0.7214768
0.7351978
0.7494334
0.7642173
0.7795869
0.7961279
0.8132636
0.8311378
0.8497773
0.8691645
0.6470687
0.6581278
0.6695809
0.6814488
0.6937545
0.7064905
0.7196589
0.7333072
0.7474646
0.762164
0.7779388
0.7941964
0.811061
0.8285614
0.8467238
0.6351744
0.6458469
0.6568933
0.6683326
0.6801857
0.6924446
0.7051097
0.7182249
0.7318163
0.7459128
0.7610136
0.7765383
0.7926031
0.8092391
0.8264805
0.6240594
0.634377
0.6450505
0.6560976
0.6675376
0.6793618
0.6915696
0.7042017
0.7172818
0.7308358
0.7453368
0.7602235
0.7756051
0.7915103
0.807971
0.6136919
0.6236836
0.6340153
0.6447035
0.6557661
0.6671939
0.6789854
0.6911789
0.7037959
0.7168599
0.7308227
0.7451421
0.7599211
0.7751848
0.7909615
0.8572346
0.8765611
0.8968156
0.9176812
0.936459
0.839557
0.8580617
0.8774911
0.8978674
0.9189034
0.9379608
0.8233033
0.841071
0.8597084
0.879289
0.8998492
0.9210954
0.9406515
0.8082924
0.8254006
0.843323
0.8621338
0.8819141
0.9026617
0.9241684
0.9445182
0.7942741
0.8107853
0.8280605
0.8461682
0.8651882
0.8851554
0.9061001
0.927979
0.9493311
0.7807971
0.7967497
0.8134214
0.8308737
0.849179
0.8683691
0.8884993
0.9096937
0.9319652
0.9543698
0.7671794
0.7825798
0.798655
0.8154596
0.8330577
0.8514736
0.8707558
0.8910331
0.9124118
0.9349695
0.9591859
0.753436
0.7682924
0.7837817
0.7999524
0.8168606
0.8345235
0.8529801
0.8723449
0.8927179
0.9142161
0.9378735
0.9626637
0.7397431
0.7540712
0.7689938
0.7845536
0.8008002
0.8177449
0.8354182
0.8539203
0.8733364
0.8937689
0.9161633
0.9399187
0.9652369
0.7262232
0.7400428
0.7544215
0.7693977
0.7850151
0.8012803
0.818217
0.8359135
0.8544413
0.8738866
0.8951085
0.9175064
0.9414465
0.9671999
0.7129288
0.7262601
0.7401184
0.7545382
0.7695584
0.7851816
0.8014261
0.8183705
0.8360756
0.8546132
0.8747756
0.8959708
0.9184964
0.9425987
0.9687904
0.6998595
0.7127216
0.7260813
0.7399697
0.7544217
0.7694368
0.7850286
0.8012681
0.8182071
0.8359067
0.8551064
0.8752352
0.8965474
0.9192161
0.9435014
0.9705358
0.6869714
0.6993805
0.7122602
0.7256386
0.7395471
0.7539825
0.768955
0.7845288
0.800749
0.8176674
0.8359839
0.8551571
0.875416
0.8968969
0.9197773
0.9445973
0.9717787
0.6741788
0.6861474
0.6985611
0.7114458
0.7248297
0.7387074
0.7530862
0.7680247
0.7835622
0.7997434
0.8172356
0.8355354
0.8548617
0.8753456
0.8971467
0.9207581
0.9456645
0.9730468
0.6613838
0.6729198
0.6848768
0.6972782
0.7101497
0.7234842
0.7372865
0.7516101
0.7664896
0.7819634
0.7986598
0.8160978
0.8345003
0.8540436
0.8750151
0.8983809
0.9220002
0.946981
0.9742829
0.6486292
0.6597411
0.6712504
0.6831782
0.6955478
0.7083515
0.7215918
0.7353172
0.7495575
0.7643464
0.7802408
0.7966832
0.8138057
0.8316269
0.8501224
0.6363844
0.6470971
0.6581859
0.6696701
0.6815709
0.6938801
0.7065985
0.7197704
0.7334224
0.7475837
0.7627635
0.7783891
0.794576
0.8113472
0.8287223
0.6248581
0.6352016
0.6459025
0.6569786
0.6684492
0.6803057
0.6925474
0.7052156
0.718334
0.7319288
0.7464773
0.7614186
0.7768618
0.7928331
0.8093614
0.6140814
0.6240856
0.6344304
0.6451324
0.6562097
0.6676528
0.6794604
0.6916709
0.704306
0.7173892
0.7313739
0.7457173
0.7605225
0.7758142
0.79162
0.6040251
0.6137172
0.6237352
0.6340944
0.6448116
0.6558772
0.6672889
0.679083
0.6912792
0.703899
0.7173761
0.7311861
0.7454262
0.7601187
0.775288
0.8388217
0.8572873
0.876671
0.8969891
0.9179282
0.936725
0.821909
0.839607
0.8581654
0.8776538
0.8980967
0.9191492
0.9381827
0.8063357
0.823351
0.8411698
0.8598628
0.8795052
0.9000787
0.9213015
0.940876
0.7919338
0.8083384
0.8254956
0.843471
0.8623401
0.8821317
0.9028554
0.924378
0.9447493
0.7784686
0.7943189
0.8108777
0.8282041
0.8463679
0.8653979
0.8853415
0.9063001
0.9281974
0.9495772
0.7655107
0.7808412
0.7968406
0.8135625
0.8310694
0.8493838
0.8685513
0.8886952
0.9099064
0.9322005
0.9556943
0.7524067
0.7672218
0.7826669
0.79879
0.8156465
0.8332527
0.8516464
0.8709405
0.8912319
0.9126282
0.9361331
0.9605875
0.7391704
0.7534763
0.7683753
0.78391
0.8001296
0.8170449
0.8346861
0.8531527
0.8725292
0.8929161
0.9152613
0.9389664
0.9641811
0.7259715
0.7397816
0.7541503
0.7691159
0.784722
0.800975
0.8178984
0.8355804
0.8540924
0.8735199
0.8947252
0.9171138
0.9410476
0.9667872
0.7129288
0.7262601
0.7401184
0.7545382
0.7695584
0.7851816
0.8014261
0.8183705
0.8360756
0.8546132
0.8747756
0.8959708
0.9184964
0.9425987
0.9687904
0.7000937
0.7129642
0.7263327
0.7402304
0.7546922
0.7697177
0.7853208
0.8015724
0.8185245
0.8362382
0.85545
0.8755819
0.8968866
0.9195378
0.943799
0.9707791
0.6874671
0.6998937
0.7127917
0.7261892
0.7401179
0.7545749
0.7695705
0.7851688
0.8014154
0.8183623
0.8367029
0.8558805
0.8761189
0.8975506
0.9203524
0.9450429
0.9720958
0.6750073
0.6870045
0.6994483
0.7123646
0.7257818
0.739695
0.7541115
0.7690903
0.7846708
0.8008984
0.8184326
0.8367475
0.8560472
0.8764425
0.8980673
0.921342
0.94606
0.973282
0.6626322
0.6742109
0.6862131
0.6986622
0.7115844
0.7249727
0.7388322
0.7532171
0.7681621
0.7837067
0.8004829
0.8180021
0.8364633
0.8559768
0.876673
0.8989757
0.9223072
0.9471795
0.9743862
0.6502476
0.6614147
0.672983
0.684974
0.6974114
0.710287
0.7236038
0.7374117
0.7517414
0.7666273
0.7826667
0.7993932
0.8170128
0.8356832
0.855661
0.8778307
0.9001268
0.9234989
0.9483267
0.9753674
0.6378952
0.6486582
0.6598004
0.6713414
0.6833028
0.695676
0.7084623
0.7217067
0.7354364
0.7496814
0.7649729
0.7807719
0.7972006
0.8142714
0.8319545
0.6260301
0.6364119
0.6471532
0.658272
0.6697879
0.6816921
0.6939842
0.7067059
0.7198812
0.7335369
0.7481592
0.7631951
0.7787523
0.7948493
0.8115004
0.6148554
0.6248844
0.6352553
0.645985
0.6570913
0.668565
0.6804049
0.6926495
0.7053206
0.7184422
0.7324714
0.746866
0.7617287
0.7770818
0.7929499
0.6044027
0.6141068
0.6241373
0.6345097
0.6452408
0.656321
0.667748
0.6795583
0.6917715
0.7044095
0.7179071
0.7317397
0.7460044
0.7607229
0.7759191
0.5946446
0.6040496
0.6137671
0.6238117
0.634199
0.644919
0.655969
0.6673831
0.6791798
0.6913787
0.7043965
0.7177259
0.7314592
0.745616
0.7602177
0.8212083
0.8388715
0.8573905
0.876833
0.8972173
0.9181724
0.936945
0.8050039
0.8219563
0.839705
0.8583185
0.877868
0.8983238
0.9193525
0.9384029
0.7900611
0.8063811
0.8234447
0.8413157
0.860066
0.8797193
0.9002686
0.921506
0.9410989
0.7762251
0.7919776
0.8084287
0.8256359
0.8436658
0.8625444
0.882312
0.9030479
0.9245864
0.9449792
0.7632754
0.7785113
0.794407
0.8110142
0.8283934
0.8465657
0.8655723
0.8855272
0.9064998
0.9284155
0.9507675
0.7508027
0.7655529
0.780928
0.7969751
0.8137485
0.8312634
0.8495556
0.8687347
0.8888923
0.9101205
0.9333475
0.9570807
0.7381799
0.7524472
0.7673051
0.7827958
0.798968
0.8158318
0.8334163
0.8518204
0.8711265
0.891432
0.9136835
0.9372808
0.9622492
0.7254198
0.7392091
0.7535557
0.768498
0.7840792
0.8003053
0.8171994
0.8348495
0.8533263
0.8727145
0.893882
0.9162489
0.9401692
0.9658709
0.7126861
0.7260085
0.7398574
0.7542673
0.769277
0.7848889
0.8011213
0.8180525
0.8357432
0.8542651
0.8744136
0.8956037
0.9181334
0.9422454
0.9684509
0.7000937
0.7129642
0.7263327
0.7402304
0.7546922
0.7697177
0.7853208
0.8015724
0.8185245
0.8362382
0.85545
0.8755819
0.8968866
0.9195378
0.943799
0.9707791
0.6876933
0.7001278
0.7130341
0.7264404
0.7403783
0.754845
0.769851
0.7854605
0.8017191
0.8186789
0.8370302
0.8562095
0.8764393
0.8978514
0.9206239
0.945268
0.9722634
0.6754863
0.6875001
0.6999612
0.7128955
0.7263317
0.7402651
0.7547031
0.7697047
0.7853096
0.8015633
0.8191189
0.8374361
0.8567139
0.8770593
0.8986047
0.9217492
0.9463729
0.9734815
0.6634333
0.6750392
0.6870699
0.6995489
0.7125024
0.725924
0.7398189
0.7542412
0.7692262
0.7848136
0.8016278
0.8191586
0.8375913
0.8570164
0.877541
0.8995209
0.922672
0.9474427
0.9745317
0.6514555
0.6626632
0.6742743
0.6863106
0.6987958
0.7117221
0.7250927
0.7389579
0.7533488
0.7683005
0.7844134
0.8012141
0.8188853
0.8375216
0.8572314
0.8783917
0.9004151
0.9236862
0.9484708
0.9754383
0.6394619
0.6502775
0.6614758
0.6730768
0.6851025
0.6975437
0.7104021
0.7237242
0.7375378
0.7518735
0.767301
0.7833681
0.8002668
0.8181395
0.8372193
0.8583249
0.8794709
0.9015189
0.9247256
0.9494169
0.9761913
0.6274934
0.6379232
0.6487154
0.6598883
0.6714617
0.6834265
0.6957828
0.7085728
0.7218214
0.7355554
0.7502826
0.7654818
0.7812668
0.7976452
0.8145834
0.6159912
0.6260567
0.6364662
0.6472365
0.6583859
0.669905
0.6817926
0.6940877
0.7068126
0.7199914
0.73409
0.7485734