/*--------------------------------*- C++ -*----------------------------------*\
| =========                 |                                                 |
| \\      /  F ield         | OpenFOAM: The Open Source CFD Toolbox           |
|  \\    /   O peration     | Version:  2306                                  |
|   \\  /    A nd           | Website:  www.openfoam.com                      |
|    \\/     M anipulation  |                                                 |
\*---------------------------------------------------------------------------*/
FoamFile
{
    version     2.0;
    format      ascii;
    arch        "LSB;label=32;scalar=64";
    class       volScalarField;
    location    "1.5";
    object      contErrCp;
}
// * * * * * * * * * * * * * * * * * * * * * * * * * * * * * * * * * * * * * //

dimensions      [1 -1 -3 -1 0 0 0];

internalField   nonuniform List<scalar> 
52000
(
0
0
0
0
0
0
0
0
0
0
0
0
0
0
0
0
0
0
0
0
0
0
0
0
0
0
0
0
0
0
0
0
0
0
0
0
0
0
0
0
0
0
0
0
0
0
0
0
0
0
0
0
0
0
0
0
0
0
0
0
0
0
0
0
0
0
0
0
0
0
0
0
0
0
0
0
0
0
0
0
0
0
0
0
0
0
0
0
0
0
0
0
0
0
0
0
0
0
0
0
0
0
0
0
0
0
0
0
0
0
0
0
0
0
0
0
0
0
0
0
0
0
0
0
0
0
0
0
0
0
0
0
0
0
0
0
0
0
0
0
0
0
0
0
0
0
0
0
0
0
0
0
0
0
0
0
0
0
0
0
0
0
0
0
0
0
0
0
0
0
0
0
0
0
0
0
0
0
0
0
0
0
0
0
0
0
0
0
0
0
0
0
0
0
0
0
0
0
0
0
0
0
0
0
0
0
0
0
0
0
0
0
0
0
0
0
0
0
0
0
0
0
0
0
0
0
0
0
0
0
0
0
0
0
0
0
0
0
0
0
0.0002481302
0
0
0
0
0
0
0
0
0
0
0
0
0
0
0
0
0
0
0
0
0
0
0
0
0
0
0
0
0
0
0
0
0
0
0
0
0
0
0
0
0
0
0
0
0
0
0
0
0
0
0
0
0
0
0
0
0
0
0
0
0
0
0
0
0
-0.0001937776
0
0
0
0
0
-0.0005270687
-0.0001159165
0
0
0
0
0
0
0
0
0
0
0
0
0
0
0
0
0
0
0
0
0
0
0
0
0
0
0
0
0
0
0
0
0
0
0
0
0
0
0
0
0
0
0
0
0
0
0
0
0
0
0
0
0
0
0
0
0
0
0
0
0
0
0
0
0
0
0
0
0
0
0.0002669008
0
0
0
0
0
0.0007693416
5.681434e-05
0
0
0
0
0
0.0003290468
7.346351e-05
0.0002297831
0
0
0
0
0
0
0
0
0
0
0
0
0
0
0
0
0
0
0
0
0
0
0
0
0
0
0
0
0
0
0
0
0
0
0
0
0
0
0
0
0
0
0
0
0
0
0
0
0
0
0
0
0
0
0
0
0
0
0
0
0
0
0
0
0
0
0
0
0
0
0
0
0
0
0
-0.0003298256
0
0
0
0
0
0.000344291
-0.0001744011
0
0
0
0
0
-0.0007720439
-4.335928e-05
-0.001068181
0
0
0
0
0
0.0001156359
-0.0005470653
0.0004206022
-0.000356558
0
0
0
0
0
0
0
0
0
0
0
0
0
0
0
0
0
0
0
0
0
0
0
0
0
0
0
0
0
0
0
0
0
0
0
0
0
0
0
0
0
0
0
0
0
0
0
0
0
0
0
0
0
0
0
0
0
0
0
0
0
0
0
0
0
0
0
0
0
0
0
0
0
0
0
0
0
0
0
0
0.0006394732
0
0
0
0
0
-0.0005823629
0.00137766
0
0
0
0
0
0.0002270141
-0.0005370874
-0.0003299118
0
0
0
0
0
-0.0004789765
0.001207324
-0.0001500034
0.002159659
0
0
0
0
0
0.0001256373
5.550991e-05
0.0005744532
-0.0002496826
0.0001609001
0
0
0
0
0
0
0
0
0
0
0
0
0
0
0
0
0
0
0
0
0
0
0
0
0
0
0
0
0
0
0
0
0
0
0
0
0
0
0
0
0
0
0
0
0
0
0
0
0
0
0
0
0
0
0
0
0
0
0
0
0
0
0
0
0
0
0
0
0
0
0
0
0
0
0
0
0
0
0
0
0
0
0
0
0
-0.0004887772
0
0
0
0
0
0.0005096298
-0.00186398
0
0
0
0
0
-0.0002162978
0.0004249208
-0.000956364
0
0
0
0
0
0.0003328099
-0.0003879223
0.0004867339
-0.000789884
0
0
0
0
0
0.0004844819
-3.251141e-05
-0.001407011
0.001295822
-0.0001898379
0
0
0
0
0
-8.332769e-05
-0.0004380385
0.0005630927
-0.000263931
0.0003182763
-0.0001718306
0
0
0
0
0
0
0
0
0
0
0
0
0
0
0
0
0
0
0
0
0
0
0
0
0
0
0
0
0
0
0
0
0
0
0
0
0
0
0
0
0
0
0
0
0
0
0
0
0
0
0
0
0
0
0
0
0
0
0
0
0
0
0
0
0
0
0
0
0
-1.061211e-06
0
0
0
0
0
0
0
0
0
0
0
0
0
0
0
0
0
0
0
0
0.0004386327
0
0
0
0
0
-0.000347589
0.000215983
0
0
0
0
0
0.0005798725
0.0005228087
0.0007945328
0
0
0
0
0
6.384808e-05
0.00149214
0.0005191436
0.002457491
0
0
0
0
0
-0.0003000088
0.0005405899
0.0006204179
-0.003126293
0.0005269375
0
0
0
0
0
-0.0004612697
-0.0004911413
-0.0009555049
0.0001986021
-0.002274373
-0.000349068
0
0
0
0
0
-9.495478e-05
0.0004661811
0.0003305864
0.0002436805
0.0009724244
-0.0002907808
-0.0004352713
0
0
0
0
0
0
0
0
0
0
0
0
0
0
0
0
0
0
0
0
0
0
0
0
0
0
0
0
0
0
0
0
0
0
0
0
0
0
0
0
0
0
0
0
0
0
0
0
0
0
0
0
0
0
0
0
0
2.961674e-06
0
0
0
0
0
0
0
0
0
0
0
0
0
0
0
-4.135378e-07
-4.460306e-06
0
0
0
0
0
0
0
0
0
0
0
0
0
0
0
0
0
0
0
0
-0.0005498966
0
0
0
0
0
0.0003577173
-0.0002185197
0
0
0
0
0
-0.0005127953
0.000693251
-8.938873e-05
0
0
0
0
0
-0.0001283946
-0.001214238
-0.0003305482
0.0004485854
0
0
0
0
0
-0.0003386234
-0.001404976
0.0004448814
0.0002423593
-0.001529058
0
0
0
0
0
0.0003901129
0.001020573
-6.137928e-05
-0.0002266483
0.00264069
-0.0006123093
0
0
0
0
0
0.0003795295
-0.0006367686
-0.0006419044
0.0007626237
-0.0001295997
0.001257893
0.0007241681
0
0
0
0
0
5.251531e-06
0.0003547425
0.0002762911
4.187719e-05
9.193034e-05
0.0001558928
0.0004415102
0.0002170207
0
0
0
0
0
0
0
0
0
0
0
0
0
0
0
0
0
0
0
0
0
0
0
0
0
0
0
0
0
0
0
0
0
0
0
0
0
0
0
0
0
0
0
0
9.273446e-08
0
0
0
0
0
0
0
0
0
0
0
0
0
0
0
-1.385971e-06
-1.44471e-06
0
0
0
0
0
0
0
0
0
0
0
0
0
0
0
-1.135445e-07
-9.846258e-07
-2.216467e-06
0
0
0
0
0
0
0
0
0
0
0
0
0
0
0
0
0
0
0
0
7.769532e-05
0
0
0
0
0
0.0006185827
0.0009879635
0
0
0
0
0
-0.0002313253
-0.001433828
-0.001153832
0
0
0
0
0
-0.000362818
0.0004558054
0.0008616738
-0.0005161195
0
0
0
0
0
-0.0003912695
0.0002521956
-0.0009533442
0.0002867495
0.0005985488
0
0
0
0
0
-0.000864591
0.001090482
-0.0002688588
-0.0007325355
-0.0003811454
-2.613595e-05
0
0
0
0
0
0.0002463537
0.0003734755
-0.0006734788
0.0006428712
-0.0004885427
0.0001272454
-0.000308107
0
0
0
0
0
-0.0002206544
-0.0007045175
-1.322944e-05
0.0004743513
-0.001769554
-0.0008953777
-0.001163842
0.0003843242
0
0
0
0
0
-8.263169e-05
-0.0006911122
0.000231377
-0.0005104462
-3.09618e-06
0.0003636818
0.0001073907
-0.0003474206
3.167934e-06
0
0
0
0
0
0
0
0
0
0
0
0
0
0
0
0
0
0
0
0
0
0
0
0
0
0
0
0
0
0
-2.613234e-06
0
0
0
0
0
0
0
0
0
0
0
0
0
0
0
6.85345e-08
-7.136427e-06
0
0
0
0
0
0
0
0
0
0
0
0
0
0
0
-1.087788e-06
-4.9901e-06
-4.197621e-06
0
0
0
0
0
0
0
0
0
0
0
0
0
0
0
1.363167e-06
-1.594143e-06
6.064079e-07
2.455707e-06
0
0
0
0
0
0
0
0
0
0
0
0
0
0
0
0
0
0
0
0
4.188105e-06
0
0
0
0
0
0.0004630835
-0.000231537
0
0
0
0
0
0.0001754141
0.000237467
0.002173246
0
0
0
0
0
-0.0007666675
-8.467314e-05
0.0007919471
0.001884245
0
0
0
0
0
-0.000104481
0.001751493
-0.0002221559
-9.735109e-05
-0.001757084
0
0
0
0
0
0.0005169606
-0.0008791218
0.0005072074
0.0003113211
0.0007647045
-0.002234024
0
0
0
0
0
-0.0006369263
0.0004331954
-0.0004403478
-0.001274093
0.001913757
9.789716e-05
0.001596639
0
0
0
0
0
0.0001963144
-0.0001720412
-0.0001766489
0.000822396
0.0006398536
0.0006506053
-0.001199411
-0.001269896
0
0
0
0
0
8.939783e-05
0.001121859
-0.000612803
-1.34827e-05
-0.0008055031
-0.0003635589
0.0003288048
0.001336041
0.001496536
0
0
0
0
0
0.0001504486
-0.00031728
0.0002362637
-0.0004714583
6.897761e-05
-0.000221899
-0.0003151952
-0.0009450155
0.0006244572
3.831792e-05
0
0
0
0
0
0
0
0
0
0
0
0
0
0
0
-6.111886e-06
0
0
0
0
0
0
0
0
0
0
0
0
0
0
0
-3.413794e-06
5.952994e-07
0
0
0
0
0
0
0
0
0
0
0
0
0
0
0
-8.352343e-07
-2.641921e-06
-1.189082e-06
0
0
0
0
0
0
0
0
0
0
0
0
0
0
0
7.294609e-07
2.052509e-07
3.667013e-06
4.737001e-08
0
0
0
0
0
0
0
0
0
0
0
0
0
0
0
-1.679236e-06
-2.83724e-06
-1.051151e-06
-3.761156e-06
2.870984e-06
0
0
0
0
0
0
0
0
0
0
0
0
0
0
0
0
0
0
0
0
0
0
0
0
0
-0.0002474157
-0.000438741
0
0
0
0
0
0.0003336739
-0.001082797
-0.001568541
0
0
0
0
0
0.0005262862
-0.0002496025
-0.0003526954
-0.0003128614
0
0
0
0
0
5.669669e-05
0.0001125109
-0.0002596023
-0.001060718
0.001151893
0
0
0
0
0
0.0001749448
0.001402075
-0.00144172
-0.000349988
-0.002684366
0.001820663
0
0
0
0
0
0.0004248559
-0.0004900783
-0.0004386107
0.0006270335
0.0002108811
-0.000355752
0.001693361
0
0
0
0
0
-0.0009238873
-4.64074e-05
-0.0002901556
0.0004738396
0.0002634682
-0.0009807152
0.001258623
0.0001865779
0
0
0
0
0
-0.0002176422
0.0001665731
0.0004454953
0.001625899
-0.0006082602
7.117156e-06
3.71177e-05
0.0001701139
-0.001156842
0
0
0
0
0
0.0003007043
0.0005817159
-0.001059429
0.0008710742
0.0001009699
0.0002592594
-4.568196e-05
0.0007841119
1.532477e-06
-0.001000685
0
0
0
0
0
0.0002066074
-0.0004157085
0.001249942
-6.539187e-05
2.830186e-05
-0.0001723757
0.0003963851
0.0005009742
0.0003490997
-0.0002654963
-1.221429e-05
0
0
0
0
0
0
0
0
0
0
0
0
0
0
0
-1.76712e-06
2.604767e-06
0
0
0
0
0
0
0
0
0
0
0
0
0
0
0
-1.255902e-06
6.807976e-07
-5.101357e-06
0
0
0
0
0
0
0
0
0
0
0
0
0
0
0
-2.111303e-06
-1.269561e-06
-2.777617e-06
9.23636e-07
0
0
0
0
0
0
0
0
0
0
0
0
0
0
0
3.817626e-06
-4.710762e-07
1.144398e-06
-2.402852e-06
1.702377e-06
0
0
0
0
0
0
0
0
0
0
0
0
0
0
0
-1.682761e-06
3.169129e-08
-7.678159e-07
1.375407e-06
3.580736e-06
1.037382e-05
0
0
0
0
0
0
0
0
0
0
0
0
0
0
0
0
0
0
0
0
0
0
0
0
0
0
0
0
0
0
-0.0002121156
0.0006051651
0.0005613353
0
0
0
0
0
0.0002763947
-0.0005053948
0.0008806557
-0.001044123
0
0
0
0
0
0.0002864693
-0.0003763045
0.001140733
0.0005931742
-0.001482973
0
0
0
0
0
-5.689142e-05
-0.001097789
0.0007168728
-5.696381e-05
0.0002682905
-0.001390708
0
0
0
0
0
-0.0002921185
-0.0004545051
-0.001053113
0.0002306905
-4.983033e-05
0.002201396
0.0002136046
0
0
0
0
0
-0.0004147912
0.0009028662
0.000928234
0.000715309
0.0009563573
0.0001988016
-0.0008084992
-0.000630898
0
0
0
0
0
-0.0001982797
0.001669339
-4.670168e-05
-0.001571206
-0.0006253473
-0.0008191409
-0.000913085
-0.0008453715
-0.0003896274
0
0
0
0
0
-0.0008695515
-0.0003409442
-0.0001592058
-0.001121377
0.0001277295
-0.0008528134
0.0006835
0.0009714926
-0.001879142
0.0005698306
0
0
0
0
0
-0.0006978197
0.001005452
-0.001302296
0.0008190362
-0.0003688041
-0.001568168
-0.0009601172
1.523842e-05
-0.000930722
-3.623808e-05
0.0002314401
0
0
0
0
0
-0.0001216838
-0.0004186846
8.626215e-05
-0.000848415
-0.0008842173
0.0008122057
0.0003787844
-0.0005924316
-0.0001692203
-1.126862e-05
4.647638e-05
-2.484677e-06
0
0
0
0
0
0
0
0
0
0
0
0
0
0
0
-2.569366e-06
1.477061e-06
3.846201e-06
0
0
0
0
0
0
0
0
0
0
0
0
0
0
0
-1.624629e-06
4.17212e-06
-3.419578e-06
3.224783e-06
0
0
0
0
0
0
0
0
0
0
0
0
0
0
0
1.011127e-07
3.604137e-06
2.115403e-06
2.658422e-07
2.896118e-06
0
0
0
0
0
0
0
0
0
0
0
0
0
0
0
1.151919e-06
2.400635e-06
8.738176e-07
-6.950358e-07
3.43747e-06
1.243421e-05
0
0
0
0
0
0
0
0
0
0
0
0
0
0
0
6.006556e-07
1.638557e-06
-2.535018e-07
3.770791e-06
1.635687e-06
-4.037148e-06
-3.372039e-06
0
0
0
0
0
0
0
0
0
0
0
0
0
0
0
0
0
0
0
0
0
0
0
0
0
0
0
0
0
0
0
0
0
0
0
5.418903e-05
-0.0004544351
-0.0006483887
-4.317452e-05
0
0
0
0
0
-0.000338562
0.0001770937
0.0003119127
-0.001174176
0.001426192
0
0
0
0
0
-0.0004788204
-0.0005956182
0.001037115
-0.001561328
0.0005851097
0.001330637
0
0
0
0
0
-6.435798e-05
-0.0008381793
0.001811971
8.841116e-05
0.0009613704
0.0006009
0.0001397768
0
0
0
0
0
0.0006255296
-0.001021725
0.0006398896
0.0008420912
-0.0009913055
0.000241429
0.0006058261
-0.00018414
0
0
0
0
0
0.0002398827
0.0001143868
4.420786e-05
-0.0007651638
0.000351067
-0.000483082
-0.0007045428
0.001080737
0.0003791899
0
0
0
0
0
0.0003941084
1.439178e-05
3.934582e-06
0.000297247
0.00122351
0.002140212
-0.0004138062
3.533154e-05
0.001679813
-0.000316826
0
0
0
0
0
0.0002745211
-0.0001321277
0.0005022325
-0.0006222883
0.0009888873
0.0002788884
0.001969847
-0.0006135435
0.0007795409
0.001421395
0.0002924818
0
0
0
0
0
0.0003952834
0.0006197566
-0.0009550623
0.0002845735
-0.0006673512
-0.001730799
0.0007343622
0.0003374256
-0.002151697
0.0004018617
-0.0004563096
-2.102693e-07
0
0
0
0
0
0.0003724333
0.0001014425
7.938141e-05
-0.0001112547
0.0004122657
0.0007050154
0.000376389
0.0003431588
-0.0001647812
-0.0003781935
-8.155163e-05
-2.020127e-06
2.262113e-06
0
0
0
0
0
0
0
0
0
0
0
0
0
0
0
-2.692914e-07
-1.185145e-06
4.596519e-07
-2.397181e-06
0
0
0
0
0
0
0
0
0
0
0
0
0
0
0
-5.104225e-07
9.983197e-07
1.033241e-07
3.763198e-06
1.691834e-06
0
0
0
0
0
0
0
0
0
0
0
0
0
0
0
-3.034298e-06
-3.528716e-07
-2.551234e-06
-1.924475e-06
3.040558e-06
-4.068747e-06
0
0
0
0
0
0
0
0
0
0
0
0
0
0
0
1.34521e-06
6.510199e-07
-1.518744e-06
1.895759e-06
-1.164638e-06
9.331559e-06
2.175255e-05
0
0
0
0
0
0
0
0
0
0
0
0
0
0
0
-3.117618e-07
-1.903445e-06
-2.391033e-06
3.018148e-06
-1.680987e-06
-5.768286e-06
4.518491e-06
1.114383e-05
0
0
0
0
0
0
0
0
0
0
0
0
0
0
0
0
0
0
0
0
0
0
0
0
0
0
0
0
0
0
0
0
0
0
0
0
0
0
0
0
-0.000202169
-0.0004767586
0.0004221511
0.0004174842
-0.0004431387
0
0
0
0
0
0.0004632124
0.001046079
-0.001695571
0.0009567522
-0.0001805077
-0.0009628835
0
0
0
0
0
-0.0001604418
0.001812227
-0.0006647656
-0.0007492767
0.0009443732
-0.001451346
0.0007298585
0
0
0
0
0
-0.0008070748
0.0005477708
-0.0005947853
-0.001305394
-0.0001345714
-0.002318987
0.0009507942
0.0006182662
0
0
0
0
0
-0.0006647222
-0.0005413769
0.0003804709
0.0004936959
0.0004537802
0.0001466804
-7.696699e-05
1.0621e-05
-0.000929806
0
0
0
0
0
-1.144732e-05
0.0004564715
0.000379072
-0.0001327673
0.0001360626
-0.001155931
0.001497825
0.001627504
-0.0002835165
0.0004084263
0
0
0
0
0
-0.0002338579
-0.0006879431
0.0003202408
-7.441573e-05
0.000299555
-0.0005750526
-0.001641398
-0.0003434136
-0.001319696
-0.001964245
0.0001843821
0
0
0
0
0
-0.000372377
-0.0001835338
0.0003212876
-1.836678e-05
0.001039302
0.000725144
1.305316e-05
-0.001409877
0.001922898
-0.0006546233
-5.439666e-05
1.57082e-06
0
0
0
0
0
-0.0006459642
-0.0003043355
0.0002054914
-0.0004663862
-0.0007608065
-0.0002038599
-0.001437019
-0.001466306
0.0001660115
0.00156601
-0.0002891156
3.080946e-06
-1.464322e-06
0
0
0
0
0
-0.0002125838
-0.0003006456
0.0005083664
0.0001019924
-4.918667e-05
-0.0004002248
-0.0006943396
-0.0007570541
-7.705625e-05
-2.126624e-05
-5.172699e-07
2.084341e-06
4.000393e-06
-2.192538e-07
0
0
0
0
0
0
0
0
0
0
0
0
0
0
0
3.832643e-07
6.50161e-07
-3.823328e-07
2.796066e-06
-1.373932e-06
0
0
0
0
0
0
0
0
0
0
0
0
0
0
0
2.147455e-07
-4.941568e-06
7.006132e-07
-4.455532e-07
1.966489e-06
9.293514e-06
0
0
0
0
0
0
0
0
0
0
0
0
0
0
0
-1.71584e-06
3.873022e-06
1.833409e-06
1.409069e-06
1.078768e-06
2.411721e-05
1.668627e-05
0
0
0
0
0
0
0
0
0
0
0
0
0
0
0
-1.080872e-07
-1.508192e-06
1.046846e-06
3.471274e-06
-1.829112e-06
1.868535e-05
5.735462e-06
-2.111314e-05
0
0
0
0
0
0
0
0
0
0
0
0
0
0
0
-6.225821e-07
-5.952673e-07
-3.49271e-06
1.941275e-06
-1.326198e-06
-1.077204e-05
2.340686e-05
5.225567e-06
2.897714e-06
0
0
0
0
0
0
0
0
0
0
0
0
0
0
0
0
0
0
0
0
0
0
0
0
0
0
0
0
0
0
0
0
0
0
0
0
0
0
0
0
0
0
0
0
0
-0.0002220693
0.0002643162
0.0006206782
-0.0007044992
-0.0001681616
0.0004388982
0
0
0
0
0
-0.0002165165
0.0001520428
-0.0005509356
-0.000167012
-0.0001315116
0.002298938
0.0005142572
0
0
0
0
0
0.0003361693
-0.0005001638
0.0009236534
0.0003620543
-0.0005314477
0.001111165
-0.0007428184
-0.001295236
0
0
0
0
0
0.0007120079
0.0006932225
-0.0003746589
-0.000294662
4.675204e-05
-0.0003589365
0.0009675101
-0.0007302875
0.0001518299
0
0
0
0
0
-2.602315e-05
0.0011057
-0.0010486
0.001134567
-0.0003572549
-0.00170353
0.0002965912
-0.001230363
0.0003312247
-0.001294859
0
0
0
0
0
-5.375993e-05
-0.0009287772
-0.001359484
-7.56072e-06
0.001029809
0.0001735266
-0.0002785852
-0.001784869
-0.0001785756
0.001377244
-8.514627e-05
0
0
0
0
0
-0.0001996124
-0.0005231987
0.0002861953
0.0006078094
-0.0009500827
-0.001896607
0.0006497401
0.00114961
0.000409893
0.0003457082
0.000450497
6.261341e-06
0
0
0
0
0
0.0004430209
0.001076816
0.0002540444
0.00157855
0.0003713473
0.0001449463
0.001582945
0.0004371822
0.000581379
-2.557043e-05
0.0005514683
3.556138e-07
-3.069506e-06
0
0
0
0
0
0.0003185302
0.001019182
-1.652079e-05
0.0003273737
0.001022385
0.001361131
0.0005441178
0.00165629
0.001239247
-0.0006413485
-0.0004705886
9.440331e-07
-1.831051e-06
3.714298e-06
0
0
0
0
0
0.0003731109
0.0001629056
7.669841e-05
-6.858515e-05
-0.0004718248
1.264487e-06
-5.90192e-05
0.000243001
0.0002039689
0.0002326408
0.0001268769
-3.155963e-07
-3.286805e-06
-1.171521e-06
1.019505e-06
0
0
0
0
0
0
0
0
0
0
0
0
0
0
0
2.775029e-07
4.551324e-07
1.428947e-06
-2.857126e-06
-1.460933e-06
-1.884073e-05
0
0
0
0
0
0
0
0
0
0
0
0
0
0
0
-1.222961e-06
-1.518995e-06
-1.706101e-06
-2.865902e-06
2.406169e-06
-1.428648e-05
2.712363e-05
0
0
0
0
0
0
0
0
0
0
0
0
0
0
0
-2.261565e-06
1.642131e-06
-2.96756e-06
1.607549e-06
5.706826e-07
-2.199979e-06
-1.194949e-05
2.199364e-05
0
0
0
0
0
0
0
0
0
0
0
0
0
0
0
-9.52966e-08
2.233405e-07
3.757824e-07
2.667137e-06
-3.414704e-06
-1.136341e-05
1.221176e-06
-1.832986e-06
1.731584e-05
0
0
0
0
0
0
0
0
0
0
0
0
0
0
0
-1.099758e-06
8.057847e-07
-1.763262e-06
1.139891e-06
-1.248088e-06
1.414575e-05
1.777031e-05
-1.032872e-05
1.469945e-05
1.017201e-05
0
0
0
0
0
0
0
0
0
0
0
0
0
0
0
0
0
0
0
0
0
0
0
0
0
0
0
0
0
0
0
0
0
0
0
0
0
0
0
0
0
0
0
0
0
0
0
0
0
0
0.0002070696
-0.0004868142
-4.918994e-05
9.416924e-05
-0.0001729448
-0.0006349323
-0.0004636104
0
0
0
0
0
-0.0002639382
0.0003967492
-0.001204817
0.0005488737
0.001531008
-0.0008285903
-0.0009646646
2.65347e-05
0
0
0
0
0
-0.0003480112
0.0005451551
0.001066419
-0.0008163944
-0.001493798
-6.446731e-05
2.091552e-05
1.03106e-05
-0.0004161401
0
0
0
0
0
-0.0007674126
-0.0005790868
0.000689708
0.0005377447
0.0007072266
0.0004228286
-0.0006778858
0.0006658651
-0.0003015652
0.0008793173
0
0
0
0
0
0.0002625302
0.0007658983
-0.000474894
0.000606676
-0.0003619208
0.0004254056
0.0008083288
0.0004521847
0.001708359
-0.0006178003
0.000720041
0
0
0
0
0
0.0008922343
0.001359611
-0.001632958
0.0003996097
-0.0001673778
-0.0009937887
-0.0003689787
0.001058059
-0.0003831206
-0.0006383861
-0.0001259285
-4.225268e-07
0
0
0
0
0
-0.0001544281
1.082547e-05
0.0004347685
-0.0006594839
-0.0005281786
-0.0006850863
0.001198895
-0.001251353
0.0004901467
-0.0005479355
0.0004616871
1.711007e-06
1.264319e-07
0
0
0
0
0
-0.0001705672
-0.001751368
-0.001886603
-0.0012688
0.0003888057
-0.000227273
-0.0003198196
-0.001981482
-0.001013107
0.0006524106
-0.0004033561
1.056468e-06
4.073091e-07
-5.314936e-06
0
0
0
0
0
-0.0005474042
-0.0001764667
0.0005560508
-0.0004548814
0.0003942395
0.0004217157
0.0004375093
0.0003270155
-0.0005487833
-0.001589248
0.0004061869
6.150214e-07
1.797267e-06
-1.549714e-06
-2.693009e-07
0
0
0
0
0
-4.703499e-05
0.0001713803
-0.0002025095
0.0003210523
-0.0008902538
0.0005313893
4.341453e-05
0.0001513696
0.0004864305
-0.0001650478
3.968294e-05
-1.288011e-07
2.854021e-07
1.120126e-06
9.646858e-08
-2.656959e-05
0
0
0
0
0
0
0
0
0
0
0
0
0
0
0
3.537332e-06
-5.67078e-07
-2.179919e-06
6.153072e-07
-8.560452e-07
1.110803e-05
2.967366e-05
0
0
0
0
0
0
0
0
0
0
0
0
0
0
0
-2.193473e-06
-4.416223e-06
2.33207e-06
-6.665364e-06
1.940273e-06
-5.086228e-06
3.602618e-05
2.059098e-06
0
0
0
0
0
0
0
0
0
0
0
0
0
0
0
1.277519e-06
-3.511826e-07
1.27479e-06
1.632574e-06
2.756328e-06
-7.838855e-06
-2.531931e-05
1.37347e-05
-2.11532e-05
0
0
0
0
0
0
0
0
0
0
0
0
0
0
0
3.132844e-06
-3.786593e-06
-2.037896e-06
-1.774232e-06
-1.646735e-06
-1.067044e-05
4.1921e-05
4.84547e-06
1.372821e-06
-2.202163e-05
0
0
0
0
0
0
0
0
0
0
0
0
0
0
0
3.41028e-07
3.422117e-07
1.083474e-06
9.165721e-07
1.924594e-07
1.988365e-06
6.301212e-06
4.513915e-07
-9.806954e-06
-8.768565e-06
-81499.71
0
0
0
0
0
0
0
0
0
0
0
0
0
0
0
0
0
0
0
0
0
0
0
0
0
0
0
0
0
0
0
0
0
0
0
0
0
0
0
0
0
0
0
0
0
0
0
0
0
0
0
0
0
0
0
0.0001173504
-0.0001188343
0.001012086
-0.0004572001
-0.0004328184
-3.041379e-05
0.0006623174
0.0003839912
0
0
0
0
0
6.473165e-05
0.0003157929
-0.0004954507
-0.0002400952
0.0003031626
-0.0001378236
-1.956234e-05
0.000697673
0.001893219
0
0
0
0
0
0.0007316007
-0.0008156187
0.0001099309
-0.00136996
-0.0009062172
0.0002766306
-0.0001618308
-0.0001597558
0.0006687229
0.0002617256
0
0
0
0
0
-7.085713e-05
0.001562195
-0.0002168853
-0.0003353645
0.0002482113
-0.0001071514
1.703249e-06
0.002008233
-0.0003718175
-0.0002477472
-0.0001232579
0
0
0
0
0
-0.0006603571
-0.0006221748
0.0008909845
0.001346268
0.0002147136
-0.0009821842
0.001089898
-0.001239889
0.001509866
-0.00135378
1.155168e-05
3.478685e-06
0
0
0
0
0
-0.0002554529
-0.0006317542
1.451524e-05
0.0005754616
-0.0006325619
0.0007714985
0.0004593698
0.0004220907
-0.0005254634
-0.0005369334
0.0005513931
1.494363e-06
1.128102e-06
0
0
0
0
0
-0.0003868864
0.001419209
0.0005405571
8.581461e-05
-0.000502913
-0.0001160659
0.0003137826
-0.001099742
-3.790265e-05
-0.0008822238
0.0002456442
1.397423e-06
6.100107e-07
-1.152595e-06
0
0
0
0
0
0.0004350566
0.001476835
-0.0004192166
0.00126172
-0.0004160553
-0.0008938888
-0.0007543653
-0.001003111
0.001576162
0.002292571
-0.0001542557
1.33244e-06
-3.115203e-06
-3.859026e-06
-7.206477e-08
0
0
0
0
0
0.0003647067
-0.0004836346
-0.001199265
-0.00159202
0.001608916
-0.0009838176
-0.0007629866
-0.001213159
-0.0003790021
0.0002879198
0.000281473
-3.548426e-06
-1.424744e-06
1.178197e-06
1.175715e-07
-1.415978e-05
0
0
0
0
0
-0.0001676092
0.000319076
0.000144145
0.0003176047
0.0003164641
-1.543875e-05
0.0002593305
-0.000246111
-0.0001749601
5.653169e-05
9.224235e-06
1.74258e-06
7.478413e-07
2.026048e-06
-3.11418e-07
1.611248e-05
1.030982e-05
0
0
0
0
0
0
0
0
0
0
0
0
0
0
0
1.737398e-07
9.252883e-07
-1.266107e-06
-1.021161e-06
-2.084479e-06
-5.478923e-06
-1.074794e-05
1.094061e-05
0
0
0
0
0
0
0
0
0
0
0
0
0
0
0
-1.001326e-06
5.610724e-06
1.72461e-06
-5.21576e-07
2.023431e-06
6.619666e-06
2.124683e-05
-7.408708e-06
1.067037e-05
0
0
0
0
0
0
0
0
0
0
0
0
0
0
0
-1.622141e-06
8.273307e-07
-9.126668e-08
1.60392e-06
-5.942969e-08
-8.680432e-06
2.000024e-05
2.283277e-05
-9.238439e-06
-6.719043e-07
0
0
0
0
0
0
0
0
0
0
0
0
0
0
0
2.255603e-06
-4.611061e-07
8.115349e-07
1.4884e-06
-2.664515e-06
6.447517e-06
4.495326e-06
-1.921035e-05
-8.041145e-06
8.604317e-07
-82194.65
0
0
0
0
0
0
0
0
0
0
0
0
0
0
0
-9.336906e-07
-1.448303e-06
-3.134355e-06
1.036752e-07
-1.463266e-06
3.322394e-06
1.559281e-05
5.77832e-06
-3.549152e-07
6.825567e-06
-74677.19
-82061.19
0
0
0
0
0
0
0
0
0
0
0
0
0
0
0
0
0
0
0
0
0
0
0
0
0
0
0
0
0
0
0
0
0
0
0
0
0
0
0
0
0
0
0
0
0
0
0
0
0
0
0
0
0
0
0
0
0
0
0
0
-0.0001121188
-0.0006251229
0.0003108874
-0.0002073342
-0.0003563518
0.0007427609
-0.0001815757
-0.0005631335
-0.0008781692
0
0
0
0
0
-0.0003974767
0.0006411368
0.0002838589
0.0006394759
0.002332595
-0.0001274995
-0.0003765366
0.001258308
0.0009076232
-0.000650281
0
0
0
0
0
-0.0001507294
-0.003131638
0.001497551
-2.392504e-05
0.001111966
5.589908e-05
0.002062471
-0.000255306
-0.0007631196
-0.00110044
-1.596205e-05
0
0
0
0
0
0.0008123294
0.0008628156
0.0004661619
-0.000803356
0.0003426913
0.0009639493
-0.00119538
6.619614e-05
-0.002057547
0.001301747
0.0001725824
1.065237e-06
0
0
0
0
0
-0.0001531243
-0.0002986112
-0.00149636
-0.0004791869
-0.0002533971
0.0001929537
0.001072118
-0.002071027
0.001387935
-2.90765e-05
0.0003980619
2.071785e-06
2.200367e-06
0
0
0
0
0
0.000174301
0.0004657378
0.0001856226
0.001625147
0.0006486824
0.001477402
-0.0005512523
0.0007959229
0.0006686774
-0.0002818176
-1.842308e-05
8.857056e-07
-3.404207e-06
-2.995848e-06
0
0
0
0
0
-0.0004115143
-0.001656239
-0.00144352
-0.001294119
0.001109763
-0.001478313
0.0006440409
0.00127883
-0.0007156336
-0.0003525807
6.29032e-05
5.150673e-07
-8.616946e-08
2.936626e-06
-7.257648e-09
0
0
0
0
0
-0.000232552
4.45294e-05
-4.854528e-05
0.0003961543
0.0001225227
0.001216454
0.0003941228
0.0008129002
0.001353713
-0.001127481
-0.0002140774
-6.330246e-07
1.846522e-06
-8.589475e-07
-3.334815e-06
-1.342523e-05
0
0
0
0
0
7.971117e-05
-0.001113646
-0.0004022802
-0.0001474677
0.0005253542
-0.0003364065
-0.0001059774
0.0005882291
0.001453311
5.033366e-06
-0.0002054035
-1.619829e-06
-1.018645e-06
-6.31599e-07
9.952217e-07
-5.57414e-06
2.616373e-05
0
0
0
0
0
6.682948e-05
0.0003006242
-0.0005553293
8.737265e-06
4.283651e-06
0.0001389994
6.354237e-05
0.0001055033
0.0003110164
-0.0003632209
-6.259915e-05
-1.159435e-06
-1.270952e-06
6.840626e-06
1.271639e-06
-2.569286e-05
-3.592953e-05
2.865329e-05
0
0
0
0
0
0
0
0
0
0
0
0
0
0
0
6.146692e-07
-3.21634e-06
2.422355e-06
4.274881e-07
-4.328982e-06
5.582289e-06
3.200806e-06
7.221274e-07
1.176794e-05
0
0
0
0
0
0
0
0
0
0
0
0
0
0
0
1.280871e-06
8.459905e-07
5.203892e-07
-4.267215e-06
-4.888803e-07
2.198801e-05
-9.488264e-06
-7.36018e-06
1.223684e-05
-5.293903e-06
0
0
0
0
0
0
0
0
0
0
0
0
0
0
0
-3.111168e-07
1.107959e-07
1.520627e-06
-1.225186e-06
2.762856e-06
-1.219599e-05
-4.706675e-06
-1.274216e-05
3.449648e-06
7.702713e-06
-83592.09
0
0
0
0
0
0
0
0
0
0
0
0
0
0
0
1.72505e-07
1.125767e-06
2.649274e-06
-3.103615e-06
-2.044682e-06
1.059543e-06
9.435504e-06
-4.48485e-06
4.206752e-06
8.929928e-06
-75128.18
-82767.25
0
0
0
0
0
0
0
0
0
0
0
0
0
0
0
1.07888e-06
-2.154651e-06
3.535765e-06
-1.963569e-06
7.785385e-07
2.878362e-05
4.159671e-06
-1.392624e-05
-5.905844e-06
4.158136e-06
-68892.2
-75168.31
-83565.55
0
0
0
0
0
0
0
0
0
0
0
0
0
0
0
0
0
0
0
0
0
0
0
0
0
0
0
0
0
0
0
0
0
0
0
0
0
0
0
0
0
0
0
0
0
0
0
0
0
0
0
0
0
0
0
0
0
0
0
0
0
0
0
0
0
0.0001808864
0.0003360671
2.007651e-05
-0.0001369872
-0.000406481
0.0003744865
0.0001122347
-0.0004363585
-0.0003445504
-0.0001900435
0
0
0
0
0
-4.026658e-05
0.002419839
-0.0009659334
-0.0004028424
-0.001316797
0.0004166433
-0.001380906
0.0002260784
-0.0003998552
0.000226622
0.0002230204
0
0
0
0
0
-0.0003811724
-0.0008629244
0.002016422
-0.0002249445
-0.001504398
-0.001313134
-0.0005559586
-0.001124857
-0.0009766859
0.000709948
0.0002403321
2.351625e-06
0
0
0
0
0
-0.0003498989
-0.0007020879
0.001888237
-0.0005466797
0.000234869
-0.000413028
-0.0001651787
0.001262926
0.0002280447
0.0002998712
-0.0003383587
1.291502e-06
5.778686e-07
0
0
0
0
0
0.0002064576
0.0002610573
-0.0004612719
0.00091722
0.001682443
-0.0001419591
-0.0002471162
0.0002115776
0.0009311045
6.342923e-06
0.0002946365
-1.744179e-06
1.080126e-06
-1.787616e-06
0
0
0
0
0
-0.0002894881
0.0003048173
0.0006806643
0.0003641012
-0.0003737409
-0.0004080673
8.630721e-05
-0.0007288447
0.0007140544
-0.0007044791
0.0002178434
3.399156e-06
2.628317e-07
-3.973969e-06
2.408934e-07
0
0
0
0
0
0.0002796742
7.33077e-05
0.001038419
0.0007609763
0.0003543407
-0.001646939
0.0004852015
-0.0005690701
-0.001539629
2.57677e-05
0.0003021885
2.706989e-06
-9.432086e-07
2.157825e-06
4.072643e-06
-1.448322e-05
0
0
0
0
0
0.0005332953
0.0006572779
0.0001786518
7.921392e-05
-0.0006316337
-0.000514416
-0.0001168718
0.001309203
-0.001446592
-0.0008363464
8.613384e-05
1.679826e-06
4.654377e-06
2.505994e-06
-7.967444e-07
-2.427278e-05
1.575683e-05
0
0
0
0
0
-0.0005310091
-3.868577e-05
0.000767198
-0.0007839267
-0.0002177119
4.638232e-05
-0.0003030644
-0.0001364102
-0.0003186777
0.0008018388
0.0004027691
9.383269e-09
1.502562e-06
-8.087777e-06
1.081467e-06
1.969446e-05
2.35025e-05
2.856466e-05
0
0
0
0
0
-0.0002631048
2.725873e-05
0.0001697773
0.0003069777
0.0001115694
-0.0005141034
4.127481e-05
0.0003058732
-2.259913e-07
0.0003589242
7.408007e-06
2.367363e-06
1.425201e-07
-5.366179e-08
1.794404e-06
1.700633e-05
1.309334e-05
5.664365e-05
3.445021e-05
0
0
0
0
0
0
0
0
0
0
0
0
0
0
0
1.045845e-06
8.779264e-07
-1.723582e-06
2.556195e-06
-1.211885e-06
-1.079255e-05
-2.988023e-06
1.339682e-05
2.796544e-05
-2.98983e-05
0
0
0
0
0
0
0
0
0
0
0
0
0
0
0
-9.175016e-07
-3.455359e-06
-1.356365e-06
1.102146e-06
8.738533e-07
3.95122e-06
-1.48376e-05
2.534206e-05
-5.248818e-06
-2.230778e-05
-85681.26
0
0
0
0
0
0
0
0
0
0
0
0
0
0
0
-2.428929e-06
2.669167e-06
-1.024812e-06
1.326131e-06
-3.806115e-07
1.012515e-06
1.329512e-05
-8.425934e-06
8.783215e-06
-1.368757e-05
-76012.26
-84186.85
0
0
0
0
0
0
0
0
0
0
0
0
0
0
0
1.169657e-06
-5.608674e-07
1.23986e-06
5.037329e-07
5.810376e-07
-8.529875e-06
8.885984e-06
-4.358944e-06
1.701936e-05
7.565518e-06
-69237.77
-75626.8
-84298.4
0
0
0
0
0
0
0
0
0
0
0
0
0
0
0
2.46102e-07
-3.210412e-06
4.38508e-07
-1.858128e-06
3.839625e-07
2.286078e-05
-4.931126e-05
-3.911778e-06
9.02685e-06
5.900169e-06
-64248.28
-69330.58
-76471.14
-86057.17
0
0
0
0
0
0
0
0
0
0
0
0
0
0
0
0
0
0
0
0
0
0
0
0
0
0
0
0
0
0
0
0
0
0
0
0
0
0
0
0
0
0
0
0
0
0
0
0
0
0
0
0
0
0
0
0
0
0
0
0
0
0
0
0
0
0
0
0
0
0
6.119032e-05
-0.0005351334
-0.000517774
0.0004298093
0.000151089
-0.0002076784
8.892771e-05
0.0002417216
-0.0001560809
2.850935e-05
7.618849e-05
0
0
0
0
0
0.0006172205
0.0009512489
-0.002187157
0.0004688861
0.0008692304
0.00102484
-0.0006185106
0.001125304
0.0004496741
-0.0005141896
-0.0001096755
4.743068e-07
0
0
0
0
0
-0.0002948045
-0.0005547139
-0.0007004325
-0.001174645
-0.0006555545
-0.0003760769
-0.0003936166
0.0004994083
-0.0005707149
-0.0003148412
-0.0003640749
1.479602e-06
-4.065596e-07
0
0
0
0
0
-4.596268e-05
0.0002821148
0.002386004
-0.0003906372
0.0001997679
-0.0004884233
0.000658924
-0.001058743
-0.000113256
-0.00140412
-6.174853e-05
-6.847606e-08
-3.275728e-07
-2.019897e-06
0
0
0
0
0
0.0006891728
-0.0005668103
0.0004762771
-0.0004974727
-0.001406319
-0.0002494188
-0.0001764296
-7.930974e-05
-0.0008009513
0.0004190358
0.0003001337
-8.777121e-07
-1.170508e-06
2.471979e-06
-3.825392e-06
0
0
0
0
0
-0.0005044598
0.0004014448
-0.0002353368
-0.0002242106
0.0005009603
0.0003894279
-0.0004012437
-0.001207244
0.0005332535
0.0003226628
0.0002824512
3.808442e-06
6.947512e-07
-9.294361e-07
-4.775474e-06
-4.352957e-06
0
0
0
0
0
7.397663e-06
-0.0006414288
9.240346e-05
0.0002374135
0.0004880025
-0.0005740166
0.001810773
0.0004564016
0.0003830172
0.0003092578
0.0001645995
8.31077e-07
-4.67599e-06
-1.202915e-06
-2.797133e-06
1.351134e-05
3.534929e-05
0
0
0
0
0
-3.603063e-05
-0.002034894
0.001265177
0.0002918962
0.0004746525
-0.0003151952
0.002000676
-0.0004336455
-9.214304e-05
-0.001112853
0.0002905332
1.696763e-08
-3.398421e-06
5.713681e-06
1.84782e-06
-1.52228e-05
7.424595e-06
4.691598e-05
0
0
0
0
0
0.0003741018
0.001215327
0.0008788618
0.000478219
-0.0004626073
0.0009260485
0.0002475945
-0.0004166206
-0.0004831148
-0.0008011706
-9.323778e-05
1.166088e-06
-6.757751e-07
-7.263342e-07
-4.104659e-06
-2.032576e-05
-7.085069e-07
2.142889e-05
1.412898e-05
0
0
0
0
0
-0.0001643279
-0.0001504489
-0.0001318117
8.074584e-05
7.436603e-05
-0.0005232014
0.0003448257
0.0002046583
-0.0004522116
0.0002846294
-9.109608e-05
4.73361e-06
2.814335e-06
4.194704e-06
-3.520035e-06
8.5137e-06
-2.030459e-05
1.139619e-05
-2.444967e-05
-3.364436e-05
0
0
0
0
0
0
0
0
0
0
0
0
0
0
0
6.464745e-08
-4.796777e-08
-1.187557e-06
-3.560859e-06
-5.145504e-07
5.971921e-06
-2.416497e-05
2.434125e-05
-8.398126e-06
-1.519995e-05
-88366.76
0
0
0
0
0
0
0
0
0
0
0
0
0
0
0
-5.828229e-07
2.029981e-06
3.493249e-08
3.066065e-06
4.63032e-06
1.116783e-05
1.731334e-05
1.997511e-05
-2.515441e-05
6.839307e-06
-77269.74
-86307.81
0
0
0
0
0
0
0
0
0
0
0
0
0
0
0
3.96408e-07
-4.792845e-07
-6.847734e-07
1.818255e-06
6.593341e-07
-2.691474e-05
1.26693e-05
-1.597551e-05
2.754702e-05
4.366263e-07
-69908.09
-76525.87
-85772.14
0
0
0
0
0
0
0
0
0
0
0
0
0
0
0
-2.424598e-06
-6.530773e-06
-4.880229e-07
-1.977213e-06
-1.069255e-06
-1.493044e-06