/*--------------------------------*- C++ -*----------------------------------*\
| =========                 |                                                 |
| \\      /  F ield         | OpenFOAM: The Open Source CFD Toolbox           |
|  \\    /   O peration     | Version:  2306                                  |
|   \\  /    A nd           | Website:  www.openfoam.com                      |
|    \\/     M anipulation  |                                                 |
\*---------------------------------------------------------------------------*/
FoamFile
{
    version     2.0;
    format      ascii;
    arch        "LSB;label=32;scalar=64";
    class       volScalarField;
    location    "1.5";
    object      k;
}
// * * * * * * * * * * * * * * * * * * * * * * * * * * * * * * * * * * * * * //

dimensions      [1 1 -3 -1 0 0 0];

internalField   nonuniform List<scalar> 
52000
(
20
20
20
20
20
20
20
20
20
20
20
20
20
20
20
20
20
20
20
20
20
20
20
20
20
20
20
20
20
20
20
20
20
20
20
20
20
20
20
20
20
20
20
20
20
20
20
20
20
20
20
20
20
20
20
20
20
20
20
20
20
20
20
20
20
20
20
20
20
20
20
20
20
20
20
20
20
20
20
20
20
20
20
20
20
20
20
20
20
20
20
20
20
20
20
20
20
20
20
20
20
20
20
20
20
20
20
20
20
20
20
20
20
20
20
20
20
20
20
20
20
20
20
20
20
20
20
20
20
20
20
20
20
20
20
20
20
20
20
20
20
20
20
20
20
20
20
20
20
20
20
20
20
20
20
20
20
20
20
20
20
20
20
20
20
20
20
20
20
20
20
20
20
20
20
20
20
20
20
20
20
20
20
20
20
20
20
20
20
20
20
20
20
20
20
20
20
20
20
20
20
20
20
20
20
20
20
20
20
20
20
20
20
20
20
20
20
20
20
20
20
20
20
20
20
20
20
20
20
20
20
20
20
20
20
20
20
20
20
20
0.0854921
20
20
20
20
20
20
20
20
20
20
20
20
20
20
20
20
20
20
20
20
20
20
20
20
20
20
20
20
20
20
20
20
20
20
20
20
20
20
20
20
20
20
20
20
20
20
20
20
20
20
20
20
20
20
20
20
20
20
20
20
20
20
20
20
20
0.08477834
20
20
20
20
20
0.08632959
0.08476603
20
20
20
20
20
20
20
20
20
20
20
20
20
20
20
20
20
20
20
20
20
20
20
20
20
20
20
20
20
20
20
20
20
20
20
20
20
20
20
20
20
20
20
20
20
20
20
20
20
20
20
20
20
20
20
20
20
20
20
20
20
20
20
20
20
20
20
20
20
20
0.0843801
20
20
20
20
20
0.08616178
0.08301563
20
20
20
20
20
0.08655489
0.08616056
0.08435745
20
20
20
20
20
20
20
20
20
20
20
20
20
20
20
20
20
20
20
20
20
20
20
20
20
20
20
20
20
20
20
20
20
20
20
20
20
20
20
20
20
20
20
20
20
20
20
20
20
20
20
20
20
20
20
20
20
20
20
20
20
20
20
20
20
20
20
20
20
20
20
20
20
20
20
0.08415269
20
20
20
20
20
0.08601614
0.08191214
20
20
20
20
20
0.08649027
0.08566543
0.08189457
20
20
20
20
20
0.08673918
0.08649522
0.08601491
0.08411817
20
20
20
20
20
20
20
20
20
20
20
20
20
20
20
20
20
20
20
20
20
20
20
20
20
20
20
20
20
20
20
20
20
20
20
20
20
20
20
20
20
20
20
20
20
20
20
20
20
20
20
20
20
20
20
20
20
20
20
20
20
20
20
20
20
20
20
20
20
20
20
20
20
20
20
20
20
20
20
20
0.08404677
20
20
20
20
20
0.08590881
0.08124576
20
20
20
20
20
0.0864321
0.08522952
0.08022071
20
20
20
20
20
0.08670965
0.08630722
0.08522562
0.08119848
20
20
20
20
20
0.08690248
0.08671673
0.08644304
0.08590783
0.08399683
20
20
20
20
20
20
20
20
20
20
20
20
20
20
20
20
20
20
20
20
20
20
20
20
20
20
20
20
20
20
20
20
20
20
20
20
20
20
20
20
20
20
20
20
20
20
20
20
20
20
20
20
20
20
20
20
20
20
20
20
20
20
20
20
20
20
20
20
20
20
20
20
20
20
20
20
20
20
20
20
20
20
20
20
20
0.08404677
20
20
20
20
20
0.08585191
0.0809285
20
20
20
20
20
0.08638752
0.08490535
0.07916041
20
20
20
20
20
0.08668367
0.08613537
0.08451743
0.07911915
20
20
20
20
20
0.08688625
0.08663503
0.08614097
0.0848931
0.08083443
20
20
20
20
20
0.08705081
0.08689363
0.0866987
0.08640607
0.08585162
0.08397646
20
20
20
20
20
20
20
20
20
20
20
20
20
20
20
20
20
20
20
20
20
20
20
20
20
20
20
20
20
20
20
20
20
20
20
20
20
20
20
20
20
20
20
20
20
20
20
20
20
20
20
20
20
20
20
20
20
20
20
20
20
20
20
20
20
20
20
20
20
0.3606089
20
20
20
20
20
20
20
20
20
20
20
20
20
20
20
20
20
20
20
20
0.08415269
20
20
20
20
20
0.08585191
0.0809285
20
20
20
20
20
0.08636326
0.08473265
0.07864198
20
20
20
20
20
0.08666395
0.08600247
0.08398346
0.07775844
20
20
20
20
20
0.08687249
0.0865614
0.08586025
0.08396932
0.07852638
20
20
20
20
20
0.08704001
0.0868518
0.08657028
0.08601456
0.08470746
0.08076822
20
20
20
20
20
0.0871871
0.08704704
0.08688807
0.08668898
0.08639168
0.0858541
0.08405647
20
20
20
20
20
20
20
20
20
20
20
20
20
20
20
20
20
20
20
20
20
20
20
20
20
20
20
20
20
20
20
20
20
20
20
20
20
20
20
20
20
20
20
20
20
20
20
20
20
20
20
20
20
20
20
20
20
0.3605992
20
20
20
20
20
20
20
20
20
20
20
20
20
20
20
0.360732
0.3606821
20
20
20
20
20
20
20
20
20
20
20
20
20
20
20
20
20
20
20
20
0.0843801
20
20
20
20
20
0.08590881
0.08124576
20
20
20
20
20
0.08636326
0.08473265
0.07864198
20
20
20
20
20
0.08665324
0.08592977
0.08369669
0.07708037
20
20
20
20
20
0.0868623
0.08650484
0.08564047
0.08326435
0.07698863
20
20
20
20
20
0.08703118
0.08681518
0.08645232
0.08564591
0.08365699
0.07841471
20
20
20
20
20
0.08717869
0.08702109
0.08682471
0.08652559
0.08595045
0.08469316
0.08099864
20
20
20
20
20
0.08731323
0.08718517
0.08704603
0.08688817
0.08669108
0.08640504
0.08591817
0.08425132
20
20
20
20
20
20
20
20
20
20
20
20
20
20
20
20
20
20
20
20
20
20
20
20
20
20
20
20
20
20
20
20
20
20
20
20
20
20
20
20
20
20
20
20
0.3605792
20
20
20
20
20
20
20
20
20
20
20
20
20
20
20
0.3607256
0.3606711
20
20
20
20
20
20
20
20
20
20
20
20
20
20
20
0.3608472
0.3607989
0.3607568
20
20
20
20
20
20
20
20
20
20
20
20
20
20
20
20
20
20
20
20
0.08477834
20
20
20
20
20
0.08601614
0.08191214
20
20
20
20
20
0.08638752
0.08490535
0.07916041
20
20
20
20
20
0.08665324
0.08592977
0.08369669
0.07708037
20
20
20
20
20
0.08685685
0.08647394
0.08551941
0.0828829
0.07621407
20
20
20
20
20
0.0870248
0.08678774
0.08636043
0.0853543
0.08284932
0.07684044
20
20
20
20
20
0.08717195
0.0869991
0.08676807
0.08637322
0.08553138
0.08362461
0.07878564
20
20
20
20
20
0.08730604
0.08716587
0.0870083
0.08681032
0.08651101
0.08596418
0.08485754
0.08155502
20
20
20
20
20
0.08743051
0.08731197
0.08718572
0.0870495
0.08689581
0.08670758
0.08644826
0.08604232
0.08460414
20
20
20
20
20
20
20
20
20
20
20
20
20
20
20
20
20
20
20
20
20
20
20
20
20
20
20
20
20
20
0.3605457
20
20
20
20
20
20
20
20
20
20
20
20
20
20
20
0.360713
0.3606474
20
20
20
20
20
20
20
20
20
20
20
20
20
20
20
0.3608418
0.3607926
0.3607447
20
20
20
20
20
20
20
20
20
20
20
20
20
20
20
0.3609513
0.3609059
0.3608668
0.3608332
20
20
20
20
20
20
20
20
20
20
20
20
20
20
20
20
20
20
20
20
0.0854921
20
20
20
20
20
0.08616178
0.08301563
20
20
20
20
20
0.0864321
0.08522952
0.08022071
20
20
20
20
20
0.08666395
0.08600247
0.08398346
0.07775844
20
20
20
20
20
0.08685685
0.08647394
0.08551941
0.0828829
0.07621407
20
20
20
20
20
0.08702143
0.08677297
0.08630983
0.08519268
0.08241021
0.07604558
20
20
20
20
20
0.08716717
0.08698308
0.08672497
0.08625308
0.08519756
0.08280128
0.07731952
20
20
20
20
20
0.08730032
0.08714989
0.08697562
0.08673955
0.08634111
0.0855433
0.08388372
0.07966626
20
20
20
20
20
0.08742405
0.08729581
0.08715846
0.08700499
0.0868135
0.08653392
0.08606077
0.08519087
0.08251699
20
20
20
20
20
0.08753994
0.08742948
0.087313
0.08719014
0.08705865
0.08691242
0.08673998
0.08652119
0.0862239
0.08523648
20
20
20
20
20
20
20
20
20
20
20
20
20
20
20
0.3604802
20
20
20
20
20
20
20
20
20
20
20
20
20
20
20
0.3606942
0.3606047
20
20
20
20
20
20
20
20
20
20
20
20
20
20
20
0.3608313
0.3607801
0.3607183
20
20
20
20
20
20
20
20
20
20
20
20
20
20
20
0.3609465
0.360901
0.3608605
0.3608204
20
20
20
20
20
20
20
20
20
20
20
20
20
20
20
0.3610467
0.3610025
0.3609654
0.3609356
0.3609114
20
20
20
20
20
20
20
20
20
20
20
20
20
20
20
20
20
20
20
20
20
20
20
20
20
0.08632959
0.08476603
20
20
20
20
20
0.08649027
0.08566543
0.08189457
20
20
20
20
20
0.08668367
0.08613537
0.08451743
0.07911915
20
20
20
20
20
0.0868623
0.08650484
0.08564047
0.08326435
0.07698863
20
20
20
20
20
0.08702143
0.08677297
0.08630983
0.08519268
0.08241021
0.07604558
20
20
20
20
20
0.08716467
0.08697462
0.08670158
0.08618645
0.08501177
0.08235302
0.0765835
20
20
20
20
20
0.0872963
0.08713851
0.08695147
0.08668494
0.08620587
0.08520672
0.0831353
0.07844248
20
20
20
20
20
0.08741893
0.0872826
0.08713545
0.08696579
0.08673751
0.08636818
0.08568879
0.08441184
0.08112651
20
20
20
20
20
0.08753402
0.08741508
0.08729051
0.08715898
0.087014
0.08683799
0.08659755
0.08623521
0.08566902
0.08407114
20
20
20
20
20
0.08764234
0.087539
0.0874306
0.08731752
0.08719934
0.08707445
0.08693916
0.08678945
0.08662541
0.08647174
0.3601805
20
20
20
20
20
20
20
20
20
20
20
20
20
20
20
0.3606719
0.3605185
20
20
20
20
20
20
20
20
20
20
20
20
20
20
20
0.3608163
0.3607622
0.3606704
20
20
20
20
20
20
20
20
20
20
20
20
20
20
20
0.360937
0.3608916
0.3608481
0.3607924
20
20
20
20
20
20
20
20
20
20
20
20
20
20
20
0.3610422
0.3609982
0.3609608
0.3609293
0.3608983
20
20
20
20
20
20
20
20
20
20
20
20
20
20
20
0.3611351
0.3610914
0.3610543
0.3610256
0.3610054
0.6348326
20
20
20
20
20
20
20
20
20
20
20
20
20
20
20
20
20
20
20
20
20
20
20
20
20
20
20
20
20
20
0.08655489
0.08616056
0.08435745
20
20
20
20
20
0.08670965
0.08630722
0.08522562
0.08119848
20
20
20
20
20
0.08687249
0.0865614
0.08586025
0.08396932
0.07852638
20
20
20
20
20
0.0870248
0.08678774
0.08636043
0.0853543
0.08284932
0.07684044
20
20
20
20
20
0.08716467
0.08697462
0.08670158
0.08618645
0.08501177
0.08235302
0.0765835
20
20
20
20
20
0.08729421
0.0871326
0.08693861
0.08665506
0.08613043
0.08501899
0.08272851
0.07783601
20
20
20
20
20
0.08741533
0.08727332
0.08711888
0.08693642
0.08667811
0.08623511
0.08539043
0.08381579
0.08025224
20
20
20
20
20
0.08752931
0.08740337
0.08727182
0.08713231
0.08697398
0.08676778
0.08645857
0.08595499
0.08515477
0.08332312
20
20
20
20
20
0.08763684
0.08752581
0.08741067
0.08729225
0.08716941
0.08703761
0.08688618
0.08670165
0.08647659
0.08625935
0.3598604
20
20
20
20
20
0.08773836
0.08764144
0.08754009
0.08743495
0.08732632
0.08721409
0.08709788
0.08697772
0.08686051
0.08677945
0.3606901
0.3602866
20
20
20
20
20
20
20
20
20
20
20
20
20
20
20
0.3608029
0.3607429
0.3605797
20
20
20
20
20
20
20
20
20
20
20
20
20
20
20
0.3609237
0.3608797
0.3608305
0.3607425
20
20
20
20
20
20
20
20
20
20
20
20
20
20
20
0.3610334
0.3609901
0.3609523
0.3609169
0.3608697
20
20
20
20
20
20
20
20
20
20
20
20
20
20
20
0.3611309
0.3610874
0.3610504
0.3610212
0.3609991
0.6348251
20
20
20
20
20
20
20
20
20
20
20
20
20
20
20
0.3612175
0.3611744
0.3611367
0.3611068
0.3610864
0.6348833
0.6348358
20
20
20
20
20
20
20
20
20
20
20
20
20
20
20
20
20
20
20
20
20
20
20
20
20
20
20
20
20
20
20
20
20
20
20
0.08673918
0.08649522
0.08601491
0.08411817
20
20
20
20
20
0.08688625
0.08663503
0.08614097
0.0848931
0.08083443
20
20
20
20
20
0.08703118
0.08681518
0.08645232
0.08564591
0.08365699
0.07841471
20
20
20
20
20
0.08716717
0.08698308
0.08672497
0.08625308
0.08519756
0.08280128
0.07731952
20
20
20
20
20
0.08729421
0.0871326
0.08693861
0.08665506
0.08613043
0.08501899
0.08272851
0.07783601
20
20
20
20
20
0.08741347
0.08726854
0.08711022
0.08692065
0.08664535
0.0861605
0.08522382
0.08349283
0.0798259
20
20
20
20
20
0.087526
0.08739518
0.08725857
0.08711288
0.08694353
0.08671197
0.08634535
0.08572802
0.08476021
0.08285741
20
20
20
20
20
0.08763246
0.08751508
0.0873942
0.08727098
0.08714336
0.08700348
0.08683314
0.08660821
0.08631319
0.08603279
0.3596095
20
20
20
20
20
0.08773323
0.08762918
0.08752183
0.08741267
0.0873026
0.08719141
0.08707776
0.08695978
0.08684561
0.08677749
0.3606463
0.3600295
20
20
20
20
20
0.08782857
0.0877375
0.08764246
0.08754419
0.08744323
0.08734004
0.08723523
0.08713068
0.0870334
0.08697454
0.3608712
0.3607409
0.3603958
20
20
20
20
20
20
20
20
20
20
20
20
20
20
20
0.3609129
0.360874
0.360811
0.3606554
20
20
20
20
20
20
20
20
20
20
20
20
20
20
20
0.361021
0.3609803
0.3609421
0.3608991
0.3608203
20
20
20
20
20
20
20
20
20
20
20
20
20
20
20
0.3611225
0.36108
0.3610433
0.3610131
0.3609866
0.6348089
20
20
20
20
20
20
20
20
20
20
20
20
20
20
20
0.3612135
0.3611706
0.3611332
0.3611032
0.3610822
0.6348798
0.6348283
20
20
20
20
20
20
20
20
20
20
20
20
20
20
20
0.3612946
0.3612523
0.3612143
0.3611826
0.3611598
0.6349267
0.6348861
0.634839
20
20
20
20
20
20
20
20
20
20
20
20
20
20
20
20
20
20
20
20
20
20
20
20
20
20
20
20
20
20
20
20
20
20
20
20
20
20
20
20
0.08690248
0.08671673
0.08644304
0.08590783
0.08399683
20
20
20
20
20
0.08704001
0.0868518
0.08657028
0.08601456
0.08470746
0.08076822
20
20
20
20
20
0.08717195
0.0869991
0.08676807
0.08637322
0.08553138
0.08362461
0.07878564
20
20
20
20
20
0.0872963
0.08713851
0.08695147
0.08668494
0.08620587
0.08520672
0.0831353
0.07844248
20
20
20
20
20
0.08741347
0.08726854
0.08711022
0.08692065
0.08664535
0.0861605
0.08522382
0.08349283
0.0798259
20
20
20
20
20
0.08752428
0.08739098
0.08725171
0.08710264
0.08692702
0.08668088
0.08628141
0.08560079
0.08454645
0.08263111
20
20
20
20
20
0.08762937
0.08750759
0.08738261
0.08725576
0.08712411
0.08697683
0.08678932
0.08652862
0.08617488
0.08585122
0.3594409
20
20
20
20
20
0.08772913
0.08761922
0.08750678
0.08739407
0.08728235
0.08717089
0.08705647
0.08693346
0.0868075
0.08672938
0.3605853
0.3598187
20
20
20
20
20
0.08782377
0.08772605
0.0876255
0.0875238
0.08742247
0.08732293
0.08722665
0.08713673
0.08706212
0.08703442
0.3608904
0.3607043
0.3601899
20
20
20
20
20
0.08791344
0.08782775
0.08773846
0.08764633
0.08755197
0.08745602
0.08735946
0.08726445
0.08717805
0.087127
0.3609885
0.3609126
0.3607977
0.3605078
20
20
20
20
20
20
20
20
20
20
20
20
20
20
20
0.361011
0.3609781
0.3609378
0.3608781
0.3607403
20
20
20
20
20
20
20
20
20
20
20
20
20
20
20
0.3611108
0.3610711
0.3610357
0.3610035
0.3609682
0.6347813
20
20
20
20
20
20
20
20
20
20
20
20
20
20
20
0.3612056
0.3611636
0.3611267
0.3610967
0.3610743
0.6348726
0.6348121
20
20
20
20
20
20
20
20
20
20
20
20
20
20
20
0.3612908
0.3612487
0.3612109
0.3611794
0.3611563
0.6349243
0.6348826
0.6348315
20
20
20
20
20
20
20
20
20
20
20
20
20
20
20
0.361367
0.3613256
0.3612876
0.3612547
0.361229
0.6349661
0.6349292
0.6348889
0.6348421
20
20
20
20
20
20
20
20
20
20
20
20
20
20
20
20
20
20
20
20
20
20
20
20
20
20
20
20
20
20
20
20
20
20
20
20
20
20
20
20
20
20
20
20
20
0.08705081
0.08689363
0.0866987
0.08640607
0.08585162
0.08397646
20
20
20
20
20
0.08717869
0.08702109
0.08682471
0.08652559
0.08595045
0.08469316
0.08099864
20
20
20
20
20
0.08730032
0.08714989
0.08697562
0.08673955
0.08634111
0.0855433
0.08388372
0.07966626
20
20
20
20
20
0.08741533
0.08727332
0.08711888
0.08693642
0.08667811
0.08623511
0.08539043
0.08381579
0.08025224
20
20
20
20
20
0.08752428
0.08739098
0.08725171
0.08710264
0.08692702
0.08668088
0.08628141
0.08560079
0.08454645
0.08263111
20
20
20
20
20
0.08762778
0.08750376
0.08737665
0.08724784
0.08711387
0.08696215
0.0867644
0.08648277
0.08609606
0.08575137
0.3593567
20
20
20
20
20
0.08772624
0.08761226
0.08749622
0.08738088
0.08726767
0.08715523
0.08703837
0.08690793
0.08676741
0.0866776
0.3605322
0.3596742
20
20
20
20
20
0.08781992
0.08771673
0.08761151
0.08750682
0.08740491
0.08730772
0.08721669
0.08713413
0.08706692
0.08704581
0.3608874
0.3606548
0.3600157
20
20
20
20
20
0.08790894
0.08781702
0.0877226
0.08762735
0.08753296
0.08744125
0.08735472
0.08727747
0.08721894
0.08720195
0.3610246
0.3609273
0.360765
0.360344
20
20
20
20
20
0.08799338
0.08791267
0.08782866
0.08774211
0.08765364
0.08756394
0.08747402
0.08738612
0.08730657
0.08725919
0.361082
0.3610243
0.3609579
0.360858
0.3606218
20
20
20
20
20
20
20
20
20
20
20
20
20
20
20
0.3611011
0.3610695
0.3610355
0.3609978
0.3609452
0.6347383
20
20
20
20
20
20
20
20
20
20
20
20
20
20
20
0.3611944
0.3611552
0.3611199
0.3610898
0.3610642
0.6348619
0.6347846
20
20
20
20
20
20
20
20
20
20
20
20
20
20
20
0.3612832
0.361242
0.3612049
0.3611736
0.3611501
0.6349198
0.6348754
0.6348153
20
20
20
20
20
20
20
20
20
20
20
20
20
20
20
0.3613633
0.3613221
0.3612844
0.3612516
0.3612259
0.6349642
0.6349268
0.6348854
0.6348347
20
20
20
20
20
20
20
20
20
20
20
20
20
20
20
0.3614349
0.3613947
0.3613571
0.3613234
0.3612956
0.6350036
0.6349683
0.6349316
0.6348918
0.6348453
20
20
20
20
20
20
20
20
20
20
20
20
20
20
20
20
20
20
20
20
20
20
20
20
20
20
20
20
20
20
20
20
20
20
20
20
20
20
20
20
20
20
20
20
20
20
20
20
20
20
0.0871871
0.08704704
0.08688807
0.08668898
0.08639168
0.0858541
0.08405647
20
20
20
20
20
0.08730604
0.08716587
0.0870083
0.08681032
0.08651101
0.08596418
0.08485754
0.08155502
20
20
20
20
20
0.08741893
0.0872826
0.08713545
0.08696579
0.08673751
0.08636818
0.08568879
0.08441184
0.08112651
20
20
20
20
20
0.087526
0.08739518
0.08725857
0.08711288
0.08694353
0.08671197
0.08634535
0.08572802
0.08476021
0.08285741
20
20
20
20
20
0.08762778
0.08750376
0.08737665
0.08724784
0.08711387
0.08696215
0.0867644
0.08648277
0.08609606
0.08575137
0.3593567
20
20
20
20
20
0.08772474
0.0876087
0.08749079
0.08737406
0.08725997
0.08714673
0.08702795
0.08689242
0.08674262
0.08664596
0.3605021
0.3596013
20
20
20
20
20
0.0878172
0.08771022
0.0876017
0.08749482
0.08739231
0.08729634
0.0872079
0.08712803
0.08706167
0.087041
0.3608778
0.3606115
0.3598941
20
20
20
20
20
0.08790532
0.08780828
0.08770951
0.08761156
0.08751693
0.08742827
0.08734871
0.08728238
0.08723739
0.08723148
0.3610397
0.3609258
0.3607241
0.3602028
20
20
20
20
20
0.08798916
0.08790261
0.08781379
0.08772433
0.08763589
0.08755037
0.08747036
0.08740021
0.08734836
0.08733373
0.3611205
0.3610526
0.3609668
0.3608275
0.3604935
20
20
20
20
20
0.08806875
0.08799267
0.08791355
0.08783213
0.08774901
0.08766488
0.08758075
0.08749866
0.08742444
0.08737903
0.3611643
0.3611136
0.3610629
0.3610052
0.3609202
0.6346781
20
20
20
20
20
20
20
20
20
20
20
20
20
20
20
0.3611846
0.3611532
0.3611205
0.3610884
0.3610556
0.6348482
0.6347419
20
20
20
20
20
20
20
20
20
20
20
20
20
20
20
0.3612724
0.3612338
0.3611984
0.3611676
0.3611429
0.6349138
0.6348647
0.6347879
20
20
20
20
20
20
20
20
20
20
20
20
20
20
20
0.361356
0.3613157
0.3612786
0.3612462
0.3612204
0.6349606
0.6349222
0.6348782
0.6348186
20
20
20
20
20
20
20
20
20
20
20
20
20
20
20
0.3614314
0.3613914
0.361354
0.3613205
0.3612927
0.6350018
0.6349663
0.6349292
0.6348882
0.6348379
20
20
20
20
20
20
20
20
20
20
20
20
20
20
20
0.3614989
0.3614599
0.3614229
0.361389
0.3613597
0.6350399
0.6350055
0.6349705
0.6349341
0.6348946
0.7261364
20
20
20
20
20
20
20
20
20
20
20
20
20
20
20
20
20
20
20
20
20
20
20
20
20
20
20
20
20
20
20
20
20
20
20
20
20
20
20
20
20
20
20
20
20
20
20
20
20
20
20
20
20
20
20
0.08731323
0.08718517
0.08704603
0.08688817
0.08669108
0.08640504
0.08591817
0.08425132
20
20
20
20
20
0.08742405
0.08729581
0.08715846
0.08700499
0.0868135
0.08653392
0.08606077
0.08519087
0.08251699
20
20
20
20
20
0.08752931
0.08740337
0.08727182
0.08713231
0.08697398
0.08676778
0.08645857
0.08595499
0.08515477
0.08332312
20
20
20
20
20
0.08762937
0.08750759
0.08738261
0.08725576
0.08712411
0.08697683
0.08678932
0.08652862
0.08617488
0.08585122
0.3594409
20
20
20
20
20
0.08772474
0.0876087
0.08749079
0.08737406
0.08725997
0.08714673
0.08702795
0.08689242
0.08674262
0.08664596
0.3605021
0.3596013
20
20
20
20
20
0.08781579
0.08770689
0.08759666
0.08748862
0.08738576
0.08729025
0.08720275
0.08712352
0.08705645
0.08703524
0.3608709
0.360587
0.3598322
20
20
20
20
20
0.08790276
0.08780217
0.08770032
0.08760039
0.08750548
0.08741866
0.08734322
0.08728275
0.08724386
0.08724222
0.3610449
0.3609189
0.3606889
0.3601027
20
20
20
20
20
0.08798575
0.0878944
0.0878015
0.08770953
0.08762094
0.08753851
0.08746559
0.08740693
0.08736973
0.0873671
0.3611402
0.361066
0.3609654
0.3607933
0.360382
20
20
20
20
20
0.08806478
0.08798323
0.08789959
0.08781543
0.08773233
0.08765211
0.08757728
0.08751187
0.08746361
0.08744825
0.3612007
0.3611439
0.3610831
0.3610082
0.3608912
0.6346142
20
20
20
20
20
0.08813985
0.0880681
0.08799353
0.08791685
0.08783866
0.08775961
0.08768066
0.0876037
0.08753397
0.08749019
0.3612401
0.3611927
0.3611474
0.3611026
0.3610531
0.6348327
0.6346825
20
20
20
20
20
20
20
20
20
20
20
20
20
20
20
0.3612627
0.3612312
0.3611986
0.3611672
0.3611388
0.6349079
0.6348509
0.6347455
20
20
20
20
20
20
20
20
20
20
20
20
20
20
20
0.3613456
0.3613077
0.3612722
0.3612406
0.3612143
0.6349563
0.6349162
0.6348675
0.6347912
20
20
20
20
20
20
20
20
20
20
20
20
20
20
20
0.3614244
0.3613851
0.3613484
0.3613153
0.3612875
0.6349987
0.6349628
0.6349247
0.634881
0.6348218
20
20
20
20
20
20
20
20
20
20
20
20
20
20
20
0.3614955
0.3614568
0.36142
0.3613862
0.3613569
0.6350382
0.6350038
0.6349685
0.6349317
0.634891
0.7261308
20
20
20
20
20
20
20
20
20
20
20
20
20
20
20
0.3615592
0.3615216
0.3614854
0.3614516
0.3614214
0.635075
0.6350416
0.6350074
0.6349726
0.6349366
0.7261731
0.7261384
20
20
20
20
20
20
20
20
20
20
20
20
20
20
20
20
20
20
20
20
20
20
20
20
20
20
20
20
20
20
20
20
20
20
20
20
20
20
20
20
20
20
20
20
20
20
20
20
20
20
20
20
20
20
20
20
20
20
20
20
0.08743051
0.08731197
0.08718572
0.0870495
0.08689581
0.08670758
0.08644826
0.08604232
0.08460414
20
20
20
20
20
0.08753402
0.08741508
0.08729051
0.08715898
0.087014
0.08683799
0.08659755
0.08623521
0.08566902
0.08407114
20
20
20
20
20
0.08763246
0.08751508
0.0873942
0.08727098
0.08714336
0.08700348
0.08683314
0.08660821
0.08631319
0.08603279
0.3596095
20
20
20
20
20
0.08772624
0.08761226
0.08749622
0.08738088
0.08726767
0.08715523
0.08703837
0.08690793
0.08676741
0.0866776
0.3605322
0.3596742
20
20
20
20
20
0.08781579
0.08770689
0.08759666
0.08748862
0.08738576
0.08729025
0.08720275
0.08712352
0.08705645
0.08703524
0.3608709
0.360587
0.3598322
20
20
20
20
20
0.08790143
0.08779904
0.08769561
0.08759465
0.08749954
0.08741356
0.08733998
0.08728199
0.0872454
0.08724534
0.3610462
0.3609137
0.3606689
0.3600514
20
20
20
20
20
0.08798334
0.08788866
0.08779288
0.08769907
0.08761028
0.08752977
0.08746122
0.08740916
0.08737939
0.08738218
0.3611498
0.3610713
0.36096
0.3607646
0.3603021
20
20
20
20
20
0.08806157
0.08797551
0.08788805
0.08780152
0.08771827
0.08764096
0.08757286
0.08751844
0.08748435
0.08748049
0.3612206
0.361161
0.3610937
0.3610057
0.3608622
0.6345587
20
20
20
20
20
0.08813612
0.08805923
0.08798042
0.08790116
0.08782295
0.0877475
0.08767714
0.08761559
0.08756967
0.08755314
0.361273
0.3612213
0.3611695
0.3611151
0.3610505
0.6348164
0.6346196
20
20
20
20
20
0.08820694
0.08813926
0.08806894
0.08799669
0.08792306
0.0878487
0.08777448
0.08770217
0.0876365
0.08759425
0.3613111
0.3612658
0.3612229
0.361182
0.3611426
0.6349039
0.6348353
0.634687
20
20
20
20
20
20
20
20
20
20
20
20
20
20
20
0.3613359
0.3613046
0.3612718
0.36124
0.3612114
0.6349529
0.6349102
0.6348537
0.6347491
20
20
20
20
20
20
20
20
20
20
20
20
20
20
20
0.3614144
0.3613773
0.3613421
0.3613098
0.3612819
0.634995
0.6349584
0.6349187
0.6348703
0.6347946
20
20
20
20
20
20
20
20
20
20
20
20
20
20
20
0.3614888
0.3614507
0.3614145
0.3613812
0.361352
0.6350353
0.6350006
0.634965
0.6349272
0.6348839
0.7261188
20
20
20
20
20
20
20
20
20
20
20
20
20
20
20
0.3615559
0.3615185
0.3614826
0.3614489
0.3614188
0.6350735
0.63504
0.6350057
0.6349707
0.6349342
0.7261704
0.7261329
20
20
20
20
20
20
20
20
20
20
20
20
20
20
20
0.3616161
0.3615799
0.3615448
0.3615114
0.3614808
0.6351091
0.6350766
0.6350433
0.6350094
0.6349748
0.7262043
0.7261749
0.7261401
20
20
20
20
20
20
20
20
20
20
20
20
20
20
20
20
20
20
20
20
20
20
20
20
20
20
20
20
20
20
20
20
20
20
20
20
20
20
20
20
20
20
20
20
20
20
20
20
20
20
20
20
20
20
20
20
20
20
20
20
20
20
20
20
20
0.08753994
0.08742948
0.087313
0.08719014
0.08705865
0.08691242
0.08673998
0.08652119
0.0862239
0.08523648
20
20
20
20
20
0.08763684
0.08752581
0.08741067
0.08729225
0.08716941
0.08703761
0.08688618
0.08670165
0.08647659
0.08625935
0.3598604
20
20
20
20
20
0.08772913
0.08761922
0.08750678
0.08739407
0.08728235
0.08717089
0.08705647
0.08693346
0.0868075
0.08672938
0.3605853
0.3598187
20
20
20
20
20
0.0878172
0.08771022
0.0876017
0.08749482
0.08739231
0.08729634
0.0872079
0.08712803
0.08706167
0.087041
0.3608778
0.3606115
0.3598941
20
20
20
20
20
0.08790143
0.08779904
0.08769561
0.08759465
0.08749954
0.08741356
0.08733998
0.08728199
0.0872454
0.08724534
0.3610462
0.3609137
0.3606689
0.3600514
20
20
20
20
20
0.08798208
0.08788571
0.08778845
0.08769368
0.08760475
0.08752515
0.08745865
0.08740955
0.08738294
0.087388
0.3611536
0.3610728
0.3609561
0.3607485
0.3602609
20
20
20
20
20
0.08805929
0.08797011
0.08787994
0.08779168
0.08770824
0.08763276
0.08756888
0.08752089
0.08749428
0.08749588
0.3612309
0.3611697
0.3610983
0.3610011
0.360839
0.6345188
20
20
20
20
20
0.08813309
0.08805198
0.08796957
0.08788808
0.0878097
0.08773693
0.08767281
0.08762146
0.08758871
0.08758285
0.3612915
0.3612383
0.3611831
0.3611224
0.3610464
0.6348011
0.634565
20
20
20
20
20
0.08820342
0.08813094
0.08805664
0.08798195
0.08790827
0.08783721
0.08777091
0.08771274
0.08766885
0.08765123
0.3613407
0.3612916
0.3612437
0.3611964
0.361148
0.6349008
0.634819
0.634625
20
20
20
20
20
0.08827024
0.08820641
0.0881401
0.08807198
0.08800262
0.0879326
0.08786277
0.08779473
0.08773281
0.08769217
0.3613782
0.3613347
0.361293
0.3612536
0.3612167
0.6349524
0.634906
0.634838
0.6346914
20
20
20
20
20
20
20
20
20
20
20
20
20
20
20
0.3614047
0.3613737
0.361341
0.3613088
0.3612792
0.6349924
0.6349549
0.6349126
0.6348564
0.6347528
20
20
20
20
20
20
20
20
20
20
20
20
20
20
20
0.3614791
0.3614431
0.3614084
0.3613757
0.3613465
0.6350319
0.6349969
0.6349606
0.6349211
0.6348731
0.7260985
20
20
20
20
20
20
20
20
20
20
20
20
20
20
20
0.3615494
0.3615127
0.3614773
0.3614441
0.361414
0.6350707
0.635037
0.6350026
0.6349671
0.6349296
0.726165
0.7261209
20
20
20
20
20
20
20
20
20
20
20
20
20
20
20
0.3616129
0.361577
0.361542
0.3615088
0.3614782
0.6351076
0.635075
0.6350417
0.6350076
0.6349729
0.7262025
0.7261722
0.7261345
20
20
20
20
20
20
20
20
20
20
20
20
20
20
20
0.3616698
0.3616351
0.3616011
0.3615684
0.3615378
0.6351419
0.6351105
0.6350781
0.635045
0.6350113
0.7262328
0.7262059
0.7261763
0.7261412
20
20
20
20
20
20
20
20
20
20
20
20
20
20
20
20
20
20
20
20
20
20
20
20
20
20
20
20
20
20
20
20
20
20
20
20
20
20
20
20
20
20
20
20
20
20
20
20
20
20
20
20
20
20
20
20
20
20
20
20
20
20
20
20
20
20
20
20
20
20
0.08764234
0.087539
0.0874306
0.08731752
0.08719934
0.08707445
0.08693916
0.08678945
0.08662541
0.08647174
0.3601805
20
20
20
20
20
0.08773323
0.08762918
0.08752183
0.08741267
0.0873026
0.08719141
0.08707776
0.08695978
0.08684561
0.08677749
0.3606463
0.3600295
20
20
20
20
20
0.08781992
0.08771673
0.08761151
0.08750682
0.08740491
0.08730772
0.08721669
0.08713413
0.08706692
0.08704581
0.3608874
0.3606548
0.3600157
20
20
20
20
20
0.08790276
0.08780217
0.08770032
0.08760039
0.08750548
0.08741866
0.08734322
0.08728275
0.08724386
0.08724222
0.3610449
0.3609189
0.3606889
0.3601027
20
20
20
20
20
0.08798208
0.08788571
0.08778845
0.08769368
0.08760475
0.08752515
0.08745865
0.08740955
0.08738294
0.087388
0.3611536
0.3610728
0.3609561
0.3607485
0.3602609
20
20
20
20
20
0.08805811
0.08796734
0.08787577
0.08778661
0.08770304
0.08762844
0.08756654
0.08752151
0.08749816
0.08750216
0.3612353
0.3611734
0.3610998
0.360998
0.3608262
0.6344981
20
20
20
20
20
0.08813093
0.0880469
0.08796194
0.08787882
0.08780025
0.08772917
0.08766896
0.08762365
0.08759795
0.0875973
0.3613014
0.3612476
0.3611906
0.3611259
0.3610422
0.6347893
0.6345257
20
20
20
20
20
0.08820057
0.08812412
0.08804645
0.08796964
0.08789579
0.08782718
0.08776663
0.08771786
0.08768607
0.08767821
0.3613575
0.3613074
0.3612574
0.3612063
0.3611518
0.6348979
0.6348039
0.6345712
20
20
20
20
20
0.08826694
0.08819861
0.08812856
0.08805815
0.08798871
0.08792173
0.0878592
0.08780418
0.08776218
0.08774387
0.3614047
0.3613577
0.3613118
0.3612673
0.361224
0.6349535
0.6349027
0.6348217
0.6346304
20
20
20
20
20
0.08832997
0.08826979
0.08820726
0.08814304
0.08807766
0.0880117
0.08794595
0.08788189
0.08782349
0.08778453
0.3614419
0.3613999
0.3613594
0.3613206
0.3612842
0.634993
0.6349542
0.6349081
0.6348406
0.6346958
20
20
20
20
20
20
20
20
20
20
20
20
20
20
20
0.3614695
0.3614391
0.3614067
0.3613743
0.3613438
0.6350296
0.6349943
0.634957
0.6349149
0.6348592
0.7260674
20
20
20
20
20
20
20
20
20
20
20
20
20
20
20
0.3615401
0.3615053
0.3614712
0.3614387
0.3614087
0.6350674
0.6350336
0.6349989
0.6349627
0.6349236
0.726157
0.7261006
20
20
20
20
20
20
20
20
20
20
20
20
20
20
20
0.3616066
0.3615713
0.3615369
0.3615041
0.3614736
0.6351049
0.6350722
0.6350388
0.6350045
0.6349693
0.7261991
0.7261668
0.7261225
20
20
20
20
20
20
20
20
20
20
20
20
20
20
20
0.3616667
0.3616323
0.3615984
0.3615659
0.3615353
0.6351405
0.635109
0.6350766
0.6350434
0.6350096
0.7262313
0.7262041
0.7261736
0.7261357
20
20
20
20
20
20
20
20
20
20
20
20
20
20
20
0.3617205
0.3616874
0.3616546
0.3616227
0.3615924
0.6351736
0.6351432
0.6351119
0.6350797
0.6350468
0.72626
0.7262342
0.7262071
0.7261773
0.7261419
20
20
20
20
20
20
20
20
20
20
20
20
20
20
20
20
20
20
20
20
20
20
20
20
20
20
20
20
20
20
20
20
20
20
20
20
20
20
20
20
20
20
20
20
20
20
20
20
20
20
20
20
20
20
20
20
20
20
20
20
20
20
20
20
20
20
20
20
20
0.3604802
20
20
20
20
20
0.08773836
0.08764144
0.08754009
0.08743495
0.08732632
0.08721409
0.08709788
0.08697772
0.08686051
0.08677945
0.3606901
0.3602866
20
20
20
20
20
0.08782377
0.08772605
0.0876255
0.0875238
0.08742247
0.08732293
0.08722665
0.08713673
0.08706212
0.08703442
0.3608904
0.3607043
0.3601899
20
20
20
20
20
0.08790532
0.08780828
0.08770951
0.08761156
0.08751693
0.08742827
0.08734871
0.08728238
0.08723739
0.08723148
0.3610397
0.3609258
0.3607241
0.3602028
20
20
20
20
20
0.08798334
0.08788866
0.08779288
0.08769907
0.08761028
0.08752977
0.08746122
0.08740916
0.08737939
0.08738218
0.3611498
0.3610713
0.36096
0.3607646
0.3603021
20
20
20
20
20
0.08805811
0.08796734
0.08787577
0.08778661
0.08770304
0.08762844
0.08756654
0.08752151
0.08749816
0.08750216
0.3612353
0.3611734
0.3610998
0.360998
0.3608262
0.6344981
20
20
20
20
20
0.08812981
0.08804429
0.08795802
0.08787405
0.08779534
0.08772507
0.08766673
0.08762421
0.08760163
0.0876033
0.3613058
0.3612517
0.3611938
0.3611271
0.3610396
0.6347829
0.6345053
20
20
20
20
20
0.08819853
0.08811934
0.08803927
0.08796093
0.08788687
0.08781981
0.08776287
0.08771968
0.08769443
0.08769141
0.3613666
0.3613163
0.3612652
0.3612121
0.3611539
0.6348955
0.6347923
0.6345325
20
20
20
20
20
0.08826424
0.0881922
0.08811898
0.08804658
0.08797695