/*--------------------------------*- C++ -*----------------------------------*\
| =========                 |                                                 |
| \\      /  F ield         | OpenFOAM: The Open Source CFD Toolbox           |
|  \\    /   O peration     | Version:  2306                                  |
|   \\  /    A nd           | Website:  www.openfoam.com                      |
|    \\/     M anipulation  |                                                 |
\*---------------------------------------------------------------------------*/
FoamFile
{
    version     2.0;
    format      ascii;
    arch        "LSB;label=32;scalar=64";
    class       volScalarField;
    location    "1.5";
    object      rhoCp;
}
// * * * * * * * * * * * * * * * * * * * * * * * * * * * * * * * * * * * * * //

dimensions      [1 -1 -2 -1 0 0 0];

internalField   nonuniform List<scalar> 
52000
(
5346000
5346000
5346000
5346000
5346000
5346000
5346000
5346000
5346000
5346000
5346000
5346000
5346000
5346000
5346000
5346000
5346000
5346000
5346000
5346000
5346000
5346000
5346000
5346000
5346000
5346000
5346000
5346000
5346000
5346000
5346000
5346000
5346000
5346000
5346000
5346000
5346000
5346000
5346000
5346000
5346000
5346000
5346000
5346000
5346000
5346000
5346000
5346000
5346000
5346000
5346000
5346000
5346000
5346000
5346000
5346000
5346000
5346000
5346000
5346000
5346000
5346000
5346000
5346000
5346000
5346000
5346000
5346000
5346000
5346000
5346000
5346000
5346000
5346000
5346000
5346000
5346000
5346000
5346000
5346000
5346000
5346000
5346000
5346000
5346000
5346000
5346000
5346000
5346000
5346000
5346000
5346000
5346000
5346000
5346000
5346000
5346000
5346000
5346000
5346000
5346000
5346000
5346000
5346000
5346000
5346000
5346000
5346000
5346000
5346000
5346000
5346000
5346000
5346000
5346000
5346000
5346000
5346000
5346000
5346000
5346000
5346000
5346000
5346000
5346000
5346000
5346000
5346000
5346000
5346000
5346000
5346000
5346000
5346000
5346000
5346000
5346000
5346000
5346000
5346000
5346000
5346000
5346000
5346000
5346000
5346000
5346000
5346000
5346000
5346000
5346000
5346000
5346000
5346000
5346000
5346000
5346000
5346000
5346000
5346000
5346000
5346000
5346000
5346000
5346000
5346000
5346000
5346000
5346000
5346000
5346000
5346000
5346000
5346000
5346000
5346000
5346000
5346000
5346000
5346000
5346000
5346000
5346000
5346000
5346000
5346000
5346000
5346000
5346000
5346000
5346000
5346000
5346000
5346000
5346000
5346000
5346000
5346000
5346000
5346000
5346000
5346000
5346000
5346000
5346000
5346000
5346000
5346000
5346000
5346000
5346000
5346000
5346000
5346000
5346000
5346000
5346000
5346000
5346000
5346000
5346000
5346000
5346000
5346000
5346000
5346000
5346000
5346000
5346000
5346000
5346000
5346000
5346000
5346000
5346000
5346000
5346000
5346000
5346000
5346000
343.2651
5346000
5346000
5346000
5346000
5346000
5346000
5346000
5346000
5346000
5346000
5346000
5346000
5346000
5346000
5346000
5346000
5346000
5346000
5346000
5346000
5346000
5346000
5346000
5346000
5346000
5346000
5346000
5346000
5346000
5346000
5346000
5346000
5346000
5346000
5346000
5346000
5346000
5346000
5346000
5346000
5346000
5346000
5346000
5346000
5346000
5346000
5346000
5346000
5346000
5346000
5346000
5346000
5346000
5346000
5346000
5346000
5346000
5346000
5346000
5346000
5346000
5346000
5346000
5346000
5346000
346.5393
5346000
5346000
5346000
5346000
5346000
339.4998
346.5977
5346000
5346000
5346000
5346000
5346000
5346000
5346000
5346000
5346000
5346000
5346000
5346000
5346000
5346000
5346000
5346000
5346000
5346000
5346000
5346000
5346000
5346000
5346000
5346000
5346000
5346000
5346000
5346000
5346000
5346000
5346000
5346000
5346000
5346000
5346000
5346000
5346000
5346000
5346000
5346000
5346000
5346000
5346000
5346000
5346000
5346000
5346000
5346000
5346000
5346000
5346000
5346000
5346000
5346000
5346000
5346000
5346000
5346000
5346000
5346000
5346000
5346000
5346000
5346000
5346000
5346000
5346000
5346000
5346000
5346000
348.3876
5346000
5346000
5346000
5346000
5346000
340.2506
354.8508
5346000
5346000
5346000
5346000
5346000
338.5198
340.2586
348.4977
5346000
5346000
5346000
5346000
5346000
5346000
5346000
5346000
5346000
5346000
5346000
5346000
5346000
5346000
5346000
5346000
5346000
5346000
5346000
5346000
5346000
5346000
5346000
5346000
5346000
5346000
5346000
5346000
5346000
5346000
5346000
5346000
5346000
5346000
5346000
5346000
5346000
5346000
5346000
5346000
5346000
5346000
5346000
5346000
5346000
5346000
5346000
5346000
5346000
5346000
5346000
5346000
5346000
5346000
5346000
5346000
5346000
5346000
5346000
5346000
5346000
5346000
5346000
5346000
5346000
5346000
5346000
5346000
5346000
5346000
5346000
5346000
5346000
5346000
5346000
349.4499
5346000
5346000
5346000
5346000
5346000
340.9039
360.22
5346000
5346000
5346000
5346000
5346000
338.8059
342.4915
360.3095
5346000
5346000
5346000
5346000
5346000
337.7244
338.7877
340.9172
349.6212
5346000
5346000
5346000
5346000
5346000
5346000
5346000
5346000
5346000
5346000
5346000
5346000
5346000
5346000
5346000
5346000
5346000
5346000
5346000
5346000
5346000
5346000
5346000
5346000
5346000
5346000
5346000
5346000
5346000
5346000
5346000
5346000
5346000
5346000
5346000
5346000
5346000
5346000
5346000
5346000
5346000
5346000
5346000
5346000
5346000
5346000
5346000
5346000
5346000
5346000
5346000
5346000
5346000
5346000
5346000
5346000
5346000
5346000
5346000
5346000
5346000
5346000
5346000
5346000
5346000
5346000
5346000
5346000
5346000
5346000
5346000
5346000
5346000
5346000
5346000
5346000
5346000
5346000
5346000
5346000
349.9464
5346000
5346000
5346000
5346000
5346000
341.3865
363.5273
5346000
5346000
5346000
5346000
5346000
339.0628
344.4766
368.7184
5346000
5346000
5346000
5346000
5346000
337.8537
339.625
344.4993
363.7718
5346000
5346000
5346000
5346000
5346000
337.0296
337.8262
339.0257
341.4068
350.1981
5346000
5346000
5346000
5346000
5346000
5346000
5346000
5346000
5346000
5346000
5346000
5346000
5346000
5346000
5346000
5346000
5346000
5346000
5346000
5346000
5346000
5346000
5346000
5346000
5346000
5346000
5346000
5346000
5346000
5346000
5346000
5346000
5346000
5346000
5346000
5346000
5346000
5346000
5346000
5346000
5346000
5346000
5346000
5346000
5346000
5346000
5346000
5346000
5346000
5346000
5346000
5346000
5346000
5346000
5346000
5346000
5346000
5346000
5346000
5346000
5346000
5346000
5346000
5346000
5346000
5346000
5346000
5346000
5346000
5346000
5346000
5346000
5346000
5346000
5346000
5346000
5346000
5346000
5346000
5346000
5346000
5346000
5346000
5346000
5346000
349.9464
5346000
5346000
5346000
5346000
5346000
341.6429
365.1196
5346000
5346000
5346000
5346000
5346000
339.2595
345.9649
374.2153
5346000
5346000
5346000
5346000
5346000
337.9667
340.3922
347.7651
374.4369
5346000
5346000
5346000
5346000
5346000
337.0998
338.1866
340.3748
346.0337
365.6091
5346000
5346000
5346000
5346000
5346000
336.3991
337.0709
337.9115
339.2
341.6719
350.304
5346000
5346000
5346000
5346000
5346000
5346000
5346000
5346000
5346000
5346000
5346000
5346000
5346000
5346000
5346000
5346000
5346000
5346000
5346000
5346000
5346000
5346000
5346000
5346000
5346000
5346000
5346000
5346000
5346000
5346000
5346000
5346000
5346000
5346000
5346000
5346000
5346000
5346000
5346000
5346000
5346000
5346000
5346000
5346000
5346000
5346000
5346000
5346000
5346000
5346000
5346000
5346000
5346000
5346000
5346000
5346000
5346000
5346000
5346000
5346000
5346000
5346000
5346000
5346000
5346000
5346000
5346000
5346000
5346000
338.8347
5346000
5346000
5346000
5346000
5346000
5346000
5346000
5346000
5346000
5346000
5346000
5346000
5346000
5346000
5346000
5346000
5346000
5346000
5346000
5346000
349.4499
5346000
5346000
5346000
5346000
5346000
341.6429
365.1196
5346000
5346000
5346000
5346000
5346000
339.3666
346.7621
376.9531
5346000
5346000
5346000
5346000
5346000
338.0522
340.9871
350.261
381.7026
5346000
5346000
5346000
5346000
5346000
337.1584
338.5111
341.6354
350.3345
377.5802
5346000
5346000
5346000
5346000
5346000
336.4452
337.2537
338.4792
340.9519
346.9018
365.953
5346000
5346000
5346000
5346000
5346000
335.8235
336.4177
337.1006
337.9641
339.2784
341.6778
349.9427
5346000
5346000
5346000
5346000
5346000
5346000
5346000
5346000
5346000
5346000
5346000
5346000
5346000
5346000
5346000
5346000
5346000
5346000
5346000
5346000
5346000
5346000
5346000
5346000
5346000
5346000
5346000
5346000
5346000
5346000
5346000
5346000
5346000
5346000
5346000
5346000
5346000
5346000
5346000
5346000
5346000
5346000
5346000
5346000
5346000
5346000
5346000
5346000
5346000
5346000
5346000
5346000
5346000
5346000
5346000
5346000
5346000
338.8812
5346000
5346000
5346000
5346000
5346000
5346000
5346000
5346000
5346000
5346000
5346000
5346000
5346000
5346000
5346000
338.0668
338.3736
5346000
5346000
5346000
5346000
5346000
5346000
5346000
5346000
5346000
5346000
5346000
5346000
5346000
5346000
5346000
5346000
5346000
5346000
5346000
5346000
348.3876
5346000
5346000
5346000
5346000
5346000
341.3865
363.5273
5346000
5346000
5346000
5346000
5346000
339.3666
346.7621
376.9531
5346000
5346000
5346000
5346000
5346000
338.0985
341.3131
351.6137
385.4124
5346000
5346000
5346000
5346000
5346000
337.2015
338.7605
342.6272
353.6757
385.9262
5346000
5346000
5346000
5346000
5346000
336.482
337.4129
339.0011
342.6138
351.8184
378.1848
5346000
5346000
5346000
5346000
5346000
335.859
336.53
337.3781
338.6871
341.2542
346.9839
364.8038
5346000
5346000
5346000
5346000
5346000
335.2916
335.8338
336.4271
337.1092
337.969
339.2382
341.4123
349.051
5346000
5346000
5346000
5346000
5346000
5346000
5346000
5346000
5346000
5346000
5346000
5346000
5346000
5346000
5346000
5346000
5346000
5346000
5346000
5346000
5346000
5346000
5346000
5346000
5346000
5346000
5346000
5346000
5346000
5346000
5346000
5346000
5346000
5346000
5346000
5346000
5346000
5346000
5346000
5346000
5346000
5346000
5346000
5346000
338.9781
5346000
5346000
5346000
5346000
5346000
5346000
5346000
5346000
5346000
5346000
5346000
5346000
5346000
5346000
5346000
338.0938
338.4284
5346000
5346000
5346000
5346000
5346000
5346000
5346000
5346000
5346000
5346000
5346000
5346000
5346000
5346000
5346000
337.3491
337.6471
337.9072
5346000
5346000
5346000
5346000
5346000
5346000
5346000
5346000
5346000
5346000
5346000
5346000
5346000
5346000
5346000
5346000
5346000
5346000
5346000
5346000
346.5393
5346000
5346000
5346000
5346000
5346000
340.9039
360.22
5346000
5346000
5346000
5346000
5346000
339.2595
345.9649
374.2153
5346000
5346000
5346000
5346000
5346000
338.0985
341.3131
351.6137
385.4124
5346000
5346000
5346000
5346000
5346000
337.2245
338.8967
343.1754
355.5055
390.249
5346000
5346000
5346000
5346000
5346000
336.5083
337.532
339.4083
343.9375
355.6766
386.7556
5346000
5346000
5346000
5346000
5346000
335.8866
336.6244
337.6255
339.3625
343.1469
351.9862
376.2231
5346000
5346000
5346000
5346000
5346000
335.3217
335.9167
336.5908
337.4504
338.7658
341.2112
346.2462
362.0416
5346000
5346000
5346000
5346000
5346000
334.799
335.2989
335.8361
336.4204
337.089
337.9151
339.0707
340.8841
347.4393
5346000
5346000
5346000
5346000
5346000
5346000
5346000
5346000
5346000
5346000
5346000
5346000
5346000
5346000
5346000
5346000
5346000
5346000
5346000
5346000
5346000
5346000
5346000
5346000
5346000
5346000
5346000
5346000
5346000
5346000
339.146
5346000
5346000
5346000
5346000
5346000
5346000
5346000
5346000
5346000
5346000
5346000
5346000
5346000
5346000
5346000
338.1469
338.5485
5346000
5346000
5346000
5346000
5346000
5346000
5346000
5346000
5346000
5346000
5346000
5346000
5346000
5346000
5346000
337.3705
337.6736
337.9688
5346000
5346000
5346000
5346000
5346000
5346000
5346000
5346000
5346000
5346000
5346000
5346000
5346000
5346000
5346000
336.6923
336.982
337.2251
337.4314
5346000
5346000
5346000
5346000
5346000
5346000
5346000
5346000
5346000
5346000
5346000
5346000
5346000
5346000
5346000
5346000
5346000
5346000
5346000
5346000
343.2651
5346000
5346000
5346000
5346000
5346000
340.2506
354.8508
5346000
5346000
5346000
5346000
5346000
339.0628
344.4766
368.7184
5346000
5346000
5346000
5346000
5346000
338.0522
340.9871
350.261
381.7026
5346000
5346000
5346000
5346000
5346000
337.2245
338.8967
343.1754
355.5055
390.249
5346000
5346000
5346000
5346000
5346000
336.522
337.5961
339.6328
344.6747
357.8037
391.2088
5346000
5346000
5346000
5346000
5346000
335.9059
336.6928
337.8136
339.8963
344.6666
355.9215
384.1227
5346000
5346000
5346000
5346000
5346000
335.3449
335.9845
336.7317
337.7599
339.5192
343.1108
350.7819
371.6235
5346000
5346000
5346000
5346000
5346000
334.8259
335.3679
335.9535
336.6136
337.4495
338.6828
340.8011
344.7428
357.343
5346000
5346000
5346000
5346000
5346000
334.3402
334.8052
335.2989
335.8249
336.393
337.0341
337.7962
338.7774
340.1087
344.5743
5346000
5346000
5346000
5346000
5346000
5346000
5346000
5346000
5346000
5346000
5346000
5346000
5346000
5346000
5346000
339.4921
5346000
5346000
5346000
5346000
5346000
5346000
5346000
5346000
5346000
5346000
5346000
5346000
5346000
5346000
5346000
338.2256
338.7743
5346000
5346000
5346000
5346000
5346000
5346000
5346000
5346000
5346000
5346000
5346000
5346000
5346000
5346000
5346000
337.4117
337.7252
338.1058
5346000
5346000
5346000
5346000
5346000
5346000
5346000
5346000
5346000
5346000
5346000
5346000
5346000
5346000
5346000
336.7111
337.0007
337.2514
337.4974
5346000
5346000
5346000
5346000
5346000
5346000
5346000
5346000
5346000
5346000
5346000
5346000
5346000
5346000
5346000
336.0963
336.3734
336.6135
336.798
336.9546
5346000
5346000
5346000
5346000
5346000
5346000
5346000
5346000
5346000
5346000
5346000
5346000
5346000
5346000
5346000
5346000
5346000
5346000
5346000
5346000
5346000
5346000
5346000
5346000
5346000
339.4998
346.5977
5346000
5346000
5346000
5346000
5346000
338.8059
342.4915
360.3095
5346000
5346000
5346000
5346000
5346000
337.9667
340.3922
347.7651
374.4369
5346000
5346000
5346000
5346000
5346000
337.2015
338.7605
342.6272
353.6757
385.9262
5346000
5346000
5346000
5346000
5346000
336.522
337.5961
339.6328
344.6747
357.8037
391.2088
5346000
5346000
5346000
5346000
5346000
335.9158
336.7288
337.9157
340.1929
345.5171
358.0947
388.1949
5346000
5346000
5346000
5346000
5346000
335.3609
336.0324
336.8355
337.9987
340.1206
344.6421
354.334
378.0601
5346000
5346000
5346000
5346000
5346000
334.8465
335.4234
336.0516
336.7828
337.7817
339.4167
342.4741
348.3342
364.1992
5346000
5346000
5346000
5346000
5346000
334.3648
334.8664
335.3951
335.959
336.5865
337.3594
338.4241
340.0488
342.6004
349.9596
5346000
5346000
5346000
5346000
5346000
333.9122
334.346
334.8045
335.2868
335.7967
336.341
336.9395
337.6075
338.3526
339.0524
341.3154
5346000
5346000
5346000
5346000
5346000
5346000
5346000
5346000
5346000
5346000
5346000
5346000
5346000
5346000
5346000
338.304
339.2548
5346000
5346000
5346000
5346000
5346000
5346000
5346000
5346000
5346000
5346000
5346000
5346000
5346000
5346000
5346000
337.4689
337.7983
338.3652
5346000
5346000
5346000
5346000
5346000
5346000
5346000
5346000
5346000
5346000
5346000
5346000
5346000
5346000
5346000
336.747
337.0346
337.3023
337.6442
5346000
5346000
5346000
5346000
5346000
5346000
5346000
5346000
5346000
5346000
5346000
5346000
5346000
5346000
5346000
336.1136
336.389
336.6301
336.8241
337.0226
5346000
5346000
5346000
5346000
5346000
5346000
5346000
5346000
5346000
5346000
5346000
5346000
5346000
5346000
5346000
335.5441
335.8186
336.0534
336.2414
336.3742
336.6757
5346000
5346000
5346000
5346000
5346000
5346000
5346000
5346000
5346000
5346000
5346000
5346000
5346000
5346000
5346000
5346000
5346000
5346000
5346000
5346000
5346000
5346000
5346000
5346000
5346000
5346000
5346000
5346000
5346000
5346000
338.5198
340.2586
348.4977
5346000
5346000
5346000
5346000
5346000
337.8537
339.625
344.4993
363.7718
5346000
5346000
5346000
5346000
5346000
337.1584
338.5111
341.6354
350.3345
377.5802
5346000
5346000
5346000
5346000
5346000
336.5083
337.532
339.4083
343.9375
355.6766
386.7556
5346000
5346000
5346000
5346000
5346000
335.9158
336.7288
337.9157
340.1929
345.5171
358.0947
388.1949
5346000
5346000
5346000
5346000
5346000
335.3691
336.0572
336.8907
338.1295
340.4568
345.501
356.2896
381.3197
5346000
5346000
5346000
5346000
5346000
334.8606
335.4621
336.1218
336.9092
338.0414
340.0076
343.8255
351.1231
368.622
5346000
5346000
5346000
5346000
5346000
334.3837
334.9153
335.4741
336.0727
336.7589
337.6654
339.0372
341.3005
344.9344
353.4865
5346000
5346000
5346000
5346000
5346000
333.9349
334.4019
334.8894
335.3949
335.9251
336.4998
337.1696
337.9915
339.0067
339.9845
343.3409
5346000
5346000
5346000
5346000
5346000
333.5117
333.9177
334.3453
334.793
335.2599
335.7486
336.2602
336.7982
337.3299
337.7177
338.1065
340.6598
5346000
5346000
5346000
5346000
5346000
5346000
5346000
5346000
5346000
5346000
5346000
5346000
5346000
5346000
5346000
337.4963
337.8616
338.8774
5346000
5346000
5346000
5346000
5346000
5346000
5346000
5346000
5346000
5346000
5346000
5346000
5346000
5346000
5346000
336.7956
337.0723
337.3741
337.916
5346000
5346000
5346000
5346000
5346000
5346000
5346000
5346000
5346000
5346000
5346000
5346000
5346000
5346000
5346000
336.1466
336.4163
336.6587
336.8752
337.1727
5346000
5346000
5346000
5346000
5346000
5346000
5346000
5346000
5346000
5346000
5346000
5346000
5346000
5346000
5346000
335.5603
335.8327
336.0664
336.2565
336.4003
336.7434
5346000
5346000
5346000
5346000
5346000
5346000
5346000
5346000
5346000
5346000
5346000
5346000
5346000
5346000
5346000
335.033
335.3008
335.5397
335.7302
335.8736
336.1281
336.6407
5346000
5346000
5346000
5346000
5346000
5346000
5346000
5346000
5346000
5346000
5346000
5346000
5346000
5346000
5346000
5346000
5346000
5346000
5346000
5346000
5346000
5346000
5346000
5346000
5346000
5346000
5346000
5346000
5346000
5346000
5346000
5346000
5346000
5346000
5346000
337.7244
338.7877
340.9172
349.6212
5346000
5346000
5346000
5346000
5346000
337.0998
338.1866
340.3748
346.0337
365.6091
5346000
5346000
5346000
5346000
5346000
336.482
337.4129
339.0011
342.6138
351.8184
378.1848
5346000
5346000
5346000
5346000
5346000
335.9059
336.6928
337.8136
339.8963
344.6666
355.9215
384.1227
5346000
5346000
5346000
5346000
5346000
335.3691
336.0572
336.8907
338.1295
340.4568
345.501
356.2896
381.3197
5346000
5346000
5346000
5346000
5346000
334.8679
335.4819
336.1585
336.977
338.1848
340.3396
344.5839
352.6496
370.8114
5346000
5346000
5346000
5346000
5346000
334.3966
334.9492
335.5298
336.1551
336.8897
337.9087
339.5377
342.3196
346.7428
355.7117
5346000
5346000
5346000
5346000
5346000
333.9524
334.4465
334.9587
335.4848
336.0357
336.6457
337.3988
338.3998
339.7266
340.9858
344.9549
5346000
5346000
5346000
5346000
5346000
333.5328
333.9694
334.4228
334.8878
335.3609
335.8449
336.3451
336.8727
337.3886
337.7115
338.3433
342.2673
5346000
5346000
5346000
5346000
5346000
333.1362
333.5169
333.9171
334.3345
334.7679
335.2156
335.6769
336.1432
336.5875
336.8718
336.9895
337.8066
339.9864
5346000
5346000
5346000
5346000
5346000
5346000
5346000
5346000
5346000
5346000
5346000
5346000
5346000
5346000
5346000
336.8094
337.054
337.442
338.4082
5346000
5346000
5346000
5346000
5346000
5346000
5346000
5346000
5346000
5346000
5346000
5346000
5346000
5346000
5346000
336.1912
336.4428
336.6862
336.9487
337.4417
5346000
5346000
5346000
5346000
5346000
5346000
5346000
5346000
5346000
5346000
5346000
5346000
5346000
5346000
5346000
335.5912
335.8571
336.0873
336.2822
336.4522
336.892
5346000
5346000
5346000
5346000
5346000
5346000
5346000
5346000
5346000
5346000
5346000
5346000
5346000
5346000
5346000
335.0484
335.314
335.5512
335.7413
335.8879
336.1542
336.7084
5346000
5346000
5346000
5346000
5346000
5346000
5346000
5346000
5346000
5346000
5346000
5346000
5346000
5346000
5346000
334.5561
334.8185
335.0563
335.2578
335.4113
335.6596
336.0971
336.6064
5346000
5346000
5346000
5346000
5346000
5346000
5346000
5346000
5346000
5346000
5346000
5346000
5346000
5346000
5346000
5346000
5346000
5346000
5346000
5346000
5346000
5346000
5346000
5346000
5346000
5346000
5346000
5346000
5346000
5346000
5346000
5346000
5346000
5346000
5346000
5346000
5346000
5346000
5346000
5346000
337.0296
337.8262
339.0257
341.4068
350.1981
5346000
5346000
5346000
5346000
5346000
336.4452
337.2537
338.4792
340.9519
346.9018
365.953
5346000
5346000
5346000
5346000
5346000
335.8866
336.6244
337.6255
339.3625
343.1469
351.9862
376.2231
5346000
5346000
5346000
5346000
5346000
335.3609
336.0324
336.8355
337.9987
340.1206
344.6421
354.334
378.0601
5346000
5346000
5346000
5346000
5346000
334.8679
335.4819
336.1585
336.977
338.1848
340.3396
344.5839
352.6496
370.8114
5346000
5346000
5346000
5346000
5346000
334.4032
334.9665
335.5585
336.1984
336.9605
338.0443
339.8209
342.8931
347.729
356.8013
5346000
5346000
5346000
5346000
5346000
333.9643
334.4773
335.007
335.5486
336.117
336.7594
337.5883
338.7482
340.3384
341.7933
346.048
5346000
5346000
5346000
5346000
5346000
333.549
334.0107
334.4858
334.9659
335.446
335.9308
336.434
336.9829
337.5486
337.9105
338.7081
343.6091
5346000
5346000
5346000
5346000
5346000
333.1559
333.5651
333.9889
334.4209
334.8558
335.2875
335.7111
336.1123
336.4545
336.5943
336.8308
337.9953
341.2583
5346000
5346000
5346000
5346000
5346000
332.7837
333.1412
333.5164
333.9071
334.3112
334.727
335.1507
335.5747
335.9679
336.2183
336.2631
336.7486
337.4699
339.2892
5346000
5346000
5346000
5346000
5346000
5346000
5346000
5346000
5346000
5346000
5346000
5346000
5346000
5346000
5346000
336.2028
336.4053
336.6618
337.0283
337.89
5346000
5346000
5346000
5346000
5346000
5346000
5346000
5346000
5346000
5346000
5346000
5346000
5346000
5346000
5346000
335.6333
335.8801
336.1015
336.3068
336.5295
337.1537
5346000
5346000
5346000
5346000
5346000
5346000
5346000
5346000
5346000
5346000
5346000
5346000
5346000
5346000
5346000
335.0778
335.3369
335.5693
335.7585
335.9127
336.2063
336.8566
5346000
5346000
5346000
5346000
5346000
5346000
5346000
5346000
5346000
5346000
5346000
5346000
5346000
5346000
5346000
334.5707
334.831
335.067
335.2675
335.4214
335.6737
336.1231
336.6739
5346000
5346000
5346000
5346000
5346000
5346000
5346000
5346000
5346000
5346000
5346000
5346000
5346000
5346000
5346000
334.1108
334.3656
334.6028
334.809
334.9801
335.2248
335.6325
336.0668
336.5714
5346000
5346000
5346000
5346000
5346000
5346000
5346000
5346000
5346000
5346000
5346000
5346000
5346000
5346000
5346000
5346000
5346000
5346000
5346000
5346000
5346000
5346000
5346000
5346000
5346000
5346000
5346000
5346000
5346000
5346000
5346000
5346000
5346000
5346000
5346000
5346000
5346000
5346000
5346000
5346000
5346000
5346000
5346000
5346000
5346000
336.3991
337.0709
337.9115
339.2
341.6719
350.304
5346000
5346000
5346000
5346000
5346000
335.859
336.53
337.3781
338.6871
341.2542
346.9839
364.8038
5346000
5346000
5346000
5346000
5346000
335.3449
335.9845
336.7317
337.7599
339.5192
343.1108
350.7819
371.6235
5346000
5346000
5346000
5346000
5346000
334.8606
335.4621
336.1218
336.9092
338.0414
340.0076
343.8255
351.1231
368.622
5346000
5346000
5346000
5346000
5346000
334.4032
334.9665
335.5585
336.1984
336.9605
338.0443
339.8209
342.8931
347.729
356.8013
5346000
5346000
5346000
5346000
5346000
333.9705
334.493
335.0318
335.5817
336.1601
336.822
337.6961
338.9492
340.6881
342.2392
346.5974
5346000
5346000
5346000
5346000
5346000
333.5602
334.0392
334.5296
335.0208
335.5071
335.996
336.5095
337.0904
337.7191
338.1301
339.0316
344.5365
5346000
5346000
5346000
5346000
5346000
333.1711
333.6036
334.0472
334.4919
334.929
335.3501
335.7503
336.1182
336.4254
336.5312
336.8284
338.2846
342.354
5346000
5346000
5346000
5346000
5346000
332.802
333.1862
333.5834
333.9873
334.3914
334.7886
335.1682
335.5136
335.7823
335.8764
336.0019
336.6165
337.6326
340.2878
5346000
5346000
5346000
5346000
5346000
332.4522
332.7884
333.1408
333.5071
333.8854
334.2734
334.6676
335.0588
335.4212
335.6523
335.6914
336.0576
336.484
337.1047
338.5879
5346000
5346000
5346000
5346000
5346000
5346000
5346000
5346000
5346000
5346000
5346000
5346000
5346000
5346000
5346000
335.6461
335.8421
336.0546
336.2942
336.6232
337.5729
5346000
5346000
5346000
5346000
5346000
5346000
5346000
5346000
5346000
5346000
5346000
5346000
5346000
5346000
5346000
335.118
335.3588
335.5798
335.7684
335.9401
336.2856
337.1173
5346000
5346000
5346000
5346000
5346000
5346000
5346000
5346000
5346000
5346000
5346000
5346000
5346000
5346000
5346000
334.5987
334.853
335.0839
335.2816
335.4372
335.6987
336.1752
336.8219
5346000
5346000
5346000
5346000
5346000
5346000
5346000
5346000
5346000
5346000
5346000
5346000
5346000
5346000
5346000
334.1248
334.3776
334.613
334.8179
334.9886
335.2346
335.6465
336.0928
336.6388
5346000
5346000
5346000
5346000
5346000
5346000
5346000
5346000
5346000
5346000
5346000
5346000
5346000
5346000
5346000
333.6935
333.9406
334.174
334.3843
334.5655
334.8165
335.2009
335.6059
336.0359
336.5379
5346000
5346000
5346000
5346000
5346000
5346000
5346000
5346000
5346000
5346000
5346000
5346000
5346000
5346000
5346000
5346000
5346000
5346000
5346000
5346000
5346000
5346000
5346000
5346000
5346000
5346000
5346000
5346000
5346000
5346000
5346000
5346000
5346000
5346000
5346000
5346000
5346000
5346000
5346000
5346000
5346000
5346000
5346000
5346000
5346000
5346000
5346000
5346000
5346000
5346000
335.8235
336.4177
337.1006
337.9641
339.2784
341.6778
349.9427
5346000
5346000
5346000
5346000
5346000
335.3217
335.9167
336.5908
337.4504
338.7658
341.2112
346.2462
362.0416
5346000
5346000
5346000
5346000
5346000
334.8465
335.4234
336.0516
336.7828
337.7817
339.4167
342.4741
348.3342
364.1992
5346000
5346000
5346000
5346000
5346000
334.3966
334.9492
335.5298
336.1551
336.8897
337.9087
339.5377
342.3196
346.7428
355.7117
5346000
5346000
5346000
5346000
5346000
333.9705
334.493
335.0318
335.5817
336.1601
336.822
337.6961
338.9492
340.6881
342.2392
346.5974
5346000
5346000
5346000
5346000
5346000
333.5659
334.0538
334.5521
335.0491
335.5391
336.0313
336.553
337.156
337.8251
338.2654
339.2164
345.0068
5346000
5346000
5346000
5346000
5346000
333.1815
333.6302
334.0878
334.5417
334.981
335.3965
335.7849
336.1402
336.4421
336.5431
336.8758
338.5436
343.1254
5346000
5346000
5346000
5346000
5346000
332.8162
333.2222
333.6378
334.0531
334.4579
334.8415
335.1902
335.4868
335.6939
335.7349
335.8873
336.6029
337.8646
341.165
5346000
5346000
5346000
5346000
5346000
332.4694
332.8304
333.2034
333.582
333.9601
334.3297
334.6805
334.9934
335.2325
335.3139
335.418
335.8427
336.3874
337.2532
339.3571
5346000
5346000
5346000
5346000
5346000
332.1402
332.4566
332.788
333.1321
333.4869
333.8503
334.2185
334.5836
334.921
335.1425
335.1874
335.5112
335.8349
336.2014
336.7331
338.1875
5346000
5346000
5346000
5346000
5346000
5346000
5346000
5346000
5346000
5346000
5346000
5346000
5346000
5346000
5346000
335.1329
335.3255
335.5315
335.7316
335.9473
336.3863
337.533
5346000
5346000
5346000
5346000
5346000
5346000
5346000
5346000
5346000
5346000
5346000
5346000
5346000
5346000
5346000
334.6375
334.8747
335.094
335.2875
335.4489
335.7288
336.2546
337.0815
5346000
5346000
5346000
5346000
5346000
5346000
5346000
5346000
5346000
5346000
5346000
5346000
5346000
5346000
5346000
334.1517
334.3988
334.6293
334.8309
335.0012
335.2505
335.6714
336.1448
336.7863
5346000
5346000
5346000
5346000
5346000
5346000
5346000
5346000
5346000
5346000
5346000
5346000
5346000
5346000
5346000
333.7069
333.9522
334.1839
334.3928
334.5733
334.8247
335.2107
335.6199
336.0618
336.6051
5346000
5346000
5346000
5346000
5346000
5346000
5346000
5346000
5346000
5346000
5346000
5346000
5346000
5346000
5346000
333.3021
333.5404
333.7693
333.9797
334.1694
334.4209
334.7952
335.1776
335.5789
336.0063
336.5001
5346000
5346000
5346000
5346000
5346000
5346000
5346000
5346000
5346000
5346000
5346000
5346000
5346000
5346000
5346000
5346000
5346000
5346000
5346000
5346000
5346000
5346000
5346000
5346000
5346000
5346000
5346000
5346000
5346000
5346000
5346000
5346000
5346000
5346000
5346000
5346000
5346000
5346000
5346000
5346000
5346000
5346000
5346000
5346000
5346000
5346000
5346000
5346000
5346000
5346000
5346000
5346000
5346000
5346000
5346000
335.2916
335.8338
336.4271
337.1092
337.969
339.2382
341.4123
349.051
5346000
5346000
5346000
5346000
5346000
334.8259
335.3679
335.9535
336.6136
337.4495
338.6828
340.8011
344.7428
357.343
5346000
5346000
5346000
5346000
5346000
334.3837
334.9153
335.4741
336.0727
336.7589
337.6654
339.0372
341.3005
344.9344
353.4865
5346000
5346000
5346000
5346000
5346000
333.9643
334.4773
335.007
335.5486
336.117
336.7594
337.5883
338.7482
340.3384
341.7933
346.048
5346000
5346000
5346000
5346000
5346000
333.5659
334.0538
334.5521
335.0491
335.5391
336.0313
336.553
337.156
337.8251
338.2654
339.2164
345.0068
5346000
5346000
5346000
5346000
5346000
333.1869
333.6437
334.1085
334.5672
335.008
335.4213
335.8052
336.1573
336.4616
336.5638
336.9134
338.6927
343.52
5346000
5346000
5346000
5346000
5346000
332.826
333.247
333.6756
334.0992
334.5049
334.8802
335.2105
335.4806
335.6595
335.6791
335.8427
336.6323
338.0713
341.7917
5346000
5346000
5346000
5346000
5346000
332.4827
332.8641
333.2543
333.6435
334.0218
334.3778
334.6972
334.959
335.132
335.1565
335.2758
335.7377
336.3723
337.442
340.0395
5346000
5346000
5346000
5346000
5346000
332.1563
332.496
332.8466
333.2022
333.5568
333.9031
334.2306
334.5223
334.7444
334.8287
334.9297
335.2869
335.6702
336.1423
336.8731
338.8504
5346000
5346000
5346000
5346000
5346000
331.8464
332.1443
332.4562
332.7797
333.1131
333.4541
333.7993
334.1411
334.458
334.6705
334.7272
335.0268
335.3177
335.5989
335.9192
336.5103
338.1385
5346000
5346000
5346000
5346000
5346000
5346000
5346000
5346000
5346000
5346000
5346000
5346000
5346000
5346000
5346000
334.6543
334.8473
335.0503
335.2474
335.4313
335.7476
336.356
337.4938
5346000
5346000
5346000
5346000
5346000
5346000
5346000
5346000
5346000
5346000
5346000
5346000
5346000
5346000
5346000
334.1891
334.4205
334.6399
334.8363
335.0081
335.2647
335.7018
336.2244
337.0448
5346000
5346000
5346000
5346000
5346000
5346000
5346000
5346000
5346000
5346000
5346000
5346000
5346000
5346000
5346000
333.7327
333.9726