/*--------------------------------*- C++ -*----------------------------------*\
| =========                 |                                                 |
| \\      /  F ield         | OpenFOAM: The Open Source CFD Toolbox           |
|  \\    /   O peration     | Version:  2306                                  |
|   \\  /    A nd           | Website:  www.openfoam.com                      |
|    \\/     M anipulation  |                                                 |
\*---------------------------------------------------------------------------*/
FoamFile
{
    version     2.0;
    format      ascii;
    arch        "LSB;label=32;scalar=64";
    class       volScalarField;
    location    "1.5";
    object      T;
}
// * * * * * * * * * * * * * * * * * * * * * * * * * * * * * * * * * * * * * //

dimensions      [0 0 0 1 0 0 0];

internalField   nonuniform List<scalar> 
52000
(
1210.976
1210.974
1212.91
1210.908
1210.969
1212.909
1210.905
1215.478
1212.888
1210.773
1210.963
1212.907
1210.899
1215.477
1212.887
1210.768
1218.131
1215.478
1212.846
1210.576
1210.956
1212.904
1210.89
1215.476
1212.884
1210.758
1218.13
1215.477
1212.845
1210.567
1220.678
1218.138
1215.479
1212.79
1210.328
1210.948
1212.902
1210.88
1215.474
1212.881
1210.744
1218.129
1215.475
1212.841
1210.549
1220.677
1218.137
1215.477
1212.787
1210.311
1223.061
1220.687
1218.155
1215.484
1212.724
1210.123
1210.941
1212.898
1210.869
1215.471
1212.877
1210.727
1218.127
1215.472
1212.837
1210.525
1220.675
1218.135
1215.474
1212.782
1210.277
1223.061
1220.686
1218.153
1215.482
1212.72
1210.093
1225.275
1223.071
1220.707
1218.183
1215.5
1212.678
1209.991
1210.934
1212.895
1210.859
1215.468
1212.873
1210.709
1218.124
1215.468
1212.831
1210.497
1220.673
1218.132
1215.47
1212.775
1210.232
1223.059
1220.684
1218.15
1215.477
1212.712
1210.034
1225.274
1223.07
1220.706
1218.18
1215.496
1212.67
1209.952
1227.328
1225.284
1223.091
1220.741
1218.226
1215.523
1212.651
1209.87
1210.93
1212.893
1210.849
1215.466
1212.869
1210.691
1218.121
1215.465
1212.824
1210.466
1220.671
1218.129
1215.464
1212.766
1210.185
1223.057
1220.681
1218.145
1215.47
1212.701
1209.947
1225.273
1223.068
1220.703
1218.175
1215.49
1212.656
1209.874
1227.328
1225.283
1223.09
1220.739
1218.223
1215.519
1212.641
1209.823
1229.235
1227.336
1225.303
1223.124
1220.791
1218.273
1215.543
1212.631
1209.768
1210.927
1212.891
1210.842
1215.464
1212.865
1210.674
1218.119
1215.461
1212.818
1210.431
1220.668
1218.125
1215.458
1212.756
1210.15
1223.055
1220.678
1218.139
1215.46
1212.689
1209.836
1225.271
1223.065
1220.698
1218.167
1215.479
1212.637
1209.754
1227.326
1225.281
1223.087
1220.734
1218.216
1215.512
1212.622
1209.728
1229.234
1227.335
1225.301
1223.122
1220.788
1218.27
1215.539
1212.619
1209.715
1231.009
1229.242
1227.353
1225.333
1223.173
1220.843
1218.309
1215.568
1212.621
1209.691
1210.927
1212.89
1210.838
1215.462
1212.863
1210.661
1218.117
1215.458
1212.811
1210.397
1220.666
1218.121
1215.452
1212.744
1210.073
1223.053
1220.674
1218.133
1215.449
1212.68
1195.701
1225.269
1223.062
1220.693
1218.157
1215.464
1212.617
1209.586
1227.325
1225.279
1223.083
1220.726
1218.205
1215.502
1212.595
1209.58
1229.233
1227.334
1225.299
1223.117
1220.782
1218.265
1215.531
1212.595
1209.607
1231.008
1229.241
1227.352
1225.331
1223.17
1220.841
1218.306
1215.564
1212.607
1209.634
1232.663
1231.015
1229.258
1227.381
1225.378
1223.223
1220.881
1218.348
1215.599
1212.624
1209.641
1210.93
1212.89
1210.838
1215.461
1212.861
1210.654
1218.115
1215.456
1212.807
1210.37
1220.664
1218.118
1215.446
1212.732
1209.996
1223.05
1220.671
1218.127
1215.438
1212.656
1182.534
1225.267
1223.059
1220.686
1218.144
1215.44
1211.005
1182.299
1227.323
1225.276
1223.077
1220.716
1218.188
1215.491
1212.561
1209.368
1229.232
1227.332
1225.295
1223.111
1220.771
1218.258
1215.519
1212.559
1209.438
1231.007
1229.24
1227.35
1225.327
1223.165
1220.836
1218.302
1215.554
1212.58
1209.518
1232.662
1231.015
1229.256
1227.379
1225.376
1223.221
1220.88
1218.346
1215.595
1212.609
1209.582
1234.208
1232.669
1231.029
1229.283
1227.422
1225.424
1223.26
1220.924
1218.393
1215.638
1212.64
1209.62
1210.934
1212.891
1210.842
1215.461
1212.861
1210.654
1218.114
1215.454
1212.804
1210.356
1220.662
1218.116
1215.442
1212.722
1209.938
1223.048
1220.668
1218.121
1215.427
1212.629
1175.216
1225.265
1223.056
1220.68
1218.133
1215.418
1207.899
1150.27
1227.321
1225.273
1223.072
1220.704
1218.159
1214.869
1207.848
1174.776
1229.23
1227.329
1225.29
1223.101
1220.754
1218.25
1215.505
1212.511
1209.198
1231.006
1229.238
1227.346
1225.321
1223.155
1220.83
1218.295
1215.541
1212.537
1209.336
1232.662
1231.014
1229.254
1227.376
1225.371
1223.217
1220.876
1218.342
1215.584
1212.579
1209.462
1234.208
1232.668
1231.028
1229.281
1227.42
1225.423
1223.258
1220.922
1218.391
1215.633
1212.625
1209.561
1235.654
1234.214
1232.682
1231.052
1229.32
1227.463
1225.458
1223.3
1220.969
1218.441
1215.683
1212.671
1209.627
1210.941
1212.893
1210.849
1215.462
1212.863
1210.661
1218.114
1215.454
1212.804
1210.356
1220.661
1218.115
1215.44
1212.717
1209.907
1223.047
1220.666
1218.117
1215.42
1212.606
1171.047
1225.263
1223.053
1220.675
1218.123
1215.398
1205.211
1130.27
1227.319
1225.27
1223.066
1220.693
1218.136
1213.682
1198.684
1129.938
1229.228
1227.327
1225.285
1223.09
1220.725
1217.949
1213.739
1205.103
1170.36
1231.005
1229.236
1227.342
1225.313
1223.139
1220.824
1218.288
1215.522
1212.477
1209.081
1232.661
1231.012
1229.251
1227.37
1225.362
1223.212
1220.872
1218.335
1215.568
1212.532
1209.277
1234.207
1232.667
1231.027
1229.278
1227.415
1225.419
1223.256
1220.92
1218.386
1215.622
1212.595
1209.442
1235.654
1234.213
1232.681
1231.051
1229.318
1227.462
1225.457
1223.299
1220.968
1218.439
1215.678
1212.657
1209.569
1237.009
1235.659
1234.225
1232.702
1231.086
1229.357
1227.494
1225.494
1223.342
1221.018
1218.494
1215.735
1212.716
1209.661
1210.948
1212.895
1210.859
1215.464
1212.865
1210.674
1218.115
1215.456
1212.807
1210.37
1220.661
1218.115
1215.44
1212.717
1209.907
1223.046
1220.665
1218.115
1215.416
1212.594
1169.108
1225.262
1223.051
1220.672
1218.116
1215.384
1203.234
1118.264
1227.318
1225.268
1223.062
1220.684
1218.119
1212.622
1190.646
1099.88
1229.227
1227.324
1225.28
1223.08
1220.704
1217.414
1210.263
1190.52
1117.373
1231.003
1229.233
1227.338
1225.303
1223.112
1220.647
1217.51
1212.719
1203.043
1168.09
1232.659
1231.01
1229.247
1227.363
1225.348
1223.207
1220.867
1218.327
1215.546
1212.465
1209.017
1234.206
1232.666
1231.024
1229.273
1227.407
1225.415
1223.252
1220.916
1218.38
1215.605
1212.547
1209.258
1235.653
1234.212
1232.679
1231.048
1229.313
1227.459
1225.455
1223.297
1220.966
1218.435
1215.668
1212.629
1209.453
1237.008
1235.659
1234.225
1232.701
1231.084
1229.356
1227.493
1225.494
1223.342
1221.017
1218.492
1215.731
1212.704
1209.604
1238.279
1237.014
1235.67
1234.244
1232.733
1231.119
1229.384
1227.527
1225.533
1223.388
1221.069
1218.55
1215.794
1212.774
1209.721
1210.956
1212.898
1210.869
1215.466
1212.869
1210.691
1218.117
1215.458
1212.811
1210.397
1220.662
1218.116
1215.442
1212.722
1209.938
1223.046
1220.665
1218.115
1215.416
1212.594
1169.108
1225.261
1223.05
1220.67
1218.113
1215.376
1202.186
1112.566
1227.317
1225.266
1223.058
1220.678
1218.107
1211.812
1184.685
1081.012
1229.225
1227.322
1225.276
1223.072
1220.688
1216.951
1207.098
1177.506
1080.258
1231.002
1229.231
1227.333
1225.293
1223.093
1220.359
1216.009
1207.132
1184.322
1110.796
1232.658
1231.008
1229.243
1227.354
1225.323
1223.082
1220.462
1217.125
1211.945
1201.884
1167.638
1234.205
1232.664
1231.02
1229.266
1227.395
1225.41
1223.249
1220.911
1218.37
1215.581
1212.48
1209.005
1235.652
1234.211
1232.677
1231.043
1229.306
1227.455
1225.452
1223.294
1220.963
1218.429
1215.653
1212.584
1209.277
1237.008
1235.658
1234.223
1232.698
1231.08
1229.353
1227.491
1225.492
1223.341
1221.015
1218.489
1215.723
1212.679
1209.491
1238.279
1237.013
1235.669
1234.243
1232.731
1231.118
1229.384
1227.526
1225.533
1223.387
1221.069
1218.549
1215.791
1212.763
1209.664
1239.471
1238.284
1237.023
1235.687
1234.272
1232.763
1231.144
1229.414
1227.562
1225.574
1223.435
1221.122
1218.609
1215.857
1212.843
1210.714
1210.963
1212.902
1210.88
1215.468
1212.873
1210.709
1218.119
1215.461
1212.818
1210.431
1220.664
1218.118
1215.446
1212.732
1209.996
1223.047
1220.666
1218.117
1215.42
1212.606
1171.047
1225.261
1223.05
1220.67
1218.113
1215.376
1202.186
1112.566
1227.316
1225.265
1223.057
1220.675
1218.101
1211.372
1181.515
1071.835
1229.224
1227.32
1225.273
1223.066
1220.678
1216.603
1204.656
1167.735
1056.244
1231
1229.229
1227.329
1225.286
1223.079
1220.122
1214.665
1201.959
1167.396
1069.733
1232.656
1231.005
1229.239
1227.345
1225.306
1222.894
1219.702
1214.759
1204.705
1180.798
1109.539
1234.203
1232.662
1231.017
1229.258
1227.372
1225.31
1222.993
1220.311
1216.856
1211.545
1201.764
1168.978
1235.651
1234.209
1232.673
1231.037
1229.295
1227.451
1225.449
1223.291
1220.958
1218.419
1215.629
1212.522
1209.039
1237.007
1235.656
1234.221
1232.694
1231.074
1229.349
1227.488
1225.49
1223.339
1221.013
1218.484
1215.71
1212.641
1209.324
1238.278
1237.012
1235.668
1234.241
1232.728
1231.116
1229.382
1227.525
1225.532
1223.387
1221.068
1218.548
1215.786
1212.743
1209.551
1239.471
1238.283
1237.023
1235.686
1234.271
1232.762
1231.143
1229.414
1227.562
1225.574
1223.435
1221.123
1218.61
1215.857
1212.833
1210.637
1240.591
1239.476
1238.293
1237.039
1235.713
1234.3
1232.786
1231.171
1229.446
1227.599
1225.617
1223.484
1221.177
1218.67
1215.924
1213.754
1212.622
1210.969
1212.904
1210.89
1215.471
1212.877
1210.727
1218.121
1215.465
1212.824
1210.466
1220.666
1218.121
1215.452
1212.744
1210.073
1223.048
1220.668
1218.121
1215.427
1212.629
1175.216
1225.262
1223.051
1220.672
1218.116
1215.384
1203.234
1118.264
1227.316
1225.265
1223.057
1220.675
1218.101
1211.372
1181.515
1071.835
1229.224
1227.319
1225.272
1223.063
1220.673
1216.414
1203.321
1162.502
1044.358
1230.999
1229.228
1227.327
1225.281
1223.07
1219.95
1213.635
1197.918
1154.551
1042.721
1232.655
1231.004
1229.236
1227.339
1225.293
1222.748
1219.044
1212.597
1197.916
1161.587
1067.702
1234.202
1232.66
1231.013
1229.25
1227.357
1225.166
1222.527
1219.154
1213.845
1203.391
1180.378
1113.562
1235.65
1234.207
1232.67
1231.03
1229.275
1227.364
1225.256
1222.928
1220.228
1216.764
1211.612
1202.727
1172.357
1237.006
1235.655
1234.218
1232.689
1231.063
1229.345
1227.486
1225.488
1223.336
1221.009
1218.476
1215.69
1212.59
1209.108
1238.278
1237.011
1235.666
1234.237
1232.722
1231.112
1229.379
1227.523
1225.531
1223.386
1221.067
1218.545
1215.778
1212.714
1209.386
1239.471
1238.282
1237.021
1235.684
1234.267
1232.76
1231.142
1229.412
1227.561
1225.574
1223.435
1221.124
1218.611
1215.855
1212.816
1210.467
1240.59
1239.475
1238.292
1237.038
1235.711
1234.299
1232.785
1231.171
1229.445
1227.599
1225.617
1223.484
1221.179
1218.672
1215.925
1213.745
1212.508
1241.641
1240.594
1239.484
1238.308
1237.063
1235.739
1234.321
1232.811
1231.2
1229.479
1227.637
1225.661
1223.533
1221.233
1218.731
1216.725
1215.498
1214.541
1210.974
1212.907
1210.899
1215.474
1212.881
1210.744
1218.124
1215.468
1212.831
1210.497
1220.668
1218.125
1215.458
1212.756
1210.15
1223.05
1220.671
1218.127
1215.438
1212.656
1182.534
1225.263
1223.053
1220.675
1218.123
1215.398
1205.211
1130.27
1227.317
1225.266
1223.058
1220.678
1218.107
1211.812
1184.685
1081.012
1229.224
1227.319
1225.272
1223.063
1220.673
1216.414
1203.321
1162.502
1044.358
1230.999
1229.227
1227.325
1225.279
1223.066
1219.859
1213.073
1195.695
1147.625
1029.218
1232.654
1231.002
1229.234
1227.334
1225.286
1222.646
1218.554
1210.917
1192.56
1146.91
1040.078
1234.201
1232.658
1231.01
1229.244
1227.346
1225.058
1222.14
1218.129
1211.05
1195.679
1160.851
1074.158
1235.649
1234.205
1232.667
1231.023
1229.261
1227.242
1224.913
1222.247
1218.806
1213.446
1203.469
1183.19
1123.397
1237.005
1235.653
1234.215
1232.682
1231.045
1229.268
1227.324
1225.223
1222.913
1220.245
1216.892
1212.18
1204.738
1178.543
1238.277
1237.01
1235.663
1234.232
1232.712
1231.109
1229.377
1227.521
1225.529
1223.383
1221.064
1218.539
1215.765
1212.678
1209.184
1239.47
1238.281
1237.019
1235.68
1234.262
1232.757
1231.14
1229.411
1227.56
1225.573
1223.435
1221.125
1218.612
1215.854
1212.795
1210.134
1240.59
1239.474
1238.291
1237.036
1235.709
1234.297
1232.784
1231.17
1229.445
1227.599
1225.618
1223.486
1221.182
1218.676
1215.927
1213.732
1212.239
1241.641
1240.594
1239.484
1238.307
1237.062
1235.738
1234.32
1232.81
1231.199
1229.479
1227.637
1225.662
1223.535
1221.236
1218.735
1216.732
1215.491
1214.399
1242.627
1241.645
1240.603
1239.498
1238.33
1237.087
1235.758
1234.343
1232.837
1231.23
1229.513
1227.676
1225.705
1223.583
1221.288
1219.43
1218.256
1217.243
1216.479
1210.976
1212.909
1210.905
1215.476
1212.884
1210.758
1218.127
1215.472
1212.837
1210.525
1220.671
1218.129
1215.464
1212.766
1210.185
1223.053
1220.674
1218.133
1215.449
1212.68
1195.701
1225.265
1223.056
1220.68
1218.133
1215.418
1207.899
1150.27
1227.318
1225.268
1223.062
1220.684
1218.119
1212.622
1190.646
1099.88
1229.224
1227.32
1225.273
1223.066
1220.678
1216.603
1204.656
1167.735
1056.244
1230.999
1229.227
1227.325
1225.279
1223.066
1219.859
1213.073
1195.695
1147.625
1029.218
1232.654
1231.002
1229.232
1227.332
1225.282
1222.593
1218.292
1209.992
1189.596
1138.962
1026.24
1234.2
1232.657
1231.008
1229.24
1227.338
1224.985
1221.862
1217.353
1208.851
1189.553
1145.9
1048.372
1235.648
1234.204
1232.664
1231.017
1229.251
1227.153
1224.637
1221.667
1217.523
1210.331
1195.73
1165.386
1089.631
1237.004
1235.652
1234.212
1232.676
1231.032
1229.159
1227.038
1224.736
1222.109
1218.742
1213.696
1205.03
1189.055
1140.527
1238.276
1237.008
1235.66
1234.225
1232.696
1231.038
1229.233
1227.302
1225.23
1222.965
1220.384
1217.266
1213.242
1207.736
1189.734
1239.469
1238.28
1237.017
1235.676
1234.253
1232.754
1231.138
1229.409
1227.558
1225.572
1223.434
1221.124
1218.611
1215.851
1212.777
1209.202
1240.589
1239.473
1238.289
1237.033
1235.704
1234.294
1232.782
1231.168
1229.444
1227.598
1225.618
1223.488
1221.186
1218.683
1215.934
1213.729
1211.656
1241.64
1240.593
1239.482
1238.305
1237.059
1235.736
1234.319
1232.809
1231.199
1229.479
1227.638
1225.663
1223.539
1221.242
1218.743
1216.752
1215.481
1214.054
1242.627
1241.644
1240.602
1239.497
1238.329
1237.086
1235.757
1234.343
1232.836
1231.23
1229.514
1227.677
1225.707
1223.586
1221.292
1219.44
1218.274
1217.236
1216.316
1243.552
1242.631
1241.652
1240.616
1239.519
1238.352
1237.105
1235.778
1234.367
1232.864
1231.261
1229.549
1227.716
1225.75
1223.632
1221.898
1220.764
1219.784
1218.988
1218.437
1212.91
1210.908
1215.477
1212.887
1210.768
1218.129
1215.475
1212.841
1210.549
1220.673
1218.132
1215.47
1212.775
1210.232
1223.055
1220.678
1218.139
1215.46
1212.689
1209.836
1225.267
1223.059
1220.686
1218.144
1215.44
1211.005
1182.299
1227.319
1225.27
1223.066
1220.693
1218.136
1213.682
1198.684
1129.938
1229.225
1227.322
1225.276
1223.072
1220.688
1216.951
1207.098
1177.506
1080.258
1230.999
1229.228
1227.327
1225.281
1223.07
1219.95
1213.635
1197.918
1154.551
1042.721
1232.654
1231.002
1229.232
1227.332
1225.282
1222.593
1218.292
1209.992
1189.596
1138.962
1026.24
1234.2
1232.656
1231.007
1229.238
1227.335
1224.947
1221.716
1216.932
1207.632
1186.15
1137.795
1035.52
1235.647
1234.203
1232.662
1231.014
1229.244
1227.093
1224.444
1221.241
1216.537
1207.856
1189.559
1151.784
1067.982
1237.003
1235.65
1234.209
1232.671
1231.023
1229.08
1226.813
1224.334
1221.412
1217.367
1210.662
1198.198
1174.8
1115.514
1238.275
1237.006
1235.657
1234.22
1232.684
1230.939
1228.979
1226.902
1224.673
1222.161
1219.03
1214.654
1207.982
1197.542
1168.47
1239.468
1238.278
1237.014
1235.67
1234.238
1232.688
1231.005
1229.214
1227.314
1225.288
1223.098
1220.665
1217.905
1214.821
1211.866
1202.574
1240.588
1239.472
1238.287
1237.029
1235.696
1234.291
1232.78
1231.167
1229.442
1227.597
1225.618
1223.489
1221.189
1218.69
1215.947
1213.848
1210.135
1241.64
1240.592
1239.481
1238.302
1237.055
1235.733
1234.317
1232.808
1231.198
1229.478
1227.638
1225.665
1223.543
1221.25
1218.756
1216.815
1215.496
1213.32
1242.626
1241.644
1240.601
1239.495
1238.326
1237.084
1235.756
1234.342
1232.836
1231.23
1229.514
1227.679
1225.71
1223.592
1221.301
1219.469
1218.324
1217.226
1215.925
1243.552
1242.63
1241.652
1240.615
1239.517
1238.351
1237.104
1235.778
1234.367
1232.864
1231.261
1229.55
1227.718
1225.752
1223.636
1221.909
1220.788
1219.811
1218.98
1218.264
1244.418
1243.555
1242.638
1241.665
1240.635
1239.539
1238.368
1237.124
1235.8
1234.392
1232.892
1231.293
1229.585
1227.756
1225.793
1224.167
1223.063
1222.094
1221.308
1220.734
1219.484
1215.478
1212.888
1210.773
1218.13
1215.477
1212.845
1210.567
1220.675
1218.135
1215.474
1212.782
1210.277
1223.057
1220.681
1218.145
1215.47
1212.701
1209.947
1225.269
1223.062
1220.693
1218.157
1215.464
1212.617
1209.586
1227.321
1225.273
1223.072
1220.704
1218.159
1214.869
1207.848
1174.776
1229.227
1227.324
1225.28
1223.08
1220.704
1217.414
1210.263
1190.52
1117.373
1231
1229.229
1227.329
1225.286
1223.079
1220.122
1214.665
1201.959
1167.396
1069.733
1232.654
1231.002
1229.234
1227.334
1225.286
1222.646
1218.554
1210.917
1192.56
1146.91
1040.078
1234.2
1232.656
1231.007
1229.238
1227.335
1224.947
1221.716
1216.932
1207.632
1186.15
1137.795
1035.52
1235.647
1234.202
1232.661
1231.012
1229.241
1227.062
1224.345
1221.016
1215.998
1206.477
1186.123
1144.419
1057.32
1237.002
1235.649
1234.207
1232.667
1231.017
1229.027
1226.658
1224.048
1220.894
1216.295
1208.231
1192.733
1163.947
1099.912
1238.274
1237.005
1235.655
1234.215
1232.676
1230.866
1228.78
1226.579
1224.207
1221.452
1217.766
1212.121
1202.853
1188.145
1154.936
1239.467
1238.277
1237.012
1235.665
1234.227
1232.597
1230.773
1228.861
1226.866
1224.757
1222.441
1219.714
1216.317
1212.128
1208.074
1194.522
1240.587
1239.471
1238.284
1237.023
1235.682
1234.231
1232.657
1230.988
1229.227
1227.371
1225.41
1223.328
1221.118
1218.888
1217.241
1215.467
1205.001
1241.639
1240.591
1239.479
1238.298
1237.047
1235.731
1234.315
1232.806
1231.197
1229.478
1227.638
1225.667
1223.547
1221.26
1218.777
1217.115
1215.657
1211.633
1242.626
1241.643
1240.599
1239.493
1238.322
1237.082
1235.754
1234.341
1232.835
1231.229
1229.515
1227.681
1225.715
1223.601
1221.316
1219.546
1218.463
1217.239
1215.127
1243.551
1242.63
1241.651
1240.613
1239.515
1238.35
1237.103
1235.777
1234.366
1232.864
1231.262
1229.551
1227.721
1225.758
1223.644
1221.939
1220.852
1219.881
1218.968
1217.856
1244.418
1243.555
1242.637
1241.664
1240.634
1239.539
1238.368
1237.123
1235.8
1234.392
1232.893
1231.294
1229.586
1227.759
1225.797
1224.178
1223.088
1222.129
1221.34
1220.725
1219.311
1245.229
1244.421
1243.562
1242.649
1241.683
1240.654
1239.555
1238.386
1237.144
1235.823
1234.418
1232.922
1231.326
1229.62
1227.795
1226.266
1225.191
1224.225
1223.418
1222.826
1221.657
1219.597
1218.131
1215.478
1212.846
1210.576
1220.677
1218.137
1215.477
1212.787
1210.311
1223.059
1220.684
1218.15
1215.477
1212.712
1210.034
1225.271
1223.065
1220.698
1218.167
1215.479
1212.637
1209.754
1227.323
1225.276
1223.077
1220.716
1218.188
1215.491
1212.561
1209.368
1229.228
1227.327
1225.285
1223.09
1220.725
1217.949
1213.739
1205.103
1170.36
1231.002
1229.231
1227.333
1225.293
1223.093
1220.359
1216.009
1207.132
1184.322
1110.796
1232.655
1231.004
1229.236
1227.339
1225.293
1222.748
1219.044
1212.597
1197.916
1161.587
1067.702
1234.2
1232.657
1231.008
1229.24
1227.338
1224.985
1221.862
1217.353
1208.851
1189.553
1145.9
1048.372
1235.647
1234.202
1232.661
1231.012
1229.241
1227.062
1224.345
1221.016
1215.998
1206.477
1186.123
1144.419
1057.32
1237.002
1235.649
1234.206
1232.666
1231.015
1229
1226.579
1223.9
1220.616
1215.705
1206.869
1189.686
1158.085
1092.337
1238.273
1237.004
1235.653
1234.212
1232.671
1230.818
1228.645
1226.354
1223.872
1220.916
1216.764
1210.062
1198.708
1180.959
1146.548
1239.466
1238.276
1237.01
1235.661
1234.22
1232.53
1230.592
1228.579
1226.499
1224.307
1221.845
1218.773
1214.638
1209.18
1204.015
1188.12
1240.586
1239.469
1238.282
1237.019
1235.672
1234.145
1232.442
1230.665
1228.833
1226.954
1225.016
1222.986
1220.826
1218.677
1217.343
1214.681
1198.68
1241.638
1240.59
1239.476
1238.293
1237.034
1235.674
1234.201
1232.641
1230.999
1229.279
1227.482
1225.61
1223.688
1221.835
1220.594
1219.984
1216.493
1207.598
1242.625
1241.642
1240.597
1239.489
1238.315
1237.08
1235.753
1234.339
1232.834
1231.228
1229.515
1227.682
1225.719
1223.61
1221.338
1219.874
1218.936
1217.356
1213.495
1243.551
1242.629
1241.649
1240.61
1239.511
1238.347
1237.101
1235.776
1234.366
1232.863
1231.262
1229.553
1227.725
1225.766
1223.659
1222.015
1221.017
1220.056
1218.965
1217.06
1244.418
1243.554
1242.636
1241.662
1240.632
1239.537
1238.367
1237.123
1235.799
1234.392
1232.893
1231.295
1229.589
1227.764
1225.805
1224.207
1223.153
1222.218
1221.42
1220.708
1218.906
1245.229
1244.421
1243.561
1242.649
1241.682
1240.654
1239.554
1238.386
1237.144
1235.823
1234.418
1232.922
1231.327
1229.623
1227.798
1226.277
1225.214
1224.26
1223.46
1222.86
1221.648
1219.424
1245.987
1245.232
1244.428
1243.573
1242.667
1241.701
1240.669
1239.571
1238.405
1237.165
1235.847
1234.445
1232.951
1231.358
1229.655
1228.216
1227.171
1226.21
1225.38
1224.736
1223.625
1221.756
1219.71
1220.678
1218.138
1215.479
1212.79
1210.328
1223.061
1220.686
1218.153
1215.482
1212.72
1210.093
1225.273
1223.068
1220.703
1218.175
1215.49
1212.656
1209.874
1227.325
1225.279
1223.083
1220.726
1218.205
1215.502
1212.595
1209.58
1229.23
1227.329
1225.29
1223.101
1220.754
1218.25
1215.505
1212.511
1209.198
1231.003
1229.233
1227.338
1225.303
1223.112
1220.647
1217.51
1212.719
1203.043
1168.09
1232.656
1231.005
1229.239
1227.345
1225.306
1222.894
1219.702
1214.759
1204.705
1180.798
1109.539
1234.201
1232.658
1231.01
1229.244
1227.346
1225.058
1222.14
1218.129
1211.05
1195.679
1160.851
1074.158
1235.647
1234.203
1232.662
1231.014
1229.244
1227.093
1224.444
1221.241
1216.537
1207.856
1189.559
1151.784
1067.982
1237.002
1235.649
1234.206
1232.666
1231.015
1229
1226.579
1223.9
1220.616
1215.705
1206.869
1189.686
1158.085
1092.337
1238.273
1237.004
1235.652
1234.211
1232.668
1230.794
1228.576
1226.239
1223.697
1220.627
1216.207
1208.9
1196.387
1177.073
1142.482
1239.466
1238.275
1237.008
1235.658
1234.215
1232.485
1230.469
1228.383
1226.241
1223.978
1221.383
1217.998
1213.21
1206.684
1200.752
1183.809
1240.586
1239.468
1238.28
1237.015
1235.665
1234.083
1232.274
1230.408
1228.515
1226.61
1224.672
1222.634
1220.391
1218.047
1216.578
1213.273
1193.375
1241.637
1240.589
1239.474
1238.288
1237.025
1235.594
1234
1232.341
1230.64
1228.916
1227.19
1225.481
1223.841
1222.432
1221.838
1220.845
1215.957
1202.645
1242.624
1241.641
1240.595
1239.484
1238.303
1237.027
1235.646
1234.185
1232.65
1231.047
1229.379
1227.659
1225.916
1224.269
1223.187
1222.869
1220.786
1217.748
1210.322
1243.55
1242.628
1241.647
1240.607
1239.505
1238.345
1237.1
1235.775
1234.364
1232.863
1231.262
1229.554
1227.729
1225.775
1223.68
1222.329
1221.545
1220.534
1219.013
1215.592
1244.417
1243.553
1242.635
1241.66
1240.628
1239.535
1238.365
1237.121
1235.799
1234.392
1232.893
1231.297
1229.593
1227.771
1225.818
1224.278
1223.316
1222.43
1221.601
1220.683
1218.135
1245.229
1244.421
1243.561
1242.647
1241.68
1240.652
1239.553
1238.385
1237.143
1235.823
1234.419
1232.923
1231.33
1229.628
1227.806
1226.303
1225.276
1224.35
1223.564
1222.943
1221.628
1219.019
1245.987
1245.232
1244.428
1243.572
1242.666
1241.701
1240.668
1239.571
1238.405
1237.165
1235.847
1234.445
1232.952
1231.36
1229.658
1228.225
1227.193
1226.244
1225.423
1224.782
1223.66
1221.747
1219.537
1246.693
1245.99
1245.239
1244.439
1243.589
1242.684
1241.715
1240.684
1239.589
1238.425
1237.187
1235.872
1234.472
1232.98
1231.389
1230.032
1229.02
1228.071
1227.224
1226.528
1225.428
1223.711
1221.856
1219.823
1223.061
1220.687
1218.155
1215.484
1212.724
1210.123
1225.274
1223.07
1220.706
1218.18
1215.496
1212.67
1209.952
1227.326
1225.281
1223.087
1220.734
1218.216
1215.512
1212.622
1209.728
1229.232
1227.332
1225.295
1223.111
1220.771
1218.258
1215.519
1212.559
1209.438
1231.005
1229.236
1227.342
1225.313
1223.139
1220.824
1218.288
1215.522
1212.477
1209.081
1232.658
1231.008
1229.243
1227.354
1225.323
1223.082
1220.462
1217.125
1211.945
1201.884
1167.638
1234.202
1232.66
1231.013
1229.25
1227.357
1225.166
1222.527
1219.154
1213.845
1203.391
1180.378
1113.562
1235.648
1234.204
1232.664
1231.017
1229.251
1227.153
1224.637
1221.667
1217.523
1210.331
1195.73
1165.386
1089.631
1237.002
1235.649
1234.207
1232.667
1231.017
1229.027
1226.658
1224.048
1220.894
1216.295
1208.231
1192.733
1163.947
1099.912
1238.273
1237.004
1235.652
1234.211
1232.668
1230.794
1228.576
1226.239
1223.697
1220.627
1216.207
1208.9
1196.387
1177.073
1142.482
1239.465
1238.275
1237.007
1235.656
1234.213
1232.463
1230.407
1228.284
1226.108
1223.804
1221.129
1217.557
1212.386
1205.26
1198.955
1181.651
1240.585
1239.467
1238.279
1237.012
1235.66
1234.042
1232.16
1230.231
1228.293
1226.365
1224.413
1222.335
1219.962
1217.365
1215.707
1211.994
1189.712
1241.637
1240.588
1239.472
1238.285
1237.019
1235.536
1233.844
1232.102
1230.35
1228.62
1226.942
1225.337
1223.844
1222.596
1222.17
1220.963
1214.893
1198.331
1242.623
1241.639
1240.593
1239.48
1238.294
1236.952
1235.458
1233.905
1232.316
1230.715
1229.13
1227.6
1226.197
1225.089
1224.704
1224.155
1221.583
1217.335
1206.483
1243.549
1242.627
1241.645
1240.603
1239.494
1238.296
1237
1235.63
1234.193
1232.693
1231.138
1229.539
1227.929
1226.415
1225.411
1225.142
1223.541
1221.758
1219.139
1213.138
1244.416
1243.552
1242.633
1241.656
1240.622
1239.533
1238.364
1237.12
1235.798
1234.391
1232.893
1231.298
1229.597
1227.78
1225.837
1224.566
1223.824
1222.977
1222.011
1220.659
1216.778
1245.228
1244.42
1243.559
1242.645
1241.676
1240.65
1239.552
1238.384
1237.143
1235.823
1234.419
1232.925
1231.333
1229.634
1227.818
1226.369
1225.429
1224.561
1223.787
1223.108
1221.591
1218.251
1245.986
1245.231
1244.427
1243.571
1242.664
1241.699
1240.667
1239.57
1238.404
1237.165
1235.848
1234.447
1232.955
1231.364
1229.665
1228.25
1227.25
1226.33
1225.528
1224.89
1223.74
1221.727
1219.133
1246.693
1245.99
1245.238
1244.438
1243.589
1242.683
1241.714
1240.684
1239.589
1238.425
1237.188
1235.872
1234.473
1232.982
1231.392
1230.041
1229.041
1228.103
1227.265
1226.575
1225.475
1223.746
1221.847
1219.65
1247.351
1246.696
1245.996
1245.249
1244.454
1243.606
1242.697
1241.729
1240.701
1239.607
1238.445
1237.21
1235.897
1234.499
1233.009
1231.729
1230.752
1229.821
1228.966
1228.231
1227.131
1225.502
1223.797
1221.955
1219.937
1225.275
1223.071
1220.707
1218.183
1215.5
1212.678
1209.991
1227.328
1225.283
1223.09
1220.739
1218.223
1215.519
1212.641
1209.823
1229.233
1227.334
1225.299
1223.117
1220.782
1218.265
1215.531
1212.595
1209.607
1231.006
1229.238
1227.346
1225.321
1223.155
1220.83
1218.295
1215.541
1212.537
1209.336
1232.659
1231.01
1229.247
1227.363
1225.348
1223.207
1220.867
1218.327
1215.546
1212.465
1209.017
1234.203
1232.662
1231.017
1229.258
1227.372
1225.31
1222.993
1220.311
1216.856
1211.545
1201.764
1168.978
1235.649
1234.205
1232.667
1231.023
1229.261
1227.242
1224.913
1222.247
1218.806
1213.446
1203.469
1183.19
1123.397
1237.003
1235.65
1234.209
1232.671
1231.023
1229.08
1226.813
1224.334
1221.412
1217.367
1210.662
1198.198
1174.8
1115.514
1238.273
1237.004
1235.653
1234.212
1232.671
1230.818
1228.645
1226.354
1223.872
1220.916
1216.764
1210.062
1198.708
1180.959
1146.548
1239.465
1238.275
1237.007
1235.656
1234.213
1232.463
1230.407
1228.284
1226.108
1223.804
1221.129
1217.557
1212.386
1205.26
1198.955
1181.651
1240.585
1239.467
1238.278
1237.011
1235.658
1234.021
1232.103
1230.141
1228.18
1226.237
1224.273
1222.162
1219.7
1216.938
1215.165
1211.257
1187.858
1241.636
1240.587
1239.471
1238.282
1237.015
1235.498
1233.737
1231.938
1230.149
1228.413
1226.761
1225.21
1223.775
1222.557
1222.166
1220.828
1213.894
1195.284
1242.623
1241.638
1240.591
1239.477
1238.288
1236.898
1235.311
1233.682
1232.047
1230.447
1228.922
1227.528
1226.338
1225.503
1225.368
1224.742
1221.778
1216.527
1203.053
1243.548
1242.625
1241.643
1240.599
1239.486
1238.226
1236.824
1235.368
1233.88
1232.384
1230.91
1229.499
1228.228
1227.25
1226.915
1226.474
1224.675
1222.419
1218.791
1210.234
1244.416
1243.551
1242.631
1241.652
1240.611
1239.487
1238.27
1236.984
1235.637
1234.232
1232.776
1231.283
1229.782
1228.371
1227.414
1227.126
1225.722
1224.35
1222.821
1220.614
1214.656
1245.227
1244.419
1243.557
1242.642
1241.671
1240.648
1239.55
1238.383
1237.142
1235.822
1234.419
1232.926
1231.336
1229.642
1227.835
1226.63
1225.897
1225.094
1224.276
1223.423
1221.531
1216.907
1245.986
1245.231
1244.425
1243.569
1242.66
1241.698
1240.666
1239.569
1238.404
1237.165
1235.848
1234.448
1232.958
1231.371
1229.676
1228.31
1227.391
1226.528
1225.753
1225.102
1223.891
1221.689
1218.369
1246.693
1245.989
1245.237
1244.437
1243.587
1242.682
1241.714
1240.683
1239.588
1238.425
1237.188
1235.873
1234.475
1232.986
1231.398
1230.063
1229.094
1228.183
1227.366
1226.686
1225.581
1223.826
1221.826
1219.248
1247.35
1246.696
1245.995
1245.248
1244.453
1243.605
1242.696
1241.729
1240.701
1239.607
1238.445
1237.211
1235.898
1234.5
1233.011
1231.737
1230.772
1229.851
1229.005
1228.276
1227.179
1225.549
1223.832
1221.946
1219.764
1247.96
1247.353
1246.702
1246.006
1245.264
1244.47
1243.618
1242.711
1241.745
1240.718
1239.627
1238.466
1237.233
1235.921
1234.524
1233.317
1232.378
1231.469
1230.617
1229.855
1228.759
1227.196
1225.577
1223.883
1222.054
1220.044
1227.328
1225.284
1223.091
1220.741
1218.226
1215.523
1212.651
1209.87
1229.234
1227.335
1225.301
1223.122
1220.788
1218.27
1215.539
1212.619
1209.715
1231.007
1229.24
1227.35
1225.327
1223.165
1220.836
1218.302
1215.554
1212.58
1209.518
1232.661
1231.012
1229.251
1227.37
1225.362
1223.212
1220.872
1218.335
1215.568
1212.532
1209.277
1234.205
1232.664
1231.02
1229.266
1227.395
1225.41
1223.249
1220.911
1218.37
1215.581
1212.48
1209.005
1235.65
1234.207
1232.67