/*--------------------------------*- C++ -*----------------------------------*\
| =========                 |                                                 |
| \\      /  F ield         | OpenFOAM: The Open Source CFD Toolbox           |
|  \\    /   O peration     | Version:  2306                                  |
|   \\  /    A nd           | Website:  www.openfoam.com                      |
|    \\/     M anipulation  |                                                 |
\*---------------------------------------------------------------------------*/
FoamFile
{
    version     2.0;
    format      ascii;
    arch        "LSB;label=32;scalar=64";
    class       volScalarField;
    location    "0.3/interconnect";
    object      T;
}
// * * * * * * * * * * * * * * * * * * * * * * * * * * * * * * * * * * * * * //

dimensions      [0 0 0 1 0 0 0];

internalField   nonuniform List<scalar> 
16000
(
1158.247
1158.245
1159.796
1158.192
1158.242
1159.795
1158.19
1161.857
1159.778
1158.084
1158.237
1159.794
1158.185
1161.857
1159.777
1158.08
1163.998
1161.857
1159.744
1157.925
1158.232
1159.792
1158.179
1161.856
1159.775
1158.072
1163.997
1161.856
1159.743
1157.917
1166.068
1164.003
1161.856
1159.697
1157.723
1158.226
1159.79
1158.171
1161.854
1159.773
1158.062
1163.996
1161.854
1159.74
1157.904
1166.067
1164.002
1161.855
1159.695
1157.71
1168.026
1166.075
1164.014
1161.859
1159.641
1157.555
1158.22
1159.788
1158.163
1161.852
1159.771
1158.049
1163.994
1161.852
1159.737
1157.886
1166.066
1164.001
1161.853
1159.691
1157.684
1168.025
1166.074
1164.013
1161.857
1159.638
1157.532
1169.865
1168.033
1166.09
1164.034
1161.867
1159.6
1157.446
1158.216
1159.786
1158.155
1161.851
1159.768
1158.035
1163.993
1161.85
1159.733
1157.865
1166.065
1163.998
1161.85
1159.686
1157.65
1168.024
1166.073
1164.011
1161.854
1159.632
1157.486
1169.864
1168.032
1166.089
1164.032
1161.865
1159.595
1157.416
1171.592
1169.872
1168.048
1166.114
1164.065
1161.882
1159.576
1157.346
1158.212
1159.784
1158.148
1161.849
1159.765
1158.021
1163.991
1161.847
1159.729
1157.842
1166.063
1163.996
1161.846
1159.681
1157.614
1168.023
1166.071
1164.007
1161.848
1159.625
1157.418
1169.863
1168.031
1166.086
1164.029
1161.86
1159.585
1157.355
1171.591
1169.871
1168.047
1166.112
1164.063
1161.879
1159.569
1157.31
1173.215
1171.598
1169.885
1168.072
1166.151
1164.099
1161.895
1159.557
1157.261
1158.21
1159.783
1158.143
1161.847
1159.762
1158.009
1163.989
1161.845
1159.724
1157.815
1166.061
1163.993
1161.842
1159.674
1157.591
1168.021
1166.068
1164.003
1161.842
1159.618
1157.332
1169.862
1168.029
1166.083
1164.023
1161.853
1159.571
1157.261
1171.59
1169.87
1168.044
1166.109
1164.058
1161.874
1159.555
1157.235
1173.215
1171.597
1169.884
1168.07
1166.148
1164.097
1161.892
1159.548
1157.219
1174.744
1173.221
1171.61
1169.908
1168.108
1166.188
1164.124
1161.912
1159.545
1157.194
1158.21
1159.782
1158.14
1161.846
1159.761
1157.999
1163.987
1161.843
1159.72
1157.789
1166.059
1163.991
1161.837
1159.666
1157.532
1168.019
1166.066
1163.999
1161.834
1159.614
1169.861
1168.027
1166.079
1164.016
1161.843
1159.556
1157.129
1171.589
1169.868
1168.041
1166.103
1164.05
1161.867
1159.534
1157.118
1173.214
1171.596
1169.882
1168.067
1166.144
1164.093
1161.886
1159.53
1157.134
1174.744
1173.22
1171.61
1169.907
1168.106
1166.187
1164.123
1161.909
1159.535
1157.149
1176.188
1174.75
1173.232
1171.631
1169.941
1168.144
1166.216
1164.153
1161.933
1159.543
1157.149
1158.212
1159.782
1158.14
1161.846
1159.76
1157.994
1163.986
1161.841
1159.717
1157.769
1166.058
1163.988
1161.834
1159.658
1157.472
1168.018
1166.063
1163.994
1161.826
1159.598
1169.859
1168.024
1166.074
1164.007
1161.827
1171.588
1169.866
1168.038
1166.096
1164.038
1161.86
1159.509
1156.952
1173.213
1171.594
1169.88
1168.062
1166.136
1164.088
1161.878
1159.503
1157.001
1174.743
1173.219
1171.608
1169.904
1168.102
1166.184
1164.119
1161.902
1159.514
1157.058
1176.188
1174.749
1173.231
1171.63
1169.94
1168.143
1166.215
1164.152
1161.93
1159.532
1157.102
1177.553
1176.193
1174.76
1173.251
1171.662
1169.975
1168.171
1166.247
1164.185
1161.96
1159.551
1157.126
1158.216
1159.783
1158.143
1161.846
1159.76
1157.994
1163.985
1161.84
1159.715
1157.758
1166.057
1163.987
1161.831
1159.651
1157.427
1168.016
1166.061
1163.99
1161.819
1159.579
1169.858
1168.022
1166.07
1163.999
1161.811
1171.586
1169.863
1168.033
1166.087
1164.017
1173.211
1171.592
1169.876
1168.055
1166.124
1164.082
1161.868
1159.466
1156.812
1174.742
1173.217
1171.605
1169.899
1168.095
1166.179
1164.115
1161.892
1159.481
1156.915
1176.187
1174.748
1173.23
1171.627
1169.936
1168.14
1166.213
1164.148
1161.923
1159.509
1157.008
1177.552
1176.192
1174.76
1173.25
1171.66
1169.974
1168.17
1166.246
1164.183
1161.956
1159.54
1157.079
1178.844
1177.557
1176.203
1174.778
1173.279
1171.693
1170
1168.201
1166.28
1164.22
1161.992
1159.571
1157.125
1158.22
1159.784
1158.148
1161.846
1159.761
1157.999
1163.985
1161.84
1159.715
1157.758
1166.056
1163.986
1161.83
1159.647
1157.403
1168.015
1166.059
1163.988
1161.814
1159.563
1169.856
1168.02
1166.066
1163.992
1161.798
1171.585
1169.861
1168.029
1166.079
1164.001
1173.21
1171.59
1169.872
1168.047
1166.103
1174.741
1173.216
1171.602
1169.893
1168.083
1166.175
1164.11
1161.879
1159.436
1156.713
1176.186
1174.747
1173.227
1171.623
1169.929
1168.136
1166.21
1164.144
1161.911
1159.473
1156.861
1177.552
1176.191
1174.758
1173.248
1171.657
1169.972
1168.169
1166.244
1164.18
1161.949
1159.517
1156.985
1178.844
1177.557
1176.202
1174.777
1173.278
1171.692
1170
1168.2
1166.28
1164.219
1161.988
1159.56
1157.079
1180.068
1178.849
1177.566
1176.219
1174.804
1173.308
1171.716
1170.028
1168.232
1166.316
1164.258
1162.029
1159.601
1157.146
1158.226
1159.786
1158.155
1161.847
1159.762
1158.009
1163.986
1161.841
1159.717
1157.769
1166.056
1163.986
1161.83
1159.647
1157.403
1168.015
1166.059
1163.986
1161.811
1159.553
1169.855
1168.018
1166.064
1163.987
1161.787
1171.584
1169.86
1168.026
1166.073
1163.989
1173.209
1171.588
1169.869
1168.039
1166.087
1174.74
1173.214
1171.598
1169.885
1168.063
1176.185
1174.745
1173.225
1171.617
1169.919
1168.132
1166.206
1164.138
1161.895
1159.423
1156.657
1177.551
1176.19
1174.756
1173.244
1171.651
1169.968
1168.166
1166.242
1164.176
1161.936
1159.481
1156.84
1178.843
1177.556
1176.201
1174.774
1173.275
1171.69
1169.998
1168.199
1166.278
1164.216
1161.981
1159.538
1156.987
1180.068
1178.848
1177.566
1176.218
1174.802
1173.307
1171.715
1170.027
1168.232
1166.315
1164.257
1162.026
1159.591
1157.1
1181.228
1180.072
1178.857
1177.581
1176.243
1174.83
1173.329
1171.741
1170.057
1168.266
1166.353
1164.299
1162.07
1159.641
1157.187
1158.232
1159.788
1158.163
1161.849
1159.765
1158.021
1163.987
1161.843
1159.72
1157.789
1166.057
1163.987
1161.831
1159.651
1157.427
1168.015
1166.059
1163.986
1161.811
1159.553
1169.855
1168.018
1166.062
1163.984
1161.782
1171.583
1169.858
1168.024
1166.068
1163.981
1173.208
1171.587
1169.866
1168.033
1166.076
1174.739
1173.212
1171.595
1169.878
1168.049
1176.184
1174.743
1173.221
1171.61
1169.9
1177.55
1176.189
1174.753
1173.238
1171.641
1169.965
1168.163
1166.238
1164.169
1161.919
1159.43
1156.641
1178.843
1177.555
1176.199
1174.771
1173.269
1171.686
1169.996
1168.197
1166.276
1164.211
1161.97
1159.504
1156.848
1180.067
1178.847
1177.564
1176.216
1174.799
1173.305
1171.713
1170.026
1168.231
1166.314
1164.255
1162.02
1159.572
1157.01
1181.228
1180.072
1178.857
1177.58
1176.241
1174.829
1173.328
1171.74
1170.056
1168.265
1166.353
1164.298
1162.069
1159.632
1157.141
1182.328
1181.232
1180.08
1178.871
1177.604
1176.267
1174.849
1173.351
1171.767
1170.087
1168.301
1166.393
1164.342
1162.116
1159.69
1158.237
1159.79
1158.171
1161.851
1159.768
1158.035
1163.989
1161.845
1159.724
1157.815
1166.058
1163.988
1161.834
1159.658
1157.472
1168.015
1166.059
1163.988
1161.814
1159.563
1169.855
1168.018
1166.062
1163.984
1161.782
1171.582
1169.857
1168.022
1166.066
1163.976
1173.207
1171.585
1169.863
1168.029
1166.069
1174.738
1173.211
1171.592
1169.873
1168.038
1176.183
1174.742
1173.218
1171.604
1169.887
1177.549
1176.187
1174.75
1173.232
1171.624
1178.842
1177.553
1176.196
1174.766
1173.26
1171.683
1169.993
1168.195
1166.272
1164.204
1161.952
1159.457
1156.66
1180.067
1178.846
1177.562
1176.212
1174.794
1173.302
1171.711
1170.024
1168.229
1166.312
1164.251
1162.01
1159.543
1156.878
1181.227
1180.071
1178.855
1177.578
1176.239
1174.827
1173.327
1171.739
1170.055
1168.265
1166.353
1164.297
1162.065
1159.616
1157.051
1182.328
1181.232
1180.08
1178.87
1177.602
1176.266
1174.848
1173.351
1171.767
1170.087
1168.301
1166.393
1164.342
1162.115
1159.682
1183.371
1182.332
1181.24
1180.094
1178.892
1177.626
1176.285
1174.87
1173.376
1171.795
1170.119
1168.337
1166.433
1164.386
1162.164
1158.242
1159.792
1158.179
1161.852
1159.771
1158.049
1163.991
1161.847
1159.729
1157.842
1166.059
1163.991
1161.837
1159.666
1157.532
1168.016
1166.061
1163.99
1161.819
1159.579
1169.855
1168.018
1166.064
1163.987
1161.787
1171.582
1169.857
1168.022
1166.066
1163.976
1173.207
1171.585
1169.862
1168.027
1166.065
1174.737
1173.209
1171.59
1169.869
1168.032
1176.182
1174.74
1173.216
1171.599
1169.878
1177.548
1176.185
1174.747
1173.226
1171.612
1178.841
1177.552
1176.193
1174.76
1173.245
1180.066
1178.845
1177.56
1176.208
1174.786
1173.299
1171.709
1170.022
1168.227
1166.309
1164.245
1161.996
1159.504
1156.707
1181.227
1180.07
1178.854
1177.575
1176.234
1174.824
1173.325
1171.738
1170.054
1168.264
1166.352
1164.295
1162.059
1159.593
1156.918
1182.327
1181.231
1180.079
1178.869
1177.6
1176.264
1174.847
1173.35
1171.766
1170.087
1168.301
1166.394
1164.343
1162.114
1159.668
1183.37
1182.331
1181.239
1180.093
1178.891
1177.625
1176.284
1174.869
1173.375
1171.795
1170.119
1168.337
1166.434
1164.387
1162.165
1184.359
1183.374
1182.339
1181.252
1180.113
1178.913
1177.643
1176.304
1174.892
1173.401
1171.824
1170.152
1168.373
1166.474
1164.43
1158.245
1159.794
1158.185
1161.854
1159.773
1158.062
1163.993
1161.85
1159.733
1157.865
1166.061
1163.993
1161.842
1159.674
1157.591
1168.018
1166.063
1163.994
1161.826
1159.598
1169.856
1168.02
1166.066
1163.992
1161.798
1171.583
1169.858
1168.024
1166.068
1163.981
1173.207
1171.585
1169.862
1168.027
1166.065
1174.737
1173.209
1171.589
1169.867
1168.029
1176.181
1174.739
1173.214
1171.596
1169.872
1177.547
1176.184
1174.745
1173.222
1171.604
1178.84
1177.55
1176.191
1174.755
1173.234
1180.065
1178.843
1177.558
1176.202
1174.772
1181.226
1180.069
1178.851
1177.571
1176.226
1174.821
1173.323
1171.736
1170.053
1168.262
1166.35
1164.291
1162.049
1159.566
1156.756
1182.327
1181.23
1180.077
1178.866
1177.596
1176.262
1174.845
1173.349
1171.765
1170.086
1168.301
1166.394
1164.344
1162.113
1159.651
1183.37
1182.331
1181.238
1180.091
1178.889
1177.624
1176.283
1174.869
1173.375
1171.795
1170.119
1168.338
1166.436
1164.39
1162.166
1184.359
1183.374
1182.338
1181.252
1180.112
1178.913
1177.642
1176.304
1174.892
1173.401
1171.824
1170.152
1168.375
1166.476
1164.433
1185.294
1184.362
1183.381
1182.351
1181.271
1180.133
1178.929
1177.661
1176.325
1174.916
1173.428
1171.854
1170.185
1168.41
1166.514
1158.247
1159.795
1158.19
1161.856
1159.775
1158.072
1163.994
1161.852
1159.737
1157.886
1166.063
1163.996
1161.846
1159.681
1157.614
1168.019
1166.066
1163.999
1161.834
1159.614
1169.858
1168.022
1166.07
1163.999
1161.811
1171.584
1169.86
1168.026
1166.073
1163.989
1173.207
1171.585
1169.863
1168.029
1166.069
1174.737
1173.209
1171.589
1169.867
1168.029
1176.181
1174.739
1173.213
1171.594
1169.869
1177.546
1176.183
1174.743
1173.219
1171.599
1178.839
1177.549
1176.188
1174.751
1173.226
1180.064
1178.842
1177.555
1176.198
1174.762
1181.225
1180.067
1178.849
1177.566
1176.213
1182.326
1181.229
1180.075
1178.862
1177.588
1176.259
1174.844
1173.347
1171.764
1170.085
1168.3
1166.393
1164.343
1162.111
1159.635
1183.369
1182.33
1181.236
1180.088
1178.885
1177.621
1176.281
1174.867
1173.374
1171.794
1170.12
1168.34
1166.439
1164.395
1162.17
1184.358
1183.373
1182.337
1181.25
1180.11
1178.911
1177.641
1176.303
1174.891
1173.401
1171.824
1170.154
1168.377
1166.48
1164.438
1185.294
1184.362
1183.381
1182.35
1181.27
1180.133
1178.928
1177.661
1176.324
1174.916
1173.428
1171.854
1170.186
1168.412
1166.517
1186.18
1185.298
1184.369
1183.393
1182.369
1181.29
1180.148
1178.946
1177.68
1176.346
1174.94
1173.455
1171.884
1170.218
1168.446
1159.796
1158.192
1161.857
1159.777
1158.08
1163.996
1161.854
1159.74
1157.904
1166.065
1163.998
1161.85
1159.686
1157.65
1168.021
1166.068
1164.003
1161.842
1159.618
1157.332
1169.859
1168.024
1166.074
1164.007
1161.827
1171.585
1169.861
1168.029
1166.079
1164.001
1173.208
1171.587
1169.866
1168.033
1166.076
1174.737
1173.209
1171.59
1169.869
1168.032
1176.181
1174.739
1173.213
1171.594
1169.869
1177.546
1176.183
1174.742
1173.217
1171.596
1178.838
1177.548
1176.187
1174.748
1173.221
1180.063
1178.841
1177.553
1176.194
1174.755
1181.224
1180.066
1178.847
1177.562
1176.204
1182.325
1181.227
1180.072
1178.857
1177.576
1183.369
1182.328
1181.234
1180.084
1178.878
1177.619
1176.28
1174.866
1173.373
1171.793
1170.119
1168.34
1166.441
1164.4
1162.179
1184.357
1183.372
1182.336
1181.247
1180.106
1178.909
1177.64
1176.302
1174.891
1173.4
1171.825
1170.155
1168.38
1166.486
1164.448
1185.294
1184.361
1183.38
1182.349
1181.268
1180.131
1178.927
1177.66
1176.324
1174.915
1173.428
1171.856
1170.189
1168.417
1166.523
1186.179
1185.297
1184.368
1183.392
1182.368
1181.289
1180.148
1178.946
1177.68
1176.346
1174.94
1173.456
1171.885
1170.22
1168.449
1187.016
1186.183
1185.304
1184.38
1183.41
1182.387
1181.304
1180.164
1178.964
1177.7
1176.369
1174.965
1173.483
1171.914
1170.251
1161.857
1159.778
1158.084
1163.997
1161.856
1159.743
1157.917
1166.066
1164.001
1161.853
1159.691
1157.684
1168.023
1166.071
1164.007
1161.848
1159.625
1157.418
1169.861
1168.027
1166.079
1164.016
1161.843
1159.556
1157.129
1171.586
1169.863
1168.033
1166.087
1164.017
1173.209
1171.588
1169.869
1168.039
1166.087
1174.738
1173.211
1171.592
1169.873
1168.038
1176.181
1174.739
1173.214
1171.596
1169.872
1177.546
1176.183
1174.742
1173.217
1171.596
1178.838
1177.548
1176.186
1174.746
1173.219
1180.062
1178.84
1177.552
1176.191
1174.75
1181.223
1180.065
1178.845
1177.558
1176.197
1182.324
1181.226
1180.07
1178.853
1177.568
1183.368
1182.327
1181.232
1180.08
1178.867
1184.357
1183.371
1182.334
1181.244
1180.1
1178.907
1177.638
1176.3
1174.889
1173.4
1171.824
1170.156
1168.383
1166.493
1164.463
1185.293
1184.36
1183.378
1182.346
1181.264
1180.129
1178.926
1177.659
1176.323
1174.915
1173.428
1171.857
1170.192
1168.423
1166.534
1186.179
1185.297
1184.367
1183.391
1182.366
1181.288
1180.147
1178.945
1177.679
1176.346
1174.941
1173.457
1171.888
1170.225
1168.456
1187.016
1186.182
1185.304
1184.379
1183.409
1182.386
1181.304
1180.164
1178.964
1177.7
1176.369
1174.966
1173.484
1171.916
1170.254
1187.805
1187.019
1186.189
1185.315
1184.397
1183.427
1182.401
1181.319
1180.181
1178.983
1177.722
1176.392
1174.991
1173.51
1171.944
1163.998
1161.857
1159.744
1157.925
1166.067
1164.002
1161.855
1159.695
1157.71
1168.024
1166.073
1164.011
1161.854
1159.632
1157.486
1169.862
1168.029
1166.083
1164.023
1161.853
1159.571
1157.261
1171.588
1169.866
1168.038
1166.096
1164.038
1161.86
1159.509
1156.952
1173.21
1171.59
1169.872
1168.047
1166.103
1174.739
1173.212
1171.595
1169.878
1168.049
1176.182
1174.74
1173.216
1171.599
1169.878
1177.546
1176.183
1174.743
1173.219
1171.599
1178.838
1177.548
1176.186
1174.746
1173.219
1180.062
1178.84
1177.551
1176.19
1174.748
1181.223
1180.064
1178.843
1177.555
1176.193
1182.323
1181.225
1180.068
1178.849
1177.561
1183.367
1182.326
1181.23
1180.076
1178.858
1184.356
1183.37
1182.332
1181.239
1180.089
1185.292
1184.359
1183.376
1182.343
1181.258
1180.127
1178.925
1177.657
1176.322
1174.914
1173.428
1171.858
1170.195
1168.43
1166.55
1186.178
1185.296
1184.366
1183.388
1182.362
1181.286
1180.145
1178.944
1177.679
1176.346
1174.941
1173.458
1171.891
1170.231
1168.466
1187.015
1186.182
1185.303
1184.378
1183.407
1182.385
1181.303
1180.163
1178.963
1177.7
1176.37
1174.967
1173.486
1171.92
1170.26
1187.804
1187.019
1186.189
1185.314
1184.396
1183.427
1182.4
1181.319
1180.181
1178.983
1177.722
1176.393
1174.992
1173.512
1171.946
1188.547
1187.808
1187.025
1186.2
1185.331
1184.413
1183.44
1182.415
1181.336
1180.199
1179.003
1177.743
1176.416
1175.016
1173.537
1166.068
1164.003
1161.856
1159.697
1157.723
1168.025
1166.074
1164.013
1161.857
1159.638
1157.532
1169.863
1168.031
1166.086
1164.029
1161.86
1159.585
1157.355
1171.589
1169.868
1168.041
1166.103
1164.05
1161.867
1159.534
1157.118
1173.211
1171.592
1169.876
1168.055
1166.124
1164.082
1161.868
1159.466
1156.812
1174.74
1173.214
1171.598
1169.885
1168.063
1176.183
1174.742
1173.218
1171.604
1169.887
1177.547
1176.184
1174.745
1173.222
1171.604
1178.838
1177.548
1176.187
1174.748
1173.221
1180.062
1178.84
1177.551
1176.19
1174.748
1181.222
1180.064
1178.843
1177.554
1176.191
1182.323
1181.224
1180.067
1178.847
1177.557
1183.366
1182.325
1181.228
1180.073
1178.852
1184.355
1183.369
1182.33
1181.236
1180.081
1185.292
1184.358
1183.374
1182.339
1181.248
1186.178
1185.295
1184.364
1183.385
1182.357
1181.284
1180.144
1178.943
1177.678
1176.345
1174.94
1173.459
1171.893
1170.237
1168.482
1187.015
1186.181
1185.301
1184.376
1183.404
1182.383
1181.301
1180.162
1178.963
1177.7
1176.37
1174.968
1173.489
1171.926
1170.27
1187.804
1187.018
1186.188
1185.313
1184.394
1183.425
1182.399
1181.318
1180.181
1178.983
1177.722
1176.394
1174.994
1173.516
1171.952
1188.547
1187.807
1187.025
1186.199
1185.33
1184.413
1183.44
1182.415
1181.335
1180.199
1179.003
1177.744
1176.417
1175.018
1173.539
1189.244
1188.55
1187.814
1187.035
1186.215
1185.347
1184.426
1183.454
1182.431
1181.353
1180.218
1179.023
1177.765
1176.439
1175.041
1168.026
1166.075
1164.014
1161.859
1159.641
1157.555
1169.864
1168.032
1166.089
1164.032
1161.865
1159.595
1157.416
1171.59
1169.87
1168.044
1166.109
1164.058
1161.874
1159.555
1157.235
1173.213
1171.594
1169.88
1168.062
1166.136
1164.088
1161.878
1159.503
1157.001
1174.741
1173.216
1171.602
1169.893
1168.083
1166.175
1164.11
1161.879
1159.436
1156.713
1176.184
1174.743
1173.221
1171.61
1169.9
1177.548
1176.185
1174.747
1173.226
1171.612
1178.839
1177.549
1176.188
1174.751
1173.226
1180.062
1178.84
1177.552
1176.191
1174.75
1181.222
1180.064
1178.843
1177.554
1176.191
1182.323
1181.224
1180.066
1178.846
1177.555
1183.366
1182.324
1181.227
1180.071
1178.849
1184.354
1183.368
1182.328
1181.233
1180.076
1185.291
1184.357
1183.373
1182.335
1181.241
1186.177
1185.294
1184.362
1183.381
1182.347
1187.014
1186.18
1185.3
1184.372
1183.398
1182.381
1181.3
1180.161
1178.962
1177.699
1176.369
1174.969
1173.491
1171.932
1170.284
1187.803
1187.017
1186.186
1185.311
1184.391
1183.424
1182.398
1181.317
1180.18
1178.983
1177.722
1176.395
1174.996
1173.521
1171.961
1188.546
1187.807
1187.024
1186.198
1185.328
1184.412
1183.439
1182.414
1181.335
1180.199
1179.003
1177.745
1176.419
1175.021
1173.545
1189.244
1188.55
1187.813
1187.035
1186.214
1185.347
1184.425
1183.454
1182.43
1181.353
1180.218
1179.024
1177.766
1176.441
1175.043
1189.897
1189.247
1188.556
1187.824
1187.05
1186.231
1185.359
1184.439
1183.469
1182.447
1181.37
1180.237
1179.044
1177.787
1176.462
1169.865
1168.033
1166.09
1164.034
1161.867
1159.6
1157.446
1171.591
1169.871
1168.047
1166.112
1164.063
1161.879
1159.569
1157.31
1173.214
1171.596
1169.882
1168.067
1166.144
1164.093
1161.886
1159.53
1157.134
1174.742
1173.217
1171.605
1169.899
1168.095
1166.179
1164.115
1161.892
1159.481
1156.915
1176.185
1174.745
1173.225
1171.617
1169.919
1168.132
1166.206
1164.138
1161.895
1159.423
1156.657
1177.549
1176.187
1174.75
1173.232
1171.624
1178.84
1177.55
1176.191
1174.755
1173.234
1180.063
1178.841
1177.553
1176.194
1174.755
1181.223
1180.064
1178.843
1177.555
1176.193
1182.323
1181.224
1180.066
1178.846
1177.555
1183.365
1182.324
1181.227
1180.069
1178.847
1184.354
1183.367
1182.327
1181.23
1180.072
1185.29
1184.356
1183.371
1182.332
1181.235
1186.176
1185.293
1184.361
1183.378
1182.34
1187.013
1186.179
1185.298
1184.369
1183.389
1187.803
1187.016
1186.185
1185.308
1184.385
1183.422
1182.397
1181.316
1180.179
1178.982
1177.722
1176.396
1174.999
1173.527
1171.974
1188.546
1187.806
1187.023
1186.195
1185.325
1184.41
1183.438
1182.413
1181.334
1180.199
1179.003
1177.746
1176.421
1175.026
1173.553
1189.244
1188.549
1187.812
1187.033
1186.213
1185.345
1184.424
1183.453
1182.43
1181.352
1180.218
1179.025
1177.768
1176.444
1175.048
1189.897
1189.247
1188.556
1187.823
1187.05
1186.23
1185.359
1184.439
1183.469
1182.447
1181.371
1180.238
1179.045
1177.789
1176.464
1190.506
1189.9
1189.253
1188.566
1187.838
1187.066
1186.242
1185.372
1184.453
1183.485
1182.464
1181.389
1180.257
1179.065
1177.808
1171.592
1169.872
1168.048
1166.114
1164.065
1161.882
1159.576
1157.346
1173.215
1171.597
1169.884
1168.07
1166.148
1164.097
1161.892
1159.548
1157.219
1174.743
1173.219
1171.608
1169.904
1168.102
1166.184
1164.119
1161.902
1159.514
1157.058
1176.186
1174.747
1173.227
1171.623
1169.929
1168.136
1166.21
1164.144
1161.911
1159.473
1156.861
1177.55
1176.189
1174.753
1173.238
1171.641
1169.965
1168.163
1166.238
1164.169
1161.919
1159.43
1156.641
1178.841
1177.552
1176.193
1174.76
1173.245
1180.064
1178.842
1177.555
1176.198
1174.762
1181.223
1180.065
1178.845
1177.558
1176.197
1182.323
1181.224
1180.067
1178.847
1177.557
1183.365
1182.324
1181.227
1180.069
1178.847
1184.354
1183.367
1182.327
1181.229
1180.071
1185.29
1184.355
1183.37
1182.33
1181.232
1186.176
1185.292
1184.359
1183.375
1182.335
1187.013
1186.178
1185.296
1184.365
1183.382
1187.802
1187.015
1186.183
1185.304
1184.376
1188.545
1187.805
1187.021
1186.192
1185.32
1184.408
1183.437
1182.412
1181.333
1180.198
1179.003
1177.746
1176.424
1175.031
1173.565
1189.243
1188.548
1187.811
1187.031
1186.21
1185.344
1184.423
1183.452
1182.429
1181.352
1180.218
1179.026
1177.77
1176.449
1175.056
1189.897
1189.246
1188.555
1187.822
1187.048
1186.229
1185.358
1184.438
1183.468
1182.447
1181.371
1180.238
1179.047
1177.792
1176.469
1190.506
1189.9
1189.253
1188.565
1187.838
1187.065
1186.242
1185.372
1184.453
1183.485
1182.464
1181.389
1180.258
1179.066
1177.81
1191.073
1190.509
1189.906
1189.263
1188.58
1187.853
1187.077
1186.255
1185.386
1184.469
1183.501
1182.481
1181.407
1180.276
1179.084
1173.215
1171.598
1169.885
1168.072
1166.151
1164.099
1161.895
1159.557
1157.261
1174.744
1173.22
1171.61
1169.907
1168.106
1166.187
1164.123
1161.909
1159.535
1157.149
1176.187
1174.748
1173.23
1171.627
1169.936
1168.14
1166.213
1164.148
1161.923
1159.509
1157.008
1177.551
1176.19
1174.756
1173.244
1171.651
1169.968
1168.166
1166.242
1164.176
1161.936
1159.481
1156.84
1178.842
1177.553
1176.196
1174.766
1173.26
1171.683
1169.993
1168.195
1166.272
1164.204
1161.952
1159.457
1156.66
1180.065
1178.843
1177.558
1176.202
1174.772
1181.224
1180.066
1178.847
1177.562
1176.204
1182.323
1181.225
1180.068
1178.849
1177.561
1183.366
1182.324
1181.227
1180.071
1178.849
1184.354
1183.367
1182.327
1181.229
1180.071
1185.29
1184.355
1183.369
1182.329
1181.23
1186.175
1185.291
1184.358
1183.373
1182.332
1187.012
1186.177
1185.295
1184.363
1183.377
1187.801
1187.014
1186.181
1185.301
1184.37
1188.545
1187.804
1187.019
1186.189
1185.311
1189.243
1188.547
1187.81
1187.028
1186.205
1185.342
1184.422
1183.451
1182.428
1181.351
1180.218
1179.026
1177.772
1176.454
1175.067
1189.896
1189.246
1188.553
1187.82
1187.045
1186.228
1185.357
1184.438
1183.468
1182.446
1181.371
1180.239
1179.049
1177.796
1176.476
1190.506
1189.899
1189.252
1188.564
1187.836
1187.064
1186.241
1185.371
1184.453
1183.485
1182.464
1181.39
1180.259
1179.069
1177.815
1191.073
1190.509
1189.905
1189.262
1188.579
1187.853
1187.077
1186.255
1185.386
1184.469
1183.501
1182.482
1181.408
1180.278
1179.086
1191.597
1191.076
1190.515
1189.915
1189.277
1188.595
1187.864
1187.089
1186.268
1185.401
1184.484
1183.518
1182.499
1181.426
1180.295
1174.744
1173.221
1171.61
1169.908
1168.108
1166.188
1164.124
1161.912
1159.545
1157.194
1176.188
1174.749
1173.231
1171.63
1169.94
1168.143
1166.215
1164.152
1161.93
1159.532
1157.102
1177.552
1176.191
1174.758
1173.248
1171.657
1169.972
1168.169
1166.244
1164.18
1161.949
1159.517
1156.985
1178.843
1177.555
1176.199
1174.771
1173.269
1171.686
1169.996
1168.197
1166.276
1164.211
1161.97
1159.504
1156.848
1180.066
1178.845
1177.56
1176.208
1174.786
1173.299
1171.709
1170.022
1168.227
1166.309
1164.245
1161.996
1159.504
1156.707
1181.225
1180.067
1178.849
1177.566
1176.213
1182.324
1181.226
1180.07
1178.853
1177.568
1183.366
1182.325
1181.228
1180.073
1178.852
1184.354
1183.367
1182.327
1181.23
1180.072
1185.29
1184.355
1183.369
1182.329
1181.23
1186.175
1185.291
1184.357
1183.372
1182.33
1187.012
1186.176
1185.294
1184.361
1183.374
1187.801
1187.013
1186.18
1185.298
1184.365
1188.544
1187.803
1187.018
1186.186
1185.305
1189.242
1188.546
1187.808
1187.025
1186.196
1189.895
1189.245
1188.552
1187.817
1187.04
1186.226
1185.356
1184.437
1183.467
1182.446
1181.371
1180.24
1179.051
1177.801
1176.487
1190.505
1189.898
1189.251
1188.562
1187.833
1187.063
1186.24
1185.371
1184.452
1183.484
1182.464
1181.391
1180.261
1179.073
1177.822
1191.072
1190.508
1189.904
1189.261
1188.578
1187.852
1187.076
1186.254
1185.386
1184.468
1183.501
1182.483
1181.41
1180.28
1179.091
1191.597
1191.075
1190.514
1189.915
1189.276
1188.594
1187.864
1187.089
1186.268
1185.401
1184.484
1183.518
1182.5
1181.427
1180.297
1192.079
1191.6
1191.081
1190.524
1189.929
1189.291
1188.606
1187.876
1187.102
1186.283
1185.416
1184.5
1183.535
1182.517
1181.444
1176.188
1174.75
1173.232
1171.631
1169.941
1168.144
1166.216
1164.153
1161.933
1159.543
1157.149
1177.552
1176.192
1174.76
1173.25
1171.66
1169.974
1168.17
1166.246
1164.183
1161.956
1159.54
1157.079
1178.843
1177.556
1176.201
1174.774
1173.275
1171.69
1169.998
1168.199
1166.278
1164.216
1161.981
1159.538
1156.987
1180.067
1178.846
1177.562
1176.212
1174.794
1173.302
1171.711
1170.024
1168.229
1166.312
1164.251
1162.01
1159.543
1156.878
1181.226
1180.069
1178.851
1177.571
1176.226
1174.821
1173.323
1171.736
1170.053
1168.262
1166.35
1164.291
1162.049
1159.566
1156.756
1182.325
1181.227
1180.072
1178.857
1177.576
1183.367
1182.326
1181.23
1180.076
1178.858
1184.354
1183.368
1182.328
1181.233
1180.076
1185.29
1184.355
1183.37
1182.33
1181.232
1186.175
1185.291
1184.357
1183.372
1182.33
1187.011
1186.176
1185.293
1184.36
1183.373
1187.8
1187.013
1186.179
1185.296
1184.362
1188.543
1187.802
1187.016
1186.183
1185.301
1189.241
1188.546
1187.806
1187.022
1186.19
1189.895
1189.244
1188.55
1187.814
1187.032
1190.505
1189.898
1189.249
1188.559
1187.828
1187.061
1186.239
1185.37
1184.452
1183.484
1182.464
1181.391
1180.263
1179.078
1177.832
1191.072
1190.508
1189.903
1189.259
1188.575
1187.85
1187.075
1186.254
1185.385
1184.468
1183.502
1182.483
1181.412
1180.284
1179.097
1191.596
1191.075
1190.514
1189.913
1189.274
1188.593
1187.863
1187.089
1186.268
1185.401
1184.485
1183.519
1182.501
1181.43
1180.301
1192.079
1191.599
1191.081
1190.524
1189.928
1189.29
1188.605
1187.876
1187.102
1186.283
1185.416
1184.501
1183.536
1182.518
1181.445
1192.52
1192.082
1191.605
1191.09
1190.538
1189.943
1189.302
1188.617
1187.889
1187.116
1186.297
1185.431
1184.517
1183.552
1182.534
1177.553
1176.193
1174.76
1173.251
1171.662
1169.975
1168.171
1166.247
1164.185
1161.96
1159.551
1157.126
1178.844
1177.557
1176.202
1174.777
1173.278
1171.692
1170
1168.2
1166.28
1164.219
1161.988
1159.56
1157.079
1180.067
1178.847
1177.564
1176.216
1174.799
1173.305
1171.713
1170.026
1168.231
1166.314
1164.255
1162.02
1159.572
1157.01
1181.227
1180.07
1178.854
1177.575
1176.234
1174.824
1173.325
1171.738
1170.054
1168.264
1166.352
1164.295
1162.059
1159.593
1156.918
1182.326
1181.229
1180.075
1178.862
1177.588
1176.259
1174.844
1173.347
1171.764
1170.085
1168.3
1166.393
1164.343
1162.111
1159.635
1183.368
1182.327
1181.232
1180.08
1178.867
1184.355
1183.369
1182.33
1181.236
1180.081
1185.29
1184.356
1183.371
1182.332
1181.235
1186.175
1185.291
1184.358
1183.373
1182.332
1187.011
1186.176
1185.293
1184.36
1183.373
1187.8
1187.013
1186.178
1185.295
1184.361
1188.543
1187.802
1187.015
1186.182
1185.298
1189.241
1188.545
1187.805
1187.019
1186.186
1189.894
1189.243
1188.549
1187.811
1187.026
1190.504
1189.897
1189.247
1188.556
1187.82
1191.071
1190.507
1189.902
1189.256
1188.57
1187.849
1187.074
1186.253
1185.384
1184.468
1183.501
1182.484
1181.414
1180.289
1179.107
1191.596
1191.074
1190.512
1189.911
1189.272
1188.592
1187.862
1187.088
1186.268
1185.4
1184.485
1183.52
1182.503
1181.433
1180.307
1192.079
1191.599
1191.08
1190.522
1189.927
1189.289
1188.604
1187.876
1187.102
1186.283
1185.416
1184.502
1183.537
1182.52
1181.449
1192.52
1192.082
1191.605
1191.09
1190.537
1189.943
1189.301
1188.617
1187.889
1187.116
1186.298
1185.432
1184.518
1183.553
1182.535
1192.92
1192.523
1192.087
1191.614
1191.104
1190.552
1189.953
1189.313
1188.63
1187.902
1187.13
1186.313
1185.447
1184.533
1183.568
1178.844
1177.557
1176.203
1174.778
1173.279
1171.693
1170
1168.201
1166.28
1164.22
1161.992
1159.571
1157.125
1180.068
1178.848
1177.566
1176.218
1174.802
1173.307
1171.715
1170.027
1168.232
1166.315
1164.257
1162.026
1159.591
1157.1
1181.227
1180.071
1178.855
1177.578
1176.239
1174.827
1173.327
1171.739
1170.055
1168.265
1166.353
1164.297
1162.065
1159.616
1157.051
1182.327
1181.23
1180.077
1178.866
1177.596
1176.262
1174.845
1173.349
1171.765
1170.086
1168.301
1166.394
1164.344
1162.113
1159.651
1183.369
1182.328
1181.234
1180.084
1178.878
1177.619
1176.28
1174.866
1173.373
1171.793
1170.119
1168.34
1166.441
1164.4
1162.179
1184.356
1183.37
1182.332
1181.239
1180.089
1185.291
1184.357
1183.373
1182.335
1181.241
1186.176
1185.292
1184.359
1183.375
1182.335
1187.012
1186.176
1185.294
1184.361
1183.374
1187.8
1187.013
1186.178
1185.295
1184.361
1188.543
1187.801
1187.015
1186.181
1185.296
1189.24
1188.544
1187.804
1187.018
1186.183
1189.894
1189.242
1188.547
1187.808
1187.022
1190.503
1189.896
1189.246
1188.553
1187.815
1191.07
1190.506
1189.9