/*--------------------------------*- C++ -*----------------------------------*\
| =========                 |                                                 |
| \\      /  F ield         | OpenFOAM: The Open Source CFD Toolbox           |
|  \\    /   O peration     | Version:  2306                                  |
|   \\  /    A nd           | Website:  www.openfoam.com                      |
|    \\/     M anipulation  |                                                 |
\*---------------------------------------------------------------------------*/
FoamFile
{
    version     2.0;
    format      ascii;
    arch        "LSB;label=32;scalar=64";
    class       volScalarField;
    location    "0.6/fuel";
    object      diffSp.H2;
}
// * * * * * * * * * * * * * * * * * * * * * * * * * * * * * * * * * * * * * //

dimensions      [0 2 -1 0 0 0 0];

internalField   nonuniform List<scalar> 
16000
(
0.0001070852
0.0001070725
0.0001073717
0.0001071001
0.0001070404
0.0001073756
0.0001070876
0.0001076232
0.0001073836
0.0001071315
0.0001069802
0.000107382
0.0001070561
0.000107631
0.0001073876
0.0001071195
0.0001078451
0.0001076326
0.0001074093
0.0001071682
0.0001068678
0.0001073917
0.0001069969
0.0001076465
0.0001073941
0.000107089
0.0001078535
0.0001076405
0.0001074135
0.0001071567
0.0001080487
0.0001078528
0.0001076536
0.0001074393
0.0001072424
0.0001067122
0.000107396
0.0001068861
0.000107673
0.0001074041
0.0001070315
0.0001078707
0.0001076561
0.0001074204
0.0001071274
0.0001080568
0.0001078612
0.0001076615
0.0001074438
0.000107232
0.0001082401
0.000108055
0.0001078702
0.0001076782
0.0001075005
0.0001608899
0.0001065077
0.0001074037
0.0001067328
0.0001077061
0.0001074084
0.0001069233
0.0001079002
0.0001076825
0.0001074309
0.0001070719
0.0001080735
0.0001078783
0.0001076774
0.0001074513
0.000107205
0.0001082477
0.000108063
0.0001078786
0.0001076864
0.0001075056
0.0001608748
0.0001084219
0.0001082452
0.0001080696
0.0001078908
0.0001077288
0.0001612723
0.0001609024
0.0001063202
0.0001073799
0.0001065309
0.0001077538
0.0001074161
0.0001067733
0.0001079397
0.0001077154
0.000107436
0.0001069665
0.0001081023
0.0001079077
0.000107704
0.0001074625
0.0001071531
0.0001082634
0.0001080797
0.0001078959
0.0001077025
0.0001075141
0.0001608352
0.0001084289
0.0001082527
0.0001080778
0.0001078994
0.0001077372
0.00016128
0.0001608875
0.0001085955
0.0001084261
0.0001082578
0.0001080872
0.0001079334
0.0001616108
0.0001612824
0.0001609194
0.0001061781
0.0001073502
0.0001063457
0.0001077798
0.0001073925
0.0001065747
0.0001079961
0.0001077627
0.0001074442
0.0001068202
0.0001081418
0.0001079469
0.0001077371
0.0001074683
0.0001070527
0.0001082905
0.0001081084
0.0001079254
0.0001077295
0.000107527
0.000160759
0.0001084436
0.0001082685
0.0001080945
0.0001079168
0.0001077541
0.0001612931
0.0001608485
0.0001086021
0.0001084331
0.0001082653
0.0001080954
0.0001079422
0.0001616235
0.0001612901
0.0001609048
0.0001087616
0.000108599
0.0001084369
0.0001082729
0.0001081238
0.0001619148
0.000161619
0.0001612962
0.0001609347
0.000106103
0.0001073217
0.0001062053
0.0001077966
0.0001073632
0.0001063923
0.0001080357
0.0001077883
0.0001074211
0.0001066249
0.0001081979
0.0001080028
0.0001077843
0.0001074772
0.0001069124
0.0001083282
0.0001081476
0.0001079646
0.0001077627
0.0001075348
0.0001606109
0.000108469
0.0001082955
0.0001081233
0.0001079465
0.000107782
0.0001613128
0.0001607734
0.0001086158
0.0001084478
0.0001082811
0.0001081123
0.0001079602
0.0001616488
0.0001613033
0.0001608665
0.0001087678
0.0001086055
0.000108444
0.0001082805
0.0001081321
0.000161928
0.0001616317
0.000161304
0.0001609204
0.0001089207
0.0001087645
0.0001086084
0.0001084501
0.0001083047
0.000162198
0.0001619215
0.0001616302
0.0001613085
0.0001609522
0.000106103
0.0001073052
0.0001061311
0.0001078039
0.000107335
0.0001062537
0.0001080659
0.0001078049
0.0001073923
0.0001064453
0.0001082402
0.0001080419
0.0001078098
0.0001074548
0.0001067223
0.0001083815
0.0001082031
0.0001080202
0.00010781
0.0001075458
0.0001604036
0.0001085044
0.0001083329
0.0001081624
0.0001079857
0.0001078163
0.0001613247
0.000160627
0.0001086395
0.000108473
0.0001083081
0.0001081411
0.0001079905
0.0001616907
0.000161323
0.0001607927
0.0001087807
0.0001086192
0.0001084587
0.0001082963
0.0001081494
0.0001619549
0.0001616569
0.0001613173
0.0001608828
0.0001089265
0.0001087706
0.000108615
0.0001084572
0.0001083125
0.0001622106
0.0001619347
0.0001616429
0.0001613163
0.0001609383
0.0001090731
0.0001089231
0.0001087728
0.00010862
0.0001084781
0.0001624676
0.0001622035
0.0001619307
0.0001616402
0.0001613227
0.0003920267
0.0001061781
0.0001073052
0.0001061311
0.0001078067
0.0001073188
0.0001061804
0.000108084
0.0001078122
0.0001073647
0.0001063087
0.0001082734
0.0001080718
0.0001078263
0.0001074267
0.0001065465
0.0001084229
0.0001082449
0.000108059
0.0001078354
0.0001075249
0.000160122
0.0001085545
0.0001083856
0.0001082176
0.0001080411
0.0001078644
0.0001613411
0.000160422
0.0001086729
0.0001085082
0.0001083454
0.0001081801
0.0001080303
0.0001617419
0.0001613346
0.0001606484
0.0001088029
0.0001086428
0.0001084839
0.0001083234
0.0001081786
0.0001620003
0.0001616985
0.000161337
0.0001608103
0.0001089387
0.0001087835
0.0001086287
0.0001084719
0.0001083286
0.0001622364
0.0001619614
0.000161668
0.0001613297
0.0001609015
0.0001090785
0.0001089289
0.0001087789
0.0001086266
0.0001084853
0.0001624793
0.000162216
0.0001619439
0.0001616529
0.0001613306
0.000391996
0.0001092189
0.000109075
0.0001089304
0.000108783
0.0001086449
0.0001627263
0.0001624721
0.0001622112
0.0001619389
0.0001616517
0.000392901
0.0003921492
0.0001063202
0.0001073217
0.0001062053
0.0001078067
0.0001073188
0.0001061804
0.0001080927
0.000107815
0.0001073488
0.0001062364
0.0001082943
0.0001080898
0.0001078336
0.0001073996
0.0001064124
0.0001084559
0.0001082778
0.0001080887
0.000107852
0.0001074978
0.0001598616
0.0001085941
0.0001084267
0.000108259
0.0001080796
0.0001078903
0.0001613099
0.0001601432
0.0001087198
0.0001085578
0.0001083978
0.0001082351
0.0001080861
0.0001618134
0.0001613506
0.0001604459
0.0001088344
0.000108676
0.000108519
0.0001083606
0.000108218
0.0001620595
0.0001617491
0.0001613487
0.0001606678
0.0001089597
0.0001088057
0.0001086523
0.0001084972
0.000108356
0.0001622801
0.0001620064
0.0001617095
0.0001613496
0.0001608304
0.00010909
0.000108941
0.0001087918
0.0001086403
0.0001085003
0.0001625034
0.0001622416
0.0001619705
0.0001616779
0.0001613441
0.0003919141
0.0001092241
0.0001090805
0.0001089362
0.0001087892
0.0001086516
0.0001627371
0.0001624837
0.0001622236
0.000161952
0.0001616644
0.0003929204
0.0003921253
0.0001093584
0.0001092205
0.0001090815
0.0001089395
0.0001088054
0.0001629752
0.00016273
0.0001624785
0.000162218
0.0001619484
0.0003936802
0.0003929913
0.0003923223
0.0001065077
0.0001073502
0.0001063457
0.0001078039
0.000107335
0.0001062537
0.0001080927
0.000107815
0.0001073488
0.0001062364
0.0001083047
0.0001080984
0.0001078365
0.0001073839
0.0001063412
0.000108477
0.0001082986
0.0001081065
0.0001078594
0.0001074715
0.0001596627
0.0001086258
0.0001084593
0.0001082917
0.0001081091
0.0001079073
0.0001612699
0.0001598855
0.0001087576
0.0001085971
0.0001084385
0.0001082762
0.0001081247
0.0001618518
0.0001613193
0.00016017
0.0001088786
0.0001087225
0.0001085683
0.0001084128
0.0001082732
0.0001621425
0.0001618197
0.0001613644
0.0001604677
0.0001089895
0.0001088369
0.0001086853
0.0001085321
0.0001083934
0.0001623388
0.0001620651
0.0001617596
0.0001613611
0.00016069
0.0001091099
0.0001089619
0.000108814
0.0001086639
0.0001085258
0.0001625443
0.0001622851
0.0001620153
0.0001617192
0.0001613641
0.0003917546
0.000109235
0.0001090919
0.0001089483
0.0001088021
0.0001086655
0.0001627594
0.0001625076
0.0001622492
0.0001619786
0.0001616894
0.0003929536
0.0003920589
0.0001093633
0.0001092256
0.000109087
0.0001089453
0.0001088116
0.0001629852
0.0001627407
0.0001624901
0.0001622304
0.0001619615
0.0003937104
0.0003930105
0.0003923082
0.0001094917
0.0001093597
0.0001092263
0.0001090897
0.0001089597
0.0001632149
0.0001629782
0.0001627354
0.0001624842
0.0001622258
0.0003943854
0.0003937491
0.0003931182
0.0003924799
0.0001067122
0.0001073799
0.0001065309
0.0001077966
0.0001073632
0.0001063923
0.000108084
0.0001078122
0.0001073647
0.0001063087
0.0001083047
0.0001080984
0.0001078365
0.0001073839
0.0001063412
0.0001084875
0.0001083089
0.0001081151
0.0001078622
0.0001074563
0.0001595572
0.0001086463
0.0001084803
0.0001083123
0.0001081269
0.0001079148
0.0001612309
0.0001596887
0.0001087878
0.0001086285
0.0001084709
0.0001083086
0.0001081543
0.0001618769
0.0001612796
0.0001599151
0.0001089146
0.0001087599
0.0001086072
0.0001084531
0.0001083143
0.0001621998
0.0001618573
0.000161333
0.0001601945
0.0001090313
0.0001088808
0.0001087316
0.0001085812
0.0001084457
0.0001624208
0.000162147
0.0001618294
0.0001613765
0.0001604924
0.0001091383
0.0001089915
0.0001088451
0.0001086968
0.0001085609
0.0001626
0.0001623431
0.0001620734
0.0001617688
0.0001613756
0.0003914328
0.000109254
0.0001091118
0.0001089692
0.0001088242
0.0001086893
0.0001627975
0.0001625483
0.0001622923
0.000162023
0.0001617305
0.000393002
0.0003919276
0.0001093738
0.0001092366
0.0001090985
0.0001089575
0.0001088246
0.000163006
0.0001627629
0.0001625139
0.0001622558
0.0001619879
0.0003937697
0.0003930433
0.0003922642
0.0001094964
0.0001093646
0.0001092315
0.0001090951
0.0001089655
0.0001632242
0.0001629882
0.000162746
0.0001624957
0.0001622382
0.0003944163
0.0003937774
0.0003931382
0.0003924772
0.0001096191
0.0001094928
0.0001093649
0.0001092336
0.000109108
0.0001634455
0.0001632174
0.0001629828
0.0001627401
0.0001624908
0.000395047
0.0003944377
0.0003938464
0.0003932285
0.0003926422
0.0001068678
0.0001074037
0.0001067328
0.0001077798
0.0001073925
0.0001065747
0.0001080659
0.0001078049
0.0001073923
0.0001064453
0.0001082943
0.0001080898
0.0001078336
0.0001073996
0.0001064124
0.0001084875
0.0001083089
0.0001081151
0.0001078622
0.0001074563
0.0001595572
0.0001086565
0.0001084907
0.0001083225
0.0001081355
0.0001079178
0.0001612084
0.0001595843
0.0001088074
0.0001086488
0.0001084918
0.0001083291
0.000108172
0.0001618882
0.000161241
0.0001597204
0.0001089434
0.0001087899
0.0001086384
0.0001084853
0.0001083466
0.0001622436
0.0001618821
0.0001612936
0.0001599423
0.0001090656
0.0001089164
0.0001087687
0.0001086198
0.0001084859
0.0001624817
0.0001622035
0.0001618664
0.000161345
0.0001602219
0.0001091781
0.0001090331
0.0001088887
0.0001087429
0.00010861
0.0001626778
0.0001624243
0.0001621545
0.0001618378
0.0001613909
0.000390972
0.0001092811
0.00010914
0.0001089987
0.0001088553
0.0001087223
0.0001628498
0.0001626034
0.0001623498
0.0001620805
0.0001617796
0.0003930276
0.000391639
0.0001093919
0.0001092554
0.0001091183
0.0001089783
0.0001088469
0.0001630416
0.0001628007
0.0001625543
0.0001622986
0.0001620321
0.0003938663
0.0003930914
0.0003921739
0.0001095065
0.000109375
0.0001092424
0.0001091066
0.0001089778
0.0001632437
0.0001630089
0.0001627682
0.0001625194
0.0001622635
0.0003944787
0.0003938323
0.0003931729
0.00039246
0.0001096236
0.0001094975
0.0001093698
0.0001092388
0.0001091135
0.0001634543
0.0001632266
0.0001629927
0.0001627507
0.0001625022
0.0003950762
0.0003944663
0.000393873
0.0003932495
0.0003926522
0.0001097406
0.0001096199
0.0001094975
0.0001093715
0.0001092503
0.0001636672
0.0001634475
0.0001632212
0.0001629867
0.0001627456
0.0003956806
0.0003950855
0.0003945133
0.0003939284
0.0003933398
0.0001069802
0.000107396
0.0001068861
0.0001077538
0.0001074161
0.0001067733
0.0001080357
0.0001077883
0.0001074211
0.0001066249
0.0001082734
0.0001080718
0.0001078263
0.0001074267
0.0001065465
0.000108477
0.0001082986
0.0001081065
0.0001078594
0.0001074715
0.0001596627
0.0001086565
0.0001084907
0.0001083225
0.0001081355
0.0001079178
0.0001612084
0.0001595843
0.0001088173
0.000108659
0.0001085021
0.0001083393
0.0001081806
0.0001618927
0.0001612187
0.0001596171
0.0001089622
0.0001088094
0.0001086586
0.000108506
0.0001083671
0.0001622701
0.0001618932
0.0001612554
0.0001597496
0.0001090932
0.000108945
0.0001087985
0.0001086508
0.000108518
0.0001625298
0.0001622468
0.0001618908
0.0001613059
0.0001599723
0.000109211
0.0001090671
0.0001089241
0.0001087797
0.0001086485
0.0001627375
0.0001624844
0.0001622102
0.000161874
0.0001613593
0.0003903408
0.000109319
0.0001091795
0.00010904
0.0001088987
0.0001087684
0.0001629229
0.0001626805
0.0001624302
0.0001621608
0.000161848
0.0003930579
0.000391195
0.0001094179
0.0001092824
0.0001091464
0.0001090078
0.000108878
0.0001630907
0.0001628526
0.0001626089
0.0001623556
0.0001620891
0.0003939789
0.0003931119
0.0003919322
0.0001095238
0.0001093931
0.0001092612
0.0001091264
0.0001089988
0.000163277
0.0001630442
0.0001628057
0.0001625595
0.0001623061
0.0003945821
0.0003939214
0.0003932256
0.0003924209
0.0001096332
0.0001095075
0.0001093802
0.0001092497
0.000109125
0.0001634726
0.000163246
0.0001630133
0.0001627727
0.0001625258
0.0003951357
0.0003945233
0.000393924
0.000393287
0.0003926654
0.000109745
0.0001096245
0.0001095022
0.0001093765
0.0001092555
0.0001636755
0.0001634562
0.0001632305
0.0001629966
0.0001627562
0.0003957077
0.0003951124
0.0003945395
0.000393953
0.0003933622
0.0001098564
0.0001097413
0.0001096242
0.0001095035
0.0001093868
0.0001638801
0.0001636688
0.0001634508
0.0001632245
0.0001629914
0.0003962917
0.0003957075
0.0003951438
0.0003945753
0.0003940101
0.0001070404
0.0001073917
0.0001069969
0.0001077061
0.0001074084
0.0001069233
0.0001079961
0.0001077627
0.0001074442
0.0001068202
0.0001082402
0.0001080419
0.0001078098
0.0001074548
0.0001067223
0.0001084559
0.0001082778
0.0001080887
0.000107852
0.0001074978
0.0001598616
0.0001086463
0.0001084803
0.0001083123
0.0001081269
0.0001079148
0.0001612309
0.0001596887
0.0001088173
0.000108659
0.0001085021
0.0001083393
0.0001081806
0.0001618927
0.0001612187
0.0001596171
0.0001089716
0.0001088192
0.0001086687
0.0001085163
0.0001083772
0.0001622829
0.0001618977
0.0001612334
0.0001596474
0.0001091113
0.0001089638
0.0001088179
0.0001086709
0.0001085386
0.0001625602
0.000162273
0.0001619018
0.0001612681
0.0001597816
0.0001092375
0.0001090945
0.0001089525
0.0001088093
0.0001086794
0.0001627852
0.000162532
0.000162253
0.0001618981
0.0001613205
0.0003897614
0.0001093507
0.0001092121
0.0001090739
0.0001089338
0.0001088051
0.0001629801
0.0001627395
0.0001624896
0.0001622157
0.0001618836
0.0003929791
0.0003905805
0.0001094542
0.0001093201
0.0001091856
0.0001090489
0.0001089214
0.0001631593
0.0001629249
0.0001626853
0.0001624352
0.0001621687
0.0003941339
0.0003931325
0.0003914965
0.0001095488
0.0001094189
0.0001092881
0.0001091544
0.0001090282
0.0001633233
0.0001630929
0.0001628571
0.0001626136
0.0001623625
0.0003947129
0.0003940204
0.0003932475
0.0003922466
0.0001096499
0.0001095248
0.0001093983
0.0001092686
0.0001091449
0.0001635039
0.0001632791
0.0001630484
0.00016281
0.0001625657
0.0003952352
0.0003946177
0.0003940078
0.0003933474
0.0003926905
0.0001097542
0.000109634
0.0001095122
0.0001093869
0.0001092665
0.0001636928
0.0001634744
0.0001632497
0.0001630171
0.0001627781
0.0003957631
0.0003951665
0.0003945911
0.0003940001
0.0003934035
0.0001098606
0.0001097456
0.0001096287
0.0001095082
0.0001093918
0.000163888
0.000163677
0.0001634595
0.0001632337
0.0001630012
0.0003963167
0.0003957323
0.0003951681
0.0003945988
0.0003940329
0.0001099666
0.0001098569
0.0001097451
0.0001096297
0.0001095176
0.0001640844
0.0001638814
0.0001636716
0.0001634535
0.0001632285
0.0003968824
0.0003963088
0.0003957516
0.00039519
0.0003946366
0.0001070725
0.000107382
0.0001070561
0.000107673
0.0001074041
0.0001070315
0.0001079397
0.0001077154
0.000107436
0.0001069665
0.0001081979
0.0001080028
0.0001077843
0.0001074772
0.0001069124
0.0001084229
0.0001082449
0.000108059
0.0001078354
0.0001075249
0.000160122
0.0001086258
0.0001084593
0.0001082917
0.0001081091
0.0001079073
0.0001612699
0.0001598855
0.0001088074
0.0001086488
0.0001084918
0.0001083291
0.000108172
0.0001618882
0.000161241
0.0001597204
0.0001089716
0.0001088192
0.0001086687
0.0001085163
0.0001083772
0.0001622829
0.0001618977
0.0001612334
0.0001596474
0.0001091204
0.0001089731
0.0001088276
0.000108681
0.0001085489
0.0001625753
0.0001622857
0.0001619063
0.0001612464
0.0001596805
0.0001092549
0.0001091125
0.0001089712
0.0001088286
0.0001086994
0.0001628159
0.0001625621
0.0001622789
0.000161909
0.0001612831
0.0003893191
0.0001093762
0.0001092384
0.0001091011
0.0001089621
0.0001088346
0.000163026
0.0001627867
0.0001625366
0.000162258
0.0001619073
0.000392887
0.0003900291
0.0001094847
0.0001093515
0.0001092181
0.0001090825
0.0001089565
0.0001632139
0.0001629816
0.0001627437
0.0001624938
0.0001622227
0.0003942119
0.0003930406
0.0003908735
0.0001095837
0.000109455
0.0001093256
0.0001091935
0.0001090694
0.000163388
0.0001631609
0.0001629289
0.0001626893
0.0001624415
0.0003948949
0.0003941617
0.0003932679
0.0003917775
0.0001096741
0.0001095497
0.000109424
0.0001092953
0.000109173
0.0001635479
0.000163325
0.0001630967
0.0001628609
0.0001626193
0.000395365
0.0003947336
0.0003940964
0.0003933776
0.0003926298
0.0001097703
0.0001096507
0.0001095294
0.0001094049
0.0001092854
0.0001637224
0.0001635056
0.0001632826
0.0001630519
0.0001628152
0.0003958561
0.000395257
0.0003946773
0.000394079
0.000393476
0.0001098696
0.0001097549
0.0001096383
0.0001095182
0.0001094023
0.0001639044
0.0001636942
0.0001634776
0.0001632528
0.0001630216
0.0003963681
0.0003957827
0.0003952167
0.0003946446
0.0003940761
0.0001099707
0.0001098611
0.0001097495
0.0001096342
0.0001095223
0.0001640918
0.0001638892
0.0001636798
0.0001634622
0.0001632376
0.0003969055
0.0003963317
0.0003957739
0.0003952115
0.0003946573
0.0001100714
0.000109967
0.0001098605
0.0001097502
0.0001096427
0.0001642801
0.0001640854
0.0001638838
0.0001636739
0.0001634569
0.000397453
0.0003968912
0.000396341
0.0003957849
0.0003952356
0.0001070852
0.0001073756
0.0001070876
0.0001076465
0.0001073941
0.000107089
0.0001079002
0.0001076825
0.0001074309
0.0001070719
0.0001081418
0.0001079469
0.0001077371
0.0001074683
0.0001070527
0.0001083815
0.0001082031
0.0001080202
0.00010781
0.0001075458
0.0001604036
0.0001085941
0.0001084267
0.000108259
0.0001080796
0.0001078903
0.0001613099
0.0001601432
0.0001087878
0.0001086285
0.0001084709
0.0001083086
0.0001081543
0.0001618769
0.0001612796
0.0001599151
0.0001089622
0.0001088094
0.0001086586
0.000108506
0.0001083671
0.0001622701
0.0001618932
0.0001612554
0.0001597496
0.0001091204
0.0001089731
0.0001088276
0.000108681
0.0001085489
0.0001625753
0.0001622857
0.0001619063
0.0001612464
0.0001596805
0.0001092636
0.0001091215
0.0001089805
0.0001088383
0.0001087094
0.0001628312
0.000162577
0.0001622915
0.0001619134
0.0001612616
0.0003890847
0.000109393
0.0001092558
0.000109119
0.0001089806
0.0001088538
0.0001630558
0.0001628171
0.0001625665
0.0001622836
0.000161918
0.0003928001
0.0003896128
0.0001095094
0.0001093769
0.0001092443
0.0001091096
0.0001089846
0.0001632578
0.0001630271
0.0001627904
0.0001625403
0.0001622645
0.0003942651
0.000392946
0.0003903337
0.0001096133
0.0001094854
0.0001093569
0.0001092258
0.0001091029
0.0001634401
0.000163215
0.0001629849
0.000162747
0.0001624993
0.000395017
0.0003942211
0.0003931564
0.0003911228
0.0001097077
0.0001095844
0.00010946
0.0001093327
0.0001092121
0.0001636092
0.0001633892
0.0001631642
0.0001629321
0.0001626944
0.0003955465
0.0003949024
0.0003942361
0.0003933878
0.0003921261
0.0001097937
0.0001096747
0.0001095542
0.0001094306
0.0001093122
0.0001637643
0.0001635492
0.0001633282
0.0001630998
0.0001628657
0.0003959799
0.0003953727
0.0003947802
0.000394159
0.0003935292
0.0001098851
0.0001097709
0.0001096549
0.0001095354
0.0001094203
0.0001639326
0.0001637237
0.0001635085
0.0001632855
0.0001630562
0.0003964547
0.0003958672
0.0003952984
0.0003947222
0.0003941515
0.0001099794
0.00010987
0.0001097587
0.0001096438
0.0001095323
0.0001641075
0.0001639055
0.0001636969
0.0001634802
0.0001632567
0.0003969533
0.0003963783
0.0003958187
0.0003952538
0.000394697
0.0001100753
0.0001099711
0.0001098646
0.0001097545
0.0001096472
0.0001642871
0.0001640928
0.0001638915
0.000163682
0.0001634655
0.0003974745
0.0003969123
0.0003963615
0.0003958044
0.0003952541
0.0001101708
0.0001100717
0.0001099702
0.0001098651
0.0001097622
0.0001644673
0.0001642808
0.0001640874
0.0001638857
0.0001636768
0.0003980037
0.0003974549
0.0003969134
0.0003963635
0.0003958175
0.0001073717
0.0001071001
0.000107631
0.0001073876
0.0001071195
0.0001078707
0.0001076561
0.0001074204
0.0001071274
0.0001081023
0.0001079077
0.000107704
0.0001074625
0.0001071531
0.0001083282
0.0001081476
0.0001079646
0.0001077627
0.0001075348
0.0001606109
0.0001085545
0.0001083856
0.0001082176
0.0001080411
0.0001078644
0.0001613411
0.000160422
0.0001087576
0.0001085971
0.0001084385
0.0001082762
0.0001081247
0.0001618518
0.0001613193
0.00016017
0.0001089434
0.0001087899
0.0001086384
0.0001084853
0.0001083466
0.0001622436
0.0001618821
0.0001612936
0.0001599423
0.0001091113
0.0001089638
0.0001088179
0.0001086709
0.0001085386
0.0001625602
0.000162273
0.0001619018
0.0001612681
0.0001597816
0.0001092636
0.0001091215
0.0001089805
0.0001088383
0.0001087094
0.0001628312
0.000162577
0.0001622915
0.0001619134
0.0001612616
0.0003890847
0.0001094014
0.0001092645
0.000109128
0.0001089899
0.0001088634
0.0001630707
0.0001628323
0.0001625813
0.0001622961
0.0001619224
0.0003927506
0.0003893933
0.0001095257
0.0001093936
0.0001092615
0.0001091274
0.0001090031
0.0001632864
0.0001630566
0.0001628206
0.0001625699
0.0001622899
0.0003942897
0.0003928616
0.0003899344
0.0001096372
0.0001095099
0.0001093821
0.0001092519
0.0001091299
0.0001634821
0.0001632585
0.00016303
0.0001627933
0.0001625454
0.0003951125
0.0003942637
0.0003930543
0.0003905824
0.0001097364
0.0001096138
0.0001094902
0.0001093638
0.0001092442
0.000163659
0.0001634409
0.0001632177
0.0001629876
0.0001627514
0.0003956784
0.0003950064
0.0003942751
0.0003932522
0.0003913963
0.0001098261
0.0001097081
0.0001095888
0.0001094664
0.0001093496
0.0001638226
0.00016361
0.0001633919
0.0001631668
0.0001629363
0.0003961533
0.0003955429
0.000394948
0.0003942963
0.000393563
0.001084014
0.0001099077
0.0001097941
0.0001096788
0.0001095601
0.000109446
0.0001639726
0.0001637653
0.0001635518
0.0001633307
0.0001631037
0.0003965714
0.0003959781
0.000395401
0.0003948117
0.000394227
0.0001099944
0.0001098855
0.0001097747
0.0001096603
0.0001095496
0.0001641344
0.0001639336
0.0001637262
0.0001635109
0.0001632891
0.0003970341
0.000396457
0.0003958947
0.000395326
0.0003947662
0.0001100837
0.0001099797
0.0001098735
0.0001097637
0.0001096568
0.0001643021
0.0001641084
0.0001639078
0.0001636991
0.0001634834
0.0003975192
0.0003969557
0.0003964028
0.0003958431
0.0003952897
0.0001101746
0.0001100756
0.0001099743
0.0001098692
0.0001097665
0.0001644741
0.0001642879
0.0001640948
0.0001638934
0.0001636849
0.0003980239
0.0003974746
0.0003969323
0.0003963813
0.0003958341
0.000110265
0.000110171
0.0001100746
0.0001099745
0.0001098762
0.0001646462
0.0001644679
0.0001642826
0.000164089
0.0001638882
0.0003985344
0.0003979999
0.0003974688
0.000396927
0.0003963853
0.0001076232
0.0001073836
0.0001071315
0.0001078535
0.0001076405
0.0001074135
0.0001071567
0.0001080735
0.0001078783
0.0001076774
0.0001074513
0.000107205
0.0001082905
0.0001081084
0.0001079254
0.0001077295
0.000107527
0.000160759
0.0001085044
0.0001083329
0.0001081624
0.0001079857
0.0001078163
0.0001613247
0.000160627
0.0001087198
0.0001085578
0.0001083978
0.0001082351
0.0001080861
0.0001618134
0.0001613506
0.0001604459
0.0001089146
0.0001087599
0.0001086072
0.0001084531
0.0001083143
0.0001621998
0.0001618573
0.000161333
0.0001601945
0.0001090932
0.000108945
0.0001087985
0.0001086508
0.000108518
0.0001625298
0.0001622468
0.0001618908
0.0001613059
0.0001599723
0.0001092549
0.0001091125
0.0001089712
0.0001088286
0.0001086994
0.0001628159
0.0001625621
0.0001622789
0.000161909
0.0001612831
0.0003893191
0.0001094014
0.0001092645
0.000109128
0.0001089899
0.0001088634
0.0001630707
0.0001628323
0.0001625813
0.0001622961
0.0001619224
0.0003927506
0.0003893933
0.0001095339
0.000109402
0.0001092702
0.0001091363
0.0001090123
0.0001633008
0.0001630714
0.0001628356
0.0001625846
0.0001623022
0.0003943
0.0003928147
0.0003897256
0.000109653
0.0001095261
0.0001093988
0.000109269
0.0001091476
0.0001635096
0.0001632869
0.0001630593
0.0001628231
0.0001625746
0.000395171
0.0003942832
0.0003929694
0.000390193
0.0001097596
0.0001096375
0.0001095146
0.0001093889
0.0001092702
0.0001636993
0.0001634825
0.0001632609
0.0001630322
0.0001627972
0.0003957843
0.0003950899
0.0003943052
0.0003931403
0.0003908309
0.0001098541
0.0001097367
0.000109618
0.0001094964
0.0001093806
0.0001638705
0.0001636595
0.0001634431
0.0001632198
0.0001629912
0.0003962841
0.0003956587
0.0003950337
0.0003943148
0.0003933818
0.001080786
0.0001099392
0.0001098265
0.0001097121
0.0001095946
0.0001094818
0.0001640283
0.0001638232
0.0001636123
0.0001633941
0.0001631703
0.0003967354
0.0003961423
0.0003955715
0.0003949812
0.0003944004
0.001088546
0.001085013
0.0001100164
0.0001099081
0.0001097978
0.0001096842
0.0001095743
0.0001641727
0.0001639733
0.0001637674
0.0001635539
0.000163334
0.0003971443
0.0003965621
0.0003959932
0.0003954143
0.0003948423
0.0001100983
0.0001099947
0.000109889
0.0001097797
0.0001096734
0.0001643279
0.0001641351
0.0001639357
0.0001637282
0.000163514
0.0003975951
0.0003970292
0.0003964733
0.0003959094
0.0003953519
0.0001101828
0.000110084
0.0001099829
0.0001098781
0.0001097758
0.0001644884
0.0001643028
0.0001641102
0.0001639096
0.0001637018
0.0003980659
0.0003975151
0.0003969707
0.0003964167
0.0003958661
0.0001102687
0.0001101748
0.0001100785
0.0001099785
0.0001098804
0.0001646528
0.0001644746
0.0001642896
0.0001640963
0.0001638958
0.0003985535
0.0003980183
0.0003974864
0.0003969433
0.0003964003
0.0001103539
0.0001102651
0.0001101737
0.0001100785
0.0001099849
0.000164817
0.0001646467
0.0001644693
0.0001642839
0.0001640911
0.0003990452
0.0003985259
0.0003980069
0.0003974748
0.0003969398
0.0001078451
0.0001076326
0.0001074093
0.0001071682
0.0001080568
0.0001078612
0.0001076615
0.0001074438
0.000107232
0.0001082634
0.0001080797
0.0001078959
0.0001077025
0.0001075141
0.0001608352
0.000108469
0.0001082955
0.0001081233
0.0001079465
0.000107782
0.0001613128
0.0001607734
0.0001086729
0.0001085082
0.0001083454
0.0001081801
0.0001080303
0.0001617419
0.0001613346
0.0001606484
0.0001088786
0.0001087225
0.0001085683
0.0001084128
0.0001082732
0.0001621425
0.0001618197
0.0001613644
0.0001604677
0.0001090656
0.0001089164
0.0001087687
0.0001086198
0.0001084859
0.0001624817
0.0001622035
0.0001618664
0.000161345
0.0001602219
0.0001092375
0.0001090945
0.0001089525
0.0001088093
0.0001086794
0.0001627852
0.000162532
0.000162253
0.0001618981
0.0001613205
0.0003897614
0.000109393
0.0001092558
0.000109119
0.0001089806
0.0001088538
0.0001630558
0.0001628171
0.0001625665
0.0001622836
0.000161918
0.0003928001
0.0003896128
0.0001095339
0.000109402
0.0001092702
0.0001091363
0.0001090123
0.0001633008
0.0001630714
0.0001628356
0.0001625846
0.0001623022
0.0003943
0.0003928147
0.0003897256
0.0001096609
0.0001095343
0.0001094071
0.0001092776
0.0001091565
0.0001635234
0.0001633012
0.000163074
0.0001628381
0.0001625891
0.0003951997
0.0003942917
0.0003929235
0.0003899917
0.000109775
0.0001096533
0.0001095307
0.0001094055
0.0001092873
0.0001637257
0.0001635098
0.0001632891
0.0001630613
0.0001628268
0.000395852
0.0003951415
0.0003943187
0.0003930534
0.0003904427
0.0001098766
0.0001097598
0.0001096417
0.0001095207
0.0001094056
0.0001639093
0.0001636995
0.0001634845
0.0001632626
0.0001630355
0.0003963901
0.0003957533
0.0003951045
0.0003943325
0.0003932461
0.00107856
0.0001099664
0.0001098542
0.0001097405
0.0001096237
0.0001095118
0.0001640745
0.0001638708
0.0001636614
0.0001634448
0.0001632228
0.000396862
0.0003962595
0.0003956718
0.00039505
0.0003943839
0.001087716
0.001082139
0.000110047
0.0001099394
0.0001098301
0.0001097174
0.0001096088
0.0001642262
0.0001640287
0.0001638251
0.000163614
0.000163397
0.0003972995
0.000396719
0.0003961594
0.0003955895
0.0003950509
0.001091392
0.001088925
0.001085586
0.0001101197
0.0001100166
0.0001099114
0.0001098028
0.0001096973
0.0001643648
0.0001641732
0.0001639751
0.0001637691
0.0001635566
0.0003976994
0.000397129
0.0003965671
0.0003959939
0.0003954238
0.000110197
0.0001100985
0.0001099979
0.0001098936
0.0001097918
0.0001645132
0.0001643284
0.0001641369
0.0001639373
0.0001637308
0.0003981375
0.0003975841
0.0003970364
0.0003964778
0.0003959221
0.0001102766
0.0001101829
0.0001100869
0.0001099871
0.0001098893
0.0001646666
0.0001644889
0.0001643044
0.0001641117
0.0001639119
0.0003985932
0.0003980564
0.0003975221
0.0003969759
0.0003964293
0.0001103575
0.0001102687
0.0001101775
0.0001100824
0.0001099889
0.0001648233
0.0001646532
0.0001644761
0.0001642909
0.0001640984
0.0003990632
0.0003985432
0.0003980233
0.0003974899
0.0003969534
0.0001104378
0.000110354
0.0001102675
0.0001101773
0.0001100882
0.0001649797
0.0001648173
0.0001646479
0.0001644704
0.0001642857
0.000399536
0.0003990327
0.0003985271
0.0003980066
0.0003974801
0.0001080487
0.0001078528
0.0001076536
0.0001074393
0.0001072424
0.0001082477
0.000108063
0.0001078786
0.0001076864
0.0001075056
0.0001608748
0.0001084436
0.0001082685
0.0001080945
0.0001079168
0.0001077541
0.0001612931
0.0001608485
0.0001086395
0.000108473
0.0001083081
0.0001081411
0.0001079905
0.0001616907
0.000161323
0.0001607927
0.0001088344
0.000108676
0.000108519
0.0001083606
0.000108218
0.0001620595
0.0001617491
0.0001613487
0.0001606678
0.0001090313
0.0001088808
0.0001087316
0.0001085812
0.0001084457
0.0001624208
0.000162147
0.0001618294
0.0001613765
0.0001604924
0.000109211
0.0001090671
0.0001089241
0.0001087797
0.0001086485
0.0001627375
0.0001624844
0.0001622102
0.000161874
0.0001613593
0.0003903408
0.0001093762
0.0001092384
0.0001091011
0.0001089621
0.0001088346
0.000163026
0.0001627867
0.0001625366
0.000162258
0.0001619073
0.000392887
0.0003900291
0.0001095257
0.0001093936
0.0001092615
0.0001091274
0.0001090031
0.0001632864
0.0001630566
0.0001628206
0.0001625699
0.0001622899