/*--------------------------------*- C++ -*----------------------------------*\
| =========                 |                                                 |
| \\      /  F ield         | OpenFOAM: The Open Source CFD Toolbox           |
|  \\    /   O peration     | Version:  2306                                  |
|   \\  /    A nd           | Website:  www.openfoam.com                      |
|    \\/     M anipulation  |                                                 |
\*---------------------------------------------------------------------------*/
FoamFile
{
    version     2.0;
    format      ascii;
    arch        "LSB;label=32;scalar=64";
    class       volScalarField;
    location    "0.6/fuel";
    object      eta.fuel;
}
// * * * * * * * * * * * * * * * * * * * * * * * * * * * * * * * * * * * * * //

dimensions      [1 2 -3 0 0 -1 0];

internalField   nonuniform List<scalar> 
16000
(
0.1233042
0.1238226
0.1176191
0.1195746
0.1248419
0.1179769
0.1200651
0.1126114
0.1141939
0.1168885
0.1263366
0.1186644
0.1210287
0.1128975
0.1145333
0.1173605
0.1085236
0.1094537
0.1117104
0.115212
0.1281931
0.1196376
0.1224411
0.1134411
0.1151851
0.1182877
0.1087668
0.1097257
0.1120373
0.1156746
0.1050821
0.1055846
0.1071535
0.1101398
0.1145246
0.1300804
0.1207791
0.124194
0.1141965
0.1161072
0.1196472
0.1092254
0.1102421
0.1126647
0.1165836
0.1052958
0.1058162
0.1074156
0.1104597
0.1149866
0.1020839
0.1023269
0.1034369
0.1056857
0.1094642
0
0.1313075
0.1218498
0.125975
0.1150547
0.1171876
0.121336
0.1098537
0.1109591
0.1135522
0.1179184
0.1056964
0.1062524
0.1079129
0.1110734
0.1158954
0.1022757
0.1025306
0.1036603
0.105942
0.1097822
0
0.09941187
0.0994876
0.100309
0.1020588
0.1050349
0
0
0.1319438
0.1224834
0.1271238
0.1158195
0.1181994
0.1230544
0.11055
0.1117725
0.1145917
0.1195806
0.1062389
0.1068495
0.1086032
0.111942
0.1172328
0.1026338
0.1029121
0.1040806
0.1064281
0.1103928
0
0.09958668
0.09967066
0.1005056
0.1022771
0.1052893
0
0
0.09698659
0.09695553
0.0975829
0.099009
0.1014362
0
0
0
0.1322258
0.1227718
0.1277126
0.116238
0.1187936
0.1241576
0.1111438
0.1124959
0.1155649
0.1212782
0.1068276
0.10751
0.1093856
0.11296
0.118905
0.1031142
0.1034282
0.1046557
0.1071027
0.1112578
0
0.09991214
0.1000121
0.1008734
0.1026878
0.1057717
0
0
0.0971478
0.09712258
0.09775969
0.09920119
0.1016527
0
0
0
0.0947547
0.09465536
0.09515115
0.09635235
0.09841458
0
0
0
0
0.1323271
0.1228759
0.1279691
0.1164007
0.1190609
0.1247197
0.1114439
0.1128883
0.1161328
0.122367
0.1073101
0.1080715
0.1100803
0.1139137
0.1206231
0.1036261
0.103987
0.1052909
0.1078673
0.1122731
0
0.1003453
0.1004696
0.1013708
0.1032495
0.1064415
0
0
0.09744733
0.09743323
0.09808915
0.09956065
0.1020598
0
0
0
0.09490477
0.0948096
0.09531261
0.09652524
0.09860502
0
0
0
0
0.09267874
0.09253647
0.09294108
0.09398294
0.09578484
0
0
0
0
0
0.1323271
0.1229042
0.1280595
0.1164395
0.1191552
0.1249626
0.1115374
0.1130384
0.1163862
0.1229223
0.107534
0.1083521
0.1104542
0.1144679
0.1217281
0.1040304
0.1044429
0.1058295
0.1085457
0.1132263
0
0.1007996
0.1009556
0.1019081
0.1038696
0.1072011
0
0
0.09784329
0.09784612
0.0985302
0.1000464
0.1026168
0
0
0
0.09518326
0.09509581
0.09561259
0.09684725
0.09896118
0
0
0
0
0.09281951
0.0926802
0.09309028
0.09414089
0.09595612
0
0
0
0
0
0.09073137
0.09056342
0.09090389
0.09182938
0.09344081
0
0
0
0
0
0
0.1322258
0.1229042
0.1280595
0.1164404
0.1191798
0.1250473
0.1115399
0.1130723
0.1164744
0.1231628
0.1075835
0.1084371
0.1105954
0.1147145
0.1222958
0.1042021
0.1046515
0.1060958
0.1089082
0.113779
0
0.1011467
0.1013376
0.102345
0.1043943
0.107875
0
0
0.09825294
0.09827779
0.09899776
0.1005706
0.1032314
0
0
0
0.0955494
0.09547361
0.09601088
0.09727807
0.09944242
0
0
0
0
0.09308056
0.09294661
0.09336688
0.09443419
0.09627508
0
0
0
0
0
0.09086423
0.09069838
0.09104303
0.0919754
0.09359728
0
0
0
0
0
0
0.0888914
0.08871038
0.08900547
0.08984381
0.09131106
0
0
0
0
0
0
0
0.1319438
0.1228759
0.1279691
0.1164404
0.1191798
0.1250473
0.1115254
0.1130717
0.1164968
0.123247
0.1075632
0.1084369
0.1106258
0.1148
0.122545
0.104222
0.1046948
0.1061743
0.1090437
0.1140253
0
0.101281
0.1014967
0.102542
0.1046512
0.1082331
0
0
0.09855675
0.09860552
0.09936336
0.1009955
0.1037509
0
0
0
0.09592388
0.09586315
0.09642624
0.09773408
0.0999615
0
0
0
0
0.09342215
0.0932963
0.09373155
0.09482333
0.09670174
0
0
0
0
0
0.09111057
0.09094838
0.09130068
0.09224594
0.09388777
0
0
0
0
0
0
0.08901744
0.08883789
0.08913622
0.08998004
0.09145572
0
0
0
0
0
0
0
0.0871423
0.08695736
0.08722103
0.08799282
0.0893478
0
0
0
0
0
0
0
0
0.1313075
0.1227718
0.1277126
0.1164395
0.1191552
0.1249626
0.1115254
0.1130717
0.1164968
0.123247
0.1075388
0.1084217
0.1106241
0.1148217
0.1226338
0.1041864
0.1046728
0.1061719
0.109072
0.1141116
0
0.1012803
0.1015118
0.1025804
0.1047251
0.1083663
0
0
0.09866356
0.09872919
0.09951284
0.1011846
0.1040031
0
0
0
0.09619431
0.09614986
0.09673975
0.09808923
0.1003812
0
0
0
0
0.09376807
0.09365268
0.09410654
0.09522843
0.09715299
0
0
0
0
0
0.09143163
0.09127496
0.09163848
0.09260236
0.09427309
0
0
0
0
0
0
0.08925121
0.08907405
0.0893782
0.09023217
0.09172368
0
0
0
0
0
0
0
0.0872624
0.08707845
0.08734465
0.0881209
0.08948277
0
0
0
0
0
0
0
0
0.08547182
0.08528876
0.08553136
0.08625218
0.08751773
0
0
0
0
0
0
0
0
0
0.1300804
0.1224834
0.1271238
0.1164007
0.1190609
0.1247197
0.1115399
0.1130723
0.1164744
0.1231628
0.1075388
0.1084217
0.1106241
0.1148217
0.1226338
0.1041557
0.1046483
0.1061563
0.1090698
0.114134
0
0.1012345
0.1014753
0.102557
0.1047211
0.1083937
0
0
0.09864827
0.09872473
0.0995241
0.1012193
0.1040744
0
0
0
0.09628067
0.09624753
0.09685525
0.09823195
0.100566
0
0
0
0
0.09401201
0.09390787
0.09438068
0.0955327
0.09750337
0
0
0
0
0
0.09175403
0.09160444
0.09198172
0.09296814
0.09467383
0
0
0
0
0
0
0.08955488
0.08938132
0.08969391
0.09056245
0.09207659
0
0
0
0
0
0
0
0.08748528
0.08730278
0.08757342
0.0883578
0.08973252
0
0
0
0
0
0
0
0
0.08558667
0.08540425
0.08564885
0.08637334
0.08764464
0
0
0
0
0
0
0
0
0
0.08387008
0.08369309
0.08392155
0.08460315
0.0857967
0
0
0
0
0
0
0
0
0
0
0.1281931
0.1218498
0.125975
0.116238
0.1187936
0.1241576
0.1115374
0.1130384
0.1163862
0.1229223
0.1075632
0.1084369
0.1106258
0.1148
0.122545
0.1041557
0.1046483
0.1061563
0.1090698
0.114134
0
0.1011996
0.1014447
0.1025323
0.104705
0.1083913
0
0
0.09859559
0.09867844
0.09948666
0.1011946
0.1040693
0
0
0
0.0962551
0.09622923
0.09684769
0.09824021
0.1005982
0
0
0
0
0.09408275
0.09398624
0.09447128
0.09564238
0.09764211
0
0
0
0
0
0.09197672
0.09183466
0.09222567
0.09323406
0.09497373
0
0
0
0
0
0
0.08985764
0.08968868
0.09001143
0.09089735
0.09243837
0
0
0
0
0
0
0
0.08777405
0.08759371
0.08787068
0.08866662
0.09005957
0
0
0
0
0
0
0
0
0.08580002
0.08561836
0.08586634
0.08659741
0.08787933
0
0
0
0
0
0
0
0
0
0.08398026
0.08380364
0.08403368
0.08471834
0.08591677
0
0
0
0
0
0
0
0
0
0
0.08232841
0.08216111
0.08238061
0.08303115
0.08416609
0
0
0
0
0
0
0
0
0
0
0.1263366
0.1207791
0.124194
0.1158195
0.1181994
0.1230544
0.1114439
0.1128883
0.1161328
0.122367
0.1075835
0.1084371
0.1105954
0.1147145
0.1222958
0.1041864
0.1046728
0.1061719
0.109072
0.1141116
0
0.1011996
0.1014447
0.1025323
0.104705
0.1083913
0
0
0.09855798
0.09864383
0.09945607
0.1011697
0.1040529
0
0
0
0.0961979
0.09617634
0.09680081
0.09820184
0.1005724
0
0
0
0
0.09404981
0.0939582
0.09445044
0.09563231
0.09764815
0
0
0
0
0
0.09203547
0.09189833
0.09229784
0.09331955
0.09507983
0
0
0
0
0
0
0.09006306
0.0898989
0.09023151
0.0911339
0.09270029
0
0
0
0
0
0
0
0.08806028
0.08788261
0.08816709
0.08897653
0.0903908
0
0
0
0
0
0
0
0
0.08607583
0.0858953
0.08614801
0.08688833
0.08818517
0
0
0
0
0
0
0
0
0
0.08418515
0.0840088
0.08424142
0.08493147
0.0861388
0
0
0
0
0
0
0
0
0
0
0.08243428
0.08226725
0.08248802
0.08314114
0.08428027
0
0
0
0
0
0
0
0
0
0
0.08083977
0.08068467
0.08089972
0.08152551
0.08261142
0
0
0
0
0
0
0
0
0
0
0.1248419
0.1196376
0.1224411
0.1150547
0.1171876
0.121336
0.1111438
0.1124959
0.1155649
0.1212782
0.107534
0.1083521
0.1104542
0.1144679
0.1217281
0.104222
0.1046948
0.1061743
0.1090437
0.1140253
0
0.1012345
0.1014753
0.102557
0.1047211
0.1083937
0
0
0.09855798
0.09864383
0.09945607
0.1011697
0.1040529
0
0
0
0.09615865
0.09613913
0.09676632
0.09817111
0.1005472
0
0
0
0
0.09398967
0.09390099
0.09439719
0.09558475
0.09760886
0
0
0
0
0
0.09199734
0.09186332
0.09226768
0.0932966
0.09506783
0
0
0
0
0
0
0.09011255
0.08995132
0.09028966
0.09120155
0.09278259
0
0
0
0
0
0
0
0.08825158
0.08807662
0.08836807
0.0891899
0.09062369
0
0
0
0
0
0
0
0
0.08634789
0.08616868
0.08642681
0.08717774
0.0884917
0
0
0
0
0
0
0
0
0
0.0844495
0.08427358
0.08450975
0.08520726
0.08642694
0
0
0
0
0
0
0
0
0
0
0.08263143
0.08246447
0.08268722
0.08334482
0.08449149
0
0
0
0
0
0
0
0
0
0
0.08094185
0.08078674
0.08100293
0.08163092
0.08272047
0
0
0
0
0
0
0
0
0
0
0.07939911
0.07925718
0.07947113
0.08007768
0.08112211
0
0
0
0
0
0
0
0
0
0
0.1238226
0.1186644
0.1210287
0.1141965
0.1161072
0.1196472
0.11055
0.1117725
0.1145917
0.1195806
0.1073101
0.1080715
0.1100803
0.1139137
0.1206231
0.1042021
0.1046515
0.1060958
0.1089082
0.113779
0
0.1012803
0.1015118
0.1025804
0.1047251
0.1083663
0
0
0.09859559
0.09867844
0.09948666
0.1011946
0.1040693
0
0
0
0.09615865
0.09613913
0.09676632
0.09817111
0.1005472
0
0
0
0
0.09394948
0.09386219
0.09436017
0.0955502
0.09757785
0
0
0
0
0
0.09193546
0.09180332
0.09221028
0.09324285
0.09501948
0
0
0
0
0
0
0.09007085
0.08991144
0.09025286
0.0911696
0.09275795
0
0
0
0
0
0
0
0.08829399
0.08812039
0.08841555
0.08924403
0.09068848
0
0
0
0
0
0
0
0
0.08652744
0.08634948
0.08661235
0.08737261
0.08870172
0
0
0
0
0
0
0
0
0
0.08470906
0.08453369
0.08477378
0.08547961
0.08671323
0
0
0
0
0
0
0
0
0
0
0.0828855
0.08271849
0.08294396
0.08360767
0.0847647
0
0
0
0
0
0
0
0
0
0
0.08113228
0.08097669
0.08119455
0.08182632
0.08292236
0
0
0
0
0
0
0
0
0
0
0.07949778
0.07935569
0.07957044
0.08017901
0.08122663
0
0
0
0
0
0
0
0
0
0
0.07800175
0.07787397
0.07808854
0.0786801
0.07968967
0
0
0
0
0
0
0
0
0
0
0.1233042
0.1179769
0.1200651
0.1134411
0.1151851
0.1182877
0.1098537
0.1109591
0.1135522
0.1179184
0.1068276
0.10751
0.1093856
0.11296
0.118905
0.1040304
0.1044429
0.1058295
0.1085457
0.1132263
0
0.101281
0.1014967
0.102542
0.1046512
0.1082331
0
0
0.09864827
0.09872473
0.0995241
0.1012193
0.1040744
0
0
0
0.0961979
0.09617634
0.09680081
0.09820184
0.1005724
0
0
0
0
0.09394948
0.09386219
0.09436017
0.0955502
0.09757785
0
0
0
0
0
0.09189484
0.0917636
0.09217172
0.09320584
0.0949847
0
0
0
0
0
0
0.0900081
0.08984979
0.09019279
0.09111183
0.09270353
0
0
0
0
0
0
0
0.08825
0.08807719
0.08837413
0.08920568
0.09065504
0
0
0
0
0
0
0
0
0.08656427
0.08638668
0.08665165
0.08741646
0.08875326
0
0
0
0
0
0
0
0
0
0.08487846
0.0847035
0.08494677
0.08565953
0.08690503
0
0
0
0
0
0
0
0
0
0
0.08313428
0.08296689
0.08319535
0.08386571
0.08503415
0
0
0
0
0
0
0
0
0
0
0.08137745
0.08122105
0.08144104
0.08207795
0.0831828
0
0
0
0
0
0
0
0
0
0
0.07968215
0.07953932
0.07975512
0.08036707
0.08142035
0
0
0
0
0
0
0
0
0
0
0.07809721
0.07796925
0.07818444
0.07877764
0.07979016
0
0
0
0
0
0
0
0
0
0
0.07664268
0.07653067
0.07674756
0.07732668
0.07830662
0
0
0
0
0
0
0
0
0
0
0.1176191
0.1195746
0.1128975
0.1145333
0.1173605
0.1092254
0.1102421
0.1126647
0.1165836
0.1062389
0.1068495
0.1086032
0.111942
0.1172328
0.1036261
0.103987
0.1052909
0.1078673
0.1122731
0
0.1011467
0.1013376
0.102345
0.1043943
0.107875
0
0
0.09866356
0.09872919
0.09951284
0.1011846
0.1040031
0
0
0
0.0962551
0.09622923
0.09684769
0.09824021
0.1005982
0
0
0
0
0.09398967
0.09390099
0.09439719
0.09558475
0.09760886
0
0
0
0
0
0.09189484
0.0917636
0.09217172
0.09320584
0.0949847
0
0
0
0
0
0
0.08996744
0.08980966
0.09015335
0.09107332
0.09266634
0
0
0
0
0
0
0
0.08818707
0.08801473
0.08831249
0.08914534
0.09059671
0
0
0
0
0
0
0
0
0.08651877
0.08634138
0.08660712
0.08737369
0.0887136
0
0
0
0
0
0
0
0
0
0.08491083
0.08473555
0.08497988
0.08569554
0.08694653
0
0
0
0
0
0
0
0
0
0
0.0832954
0.08312723
0.08335794
0.08403352
0.08521124
0
0
0
0
0
0
0
0
0
0
0
0.08161697
0.08145937
0.0816813
0.08232376
0.08343814
0
0
0
0
0
0
0
0
0
0
0.07991935
0.07977534
0.07999241
0.08060876
0.08166971
0
0
0
0
0
0
0
0
0
0
0.07827591
0.0781472
0.07836311
0.07895897
0.07997664
0
0
0
0
0
0
0
0
0
0
0.07673524
0.07662293
0.07684038
0.07742091
0.07840337
0
0
0
0
0
0
0
0
0
0
0.07531843
0.07522259
0.07544406
0.07601317
0.07696694
0
0
0
0
0
0
0
0
0
0
0.1126114
0.1141939
0.1168885
0.1087668
0.1097257
0.1120373
0.1156746
0.1056964
0.1062524
0.1079129
0.1110734
0.1158954
0.1031142
0.1034282
0.1046557
0.1071027
0.1112578
0
0.1007996
0.1009556
0.1019081
0.1038696
0.1072011
0
0
0.09855675
0.09860552
0.09936336
0.1009955
0.1037509
0
0
0
0.09628067
0.09624753
0.09685525
0.09823195
0.100566
0
0
0
0
0.09404981
0.0939582
0.09445044
0.09563231
0.09764815
0
0
0
0
0
0.09193546
0.09180332
0.09221028
0.09324285
0.09501948
0
0
0
0
0
0
0.08996744
0.08980966
0.09015335
0.09107332
0.09266634
0
0
0
0
0
0
0
0.08814667
0.08797457
0.08827266
0.08910598
0.09055805
0
0
0
0
0
0
0
0
0.08645603
0.08627878
0.08654473
0.08731186
0.08865278
0
0
0
0
0
0
0
0
0
0.08486459
0.08468891
0.08493341
0.08564982
0.08690259
0
0
0
0
0
0
0
0
0
0
0.08332457
0.08315519
0.08338624
0.08406362
0.08524511
0
0
0
0
0
0
0
0
0
0
0
0.08177117
0.08161203
0.08183491
0.08248154
0.08360333
0
0
0
0
0
0
0
0
0
0
0
0
0.08015064
0.08000501
0.08022309
0.08084379
0.08191302
0
0
0
0
0
0
0
0
0
0
0.07850567
0.07837576
0.07859247
0.07919175
0.0802162
0
0
0
0
0
0
0
0
0
0
0.07690889
0.07679555
0.07701364
0.07759641
0.07858321
0
0
0
0
0
0
0
0
0
0
0.07540829
0.07531212
0.07553398
0.07610441
0.07706043
0
0
0
0
0
0
0
0
0
0
0.07402574
0.0739465
0.07417353
0.07473559
0.07566644
0
0
0
0
0
0
0
0
0
0
0.1085236
0.1094537
0.1117104
0.115212
0.1052958
0.1058162
0.1074156
0.1104597
0.1149866
0.1026338
0.1029121
0.1040806
0.1064281
0.1103928
0
0.1003453
0.1004696
0.1013708
0.1032495
0.1064415
0
0
0.09825294
0.09827779
0.09899776
0.1005706
0.1032314
0
0
0
0.09619431
0.09614986
0.09673975
0.09808923
0.1003812
0
0
0
0
0.09408275
0.09398624
0.09447128
0.09564238
0.09764211
0
0
0
0
0
0.09199734
0.09186332
0.09226768
0.0932966
0.09506783
0
0
0
0
0
0
0.0900081
0.08984979
0.09019279
0.09111183
0.09270353
0
0
0
0
0
0
0
0.08814667
0.08797457
0.08827266
0.08910598
0.09055805
0
0
0
0
0
0
0
0
0.08641604
0.08623888
0.08650488
0.08727213
0.0886133
0
0
0
0
0
0
0
0
0
0.08480249
0.08462653
0.08487093
0.0855873
0.08684035
0
0
0
0
0
0
0
0
0
0
0.08327826
0.08310793
0.08333855
0.0840161
0.08519833
0
0
0
0
0
0
0
0
0
0
0
0.081798
0.0816371
0.08185941
0.08250707
0.08363147
0
0
0
0
0
0
0
0
0
0
0
0
0.0802988
0.08015128
0.08036946
0.08099293
0.08206836
0
0
0
0
0
0
0
0
0
0
0
0
0
0.07872945
0.07859776
0.07881495
0.07941753
0.08044889
0
0
0
0
0
0
0
0
0
0
0.07713214
0.07701713
0.07723589
0.07782151
0.07881399
0
0
0
0
0
0
0
0
0
0
0.07557724
0.07547999
0.07570215
0.07627467
0.07723452
0
0
0
0
0
0
0
0
0
0
0.07411317
0.07403348
0.07426084
0.07482402
0.07575697
0
0
0
0
0
0
0
0
0
0
0.07276346
0.07269938
0.07293294
0.07348956
0.07440118
0
0
0
0
0
0
0
0
0
0
0.1050821
0.1055846
0.1071535
0.1101398
0.1145246
0.1022757
0.1025306
0.1036603
0.105942
0.1097822
0
0.09991214
0.1000121
0.1008734
0.1026878
0.1057717
0
0
0.09784329
0.09784612
0.0985302
0.1000464
0.1026168
0
0
0
0.09592388
0.09586315
0.09642624
0.09773408
0.0999615
0
0
0
0
0.09401201
0.09390787
0.09438068
0.0955327
0.09750337
0
0
0
0
0
0.09203547
0.09189833
0.09229784
0.09331955
0.09507983
0
0
0
0
0
0
0.09007085
0.08991144
0.09025286
0.0911696
0.09275795
0
0
0
0
0
0
0
0.08818706
0.08801473
0.08831249
0.08914534
0.09059671
0
0
0
0
0
0
0
0
0.08641604
0.08623888
0.08650488
0.08727213
0.0886133
0
0
0
0
0
0
0
0
0
0.08476312
0.08458703
0.08483134
0.08554756
0.08680053
0
0
0
0
0
0
0
0
0
0
0.08321713
0.08304621
0.08327632
0.08395352
0.08513546
0
0
0
0
0
0
0
0
0
0
0
0.08175208
0.08158987
0.08181121
0.08245843
0.08358299
0
0
0
0
0
0
0
0
0
0
0
0
0.08032371
0.08017428
0.08039131
0.08101487
0.08209208
0
0
0
0
0
0
0
0
0
0
0
0
0
0.07887245
0.07873845
0.07895531
0.0795597
0.08059575
0
0
0
0
0
0
0
0
0
0
0
0
0
0
0.07734942
0.07723212
0.0774511
0.07803938
0.07903756
0
0
0
0
0
0
0
0
0
0
0.07579447
0.07569547
0.07591776
0.0764929
0.07745773
0
0
0
0
0
0
0
0
0
0
0.07427791
0.07419694
0.07442449
0.07498934
0.0759259
0
0
0
0
0
0
0
0
0
0
0.07284864
0.07278405
0.0730178
0.07357545
0.07448894
0
0
0
0
0
0
0
0
0
0
0.07152919
0.07148024
0.07171942
0.07227216
0.07316685
0
0
0
0
0
0
0
0
0
0
0.1020839
0.1023269
0.1034369
0.1056857
0.1094642
0
0.09958668
0.09967066
0.1005056
0.1022771
0.1052893
0
0
0.09744733
0.09743323
0.09808915
0.09956065
0.1020598
0
0
0
0.0955494
0.09547361
0.09601088
0.09727807
0.09944242
0
0
0
0
0.09376807
0.09365268
0.09410654
0.09522843
0.09715299
0
0
0
0
0
0.09197672
0.09183466
0.09222567
0.09323406
0.09497373
0
0
0
0
0
0
0.09011255
0.08995132
0.09028966
0.09120155
0.09278259
0
0
0
0
0
0
0
0.08824999
0.08807719
0.08837413
0.08920568
0.09065504
0
0
0
0
0
0
0
0
0.08645603
0.08627878
0.08654473
0.08731186
0.08865278
0
0
0
0
0
0
0
0
0
0.08476311
0.08458703
0.08483134
0.08554756
0.08680053
0
0
0
0
0
0
0
0
0
0
0.08317852
0.08300731
0.08323713
0.08391406
0.08509565
0
0
0
0
0
0
0
0
0
0
0
0.08169214
0.08152912
0.08174965
0.08239614
0.08352011
0
0
0
0
0
0
0
0
0
0
0
0
0.08027832
0.08012752
0.08034323
0.08096581
0.08204257
0
0
0
0
0
0
0
0
0
0
0
0
0
0.07889616
0.07875977
0.07897531
0.07957918
0.08061602
0
0
0
0
0
0
0
0
0
0
0
0
0
0
0.07748808
0.07736806
0.07758623
0.0781758
0.07917761
0
0
0
0
0
0
0
0
0
0
0
0
0
0
0
0.07600587
0.07590442
0.07612632
0.07670375
0.07767352
0
0
0
0
0
0
0
0
0
0
0.07448977
0.07440678
0.0746343
0.07520114
0.07614234
0
0
0
0
0
0
0
0
0
0
0.07300954
0.07294355
0.07317725
0.07373639
0.07465299
0
0
0
0
0
0
0
0
0
0
0.07161229
0.07156279
0.07180208
0.07235567
0.07325209
0
0
0
0
0
0
0
0
0
0
0.07032324
0.07028686
0.07053212
0.07108061
0.07196055
0
0
0
0
0
0
0
0
0
0
0.09941187
0.0994876
0.100309
0.1020588
0.1050349
0
0
0.0971478
0.09712258
0.09775969
0.09920119
0.1016527
0
0
0
0.09518326
0.09509581
0.09561259
0.09684725
0.09896118
0
0
0
0
0.09342215
0.0932963
0.09373155
0.09482333
0.09670174
0
0
0
0
0
0.09175403
0.09160444
0.09198172
0.09296814
0.09467383
0
0
0
0
0
0
0.09006306
0.0898989
0.09023151
0.0911339
0.09270029
0
0
0
0
0
0
0
0.08829398
0.08812039
0.08841555
0.08924403
0.09068848
0
0
0
0
0
0
0
0
0.08651877
0.08634138
0.08660712
0.08737369
0.0887136
0
0
0
0
0
0
0
0
0
0.08480248
0.08462653
0.08487093
0.0855873
0.08684035
0
0
0
0
0
0
0
0
0
0
0.08317852
0.0830073
0.08323713
0.08391406
0.08509565
0
0
0
0
0
0
0
0
0
0
0
0.08165436
0.08149097
0.08171106
0.08235708
0.08348059
0
0
0
0
0
0
0
0
0
0
0
0
0.08021961
0.08006796
0.08028266
0.08090422
0.08198001
0
0
0
0
0
0
0
0
0
0
0
0
0
0.07885179
0.07871361
0.07892777
0.07953031
0.08056616
0
0
0
0
0
0
0
0
0
0
0
0
0
0
0.07751095
0.0773884
0.07760474
0.07819358
0.07919553
0
0
0
0
0
0
0
0
0
0
0
0
0
0
0
0.07614081
0.0760364
0.07625702
0.07683518
0.07780795
0
0
0
0
0
0
0
0
0
0
0
0
0
0
0
0
0.07469605
0.07461025
0.07483715
0.07540558
0.07635123
0
0
0
0
0
0
0
0
0
0
0.07321655
0.07314838
0.07338169
0.07394258
0.07486309
0
0
0
0
0
0
0
0
0
0
0.07176965
0.07171868
0.07195775
0.07251254
0.07341183
0
0
0
0
0
0
0
0
0
0
0.07040439
0.07036745
0.07061275
0.07116198
0.07204345
0
0
0
0
0
0
0
0
0
0
0.06914247
0.06911972
0.06936895
0.06991415
0.07077955
0
0
0
0
0
0
0
0
0
0
0.09698659
0.09695553
0.0975829
0.099009
0.1014362
0
0
0
0.09490477
0.0948096
0.09531261
0.09652524
0.09860502
0
0
0
0
0.09308056
0.09294661
0.09336688
0.09443419
0.09627508
0
0
0
0
0
0.09143163
0.09127496
0.09163848
0.09260236
0.09427309
0
0
0
0
0
0
0.08985764
0.08968868
0.09001143
0.09089735
0.09243837
0
0
0
0
0
0
0
0.08825157
0.08807662
0.08836807
0.0891899
0.09062369
0
0
0
0
0
0
0
0
0.08656427
0.08638667
0.08665165
0.08741646
0.08875326
0
0
0
0
0
0
0
0
0
0.08486457
0.08468891
0.08493341
0.08564982
0.08690259
0
0
0
0
0
0
0
0
0
0
0.08321714
0.08304619
0.08327632
0.08395352
0.08513546
0
0
0
0
0
0
0
0
0
0
0
0.08165435
0.08149097
0.08171105
0.08235708
0.08348059
0
0
0
0
0
0
0
0
0
0
0
0
0.08018268
0.08003062
0.0802448
0.08086576
0.08194091
0
0
0
0
0
0
0
0
0
0
0
0
0
0.07879458
0.07865528
0.07886839
0.07946973
0.08050433
0
0
0
0
0
0
0
0
0
0
0
0
0
0
0.07746767
0.07734331
0.07755786
0.07814532
0.07914593
0
0
0
0
0
0
0
0
0
0
0
0
0
0
0
0.07616328
0.07605608
0.0762747
0.0768516
0.07782427
0
0
0
0
0
0
0
0
0
0
0
0
0
0
0
0
0.07482796
0.07473884
0.07496415
0.07553277
0.07648078
0
0
0
0
0
0
0
0
0
0
0
0
0
0
0
0
0
0.07341828
0.0733471
0.07357937
0.07414152
0.07506567
0
0
0
0
0
0
0
0
0
0
0.07197225
0.07191898
0.07215743
0.07271353
0.07361641
0
0
0
0
0
0
0
0
0
0
0.07055844
0.07052003
0.07076498
0.0713152
0.07219917
0
0
0
0
0
0
0
0
0
0
0.06922181
0.06919847
0.06944771
0.06999355
0.07086034
0
0
0
0
0
0
0
0
0
0
0.06798521
0.06797581
0.06823049
0.06877078
0.06962312
0
0
0
0
0
0
0
0
0
0
0.0947547
0.09465536
0.09515115
0.09635235
0.09841458
0
0
0
0
0.09281951
0.0926802
0.09309028
0.09414089
0.09595612
0
0
0
0
0
0.09111057
0.09094838
0.09130068
0.09224594
0.09388777
0
0
0
0
0
0
0.08955488
0.08938132
0.08969391
0.09056245
0.09207659
0
0
0
0
0
0
0
0.08806026
0.08788261
0.08816708
0.08897653
0.0903908
0
0
0
0
0
0
0
0
0.08652744
0.08634946
0.08661235
0.08737261
0.08870172
0
0
0
0
0
0
0
0
0
0.0849108
0.08473555
0.08497987
0.08569554
0.08694653
0
0
0
0
0
0
0
0
0
0
0.08327827
0.08310791
0.08333855
0.08401609
0.08519833
0
0
0
0
0
0
0
0
0
0
0
0.08169214
0.08152913
0.08174964
0.08239614
0.08352011
0
0
0
0
0
0
0
0
0
0
0
0
0.08018268
0.08003062
0.0802448
0.08086575
0.08194091
0
0
0
0
0
0
0
0
0
0
0
0
0
0.0787586
0.07861877
0.07883134
0.079432
0.08046583
0
0
0
0
0
0
0
0
0
0
0
0
0
0
0.07741194
0.07728646
0.07749971
0.07808594
0.07908512
0
0
0
0
0
0
0
0
0
0
0
0
0
0
0
0.07612138
0.07601213
0.07622894
0.07680405
0.07777533
0
0
0
0
0
0
0
0
0
0
0
0
0
0
0
0
0.07485049
0.07475829
0.07498132
0.07554849
0.07649583
0
0
0
0
0
0
0
0
0
0
0
0
0
0
0
0
0
0.07354768
0.07347297
0.07370323
0.07426521
0.0751911
0
0
0
0
0
0
0
0
0
0
0
0
0
0
0
0
0
0
0.07216992
0.0721135
0.07235063
0.07290749
0.07381358
0
0
0
0
0
0
0
0
0
0
0.07075693
0.0707162
0.07096036
0.07151159
0.07239862
0
0
0
0
0
0
0
0
0
0
0.0693728
0.06934793
0.06959678
0.07014344
0.07101245
0
0
0
0
0
0
0
0
0
0
0.06806287
0.06805284
0.06830747
0.06884835
0.06970196
0
0
0
0
0
0
0
0
0
0
0.06685115
0.06685359
0.06711383
0.06765111
0.06848929
0
0
0
0
0
0
0
0
0
0
0.09267874
0.09253647
0.09294108
0.09398294
0.09578484
0
0
0
0
0
0.09086423
0.09069838
0.09104303
0.0919754
0.09359728
0
0
0
0
0
0
0.0892512
0.08907405
0.0893782
0.09023217
0.09172368
0
0
0
0
0
0
0
0.08777404
0.08759371
0.08787068
0.08866662
0.09005957
0
0
0
0
0
0
0
0
0.0863479
0.08616867
0.08642681
0.08717774
0.0884917
0
0
0
0
0
0
0
0
0
0.08487843
0.0847035
0.08494675
0.08565953
0.08690503
0
0
0
0
0
0
0
0
0
0
0.08332457
0.08315517
0.08338624
0.08406362
0.08524511
0
0
0
0
0
0
0
0
0
0
0
0.08175207
0.08158988
0.08181119
0.08245844
0.08358299
0
0
0
0
0
0
0
0
0
0
0
0
0.08021962
0.08006796
0.08028267
0.0809042
0.08198001
0
0
0
0
0
0
0
0
0
0
0
0
0
0.07875861
0.07861877
0.07883133
0.079432
0.08046583
0
0
0
0
0
0
0
0
0
0
0
0
0
0
0.0773769
0.07725089
0.07746348
0.07804901
0.07904737
0
0
0
0
0
0
0
0
0
0
0
0
0
0
0
0.0760673
0.07595674
0.07617228
0.07674591
0.07771574
0
0
0
0
0
0
0
0
0
0
0
0
0
0
0
0
0.07481022
0.07471576
0.07493675
0.07550211
0.07644765
0
0
0
0
0
0
0
0
0
0
0
0
0
0
0
0
0
0.07357054
0.07349262
0.0737203
0.07428052
0.07520553
0
0
0
0
0
0
0
0
0
0
0
0
0
0
0
0
0
0
0.07229723
0.07223713
0.072472
0.0730282
0.07393559
0
0
0
0
0
0
0
0
0
0
0
0
0
0
0
0
0
0
0
0.07095086
0.07090697
0.07114961
0.07170124
0.0725909
0
0
0
0
0
0
0
0
0
0
0.06956751
0.06954025
0.06978824
0.07033567
0.07120738
0
0
0
0
0
0
0
0
0
0
0.06821103
0.06819943
0.06845358
0.06899517
0.0698508
0
0
0
0
0
0
0
0
0
0
0.0669272
0.06692903
0.06718916
0.06772696
0.06856633
0
0
0
0
0
0
0
0
0
0
0.06573968
0.06575286
0.06601752
0.06655233
0.06737872
0
0
0
0
0
0
0
0
0
0
0.09073137
0.09056342
0.09090389
0.09182938
0.09344081
0
0
0
0
0
0
0.08901744
0.08883789
0.08913622
0.08998004
0.09145572
0
0
0
0
0
0
0
0.08748527
0.08730278
0.08757342
0.0883578
0.08973252
0
0
0
0
0
0
0
0
0.08607584
0.08589528
0.08614801
0.08688833
0.08818517
0
0
0
0
0
0
0
0
0
0.08470902
0.08453369
0.08477376
0.0854796
0.08671323
0
0
0
0
0
0
0
0
0
0
0.08329539
0.0831272
0.08335794
0.0840335
0.08521124
0
0
0
0
0
0
0
0
0
0
0
0.08179799
0.0816371
0.08185938
0.08250707
0.08363146
0
0
0
0
0
0
0
0
0
0
0
0
0.08027832
0.08012751
0.08034324
0.08096579
0.08204258
0
0
0
0
0
0
0
0
0
0
0
0
0
0.07879458
0.07865528
0.07886839
0.07946973
0.08050432
0
0
0
0
0
0
0
0
0
0
0
0
0
0
0.0773769
0.07725089
0.07746348
0.07804901
0.07904737
0
0
0
0
0
0
0
0
0
0
0
0
0
0
0
0.07603327
0.07592209
0.07613697
0.0767098
0.0776788
0
0
0
0
0
0
0
0
0
0
0
0
0
0
0
0
0.07475788
0.07466201
0.07488154
0.07544545
0.07638932
0
0
0
0
0
0
0
0
0
0
0
0
0
0
0
0
0
0.073532
0.07345175
0.07367718
0.07423536
0.07515855
0
0
0
0
0
0
0
0
0
0
0
0
0
0
0
0
0
0
0.07232065
0.07225724
0.07248938
0.07304351
0.07394969
0
0
0
0
0
0
0
0
0
0
0
0
0
0
0
0
0
0
0
0.07107635
0.07102876
0.07126894
0.07181961
0.07271002
0
0
0
0
0
0
0
0
0
0
0
0
0
0
0
0
0
0
0
0
0.06975809
0.06972758
0.06997397
0.07052153
0.07139543
0
0
0
0
0
0
0
0
0
0
0.06840231
0.06838822
0.06864139
0.06918363
0.07004163
0
0
0
0
0
0
0
0
0
0
0.06707268
0.06707297
0.06733253
0.06787091
0.06871215
0
0
0
0
0
0
0
0
0
0
0.06581425
0.06582678
0.06609134
0.06662658
0.06745406
0
0
0
0
0
0
0
0
0
0
0.06464986
0.0646731
0.06494147
0.06547304
0.06628859
0
0
0
0
0
0
0
0
0
0
0.0888914
0.08871038
0.08900547
0.08984381
0.09131106
0
0
0
0
0
0
0
0.08726239
0.08707844
0.08734465
0.0881209
0.08948277
0
0
0
0
0
0
0
0
0.08580002
0.08561835
0.08586634
0.08659741
0.08787933
0
0
0
0
0
0
0
0
0
0.08444946
0.08427358
0.08450973
0.08520726
0.08642694
0
0
0
0
0
0
0
0
0
0
0.08313426
0.08296685
0.08319536
0.08386569
0.08503415
0
0
0
0
0
0
0
0
0
0
0.08177116
0.08161201
0.08183488
0.08248154
0.08360331
0
0
0
0
0
0
0
0
0
0
0
0
0.08032371
0.08017427
0.08039131
0.08101484
0.08209208
0
0
0
0
0
0
0
0
0
0
0
0
0
0.0788518
0.07871362
0.07892776
0.07953032
0.08056614
0
0
0
0
0
0
0
0
0
0
0
0
0
0
0.07741195
0.07728647
0.07749971
0.07808593
0.07908513
0
0
0
0
0
0
0
0
0
0
0
0
0
0
0
0.07603327
0.0759221
0.07613697
0.0767098
0.0776788
0
0
0
0
0
0
0
0
0
0
0
0
0
0
0
0
0.07472491
0.07462835
0.07484714
0.07541027
0.0763532
0
0
0
0
0
0
0
0
0
0
0
0
0
0
0
0
0
0.07348145
0.07339973
0.0736236
0.07418016
0.07510172
0
0
0
0
0
0
0
0
0
0
0
0
0
0
0
0
0
0
0.07228393
0.07221812
0.07244794
0.07299983
0.07390396
0
0
0
0
0
0
0
0
0
0
0
0
0
0
0
0
0
0
0
0.07110046
0.07104955
0.07128689
0.07183532
0.07272418
0
0
0
0
0
0
0
0
0
0
0
0
0
0
0
0
0
0
0
0
0.06988208
0.06984779
0.07009165
0.070638
0.07151228
0
0
0
0
0
0
0
0
0
0
0
0
0
0
0
0
0
0
0
0
0.06858991
0.06857247
0.06882388
0.06936611
0.07022596
0
0
0
0
0
0
0
0
0
0
0.06726068
0.06725856
0.067517
0.06805584
0.06889926
0
0
0
0
0
0
0
0
0
0
0.06595729
0.06596819
0.06623218
0.06676788
0.06759704
0
0
0
0
0
0
0
0
0
0
0.06472305
0.06474562
0.06501382
0.06554581
0.06636236
0
0
0
0
0
0
0
0
0
0
0.06358375
0.06361349
0.06388519
0.06441319
0.06521757
0
0
0
0
0
0
0
0
0
0
0.0871423
0.08695735
0.08722103
0.08799282
0.0893478
0
0
0
0
0
0
0
0
0.08558668
0.08540424
0.08564885
0.08637334
0.08764464
0
0
0
0
0
0
0
0
0
0.08418511
0.0840088
0.08424141
0.08493147
0.0861388
0
0
0
0
0
0
0
0
0
0
0.08288546
0.08271845
0.08294396
0.08360766
0.08476469
0
0
0
0
0
0
0
0
0
0
0.08161695
0.08145934
0.08168126
0.08232376
0.08343813
0
0
0
0
0
0
0
0
0
0
0.08029881
0.08015126
0.08036944
0.0809929
0.08206836
0
0
0
0
0
0
0
0
0
0
0
0
0
0.07889618
0.07875978
0.0789753
0.07957918
0.08061599
0
0
0
0
0
0
0
0
0
0
0
0
0
0
0.07746768
0.07734332
0.07755787
0.07814531
0.07914594
0
0
0
0
0
0
0
0
0
0
0
0
0
0
0
0.0760673
0.07595675
0.07617228
0.07674591
0.07771574
0
0
0
0
0
0
0
0
0
0
0
0
0
0
0
0
0.07472491
0.07462835
0.07484715
0.07541027
0.0763532
0
0
0
0
0
0
0
0
0
0
0
0
0
0
0
0
0
0.07344953
0.0733671
0.07359018
0.07414589
0.07506653
0
0
0
0
0
0
0
0
0
0
0
0
0
0
0
0
0
0
0.07223519
0.07216787
0.07239609
0.07294626
0.07384861
0
0
0
0
0
0
0
0
0
0
0
0
0
0
0
0
0
0
0
0.07106559
0.07101227
0.07124723
0.07179335
0.07267997
0
0
0
0
0
0
0
0
0
0
0
0
0
0
0
0
0
0
0
0
0.06990703
0.06986936
0.07011037
0.07065435
0.0715269
0
0
0
0
0
0
0
0
0
0
0
0
0
0
0
0
0
0
0
0
0.06871272
0.06869138
0.06894015
0.06948106
0.07034099
0
0
0
0
0
0
0
0
0
0
0
0
0
0
0
0
0
0
0
0
0.06744547
0.06744006
0.0676966
0.06823522
0.06908028
0
0
0
0
0
0
0
0
0
0
0.06614236
0.06615072
0.06641361
0.06694957
0.06778068
0
0
0
0
0
0
0
0
0
0
0.0648638
0.06488474
0.06515225
0.06568467
0.06650273
0
0
0
0
0
0
0
0
0
0
0.06365566
0.06368469
0.0639562
0.06448454
0.06528987
0
0
0
0
0
0
0
0
0
0
0.06253979
0.06257611
0.06284794
0.06337235
0.06416559
0
0
0
0
0
0
0
0
0
0
0.08547182
0.08528875
0.08553136
0.08625218
0.08751773
0
0
0
0
0
0
0
0
0
0.08398022
0.08380364
0.08403367
0.08471834
0.08591677
0
0
0
0
0
0
0
0
0
0
0.08263137
0.08246443
0.08268722
0.08334481
0.08449149
0
0
0
0
0
0
0
0
0
0
0.08137742
0.08122101
0.081441
0.08207795
0.08318278
0
0
0
0
0
0
0
0
0
0
0.08015065
0.08000499
0.08022307
0.08084376
0.08191302
0
0
0
0
0
0
0
0
0
0
0.07887248
0.07873845
0.07895529
0.07955969
0.08059572
0
0
0
0
0
0
0
0
0
0
0
0
0
0
0.07751097
0.07738841
0.07760474
0.07819357
0.07919553
0
0
0
0
0
0
0
0
0
0
0
0
0
0
0
0.07612139
0.07601214
0.07622895
0.07680406
0.07777532
0
0
0
0
0
0
0
0
0
0
0
0
0
0
0
0
0.07475789
0.07466201
0.07488155
0.07544545
0.07638932
0
0
0
0
0
0
0
0
0
0
0
0
0
0
0
0
0
0.07344953
0.07336711
0.07359018
0.07414589
0.07506653
0
0
0
0
0
0
0
0
0
0
0
0
0
0
0
0
0
0
0.07220433
0.07213629
0.0723637
0.07291296
0.07381432
0
0
0
0
0
0
0
0
0
0
0
0
0
0
0
0
0
0
0
0.07101866
0.07096382
0.07119714
0.07174151
0.07262625
0
0
0
0
0
0
0
0
0
0
0
0
0
0
0
0
0
0
0
0
0.06987407
0.06983396
0.07007257
0.07061418
0.07148442
0
0
0
0
0
0
0
0
0
0
0
0
0
0
0
0
0
0
0
0
0.06873868
0.0687139
0.06895974
0.06949825
0.07035629
0
0
0
0
0
0
0
0
0
0
0
0
0
0
0
0
0
0
0
0
0.06756721
0.06755799
0.06781173
0.06834887
0.06919385
0
0
0
0
0
0
0
0
0
0
0
0
0
0
0
0
0
0
0
0
0.06632471
0.06632964
0.06659065
0.06712619
0.06795866
0
0
0
0
0
0
0
0
0
0
0.06504614
0.06506454
0.06533078
0.06586343