/*--------------------------------*- C++ -*----------------------------------*\
| =========                 |                                                 |
| \\      /  F ield         | OpenFOAM: The Open Source CFD Toolbox           |
|  \\    /   O peration     | Version:  2306                                  |
|   \\  /    A nd           | Website:  www.openfoam.com                      |
|    \\/     M anipulation  |                                                 |
\*---------------------------------------------------------------------------*/
FoamFile
{
    version     2.0;
    format      ascii;
    arch        "LSB;label=32;scalar=64";
    class       volScalarField;
    location    "0.6/fuel";
    object      H2;
}
// * * * * * * * * * * * * * * * * * * * * * * * * * * * * * * * * * * * * * //

dimensions      [0 0 0 0 0 0 0];

internalField   nonuniform List<scalar> 
16000
(
0.5836083
0.5884781
0.5141986
0.5838839
0.5983823
0.517269
0.5887597
0.4512017
0.5144026
0.584424
0.6134352
0.52347
0.5986767
0.4534215
0.5174761
0.5893114
0.4010295
0.4513531
0.5148029
0.5852213
0.6331038
0.5327917
0.6137507
0.4578934
0.5236835
0.5992533
0.4027413
0.4535748
0.5178824
0.5901259
0.3608559
0.401146
0.4516504
0.5153941
0.5862724
0.654507
0.5448052
0.6334515
0.464591
0.5330157
0.6143686
0.4061825
0.4580505
0.5241024
0.6001044
0.3622228
0.402859
0.4538757
0.5184825
0.5911997
0.3280545
0.3609483
0.4013748
0.4520898
0.5161738
0.5873161
0.6709481
0.5577089
0.6548967
0.4731799
0.5450447
0.6341324
0.4113209
0.4647544
0.533455
0.6152805
0.3649663
0.4063027
0.458359
0.5247211
0.6012265
0.3291732
0.3623161
0.4030902
0.4543204
0.5192739
0.5922659
0.3007691
0.3281297
0.3611301
0.4017133
0.4526695
0.5169479
0.5881815
0.6815709
0.567604
0.6713638
0.4823529
0.5579682
0.65566
0.4178834
0.4733527
0.5455144
0.6351375
0.369053
0.4114453
0.4650752
0.5341038
0.6164829
0.3314156
0.3650614
0.406539
0.4588149
0.5255369
0.6023406
0.3017025
0.3292491
0.3624996
0.4034323
0.4549072
0.5200595
0.59315
0.2777086
0.3008316
0.3282777
0.3613991
0.40216
0.453245
0.5175894
0.5890424
0.6876721
0.5740424
0.6820008
0.4893534
0.5678741
0.672178
0.4248599
0.4825375
0.5584769
0.6567873
0.3742555
0.418014
0.4736918
0.5462084
0.6364629
0.3347493
0.369151
0.4116897
0.4655492
0.5349594
0.6176767
0.3035712
0.3314928
0.3652484
0.4068885
0.4594164
0.5263469
0.603265
0.2784995
0.3017654
0.3293983
0.3627711
0.4038836
0.4554897
0.5207107
0.5940296
0.2579552
0.2777612
0.3009545
0.3284969
0.3617542
0.4026035
0.4537218
0.5182273
0.5898986
0.6904299
0.5777815
0.6881097
0.4938986
0.5743177
0.6828426
0.430164
0.489544
0.568404
0.67338
0.3797664
0.4249986
0.4829003
0.5592286
0.6582746
0.3389826
0.374358
0.4182708
0.4741931
0.5471236
0.6377794
0.3063452
0.3348287
0.3693437
0.4120512
0.4661746
0.5358089
0.6186692
0.2800818
0.3036351
0.3316446
0.3655251
0.4073496
0.4600135
0.5270185
0.6041851
0.2586342
0.2785525
0.3018892
0.3296193
0.3631294
0.4043317
0.4559723
0.5213583
0.5949045
0.2408401
0.2580002
0.277865
0.3011366
0.3287862
0.3621067
0.4029708
0.4541957
0.5188615
0.5907502
0.6904299
0.5794878
0.6908709
0.4965375
0.5780594
0.6889662
0.4336003
0.4940917
0.5748578
0.6840851
0.3839439
0.4303064
0.4899184
0.569187
0.6749661
0.3434541
0.3798747
0.4252714
0.4834367
0.5602204
0.6597528
0.3098606
0.3390652
0.3745595
0.4186506
0.4748545
0.5480324
0.6388796
0.2824275
0.3064108
0.3349847
0.369629
0.4125282
0.4667954
0.5365144
0.6196589
0.2599917
0.2801356
0.303761
0.3318694
0.3658904
0.4078074
0.4605084
0.5276866
0.6051009
0.2414296
0.2586796
0.2786571
0.3020727
0.3299111
0.3634853
0.4047029
0.456452
0.5220021
0.5957747
0.2258645
0.2408791
0.2580891
0.2780188
0.3013771
0.3290736
0.3623987
0.4033357
0.4546666
0.519492
0.5948698
0.6876721
0.5794878
0.6908709
0.4977424
0.5797668
0.691734
0.4355938
0.4967318
0.5786045
0.6902303
0.3866457
0.4337441
0.4944709
0.5756556
0.6857243
0.3468357
0.3840546
0.4305863
0.490472
0.5702201
0.6765425
0.3135653
0.3435411
0.3800878
0.4256749
0.4841447
0.5612057
0.6609999
0.2853952
0.3099287
0.3392279
0.3748578
0.4191518
0.4755112
0.5487906
0.6399828
0.2620021
0.2824826
0.3065399
0.3352158
0.3700054
0.4130018
0.4673108
0.5372172
0.6206459
0.2426073
0.2600377
0.2802417
0.3039474
0.3321662
0.3662531
0.4081868
0.4610005
0.5283512
0.6060122
0.2263812
0.2414688
0.258769
0.2788119
0.3023151
0.3302008
0.36378
0.4050717
0.4569288
0.5226422
0.5999848
0.2126489
0.2258986
0.240956
0.2582207
0.278222
0.301616
0.3293115
0.3626887
0.4036983
0.4551346
0.5225408
0.5977032
0.6815709
0.5777815
0.6881097
0.4977424
0.5797668
0.691734
0.4365038
0.497937
0.580314
0.6930076
0.388212
0.4357381
0.4971131
0.5794096
0.6918976
0.3490197
0.3867573
0.4340266
0.4950316
0.5767082
0.6873533
0.3163616
0.3469244
0.3842725
0.4310005
0.4912026
0.5712464
0.6778728
0.2885168
0.3136368
0.3437125
0.3804032
0.4262076
0.4848479
0.5620343
0.6622621
0.2645419
0.2854523
0.3100628
0.3394687
0.3752516
0.4196494
0.4760588
0.5495492
0.6410887
0.2443499
0.2620491
0.2825912
0.3067311
0.3355209
0.3703793
0.4133948
0.4678241
0.5379174
0.6216299
0.2274128
0.2426471
0.2601283
0.2803988
0.3041935
0.332461
0.3665535
0.4085639
0.4614899
0.5290122
0.6104234
0.2131054
0.2264154
0.2415462
0.2589015
0.2790166
0.3025558
0.3304407
0.3640728
0.4054382
0.4574026
0.5257375
0.6028936
0.2008991
0.2126789
0.2259658
0.24107
0.2583947
0.2784239
0.3018137
0.3295478
0.3629769
0.4040586
0.457397
0.5246308
0.5998504
0.6709481
0.5740424
0.6820008
0.4965375
0.5780594
0.6889662
0.4365038
0.497937
0.580314
0.6930076
0.3889268
0.4366483
0.4983193
0.5811223
0.6946875
0.3502849
0.3883238
0.4360217
0.4976769
0.5804718
0.6935547
0.3181655
0.3491089
0.3869766
0.4344446
0.4957715
0.5777538
0.6887254
0.2908693
0.3164344
0.3470991
0.384595
0.4315473
0.4919283
0.5721096
0.6792195
0.2672093
0.2885767
0.3137777
0.3439662
0.3808197
0.4267369
0.4854389
0.5628701
0.6635395
0.2465488
0.2645905
0.2855649
0.3102615
0.3397867
0.3756426
0.4200643
0.4766064
0.5503084
0.6421974
0.228938
0.2443905
0.2621418
0.2827521
0.3069836
0.3358239
0.3706895
0.4137861
0.4683352
0.5386149
0.6264023
0.2140166
0.2274475
0.2427254
0.2602627
0.2806064
0.3044381
0.3327051
0.3668522
0.4089388
0.4619764
0.53221
0.6135226
0.2013055
0.2131356
0.226483
0.2416609
0.2590767
0.2792198
0.302755
0.330679
0.3643636
0.4058023
0.4596932
0.527867
0.6051087
0.1903836
0.2009258
0.2127382
0.2260655
0.2412207
0.2585676
0.2785909
0.3020101
0.3297824
0.363263
0.4057996
0.4589442
0.5262115
0.6012933
0.654507
0.567604
0.6713638
0.4938986
0.5743177
0.6828426
0.4355938
0.4967318
0.5786045
0.6902303
0.3889268
0.4366483
0.4983193
0.5811223
0.6946875
0.3508622
0.3890387
0.4369322
0.4988843
0.5821886
0.696357
0.31921
0.3503742
0.3885436
0.4364411
0.4984208
0.5815268
0.6949482
0.2923855
0.3182386
0.3492845
0.3873014
0.4349964
0.4965063
0.5786317
0.6901116
0.2692168
0.2909301
0.3165778
0.3473579
0.385021
0.4320905
0.4925384
0.5729807
0.6805827
0.2488551
0.2672602
0.2886947
0.3139865
0.3443014
0.3812336
0.4271814
0.4860347
0.5637134
0.6648325
0.2308606
0.2465907
0.2646865
0.2857318
0.310524
0.3401026
0.3759685
0.4204791
0.4771542
0.5510681
0.6476038
0.2153629
0.2289734
0.2444705
0.2622791
0.2829647
0.3072344
0.3360753
0.3709982
0.4141757
0.4688441
0.5419947
0.6299431
0.2021162
0.2140471
0.2275159
0.2428416
0.2604402
0.2808126
0.3046406
0.3329478
0.367149
0.4093114
0.4643293
0.5344395
0.6159275
0.1907476
0.2013323
0.2131952
0.2265833
0.2418125
0.2592507
0.2793881
0.302953
0.3309157
0.3646525
0.4075622
0.461265
0.5294837
0.606604
0.1809175
0.1904074
0.2009784
0.2128261
0.2261973
0.2413705
0.2587107
0.2787568
0.3022052
0.3300155
0.3646458
0.4069882
0.460113
0.5272721
0.6020183
0.6331038
0.5577089
0.6548967
0.4893534
0.5678741
0.672178
0.4336003
0.4940917
0.5748578
0.6840851
0.388212
0.4357381
0.4971131
0.5794096
0.6918976
0.3508622
0.3890387
0.4369322
0.4988843
0.5821886
0.696357
0.3196865
0.3509515
0.3892587
0.4373522
0.4996299
0.5832476
0.69776
0.2932629
0.3192831
0.35055
0.388869
0.4369948
0.4991597
0.5824114
0.696354
0.2705096
0.2924465
0.3183825
0.3495445
0.3877301
0.4355445
0.497123
0.579516
0.6915121
0.2505889
0.2692684
0.29105
0.3167902
0.3476997
0.3854441
0.4325469
0.4931536
0.5738596
0.6819627
0.2328749
0.2488989
0.2673605
0.2888697
0.3142624
0.3446345
0.3815812
0.4276296
0.4866355
0.5645642
0.6711984
0.2170584
0.2308971
0.2466734
0.2648286
0.2859523
0.3107848
0.3403658
0.3762943
0.4208938
0.477702
0.5547659
0.6522267
0.2033132
0.215394
0.2290432
0.2445891
0.2624606
0.2831759
0.3074424
0.3363255
0.3713055
0.4145635
0.4713091
0.5444589
0.6328691
0.1914735
0.2021432
0.2141074
0.2276174
0.2429952
0.2606166
0.2809834
0.3048418
0.3331889
0.3674439
0.411113
0.4659649
0.5361582
0.617581
0.1812454
0.1907715
0.2013852
0.2132836
0.2267159
0.2419632
0.2593947
0.2795552
0.3031495
0.3311508
0.3660486
0.4087677
0.4624568
0.5305724
0.6073579
0.1723514
0.1809389
0.1904545
0.2010565
0.2129424
0.2263283
0.2414944
0.2588527
0.2789216
0.3023988
0.3311415
0.3655886
0.4078853
0.4608965
0.5278045
0.6134352
0.5448052
0.6334515
0.4823529
0.5579682
0.65566
0.430164
0.489544
0.568404
0.67338
0.3866457
0.4337441
0.4944709
0.5756556
0.6857243
0.3502849
0.3883238
0.4360217
0.4976769
0.5804718
0.6935547
0.3196865
0.3509515
0.3892587
0.4373522
0.4996299
0.5832476
0.69776
0.2936631
0.3197595
0.3511273
0.3895843
0.4379066
0.5003704
0.5841351
0.6991743
0.2712574
0.2933239
0.3194271
0.3508103
0.3892986
0.4375447
0.4997789
0.5833014
0.6977721
0.2517045
0.2705613
0.2925667
0.3185957
0.349888
0.388156
0.4360042
0.4977439
0.5804068
0.692927
0.2343877
0.2506332
0.2693702
0.2912277
0.3170709
0.3480393
0.3857996
0.4330071
0.493774
0.5747465
0.688757
0.218833
0.232913
0.2489852
0.2675093
0.2891009
0.3145365
0.3449142
0.3819315
0.4280813
0.4872412
0.5687402
0.6780144
0.2048197
0.2170905
0.2309692
0.246796
0.2650165
0.2861713
0.311002
0.3406289
0.3766201
0.4213086
0.4803675
0.5578116
0.656725
0.1925449
0.2033408
0.2154554
0.2291467
0.244746
0.2626409
0.283351
0.3076494
0.3365744
0.3716114
0.4164414
0.4730992
0.5464618
0.6350208
0.1818992
0.1914977
0.2021967
0.2141968
0.2277516
0.2431478
0.2607626
0.2811531
0.3050417
0.3334284
0.3688698
0.4123631
0.4672235
0.537333
0.6184266
0.1726484
0.181267
0.1908188
0.2014637
0.2134005
0.2268477
0.2420879
0.2595377
0.2797211
0.3033447
0.3322867
0.3670038
0.409681
0.4632586
0.5311204
0.1645634
0.1723708
0.1809812
0.1905244
0.2011599
0.213058
0.2264368
0.2416174
0.2589938
0.2790852
0.3033343
0.3319086
0.3662998
0.4084864
0.4612896
0.5983823
0.5327917
0.6137507
0.4731799
0.5450447
0.6341324
0.4248599
0.4825375
0.5584769
0.6567873
0.3839439
0.4303064
0.4899184
0.569187
0.6749661
0.3490197
0.3867573
0.4340266
0.4950316
0.5767082
0.6873533
0.31921
0.3503742
0.3885436
0.4364411
0.4984208
0.5815268
0.6949482
0.2936631
0.3197595
0.3511273
0.3895843
0.4379066
0.5003704
0.5841351
0.6991743
0.2715984
0.293724
0.3199035
0.3513877
0.3900142
0.4384572
0.5009906
0.5850274
0.7005999
0.2523497
0.2713091
0.293444
0.3196403
0.3511541
0.3897254
0.4380054
0.5004015
0.5841966
0.6992025
0.2353605
0.2517489
0.2706632
0.2927448
0.3188774
0.3502292
0.3885133
0.436467
0.4983689
0.5813041
0.6998794
0.2201646
0.2344262
0.2507207
0.2695211
0.2914626
0.3173499
0.3483246
0.386158
0.4334711
0.4943996
0.5790998
0.6959305
0.2063951
0.2188664
0.2329881
0.2491134
0.267706
0.2893307
0.3147668
0.3451961
0.3822846
0.4285367
0.4902128
0.5729592
0.6866065
0.1938923
0.2048481
0.2171538
0.2310761
0.2469581
0.2652033
0.2863538
0.3112191
0.3408919
0.3769457
0.4233259
0.4825501
0.5606766
0.6607453
0.1828636
0.1925695
0.2033953
0.2155466
0.2292836
0.2449018
0.2627905
0.2835253
0.3078555
0.3368222
0.3730924
0.4178026
0.47455
0.5479118
0.6361905
0.1732402
0.1819209
0.1915455
0.2022761
0.2143151
0.2278849
0.2432741
0.2609077
0.2813217
0.3052404
0.3345864
0.3698579
0.4133243
0.4680827
0.5379314
0.1648335
0.1726678
0.1813095
0.1908891
0.2015676
0.2135168
0.2269567
0.2422117
0.2596797
0.2798859
0.3042878
0.333063
0.3677269
0.4102949
0.4636619
0.1574524
0.1645809
0.1724091
0.1810441
0.1906168
0.2012626
0.2131536
0.2265444
0.2417396
0.2591338
0.2798752
0.3039711
0.3324869
0.3667761
0.4087878
0.5884781
0.52347
0.5986767
0.464591
0.5330157
0.6143686
0.4178834
0.4733527
0.5455144
0.6351375
0.3797664
0.4249986
0.4829003
0.5592286
0.6582746
0.3468357
0.3840546
0.4305863
0.490472
0.5702201
0.6765425
0.3181655
0.3491089
0.3869766
0.4344446
0.4957715
0.5777538
0.6887254
0.2932629
0.3192831
0.35055
0.388869
0.4369948
0.4991597
0.5824114
0.696354
0.2715984
0.293724
0.3199035
0.3513877
0.3900142
0.4384572
0.5009906
0.5850274
0.7005999
0.2526438
0.27165
0.2938441
0.3201167
0.3517315
0.3904411
0.4389181
0.5016138
0.5859244
0.702037
0.2359229
0.252394
0.2714109
0.2936221
0.319922
0.3514956
0.3900828
0.4384684
0.5010275
0.5850972
0.7062211
0.2210205
0.2353991
0.2518365
0.2708144
0.2929802
0.3191572
0.3505153
0.3888728
0.4369328
0.4989982
0.5857009
0.7068811
0.2075763
0.2201984
0.2345023
0.2508505
0.2697206
0.291696
0.3175842
0.3486121
0.3865193
0.4339389
0.4974689
0.5834495
0.704633
0.1953002
0.2064246
0.2189324
0.2330996
0.2492828
0.2679015
0.2895236
0.3149988
0.3454801
0.3826405
0.4307702
0.4931941
0.5780471
0.6977581
0.1840758
0.1939176
0.2049042
0.2172478
0.2312174
0.2471192
0.2653588
0.2865362
0.3114362
0.3411548
0.3785295
0.4249748
0.484594
0.56316
0.6635274
0.1741129
0.1828858
0.1926182
0.2034761
0.2156671
0.2294196
0.245031
0.2629393
0.2836987
0.3080605
0.3380218
0.3741645
0.4189047
0.4755979
0.5486906
0.1653717
0.1732599
0.1819639
0.1916165
0.2023811
0.2144326
0.2279953
0.2433996
0.2610518
0.2814892
0.3062004
0.3353881
0.3706171
0.41398
0.4685199
0.1576991
0.1648511
0.1727063
0.1813727
0.190982
0.2016709
0.2136129
0.227065
0.2423347
0.2598207
0.2806819
0.3049318
0.3336505
0.3682128
0.4106037
0.1509346
0.1574684
0.1646157
0.1724659
0.1811273
0.1907087
0.2013476
0.2132486
0.2266513
0.2418609
0.2598102
0.2804126
0.3044511
0.3328741
0.3670149
0.5836083
0.517269
0.5887597
0.4578934
0.5236835
0.5992533
0.4113209
0.4647544
0.533455
0.6152805
0.3742555
0.418014
0.4736918
0.5462084
0.6364629
0.3434541
0.3798747
0.4252714
0.4834367
0.5602204
0.6597528
0.3163616
0.3469244
0.3842725
0.4310005
0.4912026
0.5712464
0.6778728
0.2923855
0.3182386
0.3492845
0.3873014
0.4349964
0.4965063
0.5786317
0.6901116
0.2712574
0.2933239
0.3194271
0.3508103
0.3892986
0.4375447
0.4997789
0.5833014
0.6977721
0.2526438
0.27165
0.2938441
0.3201167
0.3517315
0.3904411
0.4389181
0.5016138
0.5859244
0.702037
0.2361792
0.2526881
0.2717518
0.294022
0.3203983
0.3520731
0.3907986
0.4393812
0.5022399
0.5868262
0.7090831
0.2215151
0.2359614
0.2524815
0.2715619
0.2938573
0.3202019
0.3517816
0.390442
0.4389339
0.5016568
0.5895042
0.713055
0.2083352
0.2210543
0.2354751
0.2519664
0.2710141
0.2932141
0.3193919
0.3508032
0.3892345
0.4374015
0.5020799
0.5899088
0.7150024
0.1963552
0.2076062
0.2202651
0.2346151
0.2510222
0.2699189
0.291892
0.3178203
0.348902
0.3868835
0.4362332
0.5005185
0.5885108
0.7150422
0.1853415
0.1953265
0.2064831
0.2190304
0.2332471
0.2494512
0.2680657
0.2897181
0.3152325
0.3457664
0.3843856
0.4330079
0.4967698
0.5844159
0.7129994
0.1752091
0.1840985
0.1939677
0.2049875
0.2173721
0.2313578
0.2472534
0.2655142
0.2867185
0.3116531
0.3424332
0.3798227
0.4265173
0.4863585
0.5648347
0.166165
0.1741329
0.1829294
0.1926904
0.2035831
0.2157869
0.2295324
0.2451596
0.2630874
0.2838713
0.3090528
0.3388894
0.3750322
0.4197002
0.4761599
0.1581906
0.1653895
0.1732987
0.1820277
0.1917103
0.2024855
0.2145299
0.228105
0.2435243
0.261195
0.2822985
0.3068645
0.3360039
0.3711349
0.4143135
0.1511609
0.1577152
0.164886
0.1727634
0.1814562
0.1910744
0.2017563
0.2137084
0.2271725
0.2424568
0.2605018
0.2812251
0.305419
0.3340452
0.3684571
0.1449396
0.1509493
0.1575002
0.1646674
0.1725412
0.18121
0.1907848
0.201432
0.2133428
0.2267573
0.2424466
0.26027
0.2808176
0.3047723
0.3330682
0.5141986
0.5838839
0.4534215
0.5174761
0.5893114
0.4061825
0.4580505
0.5241024
0.6001044
0.369053
0.4114453
0.4650752
0.5341038
0.6164829
0.3389826
0.374358
0.4182708
0.4741931
0.5471236
0.6377794
0.3135653
0.3435411
0.3800878
0.4256749
0.4841447
0.5612057
0.6609999
0.2908693
0.3164344
0.3470991
0.384595
0.4315473
0.4919283
0.5721096
0.6792195
0.2705096
0.2924465
0.3183825
0.3495445
0.3877301
0.4355445
0.497123
0.579516
0.6915121
0.2523497
0.2713091
0.293444
0.3196403
0.3511541
0.3897254
0.4380054
0.5004015
0.5841966
0.6992025
0.2361792
0.2526881
0.2717518
0.294022
0.3203983
0.3520731
0.3907986
0.4393812
0.5022399
0.5868262
0.7090831
0.2217405
0.2362177
0.2527755
0.2719027
0.2942572
0.3206781
0.3523589
0.3911576
0.4398464
0.5028691
0.5912363
0.7158367
0.2087736
0.2215488
0.2360373
0.2526112
0.2717614
0.2940911
0.3204363
0.352069
0.3908031
0.4394018
0.504735
0.5935936
0.7207627
0.1970326
0.208365
0.221121
0.235588
0.2521381
0.2712127
0.2934102
0.319628
0.3510929
0.3895986
0.4396968
0.5050161
0.594595
0.7242553
0.1862894
0.1963818
0.2076652
0.2203642
0.2347644
0.2511928
0.2700854
0.2920896
0.3180583
0.3491941
0.3886694
0.4385105
0.5040522
0.5943584
0.7273062
0.1763531
0.1853652
0.1953786
0.2065698
0.2191599
0.2333938
0.2495926
0.2682311
0.289914
0.3154681
0.3471702
0.3861335
0.4356888
0.5012209
0.5928668
0.7388546
0.167161
0.1752296
0.1841435
0.194042
0.2050977
0.2174956
0.2314748
0.2473875
0.2656696
0.2869007
0.3127079
0.3434764
0.3810321
0.4278477
0.4875448
0.1589148
0.1661831
0.1741723
0.1829943
0.1927859
0.2036894
0.2158862
0.2296446
0.2452875
0.2632346
0.2847064
0.3097701
0.3395913
0.3756582
0.4201267
0.1516114
0.1582069
0.1654247
0.1733563
0.1821121
0.1918037
0.2025719
0.2146266
0.2282139
0.2436481
0.2618868
0.282858
0.3073744
0.3364236
0.3713981
0.1451478
0.1511756
0.1577471
0.1649379
0.172839
0.1815393
0.1911508
0.2018412
0.2138032
0.2272792
0.2430463
0.2609664
0.2816359
0.3057462
0.3342436
0.1394077
0.1449531
0.1509784
0.1575473
0.1647357
0.172616
0.1812785
0.1908603
0.2015158
0.2134364
0.2272696
0.2428447
0.2606164
0.2810885
0.3049333
0.4512017
0.5144026
0.584424
0.4027413
0.4535748
0.5178824
0.5901259
0.3649663
0.4063027
0.458359
0.5247211
0.6012265
0.3347493
0.369151
0.4116897
0.4655492
0.5349594
0.6176767
0.3098606
0.3390652
0.3745595
0.4186506
0.4748545
0.5480324
0.6388796
0.2885168
0.3136368
0.3437125
0.3804032
0.4262076
0.4848479
0.5620343
0.6622621
0.2692168
0.2909301
0.3165778
0.3473579
0.385021
0.4320905
0.4925384
0.5729807
0.6805827
0.2517045
0.2705613
0.2925667
0.3185957
0.349888
0.388156
0.4360042
0.4977439
0.5804068
0.692927
0.2359229
0.252394
0.2714109
0.2936221
0.319922
0.3514956
0.3900828
0.4384684
0.5010275
0.5850972
0.7062211
0.2217405
0.2362177
0.2527755
0.2719027
0.2942572
0.3206781
0.3523589
0.3911576
0.4398464
0.5028691
0.5912363
0.7158367
0.2089734
0.2217742
0.2362935
0.2529051
0.2721021
0.2944909
0.3209123
0.352646
0.3915181
0.4403137
0.5059445
0.5952701
0.7233579
0.1974239
0.2088034
0.2216154
0.23615
0.2527827
0.2719598
0.2942869
0.3206718
0.3523578
0.3911659
0.4416895
0.5075806
0.5980246
0.729338
0.1868979
0.1970592
0.208424
0.22122
0.2357373
0.2523089
0.2713791
0.2936075
0.3198656
0.3513844
0.3913807
0.4418819
0.5082757
0.5997484
0.7346046
0.1772094
0.1863133
0.1964343
0.2077529
0.2204952
0.2349128
0.2513361
0.2702533
0.2922887
0.3182982
0.3506266
0.3904417
0.4411474
0.5081179
0.6010413
0.7435648
0.1681999
0.1763744
0.1854119
0.1954559
0.2066845
0.2192888
0.2335169
0.2497351
0.2683977
0.2901114
0.3166232
0.348576
0.3882267
0.4390201
0.5070929
0.6068797
0.7533161
0.1598237
0.1671796
0.1752702
0.1842102
0.1941403
0.2052072
0.2175985
0.2315917
0.2475216
0.2658249
0.2877865
0.3135683
0.3444519
0.3820748
0.4287416
0.1522751
0.1589313
0.1662189
0.1742309
0.1830802
0.1928809
0.2037775
0.215985
0.2297563
0.2454148
0.2639475
0.2853097
0.3103502
0.3400975
0.3759938
0.1455622
0.1516263
0.158239
0.1654771
0.1734326
0.182196
0.1918809
0.2026578
0.2147226
0.2283221
0.2442465
0.2623649
0.2832875
0.3077219
0.336637
0.1395998
0.1451613
0.1512048
0.1577944
0.1650066
0.1729142
0.1816081
0.1912267
0.2019254
0.2138973
0.2277946
0.2434483
0.2613177
0.2819118
0.3059106
0.134288
0.1394202
0.1449798
0.1510216
0.1576097
0.1648037
0.1726779
0.1813464
0.1909352
0.2015989
0.2138882
0.2276175
0.2431444
0.2608482
0.2812243
0.4010295
0.4513531
0.5148029
0.5852213
0.3622228
0.402859
0.4538757
0.5184825
0.5911997
0.3314156
0.3650614
0.406539
0.4588149
0.5255369
0.6023406
0.3063452
0.3348287
0.3693437
0.4120512
0.4661746
0.5358089
0.6186692
0.2853952
0.3099287
0.3392279
0.3748578
0.4191518
0.4755112
0.5487906
0.6399828
0.2672093
0.2885767
0.3137777
0.3439662
0.3808197
0.4267369
0.4854389
0.5628701
0.6635395
0.2505889
0.2692684
0.29105
0.3167902
0.3476997
0.3854441
0.4325469
0.4931536
0.5738596
0.6819627
0.2353605
0.2517489
0.2706632
0.2927448
0.3188774
0.3502292
0.3885133
0.436467
0.4983689
0.5813041
0.6998794
0.2215151
0.2359614
0.2524815
0.2715619
0.2938573
0.3202019
0.3517816
0.390442
0.4389339
0.5016568
0.5895042
0.713055
0.2089734
0.2217742
0.2362935
0.2529051
0.2721021
0.2944909
0.3209123
0.352646
0.3915181
0.4403137
0.5059445
0.5952701
0.7233579
0.1976022
0.2090031
0.2218407
0.2364061
0.2530764
0.2723003
0.2946864
0.3211474
0.3529343
0.3918802
0.4425971
0.508748
0.5995874
0.7316437
0.1872492
0.1974504
0.2088622
0.2217142
0.236299
0.2529531
0.2721258
0.2944835
0.3209084
0.352648
0.3929396
0.4438029
0.5106565
0.6027797
0.7387506
0.1777588
0.1869217
0.1971117
0.2085116
0.221351
0.2358857
0.252452
0.2715466
0.293806
0.3201046
0.3528112
0.393077
0.4443067
0.5118493
0.6053283
0.7477469
0.1689772
0.1772309
0.1863604
0.1965124
0.2078688
0.2206255
0.2350374
0.2514805
0.2704224
0.2924893
0.3194742
0.3520481
0.3924935
0.4441775
0.5127453
0.609656
0.7553671
0.1607713
0.1682192
0.1764165
0.1854812
0.1955583
0.2067987
0.219397
0.2336409
0.2498787
0.2685657
0.2910793
0.3177798
0.3502593
0.3908255
0.4434037
0.5167717
0.6150957
0.7643426
0.1531077
0.1598407
0.1672164
0.1753304
0.1842985
0.1942381
0.2052985
0.2177014
0.2317085
0.2476555
0.2665797
0.2885087
0.3143726
0.3452927
0.3827753
0.1461726
0.1522902
0.158964
0.1662721
0.1743085
0.1831655
0.1929596
0.2038652
0.2160833
0.2298674
0.2460306
0.2644623
0.2857976
0.3107685
0.340369
0.1399823
0.1455759
0.1516557
0.1582868
0.1655464
0.1735085
0.1822655
0.1919577
0.202743
0.214818
0.2288449
0.2446598
0.2627318
0.2835802
0.3078986
0.1344658
0.1396123
0.1451881
0.1512481
0.1578571
0.1650749
0.1729763
0.1816764
0.191302
0.202009
0.2143518
0.2281459
0.2437522
0.2615535
0.2820504
0.1295368
0.1342995
0.1394448
0.1450195
0.1510787
0.1576718
0.16486
0.1727394
0.1814138
0.1910096
0.2020004
0.2141951
0.2278796
0.2433449
0.2609643
0.3608559
0.401146
0.4516504
0.5153941
0.5862724
0.3291732
0.3623161
0.4030902
0.4543204
0.5192739
0.5922659
0.3035712
0.3314928
0.3652484
0.4068885
0.4594164
0.5263469
0.603265
0.2824275
0.3064108
0.3349847
0.369629
0.4125282
0.4667954
0.5365144
0.6196589
0.2645419
0.2854523
0.3100628
0.3394687
0.3752516
0.4196494
0.4760588
0.5495492
0.6410887
0.2488551
0.2672602
0.2886947
0.3139865
0.3443014
0.3812336
0.4271814
0.4860347
0.5637134
0.6648325
0.2343877
0.2506332
0.2693702
0.2912277
0.3170709
0.3480393
0.3857996
0.4330071
0.493774
0.5747465
0.688757
0.2210205
0.2353991
0.2518365
0.2708144
0.2929802
0.3191572
0.3505153
0.3888728
0.4369328
0.4989982
0.5857009
0.7068811
0.2087736
0.2215488
0.2360373
0.2526112
0.2717614
0.2940911
0.3204363
0.352069
0.3908031
0.4394018
0.504735
0.5935936
0.7207627
0.1976022
0.2090031
0.2218407
0.2364061
0.2530764
0.2723003
0.2946864
0.3211474
0.3529343
0.3918802
0.4425971
0.508748
0.5995874
0.7316437
0.1874093
0.1976287
0.2090619
0.2219394
0.2365549
0.2532467
0.2724661
0.2948827
0.3213835
0.3532238
0.3936495
0.4446773
0.5117421
0.6041737
0.740676
0.178076
0.187273
0.1975028
0.2089496
0.2218449
0.2364471
0.2530958
0.2722927
0.2946811
0.3211461
0.3540665
0.3945778
0.4460868
0.5139495
0.6078259
0.750584
0.1694757
0.1777802
0.1869687
0.1971897
0.2086274
0.2214812
0.23601
0.2525959
0.271715
0.2940057
0.3212742
0.3541691
0.3949593
0.4469629
0.5157074
0.6121959
0.7577623
0.1614798
0.1689966
0.1772733
0.1864304
0.1966158
0.2079841
0.2207349
0.235163
0.251626
0.2705928
0.293473
0.3206413
0.3536937
0.3948496
0.4476199
0.5186876
0.6164164
0.7653711
0.1539753
0.1607889
0.1682574
0.1764791
0.1855731
0.19566
0.2068945
0.219506
0.2337659
0.2500233
0.2693889
0.2920484
0.3191646
0.3523478
0.3942397
0.4506056
0.5224119
0.6217404
0.7730287
0.1469379
0.1531232
0.1598742
0.1672711
0.1754101
0.1843863
0.1943195
0.2053896
0.2178041
0.2318253
0.2483066
0.2671949
0.2891839
0.3150659
0.3458577
0.1405453
0.1461864
0.1523201
0.1590125
0.1663425
0.1743856
0.1832363
0.193038
0.2039525
0.2161811
0.2304048
0.2464751
0.2648785
0.2861493
0.3109928
0.1348198
0.1399949
0.1456029
0.1516994
0.15835
0.1656153
0.1735713
0.1823345
0.1920339
0.2028277
0.2152787
0.2292058
0.244977
0.2629817
0.2837289
0.1297019
0.1344774
0.139637
0.145228
0.1513055
0.1579194
0.1651314
0.1730381
0.1817441
0.1913768
0.2024128
0.2146615
0.2284114
0.2439561
0.2616719
0.1251166
0.1295475
0.1343223
0.1394814
0.1450721
0.1511356
0.1577231
0.1649159
0.1728004
0.1814808
0.1913688
0.202273
0.2144261
0.2280548
0.2434454
0.3280545
0.3609483
0.4013748
0.4520898
0.5161738
0.5873161
0.3017025
0.3292491
0.3624996
0.4034323
0.4549072
0.5200595
0.59315
0.2800818
0.3036351
0.3316446
0.3655251
0.4073496
0.4600135
0.5270185
0.6041851
0.2620021
0.2824826
0.3065399
0.3352158
0.3700054
0.4130018
0.4673108
0.5372172
0.6206459
0.2465488
0.2645905
0.2855649
0.3102615
0.3397867
0.3756426
0.4200643
0.4766064
0.5503084
0.6421974
0.2328749
0.2488989
0.2673605
0.2888697
0.3142624
0.3446345
0.3815812
0.4276296
0.4866355
0.5645642
0.6711984
0.2201646
0.2344262
0.2507207
0.2695211
0.2914626
0.3173499
0.3483246
0.386158
0.4334711
0.4943996
0.5790998
0.6959305
0.2083352
0.2210543
0.2354751
0.2519664
0.2710141
0.2932141
0.3193919
0.3508032
0.3892345
0.4374015
0.5020799
0.5899088
0.7150024
0.1974239
0.2088034
0.2216154
0.23615
0.2527827
0.2719598
0.2942869
0.3206718
0.3523578
0.3911659
0.4416895
0.5075806
0.5980246
0.729338
0.1874093
0.1976287
0.2090619
0.2219394
0.2365549
0.2532467
0.2724661
0.2948827
0.3213835
0.3532238
0.3936495
0.4446773
0.5117421
0.6041737
0.740676
0.1782205
0.187433
0.197681
0.2091491
0.2220699
0.2367028
0.2533892
0.2726326
0.2950798
0.3216206
0.354638
0.3952607
0.4468985
0.5149162
0.6090047
0.7519954
0.1697635
0.1780974
0.1873199
0.1975806
0.2090651
0.2219748
0.2365711
0.2532392
0.2724602
0.2948796
0.322308
0.3553765
0.3963482
0.4485306
0.5174364
0.6139649
0.7596245
0.1619342
0.1694951
0.1778226
0.1870386
0.1972929
0.2087426
0.2215903
0.2361352
0.2527407
0.2718845
0.2949829
0.3223875
0.3556761
0.3970204
0.4498272
0.5204437
0.6179853
0.7667565
0.1546238
0.1614976
0.1690351
0.1773365
0.1865231
0.1967185
0.2080809
0.2208452
0.2352895
0.2517726
0.2714283
0.2944493
0.3219923
0.3555825
0.3975234
0.4520315
0.5233355
0.6225156
0.7736257
0.1477352
0.1539914
0.1608236
0.1683142
0.176562
0.1856644
0.1957455
0.206991
0.2196158
0.2338918
0.2507324
0.2702132
0.2932087
0.3208821
0.3550885
0.3998361
0.4547804
0.5269669
0.6272524
0.7799059
0.1412512
0.1469522
0.1531538
0.159924
0.1673434
0.1754894
0.1844594
0.1944009
0.2054807
0.2179068
0.2323928
0.2488372
0.26777
0.2897658
0.3155317
0.1353408
0.1405581
0.1462138
0.1523644
0.1590767
0.1664125
0.1744496
0.1833067
0.1931159
0.2040392
0.2166544
0.2307927
0.2468345
0.2651785
0.2863379
0.1300303
0.1348314
0.1400198
0.1456431
0.1517573
0.1584129
0.1656724
0.1736337
0.1824031
0.1921096
0.2032368
0.2155966
0.2294827
0.245193
0.2631087
0.1252701
0.1297126
0.1345002
0.1396738
0.1452807
0.1513626
0.157971
0.1651875
0.1730994
0.1818114
0.1917379
0.2026878
0.2148955
0.2285896
0.2440586
0.1209945
0.1251265
0.1295686
0.1343561
0.1395299
0.1451244
0.1511826
0.1577741
0.1649713
0.1728609
0.1818039
0.1916125
0.2024782
0.2145805
0.2281426
0.3007691
0.3281297
0.3611301
0.4017133
0.4526695
0.5169479
0.5881815
0.2784995
0.3017654
0.3293983
0.3627711
0.4038836
0.4554897
0.5207107
0.5940296
0.2599917
0.2801356
0.303761
0.3318694
0.3658904
0.4078074
0.4605084
0.5276866
0.6051009
0.2443499
0.2620491
0.2825912
0.3067311
0.3355209
0.3703793
0.4133948
0.4678241
0.5379174
0.6216299
0.2308606
0.2465907
0.2646865
0.2857318
0.310524
0.3401026
0.3759685
0.4204791
0.4771542
0.5510681
0.6476038
0.218833
0.232913
0.2489852
0.2675093
0.2891009
0.3145365
0.3449142
0.3819315
0.4280813
0.4872412
0.5687402
0.6780144
0.2075763
0.2201984
0.2345023
0.2508505
0.2697206
0.291696
0.3175842
0.3486121
0.3865193
0.4339389
0.4974689
0.5834495
0.704633
0.1970326
0.208365
0.221121
0.235588
0.2521381
0.2712127
0.2934102
0.319628
0.3510929
0.3895986
0.4396968
0.5050161
0.594595
0.7242553
0.1872492
0.1974504
0.2088622
0.2217142
0.236299
0.2529531
0.2721258
0.2944835
0.3209084
0.352648
0.3929396
0.4438029
0.5106565
0.6027797
0.7387506
0.1782205
0.187433
0.197681
0.2091491
0.2220699
0.2367028
0.2533892
0.2726326
0.2950798
0.3216206
0.354638
0.3952607
0.4468985
0.5149162
0.6090047
0.7519954
0.1698946
0.1782419
0.1874799
0.1977586
0.2092645
0.2221997
0.2368266
0.2535322
0.2727997
0.2952777
0.3227786
0.3559258
0.3969815
0.4492525
0.5182537
0.6148596
0.7606123
0.1621965
0.1697829
0.1781397
0.1873896
0.1976835
0.20918
0.2220836
0.2366956
0.2533832
0.2726286
0.2958497
0.323381
0.3567923
0.3982423
0.4511165
0.5216704
0.619228
0.7679367
0.1550396
0.1619519
0.1695335
0.1778856
0.1871311
0.1973955
0.2088391
0.2217001
0.236261
0.2528864
0.2727137
0.295913
0.3236229
0.3573257
0.3992416
0.4533391
0.5244331
0.623549
0.774476
0.1483309
0.15464
0.1615326
0.1690923
0.17742
0.1866153
0.1968048
0.2081785
0.2209562
0.235417
0.2524913
0.2722575
0.2955793
0.3235425
0.3577243
0.4009451
0.455472
0.5275239
0.6278039
0.7803059
0.1419862
0.1477499
0.1540231
0.1608753
0.1683893
0.1766444
0.1857411
0.1958316
0.2070882
0.2197264
0.2345091
0.2514423
0.2712001
0.2946472
0.3231338
0.359573
0.4030682
0.458143
0.5307403
0.6317927
0.7852733
0.1359937
0.1412643
0.1469803
0.1531994
0.1599899
0.1674153
0.1755555
0.1845325
0.1944822
0.2055717
0.218406
0.2328552
0.2493331
0.2682657
0.2901568
0.1305137
0.1353526
0.1405834
0.1462546
0.1524232
0.1591405
0.1664706
0.1745132
0.1833767
0.1931934
0.2044591