/*--------------------------------*- C++ -*----------------------------------*\
| =========                 |                                                 |
| \\      /  F ield         | OpenFOAM: The Open Source CFD Toolbox           |
|  \\    /   O peration     | Version:  2306                                  |
|   \\  /    A nd           | Website:  www.openfoam.com                      |
|    \\/     M anipulation  |                                                 |
\*---------------------------------------------------------------------------*/
FoamFile
{
    version     2.0;
    format      ascii;
    arch        "LSB;label=32;scalar=64";
    class       volScalarField;
    location    "0.6/fuel";
    object      H2O;
}
// * * * * * * * * * * * * * * * * * * * * * * * * * * * * * * * * * * * * * //

dimensions      [0 0 0 0 0 0 0];

internalField   nonuniform List<scalar> 
16000
(
0.4164398
0.4115697
0.4858462
0.4161641
0.4016647
0.4827756
0.411288
0.5488387
0.4856421
0.415624
0.3866108
0.4765743
0.4013703
0.5466189
0.4825684
0.4107362
0.5990067
0.5486873
0.4852419
0.4148266
0.3669406
0.467252
0.3862953
0.5421468
0.4763607
0.4007936
0.5972949
0.5464656
0.4821622
0.4099217
0.6391765
0.5988902
0.54839
0.4846506
0.4137754
0.3455356
0.4552378
0.3665929
0.5354489
0.467028
0.3856773
0.5938536
0.5419897
0.4759418
0.3999425
0.6378096
0.5971772
0.5461647
0.481562
0.4088478
0.6719744
0.6390841
0.5986614
0.5479506
0.4838709
0.4127317
0.3290928
0.4423331
0.3451459
0.5268596
0.4549982
0.3659119
0.5887151
0.5352855
0.4665887
0.3847653
0.635066
0.5937334
0.5416812
0.4753231
0.3988203
0.6708557
0.6377163
0.596946
0.5457199
0.4807706
0.4077815
0.6992568
0.6718992
0.6389023
0.5983229
0.5473709
0.4830967
0.4118662
0.3184688
0.4324373
0.3286771
0.5176863
0.4420738
0.3443825
0.5821525
0.5266869
0.4545285
0.3649068
0.6309794
0.5885907
0.5349647
0.4659398
0.3835629
0.6686134
0.6349709
0.5934971
0.5412252
0.4745072
0.3977061
0.6983235
0.6707799
0.6375328
0.5966039
0.5451331
0.4799849
0.4068973
0.7223147
0.6991944
0.6717512
0.6386333
0.5978762
0.5467954
0.4824551
0.4110052
0.3123668
0.4259983
0.3180388
0.5106854
0.4321672
0.3278628
0.5751758
0.5175016
0.4415651
0.3432551
0.6257768
0.5820218
0.5263478
0.4538345
0.3635812
0.6652797
0.6308814
0.5883463
0.5344907
0.4650842
0.3823689
0.6964548
0.6685362
0.6347839
0.5931476
0.5406238
0.4736972
0.3967816
0.7215238
0.6982606
0.6706306
0.6372613
0.5961526
0.5445506
0.4793337
0.4060177
0.7420657
0.722262
0.6990714
0.6715321
0.6382782
0.5974327
0.5463186
0.4818172
0.4101489
0.3096086
0.4222589
0.3119291
0.50614
0.425723
0.3171969
0.5698716
0.5104947
0.4316372
0.3266607
0.6202659
0.5750371
0.5171389
0.4408134
0.3417677
0.6610465
0.6256744
0.5817651
0.5258464
0.4529192
0.3622647
0.6936808
0.6652004
0.6306886
0.5879848
0.5338653
0.4642346
0.3813764
0.7199415
0.6963909
0.6683844
0.6345072
0.5926865
0.5400266
0.4730255
0.3958615
0.7413866
0.7214707
0.6981367
0.6704097
0.6369029
0.5957044
0.544068
0.4786861
0.4051427
0.7591786
0.7420206
0.7221582
0.6988893
0.6712428
0.6379256
0.5970654
0.5458447
0.481183
0.4092973
0.3096086
0.4205524
0.3091675
0.5035008
0.4219809
0.3110725
0.5664351
0.5059468
0.4251829
0.3159543
0.6160884
0.5697292
0.5101204
0.4308542
0.3250745
0.656575
0.6201576
0.5747643
0.5166024
0.4398215
0.3402893
0.6901656
0.6609638
0.6254728
0.5813853
0.525185
0.4520103
0.3611643
0.7175959
0.6936153
0.6650443
0.6304034
0.5875078
0.5332444
0.4635291
0.3803865
0.7400292
0.7198877
0.696265
0.6681596
0.634142
0.5922287
0.5395317
0.4723574
0.3949456
0.7585891
0.7413413
0.7213662
0.6979532
0.6701179
0.6365471
0.5953332
0.5435883
0.4780422
0.4042724
0.7741522
0.7591396
0.7419318
0.7220044
0.6986489
0.6709554
0.6376337
0.5967004
0.5453737
0.4805525
0.4051773
0.3123668
0.4205524
0.3091675
0.5022959
0.4202733
0.3083044
0.5644415
0.5033066
0.4214358
0.3098084
0.6133865
0.5662914
0.5055676
0.424385
0.3143151
0.6531935
0.6159776
0.5694492
0.5095667
0.429821
0.323498
0.6864609
0.656488
0.6199445
0.5743608
0.5158945
0.4388361
0.3390421
0.7146283
0.6900974
0.6608012
0.6251745
0.5808841
0.5245282
0.4512521
0.3600611
0.7380189
0.7175407
0.6934862
0.6648132
0.6300269
0.5870342
0.532729
0.4628262
0.3793995
0.7574114
0.7399832
0.7197817
0.6960786
0.6678628
0.6337793
0.5918493
0.5390395
0.4716927
0.3940343
0.7736356
0.7585499
0.7412519
0.7212113
0.6977109
0.6698282
0.6362524
0.5949644
0.5431115
0.4774021
0.400062
0.7873661
0.7741182
0.7590627
0.7418001
0.7218012
0.69841
0.6707175
0.6373436
0.5963378
0.5449057
0.4775035
0.4023437
0.3184688
0.4222589
0.3119291
0.5022959
0.4202733
0.3083044
0.5635315
0.5021012
0.4197261
0.3070307
0.6118201
0.5642972
0.5029252
0.4206306
0.3081409
0.6510094
0.6132749
0.5660088
0.5050069
0.4233323
0.3126859
0.6836646
0.6531047
0.6157597
0.569035
0.5088361
0.4287947
0.3221675
0.7115067
0.6863894
0.6563166
0.6196291
0.573828
0.5151912
0.4380075
0.3377798
0.7354792
0.7145712
0.6899633
0.6605604
0.6247808
0.5803864
0.5239807
0.4504934
0.3589551
0.7556689
0.7379719
0.7174322
0.693295
0.6645081
0.6296531
0.5866412
0.5322158
0.462126
0.3784154
0.772604
0.7573717
0.7398926
0.7196245
0.6958325
0.667568
0.6334788
0.5914722
0.5385502
0.4710317
0.3896227
0.7869096
0.7736013
0.7584725
0.7411193
0.7210067
0.6974702
0.6695883
0.6359596
0.5945979
0.5426376
0.4743066
0.3971529
0.7991144
0.7873361
0.774051
0.7589487
0.7416261
0.7215994
0.6982122
0.6704812
0.6370555
0.5959776
0.5426432
0.4754134
0.4001963
0.3290928
0.4259983
0.3180388
0.5035008
0.4219809
0.3110725
0.5635315
0.5021012
0.4197261
0.3070307
0.6111053
0.563387
0.501719
0.4189178
0.3053506
0.6497442
0.6117084
0.5640137
0.5023614
0.4195684
0.3064837
0.6818607
0.6509202
0.6130556
0.5655908
0.504267
0.4222867
0.3113136
0.7091543
0.6835919
0.65293
0.6154372
0.5684882
0.5081104
0.4279314
0.3208207
0.7328119
0.7114469
0.6862485
0.6560629
0.6192125
0.5732988
0.5146002
0.4371716
0.3365023
0.7534702
0.7354305
0.7144586
0.6897646
0.6602424
0.6243897
0.5799716
0.523433
0.4497342
0.3578463
0.7710789
0.7556283
0.7378792
0.7172713
0.6930425
0.6642051
0.6293429
0.5862499
0.5317046
0.4614284
0.3736426
0.7859985
0.7725694
0.7572934
0.7397582
0.7194169
0.695588
0.6673239
0.6331802
0.5910973
0.5380636
0.4678337
0.3865232
0.798708
0.7868794
0.7735337
0.7583578
0.7409442
0.7208035
0.6972709
0.66935
0.6356688
0.5942338
0.5403469
0.472177
0.3949376
0.8096284
0.7990877
0.7872769
0.7739513
0.758798
0.7414533
0.7214323
0.6980158
0.6702465
0.6367693
0.5942366
0.541096
0.4738326
0.3987533
0.3455356
0.4324373
0.3286771
0.50614
0.425723
0.3171969
0.5644415
0.5033066
0.4214358
0.3098084
0.6111053
0.563387
0.501719
0.4189178
0.3053506
0.6491669
0.6109934
0.5631031
0.5011539
0.4178514
0.303681
0.6808162
0.6496549
0.6114885
0.5635942
0.5016174
0.4185134
0.30509
0.7076381
0.6817876
0.6507446
0.6127308
0.565039
0.5035321
0.4214087
0.3099273
0.7308044
0.7090935
0.6834485
0.6526712
0.6150112
0.567945
0.5075003
0.4270603
0.3194574
0.7511639
0.732761
0.7113288
0.6860397
0.6557277
0.6187987
0.5728542
0.5140043
0.4363283
0.3352092
0.7691564
0.7534282
0.7353346
0.7142917
0.6895021
0.6599265
0.6240638
0.5795568
0.5228852
0.4489745
0.3524395
0.7846523
0.7710435
0.7555483
0.7377419
0.7170587
0.6927917
0.6639538
0.6290341
0.5858603
0.5311957
0.4580485
0.3701016
0.7978974
0.7859679
0.7725009
0.7571772
0.7395808
0.7192107
0.6953855
0.6670813
0.6328834
0.5907247
0.5357106
0.4656041
0.3841182
0.8092644
0.7986812
0.7868198
0.7734335
0.7582062
0.7407702
0.7206352
0.697073
0.6691133
0.6353798
0.5924739
0.5387751
0.4705602
0.3934423
0.8190932
0.8096046
0.7990351
0.7871889
0.7738194
0.7586483
0.7413102
0.7212664
0.6978208
0.6700135
0.6353866
0.5930479
0.5399271
0.4727719
0.3980283
0.3669406
0.4423331
0.3451459
0.5106854
0.4321672
0.3278628
0.5664351
0.5059468
0.4251829
0.3159543
0.6118201
0.5642972
0.5029252
0.4206306
0.3081409
0.6491669
0.6109934
0.5631031
0.5011539
0.4178514
0.303681
0.6803398
0.6490775
0.6107735
0.562683
0.5004083
0.4167923
0.3022779
0.7067607
0.6807431
0.6494791
0.6111631
0.5630405
0.5008785
0.4176286
0.3036842
0.7295117
0.7075772
0.6816437
0.6504846
0.6123021
0.5644909
0.5029154
0.4205243
0.3085267
0.7494302
0.7307528
0.7089736
0.683236
0.6523294
0.6145881
0.5674886
0.5068851
0.4261813
0.3180773
0.7671422
0.7511202
0.7326607
0.7111539
0.6857638
0.6553947
0.6184511
0.5724061
0.5134036
0.4354774
0.3288428
0.7829569
0.7691199
0.7533455
0.7351925
0.7140712
0.6892414
0.6596633
0.623738
0.579142
0.5223374
0.4452764
0.3478162
0.7967004
0.7846212
0.7709737
0.7554297
0.7375604
0.7168475
0.6925837
0.6637036
0.6287268
0.5854725
0.5287306
0.4555841
0.3671753
0.8085385
0.7978703
0.7859077
0.7723995
0.7570236
0.7394044
0.7190399
0.6951842
0.6668401
0.6325885
0.588923
0.534075
0.4638853
0.3824645
0.8187653
0.8092405
0.7986283
0.7867314
0.7733009
0.7580555
0.7406262
0.7204681
0.6968764
0.6688782
0.6339837
0.5912684
0.5375832
0.4694714
0.3926883
0.8276581
0.8190718
0.8095575
0.7989569
0.7870726
0.7736884
0.7585243
0.7411681
0.7211017
0.6976271
0.6688875
0.6344438
0.5921508
0.5391436
0.4722395
0.3866108
0.4552378
0.3665929
0.5176863
0.4420738
0.3443825
0.5698716
0.5104947
0.4316372
0.3266607
0.6133865
0.5662914
0.5055676
0.424385
0.3143151
0.6497442
0.6117084
0.5640137
0.5023614
0.4195684
0.3064837
0.6803398
0.6490775
0.6107735
0.562683
0.5004083
0.4167923
0.3022779
0.7063606
0.6802667
0.6489017
0.6104479
0.5621287
0.4996677
0.4159047
0.3008635
0.7287639
0.7066998
0.6805992
0.6492188
0.6107335
0.5624906
0.5002593
0.4167386
0.302266
0.7483146
0.72946
0.707457
0.6814305
0.6501411
0.6118761
0.5640311
0.5022945
0.4196335
0.3071117
0.7656295
0.7493859
0.730651
0.7087959
0.6829553
0.6519898
0.6142326
0.5670284
0.5062647
0.4252944
0.3112825
0.7811824
0.7671041
0.7510338
0.7325119
0.7109227
0.6854897
0.6551149
0.6181008
0.5719543
0.5127978
0.4313012
0.3220263
0.795194
0.7829248
0.7690478
0.7532229
0.7350046
0.7138522
0.6890242
0.6594002
0.6234123
0.5787272
0.5196718
0.4422305
0.3433175
0.8074672
0.7966728
0.7845598
0.7708702
0.7552729
0.7373801
0.7166724
0.6923766
0.6634546
0.6284209
0.5835946
0.5269405
0.4535811
0.3650235
0.8181116
0.8085143
0.7978168
0.7858183
0.7722653
0.756871
0.7392584
0.7188702
0.6949843
0.6666006
0.6311626
0.5876729
0.5328163
0.4627104
0.3816188
0.8273611
0.8187438
0.8091932
0.7985498
0.7866145
0.7731691
0.7579308
0.7404832
0.7203022
0.6966812
0.6677423
0.6330286
0.5903551
0.5367815
0.4689234
0.8354451
0.8276387
0.8190295
0.8094877
0.7988536
0.7869571
0.77358
0.7584013
0.7410271
0.7209381
0.6966917
0.6681204
0.6337325
0.5915497
0.5387505
0.4016647
0.467252
0.3862953
0.5268596
0.4549982
0.3659119
0.5751758
0.5175016
0.4415651
0.3432551
0.6160884
0.5697292
0.5101204
0.4308542
0.3250745
0.6510094
0.6132749
0.5660088
0.5050069
0.4233323
0.3126859
0.6808162
0.6496549
0.6114885
0.5635942
0.5016174
0.4185134
0.30509
0.7063606
0.6802667
0.6489017
0.6104479
0.5621287
0.4996677
0.4159047
0.3008635
0.7284229
0.7062996
0.6801228
0.6486414
0.610018
0.5615781
0.4990475
0.4150124
0.2994377
0.7476695
0.7287122
0.7065796
0.6803859
0.648875
0.6103068
0.5620299
0.4996367
0.4158433
0.3008354
0.7646567
0.7482702
0.7293581
0.7072789
0.6811489
0.6497999
0.6115189
0.5635684
0.5016694
0.4187361
0.3001587
0.7798508
0.765591
0.7492984
0.7305001
0.7085611
0.6826764
0.6517046
0.6138742
0.5665644
0.505639
0.4209408
0.3041083
0.7936187
0.7811489
0.767029
0.7509057
0.7323152
0.7106929
0.6852594
0.6548331
0.6177477
0.5714989
0.5098261
0.4270819
0.3134334
0.80612
0.7951656
0.7828615
0.768941
0.7530608
0.7348178
0.7136697
0.688807
0.6591372
0.6230866
0.5767099
0.5174892
0.4393654
0.3392969
0.8171472
0.8074426
0.7966183
0.7844686
0.7707333
0.7551171
0.7372305
0.7164981
0.6921706
0.6632068
0.62694
0.5822334
0.5254895
0.452131
0.3638536
0.8267694
0.8180898
0.8084666
0.7977374
0.7857
0.772132
0.7567447
0.7391133
0.7187017
0.6947857
0.6654426
0.6301745
0.5867117
0.5319571
0.462112
0.835175
0.8273417
0.8187012
0.809123
0.7984459
0.7864983
0.7730601
0.757807
0.7403412
0.7201374
0.6957382
0.666966
0.6323055
0.5897411
0.5363781
0.842555
0.8354275
0.8276004
0.8189666
0.8093952
0.7987508
0.7868614
0.7734724
0.7582791
0.740887
0.7201481
0.6960549
0.6675421
0.6332563
0.5912482
0.4115697
0.4765743
0.4013703
0.5354489
0.467028
0.3856773
0.5821525
0.5266869
0.4545285
0.3649068
0.6202659
0.5750371
0.5171389
0.4408134
0.3417677
0.6531935
0.6159776
0.5694492
0.5095667
0.429821
0.323498
0.6818607
0.6509202
0.6130556
0.5655908
0.504267
0.4222867
0.3113136
0.7067607
0.6807431
0.6494791
0.6111631
0.5630405
0.5008785
0.4176286
0.3036842
0.7284229
0.7062996
0.6801228
0.6486414
0.610018
0.5615781
0.4990475
0.4150124
0.2994377
0.7473754
0.7283713
0.7061796
0.6799096
0.6482976
0.609591
0.5611171
0.4984243
0.4141154
0.2980005
0.7640944
0.7476251
0.7286104
0.7064016
0.6801043
0.6485335
0.6099493
0.5615668
0.4990107
0.4149427
0.2938162
0.7789949
0.7646182
0.7481826
0.7292069
0.7070435
0.680869
0.6495138
0.6111594
0.5631026
0.5010402
0.4143391
0.2931564
0.7924375
0.779817
0.7655149
0.7491686
0.7303006
0.7083277
0.6824421
0.651417
0.6135129
0.5660966
0.5025696
0.4165908
0.295405
0.8047121
0.7935891
0.781083
0.7669175
0.7507363
0.7321197
0.7105
0.6850275
0.654549
0.6173918
0.5692654
0.5068446
0.4219937
0.3022809
0.8159351
0.8060946
0.7951094
0.7827675
0.7687997
0.7528997
0.7346623
0.7134873
0.68859
0.6588743
0.6215028
0.575061
0.5154452
0.4368819
0.3365146
0.8258967
0.8171251
0.807394
0.7965375
0.7843481
0.7705973
0.7549879
0.7370817
0.7163247
0.6919656
0.6620073
0.6258678
0.5811312
0.5244416
0.4513521
0.8346368
0.8267497
0.8180469
0.8083956
0.7976324
0.7855825
0.7720216
0.7566192
0.7389691
0.7185342
0.6938257
0.6646409
0.6294152
0.586056
0.5315199
0.8423083
0.8351573
0.8273032
0.8186381
0.8090301
0.7983426
0.7864021
0.7729518
0.7576841
0.7402002
0.7193415
0.6950942
0.6663785
0.6318195
0.5894324
0.8490718
0.842539
0.8353927
0.8275436
0.8188834
0.8093033
0.7986658
0.7867665
0.7733655
0.7581578
0.7402107
0.7196107
0.695575
0.667155
0.6330174
0.4164398
0.4827756
0.411288
0.5421468
0.4763607
0.4007936
0.5887151
0.5352855
0.4665887
0.3847653
0.6257768
0.5820218
0.5263478
0.4538345
0.3635812
0.656575
0.6201576
0.5747643
0.5166024
0.4398215
0.3402893
0.6836646
0.6531047
0.6157597
0.569035
0.5088361
0.4287947
0.3221675
0.7076381
0.6817876
0.6507446
0.6127308
0.565039
0.5035321
0.4214087
0.3099273
0.7287639
0.7066998
0.6805992
0.6492188
0.6107335
0.5624906
0.5002593
0.4167386
0.302266
0.7473754
0.7283713
0.7061796
0.6799096
0.6482976
0.609591
0.5611171
0.4984243
0.4141154
0.2980005
0.763838
0.7473311
0.7282695
0.7060016
0.6796279
0.647956
0.6092336
0.560654
0.4977981
0.4132135
0.2909538
0.7785004
0.7640559
0.7475377
0.7284594
0.7061663
0.6798244
0.6482475
0.6095901
0.5611014
0.4983813
0.4105354
0.2869817
0.7916787
0.7789612
0.7645421
0.7480527
0.7290072
0.7068096
0.6806343
0.6492259
0.6107977
0.5626338
0.4979584
0.4101309
0.2850344
0.8036572
0.7924076
0.7797503
0.7654021
0.748997
0.7301024
0.7081316
0.682206
0.6511272
0.6131488
0.5638023
0.4995198
0.4115291
0.284995
0.8146695
0.8046858
0.7935307
0.780985
0.76677
0.7505679
0.7319555
0.7103055
0.6847937
0.6542627
0.6156467
0.5670276
0.5032688
0.4156245
0.2870384
0.8248006
0.8159124
0.8060446
0.7950262
0.7826432
0.7686592
0.7527655
0.7345069
0.713305
0.6883731
0.6575959
0.6202097
0.5735185
0.5136806
0.4352071
0.8338435
0.8258768
0.8170814
0.8073218
0.7964305
0.7842283
0.7704845
0.7548593
0.7369337
0.7161522
0.6909733
0.6611397
0.6250002
0.5803357
0.5238796
0.8418169
0.834619
0.8267109
0.8179831
0.8083017
0.797528
0.7854852
0.7719119
0.7564945
0.738826
0.7177249
0.6931616
0.6640252
0.6288975
0.5857225
0.8488456
0.8422922
0.8351224
0.8272461
0.8185545
0.8089377
0.7982572
0.7863067
0.7728443
0.757562
0.7395191
0.7187983
0.694607
0.6659838
0.6315752
0.855066
0.8490572
0.8425073
0.8353411
0.8274683
0.8188007
0.8092272
0.7985814
0.7866722
0.7732595
0.7575721
0.7397509
0.7192058
0.6952538
0.6669609
0.4858462
0.4161641
0.5466189
0.4825684
0.4107362
0.5938536
0.5419897
0.4759418
0.3999425
0.6309794
0.5885907
0.5349647
0.4659398
0.3835629
0.6610465
0.6256744
0.5817651
0.5258464
0.4529192
0.3622647
0.6864609
0.656488
0.6199445
0.5743608
0.5158945
0.4388361
0.3390421
0.7091543
0.6835919
0.65293
0.6154372
0.5684882
0.5081104
0.4279314
0.3208207
0.7295117
0.7075772
0.6816437
0.6504846
0.6123021
0.5644909
0.5029154
0.4205243
0.3085267
0.7476695
0.7287122
0.7065796
0.6803859
0.648875
0.6103068
0.5620299
0.4996367
0.4158433
0.3008354
0.763838
0.7473311
0.7282695
0.7060016
0.6796279
0.647956
0.6092336
0.560654
0.4977981
0.4132135
0.2909538
0.778275
0.7637996
0.7472437
0.7281187
0.7057665
0.6793481
0.6476702
0.6088746
0.5601888
0.497169
0.4088032
0.2841997
0.7912403
0.7784666
0.7639799
0.747408
0.7282599
0.7059326
0.67959
0.6479601
0.6092291
0.5606335
0.4953031
0.4064458
0.2792734
0.8029798
0.7916488
0.7788945
0.7644292
0.747881
0.7288086
0.7066135
0.6803982
0.6489362
0.6104336
0.5603386
0.495022
0.4054443
0.2757807
0.8137216
0.8036306
0.7923486
0.7796512
0.7652528
0.7488264
0.7299358
0.7079341
0.681968
0.650835
0.6113629
0.5615249
0.495986
0.4056811
0.2727298
0.8236567
0.8146458
0.8046337
0.793444
0.7808554
0.7666234
0.7504265
0.7317901
0.7101096
0.6845581
0.6528589
0.6138988
0.5643467
0.4988176
0.4071731
0.2611801
0.8328476
0.8247801
0.8158675
0.8059702
0.794916
0.7825197
0.7685422
0.7526314
0.7343515
0.7131228
0.6873182
0.6565527
0.6190003
0.572188
0.5124943
0.8410927
0.8338254
0.8258373
0.8170165
0.8072263
0.7963242
0.784129
0.7703723
0.7547314
0.7367864
0.715317
0.6902561
0.6604378
0.6243741
0.5799092
0.8483951
0.8418006
0.8345837
0.8266533
0.8178987
0.8082084
0.7974416
0.7853885
0.771803
0.7563707
0.7381342
0.7171654
0.6926517
0.6636055
0.6286342
0.8548579
0.8488309
0.8422604
0.8350705
0.8271706
0.8184714
0.8088613
0.7981723
0.7862119
0.7727376
0.7569725
0.7390546
0.7183874
0.6942798
0.6657855
0.8605971
0.8550525
0.8490281
0.8424601
0.8352727
0.8273935
0.8187323
0.8091517
0.7984977
0.7865787
0.7727473
0.7571741
0.7394045
0.7189348
0.6950928
0.5488387
0.4856421
0.415624
0.5972949
0.5464656
0.4821622
0.4099217
0.635066
0.5937334
0.5416812
0.4753231
0.3988203
0.6652797
0.6308814
0.5883463
0.5344907
0.4650842
0.3823689
0.6901656
0.6609638
0.6254728
0.5813853
0.525185
0.4520103
0.3611643
0.7115067
0.6863894
0.6563166
0.6196291
0.573828
0.5151912
0.4380075
0.3377798
0.7308044
0.7090935
0.6834485
0.6526712
0.6150112
0.567945
0.5075003
0.4270603
0.3194574
0.7483146
0.72946
0.707457
0.6814305
0.6501411
0.6118761
0.5640311
0.5022945
0.4196335
0.3071117
0.7640944
0.7476251
0.7286104
0.7064016
0.6801043
0.6485335
0.6099493
0.5615668
0.4990107
0.4149427
0.2938162
0.778275
0.7637996
0.7472437
0.7281187
0.7057665
0.6793481
0.6476702
0.6088746
0.5601888
0.497169
0.4088032
0.2841997
0.7910405
0.7782413
0.7637237
0.7471141
0.7279192
0.7055328
0.679114
0.6473831
0.608514
0.5597216
0.4940934
0.404769
0.2766778
0.8025885
0.7912105
0.7784001
0.7638673
0.7472365
0.7280615
0.7057368
0.6793545
0.6476713
0.6088663
0.5583457
0.4924573
0.4020144
0.2706973
0.8131132
0.8029532
0.7915899
0.7787955
0.76428
0.7477103
0.7286422
0.7064162
0.6801607
0.6486447
0.6086515
0.5581534
0.4917622
0.4002905
0.2654303
0.8228005
0.8136978
0.8035781
0.792261
0.7795202
0.7651044
0.7486831
0.729768
0.707735
0.6817281
0.6494026
0.6095905
0.5588879
0.4919201
0.3989977
0.2564691
0.8318087
0.8236354
0.8145991
0.8045564
0.7933293
0.7807266
0.7665002
0.750284
0.7316235
0.7099122
0.6834031
0.6514532
0.6118056
0.5610154
0.4929454
0.3931588
0.2467163
0.8401838
0.832829
0.8247395
0.8158007
0.8058719
0.7948065
0.7824168
0.7684253
0.7524974
0.7341963
0.712237
0.686458
0.6555773
0.6179576
0.5712941
0.8477315
0.8410762
0.8337896
0.8257787
0.8169307
0.8071313
0.7962361
0.7840302
0.7702607
0.7546041
0.7360735
0.7147138
0.689676
0.6599316
0.6240385
0.8544435
0.8483803
0.8417685
0.8345314
0.826577
0.8178148
0.8081312
0.7973558
0.7852925
0.7716948
0.7557723
0.7376561
0.7167359
0.6923042
0.663392
0.860405
0.8548443
0.8488017
0.842213
0.8350019
0.8270954
0.8184027
0.8087854
0.7980881
0.7861178
0.7722222
0.7565705
0.7387033
0.7181116
0.6941154
0.8657161
0.8605847
0.8550258
0.8489849
0.8423977
0.8352047
0.8273316
0.8186643
0.8090768
0.7984145
0.7861269
0.7723993
0.7568744
0.7391728
0.718799
0.5990067
0.5486873
0.4852419
0.4148266
0.6378096
0.5971772
0.5461647
0.481562
0.4088478
0.6686134
0.6349709
0.5934971
0.5412252
0.4745072
0.3977061
0.6936808
0.6652004
0.6306886
0.5879848
0.5338653
0.4642346
0.3813764
0.7146283
0.6900974
0.6608012
0.6251745
0.5808841
0.5245282
0.4512521
0.3600611
0.7328119
0.7114469
0.6862485
0.6560629
0.6192125
0.5732988
0.5146002
0.4371716
0.3365023
0.7494302
0.7307528
0.7089736
0.683236
0.6523294
0.6145881
0.5674886
0.5068851
0.4261813
0.3180773
0.7646567
0.7482702
0.7293581
0.7072789
0.6811489
0.6497999
0.6115189
0.5635684
0.5016694
0.4187361
0.3001587
0.7785004
0.7640559
0.7475377
0.7284594
0.7061663
0.6798244
0.6482475
0.6095901
0.5611014
0.4983813
0.4105354
0.2869817
0.7910405
0.7782413
0.7637237
0.7471141
0.7279192
0.7055328
0.679114
0.6473831
0.608514
0.5597216
0.4940934
0.404769
0.2766778
0.8024103
0.7910108
0.7781748
0.7636112
0.7469428
0.7277211
0.7053373
0.6788788
0.6470948
0.6081519
0.5574381
0.4912898
0.4004514
0.2683911
0.8127619
0.802562
0.7911517
0.7783013
0.7637183
0.7470661
0.7278955
0.7055402
0.6791179
0.6473811
0.6070926
0.5562322
0.4893813
0.3972589
0.2612837
0.8222511
0.8130894
0.8029007
0.7915023
0.7786645
0.7641316
0.7475672
0.7284747
0.7062177
0.6799217
0.647218
0.6069552
0.5557285
0.4881885
0.3947102
0.2522864
0.8310316
0.822779
0.8136507
0.8035
0.7921451
0.77939
0.7649798
0.7485387
0.7295989
0.7075344
0.6805521
0.6479811
0.6075388
0.5558578
0.4872926
0.3903822
0.2446649
0.8392364
0.8317894
0.8235933
0.8145298
0.8044541
0.7932151
0.7806184
0.7663762
0.7501404
0.7314556
0.7089444
0.6822465
0.64977
0.6092069
0.5566317
0.4832659
0.3849416
0.2356879
0.846899
0.8401669
0.8327922
0.8246793
0.8157124
0.8057741
0.7947152
0.7823139
0.7683085
0.7523635
0.7334415
0.7115148
0.6856536
0.6547364
0.617257
0.8538332
0.8477164
0.8410435
0.8337364
0.8257012
0.8168453
0.8070525
0.7961484
0.7839319
0.7701496
0.7539883
0.7355588
0.7142259
0.6892576
0.6596601
0.8600226
0.8544298
0.8483508
0.8417207
0.8344621
0.8265011
0.8177453
0.8080544
0.7972705
0.7851972
0.771172
0.755359
0.7372892
0.7164433
0.6921275
0.8655383
0.8603925
0.8548175
0.8487584
0.8421504
0.8349336
0.8270332
0.8183344
0.8087101
0.7980045
0.7856633
0.7718709
0.7562667
0.7384675
0.717973
0.8704666
0.8657046
0.86056
0.8549861
0.8489278
0.8423357
0.8351484
0.8272702
0.8185969
0.8090024
0.7980131
0.78582
0.7721373
0.7566739
0.7390567
0.6391765
0.5988902
0.54839
0.4846506
0.4137754
0.6708557
0.6377163
0.596946
0.5457199
0.4807706
0.4077815
0.6964548
0.6685362
0.6347839
0.5931476
0.5406238
0.4736972
0.3967816
0.7175959
0.6936153
0.6650443
0.6304034
0.5875078
0.5332444
0.4635291
0.3803865
0.7354792
0.7145712
0.6899633
0.6605604
0.6247808
0.5803864
0.5239807
0.4504934
0.3589551
0.7511639
0.732761
0.7113288
0.6860397
0.6557277
0.6187987
0.5728542
0.5140043
0.4363283
0.3352092
0.7656295
0.7493859
0.730651
0.7087959
0.6829553
0.6519898
0.6142326
0.5670284
0.5062647
0.4252944
0.3112825
0.7789949
0.7646182
0.7481826
0.7292069
0.7070435
0.680869
0.6495138
0.6111594
0.5631026
0.5010402
0.4143391
0.2931564
0.7912403
0.7784666
0.7639799
0.747408
0.7282599
0.7059326
0.67959
0.6479601
0.6092291
0.5606335
0.4953031
0.4064458
0.2792734
0.8024103
0.7910108
0.7781748
0.7636112
0.7469428
0.7277211
0.7053373
0.6788788
0.6470948
0.6081519
0.5574381
0.4912898
0.4004514
0.2683911
0.8126018
0.8023838
0.790952
0.7780761
0.7634624
0.7467725
0.7275553
0.705141
0.6786427
0.6468053
0.6063827
0.5553579
0.4882956
0.3958648
0.259358
0.8219339
0.8127381
0.8025097
0.7910643
0.7781706
0.7635702
0.7469234
0.7277287
0.7053426
0.6788802
0.6459626
0.6054544
0.5539483
0.4860881
0.3922123
0.2494488
0.8305331
0.8222296
0.8130424
0.8028228
0.7913865
0.7785343
0.7640072
0.7474233
0.7283063
0.706018
0.6787521
0.64586
0.6050729
0.5530723
0.4843302
0.3878419
0.2422692
0.8385279
0.8310121
0.8227365
0.8135807
0.8033966
0.7920298
0.7792805
0.7648542
0.7483932
0.7294285
0.7065507
0.679385
0.6463355
0.6051827
0.5524153
0.4813498
0.3836208
0.2346592
0.8460314
0.8392188
0.8317513
0.8235307
0.814438
0.8043523
0.7931193
0.7805094
0.7662512
0.7499958
0.7306324
0.7079753
0.6808617
0.6476815
0.6057927
0.5494295
0.4776251
0.3782961
0.2270001
0.8530678
0.8468835
0.8401334
0.8327376
0.8245996
0.8156246
0.8056927
0.7946241
0.7822112
0.7681918
0.7517124
0.7328263
0.7108397
0.6849604
0.6541715
0.8594596
0.8538193
0.8476865
0.8409951
0.833666
0.825624
0.8167746
0.8069742
0.7960612
0.7838341
0.7696121
0.7535438
0.7351426
0.7138742
0.6890333
0.8651844
0.86001
0.8544028
0.8483071
0.8416575
0.8343932
0.8264383
0.8176763
0.8079782
0.7971859
0.7847365
0.7708111
0.7550419
0.7370393
0.7162945
0.8703015
0.8655267
0.8603678
0.8547777
0.848701
0.8420881
0.8348771
0.8269715
0.8182666
0.8086353
0.7976008
0.7853537
0.7716054
0.7560627
0.738349
0.8748862
0.8704559
0.8656818
0.8605235
0.8549336
0.8488709
0.8422843
0.8350926
0.8272092
0.81853
0.8086433
0.7977405
0.7855891
0.7719621
0.7565734
0.6719744
0.6390841
0.5986614
0.5479506
0.4838709
0.4127317
0.6983235
0.6707799
0.6375328
0.5966039
0.5451331
0.4799849
0.4068973
0.7199415
0.6963909
0.6683844
0.6345072
0.5926865
0.5400266
0.4730255
0.3958615
0.7380189
0.7175407
0.6934862
0.6648132
0.6300269
0.5870342
0.532729
0.4628262
0.3793995
0.7534702
0.7354305
0.7144586
0.6897646
0.6602424
0.6243897
0.5799716
0.523433
0.4497342
0.3578463
0.7671422
0.7511202
0.7326607
0.7111539
0.6857638
0.6553947
0.6184511
0.5724061
0.5134036
0.4354774
0.3288428
0.7798508
0.765591
0.7492984
0.7305001
0.7085611
0.6826764
0.6517046
0.6138742
0.5665644
0.505639
0.4209408
0.3041083
0.7916787
0.7789612
0.7645421
0.7480527
0.7290072
0.7068096
0.6806343
0.6492259
0.6107977
0.5626338
0.4979584
0.4101309
0.2850344
0.8025885
0.7912105
0.7784001
0.7638673
0.7472365
0.7280615
0.7057368
0.6793545
0.6476713
0.6088663
0.5583457
0.4924573
0.4020144
0.2706973
0.8126018
0.8023838
0.790952
0.7780761
0.7634624
0.7467725
0.7275553
0.705141
0.6786427
0.6468053
0.6063827
0.5553579
0.4882956
0.3958648
0.259358
0.8217894
0.8125781
0.8023315
0.7908648
0.7779456
0.7633144
0.74663
0.7273888
0.7049439
0.6784057
0.6453911
0.6047714
0.5531366
0.4851213
0.3910334
0.2480372
0.8302453
0.8219125
0.8126912
0.8024319
0.7909488
0.7780407
0.7634462
0.74678
0.7275611
0.7051441
0.6777183
0.6446527
0.6036839
0.5515044
0.482601
0.3860727
0.2404068
0.8380735
0.8305136
0.8221872
0.8129725
0.8027196
0.7912713
0.7784252
0.7638821
0.7472785
0.7281369
0.7050408
0.6776389
0.6443531
0.6030118
0.5502079
0.4795935
0.3820517
0.2332736
0.8453829
0.8385102
0.8309736
0.8226734
0.813488
0.8032939
0.7919329
0.7791703
0.7647277
0.7482466
0.728593
0.7055745
0.6780341
0.6444468
0.6025088
0.5480034
0.4767014
0.3775207
0.226403
0.8522707
0.8460154
0.8391841
0.8316945
0.8234479
0.8143466
0.8042669
0.7930228
0.7803997
0.7661253
0.7492868
0.7298081
0.706815
0.6791443
0.6449408
0.6001961
0.5452544
0.4730696
0.3727833
0.2201217
0.8587538
0.8530536
0.8468528
0.8400836
0.8326652
0.8245203
0.8155515
0.8056114
0.794533
0.7821085
0.7676243
0.7511819
0.7322512
0.7102578
0.6844946
0.8646634
0.8594468
0.8537919
0.8476422
0.8409309
0.833596
0.8255601
0.8167042
0.8068963
0.7959744
0.7833609
0.7692243
0.7531845
0.7348426
0.7136856
0.8699731
0.8651727
0.8599851
0.8543626
0.8482492
0.8415946
0.8343361
0.8263759
0.8176078
0.8079025
0.7967768
0.7844185
0.7705342
0.7548259
0.7369123
0.8747327
0.8702908
0.8655039
0.8603311
0.8547249
0.8486439
0.8420365
0.834821
0.8269102
0.8181994
0.8082742
0.7973258
0.7851197
0.7714273
0.7559602
0.8790077
0.8748763
0.8704348
0.8656479
0.860475
0.8548813
0.8488239
0.8422334
0.8350372
0.8271487
0.8182069
0.8083996
0.7975353
0.7854346
0.7718743
0.6992568
0.6718992
0.6389023
0.5983229
0.5473709
0.4830967
0.4118662
0.7215238
0.6982606
0.6706306
0.6372613
0.5961526
0.5445506
0.4793337
0.4060177
0.7400292
0.7198877
0.696265
0.6681596
0.634142
0.5922287
0.5395317
0.4723574
0.3949456
0.7556689
0.7379719
0.7174322
0.693295
0.6645081
0.6296531
0.5866412
0.5322158
0.462126
0.3784154
0.7691564
0.7534282
0.7353346
0.7142917
0.6895021
0.6599265
0.6240638
0.5795568
0.5228852
0.4489745
0.3524395
0.7811824
0.7671041
0.7510338
0.7325119
0.7109227
0.6854897
0.6551149
0.6181008
0.5719543
0.5127978
0.4313012
0.3220263
0.7924375
0.779817
0.7655149
0.7491686
0.7303006
0.7083277
0.6824421
0.651417
0.6135129
0.5660966
0.5025696
0.4165908
0.295405
0.8029798
0.7916488
0.7788945
0.7644292
0.747881
0.7288086
0.7066135
0.6803982
0.6489362
0.6104336
0.5603386
0.495022
0.4054443
0.2757807
0.8127619
0.802562
0.7911517
0.7783013
0.7637183
0.7470661
0.7278955
0.7055402
0.6791179
0.6473811
0.6070926
0.5562322
0.4893813
0.3972589
0.2612837
0.8217894
0.8125781
0.8023315
0.7908648
0.7779456
0.7633144
0.74663
0.7273888
0.7049439
0.6784057
0.6453911
0.6047714
0.5531366
0.4851213
0.3910334
0.2480372
0.8301142
0.821768
0.8125313
0.8022538
0.7907494
0.7778159
0.7631907
0.746487
0.7272216
0.704746
0.6772477
0.6441033
0.6030506
0.5507825
0.4817837
0.3851779
0.2394188
0.8378113
0.8302259
0.8218702
0.8126215
0.802329
0.7908339
0.777932
0.7633217
0.746636
0.7273928
0.704174
0.6766453
0.6432368
0.6017899
0.5489185
0.4783667
0.3808089
0.2320931
0.8449672
0.8380559
0.8304752
0.8221242
0.81288
0.802617
0.7911748
0.7783154
0.7637562
0.7471328
0.7273077
0.7041108
0.6764035
0.6427035
0.6007906
0.5466958
0.4756037
0.3764872
0.2255526
0.851675
0.8453668
0.8384751
0.8309164
0.8225898
0.8133958
0.8032076
0.7918354
0.7790592
0.7646002
0.7475279
0.7277639
0.7044445
0.676484
0.642305
0.599087
0.5445627
0.4725125
0.3722317
0.2197216
0.8580189
0.8522559
0.8459836
0.8391324
0.8316194
0.8233654
0.8142699
0.8041808
0.7929256
0.780289
0.7655081
0.7485768
0.7288213
0.7053766
0.6768926
0.6404562
0.5969637
0.5418915
0.4692958
0.3682424
0.2147531
0.8640106
0.8587407
0.8530255
0.8468073
0.8400177
0.8325933
0.8244543
0.8154784
0.8055301
0.794442
0.7816094
0.7671619
0.750686
0.7317556
0.7098669
0.8694898
0.8646516
0.8594216
0.8537511
0.8475834
0.840867
0.833538
0.8254965
0.8166341