/*--------------------------------*- C++ -*----------------------------------*\
| =========                 |                                                 |
| \\      /  F ield         | OpenFOAM: The Open Source CFD Toolbox           |
|  \\    /   O peration     | Version:  2306                                  |
|   \\  /    A nd           | Website:  www.openfoam.com                      |
|    \\/     M anipulation  |                                                 |
\*---------------------------------------------------------------------------*/
FoamFile
{
    version     2.0;
    format      ascii;
    arch        "LSB;label=32;scalar=64";
    class       volScalarField;
    location    "0.6/fuel";
    object      iDmdtfuel.H2O;
}
// * * * * * * * * * * * * * * * * * * * * * * * * * * * * * * * * * * * * * //

dimensions      [1 -3 -1 0 0 0 0];

internalField   nonuniform List<scalar> 
16000
(
94.93862
95.67058
86.34858
90.90535
97.13861
86.80891
91.58359
78.83992
82.90457
88.05269
99.34903
87.70733
92.94275
79.1857
83.33342
88.6951
72.75536
75.87783
80.44915
86.29108
102.2227
89.00096
94.98735
79.85236
84.16986
89.98207
73.0363
76.20148
80.85652
86.91356
67.686
70.16188
73.75366
78.91295
85.51461
105.308
90.57047
97.6426
80.79249
85.37359
91.91781
73.57412
76.82509
81.65078
88.1609
67.92354
70.42584
74.06198
79.30776
86.13083
63.33659
65.38445
68.29447
72.41287
78.21416
0
107.607
92.09582
100.4897
81.89422
86.83311
94.43219
74.32286
77.70414
82.79364
90.03834
68.37623
70.93086
74.65581
80.07755
87.36653
63.54241
65.60834
68.54655
72.71197
78.60415
0
59.53024
61.27415
63.72219
67.10893
71.79177
0
0
109.029
93.11361
102.6023
82.9068
88.25037
97.12927
75.18091
78.73377
84.17941
92.4806
69.00082
71.63365
75.49276
81.18554
89.22915
63.93351
66.03479
69.02866
73.28799
79.36478
0
59.71163
61.46868
63.93648
67.35376
72.08699
0
0
56.14803
57.66816
59.78102
62.66266
66.55422
0
0
0
109.8184
93.66641
103.9038
83.52885
89.19318
99.12441
75.94072
79.67937
85.52497
95.10593
69.70525
72.43862
76.47299
82.52997
91.65858
64.46958
66.62292
69.69943
74.09996
80.46035
0
60.05564
61.83814
64.34447
67.82193
72.65566
0
0
56.3099
57.84002
59.96758
62.87103
66.79588
0
0
0
53.10834
54.4568
56.31747
58.82649
62.16398
0
0
0
0
110.1665
93.9372
104.6239
83.82363
89.70374
100.3504
76.38002
80.25874
86.4175
97.04451
70.31226
73.15078
77.3729
83.83647
94.27983
65.06686
67.28583
70.46755
75.05124
81.79142
0
60.52477
62.34432
64.90702
68.47332
73.45755
0
0
56.61654
58.16581
60.32175
63.26767
67.25802
0
0
0
53.25424
54.61052
56.48257
59.00809
62.3697
0
0
0
0
50.35237
51.56472
53.22805
55.45203
58.3756
0
0
0
0
0
110.1665
94.04556
104.9407
83.94232
89.95322
101.0275
76.56414
80.53254
86.89973
98.23462
70.64696
73.56142
77.9226
84.70078
96.21446
65.57076
67.85643
71.14667
75.92471
83.08694
0
61.04248
62.9079
65.54088
69.21934
74.3977
0
0
57.03297
58.60986
60.80684
63.81456
67.90117
0
0
0
53.53042
54.90155
56.79543
59.35279
62.76133
0
0
0
0
50.48492
51.70354
53.37596
55.61292
58.55496
0
0
0
0
0
47.8361
48.93759
50.44166
52.43935
55.0423
0
0
0
0
0
0
109.8184
94.04556
104.9407
83.98032
90.05287
101.3252
76.62154
80.64244
87.13508
98.892
70.77217
73.73291
78.18162
85.16711
97.40305
65.83796
68.17009
71.53691
76.45645
83.94197
0
61.47194
63.38275
66.08595
69.87869
75.26138
0
0
57.48898
59.09953
61.34672
64.43073
68.63803
0
0
0
53.90433
55.2966
57.22174
59.82488
63.30136
0
0
0
0
50.73577
51.96621
53.6559
55.91773
58.89541
0
0
0
0
0
47.9573
49.06394
50.57543
52.58362
55.20128
0
0
0
0
0
0
45.52509
46.53471
47.90705
49.71977
52.06543
0
0
0
0
0
0
0
109.029
93.9372
104.6239
83.98032
90.05287
101.3252
76.63238
80.67751
87.22902
99.18109
70.79929
73.78602
78.28533
85.39473
98.06075
65.92757
68.28681
71.69919
76.70631
84.40298
0
61.69225
63.63367
66.38442
70.25605
75.78522
0
0
57.86208
59.50512
61.80105
64.96023
69.2892
0
0
0
54.31121
55.72884
57.69159
60.35019
63.90994
0
0
0
0
51.07446
52.32163
54.03576
56.33303
59.36173
0
0
0
0
0
48.18669
49.30296
50.82846
52.85663
55.50245
0
0
0
0
0
0
45.63653
46.65045
48.02897
49.85037
52.20805
0
0
0
0
0
0
0
43.39205
44.32421
45.58579
47.24385
49.37727
0
0
0
0
0
0
0
0
107.607
93.66641
103.9038
83.94232
89.95322
101.0275
76.63238
80.67751
87.22902
99.18109
70.79748
73.79587
78.31833
85.48567
98.35047
65.93779
68.31166
71.74908
76.80617
84.62835
0
61.75861
63.71717
66.49478
70.41221
76.03066
0
0
58.04809
59.71235
62.04008
65.24884
69.66014
0
0
0
54.64037
56.08189
58.08022
60.79185
64.43262
0
0
0
0
51.44108
52.70806
54.45115
56.79064
59.88067
0
0
0
0
0
48.49574
49.62551
51.17073
53.22704
55.91282
0
0
0
0
0
0
45.84751
46.8694
48.25953
50.09737
52.47791
0
0
0
0
0
0
0
43.49499
44.4308
45.69761
47.36299
49.50642
0
0
0
0
0
0
0
0
41.41537
42.28079
43.44779
44.97454
46.9291
0
0
0
0
0
0
0
0
0
105.308
93.11361
102.6023
83.82363
89.70374
100.3504
76.62154
80.64244
87.13508
98.892
70.79748
73.79587
78.31833
85.48567
98.35047
65.92941
68.30965
71.75814
76.83792
84.7186
0
61.75872
63.72615
66.51779
70.45987
76.12863
0
0
58.09845
59.7741
62.11891
65.35478
69.81281
0
0
0
54.80049
56.25712
58.27783
61.02302
64.716
0
0
0
0
51.73488
53.02012
54.78992
57.16871
60.31661
0
0
0
0
0
48.82879
49.97434
51.54263
53.63197
56.36502
0
0
0
0
0
0
46.13123
47.16422
48.57057
50.43142
52.84407
0
0
0
0
0
0
0
43.68998
44.6325
45.90909
47.58825
49.75067
0
0
0
0
0
0
0
0
41.51084
42.37938
43.55088
45.0839
47.04696
0
0
0
0
0
0
0
0
0
39.57726
40.38441
41.46911
42.8828
44.68445
0
0
0
0
0
0
0
0
0
0
102.2227
92.09582
100.4897
83.52885
89.19318
99.12441
76.56414
80.53254
86.89973
98.23462
70.79929
73.78602
78.28533
85.39473
98.06075
65.92941
68.30965
71.75814
76.83792
84.7186
0
61.74676
63.71792
66.51553
70.46834
76.15978
0
0
58.09224
59.77353
62.12679
65.37638
69.85902
0
0
0
54.83953
56.30388
58.336
61.0985
64.81918
0
0
0
0
51.87477
53.17117
54.95717
57.35989
60.54346
0
0
0
0
0
49.0936
50.25335
51.84245
53.96178
56.73824
0
0
0
0
0
0
46.43587
47.48166
48.90674
50.79428
53.24435
0
0
0
0
0
0
0
43.95183
44.9036
46.19375
47.89209
50.08103
0
0
0
0
0
0
0
0
41.6918
42.56608
43.74593
45.29068
47.26981
0
0
0
0
0
0
0
0
0
39.6661
40.47598
41.56459
42.9837
44.79267
0
0
0
0
0
0
0
0
0
0
37.86248
38.61856
39.63086
40.94554
42.61474
0
0
0
0
0
0
0
0
0
0
99.34903
90.57047
97.6426
82.9068
88.25037
97.12927
76.38002
80.25874
86.4175
97.04451
70.77217
73.73291
78.18162
85.16711
97.40305
65.93779
68.31166
71.74908
76.80617
84.62835
0
61.74676
63.71792
66.51553
70.46834
76.15978
0
0
58.07831
59.76189
62.11858
65.37385
69.86705
0
0
0
54.82939
56.29734
58.33476
61.10543
64.83967
0
0
0
0
51.9055
53.20732
55.0011
57.41542
60.61671
0
0
0
0
0
49.21738
50.38549
51.98677
54.12366
56.92581
0
0
0
0
0
0
46.6765
47.73353
49.17514
51.0864
53.57001
0
0
0
0
0
0
0
44.23211
45.1944
46.50004
48.22035
50.43985
0
0
0
0
0
0
0
0
41.93452
42.81665
44.008
45.56897
47.5704
0
0
0
0
0
0
0
0
0
39.83464
40.64948
41.74533
43.17456
44.99731
0
0
0
0
0
0
0
0
0
0
37.94535
38.70388
39.71961
41.03905
42.71463
0
0
0
0
0
0
0
0
0
0
36.25828
36.96908
37.91739
39.14453
40.69725
0
0
0
0
0
0
0
0
0
0
97.13861
89.00096
94.98735
81.89422
86.83311
94.43219
75.94072
79.67937
85.52497
95.10593
70.64696
73.56142
77.9226
84.70078
96.21446
65.92757
68.28681
71.69919
76.70631
84.40298
0
61.75872
63.72615
66.51779
70.45987
76.12863
0
0
58.07831
59.76189
62.11858
65.37385
69.86705
0
0
0
54.81448
56.28381
58.32327
61.09712
64.83683
0
0
0
0
51.89287
53.19704
54.99414
57.41353
60.62279
0
0
0
0
0
49.24194
50.41384
52.02061
54.16545
56.97951
0
0
0
0
0
0
46.78722
47.85061
49.30151
51.22615
53.72883
0
0
0
0
0
0
0
44.45234
45.42363
46.74263
48.48205
50.72838
0
0
0
0
0
0
0
0
42.19367
43.08461
44.28893
45.86829
47.89513
0
0
0
0
0
0
0
0
0
40.06043
40.88207
41.98782
43.43096
45.27274
0
0
0
0
0
0
0
0
0
0
38.10271
38.86569
39.88776
41.21603
42.90358
0
0
0
0
0
0
0
0
0
0
36.33586
37.04876
38.00018
39.23151
40.78985
0
0
0
0
0
0
0
0
0
0
34.7542
35.42408
36.31531
37.46468
38.91404
0
0
0
0
0
0
0
0
0
0
95.67058
87.70733
92.94275
80.79249
85.37359
91.91781
75.18091
78.73377
84.17941
92.4806
70.31226
73.15078
77.3729
83.83647
94.27983
65.83796
68.17009
71.53691
76.45645
83.94197
0
61.75861
63.71717
66.49478
70.41221
76.03066
0
0
58.09224
59.77353
62.12679
65.37638
69.85902
0
0
0
54.81448
56.28381
58.32327
61.09712
64.83683
0
0
0
0
51.87755
53.18255
54.98083
57.40203
60.61425
0
0
0
0
0
49.22782
50.4012
52.01009
54.15804
56.97695
0
0
0
0
0
0
46.80715
47.87318
49.32795
51.25823
53.7691
0
0
0
0
0
0
0
44.55236
45.52849
46.8547
48.60449
50.8655
0
0
0
0
0
0
0
0
42.39638
43.29471
44.50995
46.10501
48.15371
0
0
0
0
0
0
0
0
0
40.3009
41.13017
42.24697
43.7057
45.56896
0
0
0
0
0
0
0
0
0
0
38.31339
39.08234
40.11309
41.45345
43.15743
0
0
0
0
0
0
0
0
0
0
36.48331
37.20002
38.15714
39.39627
40.96513
0
0
0
0
0
0
0
0
0
0
34.827
35.49875
36.39268
37.54586
39.00021
0
0
0
0
0
0
0
0
0
0
33.34098
33.97384
34.81333
35.89305
37.2503
0
0
0
0
0
0
0
0
0
0
94.93862
86.80891
91.58359
79.85236
84.16986
89.98207
74.32286
77.70414
82.79364
90.03834
69.70525
72.43862
76.47299
82.52997
91.65858
65.57076
67.85643
71.14667
75.92471
83.08694
0
61.69225
63.63367
66.38442
70.25605
75.78522
0
0
58.09845
59.7741
62.11891
65.35478
69.81281
0
0
0
54.82939
56.29734
58.33476
61.10543
64.83967
0
0
0
0
51.87755
53.18255
54.98083
57.40203
60.61425
0
0
0
0
0
49.21247
50.38631
51.99585
54.14477
56.96528
0
0
0
0
0
0
46.79222
47.85912
49.31517
51.24737
53.76115
0
0
0
0
0
0
0
44.5688
45.54672
46.87565
48.62945
50.89629
0
0
0
0
0
0
0
0
42.48741
43.38955
44.61042
46.21365
48.27386
0
0
0
0
0
0
0
0
0
40.48828
41.32382
42.44977
43.92154
45.80293
0
0
0
0
0
0
0
0
0
0
38.53743
39.31286
40.35327
41.70707
43.42942
0
0
0
0
0
0
0
0
0
0
36.68062
37.40241
38.36723
39.61703
41.20026
0
0
0
0
0
0
0
0
0
0
34.96555
35.64066
36.53954
37.69976
39.16344
0
0
0
0
0
0
0
0
0
0
33.40942
34.04399
34.8859
35.96897
37.33074
0
0
0
0
0
0
0
0
0
0
32.01007
32.60972
33.40226
34.41876
35.69327
0
0
0
0
0
0
0
0
0
0
86.34858
90.90535
79.1857
83.33342
88.6951
73.57412
76.82509
81.65078
88.1609
69.00082
71.63365
75.49276
81.18554
89.22916
65.06686
67.28583
70.46755
75.05124
81.79142
0
61.47194
63.38275
66.08595
69.87869
75.26138
0
0
58.04809
59.71235
62.04008
65.24884
69.66014
0
0
0
54.83953
56.30388
58.336
61.0985
64.81918
0
0
0
0
51.89287
53.19704
54.99414
57.41353
60.62279
0
0
0
0
0
49.21247
50.38631
51.99585
54.14477
56.96528
0
0
0
0
0
0
46.77709
47.84419
49.30053
51.2332
53.74776
0
0
0
0
0
0
0
44.55355
45.5319
46.86153
48.61642
50.885
0
0
0
0
0
0
0
0
42.5011
43.40452
44.62726
46.23334
48.29772
0
0
0
0
0
0
0
0
0
40.57163
41.41024
42.54072
44.01898
45.90957
0
0
0
0
0
0
0
0
0
0
38.71157
39.49209
40.5404
41.90525
43.64282
0
0
0
0
0
0
0
0
0
0
0
36.89015
37.61745
38.59061
39.85225
41.45143
0
0
0
0
0
0
0
0
0
0
35.15083
35.83043
36.73599
37.90572
39.38215
0
0
0
0
0
0
0
0
0
0
33.5398
34.17746
35.0238
36.11305
37.48325
0
0
0
0
0
0
0
0
0
0
32.07455
32.67572
33.47049
34.49
35.76853
0
0
0
0
0
0
0
0
0
0
30.75444
31.32371
32.07388
33.03292
34.23227
0
0
0
0
0
0
0
0
0
0
78.83992
82.90457
88.05269
73.0363
76.20148
80.85652
86.91356
68.37623
70.93086
74.65581
80.07755
87.36654
64.46958
66.62292
69.69943
74.09996
80.46035
0
61.04248
62.9079
65.54088
69.21934
74.3977
0
0
57.86208
59.50512
61.80105
64.96023
69.2892
0
0
0
54.80049
56.25712
58.27783
61.02302
64.716
0
0
0
0
51.9055
53.20732
55.0011
57.41542
60.61671
0
0
0
0
0
49.22782
50.4012
52.01009
54.15804
56.97695
0
0
0
0
0
0
46.77709
47.84419
49.30053
51.2332
53.74776
0
0
0
0
0
0
0
44.53881
45.51716
46.84684
48.60187
50.87074
0
0
0
0
0
0
0
0
42.48579
43.3894
44.61241
46.21903
48.28434
0
0
0
0
0
0
0
0
0
40.58321
41.42264
42.55448
44.03473
45.92831
0
0
0
0
0
0
0
0
0
0
38.78848
39.5713
40.62334
41.99352
43.73851
0
0
0
0
0
0
0
0
0
0
0
37.05267
37.78421
38.76396
40.03523
41.64744
0
0
0
0
0
0
0
0
0
0
0
0
35.34735
36.03177
36.94456
38.12463
39.61517
0
0
0
0
0
0
0
0
0
0
33.71409
34.35587
35.20816
36.30576
37.68736
0
0
0
0
0
0
0
0
0
0
32.19758
32.80146
33.6003
34.62537
35.91135
0
0
0
0
0
0
0
0
0
0
30.81529
31.38596
32.13813
33.09994
34.3029
0
0
0
0
0
0
0
0
0
0
29.56776
30.10922
30.82059
31.7276
32.85854
0
0
0
0
0
0
0
0
0
0
72.75536
75.87783
80.44915
86.29108
67.92354
70.42584
74.06198
79.30776
86.13083
63.93351
66.03479
69.02866
73.28799
79.36478
0
60.52477
62.34432
64.90702
68.47332
73.45755
0
0
57.48898
59.09953
61.34672
64.43073
68.63803
0
0
0
54.64037
56.08189
58.08022
60.79185
64.43262
0
0
0
0
51.87477
53.17117
54.95717
57.35989
60.54346
0
0
0
0
0
49.24194
50.41384
52.02061
54.16545
56.97951
0
0
0
0
0
0
46.79222
47.85912
49.31517
51.24737
53.76115
0
0
0
0
0
0
0
44.53881
45.51716
46.84684
48.60187
50.87074
0
0
0
0
0
0
0
0
42.4715
43.37503
44.59792
46.20445
48.26972
0
0
0
0
0
0
0
0
0
40.56811
41.40747
42.53937
44.01974
45.9137
0
0
0
0
0
0
0
0
0
0
38.7985
39.58175
40.63469
42.00633
43.75342
0
0
0
0
0
0
0
0
0
0
0
37.12408
37.8574
38.84006
40.11579
41.73415
0
0
0
0
0
0
0
0
0
0
0
0
35.49948
36.1876
37.10601
38.29425
39.79622
0
0
0
0
0
0
0
0
0
0
0
0
0
33.89879
34.54491
35.40362
36.51027
37.90429
0
0
0
0
0
0
0
0
0
0
32.362
32.96945
33.77376
34.80632
36.10237
0
0
0
0
0
0
0
0
0
0
30.93157
31.50471
32.26052
33.22743
34.43713
0
0
0
0
0
0
0
0
0
0
29.62532
30.16802
30.88123
31.79074
32.92501
0
0
0
0
0
0
0
0
0
0
28.44519
28.96034
29.63612
30.49543
31.5643
0
0
0
0
0
0
0
0
0
0
67.686
70.16188
73.75366
78.91295
85.51461
63.54241
65.60834
68.54655
72.71197
78.60415
0
60.05564
61.83814
64.34447
67.82193
72.65566
0
0
57.03297
58.60986
60.80684
63.81456
67.90117
0
0
0
54.31121
55.72884
57.69159
60.35019
63.90994
0
0
0
0
51.73488
53.02012
54.78992
57.16871
60.31661
0
0
0
0
0
49.21738
50.38549
51.98677
54.12366
56.92581
0
0
0
0
0
0
46.80715
47.87318
49.32795
51.25823
53.7691
0
0
0
0
0
0
0
44.55355
45.5319
46.86153
48.61642
50.885
0
0
0
0
0
0
0
0
42.4715
43.37503
44.59792
46.20445
48.26972
0
0
0
0
0
0
0
0
0
40.55436
41.39353
42.52522
44.00535
45.89906
0
0
0
0
0
0
0
0
0
0
38.7838
39.56679
40.61954
41.9911
43.73818
0
0
0
0
0
0
0
0
0
0
0
37.13291
37.86641
38.84957
40.12628
41.74622
0
0
0
0
0
0
0
0
0
0
0
0
35.56598
36.25563
37.17638
38.3682
39.87537
0
0
0
0
0
0
0
0
0
0
0
0
0
34.04163
34.69094
35.55461
36.66834
38.07217
0
0
0
0
0
0
0
0
0
0
0
0
0
0
32.53611
33.14731
33.95743
34.99808
36.30509
0
0
0
0
0
0
0
0
0
0
31.08695
31.66335
32.42398
33.39777
34.61654
0
0
0
0
0
0
0
0
0
0
29.73546
30.28037
30.9969
31.911
33.05145
0
0
0
0
0
0
0
0
0
0
28.49973
29.01601
29.69344
30.55505
31.62693
0
0
0
0
0
0
0
0
0
0
27.38175
27.87255
28.51484
29.33035
30.34228
0
0
0
0
0
0
0
0
0
0
63.33659
65.38445
68.29447
72.41287
78.21416
0
59.71163
61.46868
63.93648
67.35376
72.08699
0
0
56.61654
58.16581
60.32175
63.26767
67.25802
0
0
0
53.90433
55.2966
57.22174
59.82488
63.30136
0
0
0
0
51.44108
52.70806
54.45115
56.79064
59.88067
0
0
0
0
0
49.0936
50.25335
51.84245
53.96178
56.73824
0
0
0
0
0
0
46.78722
47.85061
49.30151
51.22615
53.72883
0
0
0
0
0
0
0
44.5688
45.54672
46.87565
48.62945
50.89629
0
0
0
0
0
0
0
0
42.48579
43.3894
44.61241
46.21903
48.28434
0
0
0
0
0
0
0
0
0
40.55436
41.39353
42.52522
44.00535
45.89906
0
0
0
0
0
0
0
0
0
0
38.77064
39.55336
40.6058
41.97705
43.72374
0
0
0
0
0
0
0
0
0
0
0
37.11871
37.85184
38.83464
40.11105
41.73077
0
0
0
0
0
0
0
0
0
0
0
0
35.5738
36.26353
37.18454
38.37695
39.88521
0
0
0
0
0
0
0
0
0
0
0
0
0
34.10394
34.75436
35.62008
36.73677
38.14487
0
0
0
0
0
0
0
0
0
0
0
0
0
0
32.67067
33.28457
34.09904
35.14601
36.4616
0
0
0
0
0
0
0
0
0
0
0
0
0
0
0
31.25142
31.83118
32.59691
33.57807
34.80668
0
0
0
0
0
0
0
0
0
0
29.88264
30.43042
31.15137
32.0716
33.2204
0
0
0
0
0
0
0
0
0
0
28.60425
29.12251
29.80294
30.66877
31.74623
0
0
0
0
0
0
0
0
0
0
27.43351
27.92534
28.56913
29.38673
30.40143
0
0
0
0
0
0
0
0
0
0
26.37402
26.84117
27.45246
28.22691
29.18652
0
0
0
0
0
0
0
0
0
0
59.53024
61.27415
63.72219
67.10893
71.79177
0
0
56.3099
57.84002
59.96758
62.87103
66.79588
0
0
0
53.53042
54.90155
56.79543
59.35279
62.76133
0
0
0
0
51.07446
52.32163
54.03576
56.33303
59.36173
0
0
0
0
0
48.82879
49.97434
51.54263
53.63197
56.36502
0
0
0
0
0
0
46.6765
47.73353
49.17514
51.0864
53.57001
0
0
0
0
0
0
0
44.55236
45.52849
46.8547
48.60449
50.8655
0
0
0
0
0
0
0
0
42.5011
43.40452
44.62726
46.23334
48.29772
0
0
0
0
0
0
0
0
0
40.5681
41.40747
42.53937
44.01974
45.9137
0
0
0
0
0
0
0
0
0
0
38.77064
39.55336
40.6058
41.97705
43.72374
0
0
0
0
0
0
0
0
0
0
0
37.10615
37.83897
38.82141
40.0974
41.71669
0
0
0
0
0
0
0
0
0
0
0
0
35.5601
36.24946
37.17001
38.36195
39.86977
0
0
0
0
0
0
0
0
0
0
0
0
0
34.11106
34.76134
35.62723
36.74425
38.15303
0
0
0
0
0
0
0
0
0
0
0
0
0
0
32.72923
33.34406
34.16014
35.20971
36.5289
0
0
0
0
0
0
0
0
0
0
0
0
0
0
0
31.37848
31.9606
32.73013
33.71688
34.95319
0
0
0
0
0
0
0
0
0
0
0
0
0
0
0
0
30.03838
30.5891
31.31468
32.24144
33.39922
0
0
0
0
0
0
0
0
0
0
28.74394
29.26477
29.94915
30.82061
31.90555
0
0
0
0
0
0
0
0
0
0
27.53287
28.0265
28.67301
29.49443
30.51427
0
0
0
0
0
0
0
0
0
0
26.42322
26.89131
27.50398
28.28033
29.24247
0
0
0
0
0
0
0
0
0
0
25.41742
25.86304
26.44453
27.18096
28.09164
0
0
0
0
0
0
0
0
0
0
56.14803
57.66816
59.78102
62.66266
66.55422
0
0
0
53.25424
54.61052
56.48257
59.00809
62.3697
0
0
0
0
50.73577
51.96621
53.6559
55.91773
58.89541
0
0
0
0
0
48.49574
49.62551
51.17073
53.22704
55.91282
0
0
0
0
0
0
46.43587
47.48166
48.90674
50.79428
53.24435
0
0
0
0
0
0
0
44.45233
45.42363
46.74263
48.48205
50.72838
0
0
0
0
0
0
0
0
42.48741
43.38954
44.61042
46.21365
48.27386
0
0
0
0
0
0
0
0
0
40.5832
41.42264
42.55448
44.03473
45.92831
0
0
0
0
0
0
0
0
0
0
38.7838
39.56679
40.61954
41.9911
43.73818
0
0
0
0
0
0
0
0
0
0
0
37.10615
37.83897
38.82141
40.0974
41.71669
0
0
0
0
0
0
0
0
0
0
0
0
35.54811
36.23717
37.15732
38.3488
39.85611
0
0
0
0
0
0
0
0
0
0
0
0
0
34.09799
34.74776
35.61318
36.72965
38.13785
0
0
0
0
0
0
0
0
0
0
0
0
0
0
32.73577
33.35041
34.16642
35.21623
36.53584
0
0
0
0
0
0
0
0
0
0
0
0
0
0
0
31.43377
32.01658
32.78748
33.77637
35.01586
0
0
0
0
0
0
0
0
0
0
0
0
0
0
0
0
30.15874
30.71144
31.44039
32.3721
33.53674
0
0
0
0
0
0
0
0
0
0
0
0
0
0
0
0
0
28.89173
29.41517
30.10366
30.98107
32.07405
0
0
0
0
0
0
0
0
0
0
27.66567
28.16162
28.81172
29.63821
30.66494
0
0
0
0
0
0
0
0
0
0
26.51779
26.98755
27.6027
28.38254
29.34935
0
0
0
0
0
0
0
0
0
0
25.46424
25.91073
26.49349
27.23167
28.14467
0
0
0
0
0
0
0
0
0
0
24.50835
24.93382
25.48805
26.1882
27.0536
0
0
0
0
0
0
0
0
0
0
53.10834
54.4568
56.31747
58.82649
62.16398
0
0
0
0
50.48492
51.70354
53.37596
55.61292
58.55496
0
0
0
0
0
48.18669
49.30296
50.82846
52.85663
55.50245
0
0
0
0
0
0
46.13123
47.16422
48.57057
50.43142
52.84407
0
0
0
0
0
0
0
44.23211
45.1944
46.50004
48.22035
50.43985
0
0
0
0
0
0
0
0
42.39639
43.2947
44.50995
46.10501
48.15371
0
0
0
0
0
0
0
0
0
40.57161
41.41024
42.54071
44.01898
45.90957
0
0
0
0
0
0
0
0
0
0
38.79851
39.58174
40.63469
42.00632
43.75342
0
0
0
0
0
0
0
0
0
0
0
37.1187
37.85184
38.83463
40.11105
41.73077
0
0
0
0
0
0
0
0
0
0
0
0
35.54811
36.23717
37.15733
38.3488
39.85611
0
0
0
0
0
0
0
0
0
0
0
0
0
34.08661
34.73602
35.60106
36.71705
38.12468
0
0
0
0
0
0
0
0
0
0
0
0
0
0
32.72329
33.33745
34.15287
35.20214
36.52108
0
0
0
0
0
0
0
0
0
0
0
0
0
0
0
31.43991
32.02241
32.7932
33.78208
35.0219
0
0
0
0
0
0
0
0
0
0
0
0
0
0
0
0
30.21118
30.76433
31.49441
32.42798
33.59528
0
0
0
0
0
0
0
0
0
0
0
0
0
0
0
0
0
29.00602
29.53116
30.22259
31.10443
32.20353
0
0
0
0
0
0
0
0
0
0
0
0
0
0
0
0
0
0
27.80619
28.30447
28.95827
29.79011
30.82416
0
0
0
0
0
0
0
0
0
0
26.64422
27.11612
27.73454
28.51901
29.49206
0
0
0
0
0
0
0
0
0
0
25.5544
26.0024
26.58746
27.32886
28.24614
0
0
0
0
0
0
0
0
0
0
24.55298
24.97923
25.53464
26.23641
27.10394
0
0
0
0
0
0
0
0
0
0
23.64405
24.0501
24.57886
25.24574
26.06812
0
0
0
0
0
0
0
0
0
0
50.35237
51.56472
53.22805
55.45203
58.3756
0
0
0
0
0
47.9573
49.06394
50.57543
52.58362
55.20128
0
0
0
0
0
0
45.84751
46.8694
48.25953
50.09737
52.47791
0
0
0
0
0
0
0
43.95182
44.9036
46.19375
47.89209
50.08103
0
0
0
0
0
0
0
0
42.19367
43.0846
44.28893
45.86829
47.89513
0
0
0
0
0
0
0
0
0
40.48826
41.32383
42.44976
43.92153
45.80293
0
0
0
0
0
0
0
0
0
0
38.78848
39.57129
40.62334
41.99351
43.73851
0
0
0
0
0
0
0
0
0
0
0
37.13291
37.86641
38.84956
40.12628
41.74622
0
0
0
0
0
0
0
0
0
0
0
0
35.5601
36.24946
37.17001
38.36194
39.86977
0
0
0
0
0
0
0
0
0
0
0
0
0
34.08661
34.73602
35.60106
36.71705
38.12468
0
0
0
0
0
0
0
0
0
0
0
0
0
0
32.71247
33.32629
34.14129
35.19009
36.50846
0
0
0
0
0
0
0
0
0
0
0
0
0
0
0
31.42808
32.01002
32.78026
33.76848
35.00766
0
0
0
0
0
0
0
0
0
0
0
0
0
0
0
0
30.21708
30.76982
31.49964
32.43317
33.60055
0
0
0
0
0
0
0
0
0
0
0
0
0
0
0
0
0
29.05592
29.58138
30.27367
31.15708
32.25854
0
0
0
0
0
0
0
0
0
0
0
0
0
0
0
0
0
0
27.91495
28.41471
29.0711
29.90686
30.94644
0
0
0
0
0
0
0
0
0
0
0
0
0
0
0
0
0
0
0
26.77803
27.25204
27.87382
28.66314
29.64281
0
0
0
0
0
0
0
0
0
0
25.67495
26.12489
26.71297
27.45861
28.38161
0
0
0
0
0
0
0
0
0
0
24.63905
25.06668
25.6242
26.32895
27.20043
0
0
0
0
0
0
0
0
0
0
23.68663
24.09341
24.62325
25.29163
26.11599
0
0
0
0
0
0
0
0
0
0
22.82189
23.20931
23.71371
24.34952
25.1324
0
0
0
0
0
0
0
0
0
0
47.8361
48.93759
50.44166
52.43935
55.0423
0
0
0
0
0
0
45.63653
46.65045
48.02897
49.85037
52.20805
0
0
0
0
0
0
0
43.68998
44.63249
45.90909
47.58825
49.75067
0
0
0
0
0
0
0
0
41.93452
42.81664
44.008
45.56897
47.5704
0
0
0
0
0
0
0
0
0
40.30088
41.13017
42.24696
43.7057
45.56896
0
0
0
0
0
0
0
0
0
0
38.71156
39.49207
40.5404
41.90524
43.64282
0
0
0
0
0
0
0
0
0
0
0
37.12407
37.8574
38.84005
40.11579
41.73415
0
0
0
0
0
0
0
0
0
0
0
0
35.5738
36.26353
37.18454
38.37694
39.88521
0
0
0
0
0
0
0
0
0
0
0
0
0
34.09799
34.74776
35.61318
36.72965
38.13784
0
0
0
0
0
0
0
0
0
0
0
0
0
0
32.71247
33.32629
34.14129
35.19009
36.50846
0
0
0
0
0
0
0
0
0
0
0
0
0
0
0
31.41783
31.99941
32.76925
33.75697
34.99559
0
0
0
0
0
0
0
0
0
0
0
0
0
0
0
0
30.20592
30.75807
31.48728
32.42018
33.58682
0
0
0
0
0
0
0
0
0
0
0
0
0
0
0
0
0
29.06166
29.58667
30.27861
31.16184
32.26333
0
0
0
0
0
0
0
0
0
0
0
0
0
0
0
0
0
0
27.96258
28.46255
29.11964
29.95669
30.9983
0
0
0
0
0
0
0
0
0
0
0
0
0
0
0
0
0
0
0
26.8817
27.35704
27.98113
28.77396
29.75858
0
0
0
0
0
0
0
0
0
0
0
0
0
0
0
0
0
0
0
0
25.80257
26.25442
26.84558
27.59565
28.52468
0
0
0
0
0
0
0
0
0
0
24.75418
25.18356
25.74385
26.45253
27.32927
0
0
0
0
0
0
0
0
0
0
23.76888
24.17696
24.70874
25.37986
26.20789
0
0
0
0
0
0
0
0
0
0
22.86258
23.25066
23.75606
24.39326
25.17797
0
0
0
0
0
0
0
0
0
0
22.03939
22.40897
22.89014
23.4964
24.24241
0
0
0
0
0
0
0
0
0
0
45.52509
46.53471
47.90705
49.71977
52.06543
0
0
0
0
0
0
0
43.49499
44.4308
45.69761
47.36299
49.50642
0
0
0
0
0
0
0
0
41.69181
42.56607
43.74593
45.29068
47.26981
0
0
0
0
0
0
0
0
0
40.06041
40.88207
41.98782
43.43096
45.27274
0
0
0
0
0
0
0
0
0
0
38.53742
39.31284
40.35327
41.70706
43.42942
0
0
0
0
0
0
0
0
0
0
37.05266
37.78421
38.76395
40.03524
41.64743
0
0
0
0
0
0
0
0
0
0
0
0
35.56598
36.25562
37.17638
38.36818
39.87537
0
0
0
0
0
0
0
0
0
0
0
0
0
34.11107
34.76134
35.62722
36.74425
38.15301
0
0
0
0
0
0
0
0
0
0
0
0
0
0
32.72329
33.33745
34.15287
35.20213
36.52109
0
0
0
0
0
0
0
0
0
0
0
0
0
0
0
31.41783
31.99941
32.76925
33.75697
34.99559
0
0
0
0
0
0
0
0
0
0
0
0
0
0
0
0
30.19624
30.74801
31.4768
32.40923
33.57529
0
0
0
0
0
0
0
0
0
0
0
0
0
0
0
0
0
29.05117
29.57559
30.26688
31.14943
32.25022
0
0
0
0
0
0
0
0
0
0
0
0
0
0
0
0
0
0
27.96823
28.46772
29.12442
29.96118
31.00268
0
0
0
0
0
0
0
0
0
0
0
0
0
0
0
0
0
0
0
26.92726
27.40275
28.02741
28.82134
29.80767
0
0
0
0
0
0
0
0
0
0
0
0
0
0
0
0
0
0
0
0
25.90159
26.3546
26.94786
27.7011
28.6346
0
0
0
0
0
0
0
0
0
0
0
0
0
0
0
0
0
0
0
0
24.87611
25.3072
25.8703
26.58306
27.46533
0
0
0
0
0
0
0
0
0
0
23.87894
24.28866
24.82297
25.49771
26.33062
0
0
0
0
0
0
0
0
0
0
22.94131
23.33055
23.83777
24.47751
25.26561
0
0
0
0
0
0
0
0
0
0
22.07831
22.4485
22.93059
23.53815
24.28586
0
0
0
0
0
0
0
0
0
0
21.29545
21.64674
22.1058
22.684
23.39507
0
0
0
0
0
0
0
0
0
0
43.39205
44.32421
45.58579
47.24385
49.37727
0
0
0
0
0
0
0
0
41.51084
42.37938
43.55088
45.0839
47.04696
0
0
0
0
0
0
0
0
0
39.83462
40.64948
41.74532
43.17456
44.99731
0
0
0
0
0
0
0
0
0
0
38.31336
39.08232
40.11309
41.45344
43.15743
0
0
0
0
0
0
0
0
0
0
36.89014
37.61743
38.59059
39.85226
41.45142
0
0
0
0
0
0
0
0
0
0
35.49948
36.18759
37.106
38.29423
39.79622
0
0
0
0
0
0
0
0
0
0
0
0
0
34.10395
34.75436
35.62008
36.73677
38.14485
0
0
0
0
0
0
0
0
0
0
0
0
0
0
32.73578
33.35042
34.16642
35.21623
36.53584
0
0
0
0
0
0
0
0
0
0
0
0
0
0
0
31.42808
32.01002
32.78026
33.76848
35.00766
0
0
0
0
0
0
0
0
0
0
0
0
0
0
0
0
30.19624
30.74801
31.4768
32.40923
33.57529
0
0
0
0
0
0
0
0
0
0
0
0
0
0
0
0
0
29.04203
29.56608
30.25694
31.13901
32.23925
0
0
0
0
0
0
0
0
0
0
0
0
0
0
0
0
0
0
27.95839
28.45729
29.11335
29.94941
30.99016
0
0
0
0
0
0
0
0
0
0
0
0
0
0
0
0
0
0
0
26.93286
27.40786
28.0321
28.8257
29.81181
0
0
0
0
0
0
0
0
0
0
0
0
0
0
0
0
0
0
0
0
25.94527
26.39836
26.99212
27.7463
28.6813
0
0
0
0
0
0
0
0
0
0
0
0
0
0
0
0
0
0
0
0
24.97086
25.40294
25.96793
26.68361
27.56994
0
0
0
0
0
0
0
0
0
0
0
0
0
0
0
0
0
0
0
0
23.99556
24.40686
24.94372
25.62222
26.46025
0
0
0
0
0
0
0
0
0
0
23.0467
23.4374
23.947
24.59006
25.38266
0
0
0
0
0
0
0
0
0
0
22.15375
22.52502
23.00877
23.6187
24.36955
0
0
0
0
0
0
0
0
0
0
21.33273
21.68458
22.14449
22.72388
23.43654
0
0
0
0
0
0
0
0
0
0
20.58793
20.92163
21.35843
21.91002
22.58803
0
0
0
0
0
0
0
0
0
0
41.41537
42.28078
43.44779
44.97454
46.9291
0
0
0
0
0
0
0
0
0
39.66608
40.47598
41.56459
42.9837
44.79267
0
0
0
0
0
0
0
0
0
0
38.10268
38.86567
39.88776
41.21603
42.90358
0
0
0
0
0
0
0
0
0
0
36.6806
37.40239
38.36721
39.61704
41.20025
0
0
0
0
0
0
0
0
0
0
35.34736
36.03176
36.94455
38.12461
39.61517
0
0
0
0
0
0
0
0
0
0
34.04164
34.69094
35.5546
36.66833
38.07216
0
0
0
0
0
0
0
0
0
0
0
0
0
0
32.72924
33.34406
34.16014
35.20971
36.5289
0
0
0
0
0
0
0
0
0
0
0
0
0
0
0
31.43992
32.02241
32.7932
33.78208
35.02189
0
0
0
0
0
0
0
0
0
0
0
0
0
0
0
0
30.20592
30.75807
31.48728
32.42019
33.58682
0
0
0
0
0
0
0
0
0
0
0
0
0
0
0
0
0
29.04203
29.56608
30.25694
31.13901
32.23925
0
0
0
0
0
0
0
0
0
0
0
0
0
0
0
0
0
0
27.94978
28.44831
29.10395
29.93952
30.97972
0
0
0
0
0
0
0
0
0
0
0
0
0
0
0
0
0
0
0
26.92365
27.39808
28.02168
28.81459
29.79994
0
0
0
0
0
0
0
0
0
0
0
0
0
0
0
0
0
0
0
0
25.95087
26.40346
26.99678
27.7506
28.68533
0
0
0
0
0
0
0
0
0
0
0
0
0
0
0
0
0
0
0
0
25.01286
25.44496
26.01034
26.72686
27.61451
0
0
0
0
0
0
0
0
0
0
0
0
0
0
0
0
0
0
0
0
24.08632
24.49855
25.0371
25.71825
26.56002
0
0
0
0
0
0
0
0
0
0
0
0
0
0
0
0
0
0
0
0
23.15843
23.55053
24.06251
24.70901
25.50633
0
0
0
0
0
0
0
0
0
0
22.25479
22.6274
23.1133
23.72636
24.48136
0
0
0
0
0
0
0
0
0
0
21.40513
21.75794
22.21939
22.80097
23.51657
0
0
0
0
0
0
0
0
0
0
20.62367
20.95789
21.39548
21.94818
22.62765
0
0
0
0
0
0
0
0
0
0
19.91686
20.23161
20.64713
21.1723
21.81902
0
0
0
0
0
0
0
0
0
0
39.57724
40.38441
41.46911
42.8828
44.68445
0
0
0
0
0
0
0
0
0
0
37.94532
38.70386
39.71962
41.03904
42.71463
0
0
0
0
0
0
0
0
0
0
36.4833
37.19999
38.15712
39.39627
40.96512
0
0
0
0
0
0
0
0
0
0
35.15084
35.83042
36.73597
37.9057
39.38215
0
0
0
0
0
0
0
0
0
0
33.8988
34.54492
35.40361
36.51026
37.90427
0
0
0
0
0
0
0
0
0
0
32.67068
33.28458
34.09905
35.146
36.46159
0
0
0
0
0
0
0
0
0
0
0
0
0
0
0
31.43378
32.01659
32.78749
33.77637
35.01585
0
0
0
0
0
0
0
0
0
0
0
0
0
0
0
0
30.21708
30.76982
31.49965
32.43318
33.60055
0
0
0
0
0
0
0
0
0
0
0
0
0
0
0
0
0
29.05117
29.57559
30.26688
31.14944
32.25022
0
0
0
0
0
0
0
0
0
0
0
0
0
0
0
0
0
0
27.94978
28.44831
29.10395
29.93952
30.97972
0
0
0
0
0
0
0
0
0
0
0
0
0
0
0
0
0
0
0
26.91553
27.3896
28.01279
28.80523
29.79003
0
0
0
0
0
0
0
0
0
0
0
0
0
0
0
0
0
0
0
0
25.94227
26.39429
26.987
27.74014
28.67412
0
0
0
0
0
0
0
0
0
0
0
0
0
0
0
0
0
0
0
0
25.01849
25.45007
26.01501
26.73115
27.61851
0
0
0
0
0
0
0
0
0
0
0
0
0
0
0
0
0
0
0
0
24.12677
24.53899
25.07784
25.75972
26.60268
0
0
0
0
0
0
0
0
0
0
0
0
0
0
0
0
0
0
0
0
23.24555
23.63843
24.15199
24.80089
25.60164
0
0
0
0
0
0
0
0
0
0
0
0
0
0
0
0
0
0
0
0
22.36197
22.73586
23.22391
23.84018
24.59953
0
0
0
0
0
0
0
0
0
0
21.50213
21.85615
22.3196
22.90404
23.62354
0
0
0
0
0
0
0
0
0
0
20.69321
21.02833
21.46733
22.02207
22.70425
0
0
0
0
0
0
0
0
0
0
19.95119
20.26639
20.68265
21.20885
21.85694
0
0
0
0
0
0
0
0
0
0
19.28154
19.57677
19.96995
20.46996
21.08592
0
0
0
0
0
0
0
0
0
0
37.86245
38.61854
39.63086
40.94554
42.61474
0
0
0
0
0
0
0
0
0
0
36.33584
37.04873
38.00016
39.23151
40.78984
0
0
0
0
0
0
0
0
0
0
34.96556
35.64064
36.53951
37.69974
39.16344
0
0
0
0
0
0
0
0
0
0
33.71411
34.35588
35.20814
36.30574
37.68734
0
0
0
0
0
0
0
0
0
0
32.53613
33.14733
33.95743
34.99807
36.30508
0
0
0
0
0
0
0
0
0
0
31.3785
31.96062
32.73015
33.71689
34.95318
0
0
0
0
0
0
0
0
0
0
0
0
0
0
0
0
30.21118
30.76434
31.49441
32.42798
33.59528
0
0
0
0
0
0
0
0
0
0
0
0
0
0
0
0
0
29.06166
29.58667
30.27861
31.16185
32.26333
0
0
0
0
0
0
0
0
0
0
0
0
0
0
0
0
0
0
27.95839
28.45729
29.11335
29.94941
30.99016
0
0
0
0
0
0
0
0
0
0
0
0
0
0
0
0
0
0
0
26.91553
27.3896
28.01279
28.80523
29.79003
0
0
0
0
0
0
0
0
0
0
0
0
0
0
0
0
0
0
0
0
25.93461
26.38629
26.97861
27.73129
28.66475
0
0
0
0
0
0
0
0
0
0
0
0
0
0
0
0
0
0
0
0
25.01049
25.44151
26.00585
26.72133
27.60795
0
0
0
0
0
0
0
0
0
0
0
0
0
0
0
0
0
0
0
0
24.13243
24.54416
25.08255
25.76404
26.60669
0
0
0
0
0
0
0
0
0
0
0
0
0
0
0
0
0
0
0
0
23.2846
23.67739
24.19123
24.84075
25.64256
0
0
0
0
0
0
0
0
0
0
0
0
0
0
0
0
0
0
0
0
22.44571
22.82029
23.30973
23.92825
24.69074
0
0
0
0
0
0
0
0
0
0
0
0
0
0
0
0
0
0
0
0
21.60511
21.96026
22.42569
23.01306
23.73664
0
0
0
0
0
0
0
0
0
0
20.78643
21.12268
21.56349
22.12089
22.80667
0
0
0
0
0
0
0
0
0
0
20.01808
20.33409
20.75167
21.27974
21.93037
0
0
0
0
0
0
0
0
0
0
19.3145
19.61019
20.00404
20.50501
21.12224
0
0
0
0
0
0
0
0
0
0
18.68631
18.95648
19.32703
19.80111
20.38787
0
0
0
0
0
0
0
0
0
0
36.25826
36.96904
37.91737
39.14453
40.69724
0
0
0
0
0
0
0
0
0
0
34.82702
35.49873
36.39265
37.54584
39.00021
0
0
0
0
0
0
0
0
0
0
33.53982
34.17747
35.02379
36.11303
37.48323
0
0
0
0
0
0
0
0
0
0
32.36203
32.96947
33.77377
34.8063
36.10235
0
0
0
0
0
0
0
0
0
0
31.25143
31.8312
32.59693
33.57808
34.80667
0
0
0
0
0
0
0
0
0
0
30.15875
30.71145
31.44041
32.37212
33.53675
0
0
0
0
0
0
0
0
0
0
0
0
0
0
0
0
0
29.05592
29.58139
30.27368
31.15709
32.25855
0
0
0
0
0
0
0
0
0
0
0
0
0
0
0
0
0
0
27.96823
28.46772
29.12442
29.96118
31.00269
0
0
0
0
0
0
0
0
0
0
0
0
0
0
0
0
0
0