/*--------------------------------*- C++ -*----------------------------------*\
| =========                 |                                                 |
| \\      /  F ield         | OpenFOAM: The Open Source CFD Toolbox           |
|  \\    /   O peration     | Version:  2306                                  |
|   \\  /    A nd           | Website:  www.openfoam.com                      |
|    \\/     M anipulation  |                                                 |
\*---------------------------------------------------------------------------*/
FoamFile
{
    version     2.0;
    format      ascii;
    arch        "LSB;label=32;scalar=64";
    class       volScalarField;
    location    "0.6/fuel";
    object      iDmdtfuel.H2;
}
// * * * * * * * * * * * * * * * * * * * * * * * * * * * * * * * * * * * * * //

dimensions      [1 -3 -1 0 0 0 0];

internalField   nonuniform List<scalar> 
16000
(
-10.62378
-10.70569
-9.66254
-10.17245
-10.86996
-9.714051
-10.24835
-8.82231
-9.277149
-9.853232
-11.11731
-9.814586
-10.40044
-8.861003
-9.325139
-9.92512
-8.141437
-8.490847
-9.002385
-9.656105
-11.43887
-9.959346
-10.62923
-8.935602
-9.418738
-10.06913
-8.172875
-8.527064
-9.04797
-9.725763
-7.574169
-7.851223
-8.253149
-8.830481
-9.569218
-11.78413
-10.13498
-10.92636
-9.040805
-9.553437
-10.28575
-8.233058
-8.596846
-9.136849
-9.865341
-7.600749
-7.880761
-8.28765
-8.874662
-9.638174
-7.087463
-7.316621
-7.642257
-8.103113
-8.752285
-0
-12.04139
-10.30566
-11.24496
-9.16409
-9.71676
-10.56711
-8.316843
-8.695213
-9.264737
-10.07543
-7.651406
-7.937273
-8.354101
-8.960802
-9.776451
-7.110494
-7.341675
-7.670465
-8.136582
-8.795926
-0
-6.661526
-6.856672
-7.130612
-7.509593
-8.03361
-0
-0
-12.20052
-10.41956
-11.48136
-9.2774
-9.875354
-10.86892
-8.41286
-8.810431
-9.419806
-10.34872
-7.721299
-8.015916
-8.447757
-9.084788
-9.984881
-7.154259
-7.389395
-7.724414
-8.20104
-8.881042
-0
-6.681824
-6.878441
-7.154591
-7.53699
-8.066646
-0
-0
-6.283051
-6.453156
-6.689589
-7.012049
-7.447521
-0
-0
-0
-12.28885
-10.48142
-11.62699
-9.347007
-9.980855
-11.09218
-8.497884
-8.916245
-9.570376
-10.6425
-7.800126
-8.105993
-8.557447
-9.235231
-10.25674
-7.214246
-7.455208
-7.799474
-8.2919
-9.003638
-0
-6.72032
-6.919784
-7.200246
-7.589379
-8.130281
-0
-0
-6.301166
-6.472388
-6.710465
-7.035365
-7.474562
-0
-0
-0
-5.942906
-6.0938
-6.302012
-6.582775
-6.956246
-0
-0
-0
-0
-12.32781
-10.51172
-11.70757
-9.379994
-10.03799
-11.22936
-8.547042
-8.981077
-9.670252
-10.85943
-7.868051
-8.185686
-8.658148
-9.381431
-10.55006
-7.281082
-7.529388
-7.885429
-8.39835
-9.152587
-0
-6.772816
-6.976426
-7.263196
-7.662271
-8.220013
-0
-0
-6.335479
-6.508844
-6.750097
-7.079751
-7.526277
-0
-0
-0
-5.959232
-6.111002
-6.320487
-6.603097
-6.979267
-0
-0
-0
-0
-5.634509
-5.770172
-5.956301
-6.205169
-6.53232
-0
-0
-0
-0
-0
-12.32781
-10.52384
-11.74303
-9.393276
-10.06591
-11.30514
-8.567646
-9.011716
-9.724215
-10.99261
-7.905505
-8.231636
-8.71966
-9.478149
-10.76655
-7.33747
-7.593239
-7.961423
-8.496093
-9.297558
-0
-6.830748
-7.039492
-7.334126
-7.745752
-8.325218
-0
-0
-6.382078
-6.558534
-6.80438
-7.140948
-7.598246
-0
-0
-0
-5.990138
-6.143569
-6.355497
-6.641669
-7.02309
-0
-0
-0
-0
-5.649341
-5.785706
-5.972853
-6.223172
-6.552391
-0
-0
-0
-0
-0
-5.352933
-5.476192
-5.6445
-5.868044
-6.159319
-0
-0
-0
-0
-0
-0
-12.28885
-10.52384
-11.74303
-9.397528
-10.07706
-11.33845
-8.57407
-9.024014
-9.75055
-11.06617
-7.919515
-8.250826
-8.748645
-9.530332
-10.89955
-7.36737
-7.628339
-8.005091
-8.555596
-9.393236
-0
-6.878806
-7.092629
-7.39512
-7.819534
-8.421865
-0
-0
-6.433106
-6.613329
-6.864793
-7.209898
-7.680702
-0
-0
-0
-6.031978
-6.187775
-6.403201
-6.694497
-7.08352
-0
-0
-0
-0
-5.677411
-5.815099
-6.004178
-6.257281
-6.590488
-0
-0
-0
-0
-0
-5.366496
-5.490331
-5.659469
-5.884189
-6.177108
-0
-0
-0
-0
-0
-0
-5.094328
-5.207306
-5.360873
-5.563719
-5.826202
-0
-0
-0
-0
-0
-0
-0
-12.20052
-10.51172
-11.70757
-9.397528
-10.07706
-11.33845
-8.575282
-9.027938
-9.761063
-11.09852
-7.922551
-8.25677
-8.76025
-9.555802
-10.97315
-7.377397
-7.6414
-8.02325
-8.583555
-9.444825
-0
-6.903459
-7.120706
-7.428519
-7.86176
-8.480483
-0
-0
-6.474856
-6.658715
-6.915633
-7.26915
-7.753568
-0
-0
-0
-6.077508
-6.236143
-6.455778
-6.75328
-7.151622
-0
-0
-0
-0
-5.715311
-5.854871
-6.046686
-6.303753
-6.642669
-0
-0
-0
-0
-0
-5.392165
-5.517077
-5.687784
-5.914739
-6.210811
-0
-0
-0
-0
-0
-0
-5.106799
-5.220257
-5.374516
-5.578334
-5.842162
-0
-0
-0
-0
-0
-0
-0
-4.855638
-4.959948
-5.10112
-5.286661
-5.525393
-0
-0
-0
-0
-0
-0
-0
-0
-12.04139
-10.48142
-11.62699
-9.393276
-10.06591
-11.30514
-8.575282
-9.027938
-9.761063
-11.09852
-7.922348
-8.257872
-8.763943
-9.565979
-11.00557
-7.378541
-7.644181
-8.028834
-8.59473
-9.470043
-0
-6.910885
-7.13005
-7.440869
-7.879235
-8.507948
-0
-0
-6.495671
-6.681904
-6.942381
-7.301446
-7.795077
-0
-0
-0
-6.114342
-6.275651
-6.499267
-6.802702
-7.21011
-0
-0
-0
-0
-5.756337
-5.898114
-6.093168
-6.354961
-6.70074
-0
-0
-0
-0
-0
-5.426748
-5.553172
-5.726084
-5.956188
-6.256732
-0
-0
-0
-0
-0
-0
-5.130408
-5.244758
-5.400317
-5.605973
-5.872359
-0
-0
-0
-0
-0
-0
-0
-4.867157
-4.971875
-5.113633
-5.299992
-5.539845
-0
-0
-0
-0
-0
-0
-0
-0
-4.634444
-4.731285
-4.861875
-5.032721
-5.251439
-0
-0
-0
-0
-0
-0
-0
-0
-0
-11.78413
-10.41956
-11.48136
-9.379994
-10.03799
-11.22936
-8.57407
-9.024014
-9.75055
-11.06617
-7.922348
-8.257872
-8.763943
-9.565979
-11.00557
-7.377603
-7.643955
-8.029847
-8.598282
-9.480143
-0
-6.910896
-7.131055
-7.443444
-7.884569
-8.518912
-0
-0
-6.501306
-6.688815
-6.951202
-7.313302
-7.812162
-0
-0
-0
-6.13226
-6.295259
-6.52138
-6.828571
-7.241821
-0
-0
-0
-0
-5.789213
-5.933033
-6.131077
-6.397267
-6.749522
-0
-0
-0
-0
-0
-5.464018
-5.592207
-5.767701
-6.0015
-6.307333
-0
-0
-0
-0
-0
-0
-5.162157
-5.277749
-5.435123
-5.643354
-5.913334
-0
-0
-0
-0
-0
-0
-0
-4.888977
-4.994445
-5.137298
-5.325199
-5.567177
-0
-0
-0
-0
-0
-0
-0
-0
-4.645128
-4.742319
-4.873411
-5.044958
-5.264628
-0
-0
-0
-0
-0
-0
-0
-0
-0
-4.428757
-4.519078
-4.640458
-4.798652
-5.000259
-0
-0
-0
-0
-0
-0
-0
-0
-0
-0
-11.43887
-10.30566
-11.24496
-9.347007
-9.980855
-11.09218
-8.567646
-9.011716
-9.724215
-10.99261
-7.922551
-8.25677
-8.76025
-9.555802
-10.97315
-7.377603
-7.643955
-8.029847
-8.598282
-9.480143
-0
-6.909558
-7.130134
-7.443191
-7.885517
-8.522398
-0
-0
-6.500612
-6.688751
-6.952084
-7.315718
-7.817333
-0
-0
-0
-6.136629
-6.300492
-6.527889
-6.837017
-7.253367
-0
-0
-0
-0
-5.804867
-5.949937
-6.149793
-6.41866
-6.774907
-0
-0
-0
-0
-0
-5.49365
-5.623427
-5.801251
-6.038407
-6.349097
-0
-0
-0
-0
-0
-0
-5.196246
-5.313271
-5.47274
-5.683958
-5.958125
-0
-0
-0
-0
-0
-0
-0
-4.918277
-5.024782
-5.169152
-5.359199
-5.604144
-0
-0
-0
-0
-0
-0
-0
-0
-4.665378
-4.76321
-4.895238
-5.068097
-5.289565
-0
-0
-0
-0
-0
-0
-0
-0
-0
-4.438699
-4.529324
-4.651142
-4.809943
-5.01237
-0
-0
-0
-0
-0
-0
-0
-0
-0
-0
-4.236871
-4.321477
-4.434754
-4.58187
-4.768655
-0
-0
-0
-0
-0
-0
-0
-0
-0
-0
-11.11731
-10.13498
-10.92636
-9.2774
-9.875353
-10.86892
-8.547042
-8.981077
-9.670252
-10.85943
-7.919515
-8.250826
-8.748645
-9.530332
-10.89955
-7.378541
-7.644181
-8.028834
-8.59473
-9.470043
-0
-6.909558
-7.130134
-7.443191
-7.885517
-8.522398
-0
-0
-6.499053
-6.687448
-6.951165
-7.315435
-7.818232
-0
-0
-0
-6.135493
-6.299759
-6.52775
-6.837793
-7.25566
-0
-0
-0
-0
-5.808306
-5.953982
-6.154708
-6.424875
-6.783104
-0
-0
-0
-0
-0
-5.507501
-5.638215
-5.817401
-6.056522
-6.370086
-0
-0
-0
-0
-0
-0
-5.223172
-5.341456
-5.502774
-5.716647
-5.994568
-0
-0
-0
-0
-0
-0
-0
-4.949642
-5.057324
-5.203426
-5.395932
-5.644297
-0
-0
-0
-0
-0
-0
-0
-0
-4.692538
-4.791249
-4.924564
-5.099238
-5.323201
-0
-0
-0
-0
-0
-0
-0
-0
-0
-4.457558
-4.54874
-4.671367
-4.8313
-5.035269
-0
-0
-0
-0
-0
-0
-0
-0
-0
-0
-4.246144
-4.331025
-4.444686
-4.592333
-4.779833
-0
-0
-0
-0
-0
-0
-0
-0
-0
-0
-4.057358
-4.136898
-4.243015
-4.380333
-4.554085
-0
-0
-0
-0
-0
-0
-0
-0
-0
-0
-10.86996
-9.959346
-10.62923
-9.16409
-9.71676
-10.56711
-8.497884
-8.916245
-9.570376
-10.6425
-7.905505
-8.231636
-8.71966
-9.478149
-10.76655
-7.377397
-7.6414
-8.02325
-8.583555
-9.444825
-0
-6.910896
-7.131055
-7.443444
-7.884569
-8.518912
-0
-0
-6.499053
-6.687448
-6.951165
-7.315435
-7.818232
-0
-0
-0
-6.133825
-6.298246
-6.526464
-6.836862
-7.255341
-0
-0
-0
-0
-5.806892
-5.952831
-6.15393
-6.424663
-6.783784
-0
-0
-0
-0
-0
-5.51025
-5.641387
-5.821187
-6.061198
-6.376096
-0
-0
-0
-0
-0
-0
-5.235562
-5.354557
-5.516915
-5.732285
-6.012339
-0
-0
-0
-0
-0
-0
-0
-4.974286
-5.082974
-5.230572
-5.425217
-5.676584
-0
-0
-0
-0
-0
-0
-0
-0
-4.721537
-4.821235
-4.955999
-5.132733
-5.35954
-0
-0
-0
-0
-0
-0
-0
-0
-0
-4.482824
-4.574767
-4.698503
-4.859992
-5.06609
-0
-0
-0
-0
-0
-0
-0
-0
-0
-0
-4.263753
-4.349131
-4.463502
-4.612138
-4.800977
-0
-0
-0
-0
-0
-0
-0
-0
-0
-0
-4.066039
-4.145814
-4.252279
-4.390066
-4.564447
-0
-0
-0
-0
-0
-0
-0
-0
-0
-0
-3.889049
-3.96401
-4.063739
-4.192356
-4.354541
-0
-0
-0
-0
-0
-0
-0
-0
-0
-0
-10.70569
-9.814586
-10.40044
-9.040805
-9.553437
-10.28575
-8.41286
-8.810431
-9.419806
-10.34872
-7.868051
-8.185686
-8.658148
-9.381431
-10.55006
-7.36737
-7.628339
-8.005091
-8.555596
-9.393236
-0
-6.910885
-7.13005
-7.440869
-7.879235
-8.507948
-0
-0
-6.500612
-6.688751
-6.952084
-7.315718
-7.817333
-0
-0
-0
-6.133825
-6.298246
-6.526464
-6.836862
-7.255341
-0
-0
-0
-0
-5.805178
-5.95121
-6.15244
-6.423376
-6.782828
-0
-0
-0
-0
-0
-5.508669
-5.639972
-5.820009
-6.060368
-6.375809
-0
-0
-0
-0
-0
-0
-5.237792
-5.357083
-5.519874
-5.735875
-6.016845
-0
-0
-0
-0
-0
-0
-0
-4.985479
-5.094708
-5.243113
-5.438917
-5.691929
-0
-0
-0
-0
-0
-0
-0
-0
-4.744221
-4.844745
-4.980733
-5.159222
-5.388475
-0
-0
-0
-0
-0
-0
-0
-0
-0
-4.509733
-4.602529
-4.727501
-4.890736
-5.099237
-0
-0
-0
-0
-0
-0
-0
-0
-0
-0
-4.287327
-4.373374
-4.488717
-4.638705
-4.829383
-0
-0
-0
-0
-0
-0
-0
-0
-0
-0
-4.082539
-4.162739
-4.269843
-4.408504
-4.584061
-0
-0
-0
-0
-0
-0
-0
-0
-0
-0
-3.897196
-3.972365
-4.072398
-4.20144
-4.364184
-0
-0
-0
-0
-0
-0
-0
-0
-0
-0
-3.730908
-3.801726
-3.895666
-4.016488
-4.168366
-0
-0
-0
-0
-0
-0
-0
-0
-0
-0
-10.62378
-9.714051
-10.24835
-8.935602
-9.418738
-10.06913
-8.316843
-8.695213
-9.264737
-10.07543
-7.800126
-8.105993
-8.557447
-9.235231
-10.25674
-7.33747
-7.593239
-7.961423
-8.496093
-9.297558
-0
-6.903459
-7.120706
-7.428519
-7.86176
-8.480483
-0
-0
-6.501306
-6.688815
-6.951202
-7.313302
-7.812162
-0
-0
-0
-6.135493
-6.299759
-6.52775
-6.837793
-7.25566
-0
-0
-0
-0
-5.805178
-5.95121
-6.15244
-6.423376
-6.782828
-0
-0
-0
-0
-0
-5.506952
-5.638306
-5.818416
-6.058883
-6.374503
-0
-0
-0
-0
-0
-0
-5.236122
-5.35551
-5.518444
-5.73466
-6.015956
-0
-0
-0
-0
-0
-0
-0
-4.987318
-5.096748
-5.245458
-5.44171
-5.695374
-0
-0
-0
-0
-0
-0
-0
-0
-4.754407
-4.855358
-4.991975
-5.171379
-5.40192
-0
-0
-0
-0
-0
-0
-0
-0
-0
-4.530701
-4.6242
-4.750195
-4.914888
-5.125419
-0
-0
-0
-0
-0
-0
-0
-0
-0
-0
-4.312398
-4.39917
-4.515594
-4.667086
-4.859819
-0
-0
-0
-0
-0
-0
-0
-0
-0
-0
-4.104618
-4.185388
-4.293353
-4.433207
-4.610373
-0
-0
-0
-0
-0
-0
-0
-0
-0
-0
-3.912699
-3.988245
-4.088832
-4.218662
-4.382449
-0
-0
-0
-0
-0
-0
-0
-0
-0
-0
-3.738565
-3.809575
-3.903786
-4.024984
-4.177368
-0
-0
-0
-0
-0
-0
-0
-0
-0
-0
-3.581977
-3.649078
-3.737764
-3.851513
-3.994133
-0
-0
-0
-0
-0
-0
-0
-0
-0
-0
-9.66254
-10.17245
-8.861003
-9.325139
-9.92512
-8.233058
-8.596846
-9.136849
-9.865341
-7.721299
-8.015916
-8.447757
-9.084788
-9.984881
-7.281082
-7.529388
-7.885429
-8.39835
-9.152587
-0
-6.878806
-7.092629
-7.39512
-7.819534
-8.421865
-0
-0
-6.495671
-6.681904
-6.942381
-7.301446
-7.795077
-0
-0
-0
-6.136629
-6.300492
-6.527889
-6.837017
-7.253367
-0
-0
-0
-0
-5.806892
-5.952831
-6.15393
-6.424663
-6.783784
-0
-0
-0
-0
-0
-5.506952
-5.638306
-5.818416
-6.058883
-6.374503
-0
-0
-0
-0
-0
-0
-5.234429
-5.353839
-5.516806
-5.733074
-6.014457
-0
-0
-0
-0
-0
-0
-0
-4.985612
-5.09509
-5.243878
-5.440253
-5.69411
-0
-0
-0
-0
-0
-0
-0
-0
-4.755939
-4.857033
-4.993859
-5.173582
-5.40459
-0
-0
-0
-0
-0
-0
-0
-0
-0
-4.540028
-4.63387
-4.760372
-4.925792
-5.137352
-0
-0
-0
-0
-0
-0
-0
-0
-0
-0
-4.331884
-4.419226
-4.536533
-4.689262
-4.8837
-0
-0
-0
-0
-0
-0
-0
-0
-0
-0
-0
-4.128065
-4.209451
-4.318349
-4.459529
-4.638479
-0
-0
-0
-0
-0
-0
-0
-0
-0
-0
-3.933432
-4.00948
-4.110814
-4.241709
-4.406923
-0
-0
-0
-0
-0
-0
-0
-0
-0
-0
-3.753156
-3.824511
-3.919218
-4.041107
-4.194434
-0
-0
-0
-0
-0
-0
-0
-0
-0
-0
-3.589192
-3.656464
-3.745399
-3.859485
-4.002553
-0
-0
-0
-0
-0
-0
-0
-0
-0
-0
-3.441469
-3.505171
-3.589117
-3.696435
-3.830644
-0
-0
-0
-0
-0
-0
-0
-0
-0
-0
-8.82231
-9.277149
-9.853232
-8.172875
-8.527064
-9.04797
-9.725763
-7.651406
-7.937273
-8.354101
-8.960802
-9.776451
-7.214246
-7.455208
-7.799474
-8.2919
-9.003638
-0
-6.830748
-7.039492
-7.334126
-7.745752
-8.325218
-0
-0
-6.474856
-6.658715
-6.915633
-7.26915
-7.753568
-0
-0
-0
-6.13226
-6.295259
-6.52138
-6.828571
-7.241821
-0
-0
-0
-0
-5.808306
-5.953982
-6.154708
-6.424875
-6.783104
-0
-0
-0
-0
-0
-5.508669
-5.639972
-5.820009
-6.060368
-6.375809
-0
-0
-0
-0
-0
-0
-5.234429
-5.353839
-5.516806
-5.733074
-6.014457
-0
-0
-0
-0
-0
-0
-0
-4.983962
-5.093441
-5.242235
-5.438625
-5.692515
-0
-0
-0
-0
-0
-0
-0
-0
-4.754226
-4.855341
-4.992198
-5.171981
-5.403092
-0
-0
-0
-0
-0
-0
-0
-0
-0
-4.541324
-4.635258
-4.761913
-4.927555
-5.139449
-0
-0
-0
-0
-0
-0
-0
-0
-0
-0
-4.340491
-4.42809
-4.545815
-4.69914
-4.894407
-0
-0
-0
-0
-0
-0
-0
-0
-0
-0
-0
-4.146251
-4.228112
-4.337748
-4.480005
-4.660413
-0
-0
-0
-0
-0
-0
-0
-0
-0
-0
-0
-0
-3.955423
-4.032011
-4.134154
-4.266205
-4.432998
-0
-0
-0
-0
-0
-0
-0
-0
-0
-0
-3.772659
-3.844475
-3.939847
-4.062671
-4.217274
-0
-0
-0
-0
-0
-0
-0
-0
-0
-0
-3.602959
-3.670534
-3.759926
-3.874633
-4.018536
-0
-0
-0
-0
-0
-0
-0
-0
-0
-0
-3.448279
-3.512137
-3.596307
-3.703934
-3.838548
-0
-0
-0
-0
-0
-0
-0
-0
-0
-0
-3.308678
-3.369268
-3.448872
-3.550368
-3.676922
-0
-0
-0
-0
-0
-0
-0
-0
-0
-0
-8.141437
-8.490847
-9.002385
-9.656105
-7.600749
-7.880761
-8.28765
-8.874662
-9.638174
-7.154259
-7.389395
-7.724414
-8.20104
-8.881042
-0
-6.772816
-6.976426
-7.263196
-7.662271
-8.220013
-0
-0
-6.433106
-6.613329
-6.864793
-7.209898
-7.680702
-0
-0
-0
-6.114342
-6.275651
-6.499267
-6.802702
-7.21011
-0
-0
-0
-0
-5.804867
-5.949937
-6.149793
-6.41866
-6.774907
-0
-0
-0
-0
-0
-5.51025
-5.641387
-5.821187
-6.061198
-6.376096
-0
-0
-0
-0
-0
-0
-5.236121
-5.35551
-5.518444
-5.73466
-6.015956
-0
-0
-0
-0
-0
-0
-0
-4.983962
-5.093441
-5.242235
-5.438625
-5.692515
-0
-0
-0
-0
-0
-0
-0
-0
-4.752626
-4.853733
-4.990576
-5.170349
-5.401456
-0
-0
-0
-0
-0
-0
-0
-0
-0
-4.539635
-4.63356
-4.760221
-4.925878
-5.137814
-0
-0
-0
-0
-0
-0
-0
-0
-0
-0
-4.341613
-4.429259
-4.547084
-4.700573
-4.896076
-0
-0
-0
-0
-0
-0
-0
-0
-0
-0
-0
-4.154242
-4.236302
-4.346263
-4.489019
-4.670116
-0
-0
-0
-0
-0
-0
-0
-0
-0
-0
-0
-0
-3.972447
-4.049448
-4.15222
-4.285186
-4.453258
-0
-0
-0
-0
-0
-0
-0
-0
-0
-0
-0
-0
-0
-3.793327
-3.865629
-3.96172
-4.085556
-4.241548
-0
-0
-0
-0
-0
-0
-0
-0
-0
-0
-3.621358
-3.689333
-3.779336
-3.894881
-4.039912
-0
-0
-0
-0
-0
-0
-0
-0
-0
-0
-3.461291
-3.525426
-3.610002
-3.718201
-3.853568
-0
-0
-0
-0
-0
-0
-0
-0
-0
-0
-3.315119
-3.375849
-3.455658
-3.557433
-3.684359
-0
-0
-0
-0
-0
-0
-0
-0
-0
-0
-3.183061
-3.240707
-3.316328
-3.412486
-3.532094
-0
-0
-0
-0
-0
-0
-0
-0
-0
-0
-7.574169
-7.851223
-8.253149
-8.830481
-9.569218
-7.110494
-7.341675
-7.670465
-8.136582
-8.795926
-0
-6.72032
-6.919784
-7.200246
-7.589379
-8.130281
-0
-0
-6.382078
-6.558534
-6.80438
-7.140948
-7.598246
-0
-0
-0
-6.077508
-6.236143
-6.455778
-6.75328
-7.151622
-0
-0
-0
-0
-5.789213
-5.933033
-6.131077
-6.397267
-6.749522
-0
-0
-0
-0
-0
-5.507501
-5.638215
-5.817401
-6.056522
-6.370086
-0
-0
-0
-0
-0
-0
-5.237792
-5.357083
-5.519874
-5.735875
-6.016845
-0
-0
-0
-0
-0
-0
-0
-4.985612
-5.09509
-5.243878
-5.440253
-5.69411
-0
-0
-0
-0
-0
-0
-0
-0
-4.752627
-4.853733
-4.990576
-5.170349
-5.401456
-0
-0
-0
-0
-0
-0
-0
-0
-0
-4.538096
-4.632
-4.758638
-4.924266
-5.136176
-0
-0
-0
-0
-0
-0
-0
-0
-0
-0
-4.339967
-4.427585
-4.545389
-4.698869
-4.89437
-0
-0
-0
-0
-0
-0
-0
-0
-0
-0
-0
-4.15523
-4.23731
-4.347327
-4.490193
-4.671467
-0
-0
-0
-0
-0
-0
-0
-0
-0
-0
-0
-0
-3.979889
-4.057061
-4.160095
-4.293461
-4.462116
-0
-0
-0
-0
-0
-0
-0
-0
-0
-0
-0
-0
-0
-3.809311
-3.88197
-3.978616
-4.103244
-4.260335
-0
-0
-0
-0
-0
-0
-0
-0
-0
-0
-0
-0
-0
-0
-3.640842
-3.709235
-3.799889
-3.91634
-4.062596
-0
-0
-0
-0
-0
-0
-0
-0
-0
-0
-3.478678
-3.543178
-3.628293
-3.737262
-3.873645
-0
-0
-0
-0
-0
-0
-0
-0
-0
-0
-3.327444
-3.38842
-3.468602
-3.57089
-3.698509
-0
-0
-0
-0
-0
-0
-0
-0
-0
-0
-3.189164
-3.246936
-3.322742
-3.419157
-3.539103
-0
-0
-0
-0
-0
-0
-0
-0
-0
-0
-3.06406
-3.118981
-3.190855
-3.282112
-3.395348
-0
-0
-0
-0
-0
-0
-0
-0
-0
-0
-7.087463
-7.316621
-7.642257
-8.103113
-8.752285
-0
-6.681824
-6.878441
-7.154591
-7.53699
-8.066646
-0
-0
-6.335479
-6.508844
-6.750097
-7.079751
-7.526277
-0
-0
-0
-6.031978
-6.187775
-6.403201
-6.694497
-7.08352
-0
-0
-0
-0
-5.756337
-5.898114
-6.093168
-6.354961
-6.70074
-0
-0
-0
-0
-0
-5.49365
-5.623427
-5.801251
-6.038407
-6.349097
-0
-0
-0
-0
-0
-0
-5.235562
-5.354557
-5.516915
-5.732285
-6.012339
-0
-0
-0
-0
-0
-0
-0
-4.987318
-5.096748
-5.245458
-5.44171
-5.695374
-0
-0
-0
-0
-0
-0
-0
-0
-4.754226
-4.855341
-4.992198
-5.171981
-5.403092
-0
-0
-0
-0
-0
-0
-0
-0
-0
-4.538096
-4.632
-4.758638
-4.924266
-5.136176
-0
-0
-0
-0
-0
-0
-0
-0
-0
-0
-4.338495
-4.426082
-4.543852
-4.697297
-4.892754
-0
-0
-0
-0
-0
-0
-0
-0
-0
-0
-0
-4.153641
-4.235679
-4.345656
-4.488488
-4.669738
-0
-0
-0
-0
-0
-0
-0
-0
-0
-0
-0
-0
-3.980763
-4.057946
-4.161008
-4.29444
-4.463217
-0
-0
-0
-0
-0
-0
-0
-0
-0
-0
-0
-0
-0
-3.816284
-3.889067
-3.985942
-4.110902
-4.26847
-0
-0
-0
-0
-0
-0
-0
-0
-0
-0
-0
-0
-0
-0
-3.655898
-3.724595
-3.815736
-3.932893
-4.08011
-0
-0
-0
-0
-0
-0
-0
-0
-0
-0
-0
-0
-0
-0
-0
-3.497082
-3.561958
-3.647645
-3.757438
-3.894922
-0
-0
-0
-0
-0
-0
-0
-0
-0
-0
-3.343914
-3.405211
-3.485887
-3.588862
-3.717414
-0
-0
-0
-0
-0
-0
-0
-0
-0
-0
-3.20086
-3.258854
-3.334996
-3.431883
-3.552453
-0
-0
-0
-0
-0
-0
-0
-0
-0
-0
-3.069853
-3.124889
-3.19693
-3.288421
-3.401967
-0
-0
-0
-0
-0
-0
-0
-0
-0
-0
-2.951294
-3.003569
-3.071973
-3.158635
-3.266017
-0
-0
-0
-0
-0
-0
-0
-0
-0
-0
-6.661526
-6.856672
-7.130612
-7.509593
-8.03361
-0
-0
-6.301166
-6.472388
-6.710465
-7.035365
-7.474562
-0
-0
-0
-5.990138
-6.143569
-6.355497
-6.641669
-7.02309
-0
-0
-0
-0
-5.715311
-5.854871
-6.046686
-6.303753
-6.642669
-0
-0
-0
-0
-0
-5.464018
-5.592207
-5.767701
-6.0015
-6.307333
-0
-0
-0
-0
-0
-0
-5.223172
-5.341456
-5.502774
-5.716647
-5.994568
-0
-0
-0
-0
-0
-0
-0
-4.985478
-5.094708
-5.243113
-5.438917
-5.691929
-0
-0
-0
-0
-0
-0
-0
-0
-4.755939
-4.857033
-4.993859
-5.173582
-5.40459
-0
-0
-0
-0
-0
-0
-0
-0
-0
-4.539634
-4.63356
-4.760221
-4.925877
-5.137814
-0
-0
-0
-0
-0
-0
-0
-0
-0
-0
-4.338495
-4.426082
-4.543852
-4.697297
-4.892754
-0
-0
-0
-0
-0
-0
-0
-0
-0
-0
-0
-4.152235
-4.23424
-4.344176
-4.486962
-4.668162
-0
-0
-0
-0
-0
-0
-0
-0
-0
-0
-0
-0
-3.97923
-4.056371
-4.159381
-4.292761
-4.46149
-0
-0
-0
-0
-0
-0
-0
-0
-0
-0
-0
-0
-0
-3.817081
-3.889848
-3.986742
-4.111738
-4.269383
-0
-0
-0
-0
-0
-0
-0
-0
-0
-0
-0
-0
-0
-0
-3.662452
-3.731252
-3.822572
-3.940021
-4.08764
-0
-0
-0
-0
-0
-0
-0
-0
-0
-0
-0
-0
-0
-0
-0
-3.511301
-3.576441
-3.662553
-3.772972
-3.911316
-0
-0
-0
-0
-0
-0
-0
-0
-0
-0
-0
-0
-0
-0
-0
-0
-3.361342
-3.422967
-3.504161
-3.607868
-3.737424
-0
-0
-0
-0
-0
-0
-0
-0
-0
-0
-3.216491
-3.274773
-3.351357
-3.448874
-3.570281
-0
-0
-0
-0
-0
-0
-0
-0
-0
-0
-3.080971
-3.136209
-3.208555
-3.300472
-3.414594
-0
-0
-0
-0
-0
-0
-0
-0
-0
-0
-2.956799
-3.00918
-3.077738
-3.164613
-3.272277
-0
-0
-0
-0
-0
-0
-0
-0
-0
-0
-2.844248
-2.894115
-2.959184
-3.041592
-3.143498
-0
-0
-0
-0
-0
-0
-0
-0
-0
-0
-6.283051
-6.453156
-6.689589
-7.012049
-7.447521
-0
-0
-0
-5.959232
-6.111002
-6.320487
-6.603097
-6.979267
-0
-0
-0
-0
-5.677411
-5.815099
-6.004178
-6.257281
-6.590488
-0
-0
-0
-0
-0
-5.426748
-5.553172
-5.726084
-5.956188
-6.256732
-0
-0
-0
-0
-0
-0
-5.196246
-5.313271
-5.47274
-5.683958
-5.958125
-0
-0
-0
-0
-0
-0
-0
-4.974285
-5.082974
-5.230572
-5.425217
-5.676584
-0
-0
-0
-0
-0
-0
-0
-0
-4.754407
-4.855357
-4.991975
-5.171379
-5.40192
-0
-0
-0
-0
-0
-0
-0
-0
-0
-4.541323
-4.635258
-4.761912
-4.927555
-5.139449
-0
-0
-0
-0
-0
-0
-0
-0
-0
-0
-4.339968
-4.427585
-4.545389
-4.698869
-4.89437
-0
-0
-0
-0
-0
-0
-0
-0
-0
-0
-0
-4.152235
-4.23424
-4.344176
-4.486962
-4.668162
-0
-0
-0
-0
-0
-0
-0
-0
-0
-0
-0
-0
-3.977889
-4.054995
-4.157962
-4.29129
-4.45996
-0
-0
-0
-0
-0
-0
-0
-0
-0
-0
-0
-0
-0
-3.815618
-3.888328
-3.985171
-4.110105
-4.267684
-0
-0
-0
-0
-0
-0
-0
-0
-0
-0
-0
-0
-0
-0
-3.663183
-3.731963
-3.823275
-3.940751
-4.088417
-0
-0
-0
-0
-0
-0
-0
-0
-0
-0
-0
-0
-0
-0
-0
-3.517488
-3.582705
-3.66897
-3.779628
-3.918329
-0
-0
-0
-0
-0
-0
-0
-0
-0
-0
-0
-0
-0
-0
-0
-0
-3.37481
-3.436658
-3.518229
-3.622489
-3.752813
-0
-0
-0
-0
-0
-0
-0
-0
-0
-0
-0
-0
-0
-0
-0
-0
-0
-3.23303
-3.291603
-3.368647
-3.46683
-3.589136
-0
-0
-0
-0
-0
-0
-0
-0
-0
-0
-3.095831
-3.151329
-3.224076
-3.316562
-3.431454
-0
-0
-0
-0
-0
-0
-0
-0
-0
-0
-2.967382
-3.019949
-3.088785
-3.176051
-3.284238
-0
-0
-0
-0
-0
-0
-0
-0
-0
-0
-2.849488
-2.899451
-2.964662
-3.047266
-3.149432
-0
-0
-0
-0
-0
-0
-0
-0
-0
-0
-2.742522
-2.790133
-2.852152
-2.9305
-3.02734
-0
-0
-0
-0
-0
-0
-0
-0
-0
-0
-5.942906
-6.0938
-6.302012
-6.582775
-6.956246
-0
-0
-0
-0
-5.649341
-5.785706
-5.972853
-6.223172
-6.552391
-0
-0
-0
-0
-0
-5.392165
-5.517077
-5.687784
-5.914739
-6.210811
-0
-0
-0
-0
-0
-0
-5.162157
-5.277749
-5.435123
-5.643354
-5.913334
-0
-0
-0
-0
-0
-0
-0
-4.949641
-5.057324
-5.203426
-5.395932
-5.644297
-0
-0
-0
-0
-0
-0
-0
-0
-4.744221
-4.844744
-4.980732
-5.159222
-5.388475
-0
-0
-0
-0
-0
-0
-0
-0
-0
-4.540026
-4.63387
-4.760372
-4.925792
-5.137352
-0
-0
-0
-0
-0
-0
-0
-0
-0
-0
-4.341613
-4.429258
-4.547084
-4.700573
-4.896076
-0
-0
-0
-0
-0
-0
-0
-0
-0
-0
-0
-4.153641
-4.23568
-4.345656
-4.488488
-4.669738
-0
-0
-0
-0
-0
-0
-0
-0
-0
-0
-0
-0
-3.977889
-4.054995
-4.157962
-4.29129
-4.45996
-0
-0
-0
-0
-0
-0
-0
-0
-0
-0
-0
-0
-0
-3.814344
-3.887015
-3.983814
-4.108694
-4.266211
-0
-0
-0
-0
-0
-0
-0
-0
-0
-0
-0
-0
-0
-0
-3.661786
-3.730512
-3.821759
-3.939174
-4.086766
-0
-0
-0
-0
-0
-0
-0
-0
-0
-0
-0
-0
-0
-0
-0
-3.518175
-3.583357
-3.66961
-3.780267
-3.919005
-0
-0
-0
-0
-0
-0
-0
-0
-0
-0
-0
-0
-0
-0
-0
-0
-3.380678
-3.442577
-3.524273
-3.628741
-3.759364
-0
-0
-0
-0
-0
-0
-0
-0
-0
-0
-0
-0
-0
-0
-0
-0
-0
-3.245819
-3.304583
-3.381954
-3.480634
-3.603625
-0
-0
-0
-0
-0
-0
-0
-0
-0
-0
-0
-0
-0
-0
-0
-0
-0
-0
-3.111556
-3.167314
-3.240475
-3.333559
-3.449272
-0
-0
-0
-0
-0
-0
-0
-0
-0
-0
-2.981529
-3.034335
-3.103538
-3.191321
-3.300207
-0
-0
-0
-0
-0
-0
-0
-0
-0
-0
-2.859576
-2.909709
-2.975178
-3.058141
-3.160787
-0
-0
-0
-0
-0
-0
-0
-0
-0
-0
-2.747516
-2.795215
-2.857365
-2.935895
-3.032973
-0
-0
-0
-0
-0
-0
-0
-0
-0
-0
-2.645806
-2.691244
-2.750412
-2.825037
-2.917063
-0
-0
-0
-0
-0
-0
-0
-0
-0
-0
-5.634509
-5.770172
-5.956301
-6.205169
-6.53232
-0
-0
-0
-0
-0
-5.366496
-5.490331
-5.659469
-5.884189
-6.177108
-0
-0
-0
-0
-0
-0
-5.130408
-5.244758
-5.400317
-5.605973
-5.872359
-0
-0
-0
-0
-0
-0
-0
-4.918276
-5.024782
-5.169152
-5.359199
-5.604144
-0
-0
-0
-0
-0
-0
-0
-0
-4.721537
-4.821234
-4.955999
-5.132733
-5.35954
-0
-0
-0
-0
-0
-0
-0
-0
-0
-4.530699
-4.6242
-4.750194
-4.914888
-5.125419
-0
-0
-0
-0
-0
-0
-0
-0
-0
-0
-4.340491
-4.428088
-4.545815
-4.699139
-4.894407
-0
-0
-0
-0
-0
-0
-0
-0
-0
-0
-0
-4.15523
-4.23731
-4.347326
-4.490193
-4.671467
-0
-0
-0
-0
-0
-0
-0
-0
-0
-0
-0
-0
-3.97923
-4.056371
-4.159382
-4.29276
-4.46149
-0
-0
-0
-0
-0
-0
-0
-0
-0
-0
-0
-0
-0
-3.814344
-3.887015
-3.983814
-4.108694
-4.266211
-0
-0
-0
-0
-0
-0
-0
-0
-0
-0
-0
-0
-0
-0
-3.660576
-3.729264
-3.820463
-3.937825
-4.085353
-0
-0
-0
-0
-0
-0
-0
-0
-0
-0
-0
-0
-0
-0
-0
-3.516851
-3.581971
-3.668162
-3.778745
-3.917411
-0
-0
-0
-0
-0
-0
-0
-0
-0
-0
-0
-0
-0
-0
-0
-0
-3.381338
-3.443191
-3.524859
-3.629322
-3.759954
-0
-0
-0
-0
-0
-0
-0
-0
-0
-0
-0
-0
-0
-0
-0
-0
-0
-3.251402
-3.310203
-3.387671
-3.486526
-3.60978
-0
-0
-0
-0
-0
-0
-0
-0
-0
-0
-0
-0
-0
-0
-0
-0
-0
-0
-3.123727
-3.17965
-3.253101
-3.346624
-3.462955
-0
-0
-0
-0
-0
-0
-0
-0
-0
-0
-0
-0
-0
-0
-0
-0
-0
-0
-0
-2.996503
-3.049546
-3.119123
-3.207449
-3.317077
-0
-0
-0
-0
-0
-0
-0
-0
-0
-0
-2.873067
-2.923416
-2.989223
-3.072661
-3.175946
-0
-0
-0
-0
-0
-0
-0
-0
-0
-0
-2.757148
-2.805
-2.867388
-2.94625
-3.043771
-0
-0
-0
-0
-0
-0
-0
-0
-0
-0
-2.65057
-2.69609
-2.75538
-2.830172
-2.92242
-0
-0
-0
-0
-0
-0
-0
-0
-0
-0
-2.553805
-2.597158
-2.653601
-2.724749
-2.812354
-0
-0
-0
-0
-0
-0
-0
-0
-0
-0
-5.352933
-5.476192
-5.6445
-5.868044
-6.159319
-0
-0
-0
-0
-0
-0
-5.106799
-5.220257
-5.374516
-5.578334
-5.842162
-0
-0
-0
-0
-0
-0
-0
-4.888976
-4.994445
-5.137298
-5.325199
-5.567177
-0
-0
-0
-0
-0
-0
-0
-0
-4.692538
-4.791248
-4.924564
-5.099238
-5.323201
-0
-0
-0
-0
-0
-0
-0
-0
-0
-4.509731
-4.60253
-4.7275
-4.890736
-5.099237
-0
-0
-0
-0
-0
-0
-0
-0
-0
-0
-4.331883
-4.419224
-4.536533
-4.689261
-4.8837
-0
-0
-0
-0
-0
-0
-0
-0
-0
-0
-0
-4.154242
-4.236302
-4.346262
-4.489019
-4.670116
-0
-0
-0
-0
-0
-0
-0
-0
-0
-0
-0
-0
-3.980763
-4.057945
-4.161008
-4.294439
-4.463217
-0
-0
-0
-0
-0
-0
-0
-0
-0
-0
-0
-0
-0
-3.815618
-3.888328
-3.98517
-4.110105
-4.267684
-0
-0
-0
-0
-0
-0
-0
-0
-0
-0
-0
-0
-0
-0
-3.660576
-3.729264
-3.820463
-3.937825
-4.085353
-0
-0
-0
-0
-0
-0
-0
-0
-0
-0
-0
-0
-0
-0
-0
-3.515704
-3.580783
-3.66693
-3.777457
-3.916061
-0
-0
-0
-0
-0
-0
-0
-0
-0
-0
-0
-0
-0
-0
-0
-0
-3.38009
-3.441876
-3.523475
-3.627869
-3.758417
-0
-0
-0
-0
-0
-0
-0
-0
-0
-0
-0
-0
-0
-0
-0
-0
-0
-3.252045
-3.310794
-3.388223
-3.487058
-3.610316
-0
-0
-0
-0
-0
-0
-0
-0
-0
-0
-0
-0
-0
-0
-0
-0
-0
-0
-3.129056
-3.185003
-3.258533
-3.3522
-3.468758
-0
-0
-0
-0
-0
-0
-0
-0
-0
-0
-0
-0
-0
-0
-0
-0
-0
-0
-0
-3.008104
-3.061295
-3.131131
-3.219851
-3.330031
-0
-0
-0
-0
-0
-0
-0
-0
-0
-0
-0
-0
-0
-0
-0
-0
-0
-0
-0
-0
-2.887348
-2.93791
-3.004062
-3.087996
-3.191956
-0
-0
-0
-0
-0
-0
-0
-0
-0
-0
-2.770031
-2.81808
-2.880777
-2.960079
-3.058187
-0
-0
-0
-0
-0
-0
-0
-0
-0
-0
-2.659775
-2.705439
-2.764946
-2.840046
-2.932704
-0
-0
-0
-0
-0
-0
-0
-0
-0
-0
-2.558358
-2.601785
-2.65834
-2.729644
-2.817454
-0
-0
-0
-0
-0
-0
-0
-0
-0
-0
-2.466242
-2.507599
-2.561442
-2.629284
-2.712764
-0
-0
-0
-0
-0
-0
-0
-0
-0
-0
-5.094328
-5.207306
-5.360873
-5.563719
-5.826202
-0
-0
-0
-0
-0
-0
-0
-4.867156
-4.971875
-5.113633
-5.299992
-5.539845
-0
-0
-0
-0
-0
-0
-0
-0
-4.665378
-4.763209
-4.895237
-5.068097
-5.289565
-0
-0
-0
-0
-0
-0
-0
-0
-0
-4.482821
-4.574767
-4.698502
-4.859992
-5.06609
-0
-0
-0
-0
-0
-0
-0
-0
-0
-0
-4.312397
-4.399168
-4.515594
-4.667085
-4.859819
-0
-0
-0
-0
-0
-0
-0
-0
-0
-0
-4.14625
-4.228111
-4.337746
-4.480005
-4.660412
-0
-0
-0
-0
-0
-0
-0
-0
-0
-0
-0
-0
-3.979889
-4.05706
-4.160095
-4.293459
-4.462116
-0
-0
-0
-0
-0
-0
-0
-0
-0
-0
-0
-0
-0
-3.817081
-3.889848
-3.986741
-4.111738
-4.269382
-0
-0
-0
-0
-0
-0
-0
-0
-0
-0
-0
-0
-0
-0
-3.661787
-3.730512
-3.821759
-3.939173
-4.086766
-0
-0
-0
-0
-0
-0
-0
-0
-0
-0
-0
-0
-0
-0
-0
-3.515704
-3.580784
-3.66693
-3.777457
-3.916061
-0
-0
-0
-0
-0
-0
-0
-0
-0
-0
-0
-0
-0
-0
-0
-0
-3.379006
-3.44075
-3.522302
-3.626643
-3.757127
-0
-0
-0
-0
-0
-0
-0
-0
-0
-0
-0
-0
-0
-0
-0
-0
-0
-3.250871
-3.309554
-3.386911
-3.48567
-3.608849
-0
-0
-0
-0
-0
-0
-0
-0
-0
-0
-0
-0
-0
-0
-0
-0
-0
-0
-3.129688
-3.185582
-3.259068
-3.352702
-3.469248
-0
-0
-0
-0
-0
-0
-0
-0
-0
-0
-0
-0
-0
-0
-0
-0
-0
-0
-0
-3.013202
-3.06641
-3.13631
-3.225153
-3.335525
-0
-0
-0
-0
-0
-0
-0
-0
-0
-0
-0
-0
-0
-0
-0
-0
-0
-0
-0
-0
-2.898428
-2.94912
-3.015507
-3.099796
-3.204256
-0
-0
-0
-0
-0
-0
-0
-0
-0
-0
-0
-0
-0
-0
-0
-0
-0
-0
-0
-0
-2.783675
-2.831915
-2.894926
-2.974686
-3.073413
-0
-0
-0
-0
-0
-0
-0
-0
-0
-0
-2.672091
-2.717939
-2.777728
-2.853233
-2.946437
-0
-0
-0
-0
-0
-0
-0
-0
-0
-0
-2.567168
-2.610725
-2.667484
-2.739071
-2.82726
-0
-0
-0
-0
-0
-0
-0
-0
-0
-0
-2.470597
-2.512022
-2.565969
-2.633956
-2.717625
-0
-0
-0
-0
-0
-0
-0
-0
-0
-0
-2.382994
-2.422304
-2.473673
-2.538375
-2.617944
-0
-0
-0
-0
-0
-0
-0
-0
-0
-0
-4.855637
-4.959948
-5.10112
-5.286661
-5.525393
-0
-0
-0
-0
-0
-0
-0
-0
-4.645128
-4.742318
-4.873411
-5.044958
-5.264628
-0
-0
-0
-0
-0
-0
-0
-0
-0
-4.457556
-4.54874
-4.671366
-4.8313
-5.035269
-0
-0
-0
-0
-0
-0
-0
-0
-0
-0
-4.287325
-4.373372
-4.488717
-4.638704
-4.829383
-0
-0
-0
-0
-0
-0
-0
-0
-0
-0
-4.128064
-4.209449
-4.318347
-4.459529
-4.638478
-0
-0
-0
-0
-0
-0
-0
-0
-0
-0
-3.972447
-4.049447
-4.152219
-4.285184
-4.453258
-0
-0
-0
-0
-0
-0
-0
-0
-0
-0
-0
-0
-0
-3.816285
-3.889067
-3.985942
-4.110902
-4.268468
-0
-0
-0
-0
-0
-0
-0
-0
-0
-0
-0
-0
-0
-0
-3.663184
-3.731964
-3.823275
-3.940751
-4.088417
-0
-0
-0
-0
-0
-0
-0
-0
-0
-0
-0
-0
-0
-0
-0
-3.516851
-3.581971
-3.668162
-3.778745
-3.917411
-0
-0
-0
-0
-0
-0
-0
-0
-0
-0
-0
-0
-0
-0
-0
-0
-3.379006
-3.44075
-3.522303
-3.626643
-3.757127
-0
-0
-0
-0
-0
-0
-0
-0
-0
-0
-0
-0
-0
-0
-0
-0
-0
-3.249848
-3.30849
-3.385798
-3.484503
-3.607622
-0
-0
-0
-0
-0
-0
-0
-0
-0
-0
-0
-0
-0
-0
-0
-0
-0
-0
-3.128588
-3.184415
-3.257829
-3.351385
-3.467847
-0
-0
-0
-0
-0
-0
-0
-0
-0
-0
-0
-0
-0
-0
-0
-0
-0
-0
-0
-3.013829
-3.066983
-3.136835
-3.225641
-3.335988
-0
-0
-0
-0
-0
-0
-0
-0
-0
-0
-0
-0
-0
-0
-0
-0
-0
-0
-0
-0
-2.903316
-2.954018
-3.02046
-3.104854
-3.209482
-0
-0
-0
-0
-0
-0
-0
-0
-0
-0
-0
-0
-0
-0
-0
-0
-0
-0
-0
-0
-2.794277
-2.842629
-2.905852
-2.985937
-3.085119
-0
-0
-0
-0
-0
-0
-0
-0
-0
-0
-0
-0
-0
-0
-0
-0
-0
-0
-0
-0
-2.68514
-2.731166
-2.791241
-2.867166
-2.960943
-0
-0
-0
-0
-0
-0
-0
-0
-0
-0
-2.578961
-2.622682
-2.679706
-2.751666
-2.84036
-0
-0
-0
-0
-0
-0
-0
-0
-0
-0
-2.479039
-2.520584
-2.574717
-2.642969
-2.72699
-0
-0
-0
-0
-0
-0
-0
-0
-0
-0
-2.387165
-2.426538
-2.478002
-2.542838
-2.622586
-0
-0
-0
-0
-0
-0
-0
-0
-0
-0
-2.303821
-2.341163
-2.390041