/*--------------------------------*- C++ -*----------------------------------*\
| =========                 |                                                 |
| \\      /  F ield         | OpenFOAM: The Open Source CFD Toolbox           |
|  \\    /   O peration     | Version:  2306                                  |
|   \\  /    A nd           | Website:  www.openfoam.com                      |
|    \\/     M anipulation  |                                                 |
\*---------------------------------------------------------------------------*/
FoamFile
{
    version     2.0;
    format      ascii;
    arch        "LSB;label=32;scalar=64";
    class       volScalarField;
    location    "0.6/fuel";
    object      nernst;
}
// * * * * * * * * * * * * * * * * * * * * * * * * * * * * * * * * * * * * * //

dimensions      [1 2 -3 0 0 -1 0];

internalField   nonuniform List<scalar> 
16000
(
-1.781151
-1.782131
-1.767266
-1.781217
-1.784114
-1.767909
-1.782199
-1.754737
-1.767312
-1.781343
-1.787101
-1.769205
-1.784186
-1.755223
-1.767956
-1.782328
-1.744607
-1.75477
-1.767403
-1.781527
-1.790952
-1.771151
-1.78718
-1.756203
-1.769254
-1.784322
-1.745001
-1.755257
-1.768048
-1.782517
-1.736265
-1.744633
-1.754837
-1.767536
-1.78177
-1.79504
-1.773648
-1.791043
-1.757676
-1.771201
-1.787329
-1.745795
-1.756238
-1.769348
-1.784522
-1.736596
-1.745026
-1.755324
-1.768182
-1.782765
-1.729212
-1.736285
-1.744685
-1.754936
-1.767711
-1.782013
-1.797972
-1.776307
-1.79515
-1.759572
-1.7737
-1.791213
-1.746987
-1.75771
-1.771299
-1.787547
-1.737264
-1.745821
-1.756306
-1.769487
-1.784783
-1.729498
-1.736616
-1.745079
-1.755424
-1.76836
-1.783015
-1.723115
-1.729227
-1.736327
-1.744763
-1.755068
-1.767887
-1.782218
-1.799663
-1.778292
-1.798098
-1.761606
-1.776362
-1.795349
-1.748523
-1.759606
-1.773804
-1.791459
-1.738265
-1.747012
-1.75778
-1.771443
-1.787831
-1.730073
-1.737283
-1.745873
-1.756408
-1.769669
-1.785046
-1.723366
-1.729513
-1.736658
-1.745157
-1.755557
-1.768539
-1.783225
-1.717751
-1.723127
-1.729262
-1.73639
-1.744866
-1.7552
-1.768036
-1.782423
-1.800507
-1.779525
-1.799803
-1.763162
-1.778348
-1.798322
-1.750175
-1.76164
-1.776472
-1.795635
-1.739554
-1.748547
-1.759678
-1.773957
-1.791781
-1.730936
-1.738284
-1.747066
-1.757885
-1.771634
-1.788118
-1.723872
-1.730088
-1.737325
-1.745953
-1.756543
-1.769853
-1.785268
-1.717975
-1.723378
-1.729547
-1.736722
-1.745262
-1.755691
-1.76869
-1.783435
-1.712965
-1.717761
-1.723156
-1.729315
-1.736475
-1.744971
-1.755312
-1.768184
-1.782626
-1.800845
-1.780202
-1.800657
-1.764169
-1.779583
-1.800045
-1.751454
-1.763194
-1.778463
-1.798641
-1.740943
-1.750198
-1.761713
-1.776637
-1.796009
-1.732046
-1.739572
-1.748601
-1.759786
-1.774161
-1.792105
-1.72463
-1.73095
-1.738326
-1.747146
-1.758024
-1.771827
-1.78836
-1.718427
-1.723884
-1.730123
-1.73739
-1.746059
-1.756679
-1.770008
-1.78549
-1.713167
-1.717985
-1.723407
-1.729601
-1.736807
-1.745367
-1.755803
-1.76884
-1.783644
-1.708644
-1.712972
-1.717785
-1.723201
-1.729387
-1.736562
-1.74506
-1.755423
-1.768331
-1.782829
-1.800845
-1.780497
-1.800999
-1.764749
-1.780263
-1.800911
-1.752296
-1.764201
-1.779702
-1.800387
-1.742023
-1.751475
-1.763268
-1.778635
-1.799054
-1.733243
-1.74096
-1.750252
-1.761826
-1.776856
-1.796384
-1.725605
-1.73206
-1.739615
-1.748683
-1.759931
-1.774365
-1.79238
-1.719103
-1.724641
-1.730985
-1.738391
-1.747254
-1.758164
-1.771989
-1.788602
-1.713575
-1.718436
-1.723913
-1.730176
-1.737476
-1.746166
-1.756794
-1.770163
-1.785711
-1.708829
-1.713175
-1.71801
-1.723453
-1.729673
-1.736894
-1.745456
-1.755915
-1.768989
-1.783852
-1.704705
-1.70865
-1.712994
-1.717825
-1.723263
-1.72946
-1.736634
-1.745148
-1.755534
-1.768478
-1.783814
-1.800507
-1.780497
-1.800999
-1.765011
-1.780559
-1.801259
-1.752791
-1.76478
-1.780383
-1.801267
-1.742742
-1.752316
-1.764274
-1.779878
-1.800827
-1.734176
-1.742038
-1.751528
-1.763382
-1.778863
-1.799469
-1.726656
-1.733255
-1.741002
-1.750337
-1.761977
-1.777076
-1.796707
-1.719973
-1.725616
-1.732094
-1.739681
-1.748794
-1.760076
-1.774538
-1.792657
-1.714186
-1.719112
-1.72467
-1.731039
-1.738479
-1.747364
-1.758282
-1.77215
-1.788845
-1.7092
-1.713582
-1.718461
-1.723959
-1.730249
-1.737564
-1.746256
-1.756908
-1.770316
-1.785931
-1.704875
-1.708835
-1.713196
-1.718049
-1.723515
-1.729746
-1.736967
-1.745545
-1.756027
-1.769137
-1.784863
-1.701086
-1.70471
-1.708668
-1.713028
-1.717879
-1.723326
-1.729521
-1.736707
-1.745235
-1.755643
-1.769188
-1.784597
-1.799663
-1.780202
-1.800657
-1.765011
-1.780559
-1.801259
-1.753019
-1.765043
-1.780681
-1.801622
-1.743168
-1.752811
-1.764854
-1.780563
-1.801724
-1.734799
-1.742755
-1.752368
-1.764388
-1.780112
-1.801269
-1.727477
-1.734186
-1.742079
-1.751612
-1.763535
-1.779092
-1.799827
-1.72091
-1.726665
-1.733289
-1.741069
-1.750451
-1.762129
-1.777263
-1.797033
-1.714971
-1.719981
-1.725644
-1.732149
-1.73977
-1.748906
-1.760199
-1.774711
-1.792936
-1.709758
-1.714193
-1.719136
-1.724716
-1.731113
-1.738568
-1.747455
-1.758399
-1.772311
-1.789087
-1.705217
-1.709206
-1.713604
-1.7185
-1.724021
-1.730323
-1.737638
-1.746345
-1.757022
-1.770469
-1.787001
-1.701243
-1.70488
-1.708853
-1.713231
-1.718103
-1.723578
-1.729808
-1.73704
-1.745633
-1.756137
-1.769857
-1.785673
-1.697737
-1.70109
-1.704726
-1.708699
-1.713076
-1.717934
-1.723379
-1.729582
-1.736778
-1.745322
-1.756176
-1.769748
-1.785239
-1.797972
-1.779525
-1.799803
-1.764749
-1.780263
-1.800911
-1.753019
-1.765043
-1.780681
-1.801622
-1.743365
-1.753038
-1.765117
-1.780862
-1.802088
-1.735171
-1.74318
-1.752862
-1.764968
-1.7808
-1.802183
-1.728027
-1.734809
-1.742794
-1.752451
-1.764543
-1.780346
-1.80165
-1.721644
-1.727485
-1.734219
-1.742145
-1.751726
-1.76369
-1.779287
-1.800188
-1.715818
-1.720917
-1.726694
-1.733344
-1.74116
-1.750566
-1.762257
-1.777451
-1.797364
-1.710474
-1.714978
-1.720005
-1.725691
-1.732224
-1.739861
-1.749001
-1.760321
-1.774884
-1.793216
-1.70573
-1.709763
-1.714214
-1.719176
-1.724779
-1.731187
-1.738643
-1.747547
-1.758516
-1.772472
-1.790265
-1.70156
-1.705222
-1.709225
-1.713638
-1.718555
-1.724085
-1.730385
-1.737711
-1.746434
-1.757134
-1.771211
-1.787879
-1.697884
-1.701247
-1.704896
-1.708884
-1.713279
-1.718159
-1.723631
-1.729869
-1.737112
-1.74572
-1.756674
-1.770426
-1.786344
-1.694619
-1.69774
-1.701104
-1.704754
-1.708742
-1.713125
-1.71798
-1.723431
-1.729642
-1.73685
-1.745743
-1.756594
-1.770202
-1.785735
-1.79504
-1.778292
-1.798098
-1.764169
-1.779583
-1.800045
-1.752791
-1.76478
-1.780383
-1.801267
-1.743365
-1.753038
-1.765117
-1.780862
-1.802088
-1.735344
-1.743377
-1.753089
-1.765231
-1.781101
-1.802555
-1.728356
-1.73518
-1.743219
-1.752944
-1.765123
-1.781038
-1.802578
-1.722136
-1.728034
-1.73484
-1.742859
-1.752565
-1.764698
-1.780545
-1.802034
-1.716481
-1.721649
-1.727512
-1.734273
-1.742236
-1.751842
-1.76382
-1.779483
-1.800554
-1.711247
-1.715823
-1.720941
-1.72674
-1.73342
-1.741253
-1.750664
-1.762387
-1.777641
-1.7977
-1.706389
-1.710479
-1.714998
-1.720045
-1.725754
-1.732299
-1.739937
-1.749095
-1.760444
-1.775058
-1.794585
-1.702035
-1.705734
-1.709782
-1.714249
-1.719231
-1.724843
-1.73125
-1.738717
-1.747637
-1.758633
-1.773252
-1.791288
-1.698179
-1.701564
-1.705238
-1.709256
-1.713687
-1.71861
-1.724138
-1.730446
-1.737783
-1.746523
-1.757681
-1.771802
-1.788622
-1.694757
-1.697887
-1.701262
-1.704924
-1.708927
-1.713328
-1.718205
-1.723683
-1.72993
-1.737183
-1.746143
-1.757096
-1.770889
-1.786866
-1.691702
-1.694622
-1.697753
-1.701129
-1.704792
-1.708786
-1.713166
-1.718026
-1.723483
-1.729702
-1.737195
-1.746071
-1.756931
-1.770548
-1.786078
-1.790952
-1.776307
-1.79515
-1.763162
-1.778348
-1.798322
-1.752296
-1.764201
-1.779702
-1.800387
-1.743168
-1.752811
-1.764854
-1.780563
-1.801724
-1.735344
-1.743377
-1.753089
-1.765231
-1.781101
-1.802555
-1.72851
-1.735352
-1.743416
-1.753171
-1.765386
-1.781341
-1.802957
-1.722431
-1.728362
-1.73521
-1.743283
-1.753058
-1.765279
-1.78124
-1.802977
-1.716928
-1.722141
-1.72806
-1.734893
-1.742949
-1.75268
-1.764829
-1.780746
-1.802423
-1.711853
-1.716486
-1.721672
-1.727557
-1.734348
-1.742328
-1.751939
-1.763952
-1.779681
-1.800925
-1.707101
-1.711251
-1.715844
-1.720981
-1.726805
-1.733497
-1.741331
-1.750762
-1.762518
-1.777833
-1.799355
-1.702646
-1.706393
-1.710497
-1.715033
-1.720101
-1.725819
-1.732363
-1.740013
-1.749189
-1.760566
-1.775904
-1.795919
-1.698621
-1.702038
-1.70575
-1.709812
-1.714297
-1.719287
-1.724897
-1.731312
-1.738791
-1.747728
-1.759197
-1.773894
-1.792204
-1.695033
-1.698182
-1.701578
-1.705266
-1.709299
-1.713736
-1.718657
-1.72419
-1.730508
-1.737856
-1.746951
-1.758111
-1.772288
-1.789215
-1.691831
-1.694759
-1.697899
-1.701287
-1.704963
-1.708971
-1.713369
-1.71825
-1.723735
-1.72999
-1.73753
-1.746472
-1.757435
-1.771241
-1.787232
-1.688959
-1.691703
-1.694633
-1.697775
-1.701164
-1.704832
-1.708822
-1.713206
-1.718071
-1.723535
-1.729993
-1.73746
-1.746333
-1.757184
-1.770782
-1.787101
-1.773648
-1.791043
-1.761606
-1.776362
-1.795349
-1.751454
-1.763194
-1.778463
-1.798641
-1.742742
-1.752316
-1.764274
-1.779878
-1.800827
-1.735171
-1.74318
-1.752862
-1.764968
-1.7808
-1.802183
-1.72851
-1.735352
-1.743416
-1.753171
-1.765386
-1.781341
-1.802957
-1.722569
-1.728515
-1.735383
-1.74348
-1.753285
-1.765542
-1.781544
-1.803362
-1.717196
-1.722436
-1.728388
-1.735263
-1.743373
-1.753173
-1.76541
-1.781443
-1.803379
-1.712262
-1.716931
-1.722163
-1.728104
-1.734967
-1.743041
-1.752777
-1.76496
-1.780948
-1.802815
-1.707659
-1.711856
-1.716505
-1.721711
-1.727621
-1.734425
-1.742405
-1.752037
-1.764084
-1.779881
-1.802755
-1.703305
-1.707104
-1.711269
-1.715879
-1.721037
-1.726871
-1.733562
-1.741409
-1.750861
-1.76265
-1.778777
-1.801261
-1.69919
-1.702649
-1.706409
-1.710528
-1.715082
-1.720157
-1.725873
-1.732426
-1.740089
-1.749283
-1.761163
-1.776666
-1.797273
-1.695447
-1.698624
-1.702053
-1.705778
-1.709856
-1.714347
-1.719334
-1.72495
-1.731374
-1.738864
-1.748166
-1.75965
-1.774444
-1.792974
-1.69209
-1.695035
-1.698194
-1.701603
-1.705305
-1.709343
-1.713777
-1.718703
-1.724243
-1.730568
-1.738206
-1.747284
-1.758459
-1.772662
-1.789638
-1.68908
-1.691832
-1.69477
-1.697922
-1.701322
-1.705002
-1.709007
-1.713409
-1.718296
-1.723787
-1.730282
-1.737796
-1.746735
-1.75769
-1.77148
-1.686369
-1.68896
-1.691714
-1.694654
-1.697808
-1.7012
-1.704865
-1.708858
-1.713246
-1.718116
-1.723785
-1.730213
-1.737671
-1.746529
-1.757355
-1.784114
-1.771151
-1.78718
-1.759572
-1.7737
-1.791213
-1.750175
-1.76164
-1.776472
-1.795635
-1.742023
-1.751475
-1.763268
-1.778635
-1.799054
-1.734799
-1.742755
-1.752368
-1.764388
-1.780112
-1.801269
-1.728356
-1.73518
-1.743219
-1.752944
-1.765123
-1.781038
-1.802578
-1.722569
-1.728515
-1.735383
-1.74348
-1.753285
-1.765542
-1.781544
-1.803362
-1.717321
-1.722573
-1.72854
-1.735434
-1.743569
-1.753399
-1.765673
-1.781749
-1.803771
-1.712507
-1.717199
-1.722457
-1.728431
-1.735336
-1.743463
-1.753268
-1.765541
-1.781647
-1.803785
-1.708036
-1.712264
-1.71695
-1.722201
-1.728167
-1.735043
-1.743116
-1.752873
-1.765092
-1.781151
-1.804748
-1.703824
-1.707661
-1.711873
-1.716539
-1.721767
-1.727687
-1.734489
-1.742483
-1.752136
-1.764218
-1.780864
-1.804824
-1.699805
-1.703307
-1.707119
-1.7113
-1.715929
-1.721095
-1.726926
-1.733627
-1.741488
-1.75096
-1.763296
-1.779775
-1.803626
-1.69598
-1.699192
-1.702663
-1.706436
-1.710572
-1.715132
-1.720204
-1.725927
-1.732489
-1.740164
-1.74974
-1.761683
-1.777403
-1.798577
-1.69248
-1.695449
-1.698636
-1.702077
-1.705817
-1.7099
-1.714388
-1.71938
-1.725003
-1.731435
-1.73922
-1.748511
-1.76003
-1.774884
-1.793549
-1.689326
-1.692092
-1.695047
-1.698217
-1.701638
-1.705344
-1.709379
-1.713817
-1.718748
-1.724295
-1.730862
-1.738472
-1.74755
-1.758722
-1.772917
-1.686484
-1.689082
-1.691843
-1.694791
-1.697954
-1.701358
-1.705035
-1.709043
-1.713449
-1.718341
-1.724038
-1.730501
-1.738006
-1.74693
-1.75786
-1.683916
-1.68637
-1.688969
-1.691733
-1.694684
-1.697841
-1.70123
-1.704897
-1.708894
-1.713286
-1.718334
-1.723969
-1.730385
-1.737826
-1.746658
-1.782131
-1.769205
-1.784186
-1.757676
-1.771201
-1.787329
-1.748523
-1.759606
-1.773804
-1.791459
-1.740943
-1.750198
-1.761713
-1.776637
-1.796009
-1.734176
-1.742038
-1.751528
-1.763382
-1.778863
-1.799469
-1.728027
-1.734809
-1.742794
-1.752451
-1.764543
-1.780346
-1.80165
-1.722431
-1.728362
-1.73521
-1.743283
-1.753058
-1.765279
-1.78124
-1.802977
-1.717321
-1.722573
-1.72854
-1.735434
-1.743569
-1.753399
-1.765673
-1.781749
-1.803771
-1.712622
-1.717324
-1.722594
-1.728584
-1.735508
-1.743659
-1.753495
-1.765804
-1.781954
-1.804183
-1.708263
-1.712509
-1.717217
-1.722494
-1.728494
-1.735411
-1.743538
-1.753364
-1.765673
-1.781853
-1.805779
-1.704174
-1.708038
-1.71228
-1.716983
-1.722255
-1.728231
-1.735105
-1.743193
-1.752971
-1.765226
-1.782149
-1.806847
-1.700289
-1.703825
-1.707676
-1.711904
-1.716588
-1.721823
-1.727741
-1.734553
-1.742561
-1.752236
-1.764874
-1.781885
-1.807282
-1.696557
-1.699807
-1.703321
-1.707147
-1.711344
-1.715979
-1.721143
-1.726981
-1.733693
-1.741568
-1.751448
-1.763961
-1.780968
-1.806662
-1.692982
-1.695982
-1.699205
-1.702688
-1.706476
-1.710617
-1.715174
-1.720251
-1.725981
-1.732552
-1.740533
-1.750129
-1.762174
-1.778074
-1.799676
-1.689693
-1.692481
-1.69546
-1.698659
-1.702113
-1.705857
-1.709937
-1.714428
-1.719426
-1.725055
-1.731733
-1.739494
-1.748796
-1.760325
-1.775188
-1.686717
-1.689327
-1.692103
-1.695067
-1.698249
-1.701675
-1.705377
-1.709416
-1.713857
-1.718794
-1.724547
-1.731081
-1.738684
-1.747747
-1.758894
-1.684025
-1.686485
-1.689091
-1.691862
-1.694821
-1.697988
-1.701388
-1.705068
-1.709079
-1.713489
-1.718559
-1.724221
-1.730672
-1.73816
-1.747058
-1.681583
-1.683916
-1.686379
-1.688987
-1.69176
-1.694714
-1.697868
-1.70126
-1.70493
-1.708929
-1.713478
-1.718491
-1.724112
-1.73051
-1.737926
-1.781151
-1.767909
-1.782199
-1.756203
-1.769254
-1.784322
-1.746987
-1.75771
-1.771299
-1.787547
-1.739554
-1.748547
-1.759678
-1.773957
-1.791781
-1.733243
-1.74096
-1.750252
-1.761826
-1.776856
-1.796384
-1.727477
-1.734186
-1.742079
-1.751612
-1.763535
-1.779092
-1.799827
-1.722136
-1.728034
-1.73484
-1.742859
-1.752565
-1.764698
-1.780545
-1.802034
-1.717196
-1.722436
-1.728388
-1.735263
-1.743373
-1.753173
-1.76541
-1.781443
-1.803379
-1.712622
-1.717324
-1.722594
-1.728584
-1.735508
-1.743659
-1.753495
-1.765804
-1.781954
-1.804183
-1.708369
-1.712624
-1.717341
-1.722631
-1.728646
-1.735582
-1.743733
-1.75359
-1.765937
-1.782161
-1.806207
-1.704385
-1.708264
-1.712525
-1.717249
-1.722548
-1.728557
-1.735472
-1.743614
-1.753461
-1.765806
-1.78286
-1.807891
-1.700617
-1.704175
-1.708052
-1.71231
-1.717031
-1.722311
-1.728284
-1.735168
-1.74327
-1.753069
-1.765879
-1.783143
-1.809223
-1.697011
-1.70029
-1.703838
-1.707703
-1.711947
-1.716638
-1.72187
-1.727795
-1.734618
-1.742641
-1.752724
-1.765535
-1.783065
-1.810195
-1.693524
-1.696558
-1.699819
-1.703346
-1.707187
-1.71139
-1.716021
-1.721191
-1.727037
-1.733759
-1.741958
-1.751942
-1.764751
-1.782445
-1.810798
-1.690167
-1.692983
-1.695993
-1.699228
-1.702723
-1.706516
-1.710653
-1.715215
-1.720298
-1.726035
-1.732859
-1.74084
-1.750492
-1.762609
-1.778595
-1.687065
-1.689694
-1.692492
-1.695481
-1.698691
-1.702149
-1.70589
-1.709973
-1.714469
-1.719471
-1.72531
-1.731957
-1.739718
-1.749013
-1.760517
-1.684246
-1.686718
-1.689336
-1.692122
-1.695097
-1.698283
-1.701705
-1.70541
-1.709451
-1.713897
-1.719013
-1.72473
-1.731253
-1.738838
-1.747873
-1.681688
-1.684026
-1.686494
-1.689109
-1.69189
-1.694851
-1.698015
-1.701417
-1.7051
-1.709115
-1.713682
-1.718715
-1.724363
-1.730796
-1.738258
-1.67936
-1.681584
-1.683924
-1.686395
-1.689013
-1.691789
-1.694739
-1.697895
-1.701289
-1.704962
-1.709101
-1.713613
-1.718611
-1.724214
-1.730588
-1.767266
-1.781217
-1.755223
-1.767956
-1.782328
-1.745795
-1.756238
-1.769348
-1.784522
-1.738265
-1.747012
-1.75778
-1.771443
-1.787831
-1.732046
-1.739572
-1.748601
-1.759786
-1.774161
-1.792105
-1.726656
-1.733255
-1.741002
-1.750337
-1.761977
-1.777076
-1.796707
-1.721644
-1.727485
-1.734219
-1.742145
-1.751726
-1.76369
-1.779287
-1.800188
-1.716928
-1.722141
-1.72806
-1.734893
-1.742949
-1.75268
-1.764829
-1.780746
-1.802423
-1.712507
-1.717199
-1.722457
-1.728431
-1.735336
-1.743463
-1.753268
-1.765541
-1.781647
-1.803785
-1.708369
-1.712624
-1.717341
-1.722631
-1.728646
-1.735582
-1.743733
-1.75359
-1.765937
-1.782161
-1.806207
-1.704484
-1.70837
-1.712639
-1.717374
-1.722685
-1.728709
-1.735643
-1.743808
-1.753686
-1.766069
-1.783173
-1.808328
-1.700815
-1.704386
-1.708278
-1.712554
-1.717297
-1.722603
-1.728609
-1.735534
-1.743689
-1.753558
-1.766456
-1.783835
-1.810209
-1.697319
-1.700617
-1.704187
-1.708078
-1.712353
-1.71708
-1.722357
-1.728338
-1.735231
-1.743347
-1.75355
-1.766505
-1.784243
-1.811896
-1.693953
-1.697011
-1.700302
-1.703863
-1.707743
-1.711992
-1.71668
-1.721918
-1.72785
-1.734683
-1.743028
-1.753207
-1.766299
-1.784418
-1.813629
-1.69068
-1.693525
-1.696569
-1.699842
-1.703383
-1.707228
-1.711427
-1.716064
-1.721239
-1.727094
-1.734082
-1.742347
-1.752529
-1.765726
-1.78438
-1.818168
-1.687514
-1.690168
-1.692993
-1.696014
-1.69926
-1.70276
-1.706549
-1.71069
-1.715256
-1.720344
-1.726296
-1.733109
-1.741124
-1.750807
-1.762926
-1.684576
-1.687066
-1.689704
-1.692511
-1.695511
-1.698725
-1.702179
-1.705922
-1.710009
-1.714509
-1.719692
-1.725497
-1.732138
-1.739885
-1.749147
-1.681898
-1.684246
-1.686726
-1.689354
-1.692149
-1.695128
-1.69831
-1.701734
-1.705442
-1.709487
-1.71409
-1.719168
-1.724871
-1.731375
-1.738932
-1.679459
-1.681688
-1.684034
-1.686511
-1.689135
-1.691918
-1.694877
-1.698042
-1.701447
-1.705132
-1.709286
-1.713815
-1.718834
-1.724464
-1.730872
-1.677234
-1.67936
-1.681591
-1.68394
-1.686419
-1.689039
-1.691812
-1.694764
-1.697922
-1.701318
-1.705116
-1.709217
-1.713714
-1.718694
-1.724275
-1.754737
-1.767312
-1.781343
-1.745001
-1.755257
-1.768048
-1.782517
-1.737264
-1.745821
-1.756306
-1.769487
-1.784783
-1.730936
-1.738284
-1.747066
-1.757885
-1.771634
-1.788118
-1.725605
-1.73206
-1.739615
-1.748683
-1.759931
-1.774365
-1.79238
-1.72091
-1.726665
-1.733289
-1.741069
-1.750451
-1.762129
-1.777263
-1.797033
-1.716481
-1.721649
-1.727512
-1.734273
-1.742236
-1.751842
-1.76382
-1.779483
-1.800554
-1.712262
-1.716931
-1.722163
-1.728104
-1.734967
-1.743041
-1.752777
-1.76496
-1.780948
-1.802815
-1.708263
-1.712509
-1.717217
-1.722494
-1.728494
-1.735411
-1.743538
-1.753364
-1.765673
-1.781853
-1.805779
-1.704484
-1.70837
-1.712639
-1.717374
-1.722685
-1.728709
-1.735643
-1.743808
-1.753686
-1.766069
-1.783173
-1.808328
-1.700908
-1.704485
-1.708384
-1.712668
-1.717421
-1.72274
-1.728761
-1.735705
-1.743884
-1.753783
-1.766718
-1.784141
-1.810623
-1.697505
-1.700815
-1.704398
-1.708304
-1.712596
-1.717345
-1.722648
-1.728662
-1.735597
-1.743766
-1.754033
-1.767059
-1.784884
-1.812748
-1.694243
-1.697319
-1.700629
-1.704211
-1.708117
-1.712396
-1.717121
-1.722403
-1.728391
-1.735295
-1.743726
-1.754
-1.767203
-1.785445
-1.814877
-1.691086
-1.693953
-1.697022
-1.700324
-1.703899
-1.707783
-1.712029
-1.716721
-1.721966
-1.727906
-1.735003
-1.743405
-1.753768
-1.767177
-1.785958
-1.818426
-1.688001
-1.690681
-1.693535
-1.69659
-1.699875
-1.70342
-1.707262
-1.711465
-1.716106
-1.721288
-1.727369
-1.734401
-1.742812
-1.753254
-1.766998
-1.787643
-1.82251
-1.685003
-1.687514
-1.690177
-1.693012
-1.696044
-1.699294
-1.70279
-1.706582
-1.710727
-1.715297
-1.720571
-1.726505
-1.733339
-1.741366
-1.751025
-1.682213
-1.684577
-1.687074
-1.689721
-1.692538
-1.695541
-1.698752
-1.702209
-1.705955
-1.710045
-1.714704
-1.71985
-1.725645
-1.732269
-1.739983
-1.67966
-1.681898
-1.684254
-1.686743
-1.68938
-1.692178
-1.695153
-1.698337
-1.701763
-1.705474
-1.709659
-1.714223
-1.719286
-1.72497
-1.731447
-1.677329
-1.679459
-1.681695
-1.684049
-1.686534
-1.689161
-1.691941
-1.694901
-1.698069
-1.701476
-1.705286
-1.709402
-1.713915
-1.718916
-1.724522
-1.675196
-1.677234
-1.679367
-1.681605
-1.683962
-1.686444
-1.689061
-1.691835
-1.694789
-1.697948
-1.701458
-1.705217
-1.709303
-1.713782
-1.71874
-1.744607
-1.75477
-1.767403
-1.781527
-1.736596
-1.745026
-1.755324
-1.768182
-1.782765
-1.730073
-1.737283
-1.745873
-1.756408
-1.769669
-1.785046
-1.72463
-1.73095
-1.738326
-1.747146
-1.758024
-1.771827
-1.78836
-1.719973
-1.725616
-1.732094
-1.739681
-1.748794
-1.760076
-1.774538
-1.792657
-1.715818
-1.720917
-1.726694
-1.733344
-1.74116
-1.750566
-1.762257
-1.777451
-1.797364
-1.711853
-1.716486
-1.721672
-1.727557
-1.734348
-1.742328
-1.751939
-1.763952
-1.779681
-1.800925
-1.708036
-1.712264
-1.71695
-1.722201
-1.728167
-1.735043
-1.743116
-1.752873
-1.765092
-1.781151
-1.804748
-1.704385
-1.708264
-1.712525
-1.717249
-1.722548
-1.728557
-1.735472
-1.743614
-1.753461
-1.765806
-1.78286
-1.807891
-1.700908
-1.704485
-1.708384
-1.712668
-1.717421
-1.72274
-1.728761
-1.735705
-1.743884
-1.753783
-1.766718
-1.784141
-1.810623
-1.697593
-1.700908
-1.704497
-1.70841
-1.71271
-1.717469
-1.722784
-1.728813
-1.735766
-1.74396
-1.754255
-1.767311
-1.785168
-1.813108
-1.69442
-1.697505
-1.700826
-1.704422
-1.708342
-1.71264
-1.717385
-1.722694
-1.728714
-1.735659
-1.744138
-1.754461
-1.767713
-1.786003
-1.815517
-1.691361
-1.694243
-1.697329
-1.70065
-1.704246
-1.708156
-1.712432
-1.717161
-1.72245
-1.728446
-1.735607
-1.744075
-1.754505
-1.767968
-1.786742
-1.81887
-1.688385
-1.691085
-1.693962
-1.697042
-1.700357
-1.703935
-1.707816
-1.712066
-1.716763
-1.722014
-1.728177
-1.735311
-1.743847
-1.754414
-1.768173
-1.788007
-1.822167
-1.685466
-1.688001
-1.69069
-1.693554
-1.69662
-1.699909
-1.70345
-1.707296
-1.711503
-1.71615
-1.721527
-1.727637
-1.734783
-1.743387
-1.754201
-1.7691
-1.789583
-1.82587
-1.682619
-1.685003
-1.687523
-1.690195
-1.69304
-1.696075
-1.699321
-1.70282
-1.706615
-1.710763
-1.715496
-1.720747
-1.726695
-1.733532
-1.741526
-1.67996
-1.682213
-1.684585
-1.68709
-1.689747
-1.692567
-1.695567
-1.698779
-1.702238
-1.705987
-1.710218
-1.714838
-1.719973
-1.72575
-1.732342
-1.677521
-1.67966
-1.681905
-1.684269
-1.686766
-1.689406
-1.692201
-1.695178
-1.698364
-1.701793
-1.705629
-1.709773
-1.714322
-1.719365
-1.725024
-1.675288
-1.677329
-1.679466
-1.68171
-1.684072
-1.686559
-1.689182
-1.691964
-1.694926
-1.698095
-1.701615
-1.705387
-1.709487
-1.713982
-1.71896
-1.673239
-1.675196
-1.67724
-1.67938
-1.681627
-1.683985
-1.686464
-1.689082
-1.691858
-1.694813
-1.698076
-1.701547
-1.705291
-1.709359
-1.713818
-1.736265
-1.744633
-1.754837
-1.767536
-1.78177
-1.729498
-1.736616
-1.745079
-1.755424
-1.76836
-1.783015
-1.723872
-1.730088
-1.737325
-1.745953
-1.756543
-1.769853
-1.785268
-1.719103
-1.724641
-1.730985
-1.738391
-1.747254
-1.758164
-1.771989
-1.788602
-1.714971
-1.719981
-1.725644
-1.732149
-1.73977
-1.748906
-1.760199
-1.774711
-1.792936
-1.711247
-1.715823
-1.720941
-1.72674
-1.73342
-1.741253
-1.750664
-1.762387
-1.777641
-1.7977
-1.707659
-1.711856
-1.716505
-1.721711
-1.727621
-1.734425
-1.742405
-1.752037
-1.764084
-1.779881
-1.802755
-1.704174
-1.708038
-1.71228
-1.716983
-1.722255
-1.728231
-1.735105
-1.743193
-1.752971
-1.765226
-1.782149
-1.806847
-1.700815
-1.704386
-1.708278
-1.712554
-1.717297
-1.722603
-1.728609
-1.735534
-1.743689
-1.753558
-1.766456
-1.783835
-1.810209
-1.697593
-1.700908
-1.704497
-1.70841
-1.71271
-1.717469
-1.722784
-1.728813
-1.735766
-1.74396
-1.754255
-1.767311
-1.785168
-1.813108
-1.694502
-1.697592
-1.700918
-1.70452
-1.708448
-1.712753
-1.717509
-1.722829
-1.728865
-1.735829
-1.744329
-1.754673
-1.767946
-1.786253
-1.815795
-1.691528
-1.694419
-1.697515
-1.700847
-1.704456
-1.708381
-1.712675
-1.717425
-1.722739
-1.728768
-1.735965
-1.744467
-1.754929
-1.768415
-1.787185
-1.819194
-1.688647
-1.69136
-1.694252
-1.697349
-1.700682
-1.704283
-1.708189
-1.712469
-1.717202
-1.722497
-1.728709
-1.735889
-1.744468
-1.755062
-1.768794
-1.788402
-1.822184
-1.685833
-1.688385
-1.691094
-1.693981
-1.697073
-1.700391
-1.703965
-1.70785
-1.712103
-1.716806
-1.722249
-1.728436
-1.735673
-1.744356
-1.755149
-1.769466
-1.789668
-1.82537
-1.683061
-1.685466
-1.688009
-1.690707
-1.693583
-1.696652
-1.699937
-1.703481
-1.70733
-1.711541
-1.71636
-1.721756
-1.727959
-1.735258
-1.74414
-1.755748
-1.770329
-1.791138
-1.828584
-1.680349
-1.682619
-1.685011
-1.687539
-1.69022
-1.693068
-1.6961
-1.699349
-1.70285
-1.706648
-1.710941
-1.715648
-1.720907
-1.726851
-1.733653
-1.677808
-1.67996
-1.68222
-1.6846
-1.687114
-1.689773
-1.69259
-1.695591
-1.698806
-1.702267
-1.706142
-1.710333
-1.714942
-1.720058
-1.725804
-1.675471
-1.67752
-1.679666
-1.681919
-1.684292
-1.686791
-1.689427
-1.692224
-1.695202
-1.69839
-1.701932
-1.705728
-1.709857
-1.714387
-1.719406
-1.673327
-1.675287
-1.677335
-1.67948
-1.681731
-1.684095
-1.686579
-1.689204
-1.691987
-1.69495
-1.698222
-1.701703
-1.705459
-1.709541
-1.714015
-1.671355
-1.673239
-1.675202
-1.677253
-1.6794
-1.681648
-1.684004
-1.686484
-1.689103
-1.69188
-1.69493
-1.698154
-1.70161
-1.705337
-1.709386
-1.729212
-1.736285
-1.744685
-1.754936
-1.767711
-1.782013
-1.723366
-1.729513
-1.736658
-1.745157
-1.755557
-1.768539
-1.783225
-1.718427
-1.723884
-1.730123
-1.73739
-1.746059
-1.756679
-1.770008
-1.78549
-1.714186
-1.719112
-1.72467
-1.731039
-1.738479
-1.747364
-1.758282
-1.77215
-1.788845
-1.710474
-1.714978
-1.720005
-1.725691
-1.732224
-1.739861
-1.749001
-1.760321
-1.774884
-1.793216
-1.707101
-1.711251
-1.715844
-1.720981
-1.726805
-1.733497
-1.741331
-1.750762
-1.762518
-1.777833
-1.799355
-1.703824
-1.707661
-1.711873
-1.716539
-1.721767
-1.727687
-1.734489
-1.742483
-1.752136
-1.764218
-1.780864
-1.804824
-1.700617
-1.704175
-1.708052
-1.71231
-1.717031
-1.722311
-1.728284
-1.735168
-1.74327
-1.753069
-1.765879
-1.783143
-1.809223
-1.697505
-1.700815
-1.704398
-1.708304
-1.712596
-1.717345
-1.722648
-1.728662
-1.735597
-1.743766
-1.754033
-1.767059
-1.784884
-1.812748
-1.694502
-1.697592
-1.700918
-1.70452
-1.708448
-1.712753
-1.717509
-1.722829
-1.728865
-1.735829
-1.744329
-1.754673
-1.767946
-1.786253
-1.815795
-1.691607
-1.694502
-1.697602
-1.70094
-1.704555
-1.708487
-1.712789
-1.717548
-1.722875
-1.728918
-1.736131
-1.744648
-1.755125
-1.768621
-1.78739
-1.819357
-1.688807
-1.691527
-1.694428
-1.697534
-1.700879
-1.704492
-1.708413
-1.712711
-1.717465
-1.722785
-1.729026
-1.73623
-1.744829
-1.755435
-1.769159
-1.788686
-1.822283
-1.686083
-1.688647
-1.691369
-1.694271
-1.697379
-1.700716
-1.704312
-1.708221
-1.712505
-1.717243
-1.722725
-1.728946
-1.73621
-1.744904
-1.755664
-1.76982
-1.789865
-1.825181
-1.683411
-1.685832
-1.688393
-1.691111
-1.694009
-1.697104
-1.700418
-1.703996
-1.707883
-1.712141
-1.717013
-1.72247
-1.728741
-1.736092
-1.744936
-1.756085
-1.770488
-1.791147
-1.828066
-1.680771
-1.683061
-1.685474
-1.688025
-1.690734
-1.693612
-1.696678
-1.699966
-1.703513
-1.707364
-1.711729
-1.716559
-1.722034
-1.728361
-1.735881
-1.745359
-1.756641
-1.771314
-1.792431
-1.830794
-1.67818
-1.680349
-1.682626
-1.685026
-1.687563
-1.690247
-1.693092
-1.696125
-1.699376
-1.70288
-1.706807
-1.711071
-1.715783
-1.721036
-1.726944
-1.675747
-1.677808
-1.679967
-1.682234
-1.684622
-1.687139
-1.689795
-1.692613
-1.695616
-1.698832
-1.702408
-1.706243
-1.710421
-1.71501
-1.720097
-1.673503
-1.675471
-1.677527
-1.67968
-1.681941
-1.684315
-1.686811
-1.689449
-1.692246
-1.695227
-1.698517
-1.702019
-1.705799
-1.709909
-1.714416
-1.67144
-1.673326
-1.675293
-1.677348
-1.6795
-1.681753
-1.684113
-1.686599
-1.689225
-1.692009
-1.695067
-1.6983
-1.701766
-1.705504
-1.709565
-1.669539
-1.671355
-1.673245
-1.675214
-1.677272
-1.679421
-1.681666
-1.684023
-1.686503
-1.689124
-1.691988
-1.695
-1.698209
-1.701648
-1.705356
-1.723115
-1.729227
-1.736327
-1.744763
-1.755068
-1.767887
-1.782218
-1.717975
-1.723378
-1.729547
-1.736722
-1.745262
-1.755691
-1.76869
-1.783435
-1.713575
-1.718436
-1.723913
-1.730176
-1.737476
-1.746166
-1.756794
-1.770163
-1.785711
-1.709758
-1.714193
-1.719136
-1.724716
-1.731113
-1.738568
-1.747455
-1.758399
-1.772311
-1.789087
-1.706389
-1.710479
-1.714998
-1.720045
-1.725754
-1.732299
-1.739937
-1.749095
-1.760444
-1.775058
-1.794585
-1.703305
-1.707104
-1.711269
-1.715879
-1.721037
-1.726871
-1.733562
-1.741409
-1.750861
-1.76265
-1.778777
-1.801261
-1.700289
-1.703825
-1.707676
-1.711904
-1.716588
-1.721823
-1.727741
-1.734553
-1.742561
-1.752236
-1.764874
-1.781885
-1.807282
-1.697319
-1.700617
-1.704187
-1.708078
-1.712353
-1.71708
-1.722357
-1.728338
-1.735231
-1.743347
-1.75355
-1.766505
-1.784243
-1.811896
-1.69442
-1.697505
-1.700826
-1.704422
-1.708342
-1.71264
-1.717385
-1.722694
-1.728714
-1.735659
-1.744138
-1.754461
-1.767713
-1.786003
-1.815517
-1.691607
-1.694502
-1.697602
-1.70094
-1.704555
-1.708487
-1.712789
-1.717548
-1.722875
-1.728918
-1.736131
-1.744648
-1.755125
-1.768621
-1.78739
-1.819357
-1.688881
-1.691606
-1.69451
-1.697621
-1.700971
-1.70459
-1.708518
-1.712824
-1.717588
-1.72292
-1.729173
-1.736388
-1.744997
-1.755608
-1.769332
-1.788831
-1.822351
-1.686235
-1.688806
-1.691535
-1.694446
-1.697564
-1.700912
-1.704521
-1.708445
-1.712746
-1.717506
-1.723009
-1.729247
-1.736524
-1.745222
-1.755973
-1.770072
-1.790043
-1.825135
-1.68365
-1.686082
-1.688654
-1.691386
-1.694298
-1.697409
-1.700742
-1.704342
-1.708254
-1.712542
-1.717444
-1.722927
-1.729215
-1.736567
-1.745377
-1.756395
-1.770698
-1.791251
-1.827798
-1.681106
-1.68341
-1.685839
-1.688409
-1.691137
-1.694038
-1.697129
-1.700446
-1.704026
-1.707917
-1.712326
-1.717205
-1.722733
-1.729096
-1.73657
-1.745665
-1.75681
-1.771403
-1.792427
-1.830307
-1.678585
-1.680771
-1.683068
-1.685489
-1.68805
-1.690761
-1.693636
-1.696704
-1.699994
-1.703544
-1.707533
-1.711904
-1.716801
-1.722381
-1.728892
-1.736882
-1.746058
-1.75736
-1.772132
-1.793505
-1.832571
-1.676104
-1.67818
-1.680355
-1.682641
-1.685049
-1.687588
-1.690269
-1.693115
-1.69615
-1.699403
-1.703023
-1.706921
-1.711187
-1.71589
-1.721107
-1.673768
-1.675747
-1.677814
-1.67998
-1.682255
-1.684646
-1.687159
-1.689816
-1.692636