/*--------------------------------*- C++ -*----------------------------------*\
| =========                 |                                                 |
| \\      /  F ield         | OpenFOAM: The Open Source CFD Toolbox           |
|  \\    /   O peration     | Version:  2306                                  |
|   \\  /    A nd           | Website:  www.openfoam.com                      |
|    \\/     M anipulation  |                                                 |
\*---------------------------------------------------------------------------*/
FoamFile
{
    version     2.0;
    format      ascii;
    arch        "LSB;label=32;scalar=64";
    class       volScalarField;
    location    "0.6/fuel";
    object      p_rgh;
}
// * * * * * * * * * * * * * * * * * * * * * * * * * * * * * * * * * * * * * //

dimensions      [1 -1 -2 0 0 0 0];

internalField   nonuniform List<scalar> 
16000
(
100645
100636.8
100533.3
100623.9
100622.1
100525.1
100615.4
100444.4
100515.9
100577.8
100596.3
100510
100600.1
100437.1
100507.6
100568.6
100377.9
100430
100477.9
100524.3
100571.8
100484.4
100573.3
100423.6
100492.2
100551.9
100371.6
100422.7
100469.2
100514.4
100328
100365.8
100398.6
100433.7
100412.8
100523.4
100458.2
100547.6
100401
100466
100523.1
100359.8
100408.9
100453
100496.1
100322.4
100359.4
100391
100424.6
100401.3
100289.1
100317.6
100339.2
100362.1
100341.7
100391.4
100514.1
100412.2
100497.7
100377.4
100439.1
100494.6
100340.1
100386
100425.6
100464.9
100312
100347.4
100376.7
100407.5
100379.8
100284.1
100312
100332.6
100354.1
100331.6
100379.6
100258
100280
100294.7
100308.3
100285.9
100324.1
100384.7
100506.7
100399.3
100487.4
100337.7
100392.4
100441.6
100319.3
100361.9
100397.3
100433.2
100294.7
100327.4
100353
100378.8
100343.5
100274.9
100301.4
100320.2
100339.3
100312.6
100357.5
100253.6
100275
100288.9
100301.5
100277.3
100313.8
100372.7
100232.5
100249.9
100259.9
100268
100243.8
100271.3
100318.5
100373.2
100505.5
100389.8
100479.3
100325.5
100379
100429.1
100285.2
100321.7
100349
100376.6
100276.4
100306.4
100328
100348.8
100305.3
100259.5
100283.9
100299.7
100314.6
100281.2
100320.3
100245.2
100265.6
100278
100288.7
100261.2
100294.5
100350.4
100228.5
100245.5
100254.8
100262
100236.5
100262.6
100308.1
100361.1
100211.2
100225.3
100232.2
100236.6
100212.3
100231.5
100266.7
100309
100363.6
100505
100386.8
100477.8
100316.6
100369.2
100419.6
100274.2
100309.2
100334.5
100361.5
100246.7
100271.9
100286.7
100298.6
100241.2
100243.2
100265.4
100278
100288.6
100247.7
100280.8
100231.5
100250.1
100260.1
100267.5
100234.7
100262.5
100312.9
100220.9
100237
100245.2
100250.9
100222.8
100246.3
100288.7
100338.5
100207.6
100221.2
100227.6
100231.3
100206
100224.1
100257.9
100298.6
100351.4
100193.1
100204.7
100209.4
100211.5
100187.8
100201.7
100227.5
100258.8
100301.1
100351.7
100505
100385.4
100477.1
100313.5
100366
100417.3
100266.4
100300.2
100324
100350.5
100236.9
100260.8
100273.6
100282.9
100220.8
100217
100235.4
100242.8
100246.1
100193.6
100215.3
100216.9
100233.6
100241.1
100245
100206.4
100228.3
100273
100208.5
100223.2
100229.3
100232.5
100200.3
100219.4
100256.6
100300.4
100200.7
100213.6
100219
100221.4
100194.1
100210.2
100241.5
100279
100328.5
100189.8
100201
100205.2
100206.8
100182.2
100195.3
100220.1
100250.1
100290.6
100339.3
100177.6
100187.3
100190.4
100190.9
100168.2
100178.4
100198.3
100220.9
100252.3
100291.3
100321.5
100505.5
100385.4
100477.1
100312.1
100364.6
100416.3
100263.5
100297
100320.5
100347.3
100229.9
100252.8
100264.2
100271.7
100206.4
100208.3
100225.5
100231.2
100232.2
100175.4
100193.9
100193.5
100207.2
100210.5
100208.9
100161.4
100173.6
100207
100195.3
100208.4
100212.5
100212.8
100176.2
100190.6
100222.2
100259.9
100189.4
100201.1
100204.8
100205.2
100174.7
100187.4
100214.6
100246.6
100290
100183.5
100194.1
100197.5
100198
100171.8
100183.3
100206.2
100233.5
100270.9
100316.1
100174.5
100183.9
100186.6
100186.6
100163.3
100172.8
100191.9
100213.5
100243.5
100280.7
100308.8
100164.1
100172.2
100174.2
100173.7
100152.1
100159.9
100175.5
100192.6
100215.4
100244.2
100266.4
100328.6
100506.7
100386.8
100477.8
100312.1
100364.6
100416.3
100262.2
100295.6
100318.9
100345.8
100227.3
100249.9
100260.8
100267.8
100201.3
100202
100218.4
100223
100222.4
100162.6
100178.8
100185.6
100198.4
100200.3
100196.9
100146
100154.8
100185.2
100174.3
100184.9
100185.6
100181.7
100138.3
100145.3
100167.1
100193
100177.4
100187.8
100189.8
100187.9
100153.9
100163
100185.6
100211.8
100248.9
100173.2
100182.8
100184.8
100183.5
100154.8
100163.7
100183.3
100206.4
100238.2
100277
100168.8
100177.6
100179.6
100178.7
100154
100162.3
100179.8
100199.4
100226.8
100260.7
100284.6
100161.3
100169.1
100170.8
100169.8
100147.7
100155
100169.9
100186.1
100207.9
100235.3
100255.6
100315.9
100152.2
100159.2
100160.3
100159
100138.7
100144.7
100157.3
100170.5
100187.8
100208.5
100223.6
100272.3
100317
100514.1
100389.8
100479.3
100313.5
100366
100417.3
100262.2
100295.6
100318.9
100345.8
100226.1
100248.5
100259.3
100266
100199.1
100199.6
100215.8
100219.9
100218.8
100157.9
100173.4
100180
100192
100193.1
100188.3
100135.2
100141.7
100170
100167.2
100176.9
100176.5
100171.1
100125.2
100129.5
100148.2
100170.7
100158.4
100166.7
100165.9
100160.5
100121.4
100124.8
100140.1
100156.2
100181.2
100162.2
100170.6
100171.2
100168.1
100136.5
100142.6
100158.8
100177.2
100203.1
100235.1
100159.3
100167.2
100168
100165.7
100138.9
100145.1
100160.2
100176.4
100199.5
100227.7
100244.2
100155.9
100163.3
100164.4
100162.6
100139.4
100145.6
100159.3
100174
100193.8
100218.5
100235.1
100291.8
100149.6
100156.3
100157.2
100155.6
100134.7
100140.3
100152.3
100164.8
100181.3
100201
100214.6
100261.5
100304
100141.7
100147.7
100148.2
100146.5
100127.3
100132
100142.4
100152.9
100166.3
100181.9
100191.1
100228.4
100262.7
100314.6
100523.4
100399.3
100487.4
100316.6
100369.2
100419.6
100263.5
100297
100320.5
100347.3
100226.1
100248.5
100259.3
100266
100199.1
100198.6
100214.6
100218.5
100217.1
100155.7
100171
100177.9
100189.7
100190.3
100185.1
100131.1
100136.8
100164.5
100162.1
100171.3
100170.1
100163.6
100116
100118.5
100135.1
100155.1
100151.9
100159.5
100157.8
100151.2
100110
100111.5
100124.2
100137.1
100158.4
100144.9
100151.5
100149.8
100143.8
100108.2
100109.8
100120.5
100131.3
100147.1
100166.3
100149.2
100156.1
100155.7
100151.8
100122.7
100126.7
100139
100151.7
100170.1
100192.2
100200.6
100147.2
100153.8
100153.8
100150.9
100125.9
100130.4
100142.1
100154.2
100170.7
100191
100201.4
100251.1
100144.7
100150.9
100151.3
100149
100127.2
100131.9
100142.9
100154.2
100169.2
100186.8
100197.5
100241
100279.5
100139.3
100145
100145.3
100143.3
100123.7
100128
100137.9
100147.9
100160.6
100175.4
100183.5
100219.4
100251.8
100301.5
100132.3
100137.5
100137.6
100135.5
100117.5
100121.2
100129.9
100138.4
100149.2
100161.1
100166.9
100195.2
100220.6
100260.7
100311.9
100571.8
100412.2
100497.7
100325.5
100379
100429.1
100266.4
100300.2
100324
100350.5
100227.3
100249.9
100260.8
100267.8
100201.3
100198.6
100214.6
100218.5
100217.1
100155.7
100171
100176.9
100188.6
100189.1
100183.7
100129.3
100134.6
100162.1
100160.1
100169.1
100167.7
100160.8
100112.5
100114.3
100130.1
100149.4
100147.3
100154.3
100152
100144.6
100102.1
100102.2
100113.2
100123.8
100142.6
100139
100145
100142.4
100135.5
100098.2
100098.3
100107.1
100115.3
100127.8
100143.1
100133.4
100138.7
100136.4
100130.1
100097.7
100098.1
100106.1
100113.2
100123.9
100135.6
100129.9
100137.9
100143.6
100142.6
100138.3
100111.4
100114
100123.6
100132.9
100145.8
100161.3
100165
100207.3
100136.6
100142.2
100141.6
100138.3
100115
100118.3
100127.7
100136.9
100149.3
100163.5
100169.4
100206.9
100237.1
100134.7
100140.1
100139.9
100137.3
100116.8
100120.4
100129.5
100138.4
100150
100163.1
100169
100202.3
100231
100276.7
100130
100135
100134.9
100132.6
100114.1
100117.5
100125.9
100133.9
100144.1
100155.4
100160.3
100187.5
100211.4
100249.7
100298.7
100123.8
100128.4
100128.2
100125.9
100108.9
100111.9
100119.3
100126.3
100135.1
100144.5
100147.9
100170.4
100188.5
100218.9
100258.5
100596.3
100458.2
100547.6
100337.7
100392.4
100441.6
100274.2
100309.2
100334.5
100361.5
100229.9
100252.8
100264.2
100271.7
100206.4
100199.6
100215.8
100219.9
100218.8
100157.9
100173.4
100176.9
100188.6
100189.1
100183.7
100129.3
100134.6
100162.1
100159.3
100168.1
100166.5
100159.5
100111
100112.5
100127.9
100146.9
100145.5
100152.4
100149.8
100142.1
100099.1
100098.6
100109
100118.8
100136.8
100134.7
100140.3
100137.2
100129.6
100091.3
100090.3
100097.8
100104.2
100114.4
100127
100127.9
100132.7
100129.7
100122.6
100088.8
100088.1
100094.6
100099.7
100107.8
100116.1
100105.2
100123.3
100127.7
100125
100118.7
100089
100088.8
100094.9
100099.9
100107.1
100114.7
100107.5
100131.9
100127.9
100132.8
100131.3
100126.8
100101.9
100103.6
100111.3
100118.3
100127.9
100138.5
100139.2
100170.3
100191.6
100127.2
100132
100131
100127.4
100105.8
100108.2
100115.9
100123.1
100132.6
100143.1
100145.4
100174
100195.7
100232.9
100125.7
100130.4
100129.9
100127
100107.9
100110.7
100118.3
100125.5
100134.7
100144.7
100147.8
100173.1
100194.1
100228.7
100273.7
100121.7
100126.1
100125.7
100123.1
100105.8
100108.5
100115.6
100122.3
100130.6
100139.5
100142.2
100163.8
100180.8
100209.7
100247.4
100116.2
100120.2
100119.7
100117.3
100101.3
100103.7
100110.1
100116
100123.3
100130.9
100132.9
100151
100164.6
100187.1
100217.1
100622.1
100484.4
100573.3
100377.4
100439.1
100494.6
100285.2
100321.7
100349
100376.6
100236.9
100260.8
100273.6
100282.9
100220.8
100202
100218.4
100223
100222.4
100162.6
100178.8
100177.9
100189.7
100190.3
100185.1
100131.1
100136.8
100164.5
100159.3
100168.1
100166.5
100159.5
100111
100112.5
100127.9
100146.9
100144.7
100151.5
100148.8
100140.9
100097.7
100097
100107.1
100116.5
100134.2
100133.1
100138.5
100135.2
100127.3
100088.6
100087.3
100094.2
100099.9
100109.3
100121
100124
100128.4
100125
100117.3
100082.7
100081.1
100086.6
100090.3
100096.7
100102.6
100088.1
100118.2
100122.2
100118.9
100111.9
100081.1
100079.9
100084.8
100088.3
100093.5
100098.4
100087.2
100108.8
100114.5
100118.1
100115.2
100109
100081.7
100081.1
100086
100089.5
100094.7
100099.3
100092
100108.9
100102.3
100119.1
100123.3
100121.5
100116.9
100093.8
100094.9
100101.2
100106.6
100113.9
100121.6
100119.9
100143.5
100157.8
100186.2
100118.7
100122.9
100121.7
100118
100097.8
100099.5
100106
100111.8
100119.3
100127.2
100127.6
100149.2
100164.8
100192.3
100228.1
100117.7
100121.8
100121
100118
100100.1
100102.3
100108.7
100114.6
100122.1
100130
100131.3
100151.3
100166.2
100192.2
100226.3
100114.2
100118.1
100117.4
100114.8
100098.5
100100.7
100106.8
100112.3
100119.3
100126.4
100127.8
100145.3
100158
100179.4
100207.8
100109.2
100112.8
100112.1
100109.6
100094.5
100096.6
100102.1
100107.1
100113.3
100119.6
100120.5
100135.6
100146
100163.4
100185.6
100636.8
100510
100600.1
100401
100466
100523.1
100319.3
100361.9
100397.3
100433.2
100246.7
100271.9
100286.7
100298.6
100241.2
100208.3
100225.5
100231.2
100232.2
100175.4
100193.9
100180
100192
100193.1
100188.3
100135.2
100141.7
100170
100160.1
100169.1
100167.7
100160.8
100112.5
100114.3
100130.1
100149.4
100144.7
100151.5
100148.8
100140.9
100097.7
100097
100107.1
100116.5
100134.2
100132.3
100137.7
100134.3
100126.3
100087.4
100085.9
100092.6
100098
100107
100118.3
100122.5
100126.8
100123.1
100115.2
100080.4
100078.4
100083.5
100086.7
100092.4
100097.4
100081.6
100114.6
100118.3
100114.6
100107.1
100075.6
100073.8
100077.8
100080.2
100084.1
100087.2
100073.2
100093
100109.8
100113
100109.6
100102.8
100074.6
100073.2
100077.1
100079.4
100083
100085.7
100075.3
100089.9
100082.4
100106.6
100109.7
100106.7
100100.7
100075.5
100074.7
100078.6
100081.2
100084.9
100088.1
100080.5
100093.1
100085.7
100081.9
100111.3
100114.8
100112.8
100108.3
100086.9
100087.5
100092.7
100097
100102.7
100108.4
100105.7
100123.6
100133.4
100153.5
100179.9
100111.2
100114.8
100113.4
100109.7
100090.8
100092.1
100097.5
100102.3
100108.4
100114.5
100113.6
100130.9
100141.5
100162.1
100188.5
100110.4
100114
100113
100110
100093.2
100094.9
100100.5
100105.4
100111.6
100117.9
100118.2
100134.4
100145.4
100164.6
100190.2
100107.3
100110.8
100110
100107.3
100091.9
100093.7
100099
100103.8
100109.6
100115.5
100116
100130.5
100140.2
100156.7
100177.8
100102.8
100106
100105.3
100102.7
100088.5
100090.2
100095.1
100099.4
100104.7
100109.9
100110.2
100123
100131.2
100145
100162.1
100645
100525.1
100615.4
100423.6
100492.2
100551.9
100340.1
100386
100425.6
100464.9
100276.4
100306.4
100328
100348.8
100305.3
100217
100235.4
100242.8
100246.1
100193.6
100215.3
100185.6
100198.4
100200.3
100196.9
100146
100154.8
100185.2
100162.1
100171.3
100170.1
100163.6
100116
100118.5
100135.1
100155.1
100145.5
100152.4
100149.8
100142.1
100099.1
100098.6
100109
100118.8
100136.8
100132.3
100137.7
100134.3
100126.3
100087.4
100085.9
100092.6
100098
100107
100118.3
100121.8
100126
100122.3
100114.3
100079.3
100077.2
100082.1
100085.1
100090.5
100095.1
100078.7
100113.2
100116.8
100112.9
100105.2
100073.5
100071.4
100075.1
100077.1
100080.5
100082.9
100067.8
100087.2
100106.4
100109.4
100105.6
100098.4
100069.7
100067.7
100070.9
100072.3
100074.9
100076.3
100063.8
100076.9
100068.8
100102.3
100105
100101.5
100094.9
100069.1
100067.5
100070.6
100072.3
100074.8
100076.4
100066.5
100077.4
100069.5
100066.1
100099.6
100102.3
100099.2
100093.4
100070.2
100069.1
100072.4
100074.3
100077.2
100079.2
100072
100081.4
100074.3
100069.6
100030
100104.2
100107.2
100105.2
100100.7
100080.7
100081.1
100085.5
100089
100093.6
100097.9
100094.6
100108.8
100115.1
100129.9
100148.5
100104.3
100107.5
100105.9
100102.3
100084.6
100085.5
100090.3
100094.2
100099.2
100104.1
100102.6
100116.5
100124.2
100139.2
100159
100103.8
100107
100105.9
100102.9
100087
100088.4
100093.3
100097.5
100102.7
100107.8
100107.4
100120.9
100129.2
100144
100162.9
100101.1
100104.1
100103.2
100100.5
100086.1
100087.5
100092.2
100096.3
100101.3
100106.2
100106.1
100118.4
100126
100139.1
100155.4
100097
100099.8
100099
100096.5
100083
100084.4
100088.8
100092.5
100097.1
100101.6
100101.4
100112.4
100119
100130.2
100143.8
100533.3
100623.9
100437.1
100507.6
100568.6
100359.8
100408.9
100453
100496.1
100294.7
100327.4
100353
100378.8
100343.5
100243.2
100265.4
100278
100288.6
100247.7
100280.8
100193.5
100207.2
100210.5
100208.9
100161.4
100173.6
100207
100167.2
100176.9
100176.5
100171.1
100125.2
100129.5
100148.2
100170.7
100147.3
100154.3
100152
100144.6
100102.1
100102.2
100113.2
100123.8
100142.6
100133.1
100138.5
100135.2
100127.3
100088.6
100087.3
100094.2
100099.9
100109.3
100121
100121.8
100126
100122.3
100114.3
100079.3
100077.2
100082.1
100085.1
100090.5
100095.1
100078.7
100112.6
100116.1
100112.1
100104.4
100072.6
100070.3
100073.9
100075.8
100078.9
100081
100065.4
100084.6
100105.1
100108
100104.1
100096.7
100067.8
100065.5
100068.5
100069.6
100071.8
100072.6
100059.4
100072
100064.2
100099.2
100101.7
100097.9
100090.9
100064.6
100062.5
100065.1
100066.1
100067.8
100068.3
100056.9
100066.7
100058.5
100055.6
100095.6
100097.9
100094.4
100088.1
100064.3
100062.6
100065.2
100066.3
100068.2
100069
100060
100068.3
100061
100056.9
100029.1
100093.3
100095.6
100092.5
100086.9
100065.4
100064.3
100067.1
100068.6
100070.8
100072.2
100065.2
100072.7
100065.8
100061.3
100028.9
100028.9
100097.8
100100.4
100098.3
100094
100075.3
100075.5
100079.3
100082.1
100085.9
100089.2
100085.7
100097.3
100101.6
100112.2
100125.8
100098.1
100100.9
100099.3
100095.7
100079.1
100079.8
100083.9
100087.2
100091.4
100095.4
100093.4
100105.1
100110.7
100122.3
100136.6
100097.7
100100.6
100099.4
100096.4
100081.5
100082.6
100086.9
100090.5
100094.9
100099.2
100098.3
100109.8
100116.3
100128
100142.6
100095.3
100098.1
100097.1
100094.4
100080.7
100082
100086.1
100089.7
100094
100098.2
100097.6
100108.3
100114.4
100125.1
100137.9
100091.5
100094.2
100093.2
100090.7
100078
100079.2
100083.1
100086.4
100090.4
100094.3
100093.8
100103.4
100108.8
100118.2
100129.2
100444.4
100515.9
100577.8
100371.6
100422.7
100469.2
100514.4
100312
100347.4
100376.7
100407.5
100379.8
100259.5
100283.9
100299.7
100314.6
100281.2
100320.3
100216.9
100233.6
100241.1
100245
100206.4
100228.3
100273
100174.3
100184.9
100185.6
100181.7
100138.3
100145.3
100167.1
100193
100151.9
100159.5
100157.8
100151.2
100110
100111.5
100124.2
100137.1
100158.4
100134.7
100140.3
100137.2
100129.6
100091.3
100090.3
100097.8
100104.2
100114.4
100127
100122.5
100126.8
100123.1
100115.2
100080.4
100078.4
100083.5
100086.7
100092.4
100097.4
100081.6
100112.6
100116.1
100112.1
100104.4
100072.6
100070.3
100073.9
100075.8
100078.9
100081
100065.4
100084.6
100104.6
100107.4
100103.4
100095.9
100066.9
100064.6
100067.4
100068.4
100070.4
100071
100057.4
100069.9
100062.2
100098
100100.4
100096.5
100089.4
100062.9
100060.6
100063
100063.7
100065
100065.2
100053.2
100062.7
100054.7
100052.4
100092.7
100094.8
100091
100084.4
100060.2
100058.1
100060.3
100060.8
100062
100062
100051.8
100059.3
100052
100048.4
100028.8
100089.5
100091.5
100088.1
100082.1
100060
100058.4
100060.6
100061.4
100062.8
100063.2
100054.9
100061.5
100054.7
100050.9
100028.2
100028.8
100087.6
100089.6
100086.6
100081.2
100061.2
100060.1
100062.5
100063.6
100065.4
100066.3
100059.8
100065.9
100059.4
100054.9
100028.4
100028
100028.9
100091.9
100094.3
100092.1
100087.9
100070.5
100070.5
100073.8
100076.2
100079.3
100082
100078.4
100088.1
100091
100099.1
100108.8
100092.3
100094.8
100093.2
100089.7
100074.1
100074.6
100078.2
100081.1
100084.7
100087.9
100085.7
100095.7
100100
100109
100120.1
100092.2
100094.7
100093.5
100090.5
100076.5
100077.4
100081.2
100084.3
100088.2
100091.8
100090.6
100100.5
100105.7
100115.2
100126.7
100090
100092.5
100091.4
100088.8
100075.9
100076.9
100080.7
100083.8
100087.6
100091.2
100090.3
100099.6
100104.6
100113.5
100124
100086.5
100088.9
100087.9
100085.5
100073.5
100074.5
100078
100081
100084.5
100087.8
100087.1
100095.6
100100.1
100108
100117.2
100377.9
100430
100477.9
100524.3
100322.4
100359.4
100391
100424.6
100401.3
100274.9
100301.4
100320.2
100339.3
100312.6
100357.5
100231.5
100250.1
100260.1
100267.5
100234.7
100262.5
100312.9
100195.3
100208.4
100212.5
100212.8
100176.2
100190.6
100222.2
100259.9
100158.4
100166.7
100165.9
100160.5
100121.4
100124.8
100140.1
100156.2
100181.2
100139
100145
100142.4
100135.5
100098.2
100098.3
100107.1
100115.3
100127.8
100143.1
100124
100128.4
100125
100117.3
100082.7
100081.1
100086.6
100090.3
100096.7
100102.6
100088.1
100113.2
100116.8
100112.9
100105.2
100073.5
100071.4
100075.1
100077.1
100080.5
100082.9
100067.8
100087.2
100104.6
100107.4
100103.4
100095.9
100066.9
100064.6
100067.4
100068.4
100070.4
100071
100057.4
100069.9
100062.2
100097.4
100099.8
100095.8
100088.7
100062.1
100059.7
100062
100062.6
100063.8
100063.8
100051.5
100060.9
100053
100050.9
100091.6
100093.5
100089.7
100083
100058.6
100056.4
100058.3
100058.7
100059.6
100059.3
100048.6
100055.9
100048.9
100045.7
100028.8
100086.8
100088.6
100085
100078.7
100056.3
100054.3
100056.1
100056.4
100057.2
100057
100047.7
100053.9
100047.1
100043.9
100028
100028.7
100084
100085.7
100082.4
100076.7
100056.2
100054.6
100056.5
100057.1
100058.2
100058.3
100050.7
100056.2
100050
100046.2
100027.8
100028
100028.8
100082.4
100084.1
100081.2
100076.1
100057.4
100056.3
100058.4
100059.3
100060.7
100061.3
100055.3
100060.4
100054.4
100050.2
100027.6
100027.7
100028
100028.8
100086.5
100088.6
100086.5
100082.5
100066.1
100066
100068.9
100070.9
100073.6
100075.8
100072.2
100080.5
100082.5
100088.8
100096.1
100087.1
100089.3
100087.6
100084.2
100069.6
100070
100073.2
100075.7
100078.7
100081.5
100079.2
100087.8
100091.1
100098.5
100107.1
100087
100089.3
100088
100085.2
100071.9
100072.7
100076.1
100078.8
100082.2
100085.3
100083.9
100092.6
100096.8
100104.7
100114.1
100085
100087.3
100086.2
100083.7
100071.5
100072.4
100075.7
100078.5
100081.8
100085
100084
100092.2
100096.3
100103.9
100112.6
100081.8
100084
100083
100080.6
100069.3
100070.1
100073.4
100076
100079.1
100082.1
100081.2
100088.8
100092.6
100099.4
100107.2
100328
100365.8
100398.6
100433.7
100412.8
100284.1
100312
100332.6
100354.1
100331.6
100379.6
100245.2
100265.6
100278
100288.7
100261.2
100294.5
100350.4
100208.5
100223.2
100229.3
100232.5
100200.3
100219.4
100256.6
100300.4
100177.4
100187.8
100189.8
100187.9
100153.9
100163
100185.6
100211.8
100248.9
100144.9
100151.5
100149.8
100143.8
100108.2
100109.8
100120.5
100131.3
100147.1
100166.3
100127.9
100132.7
100129.7
100122.6
100088.8
100088.1
100094.6
100099.7
100107.8
100116.1
100105.2
100114.6
100118.3
100114.6
100107.1
100075.6
100073.8
100077.8
100080.2
100084.1
100087.2
100073.2
100093
100105.1
100108
100104.1
100096.7
100067.8
100065.5
100068.5
100069.6
100071.8
100072.6
100059.4
100072
100064.2
100097.4
100099.8
100095.8
100088.7
100062.1
100059.7
100062
100062.6
100063.8
100063.8
100051.5
100060.9
100053
100050.9
100091
100093
100089.1
100082.3
100057.9
100055.6
100057.5
100057.7
100058.5
100058.1
100047.2
100054.4
100047.5
100044.6
100028.8
100085.8
100087.5
100083.7
100077.3
100054.8
100052.7
100054.3
100054.5
100055.1
100054.6
100044.9
100051
100044.5
100041.8
100028
100028.7
100081.5
100083
100079.5
100073.5
100052.8
100050.9
100052.4
100052.6
100053.2
100052.7
100044.4
100049.5
100043.5
100040.4
100027.7
100027.9
100028.8
100079
100080.5
100077.3
100071.9
100052.8
100051.3
100052.9
100053.3
100054.2
100054.1
100047.2
100051.9
100046.1
100042.8
100027.1
100027.6
100028
100028.8
100077.6
100079.1
100076.3
100071.4
100054
100052.9
100054.7
100055.5
100056.7
100057.1
100051.5
100055.9
100050.3
100046.4
100026.9
100027
100027.7
100028
100028.8
100081.6
100083.5
100081.4
100077.5
100062.2
100062
100064.6
100066.3
100068.6
100070.4
100066.9
100074.1
100075.5
100080.6
100086.3
100082.2
100084.2
100082.6
100079.3
100065.5
100065.7
100068.6
100070.8
100073.5
100075.8
100073.5
100081
100083.7
100089.8
100096.8
100082.2
100084.3
100083
100080.3
100067.7
100068.4
100071.5
100073.9
100076.9
100079.6
100078.1
100085.7
100089.2
100096
100103.7
100080.4
100082.5
100081.4
100078.9
100067.4
100068.2
100071.2
100073.7
100076.7
100079.4
100078.3
100085.6
100089.2
100095.6
100103
100077.4
100079.5
100078.5
100076.2
100065.4
100066.2
100069.1
100071.5
100074.3
100076.9
100075.9
100082.8
100086
100092
100098.7
100289.1
100317.6
100339.2
100362.1
100341.7
100391.4
100253.6
100275
100288.9
100301.5
100277.3
100313.8
100372.7
100220.9
100237
100245.2
100250.9
100222.8
100246.3
100288.7
100338.5
100189.4
100201.1
100204.8
100205.2
100174.7
100187.4
100214.6
100246.6
100290
100162.2
100170.6
100171.2
100168.1
100136.5
100142.6
100158.8
100177.2
100203.1
100235.1
100133.4
100138.7
100136.4
100130.1
100097.7
100098.1
100106.1
100113.2
100123.9
100135.6
100129.9
100118.2
100122.2
100118.9
100111.9
100081.1
100079.9
100084.8
100088.3
100093.5
100098.4
100087.2
100108.8
100106.4
100109.4
100105.6
100098.4
100069.7
100067.7
100070.9
100072.3
100074.9
100076.3
100063.8
100076.9
100068.8
100098
100100.4
100096.5
100089.4
100062.9
100060.6
100063
100063.7
100065
100065.2
100053.2
100062.7
100054.7
100052.4
100091
100093
100089.1
100082.3
100057.9
100055.6
100057.5
100057.7
100058.5
100058.1
100047.2
100054.4
100047.5
100044.6
100028.8
100085.3
100086.9
100083.2
100076.7
100054.1
100052
100053.5
100053.6
100054.1
100053.5
100043.7
100049.7
100043.3
100040.8
100028
100028.7
100080.5
100082
100078.4
100072.3
100051.4
100049.4
100050.8
100050.8
100051.2
100050.6
100042
100047
100041.3
100038.6
100027.7
100027.9
100028.7
100076.7
100078
100074.6
100068.9
100049.6
100047.8
100049.1
100049.2
100049.7
100049.1
100041.6
100046
100040.6
100037.8
100027
100027.6
100028
100028.7
100074.4
100075.7
100072.6
100067.5
100049.7
100048.2
100049.7
100050
100050.7
100050.5
100044.2
100048.2
100043
100039.9
100026.5
100026.9
100027.6
100028
100028.7
100073.2
100074.5
100071.8
100067.1
100050.9
100049.8
100051.4
100052.1
100053.1
100053.3
100048.1
100052
100046.8
100043.2
100026.2
100026.4
100027
100027.6
100028
100028.7
100077
100078.7
100076.7
100072.9
100058.6
100058.3
100060.6
100062.2
100064.1
100065.6
100062.3
100068.6
100069.7
100073.8
100078.4
100077.7
100079.5
100077.9
100074.7
100061.7
100061.9
100064.5
100066.4
100068.8
100070.8
100068.5
100075.2
100077.3
100082.5
100088.3
100077.8
100079.7
100078.4
100075.7
100063.9
100064.4
100067.2
100069.4
100072.1
100074.4
100072.9
100079.7
100082.7
100088.5
100095.1
100076.1
100078
100077
100074.5
100063.6
100064.3
100067.1
100069.3
100072
100074.4
100073.3
100079.9
100082.9
100088.5
100094.9
100073.4
100075.2
100074.2
100072
100061.8
100062.5
100065.2
100067.3
100069.9
100072.2
100071.2
100077.4
100080.2
100085.5
100091.3
100258
100280
100294.7
100308.3
100285.9
100324.1
100384.7
100228.5
100245.5
100254.8
100262
100236.5
100262.6
100308.1
100361.1
100200.7
100213.6
100219
100221.4
100194.1
100210.2
100241.5
100279
100328.5
100173.2
100182.8
100184.8
100183.5
100154.8
100163.7
100183.3
100206.4
100238.2
100277
100149.2
100156.1
100155.7
100151.8
100122.7
100126.7
100139
100151.7
100170.1
100192.2
100200.6
100123.3
100127.7
100125
100118.7
100089
100088.8
100094.9
100099.9
100107.1
100114.7
100107.5
100131.9
100109.8
100113
100109.6
100102.8
100074.6
100073.2
100077.1
100079.4
100083
100085.7
100075.3
100089.9
100082.4
100099.2
100101.7
100097.9
100090.9
100064.6
100062.5
100065.1
100066.1
100067.8
100068.3
100056.9
100066.7
100058.5
100055.6
100091.6
100093.5
100089.7
100083
100058.6
100056.4
100058.3
100058.7
100059.6
100059.3
100048.6
100055.9
100048.9
100045.7
100028.8
100085.3
100086.9
100083.2
100076.7
100054.1
100052
100053.5
100053.6
100054.1
100053.5
100043.7
100049.7
100043.3
100040.8
100028
100028.7
100080.1
100081.5
100077.9
100071.8
100050.8
100048.7
100050.1
100050
100050.4
100049.6
100040.9
100045.9
100040.3
100037.8
100027.7
100027.9
100028.7
100075.7
100077
100073.5
100067.8
100048.4
100046.4
100047.7
100047.6
100047.9
100047.2
100039.4
100043.8
100038.6
100036.3
100027
100027.6
100028
100028.7
100072.2
100073.4
100070.1
100064.7
100046.7
100045
100046.2
100046.2
100046.6
100046
100039.1
100043
100038.1
100035.6
100026.4
100026.9
100027.6
100028
100028.7
100070.2
100071.4
100068.4
100063.5
100046.9
100045.5
100046.8
100047
100047.6
100047.4
100041.5
100045.1
100040.4
100037.6
100025.8
100026.4
100026.9
100027.6
100028
100028.7
100069.1
100070.3
100067.7
100063.2
100048
100047
100048.4
100049
100049.8
100050
100045.2
100048.6
100043.8
100040.5
100025.5
100025.7
100026.4
100027
100027.6
100028
100028.7
100072.8
100074.3
100072.3
100068.8
100055.2
100054.9
100057.1
100058.4
100060.1
100061.4
100058.2
100063.9
100064.6
100068.1
100071.8
100073.5
100075.1
100073.5
100070.5
100058.2
100058.3
100060.7
100062.4
100064.6
100066.3
100064.1
100070.1
100071.8
100076.2
100081.1
100073.6
100075.4
100074.1
100071.5
100060.3
100060.8
100063.3
100065.3
100067.7
100069.8
100068.2
100074.4
100076.9
100082
100087.6
100072.1
100073.9
100072.8
100070.5
100060.1
100060.7
100063.3
100065.3
100067.8
100069.9
100068.7
100074.7
100077.3
100082.3
100087.8
100069.5
100071.2
100070.3
100068.1
100058.4
100059
100061.5
100063.5
100065.8
100067.9
100066.9
100072.5
100075
100079.7
100084.8
100232.5
100249.9
100259.9
100268
100243.8
100271.3
100318.5
100373.2
100207.6
100221.2
100227.6
100231.3
100206
100224.1
100257.9
100298.6
100351.4
100183.5
100194.1
100197.5
100198
100171.8
100183.3
100206.2
100233.5
100270.9
100316.1
100159.3
100167.2
100168
100165.7
100138.9
100145.1
100160.2
100176.4
100199.5
100227.7
100244.2
100137.9
100143.6
100142.6
100138.3
100111.4
100114
100123.6
100132.9
100145.8
100161.3
100165
100207.3
100114.5
100118.1
100115.2
100109
100081.7
100081.1
100086
100089.5
100094.7
100099.3
100092
100108.9
100102.3
100102.3
100105
100101.5
100094.9
100069.1
100067.5
100070.6
100072.3
100074.8
100076.4
100066.5
100077.4
100069.5
100066.1
100092.7
100094.8
100091
100084.4
100060.2
100058.1
100060.3
100060.8
100062
100062
100051.8
100059.3
100052
100048.4
100028.8
100085.8
100087.5
100083.7
100077.3
100054.8
100052.7
100054.3
100054.5
100055.1
100054.6
100044.9
100051
100044.5
100041.8
100028
100028.7
100080.1
100081.5
100077.9
100071.8
100050.8
100048.7
100050.1
100050
100050.4
100049.6
100040.9
100045.9
100040.3
100037.8
100027.7
100027.9
100028.7
100075.3
100076.5
100073
100067.3
100047.8
100045.8
100047
100046.9
100047.1
100046.3
100038.4
100042.8
100037.7
100035.6
100027
100027.6
100028
100028.7
100071.3
100072.4
100069.1
100063.7
100045.6
100043.8
100044.9
100044.8
100045
100044.3
100037.2
100041
100036.4
100034.3
100026.4
100026.9
100027.6
100028
100028.7
100068.1
100069.1
100066
100060.9
100044.1
100042.5
100043.6
100043.5
100043.8
100043.2
100037
100040.4
100036
100033.8
100025.7
100026.4
100026.9
100027.6
100028
100028.7
100066.3
100067.3
100064.5
100059.8
100044.3
100042.9
100044.1
100044.3
100044.8
100044.5
100039.2
100042.3
100038
100035.5
100025.2
100025.7
100026.4
100026.9
100027.6
100028
100028.7
100065.3
100066.4
100063.8
100059.7
100045.3
100044.3
100045.7
100046.2
100046.9
100047
100042.6
100045.6
100041.2
100038.2
100024.8
100025.1
100025.7
100026.4
100026.9
100027.6
100028
100028.7
100068.8
100070.2
100068.3
100064.9
100052.1
100051.8
100053.8
100055
100056.5
100057.6
100054.6
100059.7
100060.2
100063.2
100066.3
100069.5
100071.1
100069.5
100066.6
100055
100055.1
100057.3
100058.8
100060.7
100062.3
100060.1
100065.5
100067
100070.8
100075
100069.7
100071.3
100070.1
100067.6
100057
100057.4
100059.8
100061.6
100063.7
100065.6
100064
100069.7
100071.8
100076.3
100081.2
100068.3
100070
100068.9
100066.7
100056.8
100057.3
100059.8
100061.6
100063.8
100065.8
100064.6
100070.1
100072.3
100076.8
100081.6
100065.9
100067.5
100066.5
100064.5
100055.2
100055.8
100058.1
100060
100062.1
100064
100063
100068.1
100070.4
100074.6
100079.1
100211.2
100225.3
100232.2
100236.6
100212.3
100231.5
100266.7
100309
100363.6
100189.8
100201
100205.2
100206.8
100182.2
100195.3
100220.1
100250.1
100290.6
100339.3
100168.8
100177.6
100179.6