/*--------------------------------*- C++ -*----------------------------------*\
| =========                 |                                                 |
| \\      /  F ield         | OpenFOAM: The Open Source CFD Toolbox           |
|  \\    /   O peration     | Version:  2306                                  |
|   \\  /    A nd           | Website:  www.openfoam.com                      |
|    \\/     M anipulation  |                                                 |
\*---------------------------------------------------------------------------*/
FoamFile
{
    version     2.0;
    format      ascii;
    arch        "LSB;label=32;scalar=64";
    class       volScalarField;
    location    "0.6/fuel";
    object      T;
}
// * * * * * * * * * * * * * * * * * * * * * * * * * * * * * * * * * * * * * //

dimensions      [0 0 0 1 0 0 0];

internalField   nonuniform List<scalar> 
16000
(
1222.029
1221.864
1224.003
1222.043
1221.485
1223.991
1221.879
1225.788
1224.011
1222.062
1220.783
1223.962
1221.5
1225.817
1223.999
1221.899
1227.432
1225.791
1224.024
1222.087
1219.612
1223.902
1220.802
1225.881
1223.969
1221.522
1227.472
1225.82
1224.012
1221.924
1229.005
1227.432
1225.799
1224.043
1222.117
1217.905
1223.788
1219.638
1225.991
1223.907
1220.827
1227.56
1225.883
1223.981
1221.549
1229.046
1227.471
1225.827
1224.03
1221.955
1230.529
1229
1227.435
1225.812
1224.066
1222.153
1215.978
1223.59
1217.945
1226.156
1223.791
1219.671
1227.715
1225.99
1223.918
1220.859
1229.138
1227.558
1225.889
1223.998
1221.582
1230.569
1229.041
1227.474
1225.84
1224.053
1221.992
1232.011
1230.522
1229.001
1227.443
1225.829
1224.094
1222.19
1214.218
1223.298
1216.036
1226.361
1223.589
1217.99
1227.955
1226.151
1223.799
1219.709
1229.3
1227.71
1225.995
1223.934
1220.896
1230.658
1229.132
1227.56
1225.9
1224.021
1221.621
1232.049
1230.562
1229.041
1227.482
1225.856
1224.081
1222.03
1233.45
1232.002
1230.519
1229.005
1227.456
1225.851
1224.123
1222.227
1212.911
1222.97
1214.294
1226.528
1223.295
1216.098
1228.272
1226.349
1223.592
1218.041
1229.555
1227.946
1226.151
1223.812
1219.754
1230.817
1229.293
1227.71
1226.004
1223.955
1220.939
1232.134
1230.65
1229.131
1227.567
1225.916
1224.048
1221.661
1233.487
1232.039
1230.558
1229.045
1227.494
1225.878
1224.11
1222.068
1234.846
1233.439
1231.996
1230.52
1229.014
1227.473
1225.874
1224.152
1222.264
1212.22
1222.692
1212.999
1226.63
1222.969
1214.374
1228.571
1226.511
1223.297
1216.166
1229.894
1228.256
1226.342
1223.601
1218.097
1231.066
1229.543
1227.942
1226.156
1223.831
1219.806
1232.286
1230.807
1229.289
1227.715
1226.017
1223.982
1220.984
1233.568
1232.124
1230.646
1229.134
1227.578
1225.937
1224.077
1221.702
1234.881
1233.476
1232.034
1230.559
1229.053
1227.511
1225.901
1224.139
1222.106
1236.196
1234.834
1233.432
1231.995
1230.526
1229.027
1227.491
1225.897
1224.181
1222.302
1212.22
1222.533
1212.315
1226.678
1222.693
1213.092
1228.801
1226.61
1222.973
1214.458
1230.224
1228.549
1226.499
1223.304
1216.239
1231.4
1229.876
1228.244
1226.34
1223.615
1218.16
1232.525
1231.052
1229.536
1227.942
1226.165
1223.855
1219.859
1233.712
1232.274
1230.801
1229.29
1227.723
1226.036
1224.009
1221.03
1234.958
1233.556
1232.118
1230.646
1229.141
1227.594
1225.958
1224.105
1221.743
1236.229
1234.868
1233.468
1232.033
1230.564
1229.066
1227.528
1225.923
1224.168
1222.145
1237.499
1236.183
1234.825
1233.429
1231.998
1230.535
1229.04
1227.509
1225.92
1224.21
1222.484
1212.911
1222.533
1212.315
1226.696
1222.536
1212.415
1228.95
1226.658
1222.699
1213.19
1230.487
1228.776
1226.596
1222.981
1214.548
1231.728
1230.2
1228.532
1226.491
1223.317
1216.318
1232.845
1231.381
1229.862
1228.237
1226.343
1223.635
1218.224
1233.94
1232.51
1231.043
1229.532
1227.946
1226.18
1223.879
1219.913
1235.096
1233.699
1232.266
1230.799
1229.295
1227.737
1226.055
1224.036
1221.076
1236.303
1234.945
1233.548
1232.116
1230.65
1229.153
1227.61
1225.98
1224.134
1221.784
1237.531
1236.216
1234.859
1233.465
1232.035
1230.574
1229.079
1227.545
1225.945
1224.197
1222.333
1238.754
1237.485
1236.173
1234.821
1233.43
1232.005
1230.545
1229.054
1227.526
1225.943
1224.354
1222.833
1214.218
1222.692
1212.999
1226.696
1222.536
1212.415
1229.022
1226.675
1222.544
1212.52
1230.663
1228.923
1226.643
1222.711
1213.291
1231.993
1230.46
1228.755
1226.586
1222.996
1214.642
1233.162
1231.704
1230.181
1228.52
1226.489
1223.335
1216.397
1234.246
1232.825
1231.366
1229.853
1228.235
1226.35
1223.655
1218.288
1235.313
1233.924
1232.499
1231.038
1229.534
1227.955
1226.194
1223.904
1219.967
1236.435
1235.081
1233.69
1232.262
1230.801
1229.305
1227.75
1226.074
1224.064
1221.123
1237.602
1236.289
1234.936
1233.544
1232.117
1230.659
1229.165
1227.626
1226.001
1224.162
1221.986
1238.785
1237.517
1236.206
1234.854
1233.465
1232.041
1230.583
1229.092
1227.562
1225.968
1224.339
1222.698
1239.961
1238.74
1237.474
1236.167
1234.819
1233.434
1232.012
1230.555
1229.067
1227.544
1226.056
1224.614
1223.199
1215.978
1222.97
1214.294
1226.678
1222.693
1213.092
1229.022
1226.675
1222.544
1212.52
1230.751
1228.994
1226.659
1222.557
1212.628
1232.173
1230.635
1228.901
1226.632
1222.727
1213.399
1233.419
1231.966
1230.438
1228.739
1226.581
1223.015
1214.737
1234.55
1233.138
1231.685
1230.167
1228.512
1226.492
1223.354
1216.476
1235.606
1234.226
1232.81
1231.355
1229.848
1228.237
1226.358
1223.675
1218.352
1236.643
1235.296
1233.912
1232.491
1231.036
1229.539
1227.965
1226.209
1223.929
1220.022
1237.729
1236.42
1235.071
1233.684
1232.262
1230.808
1229.314
1227.764
1226.093
1224.091
1221.351
1238.854
1237.587
1236.279
1234.93
1233.543
1232.123
1230.667
1229.177
1227.642
1226.022
1224.303
1222.391
1239.991
1238.77
1237.506
1236.199
1234.853
1233.469
1232.048
1230.592
1229.105
1227.579
1226.079
1224.599
1223.088
1241.12
1239.946
1238.728
1237.467
1236.164
1234.822
1233.439
1232.019
1230.565
1229.08
1227.633
1226.257
1224.877
1223.58
1217.905
1223.298
1216.036
1226.63
1222.969
1214.374
1228.95
1226.658
1222.699
1213.19
1230.751
1228.994
1226.659
1222.557
1212.628
1232.263
1230.721
1228.972
1226.649
1222.575
1212.742
1233.594
1232.144
1230.611
1228.883
1226.626
1222.749
1213.505
1234.796
1233.392
1231.943
1230.42
1228.728
1226.581
1223.035
1214.831
1235.896
1234.526
1233.118
1231.669
1230.157
1228.509
1226.495
1223.373
1216.554
1236.924
1235.585
1234.209
1232.798
1231.348
1229.847
1228.24
1226.366
1223.696
1218.417
1237.929
1236.626
1235.283
1233.903
1232.488
1231.039
1229.544
1227.974
1226.223
1223.954
1220.291
1238.976
1237.713
1236.408
1235.064
1233.682
1232.266
1230.814
1229.324
1227.778
1226.112
1224.227
1221.825
1240.057
1238.838
1237.576
1236.272
1234.928
1233.547
1232.128
1230.676
1229.188
1227.657
1226.127
1224.562
1222.834
1241.148
1239.976
1238.759
1237.498
1236.196
1234.855
1233.473
1232.054
1230.602
1229.118
1227.666
1226.275
1224.863
1223.496
1242.23
1241.105
1239.935
1238.72
1237.464
1236.165
1234.824
1233.443
1232.026
1230.575
1229.148
1227.788
1226.455
1225.141
1223.971
1219.612
1223.59
1217.945
1226.528
1223.295
1216.098
1228.801
1226.61
1222.973
1214.458
1230.663
1228.923
1226.643
1222.711
1213.291
1232.263
1230.721
1228.972
1226.649
1222.575
1212.742
1233.682
1232.233
1230.697
1228.953
1226.643
1222.598
1212.855
1234.965
1233.566
1232.12
1230.591
1228.871
1226.626
1222.771
1213.611
1236.133
1234.77
1233.37
1231.925
1230.407
1228.722
1226.581
1223.055
1214.924
1237.203
1235.873
1234.506
1233.102
1231.658
1230.151
1228.506
1226.498
1223.391
1216.632
1238.199
1236.904
1235.569
1234.197
1232.79
1231.346
1229.847
1228.243
1226.374
1223.717
1218.725
1239.169
1237.911
1236.612
1235.274
1233.898
1232.489
1231.042
1229.55
1227.983
1226.238
1224.078
1220.847
1240.175
1238.959
1237.701
1236.4
1235.06
1233.683
1232.27
1230.82
1229.333
1227.791
1226.206
1224.483
1222.36
1241.213
1240.042
1238.826
1237.568
1236.268
1234.929
1233.55
1232.134
1230.684
1229.2
1227.737
1226.312
1224.828
1223.308
1242.258
1241.133
1239.964
1238.75
1237.494
1236.197
1234.857
1233.477
1232.061
1230.611
1229.183
1227.815
1226.468
1225.129
1223.919
1243.293
1242.215
1241.093
1239.926
1238.716
1237.463
1236.166
1234.827
1233.448
1232.032
1230.625
1229.266
1227.938
1226.65
1225.407
1220.783
1223.788
1219.638
1226.361
1223.589
1217.99
1228.571
1226.511
1223.297
1216.166
1230.487
1228.776
1226.596
1222.981
1214.548
1232.173
1230.635
1228.901
1226.632
1222.727
1213.399
1233.682
1232.233
1230.697
1228.953
1226.643
1222.598
1212.855
1235.049
1233.653
1232.208
1230.676
1228.94
1226.642
1222.622
1212.967
1236.295
1234.937
1233.542
1232.1
1230.576
1228.863
1226.625
1222.792
1213.716
1237.431
1236.107
1234.748
1233.351
1231.911
1230.398
1228.716
1226.582
1223.074
1215.016
1238.468
1237.18
1235.853
1234.49
1233.091
1231.651
1230.146
1228.503
1226.501
1223.41
1217
1239.43
1238.179
1236.886
1235.556
1234.188
1232.786
1231.343
1229.846
1228.245
1226.382
1223.818
1219.295
1240.362
1239.151
1237.897
1236.602
1235.268
1233.897
1232.489
1231.044
1229.555
1227.992
1226.31
1224.32
1221.489
1241.327
1240.159
1238.946
1237.691
1236.395
1235.06
1233.685
1232.273
1230.827
1229.343
1227.858
1226.37
1224.754
1222.955
1242.321
1241.197
1240.029
1238.818
1237.563
1236.268
1234.931
1233.553
1232.139
1230.692
1229.259
1227.873
1226.494
1225.101
1223.805
1243.32
1242.243
1241.121
1239.955
1238.745
1237.494
1236.197
1234.859
1233.481
1232.067
1230.659
1229.294
1227.959
1226.658
1225.398
1244.308
1243.277
1242.203
1241.083
1239.92
1238.714
1237.462
1236.167
1234.829
1233.452
1232.068
1230.711
1229.378
1228.085
1226.845
1221.485
1223.902
1220.802
1226.156
1223.791
1219.671
1228.272
1226.349
1223.592
1218.041
1230.224
1228.549
1226.499
1223.304
1216.239
1231.993
1230.46
1228.755
1226.586
1222.996
1214.642
1233.594
1232.144
1230.611
1228.883
1226.626
1222.749
1213.505
1235.049
1233.653
1232.208
1230.676
1228.94
1226.642
1222.622
1212.967
1236.376
1235.021
1233.628
1232.188
1230.661
1228.931
1226.641
1222.645
1213.078
1237.587
1236.268
1234.914
1233.522
1232.084
1230.565
1228.854
1226.624
1222.814
1213.819
1238.687
1237.405
1236.086
1234.729
1233.337
1231.901
1230.389
1228.709
1226.582
1223.094
1215.45
1239.69
1238.445
1237.16
1235.837
1234.478
1233.083
1231.644
1230.14
1228.5
1226.504
1223.502
1217.622
1240.615
1239.409
1238.161
1236.873
1235.546
1234.183
1232.782
1231.341
1229.846
1228.248
1226.423
1224.013
1219.877
1241.509
1240.344
1239.136
1237.886
1236.595
1235.265
1233.896
1232.49
1231.047
1229.56
1228.036
1226.44
1224.587
1222.245
1242.432
1241.311
1240.146
1238.937
1237.686
1236.394
1235.06
1233.687
1232.277
1230.833
1229.39
1227.969
1226.533
1225.039
1223.602
1243.381
1242.305
1241.184
1240.02
1238.812
1237.562
1236.268
1234.932
1233.556
1232.145
1230.734
1229.357
1228.002
1226.674
1225.378
1244.334
1243.304
1242.23
1241.112
1239.949
1238.744
1237.493
1236.198
1234.861
1233.485
1232.1
1230.739
1229.4
1228.099
1226.847
1245.275
1244.292
1243.265
1242.193
1241.077
1239.918
1238.712
1237.462
1236.168
1234.831
1233.475
1232.127
1230.792
1229.487
1228.23
1221.864
1223.962
1221.5
1225.991
1223.907
1220.827
1227.955
1226.151
1223.799
1219.709
1229.894
1228.256
1226.342
1223.601
1218.097
1231.728
1230.2
1228.532
1226.491
1223.317
1216.318
1233.419
1231.966
1230.438
1228.739
1226.581
1223.015
1214.737
1234.965
1233.566
1232.12
1230.591
1228.871
1226.626
1222.771
1213.611
1236.376
1235.021
1233.628
1232.188
1230.661
1228.931
1226.641
1222.645
1213.078
1237.665
1236.349
1234.997
1233.608
1232.171
1230.649
1228.922
1226.64
1222.668
1213.187
1238.838
1237.56
1236.245
1234.894
1233.506
1232.073
1230.555
1228.846
1226.624
1222.836
1214.305
1239.902
1238.663
1237.384
1236.068
1234.715
1233.327
1231.891
1230.38
1228.703
1226.583
1223.19
1216.149
1240.867
1239.667
1238.425
1237.144
1235.825
1234.469
1233.075
1231.638
1230.135
1228.498
1226.52
1223.672
1218.201
1241.755
1240.595
1239.392
1238.148
1236.863
1235.54
1234.178
1232.778
1231.338
1229.845
1228.261
1226.498
1224.216
1220.462
1242.609
1241.491
1240.329
1239.125
1237.878
1236.591
1235.262
1233.895
1232.49
1231.049
1229.587
1228.11
1226.571
1224.888
1223.169
1243.49
1242.416
1241.297
1240.135
1238.93
1237.683
1236.392
1235.06
1233.688
1232.28
1230.863
1229.463
1228.074
1226.695
1225.339
1244.394
1243.365
1242.292
1241.175
1240.014
1238.81
1237.561
1236.268
1234.933
1233.56
1232.173
1230.801
1229.448
1228.127
1226.853
1245.301
1244.319
1243.292
1242.221
1241.105
1239.946
1238.742
1237.492
1236.198
1234.863
1233.506
1232.154
1230.813
1229.501
1228.236
1246.197
1245.26
1244.28
1243.255
1242.187
1241.074
1239.915
1238.711
1237.461
1236.168
1234.844
1233.512
1232.181
1230.869
1229.593
1222.029
1223.991
1221.879
1225.881
1223.969
1221.522
1227.715
1225.99
1223.918
1220.859
1229.555
1227.946
1226.151
1223.812
1219.754
1231.4
1229.876
1228.244
1226.34
1223.615
1218.16
1233.162
1231.704
1230.181
1228.52
1226.489
1223.335
1216.397
1234.796
1233.392
1231.943
1230.42
1228.728
1226.581
1223.035
1214.831
1236.295
1234.937
1233.542
1232.1
1230.576
1228.863
1226.625
1222.792
1213.716
1237.665
1236.349
1234.997
1233.608
1232.171
1230.649
1228.922
1226.64
1222.668
1213.187
1238.914
1237.638
1236.326
1234.977
1233.592
1232.159
1230.638
1228.914
1226.64
1222.692
1213.701
1240.048
1238.812
1237.538
1236.226
1234.879
1233.495
1232.061
1230.544
1228.838
1226.623
1222.941
1215.073
1241.073
1239.878
1238.642
1237.366
1236.053
1234.705
1233.316
1231.882
1230.372
1228.697
1226.586
1223.359
1216.771
1241.999
1240.845
1239.648
1238.41
1237.132
1235.816
1234.461
1233.067
1231.631
1230.13
1228.485
1226.556
1223.842
1218.73
1242.848
1241.734
1240.578
1239.378
1238.138
1236.857
1235.534
1234.173
1232.774
1231.336
1229.843
1228.285
1226.575
1224.423
1221.031
1243.662
1242.591
1241.476
1240.318
1239.116
1237.874
1236.587
1235.26
1233.893
1232.49
1231.061
1229.624
1228.177
1226.707
1225.238
1244.5
1243.473
1242.402
1241.287
1240.128
1238.927
1237.68
1236.39
1235.059
1233.689
1232.298
1230.908
1229.528
1228.173
1226.858
1245.36
1244.378
1243.352
1242.282
1241.168
1240.011
1238.807
1237.559
1236.267
1234.934
1233.575
1232.214
1230.861
1229.533
1228.248
1246.222
1245.286
1244.306
1243.282
1242.214
1241.102
1239.944
1238.74
1237.491
1236.199
1234.874
1233.538
1232.202
1230.883
1229.6
1247.072
1246.182
1245.248
1244.27
1243.248
1242.183
1241.071
1239.913
1238.709
1237.461
1236.172
1234.862
1233.544
1232.232
1230.944
1224.003
1222.043
1225.817
1223.999
1221.899
1227.56
1225.883
1223.981
1221.549
1229.3
1227.71
1225.995
1223.934
1220.896
1231.066
1229.543
1227.942
1226.156
1223.831
1219.806
1232.845
1231.381
1229.862
1228.237
1226.343
1223.635
1218.224
1234.55
1233.138
1231.685
1230.167
1228.512
1226.492
1223.354
1216.476
1236.133
1234.77
1233.37
1231.925
1230.407
1228.722
1226.581
1223.055
1214.924
1237.587
1236.268
1234.914
1233.522
1232.084
1230.565
1228.854
1226.624
1222.814
1213.819
1238.914
1237.638
1236.326
1234.977
1233.592
1232.159
1230.638
1228.914
1226.64
1222.692
1213.701
1240.121
1238.888
1237.616
1236.306
1234.961
1233.579
1232.147
1230.626
1228.905
1226.639
1222.803
1214.509
1241.214
1240.023
1238.791
1237.519
1236.211
1234.867
1233.483
1232.049
1230.534
1228.831
1226.622
1223.119
1215.744
1242.2
1241.049
1239.857
1238.624
1237.352
1236.043
1234.694
1233.306
1231.872
1230.363
1228.668
1226.599
1223.523
1217.316
1243.086
1241.978
1240.826
1239.632
1238.397
1237.123
1235.807
1234.453
1233.06
1231.624
1230.104
1228.469
1226.595
1224.009
1219.199
1243.895
1242.828
1241.717
1240.564
1239.368
1238.13
1236.85
1235.528
1234.168
1232.77
1231.324
1229.839
1228.308
1226.649
1224.623
1222.1
1244.668
1243.644
1242.576
1241.464
1240.309
1239.111
1237.869
1236.583
1235.257
1233.892
1232.491
1231.073
1229.652
1228.238
1226.853
1245.464
1244.483
1243.459
1242.391
1241.279
1240.124
1238.923
1237.677
1236.389
1235.059
1233.696
1232.319
1230.943
1229.586
1228.268
1246.279
1245.344
1244.365
1243.342
1242.275
1241.164
1240.007
1238.804
1237.557
1236.267
1234.94
1233.596
1232.249
1230.915
1229.614
1247.097
1246.207
1245.273
1244.296
1243.275
1242.21
1241.098
1239.941
1238.738
1237.49
1236.201
1234.887
1233.564
1232.246
1230.951
1247.902
1247.057
1246.169
1245.238
1244.263
1243.244
1242.179
1241.067
1239.91
1238.707
1237.457
1236.174
1234.876
1233.573
1232.281
1225.788
1224.011
1222.062
1227.472
1225.82
1224.012
1221.924
1229.138
1227.558
1225.889
1223.998
1221.582
1230.817
1229.293
1227.71
1226.004
1223.955
1220.939
1232.525
1231.052
1229.536
1227.942
1226.165
1223.855
1219.859
1234.246
1232.825
1231.366
1229.853
1228.235
1226.35
1223.655
1218.288
1235.896
1234.526
1233.118
1231.669
1230.157
1228.509
1226.495
1223.373
1216.554
1237.431
1236.107
1234.748
1233.351
1231.911
1230.398
1228.716
1226.582
1223.074
1215.016
1238.838
1237.56
1236.245
1234.894
1233.506
1232.073
1230.555
1228.846
1226.624
1222.836
1214.305
1240.121
1238.888
1237.616
1236.306
1234.961
1233.579
1232.147
1230.626
1228.905
1226.639
1222.803
1214.509
1241.286
1240.096
1238.866
1237.596
1236.29
1234.949
1233.566
1232.134
1230.615
1228.897
1226.636
1222.989
1215.21
1242.337
1241.19
1240.002
1238.772
1237.504
1236.199
1234.855
1233.471
1232.038
1230.523
1228.793
1226.625
1223.288
1216.323
1243.282
1242.177
1241.029
1239.84
1238.61
1237.342
1236.032
1234.683
1233.296
1231.862
1230.321
1228.625
1226.617
1223.679
1217.782
1244.128
1243.065
1241.959
1240.81
1239.62
1238.388
1237.113
1235.798
1234.444
1233.052
1231.59
1230.063
1228.457
1226.635
1224.165
1220.018
1244.896
1243.876
1242.811
1241.704
1240.553
1239.36
1238.123
1236.843
1235.522
1234.163
1232.75
1231.3
1229.832
1228.327
1226.717
1225.012
1222.743
1245.628
1244.65
1243.629
1242.564
1241.455
1240.303
1239.105
1237.864
1236.579
1235.254
1233.883
1232.482
1231.074
1229.671
1228.295
1246.381
1245.447
1244.47
1243.448
1242.383
1241.274
1240.119
1238.919
1237.674
1236.387
1235.056
1233.697
1232.329
1230.97
1229.638
1247.153
1246.264
1245.331
1244.354
1243.334
1242.27
1241.16
1240.004
1238.802
1237.556
1236.264
1234.943
1233.609
1232.277
1230.965
1247.926
1247.082
1246.194
1245.263
1244.289
1243.27
1242.206
1241.095
1239.938
1238.736
1237.485
1236.198
1234.895
1233.587
1232.288
1248.687
1247.887
1247.045
1246.159
1245.23
1244.258
1243.24
1242.175
1241.064
1239.907
1238.698
1237.446
1236.173
1234.886
1233.6
1227.432
1225.791
1224.024
1222.087
1229.046
1227.471
1225.827
1224.03
1221.955
1230.658
1229.132
1227.56
1225.9
1224.021
1221.621
1232.286
1230.807
1229.289
1227.715
1226.017
1223.982
1220.984
1233.94
1232.51
1231.043
1229.532
1227.946
1226.18
1223.879
1219.913
1235.606
1234.226
1232.81
1231.355
1229.848
1228.237
1226.358
1223.675
1218.352
1237.203
1235.873
1234.506
1233.102
1231.658
1230.151
1228.506
1226.498
1223.391
1216.632
1238.687
1237.405
1236.086
1234.729
1233.337
1231.901
1230.389
1228.709
1226.582
1223.094
1215.45
1240.048
1238.812
1237.538
1236.226
1234.879
1233.495
1232.061
1230.544
1228.838
1226.623
1222.941
1215.073
1241.286
1240.096
1238.866
1237.596
1236.29
1234.949
1233.566
1232.134
1230.615
1228.897
1226.636
1222.989
1215.21
1242.407
1241.261
1240.074
1238.847
1237.581
1236.278
1234.936
1233.554
1232.122
1230.604
1228.855
1226.636
1223.163
1215.811
1243.416
1242.314
1241.17
1239.984
1238.758
1237.493
1236.187
1234.843
1233.459
1232.027
1230.472
1228.735
1226.633
1223.446
1216.811
1244.319
1243.259
1242.157
1241.013
1239.827
1238.6
1237.331
1236.021
1234.673
1233.286
1231.814
1230.255
1228.59
1226.638
1223.825
1218.581
1245.124
1244.107
1243.047
1241.944
1240.798
1239.61
1238.378
1237.104
1235.789
1234.436
1233.013
1231.536
1230.028
1228.448
1226.672
1224.477
1220.891
1245.852
1244.877
1243.859
1242.797
1241.693
1240.545
1239.353
1238.116
1236.836
1235.516
1234.137
1232.713
1231.275
1229.823
1228.341
1226.838
1225.255
1223.112
1246.543
1245.611
1244.636
1243.617
1242.554
1241.448
1240.297
1239.1
1237.859
1236.575
1235.238
1233.857
1232.462
1231.063
1229.678
1247.253
1246.365
1245.433
1244.458
1243.44
1242.378
1241.269
1240.115
1238.915
1237.671
1236.377
1235.041
1233.688
1232.332
1230.99
1247.982
1247.138
1246.251
1245.32
1244.347
1243.329
1242.266
1241.156
1240
1238.799
1237.546
1236.252
1234.938
1233.617
1232.302
1248.711
1247.912
1247.069
1246.184
1245.256
1244.284
1243.266
1242.201
1241.091
1239.935
1238.724
1237.47
1236.191
1234.899
1233.606
1249.427
1248.672
1247.875
1247.035
1246.152
1245.225
1244.253
1243.235
1242.171
1241.061
1239.893
1238.676
1237.432
1236.168
1234.895
1229.005
1227.432
1225.799
1224.043
1222.117
1230.569
1229.041
1227.474
1225.84
1224.053
1221.992
1232.134
1230.65
1229.131
1227.567
1225.916
1224.048
1221.661
1233.712
1232.274
1230.801
1229.29
1227.723
1226.036
1224.009
1221.03
1235.313
1233.924
1232.499
1231.038
1229.534
1227.955
1226.194
1223.904
1219.967
1236.924
1235.585
1234.209
1232.798
1231.348
1229.847
1228.24
1226.366
1223.696
1218.417
1238.468
1237.18
1235.853
1234.49
1233.091
1231.651
1230.146
1228.503
1226.501
1223.41
1217
1239.902
1238.663
1237.384
1236.068
1234.715
1233.327
1231.891
1230.38
1228.703
1226.583
1223.19
1216.149
1241.214
1240.023
1238.791
1237.519
1236.211
1234.867
1233.483
1232.049
1230.534
1228.831
1226.622
1223.119
1215.744
1242.407
1241.261
1240.074
1238.847
1237.581
1236.278
1234.936
1233.554
1232.122
1230.604
1228.855
1226.636
1223.163
1215.811
1243.484
1242.383
1241.24
1240.056
1238.832
1237.569
1236.265
1234.923
1233.541
1232.11
1230.548
1228.791
1226.64
1223.324
1216.315
1244.45
1243.393
1242.294
1241.152
1239.969
1238.746
1237.481
1236.175
1234.831
1233.447
1231.97
1230.391
1228.687
1226.644
1223.592
1217.642
1245.311
1244.297
1243.24
1242.141
1240.999
1239.816
1238.589
1237.32
1236.01
1234.662
1233.234
1231.737
1230.199
1228.562
1226.66
1224.12
1219.557
1246.075
1245.104
1244.089
1243.032
1241.931
1240.788
1239.601
1238.369
1237.095
1235.781
1234.394
1232.95
1231.488
1229.997
1228.441
1226.75
1224.811
1221.516
1246.762
1245.833
1244.861
1243.845
1242.787
1241.685
1240.537
1239.345
1238.109
1236.83
1235.485
1234.088
1232.674
1231.247
1229.81
1228.352
1226.912
1225.399
1223.388
1247.412
1246.525
1245.596
1244.623
1243.607
1242.547
1241.442
1240.29
1239.094
1237.854
1236.553
1235.198
1233.82
1232.428
1231.036
1248.08
1247.237
1246.351
1245.422
1244.45
1243.434
1242.372
1241.264
1240.11
1238.911
1237.655
1236.347
1235.016
1233.67
1232.327
1248.765
1247.966
1247.125
1246.24
1245.313
1244.341
1243.324
1242.261
1241.151
1239.996
1238.784
1237.522
1236.233
1234.929
1233.621
1249.451
1248.696
1247.899
1247.059
1246.176
1245.251
1244.279
1243.261
1242.197
1241.087
1239.919
1238.699
1237.45
1236.181
1234.901
1250.124
1249.413
1248.66
1247.865
1247.027
1246.146
1245.22
1244.248
1243.231
1242.167
1241.042
1239.863
1238.651
1237.415
1236.161
1230.529
1229
1227.435
1225.812
1224.066
1222.153
1232.049
1230.562
1229.041
1227.482
1225.856
1224.081
1222.03
1233.568
1232.124
1230.646
1229.134
1227.578
1225.937
1224.077
1221.702
1235.096
1233.699
1232.266
1230.799
1229.295
1227.737
1226.055
1224.036
1221.076
1236.643
1235.296
1233.912
1232.491
1231.036
1229.539
1227.965
1226.209
1223.929
1220.022
1238.199
1236.904
1235.569
1234.197
1232.79
1231.346
1229.847
1228.243
1226.374
1223.717
1218.725
1239.69
1238.445
1237.16
1235.837
1234.478
1233.083
1231.644
1230.14
1228.5
1226.504
1223.502
1217.622
1241.073
1239.878
1238.642
1237.366
1236.053
1234.705
1233.316
1231.882
1230.372
1228.697
1226.586
1223.359
1216.771
1242.337
1241.19
1240.002
1238.772
1237.504
1236.199
1234.855
1233.471
1232.038
1230.523
1228.793
1226.625
1223.288
1216.323
1243.484
1242.383
1241.24
1240.056
1238.832
1237.569
1236.265
1234.923
1233.541
1232.11
1230.548
1228.791
1226.64
1223.324
1216.315
1244.517
1243.461
1242.363
1241.222
1240.041
1238.82
1237.556
1236.253
1234.911
1233.529
1232.049
1230.46
1228.736
1226.648
1223.473
1217.173
1245.44
1244.428
1243.373
1242.277
1241.138
1239.958
1238.734
1237.469
1236.163
1234.819
1233.388
1231.88
1230.321
1228.647
1226.658
1223.888
1218.687
1246.258
1245.29
1244.278
1243.224
1242.127
1240.988
1239.805
1238.578
1237.309
1236
1234.609
1233.152
1231.67
1230.15
1228.539
1226.712
1224.487
1220.331
1246.981
1246.055
1245.086
1244.074
1243.019
1241.922
1240.779
1239.591
1238.36
1237.086
1235.736
1234.324
1232.893
1231.444
1229.968
1228.424
1226.832
1225.051
1222.004
1247.627
1246.743
1245.817
1244.847
1243.834
1242.778
1241.676
1240.529
1239.337
1238.101
1236.795
1235.428
1234.038
1232.633
1231.218
1229.764
1228.356
1226.956
1225.51
1223.626
1248.236
1247.395
1246.511
1245.584
1244.614
1243.6
1242.54
1241.435
1240.284
1239.088
1237.826
1236.502
1235.147
1233.768
1232.376
1248.862
1248.064
1247.223
1246.34
1245.414
1244.444
1243.428
1242.366
1241.258
1240.105
1238.889
1237.615
1236.309
1234.982
1233.646
1249.504
1248.75
1247.953
1247.114
1246.232
1245.307
1244.336
1243.319
1242.256
1241.147
1239.977
1238.75
1237.491
1236.209
1234.915
1250.147
1249.437
1248.684
1247.889
1247.051
1246.171
1245.245
1244.274
1243.256
1242.193
1241.067
1239.885
1238.669
1237.427
1236.167
1250.777
1250.11
1249.401
1248.65
1247.857
1247.022
1246.141
1245.215
1244.243
1243.226
1242.145
1241.005
1239.829
1238.624
1237.395
1232.011
1230.522
1229.001
1227.443
1225.829
1224.094
1222.19
1233.487
1232.039
1230.558
1229.045
1227.494
1225.878
1224.11
1222.068
1234.958
1233.556
1232.118
1230.646
1229.141
1227.594
1225.958
1224.105
1221.743
1236.435
1235.081
1233.69
1232.262
1230.801
1229.305
1227.75
1226.074
1224.064
1221.123
1237.929
1236.626
1235.283
1233.903
1232.488
1231.039
1229.544
1227.974
1226.223
1223.954
1220.291
1239.43
1238.179
1236.886
1235.556
1234.188
1232.786
1231.343
1229.846
1228.245
1226.382
1223.818
1219.295
1240.867
1239.667
1238.425
1237.144
1235.825
1234.469
1233.075
1231.638
1230.135
1228.498
1226.52
1223.672
1218.201
1242.2
1241.049
1239.857
1238.624
1237.352
1236.043
1234.694
1233.306
1231.872
1230.363
1228.668
1226.599
1223.523
1217.316
1243.416
1242.314
1241.17
1239.984
1238.758
1237.493
1236.187
1234.843
1233.459
1232.027
1230.472
1228.735
1226.633
1223.446
1216.811
1244.517
1243.461
1242.363
1241.222
1240.041
1238.82
1237.556
1236.253
1234.911
1233.529
1232.049
1230.46
1228.736
1226.648
1223.473
1217.173
1245.505
1244.494
1243.441
1242.345
1241.208
1240.03
1238.808
1237.544
1236.241
1234.899
1233.467
1231.953
1230.384
1228.691
1226.658
1223.773
1218.256
1246.384
1245.418
1244.409
1243.357
1242.263
1241.127
1239.946
1238.722
1237.457
1236.152
1234.759
1233.294
1231.801
1230.261
1228.614
1226.694
1224.274
1219.548
1247.161
1246.237
1245.271
1244.262
1243.211
1242.117
1240.978
1239.794
1238.567
1237.298
1235.945
1234.523
1233.079
1231.612
1230.108
1228.495
1226.783
1224.78
1220.966
1247.842
1246.961
1246.038
1245.071
1244.062
1243.01
1241.912
1240.769
1239.582
1238.35
1237.039
1235.662
1234.261
1232.841
1231.404
1229.905
1228.402
1226.891
1225.238
1222.421
1248.447
1247.609
1246.727
1245.803
1244.836
1243.826
1242.77
1241.668
1240.521
1239.329
1238.063
1236.73
1235.37
1233.988
1232.592
1231.137
1229.732
1228.358
1226.992
1225.607
1223.851
1249.015
1248.219
1247.38
1246.498
1245.574
1244.606
1243.593
1242.533
1241.428
1240.278
1239.057
1237.766
1236.439
1235.08
1233.696
1249.6
1248.846
1248.05
1247.212
1246.331
1245.407
1244.437
1243.422
1242.36
1241.253
1240.079
1238.84
1237.565
1236.261
1234.94
1250.2
1249.49
1248.737
1247.943
1247.106
1246.226
1245.301
1244.33
1243.314
1242.251
1241.124
1239.934
1238.709
1237.455
1236.181
1250.8
1250.133
1249.424
1248.674
1247.881
1247.046
1246.165
1245.24
1244.268
1243.251
1242.17
1241.026
1239.846
1238.636
1237.401
1251.386
1250.763
1250.098
1249.391
1248.642
1247.852
1247.016
1246.136
1245.21
1244.239
1243.202
1242.102
1240.964
1239.793
1238.594
1233.45
1232.002
1230.519
1229.005
1227.456
1225.851
1224.123
1222.227
1234.881
1233.476
1232.034
1230.559
1229.053
1227.511
1225.901
1224.139
1222.106
1236.303
1234.945
1233.548
1232.116
1230.65
1229.153
1227.61
1225.98
1224.134
1221.784
1237.729
1236.42
1235.071
1233.684
1232.262
1230.808
1229.314
1227.764
1226.093
1224.091
1221.351
1239.169
1237.911
1236.612
1235.274
1233.898
1232.489
1231.042
1229.55
1227.983
1226.238
1224.078
1220.847
1240.615
1239.409
1238.161
1236.873
1235.546
1234.183
1232.782
1231.341
1229.846
1228.248
1226.423
1224.013
1219.877
1241.999
1240.845
1239.648
1238.41
1237.132
1235.816
1234.461
1233.067
1231.631
1230.13
1228.485
1226.556
1223.842
1218.73
1243.282
1242.177
1241.029
1239.84
1238.61
1237.342
1236.032
1234.683
1233.296
1231.862
1230.321
1228.625
1226.617
1223.679
1217.782
1244.45
1243.393
1242.294
1241.152
1239.969
1238.746
1237.481
1236.175
1234.831
1233.447
1231.97
1230.391
1228.687
1226.644
1223.592
1217.642
1245.505
1244.494
1243.441
1242.345
1241.208
1240.03
1238.808
1237.544
1236.241
1234.899
1233.467
1231.953
1230.384
1228.691
1226.658
1223.773
1218.256
1246.448
1245.483
1244.474
1243.424
1242.331
1241.196
1240.017
1238.795
1237.532
1236.229
1234.836
1233.367
1231.868
1230.319
1228.653
1226.688
1224.168
1219.16
1247.285
1246.363
1245.399
1244.392
1243.343
1242.252
1241.115
1239.934
1238.711
1237.445
1236.091
1234.663
1233.211
1231.732
1230.21
1228.55
1226.755
1224.595
1220.276
1248.019
1247.14
1246.219
1245.256
1244.25
1243.201
1242.106
1240.967
1239.783
1238.557
1237.243
1235.857
1234.447
1233.015
1231.561
1230.02
1228.446
1226.844
1225.018
1221.52
1248.659
1247.823
1246.944
1246.023
1245.059
1244.053
1243
1241.902
1240.759
1239.572
1238.302
1236.961
1235.593
1234.203
1232.794
1231.314
1229.833
1228.387
1226.94
1225.396
1222.811
1249.224
1248.429
1247.593
1246.714
1245.792
1244.828
1243.817
1242.761
1241.66
1240.513
1239.289
1237.993
1236.665
1235.311
1233.938
1232.486
1231.083
1229.715
1228.363
1227.026
1225.697
1224.078
1249.751
1248.999
1248.205
1247.368
1246.489
1245.567
1244.599
1243.585
1242.526
1241.421
1240.243
1238.989
1237.694
1236.361
1234.992
1250.294
1249.584
1248.833
1248.039
1247.203
1246.325
1245.401
1244.431
1243.416
1242.354
1241.224
1240.022
1238.781
1237.506
1236.206
1250.852
1250.185
1249.477
1248.727
1247.935
1247.1
1246.22
1245.295
1244.325
1243.308
1242.225
1241.074
1239.885
1238.663
1237.415
1251.409
1250.786
1250.121
1249.414
1248.666
1247.875
1247.04
1246.16
1245.234
1244.263
1243.226
1242.123
1240.981
1239.804
1238.6
1251.954