/*--------------------------------*- C++ -*----------------------------------*\
| =========                 |                                                 |
| \\      /  F ield         | OpenFOAM: The Open Source CFD Toolbox           |
|  \\    /   O peration     | Version:  2306                                  |
|   \\  /    A nd           | Website:  www.openfoam.com                      |
|    \\/     M anipulation  |                                                 |
\*---------------------------------------------------------------------------*/
FoamFile
{
    version     2.0;
    format      ascii;
    arch        "LSB;label=32;scalar=64";
    class       volVectorField;
    location    "0.6/fuel";
    object      U;
}
// * * * * * * * * * * * * * * * * * * * * * * * * * * * * * * * * * * * * * //

dimensions      [0 1 -1 0 0 0 0];

internalField   nonuniform List<vector> 
16000
(
(0.000107732 8.01595e-05 -0.005143659)
(0.0001077282 0.0002206587 -0.005219174)
(0.0001930351 7.966517e-05 -0.004228288)
(0.0001055052 8.51423e-05 -0.0163625)
(0.0001080875 0.0003905765 -0.005372795)
(0.0001921471 0.0002235904 -0.004271842)
(0.0001053761 0.0002325102 -0.01660072)
(0.0001493435 7.064206e-05 -0.00348613)
(0.0001888021 8.320501e-05 -0.01346873)
(9.769053e-05 9.216331e-05 -0.02432725)
(0.0001079548 0.0004844837 -0.00560971)
(0.0001909484 0.0003916503 -0.004358708)
(0.0001054783 0.0004109424 -0.01708511)
(0.0001475868 0.0001992895 -0.003515442)
(0.0001877201 0.0002315743 -0.01360641)
(9.729111e-05 0.0002521297 -0.02467914)
(0.0001117248 6.162256e-05 -0.002941389)
(0.0001460501 7.336275e-05 -0.01111816)
(0.0001745398 8.742585e-05 -0.0200449)
(8.834994e-05 9.78249e-05 -0.04007074)
(0.00010972 0.0007031668 -0.005922716)
(0.0001878953 0.0004988297 -0.004488845)
(0.0001049262 0.0005123047 -0.01783211)
(0.0001444418 0.0003471423 -0.003573391)
(0.0001861283 0.0004051817 -0.0138809)
(9.682976e-05 0.0004443446 -0.02539461)
(0.0001101161 0.0001742594 -0.002962783)
(0.0001441835 0.0002052535 -0.01121098)
(0.0001730659 0.0002428463 -0.02024858)
(8.763261e-05 0.0002750273 -0.04064817)
(8.520446e-05 5.419764e-05 -0.002530918)
(0.0001092922 6.38117e-05 -0.009390473)
(0.0001349494 7.628883e-05 -0.0165615)
(0.0001579459 9.027189e-05 -0.03303826)
(7.315895e-05 0.0001213701 -0.0326272)
(0.0001074156 0.0005569955 -0.006279458)
(0.0001870621 0.000694543 -0.004653035)
(0.0001061328 0.0007383588 -0.01881884)
(0.0001387339 0.0004442148 -0.003659162)
(0.0001824414 0.0005167793 -0.01429225)
(9.537845e-05 0.0005592201 -0.02649785)
(0.0001071686 0.0003026074 -0.003004831)
(0.0001408214 0.0003572059 -0.0113944)
(0.0001706644 0.0004239468 -0.02065468)
(8.650869e-05 0.0004833325 -0.04182182)
(8.388469e-05 0.0001534859 -0.002547288)
(0.0001076121 0.0001789607 -0.009458308)
(0.0001328934 0.0002128368 -0.01669898)
(0.0001560162 0.0002560382 -0.03337272)
(7.172208e-05 0.0003390472 -0.03309623)
(6.711176e-05 4.81435e-05 -0.002211225)
(8.334376e-05 5.601543e-05 -0.008087216)
(0.0001010399 6.599906e-05 -0.0139985)
(0.0001220224 7.798576e-05 -0.02731437)
(0.0001299081 0.0001062119 -0.02690579)
(0.0006248557 0.00110855 -0.06510148)
(0.0001110517 0.0001611718 -0.006539407)
(0.0001786838 0.0005664583 -0.004832992)
(0.0001031131 0.0005881397 -0.01994533)
(0.0001334255 0.000608537 -0.003765115)
(0.0001807848 0.0007168969 -0.01481136)
(9.533649e-05 0.0007953809 -0.02795489)
(0.0001020349 0.0003879912 -0.003066559)
(0.0001347713 0.0004574117 -0.01166601)
(0.0001657021 0.0005422257 -0.02126331)
(8.40006e-05 0.0006139599 -0.0436327)
(8.144651e-05 0.0002659506 -0.002579316)
(0.0001045246 0.0003105214 -0.009591571)
(0.0001291485 0.0003697124 -0.01697069)
(0.0001526727 0.0004459163 -0.03403922)
(6.911564e-05 0.0005931491 -0.03405072)
(6.602954e-05 0.000136475 -0.002224164)
(8.197393e-05 0.0001573269 -0.008139174)
(9.924853e-05 0.0001844928 -0.01409907)
(0.0001197455 0.0002217304 -0.02754027)
(0.0001268875 0.0002979427 -0.02717732)
(0.0006108114 0.003144838 -0.06604014)
(5.421384e-05 4.314703e-05 -0.001955537)
(6.564607e-05 4.968785e-05 -0.007071249)
(7.702892e-05 5.7725e-05 -0.01206354)
(9.142345e-05 6.709886e-05 -0.02310086)
(0.000100122 8.990873e-05 -0.02224888)
(0.001110868 0.0009626719 -0.05368333)
(0.0006414223 0.001143316 -0.04591621)
(0.0001132017 8.342608e-05 -0.006703955)
(0.0001815304 0.0002160327 -0.004954113)
(0.0001062589 0.0001796957 -0.02076259)
(0.0001220778 0.0004989056 -0.003879614)
(0.0001713575 0.000585485 -0.01538203)
(9.083888e-05 0.0006402563 -0.0296185)
(9.692754e-05 0.0005269092 -0.003141698)
(0.0001290444 0.0006249265 -0.01200167)
(0.0001623068 0.000746705 -0.02203146)
(8.249291e-05 0.0008618986 -0.04602591)
(7.726282e-05 0.0003413444 -0.002626047)
(9.917184e-05 0.0003982978 -0.009787314)
(0.0001225148 0.0004741113 -0.0173731)
(0.0001462263 0.0005720104 -0.03503886)
(6.420311e-05 0.0007649458 -0.03552329)
(6.402091e-05 0.000236068 -0.002249395)
(7.943843e-05 0.0002724072 -0.008240794)
(9.593844e-05 0.0003195867 -0.01429667)
(0.0001155543 0.0003843879 -0.02798646)
(0.0001213206 0.0005167208 -0.02771929)
(0.0005848055 0.005498064 -0.06794663)
(5.33152e-05 0.0001223973 -0.001966022)
(6.452698e-05 0.000139695 -0.007112361)
(7.558616e-05 0.0001615575 -0.01214064)
(8.950208e-05 0.0001909915 -0.02326622)
(9.724785e-05 0.0002525123 -0.02243221)
(0.0010821 0.002737917 -0.05422699)
(0.0006262514 0.003329122 -0.0465824)
(4.47804e-05 3.896748e-05 -0.001746554)
(5.303104e-05 4.448219e-05 -0.006258028)
(6.066557e-05 5.106615e-05 -0.01055408)
(6.966593e-05 5.846694e-05 -0.01991845)
(7.516012e-05 7.651196e-05 -0.01882065)
(0.0008556549 0.000812384 -0.04439358)
(0.001145162 0.0009914528 -0.0378476)
(0.0006262866 0.00118202 -0.05097183)
(0.0001150305 1.71303e-05 -0.006795961)
(0.0001829502 0.0001208319 -0.005027516)
(0.0001080877 9.432521e-05 -0.0212791)
(0.0001201562 0.0002023315 -0.003952613)
(0.0001735183 0.0002264403 -0.01576421)
(9.284018e-05 0.0002150288 -0.03082358)
(8.732676e-05 0.0004327902 -0.00322225)
(0.0001171639 0.0005126208 -0.01236578)
(0.0001508544 0.0006114919 -0.02287632)
(7.626078e-05 0.0007010193 -0.04876665)
(7.300202e-05 0.0004607922 -0.002682277)
(9.380333e-05 0.0005397002 -0.01002571)
(0.0001160299 0.0006442046 -0.01787052)
(0.0001408087 0.0007815953 -0.03630119)
(5.945525e-05 0.001051797 -0.0374713)
(6.060465e-05 0.0003031633 -0.00228603)
(7.510282e-05 0.0003497127 -0.008389149)
(9.025024e-05 0.000410272 -0.01458697)
(0.0001082398 0.0004937039 -0.0286478)
(0.0001113078 0.0006663844 -0.02853184)
(0.0005365177 0.007107568 -0.07089651)
(5.164227e-05 0.0002114181 -0.00198641)
(6.2447e-05 0.0002414761 -0.007192488)
(7.29057e-05 0.0002793061 -0.01229143)
(8.593184e-05 0.0003302433 -0.02359088)
(9.186956e-05 0.0004361402 -0.02279502)
(0.001028361 0.004745155 -0.05530895)
(0.0005980469 0.005819732 -0.04793542)
(4.402378e-05 0.0001105992 -0.001755218)
(5.210423e-05 0.0001251502 -0.006291371)
(5.949561e-05 0.0001430382 -0.01061513)
(6.813788e-05 0.0001665346 -0.02004529)
(7.285761e-05 0.0002149791 -0.01895484)
(0.0008290375 0.002311995 -0.04476086)
(0.00111441 0.00288991 -0.03823367)
(0.0006104469 0.003386024 -0.05171376)
(3.763389e-05 3.542085e-05 -0.001572707)
(4.380783e-05 4.013785e-05 -0.00559286)
(4.900576e-05 4.562e-05 -0.009345118)
(5.485561e-05 5.157723e-05 -0.01743483)
(5.719212e-05 6.616609e-05 -0.01623117)
(0.0006426523 0.0006900825 -0.03755659)
(0.0008819023 0.0008361635 -0.03128792)
(0.001114077 0.001019721 -0.04200736)
(0.0006111586 0.001189228 -0.05175436)
(0.0001158492 5.555285e-06 -0.006836669)
(0.0001847905 4.218857e-05 -0.005067252)
(0.0001097418 2.238775e-05 -0.02156769)
(0.0001185563 0.0001148766 -0.003995255)
(0.0001744922 0.0001267993 -0.01599564)
(9.39282e-05 0.0001153771 -0.03158444)
(8.496735e-05 0.0001804414 -0.003271462)
(0.0001149368 0.0002094905 -0.0125966)
(0.0001514793 0.0002430875 -0.0234416)
(7.692191e-05 0.0002561823 -0.05074298)
(6.536425e-05 0.0003787937 -0.002742271)
(8.386714e-05 0.0004433837 -0.01028237)
(0.0001033031 0.0005290187 -0.01841041)
(0.0001270009 0.0006419281 -0.03769492)
(4.914574e-05 0.0008699903 -0.03969792)
(5.70795e-05 0.0004073974 -0.002329689)
(7.066366e-05 0.0004711801 -0.008567759)
(8.445481e-05 0.0005533915 -0.01494061)
(0.000100871 0.0006668244 -0.0294657)
(0.0001011972 0.0008981589 -0.02955885)
(0.000488141 0.009738407 -0.07479824)
(4.881504e-05 0.0002715902 -0.002015898)
(5.89196e-05 0.0003101476 -0.007308906)
(6.835362e-05 0.000358748 -0.01251163)
(7.985161e-05 0.0004243465 -0.02406825)
(8.269536e-05 0.0005618291 -0.02333249)
(0.0009324894 0.006125161 -0.0569373)
(0.0005459089 0.007529089 -0.05005769)
(4.261218e-05 0.000190813 -0.00177203)
(5.037697e-05 0.0002160391 -0.006356175)
(5.731508e-05 0.0002469072 -0.01073411)
(6.528782e-05 0.0002874287 -0.02029318)
(6.853756e-05 0.0003704587 -0.01921885)
(0.0007788407 0.003990871 -0.04548503)
(0.001056829 0.005008098 -0.03900221)
(0.0005808538 0.005918202 -0.05322028)
(3.698865e-05 0.0001005727 -0.001579984)
(4.302905e-05 0.0001129894 -0.005620437)
(4.804194e-05 0.0001278589 -0.009394654)
(5.362611e-05 0.0001469764 -0.01753532)
(5.540024e-05 0.0001859516 -0.01633407)
(0.0006214958 0.001964395 -0.03782556)
(0.0008536991 0.002437535 -0.03154887)
(0.00108229 0.002925418 -0.0424375)
(0.0005946364 0.003445796 -0.05251417)
(3.211101e-05 3.237847e-05 -0.001425965)
(3.682143e-05 3.645827e-05 -0.005039149)
(4.048911e-05 4.109491e-05 -0.008355709)
(4.430814e-05 4.597518e-05 -0.01544483)
(4.500298e-05 5.803627e-05 -0.01421007)
(0.0004888454 0.0005960024 -0.03239294)
(0.0006624856 0.0007099142 -0.02646241)
(0.0008576831 0.0008582275 -0.03472221)
(0.001088869 0.001022491 -0.04263986)
(0.0006407225 0.001329561 -0.04375587)
(0.0001158492 -5.555272e-06 -0.006836669)
(0.0001856107 1.325321e-05 -0.005084489)
(0.0001104826 7.160046e-06 -0.02169529)
(0.0001184048 4.315386e-05 -0.00401752)
(0.0001760941 4.49496e-05 -0.01612098)
(9.516328e-05 3.313538e-05 -0.03200929)
(8.316299e-05 0.0001030709 -0.003299359)
(0.0001131405 0.0001189105 -0.01273135)
(0.0001514689 0.0001364228 -0.02378382)
(7.714357e-05 0.0001398818 -0.05198916)
(6.326319e-05 0.000160579 -0.002777566)
(8.132917e-05 0.0001857982 -0.01043818)
(0.0001004719 0.0002195517 -0.01875245)
(0.0001258416 0.0002625614 -0.03862178)
(4.694693e-05 0.0003589652 -0.04130873)
(5.093636e-05 0.0003350224 -0.002376144)
(6.279542e-05 0.0003873341 -0.008759231)
(7.404913e-05 0.0004548126 -0.0153216)
(8.715698e-05 0.0005482604 -0.03035748)
(8.151692e-05 0.0007414962 -0.03068859)
(0.0003886123 0.008077031 -0.0793355)
(4.587244e-05 0.0003636519 -0.002050749)
(5.526543e-05 0.0004160734 -0.007447727)
(6.364284e-05 0.0004814398 -0.01277681)
(7.355736e-05 0.0005694864 -0.02465007)
(7.30196e-05 0.0007506581 -0.02399781)
(0.0008336944 0.008234178 -0.05899385)
(0.0004931253 0.01031028 -0.05284369)
(4.023841e-05 0.0002451586 -0.001796263)
(4.746522e-05 0.0002775416 -0.006449961)
(5.363853e-05 0.0003172108 -0.01090703)
(6.048234e-05 0.0003693853 -0.02065548)
(6.129041e-05 0.0004768769 -0.01960678)
(0.0006935207 0.005143672 -0.04656274)
(0.0009543285 0.006466565 -0.04018224)
(0.0005264576 0.007665969 -0.05559369)
(3.578294e-05 0.0001733376 -0.001594078)
(4.157486e-05 0.0001948239 -0.005673914)
(4.624183e-05 0.000220426 -0.009490945)
(5.132778e-05 0.0002533107 -0.01773102)
(5.203447e-05 0.0003199239 -0.01653568)
(0.0005815403 0.003383195 -0.03835253)
(0.0008004572 0.004207247 -0.03206367)
(0.001022587 0.005068694 -0.04329351)
(0.0005636248 0.006022177 -0.05405332)
(3.155484e-05 9.196285e-05 -0.00143216)
(3.615837e-05 0.000102674 -0.005062327)
(3.968253e-05 0.0001152281 -0.008396703)
(4.330095e-05 0.0001310537 -0.01552642)
(4.358093e-05 0.000163126 -0.01429159)
(0.0004724375 0.001696787 -0.03259935)
(0.0006401254 0.002069738 -0.0266536)
(0.0008289416 0.00246286 -0.03501305)
(0.00105608 0.002964737 -0.04308126)
(0.000621974 0.003816455 -0.04439266)
(2.773958e-05 2.974135e-05 -0.001300571)
(3.14236e-05 3.33066e-05 -0.004571468)
(3.404033e-05 3.72757e-05 -0.007531671)
(3.661464e-05 4.134128e-05 -0.01381558)
(3.633611e-05 5.149958e-05 -0.01259046)
(0.0003845942 0.0005222572 -0.02836289)
(0.0005038731 0.0006128849 -0.02281932)
(0.0006444977 0.0007278942 -0.02936434)
(0.0008380309 0.0008593731 -0.03523708)
(0.001138322 0.001136703 -0.03603984)
(0.005312913 0.0123632 -0.114811)
(0.0001150305 -1.713032e-05 -0.006795961)
(0.0001856107 -1.325321e-05 -0.005084489)
(0.0001104826 -7.160034e-06 -0.02169529)
(0.000118335 1.355056e-05 -0.004026913)
(0.0001768084 1.409172e-05 -0.01617535)
(9.571796e-05 1.042993e-05 -0.03219706)
(8.268624e-05 3.988344e-05 -0.003313461)
(0.0001128888 4.496195e-05 -0.01280178)
(0.0001525172 4.976697e-05 -0.02396921)
(7.788934e-05 4.563554e-05 -0.05268464)
(6.169125e-05 9.202183e-05 -0.002797038)
(7.941118e-05 0.0001060536 -0.01052643)
(9.829747e-05 0.000124559 -0.01895215)
(0.0001246887 0.0001476804 -0.03918232)
(4.531233e-05 0.0002003761 -0.04232371)
(4.914124e-05 0.0001436423 -0.002402528)
(6.057742e-05 0.0001647925 -0.008871066)
(7.118955e-05 0.000192568 -0.01555276)
(8.362176e-05 0.0002313577 -0.03091835)
(7.640556e-05 0.000318371 -0.03144426)
(0.000363696 0.003394618 -0.08253678)
(4.084501e-05 0.0002990824 -0.002087786)
(4.89546e-05 0.000342116 -0.007596194)
(5.547893e-05 0.0003957653 -0.01306125)
(6.260274e-05 0.0004682512 -0.02528006)
(5.643656e-05 0.0006185483 -0.02471965)
(0.0006473589 0.006804382 -0.06131453)
(0.0003861861 0.008557394 -0.05639909)
(3.775258e-05 0.0003272886 -0.001824699)
(4.442538e-05 0.000371052 -0.006560878)
(4.979935e-05 0.000424052 -0.01111328)
(5.545373e-05 0.0004935205 -0.02109198)
(5.358459e-05 0.0006340473 -0.02008003)
(0.0006029029 0.006857653 -0.04789536)
(0.0008480895 0.008690588 -0.04165929)
(0.0004705969 0.01048919 -0.05870593)
(3.376361e-05 0.0002227181 -0.00161434)
(3.913487e-05 0.000250313 -0.005751051)
(4.322262e-05 0.0002832129 -0.009630329)
(4.747644e-05 0.0003255384 -0.01801567)
(4.642972e-05 0.0004115972 -0.01683009)
(0.0005146824 0.004356476 -0.03913089)
(0.0007100452 0.005423571 -0.03284897)
(0.0009166767 0.006548163 -0.04461612)
(0.0005069048 0.007809249 -0.05651094)
(3.051438e-05 0.0001583597 -0.001444141)
(3.491844e-05 0.0001768633 -0.005107192)
(3.81738e-05 0.0001984402 -0.008476206)
(4.141541e-05 0.0002256051 -0.01568487)
(4.0908e-05 0.0002803073 -0.01445077)
(0.0004414303 0.00291772 -0.0330018)
(0.0005978654 0.003564388 -0.02702846)
(0.0007746218 0.0042503 -0.03558663)
(0.0009943117 0.005136303 -0.0439569)
(0.0005863737 0.006669705 -0.04569472)
(2.725562e-05 8.449342e-05 -0.001305906)
(3.085282e-05 9.382929e-05 -0.004591213)
(3.335582e-05 0.0001045547 -0.007566142)
(3.577543e-05 0.0001178716 -0.01388314)
(3.518294e-05 0.0001447655 -0.01265665)
(0.0003716021 0.001486938 -0.02852651)
(0.000486551 0.001786985 -0.02296611)
(0.0006218047 0.002089067 -0.0295775)
(0.00080874 0.00249184 -0.03553602)
(0.001101505 0.003265059 -0.03640793)
(0.005136843 0.03566467 -0.1166825)
(2.423087e-05 2.743629e-05 -0.00119228)
(2.715149e-05 3.057816e-05 -0.004171583)
(2.906118e-05 3.401376e-05 -0.006835334)
(3.079239e-05 3.744423e-05 -0.01245811)
(3.004021e-05 4.613899e-05 -0.01126429)
(0.0003104973 0.0004630719 -0.0251334)
(0.0003963951 0.0005368832 -0.01997689)
(0.0004900949 0.0006279689 -0.02532008)
(0.0006299274 0.0007282508 -0.02979472)
(0.0008757247 0.0009531664 -0.02977638)
(0.00942513 0.01046493 -0.09451649)
(0.005469134 0.01229706 -0.01175347)
(0.0001132017 -8.342612e-05 -0.006703955)
(0.0001847905 -4.218857e-05 -0.005067252)
(0.0001097418 -2.238776e-05 -0.02156769)
(0.000118335 -1.355056e-05 -0.004026913)
(0.0001768084 -1.409172e-05 -0.01617535)
(9.571796e-05 -1.042992e-05 -0.03219706)
(8.246742e-05 1.252219e-05 -0.003319253)
(0.0001127745 1.409602e-05 -0.01283151)
(0.0001529862 1.554355e-05 -0.02404965)
(7.822672e-05 1.423239e-05 -0.05299198)
(6.120518e-05 3.620991e-05 -0.002806579)
(7.887867e-05 4.118883e-05 -0.01057111)
(9.783506e-05 4.771816e-05 -0.01905661)
(0.0001250951 5.539936e-05 -0.03948599)
(4.504262e-05 7.516468e-05 -0.04289004)
(4.781393e-05 8.247873e-05 -0.002416712)
(5.893151e-05 9.434672e-05 -0.008932707)
(6.907489e-05 0.0001097558 -0.01568374)
(8.100652e-05 0.0001311897 -0.03124546)
(7.270472e-05 0.0001797094 -0.03190106)
(0.0003456921 0.001900393 -0.08455108)
(3.931698e-05 0.0001292874 -0.002108129)
(4.707753e-05 0.0001470725 -0.007679848)
(5.306454e-05 0.0001696274 -0.01322732)
(5.936741e-05 0.0002005316 -0.02565911)
(5.118673e-05 0.000268874 -0.02517721)
(0.0005945356 0.002947149 -0.06280525)
(0.0003582361 0.003611535 -0.05856742)
(3.356946e-05 0.0002691704 -0.00185491)
(3.927084e-05 0.0003051067 -0.00667939)
(4.328862e-05 0.0003485832 -0.01133397)
(4.694355e-05 0.0004056971 -0.02156278)
(4.086278e-05 0.0005217448 -0.02058939)
(0.000449627 0.005653333 -0.04938802)
(0.0006493539 0.007182716 -0.04357551)
(0.0003596779 0.008715733 -0.06280766)
(3.163933e-05 0.0002965959 -0.001637963)
(3.657341e-05 0.0003337047 -0.005841622)
(4.005077e-05 0.0003774329 -0.009795222)
(4.342051e-05 0.0004334605 -0.01835533)
(4.044934e-05 0.0005453953 -0.01718513)
(0.000443278 0.005781224 -0.04007922)
(0.0006138225 0.007229597 -0.03381036)
(0.0008058981 0.008796605 -0.04626983)
(0.0004479341 0.0106811 -0.05971589)
(2.877781e-05 0.0002034742 -0.001461324)
(3.284598e-05 0.000227241 -0.005171733)
(3.565375e-05 0.0002549641 -0.008590909)
(3.827012e-05 0.0002899086 -0.01591444)
(3.647766e-05 0.0003604611 -0.01468208)
(0.0003899083 0.003754551 -0.03359293)
(0.0005271954 0.004590381 -0.02759822)
(0.0006825167 0.005480806 -0.03646835)
(0.0008850488 0.006638662 -0.04533608)
(0.0005216713 0.008662418 -0.04776097)
(2.634938e-05 0.0001453861 -0.00131621)
(2.978435e-05 0.0001614912 -0.004629376)
(3.2074e-05 0.000179895 -0.007632877)
(3.420269e-05 0.000202715 -0.01401402)
(3.301446e-05 0.00024851 -0.01278554)
(0.00034704 0.002553798 -0.02884431)
(0.0004537958 0.003072647 -0.02325259)
(0.0005788848 0.003597185 -0.02999529)
(0.0007533116 0.004299987 -0.03612334)
(0.001031564 0.005656202 -0.03714773)
(0.004780516 0.06228554 -0.1202921)
(2.380626e-05 7.796013e-05 -0.001196919)
(2.665534e-05 8.61656e-05 -0.004188598)
(2.847352e-05 9.543095e-05 -0.006864715)
(3.008272e-05 0.0001067778 -0.01251495)
(2.908702e-05 0.0001297047 -0.01131909)
(0.0002999797 0.001318478 -0.02526633)
(0.0003826892 0.001565453 -0.02009331)
(0.0004725469 0.001802368 -0.02548381)
(0.0006068835 0.002111708 -0.03001411)
(0.0008433468 0.002738009 -0.03002476)
(0.009084174 0.03018002 -0.09564411)
(0.005294735 0.03585452 -0.01224717)
(2.136521e-05 2.540537e-05 -0.001097894)
(2.372303e-05 2.819577e-05 -0.00382604)
(2.512145e-05 3.119654e-05 -0.006239678)
(2.630136e-05 3.412556e-05 -0.01131057)
(2.528369e-05 4.166246e-05 -0.0101592)
(0.0002567267 0.0004146055 -0.02248893)
(0.0003200149 0.0004759218 -0.01769968)
(0.0003855205 0.0005498063 -0.02216509)
(0.0004789296 0.0006278955 -0.02568788)
(0.000658577 0.000806749 -0.02517332)
(0.00724456 0.008739021 -0.07805786)
(0.009730405 0.01043688 -0.009628892)
(0.005281613 0.01263426 -0.03382923)
(0.0001110517 -0.0001611718 -0.006539407)
(0.0001829502 -0.0001208319 -0.005027516)
(0.0001080877 -9.432524e-05 -0.0212791)
(0.0001184048 -4.315386e-05 -0.00401752)
(0.0001760941 -4.49496e-05 -0.01612098)
(9.516328e-05 -3.313539e-05 -0.03200929)
(8.246742e-05 -1.252219e-05 -0.003319253)
(0.0001127745 -1.409602e-05 -0.01283151)
(0.0001529862 -1.554354e-05 -0.02404965)
(7.822672e-05 -1.423238e-05 -0.05299198)
(6.098191e-05 1.136656e-05 -0.002810391)
(7.863537e-05 1.291395e-05 -0.01058948)
(9.762754e-05 1.491399e-05 -0.01910073)
(0.0001252797 1.724136e-05 -0.0396178)
(4.49296e-05 2.323312e-05 -0.04314029)
(4.737343e-05 3.281242e-05 -0.002423443)
(5.841018e-05 3.720765e-05 -0.008962956)
(6.843491e-05 4.295072e-05 -0.01575011)
(8.029875e-05 5.095242e-05 -0.03141659)
(7.173504e-05 7.047551e-05 -0.03214856)
(0.0003414198 0.000725298 -0.08567514)
(3.819592e-05 7.432888e-05 -0.00211879)
(4.569862e-05 8.435774e-05 -0.007724757)
(5.130081e-05 9.692462e-05 -0.01331889)
(5.702284e-05 0.0001141144 -0.02587362)
(4.747859e-05 0.000152308 -0.02544401)
(0.000556867 0.001664463 -0.06370362)
(0.0003381804 0.002023424 -0.05992432)
(3.22618e-05 0.0001170804 -0.001870979)
(3.768264e-05 0.0001321522 -0.006743919)
(4.128231e-05 0.0001506678 -0.01145828)
(4.42993e-05 0.0001753277 -0.0218351)
(3.664373e-05 0.0002281092 -0.02089883)
(0.0003996014 0.002471723 -0.05028592)
(0.0005917203 0.003115157 -0.04454973)
(0.0003290085 0.003702407 -0.06518041)
(2.810769e-05 0.000243904 -0.001663075)
(3.229088e-05 0.0002743758 -0.005938404)
(3.475439e-05 0.0003102158 -0.009971484)
(3.667535e-05 0.0003562141 -0.01872097)
(3.074169e-05 0.0004483106 -0.01756541)
(0.0003264674 0.004758256 -0.04113862)
(0.0004515681 0.005960006 -0.03508947)
(0.000601303 0.007272123 -0.04851659)
(0.0003328089 0.008883227 -0.06429031)
(2.694472e-05 0.0002704007 -0.001481242)
(3.066139e-05 0.0003022324 -0.005247035)
(3.299478e-05 0.000338922 -0.008725629)
(3.494343e-05 0.0003849678 -0.01618612)
(3.17404e-05 0.000476401 -0.01495836)
(0.0003347497 0.004966393 -0.03430476)
(0.0004516229 0.006091016 -0.02828499)
(0.0005841655 0.00730431 -0.03754667)
(0.0007698884 0.008917653 -0.0470493)
(0.00045335 0.01184689 -0.05046885)
(2.484123e-05 0.0001867986 -0.001330959)
(2.800429e-05 0.0002074857 -0.004684148)
(2.994029e-05 0.000231123 -0.007728898)
(3.158862e-05 0.0002604625 -0.01420303)
(2.943259e-05 0.0003194414 -0.0129721)
(0.000306408 0.003284457 -0.02930909)
(0.0003993975 0.003954271 -0.02368713)
(0.000507184 0.004633628 -0.03063594)
(0.0006594405 0.005546572 -0.0370476)
(0.0009082947 0.007315825 -0.03830266)
(0.004142034 0.08112597 -0.126909)
(2.301057e-05 0.0001340539 -0.001205872)
(2.572581e-05 0.0001481917 -0.004221442)
(2.737215e-05 0.0001640686 -0.006921508)
(2.875168e-05 0.000183483 -0.01262486)
(2.729403e-05 0.0002224725 -0.01142558)
(0.0002800904 0.002262278 -0.02552372)
(0.0003567632 0.002688519 -0.02031969)
(0.0004393468 0.003098723 -0.0258032)
(0.0005632607 0.003635951 -0.03044229)
(0.0007817276 0.004724602 -0.03052053)
(0.008402779 0.05224535 -0.09773936)
(0.004941315 0.06311417 -0.01324656)
(2.098994e-05 7.220055e-05 -0.001101963)
(2.328813e-05 7.946929e-05 -0.003840846)
(2.461177e-05 8.754548e-05 -0.006265006)
(2.569387e-05 9.732622e-05 -0.01135904)
(2.448289e-05 0.0001171247 -0.0102053)
(0.0002480449 0.001180507 -0.02259906)
(0.0003089254 0.001387727 -0.01779432)
(0.0003716522 0.001578062 -0.02229499)
(0.0004611386 0.001820735 -0.02585661)
(0.0006332251 0.002317373 -0.02535506)
(0.006952382 0.02519641 -0.07884193)
(0.009391233 0.03041962 -0.009986823)
(0.005098654 0.03658265 -0.03478625)
(1.899775e-05 2.360436e-05 -0.001014975)
(2.092306e-05 2.60986e-05 -0.003524705)
(2.196114e-05 2.874153e-05 -0.005724752)
(2.274925e-05 3.126634e-05 -0.01032858)
(2.162542e-05 3.787241e-05 -0.009224874)
(0.0002161206 0.0003741799 -0.02028516)
(0.0002646068 0.0004260248 -0.01583538)
(0.0003112202 0.0004871733 -0.01963775)
(0.0003767075 0.0005494865 -0.02248478)
(0.0005005821 0.0006949919 -0.02170079)
(0.005454532 0.007379422 -0.06597103)
(0.007481426 0.008725293 -0.007926267)
(0.009374031 0.01067393 -0.027796)
(0.005233262 0.01271267 -0.01248089)
(0.0001074156 -0.0005569955 -0.006279458)
(0.0001815304 -0.0002160327 -0.004954113)
(0.0001062589 -0.0001796957 -0.02076259)
(0.0001185563 -0.0001148766 -0.003995255)
(0.0001744922 -0.0001267993 -0.01599564)
(9.39282e-05 -0.0001153771 -0.03158444)
(8.268624e-05 -3.988344e-05 -0.003313461)
(0.0001128888 -4.496195e-05 -0.01280178)
(0.0001525172 -4.976697e-05 -0.02396921)
(7.788934e-05 -4.563555e-05 -0.05268464)
(6.098191e-05 -1.136655e-05 -0.002810391)
(7.863537e-05 -1.291395e-05 -0.01058948)
(9.762754e-05 -1.491399e-05 -0.01910073)
(0.0001252797 -1.724135e-05 -0.0396178)
(4.49296e-05 -2.323312e-05 -0.04314029)
(4.717108e-05 1.029778e-05 -0.002426052)
(5.817156e-05 1.166474e-05 -0.008975046)
(6.814464e-05 1.342851e-05 -0.0157774)
(7.998262e-05 1.587432e-05 -0.0314889)
(7.131023e-05 2.181485e-05 -0.03225601)
(0.0003395853 0.0002239479 -0.08617193)
(3.780792e-05 2.979723e-05 -0.002123684)
(4.523411e-05 3.360547e-05 -0.007746103)
(5.071621e-05 3.84032e-05 -0.01336387)
(5.62573e-05 4.502435e-05 -0.02598233)
(4.62009e-05 6.058373e-05 -0.02558364)
(0.0005457191 0.0006573804 -0.06419017)
(0.0003330406 0.0007759659 -0.06068238)
(3.130795e-05 6.736638e-05 -0.001879191)
(3.652382e-05 7.5889e-05 -0.006777676)
(3.982717e-05 8.622656e-05 -0.01152504)
(4.239755e-05 9.996754e-05 -0.02198501)
(3.367912e-05 0.0001294178 -0.02107394)
(0.0003644864 0.001399883 -0.05080691)
(0.0005507832 0.001759479 -0.04512744)
(0.0003071914 0.002076852 -0.06665834)
(2.698003e-05 0.0001065998 -0.001676026)
(3.093745e-05 0.000119521 -0.005989395)
(3.307676e-05 0.0001349083 -0.01006744)
(3.451754e-05 0.0001549157 -0.0189248)
(2.746177e-05 0.0001966924 -0.01778787)
(0.0002869729 0.002089379 -0.0417432)
(0.0003982243 0.002606988 -0.03565823)
(0.000539867 0.003160191 -0.04956697)
(0.0002994862 0.003791648 -0.06660075)
(2.392693e-05 0.0002223319 -0.001502439)
(2.705003e-05 0.0002484641 -0.005327566)
(2.860791e-05 0.0002785071 -0.008869639)
(2.948052e-05 0.0003162537 -0.0164784)
(2.413367e-05 0.0003912541 -0.01525342)
(0.0002458845 0.004082584 -0.03510002)
(0.0003282309 0.005012885 -0.02922028)
(0.0004191302 0.006021543 -0.03906289)
(0.0005593527 0.007373178 -0.04965034)
(0.0003228018 0.009863832 -0.05425751)
(2.324487e-05 0.0002477927 -0.001347967)
(2.612209e-05 0.0002754055 -0.004747684)
(2.768163e-05 0.0003065769 -0.007840961)
(2.881515e-05 0.0003450908 -0.0144251)
(2.559707e-05 0.000421314 -0.01319309)
(0.0002628448 0.004333918 -0.02986334)
(0.0003411039 0.005230313 -0.02420452)
(0.0004303476 0.006147753 -0.03140745)
(0.0005589161 0.007392754 -0.03816986)
(0.0007770592 0.00983047 -0.03974667)
(0.003446811 0.1103733 -0.1350849)
(2.168967e-05 0.0001722293 -0.001218663)
(2.418147e-05 0.0001903885 -0.004268486)
(2.554415e-05 0.0002107728 -0.007003032)
(2.654595e-05 0.0002357177 -0.01278316)
(2.434054e-05 0.0002858702 -0.01157918)
(0.0002472961 0.002908178 -0.02589885)
(0.0003138942 0.003457947 -0.02066275)
(0.0003842558 0.003988453 -0.02629249)
(0.0004904448 0.004684591 -0.03111673)
(0.0006775363 0.006097194 -0.03129235)
(0.0072124 0.06765851 -0.1017182)
(0.004297134 0.08237333 -0.01823435)
(2.02863e-05 0.0001240755 -0.001109811)
(2.247279e-05 0.0001365863 -0.003869399)
(2.365592e-05 0.000150409 -0.006313905)
(2.455381e-05 0.0001671223 -0.01145262)
(2.297619e-05 0.0002007551 -0.01029474)
(0.0002316239 0.002023925 -0.02281174)
(0.0002879441 0.002381003 -0.0179778)
(0.0003454081 0.002709885 -0.02254748)
(0.0004274539 0.003130155 -0.02618423)
(0.0005849908 0.003989996 -0.02571625)
(0.006372132 0.04345081 -0.08026814)
(0.008712353 0.05305975 -0.01071721)
(0.004728224 0.06525448 -0.03663123)
(1.866398e-05 6.709071e-05 -0.001018572)
(2.0539e-05 7.357119e-05 -0.003537699)
(2.151522e-05 8.067001e-05 -0.0057468)
(2.222366e-05 8.917993e-05 -0.01037039)
(2.094364e-05 0.0001064726 -0.009264181)
(0.000208835 0.001065412 -0.02037787)
(0.000255457 0.001242239 -0.01591383)
(0.0003000093 0.001398296 -0.01974338)
(0.0003626617 0.001593369 -0.02261882)
(0.0004810509 0.001996288 -0.02184019)
(0.005227629 0.0212727 -0.06655882)
(0.00718865 0.02542347 -0.008204642)
(0.009021678 0.03089503 -0.02845377)
(0.00504708 0.03693024 -0.01307904)
(1.701813e-05 2.199741e-05 -0.00094162)
(1.861012e-05 2.424028e-05 -0.003259841)
(1.938067e-05 2.658412e-05 -0.005275526)
(1.990174e-05 2.877987e-05 -0.009479375)
(1.87355e-05 3.462302e-05 -0.008425227)
(0.0001849136 0.0003399873 -0.01842181)
(0.0002227702 0.0003844214 -0.01428205)
(0.0002573538 0.0004359463 -0.01756884)
(0.0003040929 0.0004867098 -0.01991935)
(0.0003936935 0.0006078153 -0.01899302)
(0.004143762 0.006346788 -0.05685777)
(0.005631452 0.007371961 -0.006681688)
(0.0072056 0.008906747 -0.0229295)
(0.009293669 0.01072883 -0.01023606)
(0.005125611 0.01269317 -0.006390775)
(0.00010972 -0.0007031668 -0.005922716)
(0.0001786838 -0.0005664583 -0.004832992)
(0.0001031131 -0.0005881397 -0.01994533)
(0.0001201562 -0.0002023315 -0.003952613)
(0.0001735183 -0.0002264403 -0.01576421)
(9.284019e-05 -0.0002150288 -0.03082358)
(8.316299e-05 -0.0001030709 -0.003299359)
(0.0001131405 -0.0001189105 -0.01273135)
(0.0001514689 -0.0001364228 -0.02378382)
(7.714358e-05 -0.0001398818 -0.05198916)
(6.120518e-05 -3.620991e-05 -0.002806579)
(7.887867e-05 -4.118883e-05 -0.01057111)
(9.783506e-05 -4.771816e-05 -0.01905661)
(0.0001250951 -5.539936e-05 -0.03948599)
(4.504262e-05 -7.516468e-05 -0.04289004)
(4.717108e-05 -1.029778e-05 -0.002426052)
(5.817156e-05 -1.166474e-05 -0.008975046)
(6.814464e-05 -1.342851e-05 -0.0157774)
(7.998262e-05 -1.587432e-05 -0.0314889)
(7.131023e-05 -2.181485e-05 -0.03225601)
(0.0003395853 -0.0002239479 -0.08617193)
(3.762972e-05 9.349227e-06 -0.002125518)
(4.502137e-05 1.053396e-05 -0.00775438)
(5.045028e-05 1.200787e-05 -0.01338187)
(5.591214e-05 1.403459e-05 -0.02602706)
(4.563224e-05 1.877298e-05 -0.02564267)
(0.0005408241 0.0002033088 -0.06440134)
(0.0003308239 0.0002395223 -0.06101715)
(3.096841e-05 2.715844e-05 -0.00188283)
(3.611862e-05 3.04463e-05 -0.006793194)
(3.932241e-05 3.444868e-05 -0.01155681)
(4.173885e-05 3.981425e-05 -0.02205866)
(3.260136e-05 5.18284e-05 -0.02116274)
(0.0003520364 0.0005591448 -0.05107916)
(0.000538294 0.0006962055 -0.04543951)
(0.0003010716 0.0008025077 -0.06748559)
(2.616116e-05 6.136847e-05 -0.00168248)
(2.995495e-05 6.868913e-05 -0.006015391)
(3.186608e-05 7.728524e-05 -0.01011765)
(3.297296e-05 8.843833e-05 -0.01903406)
(2.516255e-05 0.0001116875 -0.01791037)
(0.0002593542 0.001184779 -0.04208301)
(0.0003608472 0.001476263 -0.03597877)
(0.0004964919 0.001785041 -0.05018285)
(0.0002759516 0.002128951 -0.06802571)
(2.294745e-05 9.754388e-05 -0.001513049)
(2.588656e-05 0.0001087124 -0.005368673)
(2.719028e-05 0.0001216852 -0.008945503)
(2.769794e-05 0.0001381716 -0.01663572)
(2.15357e-05 0.0001720773 -0.01542006)
(0.0002154129 0.001797304 -0.03553289)
(0.0002863421 0.002201209 -0.02959229)