/*--------------------------------*- C++ -*----------------------------------*\
| =========                 |                                                 |
| \\      /  F ield         | OpenFOAM: The Open Source CFD Toolbox           |
|  \\    /   O peration     | Version:  2306                                  |
|   \\  /    A nd           | Website:  www.openfoam.com                      |
|    \\/     M anipulation  |                                                 |
\*---------------------------------------------------------------------------*/
FoamFile
{
    version     2.0;
    format      ascii;
    arch        "LSB;label=32;scalar=64";
    class       volScalarField;
    location    "0.6/fuel";
    object      X.H2;
}
// * * * * * * * * * * * * * * * * * * * * * * * * * * * * * * * * * * * * * //

dimensions      [0 0 0 0 0 0 0];

internalField   nonuniform List<scalar> 
16000
(
0.9260502
0.9274132
0.9043712
0.9261278
0.9301288
0.9054292
0.9274915
0.8801821
0.9044419
0.9262798
0.9341167
0.9075355
0.9302084
0.881124
0.9055002
0.9276446
0.856781
0.8802466
0.9045803
0.9265037
0.9390892
0.9106271
0.9341986
0.8829996
0.9076073
0.9303641
0.8576527
0.8811887
0.9056394
0.9278702
0.8345666
0.8568405
0.8803731
0.9047844
0.9267982
0.9442155
0.9144847
0.9391748
0.8857557
0.9107003
0.9343587
0.8593881
0.883065
0.907748
0.9305934
0.8353827
0.8577124
0.8813158
0.9058446
0.9281669
0.813514
0.834622
0.8569573
0.8805598
0.905053
0.9270897
0.9479663
0.9184772
0.9443062
0.8891998
0.9145602
0.9393422
0.8619379
0.8858221
0.9108437
0.9345945
0.8370067
0.8594483
0.8831932
0.9079555
0.930895
0.8142821
0.8354382
0.8578297
0.8815033
0.9061146
0.9284606
0.7935363
0.8135658
0.8347307
0.8571299
0.8808057
0.905319
0.9273307
0.9503085
0.9214382
0.9480591
0.8927708
0.9185559
0.9444836
0.8651243
0.8892681
0.9147081
0.9395887
0.8393925
0.861999
0.8859525
0.9110552
0.9349045
0.8158103
0.8370627
0.8595666
0.8833826
0.9082286
0.9311934
0.7942618
0.814334
0.8355473
0.858003
0.8817503
0.9063821
0.9287035
0.7745464
0.7935849
0.8136676
0.8348915
0.8573573
0.8810493
0.9055391
0.92757
0.9516262
0.9233198
0.950402
0.8954244
0.9215178
0.9482406
0.8684286
0.8928416
0.9187101
0.9447451
0.8423734
0.865187
0.889402
0.9149263
0.9399128
0.8180548
0.8394493
0.862119
0.8861449
0.9113335
0.9352113
0.795705
0.8158626
0.8371727
0.8597413
0.8836319
0.908499
0.9314404
0.7752337
0.7943106
0.8144362
0.8357087
0.8582312
0.881995
0.9066032
0.9289446
0.7564664
0.7745923
0.7936806
0.8138182
0.8351034
0.8575827
0.8812508
0.9057574
0.9278073
0.9522153
0.9243968
0.9517199
0.8971152
0.9233995
0.9505848
0.8708852
0.8954958
0.9216739
0.948508
0.8454641
0.8684934
0.8929805
0.9189375
0.9450889
0.8208585
0.8424315
0.86531
0.8895996
0.9152133
0.9402336
0.7978243
0.8181078
0.8395608
0.8622963
0.8863982
0.9116091
0.9354656
0.7766005
0.7957542
0.8159655
0.8373353
0.8599715
0.8838788
0.9087228
0.9316856
0.7571188
0.7752797
0.7944066
0.8145873
0.8359214
0.8584575
0.8821974
0.9068227
0.9291838
0.7392269
0.7565098
0.7746826
0.7938223
0.8140168
0.8353135
0.8577691
0.8814507
0.905974
0.9280428
0.9522153
0.9248845
0.9523091
0.8980856
0.9244764
0.9519031
0.872452
0.8971865
0.9235557
0.9508539
0.8477624
0.8709505
0.895636
0.921904
0.9488595
0.8237651
0.8455241
0.8686208
0.8931856
0.9192368
0.9454292
0.8004713
0.8209127
0.8425457
0.8654918
0.8898599
0.9154976
0.9405008
0.7786072
0.7978741
0.818212
0.8397256
0.8625299
0.8866492
0.9118374
0.9357186
0.7584162
0.7766468
0.7958509
0.8161177
0.8375497
0.8601997
0.8840832
0.9089449
0.931929
0.7398475
0.7571623
0.7753703
0.7945488
0.8147866
0.8361323
0.8586447
0.8823982
0.9070405
0.9294211
0.722767
0.739268
0.7565952
0.7748164
0.7940092
0.8142138
0.8354873
0.8579541
0.8816491
0.906189
0.9291743
0.9516262
0.9248845
0.9523091
0.8985259
0.924964
0.9524925
0.8733521
0.8981567
0.9246323
0.9521728
0.8492289
0.8725171
0.8973264
0.9237859
0.9512076
0.8259267
0.8478228
0.8710788
0.8958428
0.9222069
0.9492075
0.803215
0.8238211
0.8456422
0.8688091
0.8934558
0.9195333
0.9457154
0.7811133
0.8005221
0.8210194
0.8427145
0.8657314
0.8901177
0.9157341
0.940768
0.7603208
0.7786541
0.797972
0.8183662
0.8399429
0.8627614
0.8868571
0.9120644
0.9359701
0.7410813
0.7584599
0.776738
0.795994
0.8163185
0.8377622
0.8603885
0.884286
0.9091653
0.9321707
0.7233582
0.7398887
0.757248
0.7755044
0.7947363
0.8149842
0.8363067
0.8588304
0.8825975
0.9072566
0.9305612
0.7070323
0.722806
0.7393491
0.7567218
0.7749929
0.7941947
0.8143767
0.8356598
0.8581376
0.8818459
0.9072224
0.929945
0.9503085
0.9243968
0.9517199
0.8985259
0.924964
0.9524925
0.8737609
0.8985969
0.9251198
0.9527623
0.8500721
0.873417
0.8982962
0.9248622
0.9525272
0.8273065
0.8492891
0.872645
0.8975329
0.9240888
0.9515578
0.8052555
0.825983
0.8479416
0.8712684
0.8961153
0.9225069
0.9495001
0.7837106
0.8032675
0.8239313
0.8458168
0.8690573
0.8937235
0.919782
0.9460041
0.7626989
0.7811612
0.8006223
0.8211772
0.842937
0.8659688
0.8903323
0.9159703
0.9410351
0.7428924
0.7603651
0.7787464
0.798117
0.8185696
0.8401584
0.8629533
0.8870638
0.9122901
0.9362203
0.7245335
0.7411228
0.7585462
0.776873
0.7961828
0.8165176
0.837938
0.8605759
0.8844874
0.9093842
0.9333319
0.7075964
0.7233973
0.73997
0.757375
0.7756815
0.7949224
0.8151477
0.8364798
0.8590146
0.8827952
0.9082957
0.9313413
0.6919747
0.7070695
0.722883
0.7394692
0.7568889
0.7751681
0.7943481
0.8145384
0.8358308
0.8583197
0.8827928
0.9079253
0.9305251
0.9479663
0.9233198
0.950402
0.8980856
0.9244764
0.9519031
0.8737609
0.8985969
0.9251198
0.9527623
0.8504551
0.8738257
0.8987361
0.9253494
0.953117
0.8281
0.850132
0.8735445
0.898502
0.9251646
0.952878
0.8065583
0.8273625
0.8494075
0.872834
0.8978048
0.9243888
0.9518516
0.7856423
0.8053083
0.8260938
0.8481173
0.8715183
0.8963853
0.9227586
0.9497953
0.7651635
0.7837601
0.8033709
0.8240945
0.8460471
0.8693033
0.893948
0.9200322
0.9462954
0.7451536
0.7627442
0.7812555
0.8007705
0.8213853
0.8431577
0.8661663
0.8905465
0.9162061
0.9413021
0.7262587
0.7429344
0.7604523
0.7788831
0.7983082
0.8187713
0.8403369
0.863144
0.8872693
0.9125144
0.9374242
0.7087176
0.7245729
0.7412045
0.758674
0.7770513
0.7963702
0.8166823
0.8381126
0.8607619
0.8846872
0.9104367
0.9341395
0.6925136
0.7076336
0.7234745
0.7400904
0.7575426
0.7758572
0.7950762
0.8153099
0.8366515
0.8591974
0.8837464
0.9090047
0.9319312
0.6775506
0.6920101
0.7071428
0.7229972
0.7396278
0.7570549
0.775313
0.7945003
0.8146987
0.8360006
0.859196
0.8834362
0.9084539
0.9309129
0.9442155
0.9214382
0.9480591
0.8971152
0.9233995
0.9505848
0.8733521
0.8981567
0.9246323
0.9521728
0.8504551
0.8738257
0.8987361
0.9253494
0.953117
0.8284607
0.850515
0.8739529
0.8989417
0.9256516
0.953468
0.8073077
0.8281558
0.8502499
0.8737328
0.8987731
0.9254641
0.9531719
0.7868758
0.8066108
0.8274729
0.8495825
0.873083
0.8980742
0.9246401
0.9521474
0.7669964
0.785692
0.8054122
0.8262578
0.8483489
0.871766
0.8966118
0.9230119
0.9500932
0.7474968
0.7652102
0.7838575
0.803524
0.8243096
0.8462755
0.8695096
0.894174
0.9202841
0.9465893
0.7284123
0.7451965
0.7628333
0.7813953
0.800966
0.8215918
0.8433413
0.8663636
0.8907603
0.9164415
0.942593
0.7103633
0.7262985
0.7430171
0.7605817
0.7790636
0.7984979
0.8189385
0.8405144
0.8633336
0.8874736
0.9135946
0.9383076
0.6935846
0.7087551
0.7246506
0.7413258
0.7588427
0.7772282
0.7965252
0.8168459
0.8382859
0.8609465
0.8856492
0.9111645
0.9347614
0.678066
0.6925491
0.7077071
0.723589
0.7402495
0.757709
0.7760026
0.7952289
0.8154709
0.8368219
0.8600775
0.8843949
0.90954
0.9323273
0.6637208
0.6775844
0.69208
0.7072515
0.723148
0.7397853
0.7571921
0.7754567
0.7946513
0.8148579
0.8368179
0.8597911
0.88392
0.9088071
0.9311072
0.9390892
0.9184772
0.9443062
0.8954244
0.9215178
0.9482406
0.872452
0.8971865
0.9235557
0.9508539
0.8500721
0.873417
0.8982962
0.9248622
0.9525272
0.8284607
0.850515
0.8739529
0.8989417
0.9256516
0.953468
0.8076484
0.8285164
0.8506326
0.8741408
0.8992123
0.9259508
0.9537619
0.7875855
0.80736
0.8282657
0.8504242
0.8739809
0.8990417
0.9257146
0.9534673
0.7681669
0.7869252
0.8067142
0.8276361
0.8498132
0.8733299
0.8982998
0.9248925
0.9524453
0.7492394
0.7670433
0.7857898
0.805566
0.8264741
0.8485786
0.8719737
0.8968398
0.9232668
0.9503937
0.7306438
0.747541
0.7653022
0.7840017
0.8037261
0.8245231
0.8464671
0.8697173
0.8944013
0.9205375
0.9480221
0.7124175
0.728453
0.745281
0.7629654
0.7815797
0.8011601
0.8217635
0.8435247
0.8665605
0.8909738
0.9175799
0.9436827
0.6951564
0.7104012
0.7263771
0.7431397
0.7607524
0.7792426
0.7986551
0.8191046
0.8406908
0.863522
0.888458
0.9143754
0.9390314
0.6790902
0.6936203
0.708829
0.7247658
0.7414858
0.7590102
0.7773746
0.7966791
0.8170082
0.8384579
0.8618357
0.8863133
0.9117222
0.9351868
0.6642142
0.6780999
0.6926191
0.7078161
0.7237403
0.7404075
0.7578467
0.7761468
0.7953805
0.8156306
0.8376424
0.860677
0.8848843
0.909899
0.9325264
0.6504496
0.6637531
0.6776511
0.6921837
0.7073951
0.7232978
0.7399156
0.7573282
0.7755993
0.7948011
0.8156243
0.8373726
0.8602385
0.8842432
0.908984
0.9341167
0.9144847
0.9391748
0.8927708
0.9185559
0.9444836
0.8708852
0.8954958
0.9216739
0.948508
0.8492289
0.8725171
0.8973264
0.9237859
0.9512076
0.8281
0.850132
0.8735445
0.898502
0.9251646
0.952878
0.8076484
0.8285164
0.8506326
0.8741408
0.8992123
0.9259508
0.9537619
0.7879082
0.8077006
0.828626
0.8508065
0.8743884
0.8994804
0.9262008
0.9540571
0.7688405
0.7876347
0.807463
0.8284283
0.8506539
0.8742268
0.8992663
0.9259659
0.9537644
0.7503523
0.7682136
0.7870226
0.8068674
0.8278515
0.850042
0.8735366
0.8985264
0.9251461
0.9527452
0.7323034
0.7492838
0.7671357
0.7859347
0.805769
0.8266887
0.8487713
0.8721829
0.8970692
0.9235235
0.9518582
0.7145459
0.7306858
0.7476282
0.7654386
0.7841922
0.8039267
0.8247022
0.8466599
0.8699262
0.8946301
0.9217727
0.9495311
0.6971184
0.7124562
0.7285332
0.7454062
0.7631399
0.7817627
0.8013216
0.8219351
0.8437078
0.8667571
0.892007
0.9185083
0.9447306
0.6805933
0.6951925
0.7104759
0.7264936
0.7433017
0.7609219
0.779391
0.7988114
0.8192698
0.8408662
0.8644308
0.8891679
0.9150058
0.9395601
0.6651947
0.6791243
0.6936908
0.7089387
0.7249179
0.7416448
0.7591488
0.7775199
0.7968319
0.8171693
0.8392864
0.8624491
0.8868219
0.9121018
0.9354036
0.6509225
0.6642465
0.6781667
0.6927231
0.7079602
0.7238905
0.7405381
0.7579832
0.7762899
0.7955308
0.8163999
0.8382011
0.8611294
0.8852124
0.9100792
0.6377047
0.6504805
0.6638168
0.6777501
0.6923207
0.7075379
0.7234217
0.7400448
0.7574633
0.7757408
0.7955228
0.8161442
0.8377896
0.8605374
0.884405
0.9301288
0.9106271
0.9341986
0.8891998
0.9145602
0.9393422
0.8684286
0.8928416
0.9187101
0.9447451
0.8477624
0.8709505
0.895636
0.921904
0.9488595
0.8273065
0.8492891
0.872645
0.8975329
0.9240888
0.9515578
0.8073077
0.8281558
0.8502499
0.8737328
0.8987731
0.9254641
0.9531719
0.7879082
0.8077006
0.828626
0.8508065
0.8743884
0.8994804
0.9262008
0.9540571
0.7691468
0.7879573
0.8078034
0.8287882
0.8510358
0.8746338
0.8997045
0.9264516
0.9543537
0.7509929
0.768887
0.7877316
0.8076154
0.8286427
0.8508818
0.8744325
0.8994917
0.9262181
0.954063
0.7333633
0.7503965
0.7683055
0.7871668
0.8070694
0.8280651
0.8502336
0.8737443
0.8987542
0.925401
0.9542039
0.7161286
0.7323455
0.7493713
0.7672726
0.786126
0.8059705
0.8268687
0.8489653
0.8723934
0.8973001
0.9247737
0.9533783
0.699151
0.7145857
0.7307685
0.7477574
0.7656187
0.7843814
0.8040949
0.8248825
0.846854
0.8701365
0.895746
0.9230056
0.9513973
0.6824693
0.6971552
0.7125325
0.7286522
0.7455716
0.7633131
0.7819151
0.8014828
0.8221064
0.8438906
0.8677092
0.8928463
0.9193742
0.945657
0.6666335
0.6806277
0.6952638
0.7105868
0.7266475
0.7434624
0.7610623
0.7795385
0.7989667
0.8194341
0.8417123
0.8650855
0.8897401
0.9154599
0.9398463
0.651862
0.6652272
0.6791915
0.6937953
0.7090836
0.7250691
0.7417763
0.7592864
0.7776641
0.7969835
0.8179458
0.8398578
0.8629188
0.8871679
0.9122945
0.6381582
0.6509534
0.6643104
0.678266
0.6928605
0.7081033
0.7240147
0.7406677
0.7581188
0.7764318
0.7962551
0.8169235
0.8386227
0.8614327
0.8853771
0.6254563
0.6377342
0.6505415
0.6639114
0.677881
0.6924569
0.7076559
0.7235446
0.740173
0.7575973
0.7764226
0.7960122
0.8165351
0.8380682
0.860687
0.9274132
0.9075355
0.9302084
0.8857557
0.9107003
0.9343587
0.8651243
0.8892681
0.9147081
0.9395887
0.8454641
0.8684934
0.8929805
0.9189375
0.9450889
0.8259267
0.8478228
0.8710788
0.8958428
0.9222069
0.9492075
0.8065583
0.8273625
0.8494075
0.872834
0.8978048
0.9243888
0.9518516
0.7875855
0.80736
0.8282657
0.8504242
0.8739809
0.8990417
0.9257146
0.9534673
0.7691468
0.7879573
0.8078034
0.8287882
0.8510358
0.8746338
0.8997045
0.9264516
0.9543537
0.7512842
0.7691932
0.788054
0.8079554
0.8290021
0.8512631
0.874839
0.8999292
0.926703
0.9546517
0.7339734
0.7510368
0.7689785
0.7878752
0.8078166
0.8288553
0.8510724
0.8746389
0.8997178
0.9264712
0.9555132
0.7171396
0.7334052
0.7504835
0.7684417
0.7873571
0.8072699
0.828244
0.8504262
0.8739531
0.898983
0.9266404
0.9556483
0.7006625
0.7161687
0.7324285
0.749501
0.7674534
0.7863159
0.8061395
0.8270499
0.8491606
0.8726053
0.8984261
0.9260076
0.9551871
0.6844127
0.699189
0.7146644
0.7308913
0.7479282
0.7657976
0.78454
0.8042643
0.8250639
0.8470493
0.871163
0.8968547
0.9244728
0.9537613
0.6684292
0.6825044
0.6972279
0.7126457
0.7288093
0.7457359
0.7634572
0.7820672
0.8016438
0.8222774
0.8447762
0.8684822
0.8936269
0.9201188
0.9462926
0.6532407
0.6666664
0.6806957
0.6953695
0.7107333
0.7268003
0.7435957
0.7612019
0.7796852
0.7991212
0.8202266
0.8423218
0.8656133
0.8901517
0.9157029
0.6390592
0.6518931
0.6652915
0.6792914
0.6939335
0.7092276
0.7251941
0.7419068
0.7594229
0.7778072
0.7977143
0.8184811
0.8402953
0.8632383
0.8873435
0.6258916
0.6381878
0.6510145
0.6644053
0.6783972
0.692997
0.7082216
0.724138
0.7407963
0.7582532
0.777116
0.7967479
0.8173186
0.8389053
0.8615849
0.6136772
0.6254846
0.6377927
0.6506321
0.6640366
0.678011
0.6925694
0.707773
0.7236665
0.7403002
0.7582432
0.7768849
0.7963802
0.8167962
0.8382076
0.9260502
0.9054292
0.9274915
0.8829996
0.9076073
0.9303641
0.8619379
0.8858221
0.9108437
0.9345945
0.8423734
0.865187
0.889402
0.9149263
0.9399128
0.8237651
0.8455241
0.8686208
0.8931856
0.9192368
0.9454292
0.8052555
0.825983
0.8479416
0.8712684
0.8961153
0.9225069
0.9495001
0.7868758
0.8066108
0.8274729
0.8495825
0.873083
0.8980742
0.9246401
0.9521474
0.7688405
0.7876347
0.807463
0.8284283
0.8506539
0.8742268
0.8992663
0.9259659
0.9537644
0.7512842
0.7691932
0.788054
0.8079554
0.8290021
0.8512631
0.874839
0.8999292
0.926703
0.9546517
0.7342509
0.751328
0.7692845
0.7881972
0.8081561
0.8292143
0.8514532
0.8750447
0.9001546
0.9269552
0.9560976
0.7177215
0.7340151
0.7511235
0.7691141
0.7880646
0.8080162
0.8290332
0.8512636
0.874846
0.8999447
0.9277003
0.956902
0.7016279
0.7171794
0.7334878
0.7506126
0.7686216
0.7875461
0.8074379
0.8284238
0.8506197
0.8741628
0.900097
0.9278123
0.9572936
0.6858579
0.7007006
0.7162476
0.7325517
0.7496724
0.767633
0.7864753
0.8063097
0.8272324
0.8493572
0.8736394
0.8995339
0.9274245
0.9573015
0.6702894
0.6844489
0.6992639
0.7147812
0.7310535
0.7480978
0.7659476
0.7846997
0.8044347
0.8252466
0.8480032
0.8721832
0.8981705
0.9262796
0.9568906
0.6549611
0.6684628
0.6825738
0.6973358
0.7127953
0.7289654
0.7458726
0.7636012
0.7822191
0.8018046
0.8231064
0.8454952
0.8692012
0.8942965
0.920618
0.6403814
0.6532721
0.6667314
0.6807966
0.6955092
0.7108789
0.726927
0.7437281
0.7613407
0.7798309
0.7998668
0.8207973
0.8428131
0.8659929
0.8903718
0.6267564
0.639089
0.6519546
0.6653869
0.6794233
0.6940708
0.7093467
0.7253183
0.7420364
0.7595585
0.7784975
0.798218
0.818891
0.8405928
0.8634005
0.6140954
0.62592
0.6382464
0.6511053
0.6645308
0.6785276
0.6931099
0.7083391
0.7242603
0.740924
0.7589012
0.7775815
0.7971197
0.8175834
0.8390471
0.6023426
0.6137044
0.6255406
0.6378794
0.6507519
0.664161
0.6781186
0.6926811
0.7078891
0.7237875
0.7409134
0.758681
0.7772324
0.7966259
0.816927
0.9043712
0.9261278
0.881124
0.9055002
0.9276446
0.8593881
0.883065
0.907748
0.9305934
0.8393925
0.861999
0.8859525
0.9110552
0.9349045
0.8208585
0.8424315
0.86531
0.8895996
0.9152133
0.9402336
0.803215
0.8238211
0.8456422
0.8688091
0.8934558
0.9195333
0.9457154
0.7856423
0.8053083
0.8260938
0.8481173
0.8715183
0.8963853
0.9227586
0.9497953
0.7681669
0.7869252
0.8067142
0.8276361
0.8498132
0.8733299
0.8982998
0.9248925
0.9524453
0.7509929
0.768887
0.7877316
0.8076154
0.8286427
0.8508818
0.8744325
0.8994917
0.9262181
0.954063
0.7342509
0.751328
0.7692845
0.7881972
0.8081561
0.8292143
0.8514532
0.8750447
0.9001546
0.9269552
0.9560976
0.7179861
0.7342924
0.7514144
0.7694197
0.7883862
0.8083552
0.8293917
0.8516438
0.875251
0.9003806
0.9281792
0.9574608
0.7021837
0.7177611
0.7340973
0.7512519
0.7692931
0.7882527
0.8081831
0.8292118
0.8514555
0.8750538
0.901048
0.9288273
0.9584414
0.6867809
0.7016658
0.7172579
0.7336103
0.7507831
0.7688003
0.7877044
0.8076067
0.8286045
0.8508141
0.8751847
0.9011482
0.9291014
0.9591298
0.6716726
0.6858942
0.7007758
0.7163648
0.7327145
0.7498426
0.7677837
0.7866357
0.8064811
0.8274161
0.8503172
0.8746575
0.9008042
0.9290366
0.9597264
0.6567433
0.670324
0.6845205
0.6993752
0.7149356
0.7312146
0.7482401
0.7660987
0.7848605
0.8046063
0.8261389
0.848952
0.8733947
0.8997875
0.9286278
0.961947
0.6420313
0.6549932
0.668529
0.6826768
0.6974784
0.7129439
0.7290954
0.7460091
0.7637449
0.7823708
0.8025842
0.8237795
0.8461643
0.8698182
0.8947446
0.6280254
0.6404115
0.6533342
0.6668278
0.68093
0.695648
0.7109995
0.7270529
0.7438598
0.7614787
0.7805349
0.8004037
0.8212574
0.8431665
0.866196
0.6149261
0.626785
0.6391479
0.6520459
0.6655131
0.6795545
0.6941844
0.7094649
0.7254415
0.7421651
0.7602121
0.778973
0.7986037
0.8191698
0.8407439
0.6027446
0.6141226
0.6259761
0.6383333
0.6512254
0.6646555
0.6786354
0.6932219
0.7084556
0.7243817
0.7415391
0.759342
0.7779326
0.797369
0.8177163
0.5914294
0.6023687
0.6137581
0.6256238
0.6379942
0.6508709
0.6642638
0.6782253
0.692792
0.7080044
0.7243707
0.7413289
0.7590101
0.7774646
0.796749
0.8801821
0.9044419
0.9262798
0.8576527
0.8811887
0.9056394
0.9278702
0.8370067
0.8594483
0.8831932
0.9079555
0.930895
0.8180548
0.8394493
0.862119
0.8861449
0.9113335
0.9352113
0.8004713
0.8209127
0.8425457
0.8654918
0.8898599
0.9154976
0.9405008
0.7837106
0.8032675
0.8239313
0.8458168
0.8690573
0.8937235
0.919782
0.9460041
0.7669964
0.785692
0.8054122
0.8262578
0.8483489
0.871766
0.8966118
0.9230119
0.9500932
0.7503523
0.7682136
0.7870226
0.8068674
0.8278515
0.850042
0.8735366
0.8985264
0.9251461
0.9527452
0.7339734
0.7510368
0.7689785
0.7878752
0.8078166
0.8288553
0.8510724
0.8746389
0.8997178
0.9264712
0.9555132
0.7179861
0.7342924
0.7514144
0.7694197
0.7883862
0.8083552
0.8293917
0.8516438
0.875251
0.9003806
0.9281792
0.9574608
0.7024364
0.7180257
0.7343744
0.7515426
0.7695983
0.7885738
0.8085217
0.8295696
0.8518349
0.8754579
0.9014787
0.9292857
0.9589535
0.6873123
0.7022214
0.7178393
0.7342192
0.7514215
0.7694709
0.78841
0.8083507
0.829391
0.8516481
0.8760652
0.9020585
0.9300342
0.9601215
0.672556
0.6868171
0.7017406
0.7173745
0.7337722
0.7509524
0.7689499
0.7878634
0.8077763
0.8287861
0.8517621
0.8761499
0.9023039
0.9304997
0.9611368
0.6580684
0.6717073
0.685966
0.7008875
0.7165197
0.7328762
0.7499855
0.7679354
0.7867973
0.8066536
0.8283135
0.8512634
0.8758262
0.9022482
0.9308473
0.9628358
0.6437402
0.6567764
0.6703923
0.6846267
0.6995224
0.715089
0.7313498
0.7483833
0.7662508
0.7850223
0.8054451
0.8270271
0.8500799
0.8748842
0.9018858
0.9324022
0.9646456
0.6296089
0.642062
0.6550566
0.6686275
0.6828129
0.6976202
0.7130676
0.7292251
0.7461455
0.7638885
0.7831065
0.8032172
0.8244061
0.8467387
0.870231
0.616145
0.6280543
0.640471
0.6534265
0.6669553
0.6810626
0.695763
0.7111194
0.7271781
0.7439908
0.7621451
0.7810416
0.8008365
0.8215884
0.8433556
0.6035431
0.6149535
0.6268414
0.6392354
0.6521667
0.6656385
0.679663
0.6942972
0.7095823
0.7255638
0.7427854
0.7606624
0.7793372
0.798866
0.8193113
0.591816
0.6027707
0.6141765
0.6260595
0.6384484
0.6513448
0.6647586
0.6787424
0.6933331
0.7085712
0.7249668
0.7419575
0.7596745
0.778168
0.7974941
0.5809162
0.5914545
0.6024203
0.613838
0.6257339
0.6381083
0.6509694
0.6643659
0.6783312
0.6929019
0.70856
0.7247659
0.7416413
0.7592299
0.7775808
0.856781
0.8802466
0.9045803
0.9265037
0.8353827
0.8577124
0.8813158
0.9058446
0.9281669
0.8158103
0.8370627
0.8595666
0.8833826
0.9082286
0.9311934
0.7978243
0.8181078
0.8395608
0.8622963
0.8863982
0.9116091
0.9354656
0.7811133
0.8005221
0.8210194
0.8427145
0.8657314
0.8901177
0.9157341
0.940768
0.7651635
0.7837601
0.8033709
0.8240945
0.8460471
0.8693033
0.893948
0.9200322
0.9462954
0.7492394
0.7670433
0.7857898
0.805566
0.8264741
0.8485786
0.8719737
0.8968398
0.9232668
0.9503937
0.7333633
0.7503965
0.7683055
0.7871668
0.8070694
0.8280651
0.8502336
0.8737443
0.8987542
0.925401
0.9542039
0.7177215
0.7340151
0.7511235
0.7691141
0.7880646
0.8080162
0.8290332
0.8512636
0.874846
0.8999447
0.9277003
0.956902
0.7024364
0.7180257
0.7343744
0.7515426
0.7695983
0.7885738
0.8085217
0.8295696
0.8518349
0.8754579
0.9014787
0.9292857
0.9589535
0.687554
0.7024741
0.7181036
0.7344961
0.7517118
0.7697757
0.7887306
0.8086886
0.829748
0.8520266
0.8764642
0.9024704
0.9304563
0.9605676
0.6730646
0.6873482
0.7022958
0.7179552
0.7343803
0.75159
0.7696196
0.7885679
0.8085189
0.8295708
0.8525859
0.8769923
0.9031405
0.931313
0.9619274
0.6589148
0.6725905
0.6868884
0.7018517
0.7175285
0.7339331
0.7510942
0.7691003
0.7880233
0.8079468
0.8296718
0.8526583
0.8772123
0.9035573
0.9319915
0.963617
0.6450108
0.6581016
0.6717758
0.6860725
0.7010351
0.7166736
0.7330119
0.7501293
0.7680882
0.7869599
0.8074967
0.8291987
0.8523506
0.8771558
0.9038693
0.933133
0.9650212
0.6312489
0.6437719
0.6568417
0.6704938
0.6847671
0.6996686
0.7152177
0.7314859
0.7485275
0.7664039
0.7858136
0.8062805
0.8280839
0.8514673
0.8768176
0.905261
0.9345489
0.9666444
0.6176658
0.6296383
0.6421227
0.6551508
0.6687576
0.6829482
0.6977381
0.7131912
0.7293547
0.7462816
0.7645847
0.7837039
0.8038067
0.8249442
0.8471232
0.6047146
0.6161726
0.6281113
0.6405593
0.6535485
0.6670821
0.6811724
0.6958774
0.7112387
0.7273026
0.7446232
0.7626248
0.7814503
0.801148
0.8217656
0.5925841
0.6035694
0.6150076
0.6269253
0.6393511
0.6522867
0.6657423
0.6797707
0.6944092
0.7096988
0.7261537
0.7432128
0.7610072
0.7795849
0.7989992
0.5812882
0.5918411
0.6028224
0.6142565
0.6261698
0.6385628
0.6514435
0.664861
0.6788486
0.6934433
0.7091286
0.7253646
0.7422731
0.7598974
0.7782861
0.5707828
0.5809402
0.591504
0.602497
0.6139436
0.6258433
0.6382027
0.6510671
0.6644672
0.6784362
0.6934321
0.7089365
0.725063
0.74185
0.75934
0.8345666
0.8568405
0.8803731
0.9047844
0.9267982
0.8142821
0.8354382
0.8578297
0.8815033
0.9061146
0.9284606
0.795705
0.8158626
0.8371727
0.8597413
0.8836319
0.908499
0.9314404
0.7786072
0.7978741
0.818212
0.8397256
0.8625299
0.8866492
0.9118374
0.9357186
0.7626989
0.7811612
0.8006223
0.8211772
0.842937
0.8659688
0.8903323
0.9159703
0.9410351
0.7474968
0.7652102
0.7838575
0.803524
0.8243096
0.8462755
0.8695096
0.894174
0.9202841
0.9465893
0.7323034
0.7492838
0.7671357
0.7859347
0.805769
0.8266887
0.8487713
0.8721829
0.8970692
0.9235235
0.9518582
0.7171396
0.7334052
0.7504835
0.7684417
0.7873571
0.8072699
0.828244
0.8504262
0.8739531
0.898983
0.9266404
0.9556483
0.7021837
0.7177611
0.7340973
0.7512519
0.7692931
0.7882527
0.8081831
0.8292118
0.8514555
0.8750538
0.901048
0.9288273
0.9584414
0.687554
0.7024741
0.7181036
0.7344961
0.7517118
0.7697757
0.7887306
0.8086886
0.829748
0.8520266
0.8764642
0.9024704
0.9304563
0.9605676
0.673296
0.6875898
0.7025483
0.7182193
0.7346568
0.7518799
0.7699239
0.788888
0.8088561
0.829927
0.8529595
0.8773738
0.9035199
0.9316847
0.9622919
0.6594021
0.673099
0.6874193
0.7024063
0.7181085
0.7345404
0.751731
0.7697689
0.7887264
0.8086877
0.8304467
0.8534464
0.8779865
0.9042874
0.9326519
0.9641426
0.6458224
0.6589478
0.6726587
0.6869944
0.7019985
0.7176816
0.7340678
0.7512368
0.7692515
0.788184
0.8087786
0.8305099
0.853646
0.8783657
0.9048948
0.9337967
0.9654576
0.6324683
0.6450426
0.6581671
0.6718776
0.6862134
0.7011818
0.7168028
0.7331485
0.7502741
0.768242
0.787755
0.808329
0.830217
0.8535886
0.8786493
0.9059171
0.9348896
0.9668283
0.619241
0.6312792
0.6438344
0.6569388
0.670628
0.6849067
0.6997913
0.7153473
0.731623
0.7486727
0.7671526
0.7866023
0.8072752
0.8293847
0.8532691
0.8799303
0.9071814
0.9362505
0.9681843
0.6061763
0.617694
0.6296964
0.6422128
0.6552753
0.668887
0.6830609
0.6978559
0.7133146
0.7294841
0.7469422
0.7651502
0.7842606
0.8043132
0.8253047
0.5937108
0.6047412
0.6162273
0.628196
0.6406763
0.6536699
0.6671871
0.6812816
0.6959911
0.7113572
0.7279038
0.7450783
0.7630117
0.7817444
0.8013148
0.5820274
0.5926093
0.6036213
0.6150881
0.6270362
0.6394661
0.652386
0.6658453
0.6798776
0.6945203
0.7102607
0.7265601
0.74354
0.7612417
0.7797107
0.5711411
0.5813124
0.5918908
0.6028993
0.6143624
0.6262796
0.6386574
0.6515415
0.6649625
0.678954
0.6939751
0.7095075
0.7256647
0.7424846
0.7600093
0.5610109
0.5708059
0.5809879
0.5915777
0.6025985
0.6140487
0.6259338
0.6382963
0.6511641
0.6645676
0.6789427
0.6937912
0.7092195
0.7252615
0.7419545
0.813514
0.834622
0.8569573
0.8805598
0.905053
0.9270897
0.7942618
0.814334
0.8355473
0.858003
0.8817503
0.9063821
0.9287035
0.7766005
0.7957542
0.8159655
0.8373353
0.8599715
0.8838788
0.9087228
0.9316856
0.7603208
0.7786541
0.797972
0.8183662
0.8399429
0.8627614
0.8868571
0.9120644
0.9359701
0.7451536
0.7627442
0.7812555
0.8007705
0.8213853
0.8431577
0.8661663
0.8905465
0.9162061
0.9413021
0.7306438
0.747541
0.7653022
0.7840017
0.8037261
0.8245231
0.8464671
0.8697173
0.8944013
0.9205375
0.9480221
0.7161286
0.7323455
0.7493713
0.7672726
0.786126
0.8059705
0.8268687
0.8489653
0.8723934
0.8973001
0.9247737
0.9533783
0.7016279
0.7171794
0.7334878
0.7506126
0.7686216
0.7875461
0.8074379
0.8284238
0.8506197
0.8741628
0.900097
0.9278123
0.9572936
0.6873123
0.7022214
0.7178393
0.7342192
0.7514215
0.7694709
0.78841
0.8083507
0.829391
0.8516481
0.8760652
0.9020585
0.9300342
0.9601215
0.673296
0.6875898
0.7025483
0.7182193
0.7346568
0.7518799
0.7699239
0.788888
0.8088561
0.829927
0.8529595
0.8773738
0.9035199
0.9316847
0.9622919
0.6596237
0.6733302
0.6876607
0.7026585
0.7183722
0.7348164
0.7520204
0.7700726
0.7890458
0.8090241
0.8307982
0.8538035
0.8783379
0.9046219
0.9329621
0.9644029
0.6462896
0.6594349
0.6731668
0.6875247
0.7025524
0.7182608
0.7346742
0.7518725
0.7699187
0.7888855
0.8095101
0.8312511
0.8543702
0.8790415
0.9054891
0.9342563
0.9657952
0.6332471
0.6458539
0.659013
0.6727599
0.6871345
0.7021444
0.7178098
0.7342032
0.7513801
0.7694034
0.7889682
0.8095662
0.8314344
0.8547193
0.8795976
0.906515
0.9352926
0.9670753
0.620412
0.6324987
0.6451053
0.6582645
0.6720122
0.6863534
0.7013049
0.7169328
0.7332861
0.7504199
0.7689941
0.7885404
0.809287
0.8313771
0.85498
0.8805374
0.9074927
0.9364471
0.9682891
0.6076902
0.61927
0.6313392
0.6439274
0.6570672
0.6707615
0.6850239
0.6999148
0.7154777
0.731761
0.7493829
0.7678992
0.7875417
0.8085001
0.8310745
0.8561721
0.8816993
0.9087081
0.9376393
0.9693827
0.5951166
0.6062034
0.6177498
0.6297829
0.6423321
0.6553991
0.6689946
0.6831734
0.6979736
0.7134378
0.730112
0.7474787
0.7656773
0.7847389
0.8046526
0.5831117
0.5937363
0.6047937
0.6163086
0.6283081
0.6407925
0.6537704
0.6672915
0.6813902
0.6961042
0.7119298
0.7283365
0.7454454
0.7632902
0.7819018
0.5718528
0.5820516
0.5926592
0.6036986
0.6151946
0.6271465
0.6395613
0.6524846
0.6659475
0.6799838
0.6950564
0.7106477
0.7268712
0.7437625
0.7613608
0.5613561
0.5711643
0.5813601
0.5919647
0.603001
0.6144677
0.6263703
0.6387513
0.6516387
0.6650632
0.679462
0.6943366
0.7097934
0.7258659
0.7425908
0.5515832
0.5610332
0.5708518
0.5810587
0.5916753
0.6026994
0.6141356
0.6260237
0.6383892
0.6512602
0.665052
0.6792858
0.6940612
0.7094086
0.7253608
0.7935363
0.8135658
0.8347307
0.8571299
0.8808057
0.905319
0.9273307
0.7752337
0.7943106
0.8144362
0.8357087
0.8582312
0.881995
0.9066032
0.9289446
0.7584162
0.7766468
0.7958509
0.8161177
0.8375497
0.8601997
0.8840832
0.9089449
0.931929
0.7428924
0.7603651
0.7787464
0.798117
0.8185696
0.8401584
0.8629533
0.8870638
0.9122901
0.9362203
0.7284123
0.7451965
0.7628333
0.7813953
0.800966
0.8215918
0.8433413
0.8663636
0.8907603
0.9164415
0.942593
0.7145459
0.7306858
0.7476282
0.7654386
0.7841922
0.8039267
0.8247022
0.8466599
0.8699262
0.8946301
0.9217727
0.9495311
0.7006625
0.7161687
0.7324285
0.749501
0.7674534
0.7863159
0.8061395
0.8270499
0.8491606
0.8726053
0.8984261
0.9260076
0.9551871
0.6867809
0.7016658
0.7172579
0.7336103
0.7507831
0.7688003
0.7877044
0.8076067
0.8286045
0.8508141
0.8751847
0.9011482
0.9291014
0.9591298
0.6730646
0.6873482
0.7022958
0.7179552
0.7343803
0.75159
0.7696196
0.7885679
0.8085189
0.8295708
0.8525859
0.8769923
0.9031405
0.931313
0.9619274
0.6596237
0.6733302
0.6876607
0.7026585
0.7183722
0.7348164
0.7520204
0.7700726
0.7890458
0.8090241
0.8307982
0.8538035
0.8783379
0.9046219
0.9329621
0.9644029
0.6465021
0.6596564
0.6733979
0.6877658
0.7028042
0.7185241
0.7349499
0.7521613
0.7702218
0.789204
0.809842
0.8315871
0.8546992
0.8793514
0.9057688
0.9344879
0.9659737
0.6336954
0.646321
0.6594997
0.6732675
0.6876641
0.7026975
0.7183882
0.7348086
0.7520145
0.7700691
0.7896608
0.8102658
0.8321155
0.8553517
0.8801482
0.9069308
0.9356107
0.9672852
0.62116
0.6332773
0.6459163
0.6591098
0.6728938
0.6872737
0.7022666
0.7179386
0.7343393
0.7515241
0.770145
0.7897112
0.8104357
0.8324398
0.8558666
0.8810914
0.9078615
0.9367085
0.968438
0.6088156
0.6204412
0.6325588
0.6451985
0.6583933
0.6721461
0.686471
0.7014289
0.7170638
0.7334247
0.7511332
0.7697374
0.789445
0.8103792
0.8326817
0.85674
0.8819899
0.9088933
0.9377772
0.9694518
0.5965725
0.6077181
0.6193275
0.6314283
0.6440504
0.6571949
0.6708734
0.6851418
0.7000392
0.7156091
0.732436
0.7500913
0.7687889
0.7886991
0.810092
0.8337985
0.8578207
0.8831058
0.9099568
0.9387681
0.9703054
0.5844645
0.5951426
0.606257
0.6178327
0.6298972
0.6424507
0.6555021
0.6691022
0.6832857
0.6980911
0.7140357
0.7306221
0.7479789
0.7661302
0.7850595
0.5728969
0.5831362
0.5937867
0.6048717
0.6164162
0.6284195
0.6408888
0.6538703
0.6673954
0.6814982
0.6966504
0.7123419
0.7286856