/*--------------------------------*- C++ -*----------------------------------*\
| =========                 |                                                 |
| \\      /  F ield         | OpenFOAM: The Open Source CFD Toolbox           |
|  \\    /   O peration     | Version:  2306                                  |
|   \\  /    A nd           | Website:  www.openfoam.com                      |
|    \\/     M anipulation  |                                                 |
\*---------------------------------------------------------------------------*/
FoamFile
{
    version     2.0;
    format      ascii;
    arch        "LSB;label=32;scalar=64";
    class       volScalarField;
    location    "0.6/fuel";
    object      X.H2O;
}
// * * * * * * * * * * * * * * * * * * * * * * * * * * * * * * * * * * * * * //

dimensions      [0 0 0 0 0 0 0];

internalField   nonuniform List<scalar> 
16000
(
0.07394982
0.0725868
0.09562876
0.07387217
0.06987121
0.09457076
0.07250855
0.1198179
0.09555814
0.0737202
0.06588326
0.09246455
0.06979164
0.118876
0.09449976
0.0723554
0.143219
0.1197534
0.09541975
0.07349628
0.0609108
0.08937294
0.06580141
0.1170004
0.09239272
0.06963594
0.1423473
0.1188113
0.09436062
0.07212977
0.1654334
0.1431595
0.1196269
0.09521562
0.07320182
0.05578455
0.08551531
0.06082522
0.1142443
0.08929972
0.06564131
0.1406119
0.116935
0.092252
0.06940659
0.1646173
0.1422876
0.1186842
0.0941554
0.07183308
0.186486
0.165378
0.1430427
0.1194402
0.09494699
0.07291032
0.05203373
0.0815228
0.05569383
0.1108002
0.0854398
0.06065783
0.1380621
0.1141779
0.08915628
0.06540551
0.1629933
0.1405517
0.1168068
0.09204446
0.06910504
0.1857179
0.1645618
0.1421703
0.1184967
0.09388537
0.07153938
0.2064637
0.1864342
0.1652693
0.1428701
0.1191943
0.09468095
0.07266925
0.04969147
0.07856184
0.0519409
0.1072292
0.08144412
0.05551636
0.1348757
0.1107319
0.08529187
0.06041131
0.1606075
0.138001
0.1140475
0.08894478
0.06509552
0.1841897
0.1629373
0.1404334
0.1166174
0.09177139
0.06880656
0.2057382
0.185666
0.1644527
0.141997
0.1182497
0.09361793
0.07129648
0.2254536
0.2064151
0.1863324
0.1651085
0.1426427
0.1189507
0.09446093
0.07243003
0.04837383
0.07668016
0.04959797
0.1045756
0.07848219
0.05175937
0.1315714
0.1071584
0.08128994
0.05525494
0.1576266
0.134813
0.110598
0.08507372
0.06008723
0.1819452
0.1605507
0.137881
0.1138551
0.08866649
0.0647887
0.204295
0.1841374
0.1628273
0.1402587
0.1163681
0.09150097
0.06855958
0.2247663
0.2056894
0.1855638
0.1642913
0.1417688
0.118005
0.09339676
0.07105544
0.2435336
0.2254077
0.2063194
0.1861818
0.1648966
0.1424173
0.1187492
0.09424261
0.07219267
0.0477847
0.07560317
0.04828009
0.1028848
0.07660046
0.04941519
0.1291148
0.1045042
0.07832613
0.05149202
0.1545359
0.1315066
0.1070195
0.08106252
0.05491115
0.1791415
0.1575685
0.13469
0.1104004
0.08478669
0.05976644
0.2021757
0.1818922
0.1604392
0.1377037
0.1136018
0.08839092
0.06453439
0.2233995
0.2042458
0.1840345
0.1626647
0.1400285
0.1161212
0.09127724
0.06831438
0.2428812
0.2247203
0.2055934
0.1854127
0.1640786
0.1415425
0.1178026
0.09317727
0.07081625
0.2607731
0.2434902
0.2253174
0.2061777
0.1859832
0.1646865
0.1422309
0.1185493
0.09402598
0.07195716
0.0477847
0.0751155
0.04769087
0.1019144
0.07552358
0.04809689
0.127548
0.1028135
0.07644433
0.0491461
0.1522376
0.1290495
0.104364
0.07809597
0.05114051
0.1762349
0.1544759
0.1313792
0.1068144
0.0807632
0.05457076
0.1995287
0.1790873
0.1574543
0.1345082
0.1101401
0.08450244
0.05949918
0.2213928
0.2021259
0.181788
0.1602744
0.1374701
0.1133508
0.08816259
0.06428145
0.2415838
0.2233532
0.2041491
0.1838823
0.1624503
0.1398003
0.1159168
0.09105513
0.06807096
0.2601525
0.2428377
0.2246297
0.2054512
0.1852134
0.1638677
0.1413553
0.1176018
0.09295948
0.07057892
0.277233
0.260732
0.2434048
0.2251836
0.2059908
0.1857862
0.1645127
0.1420459
0.1183509
0.09381104
0.07082571
0.04837383
0.0751155
0.04769087
0.1014741
0.07503597
0.04750752
0.1266479
0.1018433
0.07536767
0.04782724
0.1507711
0.1274829
0.1026736
0.0762141
0.04879238
0.1740733
0.1521772
0.1289212
0.1041572
0.07779308
0.05079252
0.196785
0.1761789
0.1543578
0.1311909
0.1065442
0.0804667
0.05428457
0.2188867
0.1994779
0.1789806
0.1572855
0.1342686
0.1098823
0.08426591
0.05923199
0.2396792
0.2213459
0.202028
0.1816338
0.1600571
0.1372386
0.1131429
0.0879356
0.06402989
0.2589187
0.2415401
0.223262
0.204006
0.1836815
0.1622378
0.1396115
0.115714
0.09083466
0.06782932
0.2766418
0.2601113
0.242752
0.2244956
0.2052637
0.1850158
0.1636933
0.1411696
0.1174025
0.09274339
0.06943876
0.2929677
0.277194
0.2606509
0.2432782
0.2250071
0.2058053
0.1856233
0.1643402
0.1418624
0.1181541
0.09277757
0.07005499
0.04969147
0.07560317
0.04828009
0.1014741
0.07503597
0.04750752
0.1262391
0.1014031
0.07488021
0.04723766
0.1499279
0.126583
0.1017038
0.0751378
0.04747283
0.1726935
0.1507109
0.127355
0.1024671
0.07591117
0.04844224
0.1947445
0.174017
0.1520584
0.1287316
0.1038847
0.07749307
0.0504999
0.2162894
0.1967325
0.1760687
0.1541832
0.1309427
0.1062765
0.08021804
0.05399586
0.2373011
0.2188388
0.1993777
0.1788228
0.157063
0.1340312
0.1096677
0.08402975
0.0589649
0.2571076
0.2396349
0.2212536
0.201883
0.1814304
0.1598416
0.1370467
0.1129362
0.08770994
0.06377973
0.2754665
0.2588772
0.2414538
0.223127
0.2038172
0.1834824
0.162062
0.1394241
0.1155126
0.09061582
0.06666811
0.2924036
0.2766027
0.26003
0.242625
0.2243185
0.2050776
0.1848523
0.1635202
0.1409854
0.1172048
0.09170435
0.0686587
0.3080253
0.2929305
0.277117
0.2605308
0.2431111
0.2248319
0.2056519
0.1854616
0.1641692
0.1416803
0.1172072
0.09207471
0.06947493
0.05203373
0.07668016
0.04959797
0.1019144
0.07552358
0.04809689
0.1262391
0.1014031
0.07488021
0.04723766
0.1495449
0.1261743
0.1012639
0.07465055
0.04688301
0.1719
0.149868
0.1264555
0.101498
0.07483536
0.04712204
0.1934417
0.1726375
0.1505925
0.127166
0.1021952
0.07561116
0.04814842
0.2143577
0.1946917
0.1739062
0.1518827
0.1284817
0.1036147
0.07724141
0.05020467
0.2348365
0.2162399
0.1966291
0.1759055
0.1539529
0.1306967
0.106052
0.07996779
0.05370459
0.2548464
0.2372558
0.2187445
0.1992295
0.1786147
0.1568423
0.1338337
0.1094535
0.08379395
0.05869791
0.2737413
0.2570656
0.2395477
0.2211169
0.2016918
0.1812287
0.1596631
0.136856
0.1127307
0.08748563
0.06257582
0.2912824
0.2754271
0.2587955
0.241326
0.2229487
0.2036298
0.1833177
0.1618874
0.1392381
0.1153128
0.08956329
0.06586054
0.3074864
0.2923664
0.2765255
0.2599096
0.2424574
0.2241428
0.2049238
0.1846901
0.1633485
0.1408026
0.1162536
0.09099526
0.06806884
0.3224494
0.3079899
0.2928572
0.2770028
0.2603722
0.2429451
0.224687
0.2054997
0.1853013
0.1639994
0.140804
0.1165638
0.09154612
0.06908708
0.05578455
0.07856184
0.0519409
0.1028848
0.07660046
0.04941519
0.1266479
0.1018433
0.07536767
0.04782724
0.1495449
0.1261743
0.1012639
0.07465055
0.04688301
0.1715393
0.149485
0.1260471
0.1010583
0.07434841
0.04653198
0.1926923
0.1718442
0.1497501
0.1262672
0.1012269
0.07453586
0.04682813
0.2131242
0.1933892
0.1725271
0.1504175
0.126917
0.1019258
0.07535993
0.04785257
0.2330036
0.214308
0.1945878
0.1737422
0.1516511
0.128234
0.1033882
0.07698811
0.04990682
0.2525032
0.2347898
0.2161425
0.196476
0.1756904
0.1537245
0.1304904
0.105826
0.07971594
0.05341075
0.2715877
0.2548035
0.2371667
0.2186047
0.199034
0.1784082
0.1566587
0.1336364
0.1092397
0.08355852
0.05740696
0.2896367
0.2737015
0.2569829
0.2394183
0.2209364
0.2015021
0.1810615
0.1594856
0.1366664
0.1125264
0.08640536
0.06169241
0.3064154
0.2912449
0.2753494
0.2586742
0.2411573
0.2227718
0.2034748
0.1831541
0.1617141
0.1390535
0.1143508
0.0888355
0.06523856
0.321934
0.3074509
0.2922929
0.276411
0.2597505
0.242291
0.2239974
0.2047711
0.1845291
0.1631781
0.1399225
0.1156051
0.09045997
0.06767268
0.3362792
0.3224156
0.30792
0.2927485
0.276852
0.2602147
0.2428079
0.2245433
0.2053487
0.1851421
0.1631821
0.1402089
0.11608
0.09119289
0.06889277
0.0609108
0.0815228
0.05569383
0.1045756
0.07848219
0.05175937
0.127548
0.1028135
0.07644433
0.0491461
0.1499279
0.126583
0.1017038
0.0751378
0.04747283
0.1715393
0.149485
0.1260471
0.1010583
0.07434841
0.04653198
0.1923516
0.1714836
0.1493674
0.1258592
0.1007877
0.07404921
0.0462381
0.2124145
0.19264
0.1717343
0.1495758
0.1260191
0.1009583
0.0742854
0.04653265
0.2318331
0.2130748
0.1932858
0.1723639
0.1501868
0.1266701
0.1017002
0.0751075
0.0475547
0.2507606
0.2329567
0.2142102
0.194434
0.1735259
0.1514214
0.1280263
0.1031602
0.07673315
0.04960635
0.2693562
0.252459
0.2346978
0.2159983
0.1962739
0.1754769
0.1535329
0.1302827
0.1055987
0.07946246
0.05197789
0.2875825
0.271547
0.254719
0.2370346
0.2184203
0.1988399
0.1782365
0.1564753
0.1334395
0.1090262
0.08242009
0.0563173
0.3048436
0.2895988
0.2736229
0.2568603
0.2392476
0.2207574
0.2013449
0.1808954
0.1593092
0.136478
0.111542
0.08562456
0.0609686
0.3209098
0.3063797
0.291171
0.2752342
0.2585142
0.2409898
0.2226254
0.2033209
0.1829918
0.1615421
0.1381643
0.1136867
0.08827781
0.06481323
0.3357858
0.3219001
0.3073809
0.2921839
0.2762597
0.2595925
0.2421533
0.2238532
0.2046195
0.1843694
0.1623576
0.139323
0.1151157
0.090101
0.06747356
0.3495504
0.3362469
0.3223489
0.3078163
0.2926049
0.2767022
0.2600844
0.2426718
0.2244007
0.2051989
0.1843757
0.1626274
0.1397615
0.1157568
0.09101601
0.06588326
0.08551531
0.06082522
0.1072292
0.08144412
0.05551636
0.1291148
0.1045042
0.07832613
0.05149202
0.1507711
0.1274829
0.1026736
0.0762141
0.04879238
0.1719
0.149868
0.1264555
0.101498
0.07483536
0.04712204
0.1923516
0.1714836
0.1493674
0.1258592
0.1007877
0.07404921
0.0462381
0.2120918
0.1922994
0.171374
0.1491935
0.1256116
0.1005196
0.07379916
0.04594286
0.2311595
0.2123653
0.192537
0.1715717
0.1493461
0.1257732
0.1007337
0.07403408
0.04623561
0.2496477
0.2317864
0.2129774
0.1931326
0.1721485
0.149958
0.1264634
0.1014736
0.07485386
0.04725481
0.2676966
0.2507162
0.2328643
0.2140653
0.194231
0.1733113
0.1512287
0.1278171
0.1029308
0.07647653
0.04814175
0.2854541
0.2693142
0.2523718
0.2345614
0.2158078
0.1960733
0.1752978
0.1533401
0.1300738
0.1053699
0.0782273
0.05046889
0.3028816
0.2875438
0.2714668
0.2545938
0.2368601
0.2182373
0.1986784
0.1780649
0.1562922
0.1332429
0.107993
0.08149167
0.05526938
0.3194067
0.3048075
0.2895241
0.2735064
0.2566983
0.2390781
0.220609
0.2011886
0.1807302
0.1591338
0.1355692
0.1108321
0.08499418
0.06043991
0.3348053
0.3208757
0.3063092
0.2910613
0.2750821
0.2583552
0.2408512
0.2224801
0.2031681
0.1828307
0.1607136
0.1375509
0.1131781
0.08789825
0.06459644
0.3490775
0.3357535
0.3218333
0.3072769
0.2920398
0.2761095
0.2594619
0.2420168
0.2237101
0.2044692
0.1836001
0.1617989
0.1388706
0.1147876
0.08992077
0.3622953
0.3495195
0.3361832
0.3222499
0.3076793
0.2924621
0.2765783
0.2599552
0.2425367
0.2242592
0.2044772
0.1838558
0.1622104
0.1394626
0.115595
0.06987121
0.08937294
0.06580141
0.1108002
0.0854398
0.06065783
0.1315714
0.1071584
0.08128994
0.05525494
0.1522376
0.1290495
0.104364
0.07809597
0.05114051
0.1726935
0.1507109
0.127355
0.1024671
0.07591117
0.04844224
0.1926923
0.1718442
0.1497501
0.1262672
0.1012269
0.07453586
0.04682813
0.2120918
0.1922994
0.171374
0.1491935
0.1256116
0.1005196
0.07379916
0.04594286
0.2308532
0.2120427
0.1921966
0.1712118
0.1489642
0.1253662
0.1002955
0.07354841
0.04564627
0.2490071
0.231113
0.2122684
0.1923846
0.1713573
0.1491182
0.1255675
0.1005083
0.07378189
0.045937
0.2666367
0.2496035
0.2316945
0.2128332
0.1929306
0.1719349
0.1497664
0.1262557
0.1012458
0.07459902
0.04579613
0.2838714
0.2676545
0.2506287
0.2327274
0.213874
0.1940295
0.1731313
0.1510347
0.1276066
0.1026999
0.07522628
0.04662169
0.300849
0.2854143
0.2692315
0.2522426
0.2343813
0.2156186
0.1959051
0.1751175
0.153146
0.1298635
0.104254
0.07699438
0.04860273
0.3175307
0.3028448
0.2874675
0.2713478
0.2544284
0.2366869
0.2180849
0.1985172
0.1778936
0.1561094
0.1322908
0.1071537
0.08062585
0.05434296
0.3333665
0.3193723
0.3047362
0.2894132
0.2733525
0.2565376
0.2389377
0.2204615
0.2010333
0.1805659
0.1582877
0.1349145
0.1102599
0.08454014
0.06015373
0.348138
0.3347728
0.3208085
0.3062047
0.2909164
0.2749309
0.2582237
0.2407136
0.2223359
0.2030165
0.1820542
0.1601422
0.1370812
0.1128321
0.08770546
0.3618418
0.3490466
0.3356896
0.321734
0.3071395
0.2918967
0.2759853
0.2593323
0.2418812
0.2235682
0.2037449
0.1830765
0.1613773
0.1385673
0.1146229
0.3745437
0.3622658
0.3494585
0.3360886
0.322119
0.3075431
0.2923441
0.2764554
0.259827
0.2424027
0.2235774
0.2039878
0.1834649
0.1619318
0.139313
0.0725868
0.09246455
0.06979164
0.1142443
0.08929972
0.06564131
0.1348757
0.1107319
0.08529187
0.06041131
0.1545359
0.1315066
0.1070195
0.08106252
0.05491115
0.1740733
0.1521772
0.1289212
0.1041572
0.07779308
0.05079252
0.1934417
0.1726375
0.1505925
0.127166
0.1021952
0.07561116
0.04814842
0.2124145
0.19264
0.1717343
0.1495758
0.1260191
0.1009583
0.0742854
0.04653265
0.2308532
0.2120427
0.1921966
0.1712118
0.1489642
0.1253662
0.1002955
0.07354841
0.04564627
0.2487158
0.2308068
0.211946
0.1920446
0.1709979
0.1487369
0.125161
0.1000708
0.07329695
0.04534833
0.2660266
0.2489632
0.2310215
0.2121248
0.1921834
0.1711447
0.1489276
0.1253611
0.1002822
0.07352883
0.04448676
0.2828604
0.2665948
0.2495165
0.2315583
0.2126429
0.1927301
0.171756
0.1495738
0.1260469
0.101017
0.0733596
0.0443517
0.2993375
0.2838313
0.2675715
0.250499
0.2325466
0.2136841
0.1938605
0.1729501
0.1508394
0.1273947
0.1015739
0.07399239
0.04481289
0.3155873
0.300811
0.2853356
0.2691087
0.2520718
0.2342024
0.21546
0.1957357
0.1749361
0.1529507
0.128837
0.1031453
0.07552723
0.04623873
0.3315708
0.3174956
0.3027721
0.2873543
0.2711907
0.2542641
0.2365428
0.2179328
0.1983562
0.1777226
0.1552238
0.1315178
0.1063731
0.07988119
0.0537074
0.3467593
0.3333336
0.3193043
0.3046305
0.2892667
0.2731997
0.2564043
0.2387981
0.2203148
0.2008788
0.1797734
0.1576782
0.1343867
0.1098483
0.08429707
0.3609408
0.3481069
0.3347085
0.3207086
0.3060665
0.2907724
0.2748059
0.2580932
0.2405771
0.2221928
0.2022857
0.1815189
0.1597047
0.1367617
0.1126565
0.3741084
0.3618122
0.3489855
0.3355947
0.3216028
0.307003
0.2917784
0.275862
0.2592037
0.2417468
0.222884
0.2032521
0.1826814
0.1610947
0.1384151
0.3863228
0.3745154
0.3622073
0.3493679
0.3359634
0.321989
0.3074306
0.292227
0.2763335
0.2596998
0.2417568
0.2231151
0.2036198
0.1832038
0.1617924
0.07394982
0.09457076
0.07250855
0.1170004
0.09239272
0.06963594
0.1380621
0.1141779
0.08915628
0.06540551
0.1576266
0.134813
0.110598
0.08507372
0.06008723
0.1762349
0.1544759
0.1313792
0.1068144
0.0807632
0.05457076
0.1947445
0.174017
0.1520584
0.1287316
0.1038847
0.07749307
0.0504999
0.2131242
0.1933892
0.1725271
0.1504175
0.126917
0.1019258
0.07535993
0.04785257
0.2311595
0.2123653
0.192537
0.1715717
0.1493461
0.1257732
0.1007337
0.07403408
0.04623561
0.2487158
0.2308068
0.211946
0.1920446
0.1709979
0.1487369
0.125161
0.1000708
0.07329695
0.04534833
0.2657491
0.248672
0.2307155
0.2118028
0.1918439
0.1707857
0.1485468
0.1249553
0.09984542
0.07304479
0.04390236
0.2822785
0.2659849
0.2488765
0.2308859
0.2119354
0.1919838
0.1709668
0.1487364
0.125154
0.1000553
0.07229974
0.043098
0.2983721
0.2828206
0.2665122
0.2493874
0.2313784
0.2124539
0.1925621
0.1715762
0.1493803
0.1258372
0.09990304
0.07218768
0.04270645
0.3141421
0.2992994
0.2837524
0.2674483
0.2503276
0.232367
0.2135247
0.1936903
0.1727676
0.1506428
0.1263606
0.1004661
0.07257553
0.04269853
0.3297106
0.3155511
0.3007361
0.2852188
0.2689465
0.2519022
0.2340524
0.2153003
0.1955653
0.1747534
0.1519968
0.1278168
0.1018295
0.07372035
0.04310942
0.3450389
0.3315372
0.3174262
0.3026642
0.2872047
0.2710346
0.2541274
0.2363988
0.2177809
0.1981954
0.1768936
0.1545048
0.1307988
0.1057035
0.07938203
0.3596186
0.3467279
0.3332686
0.3192034
0.3044908
0.2891211
0.273073
0.2562719
0.2386593
0.2201691
0.2001332
0.1792027
0.1571869
0.1340071
0.1096282
0.3732436
0.360911
0.3480454
0.3346131
0.3205767
0.3059292
0.2906533
0.2746817
0.2579636
0.2404415
0.2215025
0.201782
0.181109
0.1594072
0.1365995
0.3859046
0.37408
0.3617536
0.3488947
0.3354692
0.3214724
0.3068901
0.2916609
0.2757397
0.259076
0.2410988
0.2224185
0.2028803
0.1824166
0.1609529
0.3976574
0.3862956
0.3744594
0.3621206
0.3492481
0.335839
0.3218814
0.3073189
0.2921109
0.2762125
0.2590866
0.241319
0.2227676
0.2033741
0.183073
0.09562876
0.07387217
0.118876
0.09449976
0.0723554
0.1406119
0.116935
0.092252
0.06940659
0.1606075
0.138001
0.1140475
0.08894478
0.06509552
0.1791415
0.1575685
0.13469
0.1104004
0.08478669
0.05976644
0.196785
0.1761789
0.1543578
0.1311909
0.1065442
0.0804667
0.05428457
0.2143577
0.1946917
0.1739062
0.1518827
0.1284817
0.1036147
0.07724141
0.05020467
0.2318331
0.2130748
0.1932858
0.1723639
0.1501868
0.1266701
0.1017002
0.0751075
0.0475547
0.2490071
0.231113
0.2122684
0.1923846
0.1713573
0.1491182
0.1255675
0.1005083
0.07378189
0.045937
0.2657491
0.248672
0.2307155
0.2118028
0.1918439
0.1707857
0.1485468
0.1249553
0.09984542
0.07304479
0.04390236
0.2820139
0.2657076
0.2485856
0.2305803
0.2116138
0.1916448
0.1706083
0.1483562
0.124749
0.09961945
0.07182077
0.04253915
0.2978163
0.2822389
0.2659027
0.2487481
0.2307069
0.2117473
0.1918169
0.1707882
0.1485445
0.1249462
0.09895196
0.07117267
0.04155857
0.3132191
0.2983342
0.2827421
0.2663897
0.2492169
0.2311997
0.2122956
0.1923933
0.1713955
0.1491859
0.1248153
0.09885177
0.07089864
0.04087024
0.3283274
0.3141058
0.2992242
0.2836352
0.2672855
0.2501574
0.2322163
0.2133643
0.1935189
0.1725839
0.1496828
0.1253425
0.09919581
0.07096337
0.04027358
0.3432567
0.329676
0.3154795
0.3006248
0.2850644
0.2687854
0.2517599
0.2339013
0.2151395
0.1953937
0.1738611
0.151048
0.1266053
0.1002125
0.07137218
0.03805298
0.3579687
0.3450068
0.331471
0.3173232
0.3025216
0.2870561
0.2709046
0.2539909
0.2362551
0.2176292
0.1974158
0.1762205
0.1538357
0.1301818
0.1052554
0.3719746
0.3595885
0.3466658
0.3331722
0.31907
0.304352
0.2890005
0.2729471
0.2561402
0.2385213
0.2194651
0.1995963
0.1787426
0.1568335
0.133804
0.3850739
0.373215
0.3608521
0.3479541
0.3344869
0.3204455
0.3058156
0.2905351
0.2745585
0.2578349
0.2397879
0.221027
0.2013963
0.1808302
0.1592561
0.3972554
0.3858774
0.3740239
0.3616667
0.3487746
0.3353445
0.3213646
0.3067781
0.2915444
0.2756183
0.2584609
0.240658
0.2220674
0.202631
0.1822837
0.4085706
0.3976313
0.3862419
0.3743762
0.3620058
0.3491291
0.3357362
0.3217747
0.307208
0.2919956
0.2756293
0.2586711
0.2409899
0.2225354
0.203251
0.1198179
0.09555814
0.0737202
0.1423473
0.1188113
0.09436062
0.07212977
0.1629933
0.1405517
0.1168068
0.09204446
0.06910504
0.1819452
0.1605507
0.137881
0.1138551
0.08866649
0.0647887
0.1995287
0.1790873
0.1574543
0.1345082
0.1101401
0.08450244
0.05949918
0.2162894
0.1967325
0.1760687
0.1541832
0.1309427
0.1062765
0.08021804
0.05399586
0.2330036
0.214308
0.1945878
0.1737422
0.1516511
0.128234
0.1033882
0.07698811
0.04990682
0.2496477
0.2317864
0.2129774
0.1931326
0.1721485
0.149958
0.1264634
0.1014736
0.07485386
0.04725481
0.2660266
0.2489632
0.2310215
0.2121248
0.1921834
0.1711447
0.1489276
0.1253611
0.1002822
0.07352883
0.04448676
0.2820139
0.2657076
0.2485856
0.2305803
0.2116138
0.1916448
0.1706083
0.1483562
0.124749
0.09961945
0.07182077
0.04253915
0.2975636
0.2819743
0.2656256
0.2484574
0.2304017
0.2114262
0.1914783
0.1704304
0.1481651
0.1245421
0.09852134
0.07071427
0.0410465
0.3126877
0.2977786
0.2821607
0.2657808
0.2485785
0.2305291
0.21159
0.1916493
0.170609
0.1483519
0.1239348
0.0979415
0.06996581
0.03987846
0.327444
0.3131829
0.2982594
0.2826255
0.2662278
0.2490476
0.2310501
0.2121366
0.1922237
0.1712139
0.1482379
0.1238501
0.09769608
0.06950031
0.03886322
0.3419316
0.3282927
0.314034
0.2991125
0.2834803
0.2671238
0.2500145
0.2320646
0.2132027
0.1933464
0.1716865
0.1487366
0.1241738
0.09775179
0.06915266
0.03716417
0.3562598
0.3432236
0.3296077
0.3153733
0.3004776
0.284911
0.2686502
0.2516167
0.2337492
0.2149777
0.1945549
0.1729729
0.1499201
0.1251158
0.09811417
0.06759776
0.03535437
0.3703911
0.357938
0.3449434
0.3313725
0.3171871
0.3023798
0.2869324
0.2707749
0.2538545
0.2361115
0.2168935
0.1967828
0.1755939
0.1532613
0.129769
0.383855
0.3719457
0.359529
0.3465735
0.3330447
0.3189374
0.304237
0.2888806
0.2728219
0.2560092
0.2378549
0.2189584
0.1991635
0.1784116
0.1566444
0.3964569
0.3850465
0.3731586
0.3607646
0.3478333
0.3343615
0.320337
0.3057028
0.2904177
0.2744362
0.2572146
0.2393376
0.2206628
0.201134
0.1806887
0.408184
0.3972293
0.3858235
0.3739405
0.3615516
0.3486552
0.3352414
0.3212576
0.3066669
0.2914288
0.2750332
0.2580425
0.2403255
0.221832
0.2025059
0.4190838
0.4085455
0.3975797
0.386162
0.3742661
0.3618917
0.3490306
0.3356341
0.3216688
0.3070981
0.29144
0.2752341
0.2583587
0.2407701
0.2224192
0.143219
0.1197534
0.09541975
0.07349628
0.1646173
0.1422876
0.1186842
0.0941554
0.07183308
0.1841897
0.1629373
0.1404334
0.1166174
0.09177139
0.06880656
0.2021757
0.1818922
0.1604392
0.1377037
0.1136018
0.08839092
0.06453439
0.2188867
0.1994779
0.1789806
0.1572855
0.1342686
0.1098823
0.08426591
0.05923199
0.2348365
0.2162399
0.1966291
0.1759055
0.1539529
0.1306967
0.106052
0.07996779
0.05370459
0.2507606
0.2329567
0.2142102
0.194434
0.1735259
0.1514214
0.1280263
0.1031602
0.07673315
0.04960635
0.2666367
0.2496035
0.2316945
0.2128332
0.1929306
0.1719349
0.1497664
0.1262557
0.1012458
0.07459902
0.04579613
0.2822785
0.2659849
0.2488765
0.2308859
0.2119354
0.1919838
0.1709668
0.1487364
0.125154
0.1000553
0.07229974
0.043098
0.2975636
0.2819743
0.2656256
0.2484574
0.2304017
0.2114262
0.1914783
0.1704304
0.1481651
0.1245421
0.09852134
0.07071427
0.0410465
0.312446
0.2975259
0.2818964
0.2655039
0.2482882
0.2302243
0.2112694
0.1913114
0.170252
0.1479734
0.1235358
0.0975296
0.06954366
0.03943241
0.3269354
0.3126518
0.2977042
0.2820448
0.2656197
0.24841
0.2303804
0.2114321
0.1914811
0.1704292
0.1474141
0.1230077
0.09685946
0.06868701
0.03807265
0.3410852
0.3274095
0.3131116
0.2981483
0.2824715
0.2660669
0.2489058
0.2308997
0.2119767
0.1920532
0.1703282
0.1473417
0.1227877
0.09644267
0.06800849
0.03638304
0.3549892
0.3418984
0.3282242
0.3139275
0.2989649
0.2833264
0.2669881
0.2498707
0.2319118
0.2130401
0.1925033
0.1708013
0.1476494
0.1228442
0.09613067
0.06686701
0.03497881
0.3687511
0.3562281
0.3431583
0.3295062
0.3152329
0.3003314
0.2847823
0.2685141
0.2514725
0.2335961
0.2141864
0.1937195
0.1719161
0.1485327
0.1231824
0.09473902
0.06545106
0.03335564
0.3823342
0.3703617
0.3578773
0.3448492
0.3312424
0.3170518
0.3022619
0.2868088
0.2706453
0.2537184
0.2354153
0.2162961
0.1961933
0.1750558
0.1528768
0.3952854
0.3838274
0.3718887
0.3594407
0.3464515
0.3329179
0.3188276
0.3041226
0.2887613
0.2726974
0.2553768
0.2373752
0.2185497
0.198852
0.1782344
0.4074159
0.3964306
0.3849924
0.3730747
0.3606489
0.3477133
0.3342577
0.3202293
0.3055908
0.2903012
0.2738463
0.2567872
0.2389928
0.2204151
0.2010008
0.4187118
0.4081589
0.3971776
0.3857435
0.3738302
0.3614372
0.3485565
0.335139
0.3211514
0.3065567
0.2908714
0.2746354
0.2577269
0.2401026
0.2217139
0.4292172
0.4190598
0.408496
0.397503
0.3860564
0.3741567
0.3617973
0.3489329
0.3355328
0.3215638
0.3065679
0.2910635
0.274937
0.25815
0.24066
0.1654334
0.1431595
0.1196269
0.09521562
0.07320182
0.1857179
0.1645618
0.1421703
0.1184967
0.09388537
0.07153938
0.204295
0.1841374
0.1628273
0.1402587
0.1163681
0.09150097
0.06855958
0.2213928
0.2021259
0.181788
0.1602744
0.1374701
0.1133508
0.08816259
0.06428145
0.2373011
0.2188388
0.1993777
0.1788228
0.157063
0.1340312
0.1096677
0.08402975
0.0589649
0.2525032
0.2347898
0.2161425
0.196476
0.1756904
0.1537245
0.1304904
0.105826
0.07971594
0.05341075
0.2676966
0.2507162
0.2328643
0.2140653
0.194231
0.1733113
0.1512287
0.1278171
0.1029308
0.07647653
0.04814175
0.2828604
0.2665948
0.2495165
0.2315583
0.2126429
0.1927301
0.171756
0.1495738
0.1260469
0.101017
0.0733596
0.0443517
0.2978163
0.2822389
0.2659027
0.2487481
0.2307069
0.2117473
0.1918169
0.1707882
0.1485445
0.1249462
0.09895196
0.07117267
0.04155857
0.312446
0.2975259
0.2818964
0.2655039
0.2482882
0.2302243
0.2112694
0.1913114
0.170252
0.1479734
0.1235358
0.0975296
0.06954366
0.03943241
0.326704
0.3124102
0.2974517
0.2817807
0.2653432
0.2481201
0.2300761
0.211112
0.1911439
0.170073
0.1470405
0.1226262
0.09648005
0.06831528
0.03770806
0.3405979
0.326901
0.3125807
0.2975937
0.2818915
0.2654596
0.248269
0.2302311
0.2112736
0.1913123
0.1695533
0.1465536
0.1220135
0.09571257
0.06734805
0.03585737
0.3541776
0.3410522
0.3273413
0.3130056
0.2980015
0.2823184
0.2659322
0.2487632
0.2307485
0.211816
0.1912214
0.1694901
0.146354
0.1216343
0.09510517
0.06620328
0.03454241
0.3675317
0.3549574
0.3418329
0.3281224
0.3137866
0.2988182
0.2831972
0.2668515
0.2497259
0.231758
0.212245
0.191671
0.169783
0.1464114
0.1213507
0.09408293
0.06511043
0.03317173
0.380759
0.3687208
0.3561656
0.3430612
0.329372
0.3150933
0.3002087
0.2846527
0.268377
0.2513273
0.2328474
0.2133977
0.1927248
0.1706153
0.1467309
0.1200697
0.0928186
0.06374945
0.03181565
0.3938237
0.382306
0.3703036
0.3577872
0.3447247
0.331113
0.3169391
0.3021441
0.2866854
0.2705159
0.2530578
0.2348498
0.2157394
0.1956868
0.1746953
0.4062892
0.3952588
0.3837727
0.371804
0.3593237
0.3463301
0.3328129
0.3187184
0.3040089
0.2886428
0.2720962
0.2549217
0.2369883
0.2182556
0.1986852
0.4179726
0.4073907
0.3963787
0.3849119
0.3729638
0.3605339
0.347614
0.3341547
0.3201224
0.3054797
0.2897393
0.2734399
0.25646
0.2387583
0.2202893
0.4288589
0.4186876
0.4081092
0.3971007
0.3856376
0.3737204
0.3613426
0.3484585
0.3350375
0.321046
0.3060249
0.2904925
0.2743353
0.2575154
0.2399907
0.4389891
0.4291941
0.4190121
0.4084223
0.3974015
0.3859513
0.3740662
0.3617037
0.3488359
0.3354324
0.3210573
0.3062088
0.2907805
0.2747385
0.2580455
0.186486
0.165378
0.1430427
0.1194402
0.09494699
0.07291032
0.2057382
0.185666
0.1644527
0.141997
0.1182497
0.09361793
0.07129648
0.2233995
0.2042458
0.1840345
0.1626647
0.1400285
0.1161212
0.09127724
0.06831438
0.2396792
0.2213459
0.202028
0.1816338
0.1600571
0.1372386
0.1131429
0.0879356
0.06402989
0.2548464
0.2372558
0.2187445
0.1992295
0.1786147
0.1568423
0.1338337
0.1094535
0.08379395
0.05869791
0.2693562
0.252459
0.2346978
0.2159983
0.1962739
0.1754769
0.1535329
0.1302827
0.1055987
0.07946246
0.05197789
0.2838714
0.2676545
0.2506287
0.2327274
0.213874
0.1940295
0.1731313
0.1510347
0.1276066
0.1026999
0.07522628
0.04662169
0.2983721
0.2828206
0.2665122
0.2493874
0.2313784
0.2124539
0.1925621
0.1715762
0.1493803
0.1258372
0.09990304
0.07218768
0.04270645
0.3126877
0.2977786
0.2821607
0.2657808
0.2485785
0.2305291
0.21159
0.1916493
0.170609
0.1483519
0.1239348
0.0979415
0.06996581
0.03987846
0.326704
0.3124102
0.2974517
0.2817807
0.2653432
0.2481201
0.2300761
0.211112
0.1911439
0.170073
0.1470405
0.1226262
0.09648005
0.06831528
0.03770806
0.3403763
0.3266698
0.3123393
0.2973415
0.2816278
0.2651836
0.2479796
0.2299274
0.2109542
0.1909759
0.1692018
0.1461965
0.1216621
0.09537809
0.06703792
0.03559713
0.3537104
0.3405651
0.3268332
0.3124753
0.2974476
0.2817392
0.2653258
0.2481275
0.2300813
0.2111145
0.1904899
0.1687489
0.1456298
0.1209585
0.09451092
0.06574372
0.03420478
0.3667529
0.3541461
0.340987
0.3272401
0.3128655
0.2978556
0.2821902
0.2657968
0.2486199
0.2305966
0.2110318
0.1904338
0.1685656
0.1452807
0.1204024
0.09348496
0.06470736
0.03292467
0.379588
0.3675013
0.3548947
0.3417355
0.3279878
0.3136466
0.2986951
0.2830672
0.2667139
0.2495801
0.2310059
0.2114596
0.190713
0.1686229
0.14502
0.1194626
0.09250733
0.06355288
0.03171091
0.3923098
0.38073
0.3686608
0.3560726
0.3429328
0.3292385
0.3149761
0.3000852
0.2845223
0.268239
0.2506171
0.2321008
0.2124583
0.1914999
0.1689255
0.1438279
0.1183007
0.0912919
0.06236067
0.03061733
0.4048834
0.3937966
0.3822502
0.3702171
0.3576679
0.3446009
0.3310054
0.3168266
0.3020264
0.2865622
0.269888
0.2525213
0.2343227
0.2152611
0.1953474
0.4168883
0.4062637
0.3952063
0.3836914
0.3716919
0.3592075
0.3462296
0.3327085
0.3186098
0.3038958
0.2880702
0.2716635
0.2545546
0.2367098
0.2180982
0.4281472
0.4179484
0.4073408
0.3963014
0.3848054
0.3728535
0.3604387
0.3475154
0.3340525
0.3200162
0.3049436
0.2893523
0.2731288
0.2562375
0.2386392
0.4386439
0.4288357
0.4186399
0.4080353
0.396999
0.3855323
0.3736297
0.3612487
0.3483613
0.3349368
0.320538
0.3056634
0.2902066
0.2741341
0.2574092
0.4484168
0.4389668
0.4291482
0.4189413
0.4083247
0.3973006
0.3858644
0.3739763
0.3616108
0.3487398
0.334948
0.3207142
0.3059388
0.2905914
0.2746392
0.2064637
0.1864342
0.1652693
0.1428701
0.1191943
0.09468095
0.07266925
0.2247663
0.2056894
0.1855638
0.1642913
0.1417688
0.118005
0.09339676
0.07105544
0.2415838
0.2233532
0.2041491
0.1838823
0.1624503
0.1398003
0.1159168
0.09105513
0.06807096
0.2571076
0.2396349
0.2212536
0.201883
0.1814304
0.1598416
0.1370467
0.1129362
0.08770994
0.06377973
0.2715877
0.2548035
0.2371667
0.2186047
0.199034
0.1784082
0.1566587
0.1336364
0.1092397
0.08355852
0.05740696
0.2854541
0.2693142
0.2523718
0.2345614
0.2158078
0.1960733
0.1752978
0.1533401
0.1300738
0.1053699
0.0782273
0.05046889
0.2993375
0.2838313
0.2675715
0.250499
0.2325466
0.2136841
0.1938605
0.1729501
0.1508394
0.1273947
0.1015739
0.07399239
0.04481289
0.3132191
0.2983342
0.2827421
0.2663897
0.2492169
0.2311997
0.2122956
0.1923933
0.1713955
0.1491859
0.1248153
0.09885177
0.07089864
0.04087024
0.3269354
0.3126518
0.2977042
0.2820448
0.2656197
0.24841
0.2303804
0.2114321
0.1914811
0.1704292
0.1474141
0.1230077
0.09685946
0.06868701
0.03807265
0.3403763
0.3266698
0.3123393
0.2973415
0.2816278
0.2651836
0.2479796
0.2299274
0.2109542
0.1909759
0.1692018
0.1461965
0.1216621
0.09537809
0.06703792
0.03559713
0.3534979
0.3403436
0.3266021
0.3122342
0.2971958
0.2814759
0.2650501
0.2478387
0.2297782
0.210796
0.190158
0.1684129
0.1453008
0.1206486
0.09423115
0.06551212
0.03402625
0.3663046
0.353679
0.3405003
0.3267325
0.3123359
0.2973025
0.2816118
0.2651914
0.2479855
0.2299309
0.2103392
0.1897342
0.1678845
0.1446483
0.1198518
0.09306919
0.06438929
0.0327148
0.37884
0.3667227
0.3540837
0.3408902
0.3271062
0.3127263
0.2977334
0.2820614
0.2656607
0.2484759
0.229855
0.2102888
0.1895643
0.1675602
0.1441334
0.1189086
0.09213852
0.0632915
0.03156196
0.3911844
0.3795588
0.3674412
0.3548015
0.3416067
0.3278539
0.313529
0.2985711
0.2829362
0.2665753
0.2488668