/*--------------------------------*- C++ -*----------------------------------*\
| =========                 |                                                 |
| \\      /  F ield         | OpenFOAM: The Open Source CFD Toolbox           |
|  \\    /   O peration     | Version:  2306                                  |
|   \\  /    A nd           | Website:  www.openfoam.com                      |
|    \\/     M anipulation  |                                                 |
\*---------------------------------------------------------------------------*/
FoamFile
{
    version     2.0;
    format      ascii;
    arch        "LSB;label=32;scalar=64";
    class       volScalarField;
    location    "1.2/interconnect";
    object      T;
}
// * * * * * * * * * * * * * * * * * * * * * * * * * * * * * * * * * * * * * //

dimensions      [0 0 0 1 0 0 0];

internalField   nonuniform List<scalar> 
16000
(
1203.775
1203.773
1205.667
1203.709
1203.769
1205.667
1203.705
1208.182
1205.646
1203.577
1203.763
1205.665
1203.7
1208.181
1205.645
1203.572
1210.782
1208.182
1205.606
1203.384
1203.756
1205.662
1203.691
1208.18
1205.643
1203.562
1210.781
1208.181
1205.604
1203.375
1213.279
1210.789
1208.183
1205.55
1203.141
1203.748
1205.66
1203.681
1208.178
1205.64
1203.548
1210.779
1208.179
1205.601
1203.358
1213.278
1210.788
1208.181
1205.547
1203.124
1215.619
1213.288
1210.805
1208.188
1205.486
1202.941
1203.741
1205.657
1203.671
1208.175
1205.636
1203.532
1210.777
1208.176
1205.596
1203.334
1213.277
1210.786
1208.178
1205.542
1203.091
1215.618
1213.287
1210.803
1208.186
1205.481
1202.911
1217.794
1215.628
1213.308
1210.832
1208.203
1205.439
1202.811
1203.735
1205.654
1203.66
1208.173
1205.632
1203.514
1210.775
1208.173
1205.59
1203.306
1213.275
1210.783
1208.174
1205.535
1203.048
1215.617
1213.285
1210.8
1208.181
1205.473
1202.854
1217.793
1215.627
1213.306
1210.829
1208.199
1205.432
1202.773
1219.813
1217.802
1215.648
1213.341
1210.874
1208.225
1205.413
1202.693
1203.73
1205.651
1203.651
1208.17
1205.628
1203.496
1210.772
1208.169
1205.584
1203.277
1213.272
1210.78
1208.168
1205.527
1203.001
1215.615
1213.283
1210.795
1208.174
1205.462
1202.769
1217.792
1215.625
1213.303
1210.824
1208.193
1205.419
1202.697
1219.812
1217.801
1215.646
1213.338
1210.871
1208.221
1205.404
1202.647
1221.69
1219.821
1217.821
1215.68
1213.389
1210.919
1208.244
1205.393
1202.593
1203.728
1205.649
1203.645
1208.168
1205.624
1203.48
1210.77
1208.166
1205.577
1203.242
1213.27
1210.776
1208.162
1205.517
1202.968
1215.613
1213.279
1210.79
1208.164
1205.451
1202.66
1217.79
1215.623
1213.299
1210.817
1208.182
1205.4
1202.579
1219.811
1217.8
1215.643
1213.333
1210.864
1208.214
1205.385
1202.554
1221.689
1219.82
1217.819
1215.678
1213.386
1210.917
1208.24
1205.382
1202.541
1223.439
1221.697
1219.837
1217.85
1215.727
1213.44
1210.954
1208.269
1205.384
1202.517
1203.728
1205.648
1203.641
1208.167
1205.622
1203.467
1210.768
1208.163
1205.571
1203.209
1213.268
1210.772
1208.156
1205.505
1202.892
1215.61
1213.276
1210.783
1208.153
1205.442
1217.788
1215.62
1213.293
1210.807
1208.167
1205.38
1202.415
1219.81
1217.798
1215.639
1213.326
1210.854
1208.205
1205.359
1202.409
1221.688
1219.819
1217.817
1215.673
1213.38
1210.912
1208.232
1205.359
1202.436
1223.438
1221.696
1219.836
1217.848
1215.725
1213.438
1210.952
1208.264
1205.37
1202.462
1225.071
1223.445
1221.712
1219.864
1217.894
1215.776
1213.477
1210.993
1208.299
1205.386
1202.468
1203.73
1205.648
1203.641
1208.166
1205.62
1203.461
1210.766
1208.16
1205.567
1203.183
1213.265
1210.769
1208.151
1205.494
1202.817
1215.608
1213.272
1210.777
1208.142
1205.419
1217.786
1215.617
1213.287
1210.795
1208.145
1219.808
1217.795
1215.634
1213.316
1210.837
1208.194
1205.325
1202.202
1221.687
1219.816
1217.813
1215.667
1213.37
1210.905
1208.221
1205.323
1202.27
1223.437
1221.695
1219.834
1217.845
1215.719
1213.433
1210.947
1208.255
1205.343
1202.348
1225.07
1223.444
1221.711
1219.863
1217.892
1215.774
1213.476
1210.991
1208.294
1205.371
1202.411
1226.598
1225.077
1223.459
1221.737
1219.904
1217.939
1215.812
1213.518
1211.036
1208.336
1205.402
1202.447
1203.735
1205.649
1203.645
1208.166
1205.62
1203.461
1210.765
1208.159
1205.564
1203.169
1213.264
1210.767
1208.147
1205.484
1202.76
1215.606
1213.27
1210.772
1208.132
1205.393
1217.784
1215.613
1213.282
1210.783
1208.123
1219.806
1217.792
1215.629
1213.305
1210.809
1221.685
1219.814
1217.809
1215.658
1213.354
1210.897
1208.207
1205.276
1202.036
1223.436
1221.693
1219.831
1217.838
1215.71
1213.428
1210.941
1208.242
1205.301
1202.171
1225.07
1223.443
1221.709
1219.859
1217.887
1215.771
1213.472
1210.986
1208.284
1205.342
1202.294
1226.597
1225.076
1223.458
1221.735
1219.902
1217.937
1215.81
1213.517
1211.034
1208.331
1205.387
1202.39
1228.028
1226.603
1225.089
1223.481
1221.773
1219.945
1217.972
1215.851
1213.563
1211.083
1208.38
1205.432
1202.454
1203.741
1205.651
1203.651
1208.167
1205.622
1203.467
1210.765
1208.159
1205.564
1203.169
1213.263
1210.766
1208.145
1205.479
1202.73
1215.605
1213.267
1210.768
1208.125
1205.371
1217.782
1215.611
1213.277
1210.774
1208.104
1219.804
1217.789
1215.623
1213.294
1210.786
1221.684
1219.811
1217.803
1215.647
1213.325
1223.434
1221.691
1219.827
1217.83
1215.695
1213.421
1210.934
1208.223
1205.242
1201.921
1225.069
1223.442
1221.706
1219.854
1217.879
1215.765
1213.468
1210.98
1208.269
1205.296
1202.112
1226.597
1225.075
1223.456
1221.732
1219.898
1217.934
1215.808
1213.514
1211.03
1208.321
1205.357
1202.273
1228.028
1226.603
1225.088
1223.479
1221.771
1219.943
1217.971
1215.85
1213.562
1211.081
1208.376
1205.418
1202.397
1229.37
1228.033
1226.614
1225.109
1223.513
1221.809
1219.974
1218.007
1215.892
1213.61
1211.134
1208.431
1205.476
1202.487
1203.748
1205.654
1203.66
1208.168
1205.624
1203.48
1210.766
1208.16
1205.567
1203.183
1213.263
1210.766
1208.145
1205.479
1202.73
1215.604
1213.266
1210.766
1208.121
1205.358
1217.781
1215.609
1213.273
1210.767
1208.09
1219.803
1217.787
1215.619
1213.285
1210.77
1221.682
1219.809
1217.799
1215.637
1213.304
1223.433
1221.689
1219.822
1217.821
1215.668
1225.067
1223.44
1221.702
1219.846
1217.865
1215.76
1213.463
1210.972
1208.246
1205.23
1201.858
1226.596
1225.074
1223.453
1221.727
1219.89
1217.93
1215.805
1213.511
1211.023
1208.304
1205.311
1202.094
1228.027
1226.602
1225.087
1223.476
1221.767
1219.94
1217.968
1215.848
1213.56
1211.077
1208.366
1205.39
1202.284
1229.37
1228.033
1226.614
1225.108
1223.512
1221.808
1219.973
1218.007
1215.892
1213.609
1211.133
1208.427
1205.463
1202.432
1230.63
1229.375
1228.044
1226.633
1225.139
1223.546
1221.836
1220.006
1218.045
1215.936
1213.66
1211.189
1208.488
1205.532
1202.546
1203.756
1205.657
1203.671
1208.17
1205.628
1203.496
1210.768
1208.163
1205.571
1203.209
1213.264
1210.767
1208.147
1205.484
1202.76
1215.604
1213.266
1210.766
1208.121
1205.358
1217.78
1215.608
1213.271
1210.764
1208.082
1219.802
1217.785
1215.616
1213.279
1210.758
1221.681
1219.807
1217.795
1215.629
1213.289
1223.431
1221.686
1219.818
1217.812
1215.649
1225.066
1223.437
1221.698
1219.838
1217.841
1226.594
1225.072
1223.45
1221.72
1219.877
1217.925
1215.801
1213.506
1211.014
1208.28
1205.245
1201.846
1228.026
1226.6
1225.084
1223.472
1221.76
1219.936
1217.966
1215.845
1213.556
1211.071
1208.35
1205.347
1202.112
1229.369
1228.032
1226.612
1225.105
1223.508
1221.805
1219.971
1218.005
1215.89
1213.608
1211.13
1208.42
1205.439
1202.321
1230.63
1229.374
1228.043
1226.632
1225.137
1223.545
1221.835
1220.006
1218.045
1215.936
1213.66
1211.189
1208.486
1205.521
1202.49
1231.814
1230.635
1229.384
1228.061
1226.66
1225.169
1223.571
1221.865
1220.041
1218.085
1215.982
1213.712
1211.247
1208.55
1205.599
1203.763
1205.66
1203.681
1208.173
1205.632
1203.514
1210.77
1208.166
1205.577
1203.242
1213.265
1210.769
1208.151
1205.494
1202.817
1215.605
1213.267
1210.768
1208.125
1205.371
1217.78
1215.608
1213.271
1210.764
1208.082
1219.801
1217.784
1215.614
1213.276
1210.752
1221.68
1219.805
1217.792
1215.623
1213.279
1223.43
1221.684
1219.814
1217.804
1215.636
1225.064
1223.435
1221.694
1219.829
1217.823
1226.593
1225.07
1223.446
1221.712
1219.856
1228.025
1226.598
1225.081
1223.466
1221.748
1219.932
1217.963
1215.843
1213.552
1211.062
1208.327
1205.286
1201.88
1229.368
1228.03
1226.61
1225.101
1223.502
1221.802
1219.969
1218.003
1215.889
1213.605
1211.125
1208.407
1205.402
1202.158
1230.629
1229.373
1228.041
1226.629
1225.134
1223.543
1221.833
1220.004
1218.044
1215.935
1213.659
1211.187
1208.481
1205.501
1202.379
1231.814
1230.634
1229.384
1228.059
1226.658
1225.168
1223.57
1221.864
1220.04
1218.085
1215.983
1213.713
1211.247
1208.549
1205.59
1232.928
1231.818
1230.644
1229.4
1228.085
1226.687
1225.191
1223.597
1221.896
1220.076
1218.127
1216.03
1213.766
1211.306
1208.616
1203.769
1205.662
1203.691
1208.175
1205.636
1203.532
1210.772
1208.169
1205.584
1203.277
1213.268
1210.772
1208.156
1205.505
1202.892
1215.606
1213.27
1210.772
1208.132
1205.393
1217.781
1215.609
1213.273
1210.767
1208.09
1219.801
1217.784
1215.614
1213.276
1210.752
1221.679
1219.804
1217.79
1215.621
1213.275
1223.429
1221.683
1219.811
1217.799
1215.627
1225.063
1223.434
1221.691
1219.823
1217.811
1226.592
1225.068
1223.443
1221.705
1219.84
1228.024
1226.597
1225.078
1223.459
1221.729
1229.367
1228.029
1226.607
1225.096
1223.491
1221.798
1219.966
1218.001
1215.886
1213.601
1211.116
1208.387
1205.352
1201.947
1230.629
1229.372
1228.039
1226.625
1225.128
1223.54
1221.831
1220.003
1218.042
1215.934
1213.658
1211.184
1208.473
1205.473
1202.218
1231.814
1230.633
1229.382
1228.057
1226.655
1225.166
1223.568
1221.863
1220.039
1218.085
1215.983
1213.713
1211.248
1208.548
1205.573
1232.927
1231.818
1230.643
1229.399
1228.084
1226.686
1225.19
1223.596
1221.895
1220.076
1218.127
1216.031
1213.767
1211.308
1208.616
1233.974
1232.931
1231.827
1230.658
1229.423
1228.111
1226.708
1225.215
1223.625
1221.928
1220.114
1218.169
1216.078
1213.82
1211.366
1203.773
1205.665
1203.7
1208.178
1205.64
1203.548
1210.775
1208.173
1205.59
1203.306
1213.27
1210.776
1208.162
1205.517
1202.968
1215.608
1213.272
1210.777
1208.142
1205.419
1217.782
1215.611
1213.277
1210.774
1208.104
1219.802
1217.785
1215.616
1213.279
1210.758
1221.679
1219.804
1217.79
1215.621
1213.275
1223.429
1221.682
1219.81
1217.797
1215.623
1225.062
1223.432
1221.689
1219.819
1217.804
1226.591
1225.066
1223.44
1221.699
1219.83
1228.023
1226.595
1225.075
1223.452
1221.715
1229.366
1228.027
1226.604
1225.089
1223.474
1230.628
1229.371
1228.037
1226.62
1225.119
1223.536
1221.829
1220.001
1218.041
1215.932
1213.655
1211.178
1208.459
1205.438
1202.02
1231.813
1230.632
1229.38
1228.054
1226.65
1225.163
1223.566
1221.861
1220.038
1218.084
1215.983
1213.714
1211.249
1208.546
1205.552
1232.927
1231.817
1230.642
1229.397
1228.081
1226.684
1225.189
1223.595
1221.895
1220.076
1218.127
1216.032
1213.77
1211.312
1208.618
1233.974
1232.931
1231.826
1230.657
1229.422
1228.11
1226.707
1225.214
1223.624
1221.928
1220.114
1218.17
1216.08
1213.823
1211.369
1234.957
1233.978
1232.939
1231.841
1230.68
1229.446
1228.129
1226.729
1225.24
1223.654
1221.962
1220.152
1218.213
1216.127
1213.873
1203.775
1205.667
1203.705
1208.18
1205.643
1203.562
1210.777
1208.176
1205.596
1203.334
1213.272
1210.78
1208.168
1205.527
1203.001
1215.61
1213.276
1210.783
1208.153
1205.442
1217.784
1215.613
1213.282
1210.783
1208.123
1219.803
1217.787
1215.619
1213.285
1210.77
1221.68
1219.805
1217.792
1215.623
1213.279
1223.429
1221.682
1219.81
1217.797
1215.623
1225.062
1223.432
1221.688
1219.816
1217.8
1226.59
1225.065
1223.437
1221.695
1219.823
1228.022
1226.594
1225.072
1223.447
1221.705
1229.365
1228.026
1226.601
1225.083
1223.461
1230.627
1229.369
1228.034
1226.614
1225.103
1231.812
1230.631
1229.378
1228.049
1226.642
1225.16
1223.564
1221.86
1220.037
1218.083
1215.982
1213.713
1211.248
1208.544
1205.534
1232.926
1231.816
1230.64
1229.394
1228.076
1226.682
1225.187
1223.594
1221.894
1220.076
1218.128
1216.034
1213.774
1211.318
1208.624
1233.973
1232.93
1231.825
1230.655
1229.419
1228.108
1226.706
1225.213
1223.624
1221.928
1220.115
1218.172
1216.083
1213.828
1211.377
1234.957
1233.977
1232.939
1231.84
1230.678
1229.446
1228.129
1226.729
1225.24
1223.654
1221.962
1220.153
1218.215
1216.13
1213.877
1235.881
1234.961
1233.985
1232.952
1231.861
1230.701
1229.464
1228.149
1226.753
1225.267
1223.684
1221.996
1220.191
1218.256
1216.174
1205.667
1203.709
1208.181
1205.645
1203.572
1210.779
1208.179
1205.601
1203.358
1213.275
1210.783
1208.174
1205.535
1203.048
1215.613
1213.279
1210.79
1208.164
1205.451
1202.66
1217.786
1215.617
1213.287
1210.795
1208.145
1219.804
1217.789
1215.623
1213.294
1210.786
1221.681
1219.807
1217.795
1215.629
1213.289
1223.429
1221.683
1219.811
1217.799
1215.627
1225.062
1223.432
1221.688
1219.816
1217.8
1226.59
1225.065
1223.436
1221.693
1219.819
1228.021
1226.592
1225.07
1223.443
1221.699
1229.364
1228.024
1226.599
1225.078
1223.452
1230.626
1229.368
1228.031
1226.609
1225.091
1231.811
1230.629
1229.375
1228.044
1226.627
1232.925
1231.815
1230.638
1229.389
1228.069
1226.679
1225.185
1223.592
1221.892
1220.075
1218.127
1216.035
1213.777
1211.325
1208.637
1233.973
1232.929
1231.823
1230.652
1229.415
1228.105
1226.704
1225.212
1223.623
1221.927
1220.115
1218.174
1216.088
1213.836
1211.39
1234.957
1233.977
1232.938
1231.838
1230.676
1229.444
1228.127
1226.728
1225.239
1223.654
1221.962
1220.155
1218.218
1216.135
1213.886
1235.881
1234.961
1233.985
1232.951
1231.86
1230.701
1229.463
1228.149
1226.752
1225.267
1223.685
1221.997
1220.193
1218.259
1216.178
1236.748
1235.884
1234.968
1233.997
1232.971
1231.881
1230.717
1229.482
1228.171
1226.777
1225.295
1223.716
1222.031
1220.23
1218.298
1208.182
1205.646
1203.577
1210.781
1208.181
1205.604
1203.375
1213.277
1210.786
1208.178
1205.542
1203.091
1215.615
1213.283
1210.795
1208.174
1205.462
1202.769
1217.788
1215.62
1213.293
1210.807
1208.167
1205.38
1202.415
1219.806
1217.792
1215.629
1213.305
1210.809
1221.682
1219.809
1217.799
1215.637
1213.304
1223.43
1221.684
1219.814
1217.804
1215.636
1225.062
1223.432
1221.689
1219.819
1217.804
1226.59
1225.065
1223.436
1221.693
1219.819
1228.021
1226.592
1225.069
1223.441
1221.696
1229.364
1228.023
1226.597
1225.075
1223.447
1230.625
1229.366
1228.029
1226.605
1225.083
1231.81
1230.628
1229.373
1228.038
1226.616
1232.924
1231.814
1230.635
1229.384
1228.055
1233.972
1232.928
1231.821
1230.648
1229.407
1228.103
1226.702
1225.211
1223.622
1221.926
1220.115
1218.175
1216.092
1213.846
1211.41
1234.956
1233.976
1232.936
1231.835
1230.672
1229.442
1228.126
1226.727
1225.239
1223.653
1221.963
1220.156
1218.222
1216.144
1213.9
1235.881
1234.96
1233.984
1232.95
1231.857
1230.699
1229.462
1228.148
1226.752
1225.267
1223.685
1221.998
1220.196
1218.264
1216.187
1236.748
1235.884
1234.967
1233.996
1232.97
1231.88
1230.717
1229.482
1228.171
1226.777
1225.295
1223.716
1222.033
1220.232
1218.302
1237.56
1236.751
1235.891
1234.979
1234.015
1232.99
1231.896
1230.735
1229.502
1228.193
1226.802
1225.323
1223.747
1222.066
1220.267
1210.782
1208.182
1205.606
1203.384
1213.278
1210.788
1208.181
1205.547
1203.124
1215.617
1213.285
1210.8
1208.181
1205.473
1202.854
1217.79
1215.623
1213.299
1210.817
1208.182
1205.4
1202.579
1219.808
1217.795
1215.634
1213.316
1210.837
1208.194
1205.325
1202.202
1221.684
1219.811
1217.803
1215.647
1213.325
1223.431
1221.686
1219.818
1217.812
1215.649
1225.063
1223.434
1221.691
1219.823
1217.811
1226.59
1225.065
1223.437
1221.695
1219.823
1228.021
1226.592
1225.069
1223.441
1221.696
1229.363
1228.023
1226.596
1225.074
1223.444
1230.624
1229.366
1228.027
1226.602
1225.078
1231.809
1230.627
1229.371
1228.034
1226.609
1232.924
1231.812
1230.633
1229.38
1228.045
1233.971
1232.927
1231.819
1230.644
1229.395
1234.955
1233.975
1232.934
1231.831
1230.665
1229.439
1228.124
1226.726
1225.237
1223.653
1221.963
1220.158
1218.226
1216.153
1213.922
1235.88
1234.959
1233.982
1232.947
1231.853
1230.697
1229.46
1228.147
1226.751
1225.266
1223.686
1222
1220.2
1218.272
1216.201
1236.747
1235.883
1234.966
1233.995
1232.968
1231.879
1230.716
1229.481
1228.17
1226.777
1225.295
1223.718
1222.035
1220.237
1218.31
1237.56
1236.751
1235.891
1234.979
1234.014
1232.989
1231.895
1230.734
1229.502
1228.193
1226.803
1225.324
1223.749
1222.068
1220.271
1238.32
1237.563
1236.757
1235.902
1234.996
1234.033
1233.004
1231.912
1230.753
1229.523
1228.217
1226.829
1225.352
1223.779
1222.1
1213.279
1210.789
1208.183
1205.55
1203.141
1215.618
1213.287
1210.803
1208.186
1205.481
1202.911
1217.792
1215.625
1213.303
1210.824
1208.193
1205.419
1202.697
1219.81
1217.798
1215.639
1213.326
1210.854
1208.205
1205.359
1202.409
1221.685
1219.814
1217.809
1215.658
1213.354
1210.897
1208.207
1205.276
1202.036
1223.433
1221.689
1219.822
1217.821
1215.668
1225.064
1223.435
1221.694
1219.829
1217.823
1226.591
1225.066
1223.44
1221.699
1219.83
1228.021
1226.592
1225.07
1223.443
1221.699
1229.363
1228.023
1226.596
1225.074
1223.444
1230.624
1229.365
1228.026
1226.6
1225.076
1231.809
1230.626
1229.369
1228.032
1226.604
1232.923
1231.811
1230.631
1229.376
1228.038
1233.97
1232.926
1231.817
1230.639
1229.386
1234.955
1233.973
1232.932
1231.827
1230.653
1235.879
1234.958
1233.98
1232.943
1231.847
1230.694
1229.459
1228.146
1226.75
1225.266
1223.685
1222.001
1220.204
1218.281
1216.221
1236.747
1235.883
1234.965
1233.992
1232.964
1231.877
1230.714
1229.48
1228.169
1226.777
1225.296
1223.719
1222.039
1220.245
1218.323
1237.56
1236.75
1235.89
1234.977
1234.012
1232.988
1231.894
1230.734
1229.501
1228.193
1226.803
1225.325
1223.751
1222.073
1220.278
1238.32
1237.563
1236.757
1235.901
1234.995
1234.032
1233.004
1231.912
1230.753
1229.523
1228.217
1226.829
1225.353
1223.781
1222.103
1239.03
1238.323
1237.569
1236.768
1235.918
1235.014
1234.046
1233.02
1231.929
1230.773
1229.545
1228.241
1226.855
1225.381
1223.809
1215.619
1213.288
1210.805
1208.188
1205.486
1202.941
1217.793
1215.627
1213.306
1210.829
1208.199
1205.432
1202.773
1219.811
1217.8
1215.643
1213.333
1210.864
1208.214
1205.385
1202.554
1221.687
1219.816
1217.813
1215.667
1213.37
1210.905
1208.221
1205.323
1202.27
1223.434
1221.691
1219.827
1217.83
1215.695
1213.421
1210.934
1208.223
1205.242
1201.921
1225.066
1223.437
1221.698
1219.838
1217.841
1226.592
1225.068
1223.443
1221.705
1219.84
1228.022
1226.594
1225.072
1223.447
1221.705
1229.364
1228.023
1226.597
1225.075
1223.447
1230.624
1229.365
1228.026
1226.6
1225.076
1231.808
1230.626
1229.368
1228.03
1226.602
1232.922
1231.811
1230.629
1229.373
1228.034
1233.969
1232.925
1231.815
1230.636
1229.38
1234.954
1233.972
1232.93
1231.823
1230.645
1235.878
1234.957
1233.978
1232.939
1231.836
1236.746
1235.882
1234.963
1233.989
1232.958
1231.875
1230.713
1229.479
1228.168
1226.776
1225.296
1223.72
1222.043
1220.253
1218.341
1237.559
1236.749
1235.888
1234.975
1234.009
1232.986
1231.893
1230.733
1229.501
1228.193
1226.803
1225.326
1223.755
1222.079
1220.29
1238.32
1237.562
1236.756
1235.9
1234.994
1234.031
1233.003
1231.911
1230.753
1229.523
1228.217
1226.83
1225.356
1223.785
1222.109
1239.03
1238.323
1237.569
1236.767
1235.917
1235.013
1234.046
1233.019
1231.929
1230.773
1229.545
1228.241
1226.856
1225.383
1223.812
1239.691
1239.033
1238.329
1237.579
1236.783
1235.935
1235.026
1234.061
1233.036
1231.948
1230.793
1229.567
1228.265
1226.881
1225.408
1217.794
1215.628
1213.308
1210.832
1208.203
1205.439
1202.811
1219.812
1217.801
1215.646
1213.338
1210.871
1208.221
1205.404
1202.647
1221.688
1219.819
1217.817
1215.673
1213.38
1210.912
1208.232
1205.359
1202.436
1223.436
1221.693
1219.831
1217.838
1215.71
1213.428
1210.941
1208.242
1205.301
1202.171
1225.067
1223.44
1221.702
1219.846
1217.865
1215.76
1213.463
1210.972
1208.246
1205.23
1201.858
1226.593
1225.07
1223.446
1221.712
1219.856
1228.023
1226.595
1225.075
1223.452
1221.715
1229.364
1228.024
1226.599
1225.078
1223.452
1230.624
1229.366
1228.027
1226.602
1225.078
1231.808
1230.626
1229.368
1228.03
1226.602
1232.922
1231.81
1230.629
1229.372
1228.032
1233.969
1232.924
1231.814
1230.633
1229.376
1234.953
1233.971
1232.928
1231.819
1230.639
1235.878
1234.956
1233.976
1232.935
1231.828
1236.745
1235.881
1234.961
1233.985
1232.948
1237.558
1236.748
1235.887
1234.972
1234.003
1232.984
1231.892
1230.732
1229.5
1228.192
1226.803
1225.327
1223.758
1222.087
1220.307
1238.319
1237.562
1236.755
1235.898
1234.99
1234.029
1233.002
1231.91
1230.752
1229.523
1228.218
1226.832
1225.359
1223.791
1222.12
1239.029
1238.322
1237.568
1236.766
1235.916
1235.012
1234.045
1233.019
1231.929
1230.772
1229.545
1228.242
1226.858
1225.386
1223.818
1239.691
1239.032
1238.329
1237.579
1236.783
1235.934
1235.026
1234.061
1233.036
1231.948
1230.793
1229.567
1228.266
1226.883
1225.411
1240.305
1239.694
1239.038
1238.339
1237.594
1236.799
1235.947
1235.04
1234.076
1233.053
1231.967
1230.813
1229.589
1228.289
1226.907
1219.813
1217.802
1215.648
1213.341
1210.874
1208.225
1205.413
1202.693
1221.689
1219.82
1217.819
1215.678
1213.386
1210.917
1208.24
1205.382
1202.541
1223.437
1221.695
1219.834
1217.845
1215.719
1213.433
1210.947
1208.255
1205.343
1202.348
1225.069
1223.442
1221.706
1219.854
1217.879
1215.765
1213.468
1210.98
1208.269
1205.296
1202.112
1226.594
1225.072
1223.45
1221.72
1219.877
1217.925
1215.801
1213.506
1211.014
1208.28
1205.245
1201.846
1228.024
1226.597
1225.078
1223.459
1221.729
1229.365
1228.026
1226.601
1225.083
1223.461
1230.625
1229.366
1228.029
1226.605
1225.083
1231.809
1230.626
1229.369
1228.032
1226.604
1232.922
1231.81
1230.629
1229.372
1228.032
1233.969
1232.924
1231.813
1230.632
1229.374
1234.953
1233.971
1232.927
1231.817
1230.635
1235.877
1234.955
1233.975
1232.932
1231.823
1236.745
1235.88
1234.96
1233.981
1232.941
1237.558
1236.747
1235.885
1234.968
1233.993
1238.319
1237.561
1236.753
1235.895
1234.985
1234.027
1233
1231.909
1230.751
1229.522
1228.217
1226.833
1225.362
1223.798
1222.136
1239.029
1238.322
1237.567
1236.764
1235.912
1235.01
1234.044
1233.018
1231.928
1230.772
1229.545
1228.244
1226.861
1225.392
1223.828
1239.69
1239.032
1238.328
1237.577
1236.781
1235.933
1235.025
1234.06
1233.035
1231.948
1230.793
1229.568
1228.268
1226.887
1225.417
1240.305
1239.693
1239.038
1238.338
1237.593
1236.798
1235.946
1235.04
1234.076
1233.053
1231.967
1230.814
1229.59
1228.291
1226.909
1240.873
1240.307
1239.699
1239.048
1238.353
1237.609
1236.81
1235.96
1235.054
1234.092
1233.071
1231.986
1230.834
1229.612
1228.312
1221.69
1219.821
1217.821
1215.68
1213.389
1210.919
1208.244
1205.393
1202.593
1223.438
1221.696
1219.836
1217.848
1215.725
1213.438
1210.952
1208.264
1205.37
1202.462
1225.07
1223.443
1221.709
1219.859
1217.887
1215.771
1213.472
1210.986
1208.284
1205.342
1202.294
1226.596
1225.074
1223.453
1221.727
1219.89
1217.93
1215.805
1213.511
1211.023
1208.304
1205.311
1202.094
1228.025
1226.598
1225.081
1223.466
1221.748
1219.932
1217.963
1215.843
1213.552
1211.062
1208.327
1205.286
1201.88
1229.366
1228.027
1226.604
1225.089
1223.474
1230.626
1229.368
1228.031
1226.609
1225.091
1231.809
1230.627
1229.371
1228.034
1226.609
1232.922
1231.811
1230.629
1229.373
1228.034
1233.969
1232.924
1231.813
1230.632
1229.374
1234.952
1233.97
1232.926
1231.816
1230.633
1235.877
1234.954
1233.973
1232.93
1231.819
1236.744
1235.879
1234.958
1233.979
1232.935
1237.557
1236.746
1235.883
1234.964
1233.986
1238.318
1237.56
1236.751
1235.891
1234.976
1239.028
1238.321
1237.565
1236.761
1235.907
1235.008
1234.043
1233.017
1231.927
1230.772
1229.545
1228.244
1226.864
1225.398
1223.842
1239.69
1239.031
1238.327
1237.575
1236.778
1235.931
1235.024
1234.059
1233.035
1231.947
1230.794
1229.57
1228.271
1226.892
1225.426
1240.304
1239.693
1239.037
1238.337
1237.592
1236.797
1235.945
1235.039
1234.076
1233.053
1231.967
1230.815
1229.592
1228.294
1226.914
1240.873
1240.307
1239.699
1239.047
1238.352
1237.609
1236.81
1235.959
1235.054
1234.092
1233.071
1231.986
1230.835
1229.613
1228.315
1241.396
1240.875
1240.313
1239.708
1239.061
1238.367
1237.62
1236.823
1235.973
1235.07
1234.109
1233.089
1232.006
1230.855
1229.633
1223.439
1221.697
1219.837
1217.85
1215.727
1213.44
1210.954
1208.269
1205.384
1202.517
1225.07
1223.444
1221.711
1219.863
1217.892
1215.774
1213.476
1210.991
1208.294
1205.371
1202.411
1226.597
1225.075
1223.456
1221.732
1219.898
1217.934
1215.808
1213.514
1211.03
1208.321
1205.357
1202.273
1228.026
1226.6
1225.084
1223.472
1221.76
1219.936
1217.966
1215.845
1213.556
1211.071
1208.35
1205.347
1202.112
1229.367
1228.029
1226.607
1225.096
1223.491
1221.798
1219.966
1218.001
1215.886
1213.601
1211.116
1208.387
1205.352
1201.947
1230.627
1229.369
1228.034
1226.614
1225.103
1231.81
1230.628
1229.373
1228.038
1226.616
1232.923
1231.811
1230.631
1229.376
1228.038
1233.969
1232.924
1231.814
1230.633
1229.376
1234.952
1233.97
1232.926
1231.816
1230.633
1235.876
1234.954
1233.973
1232.929
1231.817
1236.744
1235.878
1234.957
1233.977
1232.932
1237.556
1236.746
1235.882
1234.962
1233.981
1238.317
1237.559
1236.75
1235.888
1234.969
1239.028
1238.32
1237.564
1236.757
1235.899
1239.689
1239.03
1238.325
1237.573
1236.773
1235.929
1235.023
1234.058
1233.034
1231.947
1230.793
1229.57
1228.273
1226.898
1225.439
1240.304
1239.692
1239.036
1238.335
1237.589
1236.796
1235.944
1235.038
1234.075
1233.052
1231.967
1230.816
1229.595
1228.299
1226.923
1240.872
1240.307
1239.698
1239.046
1238.351
1237.608
1236.809
1235.959
1235.054
1234.092
1233.071
1231.987
1230.837
1229.616
1228.32
1241.396
1240.875
1240.312
1239.708
1239.061
1238.367
1237.62
1236.823
1235.973
1235.07
1234.109
1233.089
1232.006
1230.857
1229.635
1241.876
1241.399
1240.881
1240.322
1239.721
1239.075
1238.378
1237.632
1236.836
1235.988
1235.086
1234.126
1233.107
1232.025
1230.875
1225.071
1223.445
1221.712
1219.864
1217.894
1215.776
1213.477
1210.993
1208.299
1205.386
1202.468
1226.597
1225.076
1223.458
1221.735
1219.902
1217.937
1215.81
1213.517
1211.034
1208.331
1205.387
1202.39
1228.027
1226.602
1225.087
1223.476
1221.767
1219.94
1217.968
1215.848
1213.56
1211.077
1208.366
1205.39
1202.284
1229.368
1228.03
1226.61
1225.101
1223.502
1221.802
1219.969
1218.003
1215.889
1213.605
1211.125
1208.407
1205.402
1202.158
1230.628
1229.371
1228.037
1226.62
1225.119
1223.536
1221.829
1220.001
1218.041
1215.932
1213.655
1211.178
1208.459
1205.438
1202.02
1231.811
1230.629
1229.375
1228.044
1226.627
1232.924
1231.812
1230.633
1229.38
1228.045
1233.969
1232.925
1231.815
1230.636
1229.38
1234.953
1233.971
1232.927
1231.817
1230.635
1235.876
1234.954
1233.973
1232.929
1231.817
1236.743
1235.878
1234.956
1233.976
1232.93
1237.556
1236.745
1235.881
1234.96
1233.978
1238.317
1237.558
1236.748
1235.885
1234.964
1239.027
1238.319
1237.562
1236.754
1235.892
1239.689
1239.029
1238.324
1237.569
1236.765
1240.303
1239.691
1239.035
1238.332
1237.584
1236.794
1235.943
1235.037
1234.074
1233.052
1231.967
1230.817
1229.597
1228.304
1226.935
1240.872
1240.306
1239.697
1239.044
1238.348
1237.606
1236.808
1235.958
1235.053
1234.092
1233.071
1231.988
1230.839
1229.621
1228.327
1241.396
1240.875
1240.312
1239.706
1239.059
1238.366
1237.619
1236.822
1235.973
1235.07
1234.11
1233.09
1232.008
1230.86
1229.64
1241.876
1241.398
1240.88
1240.321
1239.721
1239.075
1238.378
1237.632
1236.836
1235.988
1235.086
1234.127
1233.108
1232.026
1230.877
1242.313
1241.878
1241.404
1240.889
1240.334
1239.735
1239.086
1238.389
1237.645
1236.85
1236.003
1235.102
1234.144
1233.126
1232.044
1226.598
1225.077
1223.459
1221.737
1219.904
1217.939
1215.812
1213.518
1211.036
1208.336
1205.402
1202.447
1228.028
1226.603
1225.088
1223.479
1221.771
1219.943
1217.971
1215.85
1213.562
1211.081
1208.376
1205.418
1202.397
1229.369
1228.032
1226.612
1225.105
1223.508
1221.805
1219.971
1218.005
1215.89
1213.608
1211.13
1208.42
1205.439
1202.321
1230.629
1229.372
1228.039
1226.625
1225.128
1223.54
1221.831
1220.003
1218.042
1215.934
1213.658
1211.184
1208.473
1205.473
1202.218
1231.812
1230.631
1229.378
1228.049
1226.642
1225.16
1223.564
1221.86
1220.037
1218.083
1215.982
1213.713
1211.248
1208.544
1205.534
1232.924
1231.814
1230.635
1229.384
1228.055
1233.97
1232.926
1231.817
1230.639
1229.386
1234.953
1233.971
1232.928
1231.819
1230.639
1235.877
1234.954
1233.973
1232.93
1231.819
1236.743
1235.878
1234.956
1233.976
1232.93
1237.556
1236.745
1235.88
1234.959
1233.977
1238.316
1237.557
1236.747
1235.883
1234.962
1239.026
1238.318
1237.561
1236.752
1235.888
1239.688
1239.029
1238.322
1237.566
1236.759
1240.303
1239.691
1239.033
1238.329
1237.576
1240.871
1240.305
1239.696
1239.042
1238.343
1237.605
1236.807
1235.957
1235.053
1234.092
1233.071
1231.989
1230.842
1229.626
1228.339
1241.395
1240.874
1240.311
1239.705
1239.057
1238.364
1237.618
1236.821
1235.973
1235.069
1234.11
1233.091
1232.01
1230.864
1229.647
1241.875
1241.398
1240.88
1240.32
1239.719
1239.074
1238.377
1237.631
1236.836
1235.988
1235.086
1234.128
1233.11
1232.029
1230.882
1242.313
1241.878
1241.403
1240.889
1240.334
1239.734
1239.085
1238.389
1237.645
1236.85
1236.003
1235.102
1234.145
1233.127
1232.046
1242.708
1242.315
1241.883
1241.412
1240.902
1240.347
1239.745
1239.097
1238.402
1237.658
1236.864
1236.019
1235.118
1234.161
1233.143
1228.028
1226.603
1225.089
1223.481
1221.773
1219.945
1217.972
1215.851
1213.563
1211.083
1208.38
1205.432
1202.454
1229.37
1228.033
1226.614
1225.108
1223.512
1221.808
1219.973
1218.007
1215.892
1213.609
1211.133
1208.427
1205.463
1202.432
1230.629
1229.373
1228.041
1226.629
1225.134
1223.543
1221.833
1220.004
1218.044
1215.935
1213.659
1211.187
1208.481
1205.501
1202.379
1231.813
1230.632
1229.38
1228.054
1226.65
1225.163
1223.566
1221.861
1220.038
1218.084
1215.983
1213.714
1211.249
1208.546
1205.552
1232.925
1231.815
1230.638
1229.389
1228.069
1226.679
1225.185
1223.592
1221.892
1220.075
1218.127
1216.035
1213.777
1211.325
1208.637
1233.971
1232.927
1231.819
1230.644
1229.395
1234.954
1233.972
1232.93
1231.823
1230.645
1235.877
1234.955
1233.975
1232.932
1231.823
1236.744
1235.878
1234.957
1233.977
1232.932
1237.556
1236.745
1235.88
1234.959
1233.977
1238.316
1237.557
1236.747
1235.883
1234.96
1239.026
1238.318
1237.56
1236.75
1235.885
1239.688
1239.028
1238.321
1237.564
1236.754
1240.302
1239.69
1239.032
1238.326