/*--------------------------------*- C++ -*----------------------------------*\
| =========                 |                                                 |
| \\      /  F ield         | OpenFOAM: The Open Source CFD Toolbox           |
|  \\    /   O peration     | Version:  2306                                  |
|   \\  /    A nd           | Website:  www.openfoam.com                      |
|    \\/     M anipulation  |                                                 |
\*---------------------------------------------------------------------------*/
FoamFile
{
    version     2.0;
    format      ascii;
    arch        "LSB;label=32;scalar=64";
    class       volScalarField;
    location    "0.3";
    object      contErrCp;
}
// * * * * * * * * * * * * * * * * * * * * * * * * * * * * * * * * * * * * * //

dimensions      [1 -1 -3 -1 0 0 0];

internalField   nonuniform List<scalar> 
52000
(
0
0
0
0
0
0
0
0
0
0
0
0
0
0
0
0
0
0
0
0
0
0
0
0
0
0
0
0
0
0
0
0
0
0
0
0
0
0
0
0
0
0
0
0
0
0
0
0
0
0
0
0
0
0
0
0
0
0
0
0
0
0
0
0
0
0
0
0
0
0
0
0
0
0
0
0
0
0
0
0
0
0
0
0
0
0
0
0
0
0
0
0
0
0
0
0
0
0
0
0
0
0
0
0
0
0
0
0
0
0
0
0
0
0
0
0
0
0
0
0
0
0
0
0
0
0
0
0
0
0
0
0
0
0
0
0
0
0
0
0
0
0
0
0
0
0
0
0
0
0
0
0
0
0
0
0
0
0
0
0
0
0
0
0
0
0
0
0
0
0
0
0
0
0
0
0
0
0
0
0
0
0
0
0
0
0
0
0
0
0
0
0
0
0
0
0
0
0
0
0
0
0
0
0
0
0
0
0
0
0
0
0
0
0
0
0
0
0
0
0
0
0
0
0
0
0
0
0
0
0
0
0
0
0
0
0
0
0
0
0
-2.836057e-05
0
0
0
0
0
0
0
0
0
0
0
0
0
0
0
0
0
0
0
0
0
0
0
0
0
0
0
0
0
0
0
0
0
0
0
0
0
0
0
0
0
0
0
0
0
0
0
0
0
0
0
0
0
0
0
0
0
0
0
0
0
0
0
0
0
0.000278595
0
0
0
0
0
-0.0002007238
0.0002406378
0
0
0
0
0
0
0
0
0
0
0
0
0
0
0
0
0
0
0
0
0
0
0
0
0
0
0
0
0
0
0
0
0
0
0
0
0
0
0
0
0
0
0
0
0
0
0
0
0
0
0
0
0
0
0
0
0
0
0
0
0
0
0
0
0
0
0
0
0
0
0.0003658779
0
0
0
0
0
0.0004836084
-0.0008475985
0
0
0
0
0
-0.0002922217
-0.0004241017
0.0007871749
0
0
0
0
0
0
0
0
0
0
0
0
0
0
0
0
0
0
0
0
0
0
0
0
0
0
0
0
0
0
0
0
0
0
0
0
0
0
0
0
0
0
0
0
0
0
0
0
0
0
0
0
0
0
0
0
0
0
0
0
0
0
0
0
0
0
0
0
0
0
0
0
0
0
0
-0.0004462172
0
0
0
0
0
-0.000354399
0.0005827336
0
0
0
0
0
-9.457687e-05
0.0007771759
-0.0020238
0
0
0
0
0
0.0001045715
2.086309e-05
0.0004727396
-0.0002626881
0
0
0
0
0
0
0
0
0
0
0
0
0
0
0
0
0
0
0
0
0
0
0
0
0
0
0
0
0
0
0
0
0
0
0
0
0
0
0
0
0
0
0
0
0
0
0
0
0
0
0
0
0
0
0
0
0
0
0
0
0
0
0
0
0
0
0
0
0
0
0
0
0
0
0
0
0
0
0
0
-0.0001451811
0
0
0
0
0
0.0008761682
-0.000248075
0
0
0
0
0
0.0004733831
-0.001083004
0.0001045172
0
0
0
0
0
-0.0003665968
0.00122952
-0.0003507164
0.001185631
0
0
0
0
0
-0.0002360378
-0.0001908233
0.0002124021
-0.0001239829
-3.273018e-05
0
0
0
0
0
0
0
0
0
0
0
0
0
0
0
0
0
0
0
0
0
0
0
0
0
0
0
0
0
0
0
0
0
0
0
0
0
0
0
0
0
0
0
0
0
0
0
0
0
0
0
0
0
0
0
0
0
0
0
0
0
0
0
0
0
0
0
0
0
0
0
0
0
0
0
0
0
0
0
0
0
0
0
0
0
0.0007632546
0
0
0
0
0
-0.0008386536
-0.0002655779
0
0
0
0
0
0.0001616568
-0.0009325839
0.0006810185
0
0
0
0
0
0.0006562026
-0.0003308127
0.001934684
0.001326274
0
0
0
0
0
0.0001659558
-0.0006879301
0.0001766715
1.474642e-05
-0.0001407956
0
0
0
0
0
8.86902e-05
0.0005716407
0.0006542002
-0.0005171571
-0.0001336683
0.000442803
0
0
0
0
0
0
0
0
0
0
0
0
0
0
0
0
0
0
0
0
0
0
0
0
0
0
0
0
0
0
0
0
0
0
0
0
0
0
0
0
0
0
0
0
0
0
0
0
0
0
0
0
0
0
0
0
0
0
0
0
0
0
0
0
0
0
0
0
0
3.085958e-07
0
0
0
0
0
0
0
0
0
0
0
0
0
0
0
0
0
0
0
0
-6.336583e-05
0
0
0
0
0
-0.0004188198
-4.545496e-06
0
0
0
0
0
-0.0009975697
0.0009996653
0.0009459773
0
0
0
0
0
-0.0001202179
-0.0003168976
-0.0009917394
-0.000429346
0
0
0
0
0
0.0004020533
-0.0007221035
-0.001627981
-0.0003849786
8.149225e-05
0
0
0
0
0
-0.0001540803
-0.0008055022
0.0001893911
0.0005395101
-3.553116e-05
-0.0003546416
0
0
0
0
0
0.0001167479
0.0001897583
-0.0007611437
0.0001859174
0.0003769944
-0.0003023702
0.0001558105
0
0
0
0
0
0
0
0
0
0
0
0
0
0
0
0
0
0
0
0
0
0
0
0
0
0
0
0
0
0
0
0
0
0
0
0
0
0
0
0
0
0
0
0
0
0
0
0
0
0
0
0
0
0
0
0
0
7.442501e-07
0
0
0
0
0
0
0
0
0
0
0
0
0
0
0
5.658775e-07
-1.977382e-07
0
0
0
0
0
0
0
0
0
0
0
0
0
0
0
0
0
0
0
0
3.982982e-05
0
0
0
0
0
0.0001350717
-0.00157531
0
0
0
0
0
0.0002559881
0.0007405407
-0.0014163
0
0
0
0
0
0.0002301346
0.0008473877
-0.0005870554
-4.629457e-05
0
0
0
0
0
0.0007916881
0.001859864
0.0005971504
1.360009e-05
0.001562737
0
0
0
0
0
0.0003874622
-0.0004409727
-0.0002947469
0.001897978
-0.0008715374
-0.003546109
0
0
0
0
0
0.0001906491
-0.0003982916
0.0007798777
-0.0001519755
-0.0007335448
0.0001837459
0.0003793382
0
0
0
0
0
8.413273e-05
-0.0002029203
-9.423303e-05
0.0003281545
-0.0007103601
-0.0002527061
3.793982e-05
-0.001195036
0
0
0
0
0
0
0
0
0
0
0
0
0
0
0
0
0
0
0
0
0
0
0
0
0
0
0
0
0
0
0
0
0
0
0
0
0
0
0
0
0
0
0
0
2.580707e-06
0
0
0
0
0
0
0
0
0
0
0
0
0
0
0
9.98928e-08
3.213569e-07
0
0
0
0
0
0
0
0
0
0
0
0
0
0
0
4.022091e-07
-5.838235e-07
3.499958e-06
0
0
0
0
0
0
0
0
0
0
0
0
0
0
0
0
0
0
0
0
-0.0002015969
0
0
0
0
0
-0.0002086266
0.001640081
0
0
0
0
0
-6.091231e-05
0.001043326
0.0006456623
0
0
0
0
0
0.0009467608
-0.000141867
-0.0001751149
0.00148031
0
0
0
0
0
5.557158e-05
-0.0008239729
0.001365447
0.0008149829
-0.002932741
0
0
0
0
0
3.07367e-05
-0.0004646025
-0.001069925
-0.00339613
0.001328558
0.0003523312
0
0
0
0
0
0.0002713609
-0.0004021956
-0.0002304621
-5.758246e-05
0.0006957192
0.001085745
0.003021674
0
0
0
0
0
-0.0002569154
0.0005613834
-0.0005163117
-0.0008059352
0.001822722
-0.001481993
-0.0006262651
0.0004145272
0
0
0
0
0
-9.348712e-05
-0.0002299252
-0.0003358612
-9.652229e-05
-0.0005893953
-4.196117e-05
6.159274e-05
-0.0001699189
-0.0003635744
0
0
0
0
0
0
0
0
0
0
0
0
0
0
0
0
0
0
0
0
0
0
0
0
0
0
0
0
0
0
1.455233e-06
0
0
0
0
0
0
0
0
0
0
0
0
0
0
0
8.500432e-07
4.659876e-08
0
0
0
0
0
0
0
0
0
0
0
0
0
0
0
1.521658e-06
-8.826128e-07
1.232905e-06
0
0
0
0
0
0
0
0
0
0
0
0
0
0
0
2.616106e-06
-3.708536e-07
1.699458e-07
2.625014e-07
0
0
0
0
0
0
0
0
0
0
0
0
0
0
0
0
0
0
0
0
-0.0001304177
0
0
0
0
0
0.000191538
-0.0002872822
0
0
0
0
0
0.0003022483
-0.0007881132
-0.000684711
0
0
0
0
0
-0.0004902535
0.0006155153
-0.0003483286
0.0004431192
0
0
0
0
0
-0.0001417098
-0.0005997245
-0.002027158
-0.0002783408
0.0001637446
0
0
0
0
0
-0.0003662473
-0.0009419132
0.0001854573
0.00107005
-0.001354038
-5.432786e-06
0
0
0
0
0
-0.0001684388
-0.0002565731
-9.067793e-05
-3.114264e-05
0.001558081
-0.001043657
-3.029009e-05
0
0
0
0
0
0.0005241028
0.0001054493
0.002569544
0.001488774
8.745897e-05
0.0001010148
0.0004859186
-0.001286188
0
0
0
0
0
-0.0001737093
0.0006993602
-0.0008288991
0.001035285
0.00109058
-0.0007211463
0.0009165965
-0.0001222974
0.0005728074
0
0
0
0
0
-0.000145559
0.0002438044
0.0001173948
0.00020458
-0.0006294932
0.0001454426
0.001146508
-0.0001787309
0.000194419
-7.661721e-05
0
0
0
0
0
0
0
0
0
0
0
0
0
0
0
1.881374e-07
0
0
0
0
0
0
0
0
0
0
0
0
0
0
0
-1.16658e-06
6.975191e-07
0
0
0
0
0
0
0
0
0
0
0
0
0
0
0
1.024783e-06
2.182385e-06
-1.363251e-06
0
0
0
0
0
0
0
0
0
0
0
0
0
0
0
1.776007e-07
-4.647515e-07
2.073219e-06
-5.642818e-07
0
0
0
0
0
0
0
0
0
0
0
0
0
0
0
3.689607e-07
-2.583035e-06
-1.81302e-07
3.139694e-06
-1.396613e-06
0
0
0
0
0
0
0
0
0
0
0
0
0
0
0
0
0
0
0
0
0
0
0
0
0
0.0001346974
5.428358e-05
0
0
0
0
0
0.0001263821
0.0006529929
5.943786e-05
0
0
0
0
0
-6.452475e-05
0.0003139437
0.0002305955
-0.000618435
0
0
0
0
0
0.0004151551
-0.0006424039
-0.0004986274
3.781258e-05
0.002432339
0
0
0
0
0
0.0006453397
-6.447347e-05
0.001168729
-0.0006828777
0.001000942
0.001655662
0
0
0
0
0
0.0002517089
-0.0005858276
0.000762196
-0.0002946186
-0.001548414
8.877248e-05
-0.001605761
0
0
0
0
0
-0.0003187731
-0.0007672839
-0.001360576
-0.0002505916
0.0009728839
0.0004557743
0.000313573
0.00179889
0
0
0
0
0
-0.0004988528
-7.826349e-05
-0.001084304
-0.002602953
0.0001154959
0.0002404722
0.000272088
0.0003062213
-0.0005281358
0
0
0
0
0
-0.0004004113
-0.000261256
-0.0015761
0.000459386
0.0004892863
0.0008546851
-0.0002773119
0.0005104009
-9.790311e-05
0.0003319119
0
0
0
0
0
-6.230825e-05
0.0006437669
-0.0004291032
-0.0001289757
0.00081515
-3.15064e-05
-0.0002561855
0.0001768242
0.000389709
8.485316e-05
5.34632e-05
0
0
0
0
0
0
0
0
0
0
0
0
0
0
0
1.236609e-06
-3.681893e-06
0
0
0
0
0
0
0
0
0
0
0
0
0
0
0
-2.319443e-06
5.039298e-06
-5.932839e-08
0
0
0
0
0
0
0
0
0
0
0
0
0
0
0
3.457244e-06
2.717901e-06
-4.269315e-07
-3.631291e-06
0
0
0
0
0
0
0
0
0
0
0
0
0
0
0
4.568536e-07
2.553411e-06
-6.725455e-07
-2.255024e-06
1.052954e-06
0
0
0
0
0
0
0
0
0
0
0
0
0
0
0
-1.272908e-07
8.315584e-08
5.064881e-06
5.225648e-06
-1.443259e-06
2.443924e-06
0
0
0
0
0
0
0
0
0
0
0
0
0
0
0
0
0
0
0
0
0
0
0
0
0
0
0
0
0
0
-0.0001192766
-0.000126979
6.038848e-05
0
0
0
0
0
-0.0002022652
-2.174291e-05
-0.0004992657
-0.0005964149
0
0
0
0
0
0.0004427693
0.0004938621
0.0007933426
9.747651e-05
0.0005104063
0
0
0
0
0
-0.0001127107
0.0001188313
0.001402661
0.0004956468
-0.0001711165
-0.0008098855
0
0
0
0
0
-3.041962e-05
0.0005625961
-0.0007933318
0.0004561452
0.001519329
0.000209164
0.0008211093
0
0
0
0
0
0.000500055
0.001053542
-0.0001596998
-0.0003300729
3.515849e-05
0.001028985
0.0009611867
-0.0003164172
0
0
0
0
0
0.000249904
0.0005720962
-0.0002105152
0.001749335
0.000643154
-0.001959854
-0.000532743
-9.727809e-06
-0.001468442
0
0
0
0
0
0.0003330913
-2.0442e-05
0.001022504
0.001248566
0.0007428692
-0.0009986145
0.000438492
-0.0004131217
-0.0001180746
-0.0002789468
0
0
0
0
0
0.0002679593
-0.00021287
0.0005320858
0.001138763
0.0003538679
2.175133e-05
0.0003190529
9.330393e-05
-6.189106e-05
-0.0001440823
-0.0002263708
0
0
0
0
0
0.0002032665
-0.000299457
0.0005489371
0.0002018455
0.0002202955
-0.0003130241
0.0006549464
-0.0002787441
-0.000140416
0.0003125656
-7.130399e-05
-8.026792e-07
0
0
0
0
0
0
0
0
0
0
0
0
0
0
0
2.117347e-07
-1.021115e-06
3.922559e-06
0
0
0
0
0
0
0
0
0
0
0
0
0
0
0
4.601872e-07
1.585129e-07
-1.959393e-06
-4.851093e-06
0
0
0
0
0
0
0
0
0
0
0
0
0
0
0
9.079551e-08
1.069271e-07
1.633947e-06
3.598231e-07
1.470618e-06
0
0
0
0
0
0
0
0
0
0
0
0
0
0
0
9.461156e-08
3.091062e-07
-1.117877e-06
-1.334871e-06
-1.50763e-06
-9.822133e-06
0
0
0
0
0
0
0
0
0
0
0
0
0
0
0
-6.820922e-07
-6.295736e-07
-4.805424e-07
-2.987756e-07
-8.542001e-07
8.028107e-06
2.540049e-06
0
0
0
0
0
0
0
0
0
0
0
0
0
0
0
0
0
0
0
0
0
0
0
0
0
0
0
0
0
0
0
0
0
0
0
3.227963e-06
0.0002718456
9.230636e-05
7.653666e-05
0
0
0
0
0
-0.0009541428
0.0002784574
-0.0008046909
8.365667e-05
0.0004736692
0
0
0
0
0
-0.0004005139
-0.001588678
-0.001917345
-0.000141437
0.0005040649
-0.0001333245
0
0
0
0
0
-0.0002468488
-0.0009425184
0.001537528
-0.001303627
-0.0009065781
0.0004469261
0.001561254
0
0
0
0
0
0.0003257604
-0.0002217835
0.0001318821
0.0004399098
-0.001604233
-0.001027508
-0.002204058
-0.002427917
0
0
0
0
0
4.833845e-05
-0.0008483076
0.001346979
-0.001773525
0.0006292702
-0.0005228393
0.0001943478
-0.002305951
0.0001727142
0
0
0
0
0
0.0003925274
0.0003527807
-0.0005030612
-0.001260141
-0.0008047137
-0.0001339859
0.0004135859
-0.001322211
0.000417566
0.001608461
0
0
0
0
0
-0.0002848076
-0.000272429
0.0003971477
-0.000843315
-0.0009414216
-0.001581591
-0.0006590276
0.0003504723
-0.001127579
0.0003888254
-7.732047e-05
0
0
0
0
0
-0.0002918991
-0.000249529
-0.0009517957
0.0001782384
-0.002045607
-0.001334357
-0.0008965539
0.0002252614
-0.0005697344
-0.001654274
0.0002169379
-1.15614e-06
0
0
0
0
0
-0.000198232
-0.0003967516
0.0005670347
-0.00097304
0.000684762
0.0003330575
0.0005965301
-0.0001071548
-0.0002818043
4.401449e-05
-0.0001339789
5.655264e-07
-2.356095e-06
0
0
0
0
0
0
0
0
0
0
0
0
0
0
0
-2.433147e-06
1.55999e-07
9.11345e-07
-1.725691e-06
0
0
0
0
0
0
0
0
0
0
0
0
0
0
0
-1.186281e-06
-3.332004e-06
-2.713126e-07
-3.755218e-06
-4.544013e-07
0
0
0
0
0
0
0
0
0
0
0
0
0
0
0
2.29796e-06
1.815451e-06
-1.109095e-06
2.672744e-06
8.140503e-09
-1.890634e-05
0
0
0
0
0
0
0
0
0
0
0
0
0
0
0
-2.003687e-06
7.557761e-07
-1.947197e-06
2.395404e-06
-3.794795e-06
-5.525585e-06
-3.067258e-06
0
0
0
0
0
0
0
0
0
0
0
0
0
0
0
1.35434e-06
4.208885e-07
-1.238991e-06
1.887385e-06
1.786747e-06
1.978967e-05
5.111865e-06
4.483412e-07
0
0
0
0
0
0
0
0
0
0
0
0
0
0
0
0
0
0
0
0
0
0
0
0
0
0
0
0
0
0
0
0
0
0
0
0
0
0
0
0
0.0004240273
0.0005361337
-0.001186228
-0.0002382931
2.454422e-05
0
0
0
0
0
-0.0002421864
0.002312128
0.001069191
0.0009500415
-0.0007046412
-0.000128476
0
0
0
0
0
0.0003178712
0.0008401694
-0.0004367535
0.002111712
-0.000474082
-0.001769449
-0.001969635
0
0
0
0
0
1.662843e-05
-0.000325416
-9.342751e-05
-0.0005792398
0.001306372
0.001340251
0.001677354
-0.001919348
0
0
0
0
0
4.055569e-05
-0.0009359352
0.0008017724
0.001194665
0.0002521471
0.001195379
-0.0009854658
0.00157029
0.001748054
0
0
0
0
0
0.0001177261
-0.001320805
-0.0004227634
-2.030504e-05
0.0003083875
-0.0008478148
-0.0004722502
0.0001422133
0.001406646
-0.0002082524
0
0
0
0
0
0.0004137744
-0.0003557054
-0.001119058
0.000288036
-4.730945e-05
0.001847441
0.0001297677
-0.001316435
0.002096863
-0.00109355
-0.0004535855
0
0
0
0
0
-0.0002431471
-0.0001690967
0.0002968326
-0.001101333
0.001704732
0.0006194502
0.0004806831
-0.001130856
-0.0003319781
0.0007416571
-0.0001728975
4.507132e-07
0
0
0
0
0
0.0006343509
0.0002514926
-0.001259188
0.00147226
-0.001193452
0.0009967722
-0.0005298477
-0.0008735273
0.0004049757
-0.0002687959
0.0003379122
-1.41258e-07
1.005438e-06
0
0
0
0
0
9.976833e-05
-8.940815e-05
-0.0003064084
0.0004905367
0.0003453096
-0.000142992
0.0004586538
-0.0001062085
-0.0001697418
-4.707991e-06
-7.903476e-05
9.7915e-07
-2.850784e-07
2.999896e-06
0
0
0
0
0
0
0
0
0
0
0
0
0
0
0
1.906239e-06
7.597769e-07
1.092787e-06
1.236981e-06
-1.339924e-06
0
0
0
0
0
0
0
0
0
0
0
0
0
0
0
1.655777e-08
2.45608e-06
-1.552507e-06
-1.212037e-06
1.752819e-06
6.593439e-06
0
0
0
0
0
0
0
0
0
0
0
0
0
0
0
2.84532e-07
-3.0407e-06
-2.089952e-06
1.17995e-06
-6.154551e-07
-9.427656e-06
-1.89562e-05
0
0
0
0
0
0
0
0
0
0
0
0
0
0
0
-1.113108e-06
1.607107e-06
-1.08023e-06
2.364657e-06
-4.253676e-06
-1.959669e-05
-1.281133e-05
-7.310348e-06
0
0
0
0
0
0
0
0
0
0
0
0
0
0
0
-5.427923e-07
1.385504e-06
1.505731e-06
1.209314e-06
-2.945432e-08
6.940087e-07
-1.589014e-06
-1.283418e-05
-1.110766e-05
0
0
0
0
0
0
0
0
0
0
0
0
0
0
0
0
0
0
0
0
0
0
0
0
0
0
0
0
0
0
0
0
0
0
0
0
0
0
0
0
0
0
0
0
0
0.0003393396
-0.0006027822
-0.0009203836
0.0004322658
0.0005056872
0.0002710853
0
0
0
0
0
-0.000132169
-1.985435e-05
-0.0006059985
-0.001329373
0.0008222518
0.0006697882
-0.0002622065
0
0
0
0
0
-0.0001570196
0.0006783003
-0.0009477021
-0.0006405022
-0.001274814
0.00107004
-0.0001711608
0.001687471
0
0
0
0
0
0.0002327214
-0.0002883134
-0.0001160587
-0.001048491
-0.0002362302
0.0001040705
0.0004617211
4.309688e-05
0.001884542
0
0
0
0
0
0.0003226506
0.0009392418
0.001147738
-0.002018482
0.0005054777
-0.0003747725
0.001310331
0.001077062
-0.001021143
-0.0007791816
0
0
0
0
0
-0.000455096
-0.00118921
0.0008867357
0.001361638
0.0004044072
-0.0003823041
0.001300308
2.18657e-05
-0.003460833
0.000642246
-0.0001106988
0
0
0
0
0
0.0006843784
-0.0003607348
-0.0008047048
0.0007465713
-0.0004181384
0.0003068025
-0.001256318
0.001649124
0.0002241394
-0.0007252061
-0.0001659181
-1.246331e-06
0
0
0
0
0
0.0001914299
2.212156e-05
0.001212431
0.0003180313
-0.0001346867
-0.0008742947
-0.0009720726
0.0005027728
-0.001703693
0.0006416126
9.879706e-05
-1.377385e-06
4.426802e-06
0
0
0
0
0
-0.000374571
0.0003400485
0.001918807
5.367606e-05
-0.0006029725
0.00033804
-0.001331887
0.001052335
-0.0005217661
-0.0003425269
0.0002547137
-3.089362e-06
-8.752209e-07
-1.168417e-07
0
0
0
0
0
-0.0001163276
-0.0001986072
-0.0007382763
0.0009568862
4.087019e-05
0.0002603826
-9.928605e-05
-0.0008796145
-0.0002997614
0.0004579168
3.139375e-06
-7.885324e-08
-2.13268e-06
-2.192448e-06
-5.277263e-09
0
0
0
0
0
0
0
0
0
0
0
0
0
0
0
8.374493e-07
-3.169793e-06
-3.159805e-06
-3.373348e-06
-2.393773e-06
-2.285972e-06
0
0
0
0
0
0
0
0
0
0
0
0
0
0
0
-4.642353e-07
-5.368038e-07
-5.704226e-07
-4.199938e-07
7.411686e-08
2.20091e-05
9.123715e-06
0
0
0
0
0
0
0
0
0
0
0
0
0
0
0
-3.027273e-07
-4.225189e-07
9.460045e-07
1.661658e-06
-1.092776e-07
2.74221e-06
-9.397516e-06
2.883251e-05
0
0
0
0
0
0
0
0
0
0
0
0
0
0
0
-8.760496e-08
-2.410856e-07
4.479868e-07
1.935913e-06
-1.244629e-06
2.640258e-05
1.1431e-05
3.118207e-05
2.652167e-05
0
0
0
0
0
0
0
0
0
0
0
0
0
0
0
1.310728e-06
-8.106681e-07
-2.385925e-06
1.287318e-06
-7.796774e-07
-1.34163e-05
1.947155e-05
-1.470109e-05
4.370843e-06
-3.560217e-06
0
0
0
0
0
0
0
0
0
0
0
0
0
0
0
0
0
0
0
0
0
0
0
0
0
0
0
0
0
0
0
0
0
0
0
0
0
0
0
0
0
0
0
0
0
0
0
0
0
0
-4.298317e-05
-0.0001129735
-0.0003769507
0.000629046
-0.0002925652
0.000223753
-0.0004180763
0
0
0
0
0
0.0002546996
-0.000368067
-0.0003052874
0.0002655128
0.001788728
-0.0002562747
1.448888e-05
4.076838e-05
0
0
0
0
0
-0.001132918
0.0009255212
-2.992993e-06
0.002482479
0.002539701
-0.0004183003
-0.002376546
-0.001523093
0.0006404434
0
0
0
0
0
-0.0006009849
-0.001339337
0.0008050782
8.415091e-06
-0.0007482552
-0.00102995
-0.000296643
-0.001270262
0.0007666724
-0.0008650178
0
0
0
0
0
0.0007155843
-0.0002171284
0.0002140379
8.719473e-06
0.0009932427
0.000348019
-0.0004848971
0.000165537
0.001760821
0.0004811043
0.0001826519
0
0
0
0
0
-0.0004234813
0.0002124073
0.001023444
-0.0008573838
-0.001437579
-0.0004437895
-0.0002704763
-0.001291414
0.002054479
0.002220255
-0.00042673
9.648023e-07
0
0
0
0
0
-0.0004711254
0.0001049304
0.0006583392
-0.0001114263
0.0002155161
0.001602374
0.0007756186
0.001598418
0.001081665
-0.000382098
-9.164695e-06
8.96202e-07
-4.23022e-07
0
0
0
0
0
-0.0001133747
-0.00117308
-0.0005432565
0.001100258
-6.491178e-05
0.0004377043
0.001017132
-0.0007656889
0.000799809
7.788818e-05
3.922544e-05
-2.70089e-06
3.276496e-06
-9.270205e-07
0
0
0
0
0
-0.0001630362
0.0006081095
0.0006428451
-0.001413532
-0.001395739
-0.0005956376
0.0002656911
0.0006070063
0.0009197689
0.000239056
-0.0001282696
-8.466955e-07
4.78042e-07
1.727615e-06
2.437524e-06
0
0
0
0
0
-6.205051e-06
0.0004186456
-0.0008229545
0.001127596
-0.0006472323
0.0001795904
-0.0005258765
0.0005228191
0.0004451413
0.0004319649
-0.0001238864
1.420841e-06
1.795631e-07
2.57065e-06
1.042448e-06
1.514249e-07
0
0
0
0
0
0
0
0
0
0
0
0
0
0
0
-1.425128e-06
-1.306209e-06
1.539469e-06
8.682373e-07
-2.067373e-06
-6.279068e-06
2.107205e-05
0
0
0
0
0
0
0
0
0
0
0
0
0
0
0
-2.101619e-07
2.476273e-07
2.92109e-07
2.126297e-06
-2.300765e-06
6.019065e-06
-1.485675e-05
-7.402605e-06
0
0
0
0
0
0
0
0
0
0
0
0
0
0
0
-5.885219e-07
6.857505e-07
6.9484e-07
-9.725756e-07
-1.226599e-06
-2.347753e-05
-9.655654e-06
5.769015e-06
-3.114447e-06
0
0
0
0
0
0
0
0
0
0
0
0
0
0
0
1.644769e-06
1.44212e-06
-2.719948e-06
-1.815959e-07
-2.044021e-06
-1.442494e-05
-4.805054e-05
-1.151439e-05
-2.327224e-05
-2.048725e-05
0
0
0
0
0
0
0
0
0
0
0
0
0
0
0
-7.276391e-07
3.374083e-08
-1.146164e-06
2.250333e-06
-2.52886e-06
-4.56989e-06
1.364243e-05
-1.246296e-06
1.224095e-05
9.121572e-09
-66872.66
0
0
0
0
0
0
0
0
0
0
0
0
0
0
0
0
0
0
0
0
0
0
0
0
0
0
0
0
0
0
0
0
0
0
0
0
0
0
0
0
0
0
0
0
0
0
0
0
0
0
0
0
0
0
0
1.291256e-06
0.0002797897
0.0005255854
0.0009749619
-0.0005184169
-0.001293883
-8.329317e-05
-0.0001341486
0
0
0
0
0
0.0008455335
-0.0008318582
1.247988e-05
-0.0008012132
-0.001027482
0.00110017
0.001425038
0.0001996493
-0.001445776
0
0
0
0
0
-0.0004294658
0.001397247
-0.0002977949
-0.0005209404
2.800003e-05
-1.134466e-05
-0.0009036647
0.00100226
0.001105953
-0.0002257751
0
0
0
0
0
-0.00020033
0.0008373062
4.656781e-05
-0.001578835
-0.000206393
0.0003861749
0.0004959371
-0.001606675
-2.4976e-05
-0.0008769469
-4.358037e-05
0
0
0
0
0
0.0005353845
-0.0009243291
-0.000714559
0.0008436018
0.0003405904
-0.001241045
-0.0006603044
0.000668182
-0.001592668
-0.001870286
-0.000413968
3.510074e-06
0
0
0
0
0
0.0004467
-0.0003961104
-0.0008636943
6.427661e-05
0.0004284965
5.714425e-05
-0.001255919
3.399176e-05
-0.0008371174
-0.0009901125
-0.0007223491
2.383141e-06
3.565305e-06
0
0
0
0
0
0.0003912924
0.001338595
-0.000500095
-0.002330423
0.0001047952
-0.001080168
-0.002490602
0.0004556683
-0.0005314592
0.0008059376
7.310146e-05
7.959226e-07
-1.584778e-06
-1.653859e-06
0
0
0
0
0
-0.0004910529
0.001033582
-0.0002923499
-0.001490421
0.001086484
-0.0003428012
-0.0007759062
-0.0002262539
0.0006948883
-0.0001520552
-0.0002488962
-3.41496e-06
1.310867e-06
1.543883e-06
1.536567e-06
0
0
0
0
0
0.0004126291
0.000599729
0.0001006979
-0.001542706
0.001260073
0.0002986661
0.0004915095
-0.001365973
-0.0007832172
-0.001672437
0.0001927858
1.359585e-06
-1.081832e-06
-4.437438e-06
-1.481072e-06
5.646342e-06
0
0
0
0
0
-0.0003740697
0.0001263181
-0.0001049548
0.0005205627
-4.535844e-05
-0.0003347591
0.0001296373
0.0002410546
-0.0004270182
0.0001894577
-1.352848e-05
-1.197637e-06
-7.971714e-07
-1.199549e-06
-9.830339e-07
-1.525575e-05
-8.297894e-06
0
0
0
0
0
0
0
0
0
0
0
0
0
0
0
-5.482487e-07
5.911412e-07
7.730875e-07
-1.864215e-06
-6.927977e-07
-1.531847e-05
1.763114e-05
4.783264e-06
0
0
0
0
0
0
0
0
0
0
0
0
0
0
0
1.401481e-06
1.106649e-06
2.615187e-06
1.39232e-06
6.517939e-07
1.64028e-05
1.227299e-05
2.871414e-06
-8.529532e-06
0
0
0
0
0
0
0
0
0
0
0
0
0
0
0
2.647408e-06
-8.072787e-07
3.493752e-07
-2.831962e-06
-1.105324e-06
8.800107e-06
2.054747e-05
2.007026e-05
-8.502622e-06
-3.191195e-06
0
0
0
0
0
0
0
0
0
0
0
0
0
0
0
8.762285e-07
3.305233e-06
-4.144762e-07
5.202772e-07
-1.339862e-06
-7.825539e-06
7.742597e-06
3.418323e-05
4.999006e-06
1.128814e-05
-67442.75
0
0
0
0
0
0
0
0
0
0
0
0
0
0
0
-3.748238e-07
7.833311e-07
-3.096618e-07
1.612648e-07
1.438468e-06
-8.612366e-06
4.459641e-06
-4.726297e-06
-2.715269e-05
-4.47016e-06
-62304.37
-67400.75
0
0
0
0
0
0
0
0
0
0
0
0
0
0
0
0
0
0
0
0
0
0
0
0
0
0
0
0
0
0
0
0
0
0
0
0
0
0
0
0
0
0
0
0
0
0
0
0
0
0
0
0
0
0
0
0
0
0
0
0
-0.0001403278
0.0004922241
-0.0004140676
-4.543392e-05
-0.001084385
-8.409444e-06
0.0009129809
0.0002347656
0.0008107507
0
0
0
0
0
0.0005091369
-0.001633938
0.0006765946
-4.10737e-05
0.0003905268
0.0005693449
-0.0007413947
-0.0002761497
0.0001605534
0.0003219965
0
0
0
0
0
0.0001167007
0.000648324
-0.000801855
0.0008292033
0.0006324404
0.0004520416
0.0001008321
0.0008163331
-0.0002892222
-0.0006398718
0.0001328064
0
0
0
0
0
-0.0004826802
0.001308184
0.0009867138
-0.0006946003
0.0001894151
0.0001808713
0.0008246823
7.033558e-05
0.001757018
0.001248158
0.0004513306
-8.013176e-08
0
0
0
0
0
0.0001641842
0.001252356
0.00070474
0.001493479
-0.0008829774
0.0008786605
0.000796668
-0.0006437064
-0.0004853566
0.001323054
0.0001341541
-7.12307e-07
-3.084382e-06
0
0
0
0
0
-0.0001535307
-0.0009687794
0.0006189826
0.000698736
-0.000492542
0.0002089399
0.001666852
0.001605043
-0.002170043
0.0005551134
0.0003780866
2.205225e-06
-7.184055e-07
-6.457928e-06
0
0
0
0
0
0.0008307464
-0.000318721
0.000208814
0.001715001
0.001065925
0.001155742
0.00223936
0.000183436
-0.000269949
-0.000823276
-0.0001420006
2.11129e-06
-2.280316e-06
-2.703307e-06
-4.09415e-07
0
0
0
0
0
-0.0002130791
-0.0002568654
-0.000263651
-0.0001618288
-0.000841593
6.914902e-05
0.001382612
-0.0001087774
0.0006608151
-0.0001405345
0.0002544147
2.979885e-08
2.796099e-06
-2.776225e-06
-2.395508e-06
-1.434175e-05
0
0
0
0
0
0.0002142601
-0.001670436
-0.0006227837
-5.524232e-05
0.0006262145
0.0001330633
-0.0007403891
-0.001076415
0.0002526729
-6.614641e-05
0.0005823539
1.013716e-06
-2.720914e-06
2.815947e-06
1.179779e-06
9.280555e-06
-9.280689e-06
0
0
0
0
0
-0.0001100642
0.0008554821
8.93822e-06
-0.0006339422
0.0001962559
-9.821237e-05
2.293783e-07
-0.0001895055
0.0002533136
0.0005253781
-6.755522e-05
2.857536e-06
3.615695e-07
-1.833685e-06
-3.734161e-07
-1.699019e-05
9.906075e-06
1.008815e-05
0
0
0
0
0
0
0
0
0
0
0
0
0
0
0
-3.006845e-06
-8.222477e-07
1.604262e-06
1.076127e-06
8.390381e-08
-1.071325e-05
1.772799e-05
-1.270109e-05
-2.050718e-05
0
0
0
0
0
0
0
0
0
0
0
0
0
0
0
4.110451e-07
-1.952382e-06
1.008069e-06
1.38456e-06
5.551549e-07
1.642261e-05
-2.884236e-05
-1.079821e-05
-2.169218e-05
-5.18491e-06
0
0
0
0
0
0
0
0
0
0
0
0
0
0
0
9.728023e-07
-1.478711e-06
-1.500512e-06
-1.359498e-06
-3.058973e-07
-5.413308e-06
-1.233699e-05
-7.971465e-06
-1.537828e-05
2.312181e-05
-68608.88
0
0
0
0
0
0
0
0
0
0
0
0
0
0
0
2.220438e-06
-5.328941e-07
8.72874e-07
2.456228e-06
-2.226921e-06
5.618835e-06
2.195345e-06
1.798459e-05
-1.302631e-05
2.037012e-06
-62676.25
-67979.91
0
0
0
0
0
0
0
0
0
0
0
0
0
0
0
1.924842e-06
6.009755e-07
-6.078877e-07
1.369677e-06
-7.45742e-08
-3.68164e-06
-3.055313e-06
-7.586788e-06
6.370473e-06
2.195716e-05
-58557.64
-62776.47
-68777.8
0
0
0
0
0
0
0
0
0
0
0
0
0
0
0
0
0
0
0
0
0
0
0
0
0
0
0
0
0
0
0
0
0
0
0
0
0
0
0
0
0
0
0
0
0
0
0
0
0
0
0
0
0
0
0
0
0
0
0
0
0
0
0
0
0
-0.0002917303
0.0004146521
-0.0006802586
-0.0001189264
-0.0001778937
0.0003190483
0.0005285589
-0.0003680581
-0.0005827143
-0.0003276409
0
0
0
0
0
0.0005236292
0.0007779354
0.001115095
-0.000854807
-0.0005762302
-0.001476241
-0.001263923
0.0005176723
-0.001275525
3.366717e-05
6.528443e-05
0
0
0
0
0
0.0005841195
-0.001172468
-0.0005630382
0.0002461699
0.0001363842
-3.632011e-05
-0.001470399
-0.0005596558
0.00114196
3.118147e-05
0.000221432
-7.927257e-07
0
0
0
0
0
3.039658e-06
-0.001716944
-0.003059306
-0.002190095
0.002563196
-0.0002126182
-0.001286034
6.922496e-05
0.0001834422
-0.0008047233
-0.000444649
-2.906447e-06
-1.514794e-06
0
0
0
0
0
0.0004866846
-0.0005341124
-0.001000978
0.0008553675
-0.00113264
-0.000327942
-0.00148015
-0.0004271837
0.00182206
0.0001023738
2.510751e-06
-3.916668e-07
2.346389e-07
-4.603056e-06
0
0
0
0
0
-0.0003692755
-0.0005986373
0.0006610052
-0.00201651
-8.830115e-06
-0.001106476
-0.001078369
-0.001503123
-0.001302195
0.001313314
-0.0006070262
1.603727e-06
-2.678147e-06
-1.153729e-06
-8.441469e-07
0
0
0
0
0
-0.0003007086
0.0002958838
0.0001991052
-0.001423137
-0.000311903
-0.0005998791
-0.0005163911
-0.0008963629
0.0007918064
0.001343572
-0.0002252387
-2.543687e-06
-2.559145e-06
1.685198e-06
6.492154e-07
-4.902749e-06
0
0
0
0
0
-0.0003493574
0.001396903
0.001377491
-0.000230193
7.236077e-05
-0.0006729891
0.0009321906
0.0004685371
0.001423298
0.0008824242
5.477604e-06
1.443829e-07
1.301396e-06
-9.86492e-07
-8.712438e-07
1.914403e-05
2.281429e-05
0
0
0
0
0
0.000303027
-0.0008515788
0.0007753969
0.0004179113
-8.036844e-05
-0.0005748652
0.001432873
0.00168818
-0.0001128672
-4.847058e-05
-4.834846e-05
1.506239e-06
-5.750081e-07
1.586948e-06
-1.094499e-06
1.493107e-06
-3.588153e-06
1.039579e-05
0
0
0
0
0
-0.000266925
0.0002576007
-5.58595e-05
0.0006623586
0.0006813332
0.0001219638
-0.0006689285
-0.0003057113
-0.0002327442
-0.0002847898
-4.133543e-05
-4.976453e-07
-9.917598e-07
2.330065e-06
4.544084e-07
9.943607e-06
2.421974e-05
-2.195375e-06
-8.266031e-06
0
0
0
0
0
0
0
0
0
0
0
0
0
0
0
-1.203977e-06
3.058044e-06
-3.591997e-06
-2.183276e-06
-1.739334e-06
-1.905849e-05
1.381295e-05
-8.038479e-06
4.773581e-06
1.508697e-05
0
0
0
0
0
0
0
0
0
0
0
0
0
0
0
-1.576133e-06
-2.170937e-06
-1.383594e-06
1.393588e-06
9.008122e-07
1.81916e-05
-1.911552e-05
1.772518e-05
-7.282171e-06
1.482342e-05
-70364.18
0
0
0
0
0
0
0
0
0
0
0
0
0
0
0
1.416452e-06
-2.21252e-07
9.39141e-07
-2.358158e-07
-2.440656e-06
2.291169e-06
-5.046876e-06
4.529217e-06
1.185047e-05
7.697213e-06
-63415.07
-69164.22
0
0
0
0
0
0
0
0
0
0
0
0
0
0
0
7.535904e-07
-2.77849e-06
4.03566e-06
8.35911e-07
-3.492543e-06
1.635438e-05
9.231171e-06
-2.454319e-05
-2.873343e-05
9.550755e-06
-58848.32
-63154.57
-69379.05
0
0
0
0
0
0
0
0
0
0
0
0
0
0
0
-1.251251e-06
-4.943631e-06
-7.057712e-07
4.023262e-07
-1.272987e-07
-1.930448e-05
-1.09297e-05
2.458209e-05
-5.706019e-06
3.020103e-07
-55563.59
-58986.68
-63995.78
-71042.56
0
0
0
0
0
0
0
0
0
0
0
0
0
0
0
0
0
0
0
0
0
0
0
0
0
0
0
0
0
0
0
0
0
0
0
0
0
0
0
0
0
0
0
0
0
0
0
0
0
0
0
0
0
0
0
0
0
0
0
0
0
0
0
0
0
0
0
0
0
0
-5.206278e-06
0.0001924856
-0.0002585302
0.000774177
0.0009815451
0.0001699308
0.0003892462
-5.817775e-05
0.0005857851
0.0003595608
-6.703384e-05
0
0
0
0
0
-1.781096e-05
-0.000530885
-0.001123283
0.0002201569
-0.0007604582
-0.001261178
0.002140733
0.0005507423
-0.001102285
0.0004446664
-0.000204317
5.653558e-07
0
0
0
0
0
-0.0002759298
0.0002077996
0.001452316
0.001878089
-0.0007095412
0.0001507477
0.001907334
-0.001280002
-0.0001914944
-0.00128388
-0.0005731899
1.516555e-06
-1.490568e-06
0
0
0
0
0
-0.000451613
6.634334e-05
3.437359e-05
0.001314808
0.001573295
-0.0008218967
0.0001364612
0.0008671245
-0.0001135424
-7.094433e-05
-3.528843e-05
3.039808e-06
-1.912484e-06
-1.506036e-06
0
0
0
0
0
0.0007674973
0.0004917804
-0.001751875
0.000762225
-0.0001746279
0.001179289
0.0009237042
0.0005237332
-0.0008370982
9.041443e-06
-7.215712e-05
6.361465e-07
1.35659e-06
2.525284e-06
2.57815e-06
0
0
0
0
0
-0.0003164929
-0.0009042579
-0.002229442
-0.0001846837
0.001787551
-0.0004741278
0.0004286182
0.0006589487
0.002506543
-0.0009176367
-0.0004456722
1.959645e-06
1.978108e-06
-2.127265e-06
2.084441e-06
7.696876e-06
0
0
0
0
0
-0.0005101895
0.0003351428
-0.0002229056
0.0006858702
0.0002924463
0.000672547
-0.0008927511
-0.0005161553
-2.0533e-05
-0.001910051
-0.0004088383
1.441046e-06
2.276842e-06
-1.296597e-06
4.140807e-07
9.113494e-06
1.687866e-06
0
0
0
0
0
8.368664e-05
0.001788158
-0.002011935
-0.001014232
0.0008770052
0.0001538393
-0.0008946586
-0.001246658
-0.002072066
-0.001608338
-0.0003797185
1.284707e-06
-1.665169e-06
7.472138e-08
2.142247e-06
-5.848801e-06
-2.302303e-05
-1.976254e-05
0
0
0
0
0
-0.0003674561
-0.0008149646
-0.0006564679
-0.0001260411
0.0006582437
-0.001621964
0.0005901683
0.0007998906
-0.001263338
0.0005443537
0.0003225849
3.73007e-06
5.899632e-07
-9.543558e-07
1.633399e-06
-2.211517e-05
1.705568e-06
-3.784066e-06
-2.837913e-05
0
0
0
0
0
-0.0002810792
0.0002080825
0.0002482027
0.00103175
-0.0005071454
-4.34886e-05
-0.0003004112
0.000136028
0.0003905367
0.0002482424
0.0001054996
-2.389506e-06
1.199321e-06
3.550428e-06
8.619857e-07
-4.23601e-09
-1.312626e-05
-2.668019e-05
-4.375156e-06
4.553068e-06
0
0
0
0
0
0
0
0
0
0
0
0
0
0
0
5.114567e-07
3.770212e-06
2.334361e-06
2.191813e-07
3.095719e-06
1.726362e-05
2.002775e-05
-4.066508e-06
-4.947786e-06
5.62906e-06
-72641.79
0
0
0
0
0
0
0
0
0
0
0
0
0
0
0
-6.92093e-07
-8.481593e-07
4.406265e-06
-1.606396e-06
1.236155e-06
1.797547e-05
-2.441438e-05
1.390202e-05
2.275759e-06
4.84862e-06
-64460.97
-70945.8
0
0
0
0
0
0
0
0
0
0
0
0
0
0
0
-3.083729e-06
8.375275e-07
-1.798177e-06
2.830361e-06
2.009947e-07
-9.643926e-06
-4.151224e-06
2.523953e-05
-1.976932e-05
-1.075286e-05
-59417.94
-63905.82
-70608.26
0
0
0
0
0
0
0
0
0
0
0
0
0
0
0
1.071263e-06
2.141272e-06
5.438968e-06
1.932369e-06
6.785533e-07
1.313421e-05
-1.278494e-06
-2.609038e-05