/*--------------------------------*- C++ -*----------------------------------*\
| =========                 |                                                 |
| \\      /  F ield         | OpenFOAM: The Open Source CFD Toolbox           |
|  \\    /   O peration     | Version:  2306                                  |
|   \\  /    A nd           | Website:  www.openfoam.com                      |
|    \\/     M anipulation  |                                                 |
\*---------------------------------------------------------------------------*/
FoamFile
{
    version     2.0;
    format      ascii;
    arch        "LSB;label=32;scalar=64";
    class       volScalarField;
    location    "0.3";
    object      k;
}
// * * * * * * * * * * * * * * * * * * * * * * * * * * * * * * * * * * * * * //

dimensions      [1 1 -3 -1 0 0 0];

internalField   nonuniform List<scalar> 
52000
(
20
20
20
20
20
20
20
20
20
20
20
20
20
20
20
20
20
20
20
20
20
20
20
20
20
20
20
20
20
20
20
20
20
20
20
20
20
20
20
20
20
20
20
20
20
20
20
20
20
20
20
20
20
20
20
20
20
20
20
20
20
20
20
20
20
20
20
20
20
20
20
20
20
20
20
20
20
20
20
20
20
20
20
20
20
20
20
20
20
20
20
20
20
20
20
20
20
20
20
20
20
20
20
20
20
20
20
20
20
20
20
20
20
20
20
20
20
20
20
20
20
20
20
20
20
20
20
20
20
20
20
20
20
20
20
20
20
20
20
20
20
20
20
20
20
20
20
20
20
20
20
20
20
20
20
20
20
20
20
20
20
20
20
20
20
20
20
20
20
20
20
20
20
20
20
20
20
20
20
20
20
20
20
20
20
20
20
20
20
20
20
20
20
20
20
20
20
20
20
20
20
20
20
20
20
20
20
20
20
20
20
20
20
20
20
20
20
20
20
20
20
20
20
20
20
20
20
20
20
20
20
20
20
20
20
20
20
20
20
20
0.08277673
20
20
20
20
20
20
20
20
20
20
20
20
20
20
20
20
20
20
20
20
20
20
20
20
20
20
20
20
20
20
20
20
20
20
20
20
20
20
20
20
20
20
20
20
20
20
20
20
20
20
20
20
20
20
20
20
20
20
20
20
20
20
20
20
20
0.08218639
20
20
20
20
20
0.08346888
0.08217592
20
20
20
20
20
20
20
20
20
20
20
20
20
20
20
20
20
20
20
20
20
20
20
20
20
20
20
20
20
20
20
20
20
20
20
20
20
20
20
20
20
20
20
20
20
20
20
20
20
20
20
20
20
20
20
20
20
20
20
20
20
20
20
20
20
20
20
20
20
20
0.08185628
20
20
20
20
20
0.08333602
0.08072834
20
20
20
20
20
0.08365414
0.08333463
0.08183714
20
20
20
20
20
20
20
20
20
20
20
20
20
20
20
20
20
20
20
20
20
20
20
20
20
20
20
20
20
20
20
20
20
20
20
20
20
20
20
20
20
20
20
20
20
20
20
20
20
20
20
20
20
20
20
20
20
20
20
20
20
20
20
20
20
20
20
20
20
20
20
20
20
20
20
0.08166763
20
20
20
20
20
0.08322075
0.07981706
20
20
20
20
20
0.08360504
0.08294262
0.0798025
20
20
20
20
20
0.08380592
0.08360865
0.08321918
0.08163862
20
20
20
20
20
20
20
20
20
20
20
20
20
20
20
20
20
20
20
20
20
20
20
20
20
20
20
20
20
20
20
20
20
20
20
20
20
20
20
20
20
20
20
20
20
20
20
20
20
20
20
20
20
20
20
20
20
20
20
20
20
20
20
20
20
20
20
20
20
20
20
20
20
20
20
20
20
20
20
20
0.08157983
20
20
20
20
20
0.08313587
0.07926787
20
20
20
20
20
0.08356086
0.08259823
0.07842577
20
20
20
20
20
0.0837838
0.08346573
0.082595
0.07922898
20
20
20
20
20
0.08394187
0.08378917
0.08356908
0.08313447
0.08153802
20
20
20
20
20
20
20
20
20
20
20
20
20
20
20
20
20
20
20
20
20
20
20
20
20
20
20
20
20
20
20
20
20
20
20
20
20
20
20
20
20
20
20
20
20
20
20
20
20
20
20
20
20
20
20
20
20
20
20
20
20
20
20
20
20
20
20
20
20
20
20
20
20
20
20
20
20
20
20
20
20
20
20
20
20
0.08157983
20
20
20
20
20
0.08309089
0.07900677
20
20
20
20
20
0.08352704
0.08234262
0.07755766
20
20
20
20
20
0.08376435
0.08333542
0.08203716
0.07752415
20
20
20
20
20
0.08392945
0.08372804
0.0833397
0.08233277
0.07892971
20
20
20
20
20
0.084067
0.08393512
0.08377595
0.08354129
0.08309005
0.08152109
20
20
20
20
20
20
20
20
20
20
20
20
20
20
20
20
20
20
20
20
20
20
20
20
20
20
20
20
20
20
20
20
20
20
20
20
20
20
20
20
20
20
20
20
20
20
20
20
20
20
20
20
20
20
20
20
20
20
20
20
20
20
20
20
20
20
20
20
20
0.3585662
20
20
20
20
20
20
20
20
20
20
20
20
20
20
20
20
20
20
20
20
0.08166763
20
20
20
20
20
0.08309089
0.07900677
20
20
20
20
20
0.08350865
0.08220663
0.07713458
20
20
20
20
20
0.08374962
0.08323485
0.08161771
0.07641545
20
20
20
20
20
0.08391892
0.08367317
0.08312729
0.08160663
0.07704103
20
20
20
20
20
0.08405835
0.08390315
0.0836801
0.08324426
0.08218656
0.07887544
20
20
20
20
20
0.0841836
0.08406382
0.08393108
0.08376919
0.08353079
0.08309196
0.08158714
20
20
20
20
20
20
20
20
20
20
20
20
20
20
20
20
20
20
20
20
20
20
20
20
20
20
20
20
20
20
20
20
20
20
20
20
20
20
20
20
20
20
20
20
20
20
20
20
20
20
20
20
20
20
20
20
20
0.3585584
20
20
20
20
20
20
20
20
20
20
20
20
20
20
20
0.3586695
0.3586202
20
20
20
20
20
20
20
20
20
20
20
20
20
20
20
20
20
20
20
20
0.08185628
20
20
20
20
20
0.08313587
0.07926787
20
20
20
20
20
0.08350865
0.08220663
0.07713458
20
20
20
20
20
0.08374165
0.08317991
0.08139295
0.07586547
20
20
20
20
20
0.08391116
0.0836312
0.08296142
0.08105486
0.07579182
20
20
20
20
20
0.08405125
0.08387534
0.0835925
0.08296574
0.08136184
0.07695055
20
20
20
20
20
0.08417654
0.0840429
0.08388282
0.08364749
0.08319618
0.08217499
0.07906454
20
20
20
20
20
0.08429301
0.08418164
0.08406297
0.08393156
0.08377146
0.08354146
0.08314233
0.08174781
20
20
20
20
20
20
20
20
20
20
20
20
20
20
20
20
20
20
20
20
20
20
20
20
20
20
20
20
20
20
20
20
20
20
20
20
20
20
20
20
20
20
20
20
0.358542
20
20
20
20
20
20
20
20
20
20
20
20
20
20
20
0.3586643
0.3586111
20
20
20
20
20
20
20
20
20
20
20
20
20
20
20
0.3587673
0.3587191
0.3586754
20
20
20
20
20
20
20
20
20
20
20
20
20
20
20
20
20
20
20
20
0.08218639
20
20
20
20
20
0.08322075
0.07981706
20
20
20
20
20
0.08352704
0.08234262
0.07755766
20
20
20
20
20
0.08374165
0.08317991
0.08139295
0.07586547
20
20
20
20
20
0.08390702
0.08360835
0.08287022
0.0807572
0.07516587
20
20
20
20
20
0.08404612
0.08385464
0.0835246
0.08274619
0.08073105
0.07567257
20
20
20
20
20
0.08417082
0.08402525
0.08384002
0.08353466
0.08287982
0.08133607
0.07725259
20
20
20
20
20
0.08428673
0.08416514
0.08403253
0.08387243
0.08363752
0.083207
0.08230342
0.07952084
20
20
20
20
20
0.08439612
0.08429147
0.08418183
0.08406582
0.08393795
0.08378467
0.08357489
0.08323981
0.08203754
20
20
20
20
20
20
20
20
20
20
20
20
20
20
20
20
20
20
20
20
20
20
20
20
20
20
20
20
20
20
0.3585144
20
20
20
20
20
20
20
20
20
20
20
20
20
20
20
0.3586538
0.3585914
20
20
20
20
20
20
20
20
20
20
20
20
20
20
20
0.3587628
0.3587138
0.3586653
20
20
20
20
20
20
20
20
20
20
20
20
20
20
20
0.3588565
0.358811
0.3587694
0.358732
20
20
20
20
20
20
20
20
20
20
20
20
20
20
20
20
20
20
20
20
0.08277673
20
20
20
20
20
0.08333602
0.08072834
20
20
20
20
20
0.08356086
0.08259823
0.07842577
20
20
20
20
20
0.08374962
0.08323485
0.08161771
0.07641545
20
20
20
20
20
0.08390702
0.08360835
0.08287022
0.0807572
0.07516587
20
20
20
20
20
0.08404343
0.08384356
0.08348734
0.08262478
0.08038934
0.07503068
20
20
20
20
20
0.08416676
0.08401248
0.08380772
0.08344618
0.08262883
0.08069328
0.07606021
20
20
20
20
20
0.08428168
0.08415149
0.08400639
0.08381917
0.08351192
0.0828892
0.08153771
0.07797005
20
20
20
20
20
0.08439032
0.08427701
0.08415836
0.08402989
0.08387553
0.08365552
0.08328042
0.08256405
0.08030948
20
20
20
20
20
0.0844936
0.08439473
0.08429196
0.08418531
0.08407331
0.08395135
0.08380996
0.08363096
0.08338197
0.08255337
20
20
20
20
20
20
20
20
20
20
20
20
20
20
20
0.3584596
20
20
20
20
20
20
20
20
20
20
20
20
20
20
20
0.3586381
0.3585558
20
20
20
20
20
20
20
20
20
20
20
20
20
20
20
0.3587539
0.3587033
0.3586432
20
20
20
20
20
20
20
20
20
20
20
20
20
20
20
0.3588524
0.3588068
0.3587642
0.3587213
20
20
20
20
20
20
20
20
20
20
20
20
20
20
20
0.3589391
0.3588949
0.3588554
0.3588206
0.3587901
20
20
20
20
20
20
20
20
20
20
20
20
20
20
20
20
20
20
20
20
20
20
20
20
20
0.08346888
0.08217592
20
20
20
20
20
0.08360504
0.08294262
0.0798025
20
20
20
20
20
0.08376435
0.08333542
0.08203716
0.07752415
20
20
20
20
20
0.08391116
0.0836312
0.08296142
0.08105486
0.07579182
20
20
20
20
20
0.08404343
0.08384356
0.08348734
0.08262478
0.08038934
0.07503068
20
20
20
20
20
0.08416465
0.08400577
0.08379028
0.08339728
0.08248949
0.08034468
0.07546435
20
20
20
20
20
0.08427811
0.0841418
0.08398725
0.08377845
0.08341251
0.08263613
0.08095245
0.07697043
20
20
20
20
20
0.08438566
0.08426515
0.08413864
0.08399858
0.08381848
0.08353304
0.08299909
0.08194939
0.07916265
20
20
20
20
20
0.08448816
0.08438141
0.08427159
0.08415827
0.0840371
0.08389485
0.08370393
0.08341271
0.0829379
0.08158353
20
20
20
20
20
0.08458599
0.08449228
0.08439527
0.08429551
0.08419285
0.0840862
0.08397265
0.0838483
0.08371088
0.08357413
0.3582012
20
20
20
20
20
20
20
20
20
20
20
20
20
20
20
0.3586188
0.3584828
20
20
20
20
20
20
20
20
20
20
20
20
20
20
20
0.3587412
0.358688
0.3586028
20
20
20
20
20
20
20
20
20
20
20
20
20
20
20
0.3588442
0.3587988
0.3587536
0.3586977
20
20
20
20
20
20
20
20
20
20
20
20
20
20
20
0.3589352
0.3588911
0.3588514
0.3588153
0.3587791
20
20
20
20
20
20
20
20
20
20
20
20
20
20
20
0.3590166
0.3589729
0.3589338
0.3589004
0.3588727
0.6336139
20
20
20
20
20
20
20
20
20
20
20
20
20
20
20
20
20
20
20
20
20
20
20
20
20
20
20
20
20
20
0.08365414
0.08333463
0.08183714
20
20
20
20
20
0.0837838
0.08346573
0.082595
0.07922898
20
20
20
20
20
0.08391892
0.08367317
0.08312729
0.08160663
0.07704103
20
20
20
20
20
0.08404612
0.08385464
0.0835246
0.08274619
0.08073105
0.07567257
20
20
20
20
20
0.08416465
0.08400577
0.08379028
0.08339728
0.08248949
0.08034468
0.07546435
20
20
20
20
20
0.08427626
0.08413679
0.08397712
0.08375629
0.08335726
0.08249536
0.0806356
0.07647669
20
20
20
20
20
0.08438236
0.08425681
0.08412453
0.08397537
0.08377431
0.08343526
0.08277439
0.08148154
0.0784439
20
20
20
20
20
0.08448377
0.08437051
0.08425465
0.08413527
0.08400505
0.08384212
0.08360108
0.08319999
0.08252937
0.08096295
20
20
20
20
20
0.08458084
0.08447976
0.08437655
0.08427226
0.08416643
0.08405587
0.08393219
0.08378272
0.08359579
0.08339857
0.3579332
20
20
20
20
20
0.0846737
0.08458471
0.08449281
0.0843987
0.08430278
0.08420505
0.08410526
0.08400319
0.08390319
0.08382842
0.3586234
0.3582838
20
20
20
20
20
20
20
20
20
20
20
20
20
20
20
0.3587288
0.3586702
0.3585259
20
20
20
20
20
20
20
20
20
20
20
20
20
20
20
0.3588327
0.3587883
0.3587383
0.3586555
20
20
20
20
20
20
20
20
20
20
20
20
20
20
20
0.3589275
0.358884
0.358844
0.3588047
0.3587549
20
20
20
20
20
20
20
20
20
20
20
20
20
20
20
0.3590129
0.3589694
0.3589304
0.3588966
0.3588673
0.6336076
20
20
20
20
20
20
20
20
20
20
20
20
20
20
20
0.3590897
0.3590466
0.3590073
0.3589733
0.358946
0.6336589
0.6336163
20
20
20
20
20
20
20
20
20
20
20
20
20
20
20
20
20
20
20
20
20
20
20
20
20
20
20
20
20
20
20
20
20
20
20
0.08380592
0.08360865
0.08321918
0.08163862
20
20
20
20
20
0.08392945
0.08372804
0.0833397
0.08233277
0.07892971
20
20
20
20
20
0.08405125
0.08387534
0.0835925
0.08296574
0.08136184
0.07695055
20
20
20
20
20
0.08416676
0.08401248
0.08380772
0.08344618
0.08262883
0.08069328
0.07606021
20
20
20
20
20
0.08427626
0.08413679
0.08397712
0.08375629
0.08335726
0.08249536
0.0806356
0.07647669
20
20
20
20
20
0.08438065
0.08425253
0.08411719
0.083963
0.08375009
0.08338064
0.08264924
0.08122902
0.07809411
20
20
20
20
20
0.08448066
0.08436288
0.08424267
0.08411866
0.08398097
0.08380062
0.08351777
0.08302844
0.0822178
0.08057735
20
20
20
20
20
0.08457667
0.08446952
0.08436104
0.08425275
0.08414366
0.08402825
0.08389219
0.08371333
0.08347064
0.08321586
0.3577241
20
20
20
20
20
0.08466881
0.08457284
0.0844752
0.08437739
0.08428036
0.08418414
0.08408773
0.08398901
0.08389175
0.083824
0.3585844
0.3580677
20
20
20
20
20
0.0847571
0.08467247
0.08458521
0.08449609
0.08440563
0.08431431
0.0842226
0.08413187
0.08404711
0.08399087
0.3587753
0.3586618
0.3583685
20
20
20
20
20
20
20
20
20
20
20
20
20
20
20
0.3588223
0.3587816
0.3587202
0.3585814
20
20
20
20
20
20
20
20
20
20
20
20
20
20
20
0.3589165
0.3588751
0.3588347
0.3587891
0.358713
20
20
20
20
20
20
20
20
20
20
20
20
20
20
20
0.3590055
0.3589627
0.358924
0.3588895
0.3588565
0.6335939
20
20
20
20
20
20
20
20
20
20
20
20
20
20
20
0.3590861
0.3590433
0.3590041
0.3589701
0.3589423
0.6336559
0.63361
20
20
20
20
20
20
20
20
20
20
20
20
20
20
20
0.359159
0.3591166
0.3590772
0.3590421
0.3590133
0.6336987
0.633661
0.6336187
20
20
20
20
20
20
20
20
20
20
20
20
20
20
20
20
20
20
20
20
20
20
20
20
20
20
20
20
20
20
20
20
20
20
20
20
20
20
20
20
0.08394187
0.08378917
0.08356908
0.08313447
0.08153802
20
20
20
20
20
0.08405835
0.08390315
0.0836801
0.08324426
0.08218656
0.07887544
20
20
20
20
20
0.08417082
0.08402525
0.08384002
0.08353466
0.08287982
0.08133607
0.07725259
20
20
20
20
20
0.08427811
0.0841418
0.08398725
0.08377845
0.08341251
0.08263613
0.08095245
0.07697043
20
20
20
20
20
0.08438065
0.08425253
0.08411719
0.083963
0.08375009
0.08338064
0.08264924
0.08122902
0.07809411
20
20
20
20
20
0.08447905
0.08435896
0.08423648
0.08410997
0.08396803
0.08377766
0.08347088
0.08293253
0.08204966
0.08039023
20
20
20
20
20
0.08457371
0.08446234
0.08435012
0.08423883
0.08412701
0.08400701
0.0838595
0.08365454
0.08336541
0.08307091
0.3575839
20
20
20
20
20
0.08466483
0.08456311
0.08446063
0.08435958
0.0842613
0.08416555
0.08406986
0.08396884
0.08386311
0.08378574
0.3585338
0.3578915
20
20
20
20
20
0.08475244
0.08466117
0.08456849
0.08447603
0.08438512
0.08429698
0.08421274
0.08413451
0.08406804
0.08403497
0.3587877
0.3586286
0.3581948
20
20
20
20
20
0.08483648
0.08475592
0.08467294
0.08458834
0.08450269
0.08441656
0.08433074
0.08424685
0.08417012
0.08412032
0.3588753
0.3588069
0.3587045
0.3584553
20
20
20
20
20
20
20
20
20
20
20
20
20
20
20
0.3589067
0.3588712
0.3588292
0.3587699
0.3586448
20
20
20
20
20
20
20
20
20
20
20
20
20
20
20
0.3589949
0.3589544
0.3589166
0.3588806
0.3588405
0.6335705
20
20
20
20
20
20
20
20
20
20
20
20
20
20
20
0.359079
0.3590369
0.3589982
0.3589642
0.3589352
0.6336497
0.6335963
20
20
20
20
20
20
20
20
20
20
20
20
20
20
20
0.3591555
0.3591134
0.3590741
0.3590392
0.3590102
0.6336966
0.633658
0.6336124
20
20
20
20
20
20
20
20
20
20
20
20
20
20
20
0.3592248
0.3591833
0.359144
0.3591082
0.3590775
0.6337354
0.6337006
0.6336632
0.6336211
20
20
20
20
20
20
20
20
20
20
20
20
20
20
20
20
20
20
20
20
20
20
20
20
20
20
20
20
20
20
20
20
20
20
20
20
20
20
20
20
20
20
20
20
20
0.084067
0.08393512
0.08377595
0.08354129
0.08309005
0.08152109
20
20
20
20
20
0.08417654
0.0840429
0.08388282
0.08364749
0.08319618
0.08217499
0.07906454
20
20
20
20
20
0.08428168
0.08415149
0.08400639
0.08381917
0.08351192
0.0828892
0.08153771
0.07797005
20
20
20
20
20
0.08438236
0.08425681
0.08412453
0.08397537
0.08377431
0.08343526
0.08277439
0.08148154
0.0784439
20
20
20
20
20
0.08447905
0.08435896
0.08423648
0.08410997
0.08396803
0.08377766
0.08347088
0.08293253
0.08204966
0.08039023
20
20
20
20
20
0.08457218
0.08445867
0.08434451
0.08423162
0.08411823
0.08399543
0.08384104
0.08362078
0.08330565
0.08299156
0.3575139
20
20
20
20
20
0.08466201
0.0845563
0.08445038
0.08434696
0.08424759
0.08415161
0.08405507
0.0839496
0.08383322
0.08374556
0.3584907
0.3577709
20
20
20
20
20
0.08474864
0.0846519
0.08455465
0.08445929
0.08436778
0.08428179
0.0842024
0.08413093
0.08407107
0.08404284
0.3587841
0.358587
0.3580486
20
20
20
20
20
0.08483204
0.08474515
0.08465702
0.08456927
0.08448335
0.08440073
0.08432334
0.08425412
0.0841997
0.08417604
0.358901
0.3588156
0.3586748
0.3583166
20
20
20
20
20
0.0849121
0.08483536
0.08475638
0.08467595
0.08459465
0.08451308
0.08443207
0.08435332
0.08428161
0.08423482
0.3589567
0.3589029
0.3588411
0.3587498
0.3585436
20
20
20
20
20
20
20
20
20
20
20
20
20
20
20
0.3589852
0.358951
0.3589144
0.3588739
0.3588198
0.6335337
20
20
20
20
20
20
20
20
20
20
20
20
20
20
20
0.3590688
0.3590288
0.3589915
0.3589574
0.358926
0.6336404
0.6335729
20
20
20
20
20
20
20
20
20
20
20
20
20
20
20
0.3591486
0.3591072
0.3590685
0.3590338
0.3590045
0.6336926
0.6336518
0.6335987
20
20
20
20
20
20
20
20
20
20
20
20
20
20
20
0.3592214
0.3591801
0.359141
0.3591054
0.3590746
0.6337336
0.6336985
0.6336601
0.6336148
20
20
20
20
20
20
20
20
20
20
20
20
20
20
20
0.3592874
0.3592469
0.359208
0.3591718
0.3591397
0.6337706
0.633737
0.6337025
0.6336653
0.6336235
20
20
20
20
20
20
20
20
20
20
20
20
20
20
20
20
20
20
20
20
20
20
20
20
20
20
20
20
20
20
20
20
20
20
20
20
20
20
20
20
20
20
20
20
20
20
20
20
20
20
0.0841836
0.08406382
0.08393108
0.08376919
0.08353079
0.08309196
0.08158714
20
20
20
20
20
0.08428673
0.08416514
0.08403253
0.08387243
0.08363752
0.083207
0.08230342
0.07952084
20
20
20
20
20
0.08438566
0.08426515
0.08413864
0.08399858
0.08381848
0.08353304
0.08299909
0.08194939
0.07916265
20
20
20
20
20
0.08448066
0.08436288
0.08424267
0.08411866
0.08398097
0.08380062
0.08351777
0.08302844
0.0822178
0.08057735
20
20
20
20
20
0.08457218
0.08445867
0.08434451
0.08423162
0.08411823
0.08399543
0.08384104
0.08362078
0.08330565
0.08299156
0.3575139
20
20
20
20
20
0.08466055
0.08455281
0.08444511
0.08434044
0.08424043
0.08414413
0.08404669
0.08393801
0.08381481
0.0837212
0.3584664
0.3577101
20
20
20
20
20
0.08474595
0.08464541
0.08454492
0.08444744
0.08435539
0.08427058
0.08419379
0.08412525
0.08406678
0.08403885
0.358776
0.3585515
0.3579468
20
20
20
20
20
0.08482841
0.0847363
0.08464382
0.08455335
0.08446703
0.08438696
0.08431551
0.08425554
0.08421235
0.0841975
0.3589116
0.358813
0.35864
0.3581975
20
20
20
20
20
0.08490786
0.08482508
0.08474119
0.08465776
0.08457621
0.08449809
0.08442537
0.08436124
0.08431179
0.08429049
0.3589845
0.3589225
0.3588454
0.3587222
0.3584344
20
20
20
20
20
0.08498416
0.08491104
0.08483582
0.08475928
0.084682
0.08460458
0.08452783
0.08445334
0.08438559
0.08434051
0.35903
0.3589815
0.3589323
0.3588766
0.3587965
0.6334823
20
20
20
20
20
20
20
20
20
20
20
20
20
20
20
0.359059
0.3590252
0.3589898
0.3589542
0.3589172
0.6336281
0.6335365
20
20
20
20
20
20
20
20
20
20
20
20
20
20
20
0.3591387
0.3590993
0.359062
0.3590277
0.3589975
0.6336871
0.6336425
0.6335754
20
20
20
20
20
20
20
20
20
20
20
20
20
20
20
0.3592147
0.3591741
0.3591356
0.3591002
0.3590694
0.6337304
0.6336945
0.633654
0.6336012
20
20
20
20
20
20
20
20
20
20
20
20
20
20
20
0.3592841
0.3592438
0.3592052
0.3591691
0.359137
0.633769
0.6337353
0.6337004
0.6336623
0.6336172
20
20
20
20
20
20
20
20
20
20
20
20
20
20
20
0.359347
0.3593076
0.3592694
0.3592332
0.3592001
0.6338049
0.6337721
0.6337387
0.6337044
0.6336675
0.7252195
20
20
20
20
20
20
20
20
20
20
20
20
20
20
20
20
20
20
20
20
20
20
20
20
20
20
20
20
20
20
20
20
20
20
20
20
20
20
20
20
20
20
20
20
20
20
20
20
20
20
20
20
20
20
20
0.08429301
0.08418164
0.08406297
0.08393156
0.08377146
0.08354146
0.08314233
0.08174781
20
20
20
20
20
0.08439032
0.08427701
0.08415836
0.08402989
0.08387553
0.08365552
0.08328042
0.08256405
0.08030948
20
20
20
20
20
0.08448377
0.08437051
0.08425465
0.08413527
0.08400505
0.08384212
0.08360108
0.08319999
0.08252937
0.08096295
20
20
20
20
20
0.08457371
0.08446234
0.08435012
0.08423883
0.08412701
0.08400701
0.0838595
0.08365454
0.08336541
0.08307091
0.3575839
20
20
20
20
20
0.08466055
0.08455281
0.08444511
0.08434044
0.08424043
0.08414413
0.08404669
0.08393801
0.08381481
0.0837212
0.3584664
0.3577101
20
20
20
20
20
0.08474454
0.08464208
0.08453992
0.08444134
0.08434895
0.08426464
0.08418892
0.08412133
0.08406273
0.08403437
0.3587704
0.3585315
0.357895
20
20
20
20
20
0.08482582
0.08473009
0.08463453
0.08454209
0.08445539
0.08437688
0.08430901
0.08425417
0.08421632
0.08420505
0.358915
0.3588069
0.3586106
0.3581134
20
20
20
20
20
0.08490438
0.08481663
0.08472858
0.08464256
0.08456066
0.08448507
0.08441832
0.08436381
0.08432641
0.08431478
0.3589986
0.3589316
0.3588427
0.3586926
0.3583399
20
20
20
20
20
0.08498011
0.08490123
0.08482132
0.0847419
0.08466437
0.08459019
0.0845213
0.0844607
0.08441403
0.08439265
0.3590564
0.3590029
0.3589458
0.3588765
0.3587703
0.6334277
20
20
20
20
20
0.08505285
0.08498316
0.08491151
0.08483863
0.08476511
0.08469152
0.08461866
0.08454801
0.08448365
0.08444006
0.3590985
0.3590526
0.3590077
0.3589625
0.3589126
0.633614
0.6334857
20
20
20
20
20
20
20
20
20
20
20
20
20
20
20
0.3591289
0.3590953
0.3590601
0.3590254
0.3589923
0.6336813
0.6336302
0.6335392
20
20
20
20
20
20
20
20
20
20
20
20
20
20
20
0.359205
0.3591664
0.3591292
0.3590944
0.3590633
0.6337262
0.633689
0.6336446
0.6335779
20
20
20
20
20
20
20
20
20
20
20
20
20
20
20
0.3592775
0.359238
0.3591999
0.3591641
0.3591321
0.633766
0.633732
0.6336963
0.6336561
0.6336036
20
20
20
20
20
20
20
20
20
20
20
20
20
20
20
0.3593438
0.3593046
0.3592667
0.3592306
0.3591975
0.6338034
0.6337705
0.633737
0.6337023
0.6336644
0.7252148
20
20
20
20
20
20
20
20
20
20
20
20
20
20
20
0.3594038
0.3593657
0.3593284
0.3592925
0.3592589
0.6338384
0.6338063
0.6337736
0.6337404
0.6337063
0.7252522
0.725221
20
20
20
20
20
20
20
20
20
20
20
20
20
20
20
20
20
20
20
20
20
20
20
20
20
20
20
20
20
20
20
20
20
20
20
20
20
20
20
20
20
20
20
20
20
20
20
20
20
20
20
20
20
20
20
20
20
20
20
20
0.08439612
0.08429147
0.08418183
0.08406582
0.08393795
0.08378467
0.08357489
0.08323981
0.08203754
20
20
20
20
20
0.08448816
0.08438141
0.08427159
0.08415827
0.0840371
0.08389485
0.08370393
0.08341271
0.0829379
0.08158353
20
20
20
20
20
0.08457667
0.08446952
0.08436104
0.08425275
0.08414366
0.08402825
0.08389219
0.08371333
0.08347064
0.08321586
0.3577241
20
20
20
20
20
0.08466201
0.0845563
0.08445038
0.08434696
0.08424759
0.08415161
0.08405507
0.0839496
0.08383322
0.08374556
0.3584907
0.3577709
20
20
20
20
20
0.08474454
0.08464208
0.08453992
0.08444134
0.08434895
0.08426464
0.08418892
0.08412133
0.08406273
0.08403437
0.3587704
0.3585315
0.357895
20
20
20
20
20
0.08482448
0.08472691
0.08462976
0.08453629
0.08444935
0.08437156
0.08430535
0.08425275
0.08421701
0.08420714
0.3589157
0.3588025
0.3585942
0.3580703
20
20
20
20
20
0.0849019
0.0848107
0.08471971
0.0846318
0.08454956
0.08447556
0.08441253
0.08436361
0.08433251
0.08432546
0.3590053
0.3589349
0.3588377
0.3586684
0.3582723
20
20
20
20
20
0.08497678
0.08489315
0.08480927
0.08472738
0.08464949
0.08457771
0.08451453
0.08446316
0.08442821
0.08441624
0.3590707
0.3590148
0.3589526
0.3588729
0.358745
0.6333805
20
20
20
20
20
0.08504897
0.0849738
0.08489766
0.08482203
0.08474824
0.08467769
0.08461221
0.08455457
0.08450985
0.08448808
0.3591227
0.3590729
0.3590227
0.3589701
0.3589082
0.6335993
0.633432
20
20
20
20
20
0.08511832
0.08505192
0.08498365
0.08491424
0.08484426
0.08477427
0.08470502
0.0846379
0.08457669
0.08453455
0.3591637
0.3591194
0.3590763
0.3590343
0.3589929
0.6336768
0.633616
0.6334891
20
20
20
20
20
20
20
20
20
20
20
20
20
20
20
0.3591953
0.359162
0.3591269
0.3590921
0.3590592
0.6337225
0.6336831
0.6336323
0.633542
20
20
20
20
20
20
20
20
20
20
20
20
20
20
20
0.3592681
0.3592304
0.3591936
0.3591585
0.3591263
0.6337624
0.6337279
0.6336909
0.6336467
0.6335805
20
20
20
20
20
20
20
20
20
20
20
20
20
20
20
0.3593374
0.3592989
0.3592615
0.3592258
0.3591928
0.6338006
0.6337675
0.6337337
0.6336982
0.6336582
0.7252046
20
20
20
20
20
20
20
20
20
20
20
20
20
20
20
0.3594007
0.3593628
0.3593257
0.3592899
0.3592564
0.633837
0.6338047
0.633772
0.6337387
0.6337042
0.7252499
0.7252163
20
20
20
20
20
20
20
20
20
20
20
20
20
20
20
0.359458
0.3594212
0.3593849
0.3593495
0.3593159
0.6338712
0.6338397
0.6338076
0.6337751
0.6337421
0.7252811
0.7252536
0.7252222
20
20
20
20
20
20
20
20
20
20
20
20
20
20
20
20
20
20
20
20
20
20
20
20
20
20
20
20
20
20
20
20
20
20
20
20
20
20
20
20
20
20
20
20
20
20
20
20
20
20
20
20
20
20
20
20
20
20
20
20
20
20
20
20
20
0.0844936
0.08439473
0.08429196
0.08418531
0.08407331
0.08395135
0.08380996
0.08363096
0.08338197
0.08255337
20
20
20
20
20
0.08458084
0.08447976
0.08437655
0.08427226
0.08416643
0.08405587
0.08393219
0.08378272
0.08359579
0.08339857
0.3579332
20
20
20
20
20
0.08466483
0.08456311
0.08446063
0.08435958
0.0842613
0.08416555
0.08406986
0.08396884
0.08386311
0.08378574
0.3585338
0.3578915
20
20
20
20
20
0.08474595
0.08464541
0.08454492
0.08444744
0.08435539
0.08427058
0.08419379
0.08412525
0.08406678
0.08403885
0.358776
0.3585515
0.3579468
20
20
20
20
20
0.08482448
0.08472691
0.08462976
0.08453629
0.08444935
0.08437156
0.08430535
0.08425275
0.08421701
0.08420714
0.3589157
0.3588025
0.3585942
0.3580703
20
20
20
20
20
0.08490062
0.08480765
0.08471515
0.08462626
0.08454381
0.08447056
0.08440928
0.08436292
0.08433455
0.08432949
0.359008
0.3589358
0.3588342
0.3586549
0.3582374
20
20
20
20
20
0.0849744
0.08488748
0.08480079
0.08471709
0.08463886
0.0845686
0.08450901
0.0844631
0.08443448
0.08442718
0.3590781
0.3590209
0.3589554
0.3588684
0.358725
0.6333465
20
20
20
20
20
0.08504578
0.08496608
0.08488616
0.08480815
0.08473399
0.08466569
0.08460557
0.08455663
0.08452294
0.08451004
0.3591362
0.3590849
0.359032
0.3589744
0.3589034
0.6335859
0.6333855
20
20
20
20
20
0.08511461
0.08504299
0.08497044
0.0848984
0.08482814
0.084761
0.08469867
0.08464373
0.08460079
0.08457872
0.3591857
0.3591379
0.3590907
0.3590435
0.358995
0.6336731
0.6336014
0.6334363
20
20
20
20
20
0.0851807
0.08511747
0.08505244
0.08498633
0.0849197
0.0848531
0.08478725
0.08472345
0.08466519
0.08462459
0.3592261
0.3591831
0.3591411
0.3591003
0.359061
0.6337208
0.6336784
0.6336181
0.6334926
20
20
20
20
20
20
20
20
20
20
20
20
20
20
20
0.3592585
0.3592257
0.3591909
0.3591559
0.3591224
0.6337593
0.6337241
0.6336849
0.6336344
0.6335448
20
20
20
20
20
20
20
20
20
20
20
20
20
20
20
0.3593282
0.3592915
0.3592553
0.3592202
0.3591872
0.6337972
0.6337639
0.6337295
0.6336927
0.6336489
0.7251873
20
20
20
20
20
20
20
20
20
20
20
20
20
20
20
0.3593945
0.3593572
0.3593206
0.3592852
0.3592518
0.6338343
0.633802
0.633769
0.6337354
0.6337001
0.7252453
0.7252062
20
20
20
20
20
20
20
20
20
20
20
20
20
20
20
0.359455
0.3594184
0.3593823
0.359347
0.3593134
0.6338697
0.6338382
0.6338061
0.6337735
0.6337404
0.7252796
0.7252513
0.7252175
20
20
20
20
20
20
20
20
20
20
20
20
20
20
20
0.3595098
0.3594744
0.3594391
0.3594045
0.3593711
0.633903
0.6338723
0.6338409
0.633809
0.6337766
0.7253079
0.7252823
0.7252546
0.7252231
20
20
20
20
20
20
20
20
20
20
20
20
20
20
20
20
20
20
20
20
20
20
20
20
20
20
20
20
20
20
20
20
20
20
20
20
20
20
20
20
20
20
20
20
20
20
20
20
20
20
20
20
20
20
20
20
20
20
20
20
20
20
20
20
20
20
20
20
20
20
0.08458599
0.08449228
0.08439527
0.08429551
0.08419285
0.0840862
0.08397265
0.0838483
0.08371088
0.08357413
0.3582012
20
20
20
20
20
0.08466881
0.08457284
0.0844752
0.08437739
0.08428036
0.08418414
0.08408773
0.08398901
0.08389175
0.083824
0.3585844
0.3580677
20
20
20
20
20
0.08474864
0.0846519
0.08455465
0.08445929
0.08436778
0.08428179
0.0842024
0.08413093
0.08407107
0.08404284
0.3587841
0.358587
0.3580486
20
20
20
20
20
0.08482582
0.08473009
0.08463453
0.08454209
0.08445539
0.08437688
0.08430901
0.08425417
0.08421632
0.08420505
0.358915
0.3588069
0.3586106
0.3581134
20
20
20
20
20
0.08490062
0.08480765
0.08471515
0.08462626
0.08454381
0.08447056
0.08440928
0.08436292
0.08433455
0.08432949
0.359008
0.3589358
0.3588342
0.3586549
0.3582374
20
20
20
20
20
0.08497317
0.08488456
0.08479643
0.08471178
0.08463336
0.08456381
0.08450593
0.08446255
0.08443674
0.08443153
0.3590812
0.3590233
0.3589562
0.3588655
0.3587141
0.6333289
20
20
20
20
20
0.08504351
0.08496066
0.08487805
0.08479831
0.08472382
0.08465693
0.08460019
0.08455645
0.08452879
0.0845204
0.3591433
0.3590914
0.359037
0.3589762
0.358899
0.6335757
0.633352
20
20
20
20
20
0.08511156
0.08503562
0.08495945
0.08488513
0.08481451
0.08474947
0.08469218
0.0846454
0.08461278
0.08459896
0.3591981
0.3591492
0.3591
0.3590499
0.3589965
0.6336699
0.6335881
0.6333904
20
20
20
20
20
0.08517716
0.08510895
0.08503984
0.08497122
0.08490431
0.0848404
0.08478107
0.0847287
0.08468749
0.08466543
0.3592461
0.3591998
0.3591542
0.3591092
0.3590648
0.6337205
0.6336745
0.6336034
0.6334405
20
20
20
20
20
0.08524011
0.08517993
0.08511801
0.08505506
0.08499164
0.08492826
0.08486562
0.08480496
0.08474952
0.08471054
0.359286
0.3592443
0.3592032
0.359163
0.3591242
0.6337585
0.6337222
0.63368
0.6336201
0.633496
20
20
20
20
20
20
20
20
20
20
20
20
20
20
20
0.3593186
0.3592866
0.3592523
0.3592174
0.3591833
0.6337944
0.6337607
0.6337256
0.6336867
0.6336365
0.7251607
20
20
20
20
20
20
20
20
20
20
20
20
20
20
20
0.3593855
0.35935
0.3593145
0.3592797
0.3592463
0.633831
0.6337986
0.6337654
0.6337312
0.6336946
0.7252383
0.7251889
20
20
20
20
20
20
20
20
20
20
20
20
20
20
20
0.359449
0.359413
0.3593774
0.3593425
0.359309
0.6338672
0.6338356
0.6338034
0.6337706
0.6337371
0.7252765
0.7252467
0.7252074
20
20
20
20
20
20
20
20
20
20
20
20
20
20
20
0.3595069
0.3594716
0.3594366
0.3594021
0.3593687
0.6339017
0.6338709
0.6338395
0.6338075
0.633775
0.7253066
0.7252808
0.7252524
0.7252184
20
20
20
20
20
20
20
20
20
20
20
20
20
20
20
0.3595593
0.3595252
0.3594912
0.3594574
0.3594245
0.633934
0.6339041
0.6338735
0.6338422
0.6338104
0.7253336
0.7253089
0.7252833
0.7252554
0.7252236
20
20
20
20
20
20
20
20
20
20
20
20
20
20
20
20
20
20
20
20
20
20
20
20
20
20
20
20
20
20
20
20
20
20
20
20
20
20
20
20
20
20
20
20
20
20
20
20
20
20
20
20
20
20
20
20
20
20
20
20
20
20
20
20
20
20
20
20
20
0.3584596
20
20
20
20
20
0.0846737
0.08458471
0.08449281
0.0843987
0.08430278
0.08420505
0.08410526
0.08400319
0.08390319
0.08382842
0.3586234
0.3582838
20
20
20
20
20
0.08475244
0.08466117
0.08456849
0.08447603
0.08438512
0.08429698
0.08421274
0.08413451
0.08406804
0.08403497
0.3587877
0.3586286
0.3581948
20
20
20
20
20
0.08482841
0.0847363
0.08464382
0.08455335
0.08446703
0.08438696
0.08431551
0.08425554
0.08421235
0.0841975
0.3589116
0.358813
0.35864
0.3581975
20
20
20
20
20
0.0849019
0.0848107
0.08471971
0.0846318
0.08454956
0.08447556
0.08441253
0.08436361
0.08433251
0.08432546
0.3590053
0.3589349
0.3588377
0.3586684
0.3582723
20
20
20
20
20
0.08497317
0.08488456
0.08479643
0.08471178
0.08463336
0.08456381
0.08450593
0.08446255
0.08443674
0.08443153
0.3590812
0.3590233
0.3589562
0.3588655
0.3587141
0.6333289
20
20
20
20
20
0.08504232
0.08495787
0.08487387
0.08479323
0.08471854
0.08465233
0.0845972
0.08455587
0.08453092
0.08452459
0.3591463
0.3590943
0.3590391
0.3589768
0.3588965
0.6335701
0.6333347
20
20
20
20
20
0.08510937
0.08503043
0.0849517
0.08487572
0.08480476
0.08474105
0.08468694
0.08464504
0.0846181
0.08460855
0.3592047
0.3591554
0.3591054
0.3590536
0.3589973
0.6336674
0.6335779
0.6333574
20
20
20
20
20
0.08517423
0.08510191
0.08502935
0.08495855
0.08489128
0.08482935