/*--------------------------------*- C++ -*----------------------------------*\
| =========                 |                                                 |
| \\      /  F ield         | OpenFOAM: The Open Source CFD Toolbox           |
|  \\    /   O peration     | Version:  2306                                  |
|   \\  /    A nd           | Website:  www.openfoam.com                      |
|    \\/     M anipulation  |                                                 |
\*---------------------------------------------------------------------------*/
FoamFile
{
    version     2.0;
    format      ascii;
    arch        "LSB;label=32;scalar=64";
    class       volScalarField;
    location    "0.3";
    object      rhoCp;
}
// * * * * * * * * * * * * * * * * * * * * * * * * * * * * * * * * * * * * * //

dimensions      [1 -1 -2 -1 0 0 0];

internalField   nonuniform List<scalar> 
52000
(
5346000
5346000
5346000
5346000
5346000
5346000
5346000
5346000
5346000
5346000
5346000
5346000
5346000
5346000
5346000
5346000
5346000
5346000
5346000
5346000
5346000
5346000
5346000
5346000
5346000
5346000
5346000
5346000
5346000
5346000
5346000
5346000
5346000
5346000
5346000
5346000
5346000
5346000
5346000
5346000
5346000
5346000
5346000
5346000
5346000
5346000
5346000
5346000
5346000
5346000
5346000
5346000
5346000
5346000
5346000
5346000
5346000
5346000
5346000
5346000
5346000
5346000
5346000
5346000
5346000
5346000
5346000
5346000
5346000
5346000
5346000
5346000
5346000
5346000
5346000
5346000
5346000
5346000
5346000
5346000
5346000
5346000
5346000
5346000
5346000
5346000
5346000
5346000
5346000
5346000
5346000
5346000
5346000
5346000
5346000
5346000
5346000
5346000
5346000
5346000
5346000
5346000
5346000
5346000
5346000
5346000
5346000
5346000
5346000
5346000
5346000
5346000
5346000
5346000
5346000
5346000
5346000
5346000
5346000
5346000
5346000
5346000
5346000
5346000
5346000
5346000
5346000
5346000
5346000
5346000
5346000
5346000
5346000
5346000
5346000
5346000
5346000
5346000
5346000
5346000
5346000
5346000
5346000
5346000
5346000
5346000
5346000
5346000
5346000
5346000
5346000
5346000
5346000
5346000
5346000
5346000
5346000
5346000
5346000
5346000
5346000
5346000
5346000
5346000
5346000
5346000
5346000
5346000
5346000
5346000
5346000
5346000
5346000
5346000
5346000
5346000
5346000
5346000
5346000
5346000
5346000
5346000
5346000
5346000
5346000
5346000
5346000
5346000
5346000
5346000
5346000
5346000
5346000
5346000
5346000
5346000
5346000
5346000
5346000
5346000
5346000
5346000
5346000
5346000
5346000
5346000
5346000
5346000
5346000
5346000
5346000
5346000
5346000
5346000
5346000
5346000
5346000
5346000
5346000
5346000
5346000
5346000
5346000
5346000
5346000
5346000
5346000
5346000
5346000
5346000
5346000
5346000
5346000
5346000
5346000
5346000
5346000
5346000
5346000
5346000
355.9299
5346000
5346000
5346000
5346000
5346000
5346000
5346000
5346000
5346000
5346000
5346000
5346000
5346000
5346000
5346000
5346000
5346000
5346000
5346000
5346000
5346000
5346000
5346000
5346000
5346000
5346000
5346000
5346000
5346000
5346000
5346000
5346000
5346000
5346000
5346000
5346000
5346000
5346000
5346000
5346000
5346000
5346000
5346000
5346000
5346000
5346000
5346000
5346000
5346000
5346000
5346000
5346000
5346000
5346000
5346000
5346000
5346000
5346000
5346000
5346000
5346000
5346000
5346000
5346000
5346000
358.8001
5346000
5346000
5346000
5346000
5346000
352.625
358.8527
5346000
5346000
5346000
5346000
5346000
5346000
5346000
5346000
5346000
5346000
5346000
5346000
5346000
5346000
5346000
5346000
5346000
5346000
5346000
5346000
5346000
5346000
5346000
5346000
5346000
5346000
5346000
5346000
5346000
5346000
5346000
5346000
5346000
5346000
5346000
5346000
5346000
5346000
5346000
5346000
5346000
5346000
5346000
5346000
5346000
5346000
5346000
5346000
5346000
5346000
5346000
5346000
5346000
5346000
5346000
5346000
5346000
5346000
5346000
5346000
5346000
5346000
5346000
5346000
5346000
5346000
5346000
5346000
5346000
5346000
360.421
5346000
5346000
5346000
5346000
5346000
353.257
366.0586
5346000
5346000
5346000
5346000
5346000
351.7675
353.2658
360.5196
5346000
5346000
5346000
5346000
5346000
5346000
5346000
5346000
5346000
5346000
5346000
5346000
5346000
5346000
5346000
5346000
5346000
5346000
5346000
5346000
5346000
5346000
5346000
5346000
5346000
5346000
5346000
5346000
5346000
5346000
5346000
5346000
5346000
5346000
5346000
5346000
5346000
5346000
5346000
5346000
5346000
5346000
5346000
5346000
5346000
5346000
5346000
5346000
5346000
5346000
5346000
5346000
5346000
5346000
5346000
5346000
5346000
5346000
5346000
5346000
5346000
5346000
5346000
5346000
5346000
5346000
5346000
5346000
5346000
5346000
5346000
5346000
5346000
5346000
5346000
361.3525
5346000
5346000
5346000
5346000
5346000
353.8065
370.7183
5346000
5346000
5346000
5346000
5346000
351.9989
355.1433
370.7963
5346000
5346000
5346000
5346000
5346000
351.0696
351.9848
353.8204
361.505
5346000
5346000
5346000
5346000
5346000
5346000
5346000
5346000
5346000
5346000
5346000
5346000
5346000
5346000
5346000
5346000
5346000
5346000
5346000
5346000
5346000
5346000
5346000
5346000
5346000
5346000
5346000
5346000
5346000
5346000
5346000
5346000
5346000
5346000
5346000
5346000
5346000
5346000
5346000
5346000
5346000
5346000
5346000
5346000
5346000
5346000
5346000
5346000
5346000
5346000
5346000
5346000
5346000
5346000
5346000
5346000
5346000
5346000
5346000
5346000
5346000
5346000
5346000
5346000
5346000
5346000
5346000
5346000
5346000
5346000
5346000
5346000
5346000
5346000
5346000
5346000
5346000
5346000
5346000
5346000
361.7872
5346000
5346000
5346000
5346000
5346000
354.212
373.5741
5346000
5346000
5346000
5346000
5346000
352.2066
356.8059
378.0297
5346000
5346000
5346000
5346000
5346000
351.1728
352.6619
356.8257
373.7852
5346000
5346000
5346000
5346000
5346000
350.4529
351.1505
352.1768
354.2317
362.0101
5346000
5346000
5346000
5346000
5346000
5346000
5346000
5346000
5346000
5346000
5346000
5346000
5346000
5346000
5346000
5346000
5346000
5346000
5346000
5346000
5346000
5346000
5346000
5346000
5346000
5346000
5346000
5346000
5346000
5346000
5346000
5346000
5346000
5346000
5346000
5346000
5346000
5346000
5346000
5346000
5346000
5346000
5346000
5346000
5346000
5346000
5346000
5346000
5346000
5346000
5346000
5346000
5346000
5346000
5346000
5346000
5346000
5346000
5346000
5346000
5346000
5346000
5346000
5346000
5346000
5346000
5346000
5346000
5346000
5346000
5346000
5346000
5346000
5346000
5346000
5346000
5346000
5346000
5346000
5346000
5346000
5346000
5346000
5346000
5346000
361.7872
5346000
5346000
5346000
5346000
5346000
354.4271
374.9448
5346000
5346000
5346000
5346000
5346000
352.3654
358.0482
382.7133
5346000
5346000
5346000
5346000
5346000
351.2628
353.2804
359.5467
382.9007
5346000
5346000
5346000
5346000
5346000
350.51
351.4376
353.266
358.1064
375.3647
5346000
5346000
5346000
5346000
5346000
349.8857
350.4863
351.2173
352.3162
354.4539
362.1028
5346000
5346000
5346000
5346000
5346000
5346000
5346000
5346000
5346000
5346000
5346000
5346000
5346000
5346000
5346000
5346000
5346000
5346000
5346000
5346000
5346000
5346000
5346000
5346000
5346000
5346000
5346000
5346000
5346000
5346000
5346000
5346000
5346000
5346000
5346000
5346000
5346000
5346000
5346000
5346000
5346000
5346000
5346000
5346000
5346000
5346000
5346000
5346000
5346000
5346000
5346000
5346000
5346000
5346000
5346000
5346000
5346000
5346000
5346000
5346000
5346000
5346000
5346000
5346000
5346000
5346000
5346000
5346000
5346000
352.0581
5346000
5346000
5346000
5346000
5346000
5346000
5346000
5346000
5346000
5346000
5346000
5346000
5346000
5346000
5346000
5346000
5346000
5346000
5346000
5346000
361.3525
5346000
5346000
5346000
5346000
5346000
354.4271
374.9448
5346000
5346000
5346000
5346000
5346000
352.4518
358.7121
385.0316
5346000
5346000
5346000
5346000
5346000
351.3307
353.7586
361.6153
389.032
5346000
5346000
5346000
5346000
5346000
350.5578
351.6949
354.2788
361.676
385.5583
5346000
5346000
5346000
5346000
5346000
349.9251
350.6351
351.6683
353.7287
358.8292
375.659
5346000
5346000
5346000
5346000
5346000
349.3605
349.9024
350.5096
351.257
352.3775
354.4585
361.7869
5346000
5346000
5346000
5346000
5346000
5346000
5346000
5346000
5346000
5346000
5346000
5346000
5346000
5346000
5346000
5346000
5346000
5346000
5346000
5346000
5346000
5346000
5346000
5346000
5346000
5346000
5346000
5346000
5346000
5346000
5346000
5346000
5346000
5346000
5346000
5346000
5346000
5346000
5346000
5346000
5346000
5346000
5346000
5346000
5346000
5346000
5346000
5346000
5346000
5346000
5346000
5346000
5346000
5346000
5346000
5346000
5346000
352.0998
5346000
5346000
5346000
5346000
5346000
5346000
5346000
5346000
5346000
5346000
5346000
5346000
5346000
5346000
5346000
351.3756
351.6962
5346000
5346000
5346000
5346000
5346000
5346000
5346000
5346000
5346000
5346000
5346000
5346000
5346000
5346000
5346000
5346000
5346000
5346000
5346000
5346000
360.421
5346000
5346000
5346000
5346000
5346000
354.212
373.5741
5346000
5346000
5346000
5346000
5346000
352.4518
358.7121
385.0316
5346000
5346000
5346000
5346000
5346000
351.3675
354.0202
362.732
392.1355
5346000
5346000
5346000
5346000
5346000
350.5927
351.8917
355.0728
364.428
392.5607
5346000
5346000
5346000
5346000
5346000
349.9567
350.7639
352.0805
355.0609
362.9007
386.0655
5346000
5346000
5346000
5346000
5346000
349.3924
349.9989
350.7347
351.83
353.9696
358.8987
374.6727
5346000
5346000
5346000
5346000
5346000
348.8686
349.3713
349.9105
350.5149
351.2578
352.3425
354.2361
361.0087
5346000
5346000
5346000
5346000
5346000
5346000
5346000
5346000
5346000
5346000
5346000
5346000
5346000
5346000
5346000
5346000
5346000
5346000
5346000
5346000
5346000
5346000
5346000
5346000
5346000
5346000
5346000
5346000
5346000
5346000
5346000
5346000
5346000
5346000
5346000
5346000
5346000
5346000
5346000
5346000
5346000
5346000
5346000
5346000
352.187
5346000
5346000
5346000
5346000
5346000
5346000
5346000
5346000
5346000
5346000
5346000
5346000
5346000
5346000
5346000
351.4005
351.746
5346000
5346000
5346000
5346000
5346000
5346000
5346000
5346000
5346000
5346000
5346000
5346000
5346000
5346000
5346000
350.7322
351.0443
351.329
5346000
5346000
5346000
5346000
5346000
5346000
5346000
5346000
5346000
5346000
5346000
5346000
5346000
5346000
5346000
5346000
5346000
5346000
5346000
5346000
358.8001
5346000
5346000
5346000
5346000
5346000
353.8065
370.7183
5346000
5346000
5346000
5346000
5346000
352.3654
358.0482
382.7133
5346000
5346000
5346000
5346000
5346000
351.3675
354.0202
362.732
392.1355
5346000
5346000
5346000
5346000
5346000
350.6113
351.9989
355.5105
365.9271
396.1512
5346000
5346000
5346000
5346000
5346000
349.9792
350.8596
352.4004
356.1166
366.0669
393.2474
5346000
5346000
5346000
5346000
5346000
349.4175
350.0796
350.9337
352.3618
355.4848
363.041
384.4097
5346000
5346000
5346000
5346000
5346000
348.8967
349.4469
350.0512
350.7908
351.8885
353.933
358.2888
372.3005
5346000
5346000
5346000
5346000
5346000
348.4069
348.8773
349.3744
349.9043
350.496
351.2111
352.2043
353.7946
359.6068
5346000
5346000
5346000
5346000
5346000
5346000
5346000
5346000
5346000
5346000
5346000
5346000
5346000
5346000
5346000
5346000
5346000
5346000
5346000
5346000
5346000
5346000
5346000
5346000
5346000
5346000
5346000
5346000
5346000
5346000
352.3386
5346000
5346000
5346000
5346000
5346000
5346000
5346000
5346000
5346000
5346000
5346000
5346000
5346000
5346000
5346000
351.4497
351.8553
5346000
5346000
5346000
5346000
5346000
5346000
5346000
5346000
5346000
5346000
5346000
5346000
5346000
5346000
5346000
350.7525
351.0693
351.3853
5346000
5346000
5346000
5346000
5346000
5346000
5346000
5346000
5346000
5346000
5346000
5346000
5346000
5346000
5346000
350.1395
350.4409
350.7103
350.9529
5346000
5346000
5346000
5346000
5346000
5346000
5346000
5346000
5346000
5346000
5346000
5346000
5346000
5346000
5346000
5346000
5346000
5346000
5346000
5346000
355.9299
5346000
5346000
5346000
5346000
5346000
353.257
366.0586
5346000
5346000
5346000
5346000
5346000
352.2066
356.8059
378.0297
5346000
5346000
5346000
5346000
5346000
351.3307
353.7586
361.6153
389.032
5346000
5346000
5346000
5346000
5346000
350.6113
351.9989
355.5105
365.9271
396.1512
5346000
5346000
5346000
5346000
5346000
349.991
350.9108
352.5761
356.7026
367.8013
396.941
5346000
5346000
5346000
5346000
5346000
349.435
350.1378
351.0838
352.7795
356.6944
366.2688
391.0532
5346000
5346000
5346000
5346000
5346000
348.9187
349.5088
350.1714
351.0387
352.4806
355.4542
362.0539
380.516
5346000
5346000
5346000
5346000
5346000
348.4327
348.9433
349.4822
350.0705
350.7871
351.8186
353.6021
357.0439
368.2561
5346000
5346000
5346000
5346000
5346000
347.9714
348.4148
348.8789
349.365
349.8799
350.4482
351.112
351.964
353.1481
357.1275
5346000
5346000
5346000
5346000
5346000
5346000
5346000
5346000
5346000
5346000
5346000
5346000
5346000
5346000
5346000
352.6548
5346000
5346000
5346000
5346000
5346000
5346000
5346000
5346000
5346000
5346000
5346000
5346000
5346000
5346000
5346000
351.5237
352.0614
5346000
5346000
5346000
5346000
5346000
5346000
5346000
5346000
5346000
5346000
5346000
5346000
5346000
5346000
5346000
350.7919
351.1184
351.511
5346000
5346000
5346000
5346000
5346000
5346000
5346000
5346000
5346000
5346000
5346000
5346000
5346000
5346000
5346000
350.1578
350.4592
350.7355
351.0137
5346000
5346000
5346000
5346000
5346000
5346000
5346000
5346000
5346000
5346000
5346000
5346000
5346000
5346000
5346000
349.5957
349.8848
350.1478
350.3713
350.5746
5346000
5346000
5346000
5346000
5346000
5346000
5346000
5346000
5346000
5346000
5346000
5346000
5346000
5346000
5346000
5346000
5346000
5346000
5346000
5346000
5346000
5346000
5346000
5346000
5346000
352.625
358.8527
5346000
5346000
5346000
5346000
5346000
351.9989
355.1433
370.7963
5346000
5346000
5346000
5346000
5346000
351.2628
353.2804
359.5467
382.9007
5346000
5346000
5346000
5346000
5346000
350.5927
351.8917
355.0728
364.428
392.5607
5346000
5346000
5346000
5346000
5346000
349.991
350.9108
352.5761
356.7026
367.8013
396.941
5346000
5346000
5346000
5346000
5346000
349.4441
350.1682
351.1648
353.0107
357.3688
368.0394
394.4466
5346000
5346000
5346000
5346000
5346000
348.934
349.5524
350.2591
351.2282
352.9501
356.6731
364.9761
385.9747
5346000
5346000
5346000
5346000
5346000
348.4529
348.9967
349.572
350.2145
351.0525
352.3953
354.9447
360.0409
374.1875
5346000
5346000
5346000
5346000
5346000
347.9955
348.4754
348.9721
349.4893
350.0472
350.7111
351.6094
352.996
355.2668
361.8735
5346000
5346000
5346000
5346000
5346000
347.5599
347.9789
348.416
348.869
349.3401
349.8342
350.3675
350.9561
351.6171
352.2754
354.3408
5346000
5346000
5346000
5346000
5346000
5346000
5346000
5346000
5346000
5346000
5346000
5346000
5346000
5346000
5346000
351.6049
352.5027
5346000
5346000
5346000
5346000
5346000
5346000
5346000
5346000
5346000
5346000
5346000
5346000
5346000
5346000
5346000
350.8477
351.1899
351.7491
5346000
5346000
5346000
5346000
5346000
5346000
5346000
5346000
5346000
5346000
5346000
5346000
5346000
5346000
5346000
350.1931
350.493
350.7849
351.149
5346000
5346000
5346000
5346000
5346000
5346000
5346000
5346000
5346000
5346000
5346000
5346000
5346000
5346000
5346000
349.6129
349.9006
350.1645
350.3967
350.6375
5346000
5346000
5346000
5346000
5346000
5346000
5346000
5346000
5346000
5346000
5346000
5346000
5346000
5346000
5346000
349.086
349.372
349.6285
349.851
350.0342
350.351
5346000
5346000
5346000
5346000
5346000
5346000
5346000
5346000
5346000
5346000
5346000
5346000
5346000
5346000
5346000
5346000
5346000
5346000
5346000
5346000
5346000
5346000
5346000
5346000
5346000
5346000
5346000
5346000
5346000
5346000
351.7675
353.2658
360.5196
5346000
5346000
5346000
5346000
5346000
351.1728
352.6619
356.8257
373.7852
5346000
5346000
5346000
5346000
5346000
350.5578
351.6949
354.2788
361.676
385.5583
5346000
5346000
5346000
5346000
5346000
349.9792
350.8596
352.4004
356.1166
366.0669
393.2474
5346000
5346000
5346000
5346000
5346000
349.4441
350.1682
351.1648
353.0107
357.3688
368.0394
394.4466
5346000
5346000
5346000
5346000
5346000
348.9418
349.5749
350.3054
351.3313
353.2115
357.3541
366.5745
388.7201
5346000
5346000
5346000
5346000
5346000
348.4669
349.034
349.636
350.321
351.258
352.8566
356.0229
362.3498
377.9865
5346000
5346000
5346000
5346000
5346000
348.0145
348.5242
349.0487
349.594
350.1943
350.9557
352.0919
354.0052
357.2331
364.9633
5346000
5346000
5346000
5346000
5346000
347.5827
348.0357
348.5013
348.9753
349.4612
349.9736
350.5545
351.2613
352.1556
353.0965
356.1477
5346000
5346000
5346000
5346000
5346000
347.1702
347.5672
347.9801
348.4065
348.8451
349.2972
349.7636
350.2479
350.7277
351.1011
351.5089
353.796
5346000
5346000
5346000
5346000
5346000
5346000
5346000
5346000
5346000
5346000
5346000
5346000
5346000
5346000
5346000
350.8847
351.263
352.2206
5346000
5346000
5346000
5346000
5346000
5346000
5346000
5346000
5346000
5346000
5346000
5346000
5346000
5346000
5346000
350.2421
350.5338
350.8568
351.3996
5346000
5346000
5346000
5346000
5346000
5346000
5346000
5346000
5346000
5346000
5346000
5346000
5346000
5346000
5346000
349.646
349.929
350.1943
350.4468
350.7765
5346000
5346000
5346000
5346000
5346000
5346000
5346000
5346000
5346000
5346000
5346000
5346000
5346000
5346000
5346000
349.1024
349.3866
349.6422
349.8665
350.0597
350.4138
5346000
5346000
5346000
5346000
5346000
5346000
5346000
5346000
5346000
5346000
5346000
5346000
5346000
5346000
5346000
348.6082
348.8879
349.1467
349.369
349.557
349.8363
350.3227
5346000
5346000
5346000
5346000
5346000
5346000
5346000
5346000
5346000
5346000
5346000
5346000
5346000
5346000
5346000
5346000
5346000
5346000
5346000
5346000
5346000
5346000
5346000
5346000
5346000
5346000
5346000
5346000
5346000
5346000
5346000
5346000
5346000
5346000
5346000
351.0696
351.9848
353.8204
361.505
5346000
5346000
5346000
5346000
5346000
350.51
351.4376
353.266
358.1064
375.3647
5346000
5346000
5346000
5346000
5346000
349.9567
350.7639
352.0805
355.0609
362.9007
386.0655
5346000
5346000
5346000
5346000
5346000
349.435
350.1378
351.0838
352.7795
356.6944
366.2688
391.0532
5346000
5346000
5346000
5346000
5346000
348.9418
349.5749
350.3054
351.3313
353.2115
357.3541
366.5745
388.7201
5346000
5346000
5346000
5346000
5346000
348.4741
349.053
349.6692
350.3777
351.3706
353.1146
356.6258
363.6063
379.8589
5346000
5346000
5346000
5346000
5346000
348.0276
348.5582
349.1026
349.6693
350.3045
351.1481
352.4833
354.8225
358.7448
366.9051
5346000
5346000
5346000
5346000
5346000
347.6006
348.0814
348.5712
349.0636
349.5646
350.0995
350.7385
351.5838
352.742
353.9561
357.5771
5346000
5346000
5346000
5346000
5346000
347.1918
347.6209
348.0601
348.5036
348.9473
349.3923
349.8426
350.3106
350.7756
351.1098
351.7399
355.2386
5346000
5346000
5346000
5346000
5346000
346.8007
347.1773
347.5684
347.9711
348.3839
348.8049
349.2332
349.6618
350.0706
350.3525
350.5111
351.2669
353.2391
5346000
5346000
5346000
5346000
5346000
5346000
5346000
5346000
5346000
5346000
5346000
5346000
5346000
5346000
5346000
350.2676
350.5349
350.9348
351.8537
5346000
5346000
5346000
5346000
5346000
5346000
5346000
5346000
5346000
5346000
5346000
5346000
5346000
5346000
5346000
349.6919
349.9604
350.2273
350.521
351.0256
5346000
5346000
5346000
5346000
5346000
5346000
5346000
5346000
5346000
5346000
5346000
5346000
5346000
5346000
5346000
349.1339
349.4127
349.6656
349.8942
350.1108
350.5517
5346000
5346000
5346000
5346000
5346000
5346000
5346000
5346000
5346000
5346000
5346000
5346000
5346000
5346000
5346000
348.6239
348.9018
349.1592
349.3812
349.572
349.8617
350.3855
5346000
5346000
5346000
5346000
5346000
5346000
5346000
5346000
5346000
5346000
5346000
5346000
5346000
5346000
5346000
348.1567
348.4314
348.6884
348.9184
349.1125
349.3839
349.8111
350.295
5346000
5346000
5346000
5346000
5346000
5346000
5346000
5346000
5346000
5346000
5346000
5346000
5346000
5346000
5346000
5346000
5346000
5346000
5346000
5346000
5346000
5346000
5346000
5346000
5346000
5346000
5346000
5346000
5346000
5346000
5346000
5346000
5346000
5346000
5346000
5346000
5346000
5346000
5346000
5346000
350.4529
351.1505
352.1768
354.2317
362.0101
5346000
5346000
5346000
5346000
5346000
349.9251
350.6351
351.6683
353.7287
358.8292
375.659
5346000
5346000
5346000
5346000
5346000
349.4175
350.0796
350.9337
352.3618
355.4848
363.041
384.4097
5346000
5346000
5346000
5346000
5346000
348.934
349.5524
350.2591
351.2282
352.9501
356.6731
364.9761
385.9747
5346000
5346000
5346000
5346000
5346000
348.4741
349.053
349.6692
350.3777
351.3706
353.1146
356.6258
363.6063
379.8589
5346000
5346000
5346000
5346000
5346000
348.0343
348.5755
349.1304
349.7086
350.3637
351.2546
352.7038
355.2807
359.565
367.8536
5346000
5346000
5346000
5346000
5346000
347.613
348.1132
348.6201
349.1262
349.6397
350.1961
350.8888
351.8574
353.2368
354.6417
358.5424
5346000
5346000
5346000
5346000
5346000
347.2088
347.6642
348.1255
348.5838
349.0331
349.4757
349.9224
350.4004
350.9034
351.2789
352.0637
356.4329
5346000
5346000
5346000
5346000
5346000
346.8212
347.2282
347.6441
348.0622
348.4771
348.8832
349.2763
349.6458
349.9668
350.134
350.3979
351.4564
354.3866
5346000
5346000
5346000
5346000
5346000
346.4498
346.8075
347.1784
347.5599
347.9498
348.3462
348.7457
349.142
349.5106
349.7629
349.8541
350.3154
350.9967
352.6632
5346000
5346000
5346000
5346000
5346000
5346000
5346000
5346000
5346000
5346000
5346000
5346000
5346000
5346000
5346000
349.7154
349.9444
350.2234
350.6085
351.4406
5346000
5346000
5346000
5346000
5346000
5346000
5346000
5346000
5346000
5346000
5346000
5346000
5346000
5346000
5346000
349.1779
349.4411
349.687
349.9252
350.1885
350.7945
5346000
5346000
5346000
5346000
5346000
5346000
5346000
5346000
5346000
5346000
5346000
5346000
5346000
5346000
5346000
348.6542
348.9267
349.1801
349.4016
349.5991
349.9131
350.5231
5346000
5346000
5346000
5346000
5346000
5346000
5346000
5346000
5346000
5346000
5346000
5346000
5346000
5346000
5346000
348.1719
348.4447
348.7002
348.9292
349.1239
349.3987
349.8365
350.3577
5346000
5346000
5346000
5346000
5346000
5346000
5346000
5346000
5346000
5346000
5346000
5346000
5346000
5346000
5346000
347.73
347.9975
348.2531
348.4858
348.693
348.9603
349.3617
349.7865
350.2667
5346000
5346000
5346000
5346000
5346000
5346000
5346000
5346000
5346000
5346000
5346000
5346000
5346000
5346000
5346000
5346000
5346000
5346000
5346000
5346000
5346000
5346000
5346000
5346000
5346000
5346000
5346000
5346000
5346000
5346000
5346000
5346000
5346000
5346000
5346000
5346000
5346000
5346000
5346000
5346000
5346000
5346000
5346000
5346000
5346000
349.8857
350.4863
351.2173
352.3162
354.4539
362.1028
5346000
5346000
5346000
5346000
5346000
349.3924
349.9989
350.7347
351.83
353.9696
358.8987
374.6727
5346000
5346000
5346000
5346000
5346000
348.9187
349.5088
350.1714
351.0387
352.4806
355.4542
362.0539
380.516
5346000
5346000
5346000
5346000
5346000
348.4669
349.034
349.636
350.321
351.258
352.8566
356.0229
362.3498
377.9865
5346000
5346000
5346000
5346000
5346000
348.0343
348.5755
349.1304
349.7086
350.3637
351.2546
352.7038
355.2807
359.565
367.8536
5346000
5346000
5346000
5346000
5346000
347.6194
348.1294
348.6451
349.1585
349.6793
350.2487
350.9737
352.0147
353.5184
355.0183
359.0269
5346000
5346000
5346000
5346000
5346000
347.2206
347.6942
348.1712
348.6403
349.0944
349.5379
349.9882
350.4865
351.0386
351.4606
352.3445
357.2558
5346000
5346000
5346000
5346000
5346000
346.8373
347.2693
347.7061
348.1373
348.5547
348.9506
349.3207
349.6578
349.9458
350.0863
350.4049
351.718
355.3674
5346000
5346000
5346000
5346000
5346000
346.4693
346.8559
347.2504
347.6463
348.0373
348.4173
348.7773
349.1045
349.3668
349.4912
349.6533
350.2247
351.1621
353.5692
5346000
5346000
5346000
5346000
5346000
346.1164
346.4563
346.8086
347.1704
347.5398
347.9143
348.2909
348.6618
349.0064
349.2422
349.3254
349.685
350.1023
350.7039
352.0836
5346000
5346000
5346000
5346000
5346000
5346000
5346000
5346000
5346000
5346000
5346000
5346000
5346000
5346000
5346000
349.202
349.4239
349.6631
349.9306
350.2871
351.1835
5346000
5346000
5346000
5346000
5346000
5346000
5346000
5346000
5346000
5346000
5346000
5346000
5346000
5346000
5346000
348.6968
348.954
349.1983
349.4195
349.6324
349.9925
350.7651
5346000
5346000
5346000
5346000
5346000
5346000
5346000
5346000
5346000
5346000
5346000
5346000
5346000
5346000
5346000
348.2012
348.4687
348.72
348.947
349.1431
349.4259
349.8879
350.4951
5346000
5346000
5346000
5346000
5346000
5346000
5346000
5346000
5346000
5346000
5346000
5346000
5346000
5346000
5346000
347.7446
348.0104
348.2644
348.4961
348.7029
348.9714
349.3764
349.8119
350.3292
5346000
5346000
5346000
5346000
5346000
5346000
5346000
5346000
5346000
5346000
5346000
5346000
5346000
5346000
5346000
347.3251
347.5854
347.8369
348.0719
348.2861
348.5581
348.9405
349.3399
349.7613
350.2395
5346000
5346000
5346000
5346000
5346000
5346000
5346000
5346000
5346000
5346000
5346000
5346000
5346000
5346000
5346000
5346000
5346000
5346000
5346000
5346000
5346000
5346000
5346000
5346000
5346000
5346000
5346000
5346000
5346000
5346000
5346000
5346000
5346000
5346000
5346000
5346000
5346000
5346000
5346000
5346000
5346000
5346000
5346000
5346000
5346000
5346000
5346000
5346000
5346000
5346000
349.3605
349.9024
350.5096
351.257
352.3775
354.4585
361.7869
5346000
5346000
5346000
5346000
5346000
348.8967
349.4469
350.0512
350.7908
351.8885
353.933
358.2888
372.3005
5346000
5346000
5346000
5346000
5346000
348.4529
348.9967
349.572
350.2145
351.0525
352.3953
354.9447
360.0409
374.1875
5346000
5346000
5346000
5346000
5346000
348.0276
348.5582
349.1026
349.6693
350.3045
351.1481
352.4833
354.8225
358.7448
366.9051
5346000
5346000
5346000
5346000
5346000
347.6194
348.1294
348.6451
349.1585
349.6793
350.2487
350.9737
352.0147
353.5184
355.0183
359.0269
5346000
5346000
5346000
5346000
5346000
347.2267
347.7095
348.1946
348.6693
349.1264
349.5711
350.0255
350.5386
351.1223
351.5716
352.5036
357.6725
5346000
5346000
5346000
5346000
5346000
346.8486
347.2979
347.7493
348.1901
348.6098
348.9999
349.3575
349.6802
349.9605
350.0974
350.4482
351.9459
356.0555
5346000
5346000
5346000
5346000
5346000
346.4847
346.895
347.3093
347.7175
348.1102
348.4781
348.8101
349.0932
349.3012
349.3806
349.5665
350.2237
351.3758
354.3595
5346000
5346000
5346000
5346000
5346000
346.1349
346.5023
346.8771
347.2526
347.623
347.9814
348.3193
348.6215
348.8604
348.9719
349.1127
349.5229
350.0403
350.855
352.7866
5346000
5346000
5346000
5346000
5346000
345.7994
346.1225
346.4573
346.8009
347.1513
347.5061
347.8621
348.2126
348.5373
348.7646
348.85
349.1748
349.5036
349.8755
350.4062
351.7513
5346000
5346000
5346000
5346000
5346000
5346000
5346000
5346000
5346000
5346000
5346000
5346000
5346000
5346000
5346000
348.7223
348.9399
349.1721
349.4034
349.6537
350.0965
351.151
5346000
5346000
5346000
5346000
5346000
5346000
5346000
5346000
5346000
5346000
5346000
5346000
5346000
5346000
5346000
348.2425
348.4957
348.7374
348.9612
349.1625
349.4614
349.9674
350.7361
5346000
5346000
5346000
5346000
5346000
5346000
5346000
5346000
5346000
5346000
5346000
5346000
5346000
5346000
5346000
347.7729
348.0337
348.2836
348.5127
348.7193
348.9906
349.4036
349.8632
350.4663
5346000
5346000
5346000
5346000
5346000
5346000
5346000
5346000
5346000
5346000
5346000
5346000
5346000
5346000
5346000
347.3393
347.5978
347.8478
348.0817
348.2954
348.5678
348.9516
349.3546
349.7867
350.3019
5346000
5346000
5346000
5346000
5346000
5346000
5346000
5346000
5346000
5346000
5346000
5346000
5346000
5346000
5346000
346.9408
347.1928
347.4394
347.6733
347.8933
348.1654
348.5403
348.9212
349.3177
349.7373
350.2088
5346000
5346000
5346000
5346000
5346000
5346000
5346000
5346000
5346000
5346000
5346000
5346000
5346000
5346000
5346000
5346000
5346000
5346000
5346000
5346000
5346000
5346000
5346000
5346000
5346000
5346000
5346000
5346000
5346000
5346000
5346000
5346000
5346000
5346000
5346000
5346000
5346000
5346000
5346000
5346000
5346000
5346000
5346000
5346000
5346000
5346000
5346000
5346000
5346000
5346000
5346000
5346000
5346000
5346000
5346000
348.8686
349.3713
349.9105
350.5149
351.2578
352.3425
354.2361
361.0087
5346000
5346000
5346000
5346000
5346000
348.4327
348.9433
349.4822
350.0705
350.7871
351.8186
353.6021
357.0439
368.2561
5346000
5346000
5346000
5346000
5346000
348.0145
348.5242
349.0487
349.594
350.1943
350.9557
352.0919
354.0052
357.2331
364.9633
5346000
5346000
5346000
5346000
5346000
347.613
348.1132
348.6201
349.1262
349.6397
350.1961
350.8888
351.8574
353.2368
354.6417
358.5424
5346000
5346000
5346000
5346000
5346000
347.2267
347.7095
348.1946
348.6693
349.1264
349.5711
350.0255
350.5386
351.1223
351.5716
352.5036
357.6725
5346000
5346000
5346000
5346000
5346000
346.8544
347.3125
347.7715
348.2172
348.6384
349.026
349.3784
349.6963
349.9766
350.1145
350.481
352.0758
356.4071
5346000
5346000
5346000
5346000
5346000
346.4954
346.9222
347.3505
347.7675
348.1617
348.5222
348.8371
349.0956
349.2775
349.3381
349.5338
350.2533
351.5607
354.9223
5346000
5346000
5346000
5346000
5346000
346.1496
346.5396
346.9332
347.3204
347.6922
348.0387
348.3484
348.6051
348.7861
348.8488
349.0029
349.4449
350.0389
351.0323
353.4065
5346000
5346000
5346000
5346000
5346000
345.817
346.1664
346.5225
346.8792
347.2306
347.5704
347.8897
348.1751
348.4
348.5117
348.6479
349.0031
349.3825
349.8436
350.548
352.3603
5346000
5346000
5346000
5346000
5346000
345.4979
345.8052
346.1234
346.45
346.7826
347.1193
347.4567
347.7885
348.0968
348.3157
348.4082
348.7136
349.015
349.3123
349.6497
350.2257
351.7106
5346000
5346000
5346000
5346000
5346000
5346000
5346000
5346000
5346000
5346000
5346000
5346000
5346000
5346000
5346000
348.2691
348.4855
348.7141
348.9412
349.1615
349.4921
350.0718
351.119
5346000
5346000
5346000
5346000
5346000
5346000
5346000
5346000
5346000
5346000
5346000
5346000
5346000
5346000
5346000
347.8132
348.0605
348.3011
348.526
348.7343
349.0121
349.4393
349.9428
350.7063
5346000
5346000
5346000
5346000
5346000
5346000
5346000
5346000
5346000
5346000
5346000
5346000
5346000
5346000
5346000
347.3667
347.6205
347.8665