/*--------------------------------*- C++ -*----------------------------------*\
| =========                 |                                                 |
| \\      /  F ield         | OpenFOAM: The Open Source CFD Toolbox           |
|  \\    /   O peration     | Version:  2306                                  |
|   \\  /    A nd           | Website:  www.openfoam.com                      |
|    \\/     M anipulation  |                                                 |
\*---------------------------------------------------------------------------*/
FoamFile
{
    version     2.0;
    format      ascii;
    arch        "LSB;label=32;scalar=64";
    class       volScalarField;
    location    "0.3";
    object      T;
}
// * * * * * * * * * * * * * * * * * * * * * * * * * * * * * * * * * * * * * //

dimensions      [0 0 0 1 0 0 0];

internalField   nonuniform List<scalar> 
52000
(
1158.498
1158.496
1160.048
1158.443
1158.493
1160.047
1158.441
1162.111
1160.03
1158.334
1158.488
1160.046
1158.436
1162.111
1160.029
1158.33
1164.253
1162.11
1159.996
1158.175
1158.483
1160.044
1158.43
1162.11
1160.028
1158.323
1164.253
1162.11
1159.995
1158.168
1166.325
1164.258
1162.11
1159.949
1157.974
1158.477
1160.042
1158.422
1162.108
1160.025
1158.312
1164.251
1162.108
1159.992
1158.155
1166.325
1164.258
1162.109
1159.947
1157.96
1168.284
1166.332
1164.27
1162.113
1159.893
1157.806
1158.471
1160.04
1158.414
1162.106
1160.023
1158.3
1164.25
1162.106
1159.989
1158.136
1166.323
1164.256
1162.107
1159.943
1157.934
1168.284
1166.331
1164.269
1162.111
1159.89
1157.782
1170.125
1168.291
1166.347
1164.29
1162.121
1159.852
1157.697
1158.466
1160.038
1158.406
1162.105
1160.02
1158.286
1164.248
1162.104
1159.985
1158.115
1166.322
1164.254
1162.104
1159.939
1157.9
1168.283
1166.33
1164.266
1162.107
1159.885
1157.736
1170.124
1168.291
1166.346
1164.288
1162.119
1159.847
1157.666
1171.852
1170.131
1168.306
1166.371
1164.321
1162.136
1159.828
1157.596
1158.463
1160.036
1158.399
1162.103
1160.017
1158.272
1164.246
1162.101
1159.981
1158.092
1166.32
1164.251
1162.1
1159.933
1157.865
1168.281
1166.328
1164.263
1162.102
1159.877
1157.668
1170.123
1168.289
1166.343
1164.284
1162.114
1159.837
1157.605
1171.852
1170.131
1168.305
1166.369
1164.319
1162.133
1159.821
1157.56
1173.477
1171.858
1170.145
1168.33
1166.408
1164.354
1162.149
1159.809
1157.511
1158.461
1160.035
1158.393
1162.101
1160.015
1158.259
1164.244
1162.099
1159.977
1158.066
1166.318
1164.249
1162.096
1159.927
1157.841
1168.28
1166.325
1164.259
1162.096
1159.87
1157.582
1170.122
1168.287
1166.34
1164.279
1162.107
1159.823
1157.511
1171.851
1170.129
1168.303
1166.366
1164.314
1162.128
1159.807
1157.485
1173.476
1171.858
1170.144
1168.329
1166.406
1164.353
1162.146
1159.8
1157.469
1175.007
1173.482
1171.871
1170.168
1168.366
1166.446
1164.38
1162.166
1159.797
1157.444
1158.461
1160.034
1158.391
1162.1
1160.013
1158.25
1164.243
1162.097
1159.972
1158.04
1166.317
1164.246
1162.091
1159.919
1157.782
1168.278
1166.323
1164.254
1162.088
1159.866
1146.152
1170.12
1168.285
1166.336
1164.271
1162.096
1159.808
1157.379
1171.85
1170.128
1168.3
1166.36
1164.306
1162.121
1159.786
1157.368
1173.476
1171.857
1170.142
1168.325
1166.401
1164.349
1162.14
1159.782
1157.384
1175.007
1173.482
1171.87
1170.166
1168.364
1166.444
1164.378
1162.163
1159.787
1157.399
1176.451
1175.012
1173.494
1171.892
1170.201
1168.403
1166.474
1164.409
1162.187
1159.795
1157.399
1158.463
1160.034
1158.391
1162.099
1160.012
1158.244
1164.242
1162.095
1159.969
1158.02
1166.315
1164.244
1162.088
1159.91
1157.723
1168.276
1166.32
1164.25
1162.08
1159.85
1135.443
1170.119
1168.283
1166.331
1164.263
1162.081
1158.557
1135.247
1171.848
1170.125
1168.296
1166.353
1164.294
1162.114
1159.761
1157.202
1173.474
1171.855
1170.139
1168.32
1166.393
1164.344
1162.132
1159.755
1157.251
1175.006
1173.481
1171.868
1170.163
1168.36
1166.441
1164.375
1162.156
1159.766
1157.308
1176.451
1175.012
1173.493
1171.891
1170.199
1168.402
1166.472
1164.407
1162.184
1159.784
1157.352
1177.817
1176.456
1175.023
1173.513
1171.923
1170.235
1168.43
1166.504
1164.441
1162.214
1159.803
1157.376
1158.466
1160.035
1158.393
1162.099
1160.012
1158.244
1164.241
1162.094
1159.967
1158.009
1166.314
1164.242
1162.085
1159.903
1157.677
1168.275
1166.318
1164.246
1162.073
1159.831
1129.475
1170.117
1168.28
1166.327
1164.254
1162.065
1156.143
1109.164
1171.847
1170.123
1168.292
1166.344
1164.273
1161.651
1156.094
1129.107
1173.473
1171.853
1170.136
1168.314
1166.381
1164.338
1162.122
1159.718
1157.062
1175.005
1173.479
1171.866
1170.159
1168.353
1166.436
1164.37
1162.146
1159.733
1157.165
1176.45
1175.011
1173.492
1171.888
1170.196
1168.399
1166.47
1164.404
1162.177
1159.761
1157.258
1177.816
1176.456
1175.022
1173.512
1171.921
1170.234
1168.429
1166.503
1164.439
1162.21
1159.792
1157.329
1179.109
1177.821
1176.466
1175.04
1173.541
1171.954
1170.26
1168.459
1166.538
1164.476
1162.246
1159.823
1157.375
1158.471
1160.036
1158.399
1162.1
1160.013
1158.25
1164.241
1162.094
1159.967
1158.009
1166.313
1164.242
1162.083
1159.899
1157.653
1168.274
1166.316
1164.243
1162.068
1159.815
1126.071
1170.116
1168.278
1166.324
1164.247
1162.051
1154.055
1092.873
1171.846
1170.121
1168.288
1166.336
1164.257
1160.767
1148.967
1092.6
1173.472
1171.851
1170.132
1168.305
1166.36
1164.118
1160.804
1153.955
1125.499
1175.004
1173.477
1171.863
1170.152
1168.341
1166.432
1164.365
1162.133
1159.688
1156.963
1176.449
1175.009
1173.489
1171.884
1170.189
1168.395
1166.467
1164.399
1162.165
1159.725
1157.111
1177.816
1176.455
1175.021
1173.509
1171.918
1170.231
1168.427
1166.502
1164.436
1162.203
1159.769
1157.235
1179.109
1177.821
1176.465
1175.039
1173.54
1171.953
1170.259
1168.459
1166.537
1164.474
1162.242
1159.812
1157.329
1180.333
1179.113
1177.83
1176.482
1175.066
1173.57
1171.977
1170.287
1168.491
1166.573
1164.514
1162.283
1159.853
1157.396
1158.477
1160.038
1158.406
1162.101
1160.015
1158.259
1164.242
1162.095
1159.969
1158.02
1166.313
1164.242
1162.083
1159.899
1157.653
1168.273
1166.316
1164.242
1162.065
1159.805
1124.489
1170.115
1168.277
1166.321
1164.242
1162.041
1152.52
1083.103
1171.844
1170.119
1168.284
1166.33
1164.244
1159.977
1142.726
1068.175
1173.471
1171.849
1170.128
1168.298
1166.344
1163.726
1158.212
1142.621
1082.375
1175.002
1173.476
1171.859
1170.145
1168.322
1166.3
1163.795
1160.041
1152.349
1123.643
1176.448
1175.008
1173.486
1171.878
1170.178
1168.391
1166.463
1164.393
1162.149
1159.675
1156.906
1177.815
1176.453
1175.018
1173.505
1171.912
1170.228
1168.425
1166.499
1164.431
1162.191
1159.733
1157.09
1179.108
1177.82
1176.464
1175.037
1173.536
1171.95
1170.258
1168.457
1166.535
1164.472
1162.235
1159.79
1157.237
1180.333
1179.113
1177.83
1176.481
1175.065
1173.569
1171.976
1170.287
1168.491
1166.573
1164.513
1162.28
1159.843
1157.35
1181.494
1180.337
1179.122
1177.846
1176.506
1175.092
1173.591
1172.001
1170.316
1168.524
1166.611
1164.555
1162.325
1159.893
1157.437
1158.483
1160.04
1158.414
1162.103
1160.017
1158.272
1164.243
1162.097
1159.972
1158.04
1166.314
1164.242
1162.085
1159.903
1157.677
1168.273
1166.316
1164.242
1162.065
1159.805
1124.489
1170.114
1168.276
1166.32
1164.24
1162.036
1151.707
1078.471
1171.843
1170.118
1168.282
1166.325
1164.236
1159.375
1138.104
1052.888
1173.469
1171.847
1170.125
1168.292
1166.333
1163.388
1155.856
1132.537
1052.279
1175.001
1173.474
1171.856
1170.138
1168.307
1166.085
1162.694
1155.877
1137.809
1077.03
1176.447
1175.006
1173.483
1171.871
1170.16
1168.294
1166.16
1163.512
1159.463
1151.444
1123.27
1177.814
1176.452
1175.016
1173.5
1171.902
1170.224
1168.422
1166.496
1164.425
1162.173
1159.682
1156.89
1179.107
1177.819
1176.462
1175.033
1173.531
1171.947
1170.255
1168.455
1166.533
1164.467
1162.224
1159.756
1157.098
1180.333
1179.112
1177.828
1176.479
1175.062
1173.567
1171.974
1170.286
1168.49
1166.572
1164.511
1162.274
1159.824
1157.26
1181.494
1180.337
1179.121
1177.845
1176.505
1175.091
1173.59
1172.001
1170.316
1168.524
1166.611
1164.554
1162.323
1159.885
1157.391
1182.594
1181.498
1180.346
1179.136
1177.868
1176.53
1175.112
1173.613
1172.028
1170.347
1168.559
1166.65
1164.597
1162.37
1159.942
1158.154
1158.488
1160.042
1158.422
1162.105
1160.02
1158.286
1164.244
1162.099
1159.977
1158.066
1166.315
1164.244
1162.088
1159.91
1157.723
1168.274
1166.316
1164.243
1162.068
1159.815
1126.071
1170.114
1168.276
1166.32
1164.24
1162.036
1151.707
1078.471
1171.843
1170.117
1168.281
1166.323
1164.232
1159.049
1135.649
1045.47
1173.469
1171.846
1170.123
1168.288
1166.326
1163.134
1154.042
1124.98
1032.887
1175
1173.472
1171.853
1170.132
1168.297
1165.909
1161.713
1152.034
1124.712
1043.778
1176.446
1175.004
1173.48
1171.865
1170.147
1168.148
1165.592
1161.782
1154.071
1135.071
1076.008
1177.813
1176.45
1175.013
1173.494
1171.885
1170.144
1168.221
1166.046
1163.316
1159.163
1151.342
1124.355
1179.106
1177.817
1176.459
1175.029
1173.522
1171.944
1170.253
1168.453
1166.53
1164.46
1162.206
1159.709
1156.91
1180.332
1179.111
1177.827
1176.476
1175.057
1173.564
1171.972
1170.284
1168.488
1166.57
1164.507
1162.265
1159.795
1157.128
1181.493
1180.336
1179.12
1177.843
1176.502
1175.09
1173.588
1172
1170.315
1168.524
1166.61
1164.553
1162.319
1159.868
1157.301
1182.594
1181.497
1180.345
1179.135
1177.867
1176.529
1175.111
1173.613
1172.028
1170.347
1168.559
1166.65
1164.598
1162.37
1159.934
1158.091
1183.637
1182.598
1181.506
1180.359
1179.157
1177.89
1176.548
1175.133
1173.637
1172.056
1170.379
1168.595
1166.69
1164.642
1162.419
1160.604
1159.533
1158.493
1160.044
1158.43
1162.106
1160.023
1158.3
1164.246
1162.101
1159.981
1158.092
1166.317
1164.246
1162.091
1159.919
1157.782
1168.275
1166.318
1164.246
1162.073
1159.831
1129.475
1170.115
1168.277
1166.321
1164.242
1162.041
1152.52
1083.103
1171.843
1170.117
1168.281
1166.323
1164.232
1159.049
1135.649
1045.47
1173.468
1171.846
1170.122
1168.286
1166.322
1162.997
1153.052
1120.939
1023.32
1175
1173.471
1171.851
1170.129
1168.29
1165.782
1160.965
1149.038
1114.803
1022.011
1176.445
1175.003
1173.477
1171.86
1170.138
1168.034
1165.104
1160.209
1149.033
1120.219
1042.141
1177.812
1176.449
1175.01
1173.488
1171.873
1170.026
1167.853
1165.184
1161.118
1153.092
1134.732
1079.264
1179.105
1177.816
1176.457
1175.023
1173.507
1171.872
1170.093
1168.167
1165.985
1163.25
1159.209
1152.076
1127.094
1180.331
1179.11
1177.824
1176.471
1175.049
1173.561
1171.97
1170.282
1168.486
1166.567
1164.501
1162.25
1159.756
1156.956
1181.492
1180.335
1179.118
1177.839
1176.497
1175.087
1173.587
1171.998
1170.314
1168.523
1166.609
1164.551
1162.313
1159.845
1157.168
1182.594
1181.497
1180.344
1179.133
1177.864
1176.528
1175.11
1173.612
1172.027
1170.347
1168.56
1166.651
1164.599
1162.368
1159.92
1157.95
1183.637
1182.598
1181.505
1180.358
1179.156
1177.89
1176.548
1175.132
1173.637
1172.056
1170.379
1168.596
1166.692
1164.643
1162.419
1160.596
1159.438
1184.626
1183.641
1182.605
1181.518
1180.379
1179.178
1177.907
1176.568
1175.155
1173.663
1172.085
1170.412
1168.632
1166.731
1164.686
1163.003
1161.871
1160.923
1158.496
1160.046
1158.436
1162.108
1160.025
1158.312
1164.248
1162.104
1159.985
1158.115
1166.318
1164.249
1162.096
1159.927
1157.841
1168.276
1166.32
1164.25
1162.08
1159.85
1135.443
1170.116
1168.278
1166.324
1164.247
1162.051
1154.055
1092.873
1171.843
1170.118
1168.282
1166.325
1164.236
1159.375
1138.104
1052.888
1173.468
1171.846
1170.122
1168.286
1166.322
1162.997
1153.052
1120.939
1023.32
1174.999
1173.471
1171.85
1170.127
1168.287
1165.715
1160.559
1147.393
1109.473
1011.171
1176.444
1175.002
1173.476
1171.856
1170.132
1167.955
1164.743
1158.993
1145.07
1108.915
1019.894
1177.811
1176.447
1175.008
1173.484
1171.865
1169.937
1167.55
1164.428
1159.09
1147.373
1119.634
1047.345
1179.104
1177.814
1176.454
1175.017
1173.496
1171.768
1169.806
1167.629
1164.928
1160.831
1153.144
1136.883
1087.227
1180.33
1179.108
1177.822
1176.466
1175.035
1173.495
1171.83
1170.06
1168.151
1165.997
1163.343
1159.626
1153.615
1132.09
1181.492
1180.334
1179.116
1177.835
1176.49
1175.084
1173.585
1171.997
1170.313
1168.521
1166.607
1164.547
1162.303
1159.818
1157.006
1182.593
1181.496
1180.342
1179.13
1177.86
1176.525
1175.108
1173.611
1172.026
1170.346
1168.559
1166.652
1164.599
1162.367
1159.903
1157.674
1183.637
1182.597
1181.504
1180.356
1179.153
1177.888
1176.546
1175.131
1173.637
1172.055
1170.379
1168.597
1166.694
1164.646
1162.42
1160.582
1159.211
1184.626
1183.641
1182.605
1181.517
1180.378
1179.177
1177.906
1176.567
1175.155
1173.663
1172.085
1170.412
1168.634
1166.733
1164.689
1163.007
1161.862
1160.802
1185.562
1184.629
1183.648
1182.617
1181.537
1180.399
1179.194
1177.925
1176.588
1175.178
1173.69
1172.115
1170.445
1168.669
1166.771
1165.199
1164.12
1163.139
1162.328
1158.498
1160.047
1158.441
1162.11
1160.028
1158.323
1164.25
1162.106
1159.989
1158.136
1166.32
1164.251
1162.1
1159.933
1157.865
1168.278
1166.323
1164.254
1162.088
1159.866
1146.152
1170.117
1168.28
1166.327
1164.254
1162.065
1156.143
1109.164
1171.844
1170.119
1168.284
1166.33
1164.244
1159.977
1142.726
1068.175
1173.469
1171.846
1170.123
1168.288
1166.326
1163.134
1154.042
1124.98
1032.887
1174.999
1173.471
1171.85
1170.127
1168.287
1165.715
1160.559
1147.393
1109.473
1011.171
1176.444
1175.001
1173.475
1171.855
1170.129
1167.914
1164.551
1158.326
1142.882
1102.811
1008.79
1177.81
1176.447
1175.006
1173.48
1171.859
1169.876
1167.334
1163.859
1157.503
1142.846
1108.124
1026.549
1179.104
1177.813
1176.452
1175.013
1173.488
1171.691
1169.575
1167.175
1163.984
1158.574
1147.404
1123.1
1059.821
1180.329
1179.107
1177.819
1176.461
1175.024
1173.399
1171.579
1169.649
1167.516
1164.882
1161.014
1154.293
1141.381
1101.082
1181.491
1180.333
1179.114
1177.83
1176.477
1175.023
1173.455
1171.803
1170.059
1168.187
1166.1
1163.616
1160.409
1155.905
1141.067
1182.592
1181.494
1180.34
1179.126
1177.853
1176.523
1175.106
1173.609
1172.025
1170.345
1168.559
1166.651
1164.599
1162.365
1159.887
1156.884
1183.636
1182.596
1181.502
1180.354
1179.149
1177.886
1176.545
1175.13
1173.636
1172.055
1170.379
1168.598
1166.696
1164.651
1162.425
1160.573
1158.717
1184.625
1183.64
1182.604
1181.516
1180.375
1179.176
1177.905
1176.566
1175.154
1173.663
1172.085
1170.414
1168.636
1166.737
1164.695
1163.021
1161.848
1160.508
1185.562
1184.629
1183.648
1182.617
1181.536
1180.398
1179.193
1177.925
1176.588
1175.178
1173.69
1172.115
1170.446
1168.671
1166.774
1165.207
1164.132
1163.13
1162.188
1186.448
1185.565
1184.636
1183.66
1182.635
1181.556
1180.413
1179.211
1177.944
1176.61
1175.203
1173.717
1172.145
1170.478
1168.705
1167.223
1166.178
1165.236
1164.409
1163.752
1160.048
1158.443
1162.111
1160.029
1158.33
1164.251
1162.108
1159.992
1158.155
1166.322
1164.254
1162.104
1159.939
1157.9
1168.28
1166.325
1164.259
1162.096
1159.87
1157.582
1170.119
1168.283
1166.331
1164.263
1162.081
1158.557
1135.247
1171.846
1170.121
1168.288
1166.336
1164.257
1160.767
1148.967
1092.6
1173.469
1171.847
1170.125
1168.292
1166.333
1163.388
1155.856
1132.537
1052.279
1175
1173.471
1171.851
1170.129
1168.29
1165.782
1160.965
1149.038
1114.803
1022.011
1176.444
1175.001
1173.475
1171.855
1170.129
1167.914
1164.551
1158.326
1142.882
1102.811
1008.79
1177.81
1176.446
1175.005
1173.479
1171.857
1169.845
1167.221
1163.553
1156.626
1140.337
1101.902
1016.219
1179.103
1177.812
1176.45
1175.01
1173.483
1171.638
1169.415
1166.846
1163.266
1156.791
1142.844
1112.615
1042.308
1180.328
1179.106
1177.817
1176.457
1175.017
1173.328
1171.38
1169.311
1166.973
1163.873
1158.818
1149.22
1130.316
1080.717
1181.49
1180.331
1179.111
1177.826
1176.467
1174.933
1173.225
1171.448
1169.585
1167.55
1165.095
1161.712
1156.471
1147.891
1123.654
1182.591
1181.493
1180.338
1179.122
1177.84
1176.465
1174.985
1173.431
1171.806
1170.099
1168.286
1166.307
1164.083
1161.574
1159.027
1151.204
1183.635
1182.595
1181.5
1180.35
1179.143
1177.883
1176.543
1175.129
1173.635
1172.054
1170.379
1168.599
1166.699
1164.656
1162.434
1160.639
1157.424
1184.625
1183.639
1182.602
1181.513
1180.371
1179.174
1177.904
1176.565
1175.153
1173.662
1172.086
1170.415
1168.639
1166.744
1164.704
1163.065
1161.843
1159.883
1185.561
1184.628
1183.646
1182.615
1181.534
1180.396
1179.192
1177.924
1176.587
1175.178
1173.69
1172.116
1170.449
1168.676
1166.781
1165.228
1164.167
1163.112
1161.854
1186.447
1185.565
1184.636
1183.659
1182.634
1181.555
1180.413
1179.21
1177.944
1176.61
1175.203
1173.717
1172.146
1170.48
1168.708
1167.231
1166.196
1165.254
1164.398
1163.602
1187.284
1186.451
1185.572
1184.647
1183.677
1182.653
1181.57
1180.429
1179.229
1177.965
1176.633
1175.228
1173.745
1172.175
1170.511
1169.105
1168.085
1167.155
1166.348
1165.68
1164.514
1162.111
1160.03
1158.334
1164.253
1162.11
1159.995
1158.168
1166.323
1164.256
1162.107
1159.943
1157.934
1168.281
1166.328
1164.263
1162.102
1159.877
1157.668
1170.12
1168.285
1166.336
1164.271
1162.096
1159.808
1157.379
1171.847
1170.123
1168.292
1166.344
1164.273
1161.651
1156.094
1129.107
1173.471
1171.849
1170.128
1168.298
1166.344
1163.726
1158.212
1142.621
1082.375
1175
1173.472
1171.853
1170.132
1168.297
1165.909
1161.713
1152.034
1124.712
1043.778
1176.444
1175.002
1173.476
1171.856
1170.132
1167.955
1164.743
1158.993
1145.07
1108.915
1019.894
1177.81
1176.446
1175.005
1173.479
1171.857
1169.845
1167.221
1163.553
1156.626
1140.337
1101.902
1016.219
1179.103
1177.812
1176.449
1175.009
1173.481
1171.612
1169.332
1166.673
1162.876
1155.801
1140.311
1106.956
1033.701
1180.328
1179.105
1177.816
1176.454
1175.013
1173.28
1171.244
1169.073
1166.573
1163.095
1157.068
1145.177
1121.926
1068.039
1181.489
1180.33
1179.109
1177.822
1176.461
1174.867
1173.043
1171.161
1169.192
1166.996
1164.168
1159.877
1152.652
1140.554
1112.593
1182.59
1181.492
1180.336
1179.117
1177.832
1176.38
1174.769
1173.105
1171.401
1169.64
1167.758
1165.598
1162.924
1159.535
1155.95
1144.568
1183.634
1182.594
1181.498
1180.345
1179.131
1177.829
1176.428
1174.961
1173.433
1171.845
1170.191
1168.459
1166.642
1164.803
1163.355
1161.677
1153.051
1184.624
1183.638
1182.6
1181.51
1180.365
1179.171
1177.902
1176.564
1175.152
1173.661
1172.085
1170.416
1168.642
1166.751
1164.719
1163.281
1161.922
1158.447
1185.561
1184.627
1183.645
1182.613
1181.53
1180.394
1179.191
1177.923
1176.587
1175.178
1173.69
1172.118
1170.452
1168.682
1166.792
1165.284
1164.264
1163.099
1161.171
1186.447
1185.564
1184.635
1183.657
1182.632
1181.554
1180.412
1179.21
1177.944
1176.61
1175.203
1173.719
1172.149
1170.485
1168.715
1167.253
1166.242
1165.302
1164.375
1163.25
1187.284
1186.45
1185.571
1184.647
1183.676
1182.653
1181.569
1180.429
1179.229
1177.965
1176.633
1175.228
1173.746
1172.177
1170.514
1169.114
1168.103
1167.18
1166.37
1165.667
1164.364
1188.073
1187.287
1186.457
1185.583
1184.664
1183.694
1182.667
1181.585
1180.447
1179.248
1177.986
1176.656
1175.253
1173.772
1172.205
1170.869
1169.87
1168.944
1168.128
1167.457
1166.353
1164.596
1164.253
1162.11
1159.996
1158.175
1166.325
1164.258
1162.109
1159.947
1157.96
1168.283
1166.33
1164.266
1162.107
1159.885
1157.736
1170.122
1168.287
1166.34
1164.279
1162.107
1159.823
1157.511
1171.848
1170.125
1168.296
1166.353
1164.294
1162.114
1159.761
1157.202
1173.472
1171.851
1170.132
1168.305
1166.36
1164.118
1160.804
1153.955
1125.499
1175.001
1173.474
1171.856
1170.138
1168.307
1166.085
1162.694
1155.877
1137.809
1077.03
1176.445
1175.003
1173.477
1171.86
1170.138
1168.034
1165.104
1160.209
1149.033
1120.219
1042.141
1177.81
1176.447
1175.006
1173.48
1171.859
1169.876
1167.334
1163.859
1157.503
1142.846
1108.124
1026.549
1179.103
1177.812
1176.449
1175.009
1173.481
1171.612
1169.332
1166.673
1162.876
1155.801
1140.311
1106.956
1033.701
1180.327
1179.104
1177.815
1176.453
1175.011
1173.256
1171.174
1168.95
1166.361
1162.669
1156.091
1142.928
1117.409
1061.892
1181.489
1180.329
1179.108
1177.819
1176.457
1174.822
1172.919
1170.961
1168.912
1166.583
1163.441
1158.395
1149.577
1134.973
1105.748
1182.59
1181.491
1180.334
1179.114
1177.825
1176.317
1174.598
1172.843
1171.07
1169.254
1167.288
1164.907
1161.707
1157.324
1152.737
1139.321
1183.634
1182.592
1181.496
1180.341
1179.123
1177.748
1176.224
1174.655
1173.063
1171.458
1169.834
1168.168
1166.419
1164.65
1163.389
1160.965
1147.816
1184.623
1183.637
1182.598
1181.505
1180.354
1179.12
1177.793
1176.405
1174.963
1173.47
1171.929
1170.344
1168.731
1167.174
1166.058
1165.359
1162.418
1155.02
1185.56
1184.626
1183.643
1182.609
1181.524
1180.392
1179.189
1177.922
1176.586
1175.177
1173.69
1172.119
1170.455
1168.689
1166.808
1165.524
1164.602
1163.139
1159.778
1186.446
1185.563
1184.633
1183.655
1182.629
1181.552
1180.411
1179.209
1177.943
1176.609
1175.203
1173.72
1172.152
1170.491
1168.725
1167.309
1166.363
1165.424
1164.346
1162.566
1187.283
1186.45
1185.57
1184.645
1183.674
1182.651
1181.569
1180.428
1179.228
1177.964
1176.633
1175.229
1173.748
1172.181
1170.52
1169.135
1168.151
1167.245
1166.425
1165.639
1164.014
1188.073
1187.287
1186.457
1185.582
1184.663
1183.694
1182.666
1181.585
1180.446
1179.248
1177.986
1176.656
1175.254
1173.774
1172.207
1170.877
1169.888
1168.971
1168.158
1167.481
1166.34
1164.446
1188.816
1188.076
1187.293
1186.468
1185.599
1184.681
1183.707
1182.681
1181.601
1180.465
1179.268
1178.007
1176.68
1175.279
1173.799
1172.527
1171.552
1170.632
1169.799
1169.095
1168.041
1166.425
1164.679
1166.325
1164.258
1162.11
1159.949
1157.974
1168.284
1166.331
1164.269
1162.111
1159.89
1157.782
1170.123
1168.289
1166.343
1164.284
1162.114
1159.837
1157.605
1171.85
1170.128
1168.3
1166.36
1164.306
1162.121
1159.786
1157.368
1173.473
1171.853
1170.136
1168.314
1166.381
1164.338
1162.122
1159.718
1157.062
1175.002
1173.476
1171.859
1170.145
1168.322
1166.3
1163.795
1160.041
1152.349
1123.643
1176.446
1175.004
1173.48
1171.865
1170.147
1168.148
1165.592
1161.782
1154.071
1135.071
1076.008
1177.811
1176.447
1175.008
1173.484
1171.865
1169.937
1167.55
1164.428
1159.09
1147.373
1119.634
1047.345
1179.103
1177.812
1176.45
1175.01
1173.483
1171.638
1169.415
1166.846
1163.266
1156.791
1142.844
1112.615
1042.308
1180.327
1179.104
1177.815
1176.453
1175.011
1173.256
1171.174
1168.95
1166.361
1162.669
1156.091
1142.928
1117.409
1061.892
1181.488
1180.329
1179.107
1177.818
1176.454
1174.8
1172.856
1170.858
1168.766
1166.362
1163.04
1157.561
1147.859
1131.966
1102.433
1182.589
1181.49
1180.332
1179.112
1177.821
1176.275
1174.482
1172.662
1170.838
1168.976
1166.929
1164.345
1160.677
1155.464
1150.18
1135.794
1183.633
1182.591
1181.494
1180.338
1179.117
1177.689
1176.062
1174.41
1172.763
1171.138
1169.527
1167.88
1166.098
1164.194
1162.798
1159.818
1143.451
1184.622
1183.636
1182.596
1181.501
1180.347
1179.044
1177.599
1176.115
1174.615
1173.117
1171.636
1170.191
1168.814
1167.61
1166.972
1165.967
1161.906
1150.9
1185.559
1184.625
1183.641
1182.605
1181.514
1180.343
1179.086
1177.771
1176.406
1174.997
1173.547
1172.067
1170.581
1169.171
1168.18
1167.729
1165.937
1163.328
1157.084
1186.446
1185.562
1184.631
1183.652
1182.623
1181.55
1180.409
1179.208
1177.942
1176.609
1175.203
1173.721
1172.154
1170.497
1168.74
1167.542
1166.749
1165.763
1164.332
1161.309
1187.283
1186.449
1185.569
1184.643
1183.671
1182.65
1181.567
1180.427
1179.227
1177.964
1176.633
1175.231
1173.751
1172.187
1170.53
1169.188
1168.272
1167.399
1166.549
1165.592
1163.349
1188.072
1187.286
1186.456
1185.58
1184.661
1183.692
1182.665
1181.584
1180.446
1179.248
1177.986
1176.657
1175.256
1173.778
1172.213
1170.897
1169.934
1169.037
1168.233
1167.536
1166.309
1164.096
1188.816
1188.076
1187.293
1186.467
1185.598
1184.68
1183.707
1182.681
1181.601
1180.464
1179.268
1178.008
1176.681
1175.28
1173.801
1172.535
1171.57
1170.658
1169.831
1169.128
1168.065
1166.412
1164.529
1189.513
1188.819
1188.082
1187.304
1186.483
1185.615
1184.693
1183.721
1182.697
1181.619
1180.483
1179.288
1178.03
1176.703
1175.303
1174.092
1173.144
1172.233
1171.389
1170.649
1169.603
1168.104
1166.497
1164.761
1168.284
1166.332
1164.27
1162.113
1159.893
1157.806
1170.124
1168.291
1166.346
1164.288
1162.119
1159.847
1157.666
1171.851
1170.129
1168.303
1166.366
1164.314
1162.128
1159.807
1157.485
1173.474
1171.855
1170.139
1168.32
1166.393
1164.344
1162.132
1159.755
1157.251
1175.004
1173.477
1171.863
1170.152
1168.341
1166.432
1164.365
1162.133
1159.688
1156.963
1176.447
1175.006
1173.483
1171.871
1170.16
1168.294
1166.16
1163.512
1159.463
1151.444
1123.27
1177.812
1176.449
1175.01
1173.488
1171.873
1170.026
1167.853
1165.184
1161.118
1153.092
1134.732
1079.264
1179.104
1177.813
1176.452
1175.013
1173.488
1171.691
1169.575
1167.175
1163.984
1158.574
1147.404
1123.1
1059.821
1180.328
1179.105
1177.816
1176.454
1175.013
1173.28
1171.244
1169.073
1166.573
1163.095
1157.068
1145.177
1121.926
1068.039
1181.488
1180.329
1179.107
1177.818
1176.454
1174.8
1172.856
1170.858
1168.766
1166.362
1163.04
1157.561
1147.859
1131.966
1102.433
1182.589
1181.49
1180.332
1179.11
1177.82
1176.254
1174.423
1172.57
1170.719
1168.83
1166.735
1164.027
1160.085
1154.407
1148.778
1134.029
1183.632
1182.591
1181.493
1180.336
1179.113
1177.649
1175.952
1174.24
1172.554
1170.913
1169.301
1167.642
1165.787
1163.702
1162.14
1158.799
1140.444
1184.622
1183.635
1182.595
1181.498
1180.341
1178.987
1177.445
1175.882
1174.333
1172.828
1171.391
1170.039
1168.794
1167.729
1167.217
1166.036
1161.024
1147.335
1185.558
1184.624
1183.639
1182.601
1181.506
1180.271
1178.9
1177.494
1176.075
1174.664
1173.281
1171.959
1170.747
1169.764
1169.303
1168.673
1166.498
1162.92
1153.874
1186.445
1185.561
1184.63
1183.648
1182.613
1181.503
1180.31
1179.064
1177.771
1176.437
1175.068
1173.674
1172.281
1170.967
1170.036
1169.633
1168.216
1166.639
1164.34
1159.218
1187.282
1186.448
1185.567
1184.64
1183.665
1182.648
1181.566
1180.426
1179.226
1177.963
1176.633
1175.231
1173.753
1172.193
1170.544
1169.405
1168.649
1167.799
1166.836
1165.524
1162.183
1188.072
1187.285
1186.454
1185.578
1184.658
1183.69
1182.664
1181.583
1180.445
1179.247
1177.986
1176.658
1175.259
1173.783
1172.222
1170.947
1170.049
1169.193
1168.395
1167.648
1166.253
1163.434
1188.815
1188.075
1187.292
1186.465
1185.596
1184.679
1183.706
1182.68
1181.601
1180.464
1179.268
1178.009
1176.682
1175.284
1173.807
1172.554
1171.613
1170.722
1169.909
1169.206
1168.119
1166.381
1164.179
1189.513
1188.818
1188.082
1187.303
1186.482
1185.614
1184.692
1183.721
1182.697
1181.618
1180.483
1179.289
1178.03
1176.705
1175.306
1174.099
1173.16
1172.258
1171.421
1170.684
1169.637
1168.127
1166.484
1164.611
1190.166
1189.516
1188.825
1188.092
1187.319
1186.499
1185.627
1184.706
1183.736
1182.713
1181.636
1180.503
1179.309
1178.051
1176.726
1175.572
1174.653
1173.758
1172.91
1172.142
1171.095
1169.658
1168.166
1166.57
1164.844
1170.125
1168.291
1166.347
1164.29
1162.121
1159.852
1157.697
1171.852
1170.131
1168.305
1166.369
1164.319
1162.133
1159.821
1157.56
1173.476
1171.857
1170.142
1168.325
1166.401
1164.349
1162.14
1159.782
1157.384
1175.005
1173.479
1171.866
1170.159
1168.353
1166.436
1164.37
1162.146
1159.733
1157.165
1176.448
1175.008
1173.486
1171.878
1170.178
1168.391
1166.463
1164.393
1162.149
1159.675
1156.906
1177.813
1176.45
1175.013
1173.494
1171.885
1170.144
1168.221
1166.046
1163.316
1159.163
1151.342
1124.355
1179.104
1177.814
1176.454
1175.017
1173.496
1171.768
1169.806
1167.629
1164.928
1160.831
1153.144
1136.883
1087.227
1180.328
1179.106
1177.817
1176.457
1175.017
1173.328
1171.38
1169.311
1166.973
1163.873
1158.818
1149.22
1130.316
1080.717
1181.489
1180.329
1179.108
1177.819
1176.457
1174.822
1172.919
1170.961
1168.912
1166.583
1163.441
1158.395
1149.577
1134.973
1105.748
1182.589
1181.49
1180.332
1179.11
1177.82
1176.254
1174.423
1172.57
1170.719
1168.83
1166.735
1164.027
1160.085
1154.407
1148.778
1134.029
1183.632
1182.59
1181.492
1180.335
1179.112
1177.628
1175.896
1174.154
1172.447
1170.796
1169.181
1167.508
1165.598
1163.395
1161.734
1158.217
1138.924
1184.621
1183.634
1182.593
1181.496
1180.338
1178.949
1177.34
1175.721
1174.138
1172.625
1171.213
1169.914
1168.729
1167.702
1167.216
1165.925
1160.217
1144.824
1185.558
1184.623
1183.638
1182.598
1181.501
1180.217
1178.754
1177.273
1175.808
1174.393
1173.06
1171.851
1170.817
1170.056
1169.791
1169.102
1166.622
1162.236
1151.025
1186.444
1185.56
1184.628
1183.644
1182.606
1181.434
1180.134
1178.8
1177.456
1176.12
1174.816
1173.578
1172.459
1171.568
1171.153
1170.618
1169.047
1167.101
1163.991
1156.774
1187.281
1186.447
1185.565
1184.636
1183.656
1182.603
1181.472
1180.289
1179.063
1177.799
1176.503
1175.186
1173.871
1172.631
1171.738
1171.327
1170.058
1168.805
1167.408
1165.415
1160.37
1188.071
1187.284
1186.453
1185.575
1184.653
1183.689
1182.663
1181.582
1180.444
1179.247
1177.986
1176.659
1175.262
1173.789
1172.235
1171.145
1170.401
1169.588
1168.75
1167.863
1166.159
1162.278
1188.815
1188.074
1187.291
1186.463
1185.593
1184.677
1183.705
1182.68
1181.6
1180.464
1179.268
1178.01
1176.685
1175.289
1173.815
1172.6
1171.721
1170.871
1170.075
1169.36
1168.22
1166.323
1163.519
1189.513
1188.818
1188.081
1187.302
1186.48
1185.613
1184.692
1183.72
1182.696
1181.618
1180.484
1179.289
1178.032
1176.708
1175.311
1174.117
1173.202
1172.32
1171.497
1170.766
1169.714
1168.181
1166.453
1164.263
1190.166
1189.516
1188.824
1188.092
1187.318
1186.498
1185.626
1184.706
1183.736
1182.713
1181.636
1180.503
1179.31
1178.053
1176.728
1175.579
1174.668
1173.781
1172.94
1172.176
1171.13
1169.692
1168.19
1166.556
1164.694
1190.776
1190.169
1189.522
1188.835
1188.107
1187.334
1186.51
1185.64
1184.721
1183.751
1182.73
1181.655
1180.522
1179.329
1178.073
1176.974
1176.086
1175.211
1174.368
1173.582
1172.536
1171.142
1169.712
1168.229
1166.642
1164.922
1171.852
1170.131
1168.306
1166.371
1164.321
1162.136
1159.828
1157.596
1173.476
1171.858
1170.144
1168.329
1166.406
1164.353
1162.146
1159.8
1157.469
1175.006
1173.481
1171.868
1170.163
1168.36
1166.441
1164.375
1162.156
1159.766
1157.308
1176.449
1175.009
1173.489
1171.884
1170.189
1168.395
1166.467
1164.399
1162.165
1159.725
1157.111
1177.814
1176.452
1175.016
1173.5
1171.902
1170.224
1168.422
1166.496
1164.425
1162.173
1159.682
1156.89
1179.105
1177.816
1176.457
1175.023
1173.507