/*--------------------------------*- C++ -*----------------------------------*\
| =========                 |                                                 |
| \\      /  F ield         | OpenFOAM: The Open Source CFD Toolbox           |
|  \\    /   O peration     | Version:  2306                                  |
|   \\  /    A nd           | Website:  www.openfoam.com                      |
|    \\/     M anipulation  |                                                 |
\*---------------------------------------------------------------------------*/
FoamFile
{
    version     2.0;
    format      ascii;
    arch        "LSB;label=32;scalar=64";
    class       volVectorField;
    location    "0.9/phiEC";
    object      i;
}
// * * * * * * * * * * * * * * * * * * * * * * * * * * * * * * * * * * * * * //

dimensions      [0 -2 0 0 0 1 0];

internalField   nonuniform List<vector> 
20000
(
(40.69746 86.12398 18651.55)
(40.25926 251.858 18466.19)
(97.45198 81.74198 17823.91)
(124.8308 284.6029 19426.11)
(39.41551 397.6213 18107.64)
(96.44525 239.0386 17648.03)
(123.3733 835.9698 19191.66)
(113.2345 76.05669 16674.18)
(298.0217 270.0276 18540.33)
(217.8531 555.0208 21173.9)
(38.23406 509.1947 17602.16)
(94.50722 377.3693 17307.83)
(120.5469 1330.433 18727.34)
(112.1281 222.4105 16510.56)
(294.681 793.1314 18318.06)
(214.98 1649.409 20871.6)
(106.879 70.67831 15532.67)
(345.0144 251.1962 17328.36)
(517.0021 526.2896 20158.9)
(327.8301 889.2008 24171.47)
(36.82016 572.7846 16992.76)
(91.79429 483.2411 16828.25)
(116.5483 1720.556 18048.8)
(109.9988 351.1117 16194.08)
(288.2053 1262.184 17877.89)
(209.3049 2683.338 20237.83)
(105.8743 206.6819 15380.62)
(341.3535 737.8057 17121.68)
(510.4425 1563.928 19872.59)
(323.1741 2708.107 23917.37)
(93.99753 66.00954 14515.2)
(324.9168 233.4186 16135.9)
(594.1215 489.4247 18808.49)
(771.1021 842.6408 22936.11)
(464.9267 1063.225 28234.88)
(35.31296 578.2773 16339.81)
(88.54846 543.5735 16250.11)
(111.7101 1951.911 17196.67)
(107.0191 449.607 15747.95)
(279.0479 1632.188 17234.75)
(201.045 3570.525 19222.42)
(103.9408 326.2796 15086.53)
(334.2599 1174.102 16712.4)
(497.4942 2543.988 19272.46)
(313.6193 4628.78 23313.47)
(93.13152 193.0292 14373.2)
(321.5972 685.5863 15943.87)
(586.9668 1454.33 18542.42)
(760.5162 2565.999 22695.65)
(459.3236 3365.42 28411.22)
(81.27936 62.01822 13635.43)
(285.4501 217.9994 15077.71)
(557.0082 454.7429 17501.89)
(876.4166 783.3417 21351.17)
(1081.064 1007.195 26689.11)
(593.9696 668.1902 31181.9)
(33.87049 523.4521 15714.98)
(85.08901 548.7806 15630.68)
(106.514 1977.283 16255.71)
(103.4553 505.7317 15210.16)
(267.9727 1851.567 16427.18)
(190.718 4158.981 17786.68)
(101.2357 417.8061 14671.98)
(324.2343 1518.23 16114.45)
(478.6653 3384.655 18311.22)
(298.7891 6622.857 22113.86)
(91.4651 304.7265 14098.54)
(315.166 1090.993 15563.61)
(572.8546 2365.566 17984.76)
(738.8184 4384.93 22124.41)
(447.1172 6290.361 28819.49)
(80.53652 181.3576 13502.01)
(282.5903 640.2974 14898.37)
(550.536 1351.259 17254.72)
(864.9285 2385.27 21127.81)
(1068.355 3187.326 26855.74)
(590.5344 1995.512 31699.21)
(70.56402 58.58107 12875.16)
(246.7294 204.8207 14164.33)
(488.312 424.7026 16351.82)
(816.2517 727.7596 19850.3)
(1211.283 936.1301 24783.89)
(1366.242 633.8373 29385.41)
(687.5903 414.2353 32392.48)
(32.64349 415.0166 15185.15)
(81.77806 496.7574 15037.91)
(101.543 1785.866 15362.05)
(99.65763 510.5733 14633.96)
(256.0813 1875.612 15535.51)
(179.3528 4247.516 16011.17)
(98.00083 469.9586 14172.26)
(312.1157 1722.245 15363.68)
(455.1465 3942.058 16952.43)
(278.5587 8374.409 19769.08)
(89.1337 390.2068 13711.38)
(306.0792 1410.746 15008.07)
(552.3555 3147.048 17091.66)
(705.2 6272.25 20990.18)
(425.7807 10659.31 29630.95)
(79.10711 286.3014 13243.95)
(277.0505 1018.923 14543.23)
(537.7746 2197.875 16736.69)
(841.4148 4075.618 20597.29)
(1040.73 5954.932 27241.79)
(583.6494 3214.578 32899.16)
(69.92038 171.3066 12749.13)
(244.2766 601.5902 13995.82)
(482.7414 1261.994 16120.98)
(805.886 2215.981 19642.84)
(1197.53 2962.076 24938.56)
(1358.375 1892.31 29873.92)
(685.5901 1191.528 32849.01)
(61.92434 55.58179 12211.69)
(214.1836 193.4721 13375.39)
(421.7433 399.0373 15362.28)
(713.3711 679.6845 18542.87)
(1118.667 869.666 23020.82)
(1510.377 589.5266 27238.06)
(1570.508 394.2339 30450.84)
(788.1337 211.658 33165.95)
(31.7549 265.7614 14802.89)
(78.96126 393.8607 14535.26)
(97.33554 1409.174 14620.91)
(96.02291 462.1746 14082.57)
(244.7041 1694.081 14688.61)
(168.5582 3793.045 14426)
(94.55397 474.4567 13636.85)
(299.108 1744.597 14534.76)
(429.2783 4025.918 15272.44)
(254.2604 8698.635 15034.88)
(86.34585 438.914 13244.66)
(295.0983 1600.304 14310.56)
(526.7789 3665.11 15829.39)
(659.4297 7929.122 18774.06)
(389.7203 18316.95 31348.93)
(77.10734 366.6137 12880.19)
(269.2239 1317.552 14024.39)
(519.2474 2923.898 15907.1)
(805.0587 5828.969 19544.17)
(992.6042 10085.34 28009.61)
(573.7386 3837.813 35202.75)
(68.68186 270.4347 12505.38)
(239.5255 957.3284 13662.14)
(471.7594 2052.68 15637.17)
(784.684 3786.232 19150.09)
(1167.718 5532.858 25297.05)
(1342.663 3046.621 31007.64)
(681.7796 1761.568 33792.62)
(61.35924 162.536 12092.11)
(212.0584 568.2583 13216.22)
(416.9668 1185.733 15145.38)
(704.4579 2069.593 18349.11)
(1106.276 2751.671 23164.44)
(1501.774 1759.726 27691.37)
(1565.813 1133.422 30880.7)
(787.3659 595.3785 33531.43)
(54.97766 52.9301 11625.71)
(187.9657 183.5689 12686.89)
(366.0508 376.9372 14508.32)
(615.4283 638.6277 17422.43)
(973.8854 812.2266 21501.5)
(1384.214 547.8067 25284.43)
(1721.079 367.2851 28186.98)
(1786.792 203.9801 31089.64)
(895.2209 48.75284 33594.69)
(31.28932 91.39681 14603.14)
(76.92098 252.2197 14172.58)
(94.30647 898.2636 14098.01)
(92.93011 366.4457 13614.99)
(235.0716 1336.809 13986.17)
(159.5916 2943.105 13209.1)
(91.25498 429.4822 13124.49)
(286.6615 1575.769 13747.44)
(404.6996 3595.433 13772.21)
(232.3002 7390.008 12043)
(83.37547 443.1148 12744.62)
(283.3135 1621.07 13540.46)
(498.6664 3743.047 14268.89)
(604.5384 8236.05 14300.91)
(326.1459 19699.67 7118.648)
(74.71608 412.3762 12441.69)
(259.7667 1494.587 13372.97)
(496.1435 3405.167 14734.63)
(755.6761 7367.792 17486.9)
(911.582 17320.6 29635.52)
(563.3605 1950.557 39481.97)
(66.94916 346.2965 12161.77)
(232.8132 1237.909 13174.64)
(455.8184 2730.737 14862.38)
(751.9348 5414.863 18172.02)
(1115.987 9367.836 26010.29)
(1320.151 3634.924 33185.19)
(676.8551 1802.666 35225.22)
(60.27186 256.5892 11860.84)
(207.9417 904.2883 12901.02)
(407.5504 1928.645 14690.79)
(686.2314 3536.107 17888.91)
(1079.451 5139.501 23497.35)
(1484.656 2832.336 28743.68)
(1556.922 1674.218 31770.03)
(785.9079 838.3716 34217.3)
(54.47537 154.7818 11511.84)
(186.0998 539.1715 12535.86)
(361.9121 1120.065 14303.42)
(607.7874 1944.585 17240.36)
(963.237 2569.92 21635.6)
(1376.427 1635.103 25705.31)
(1715.805 1055.67 28585.29)
(1784.748 573.1213 31431.28)
(895.6053 140.1787 33914.46)
(49.32138 50.5589 11102.35)
(166.8905 174.8129 12078.69)
(321.265 357.6505 13763.02)
(534.0365 603.2754 16456.51)
(839.0149 763.1828 20204.69)
(1200.919 511.6608 23613.85)
(1569.603 341.4955 26153.86)
(1940.075 191.2173 28735.28)
(2013.575 52.59609 31389.58)
(1008.645 -108.1109 33725.72)
(31.28932 -91.39681 14603.14)
(75.85179 86.74095 13983.06)
(92.72625 308.0928 13828.97)
(90.68944 234.6667 13277.61)
(228.1345 852.1707 13490.51)
(153.254 1849.65 12401.98)
(88.44763 340.5259 12690.01)
(276.1199 1243.478 13094.38)
(384.2682 2790.063 12620.22)
(215.1123 5457.213 10181.74)
(80.5325 401.1112 12266.11)
(272.0366 1464.201 12809.01)
(471.9437 3342.944 12875.21)
(554.8621 6998.527 11472.62)
(282.6346 13499.31 5160.319)
(72.16828 416.3231 11971.88)
(249.6179 1513.981 12653.74)
(470.7574 3477.566 13285.19)
(696.5575 7652.959 13334.92)
(769.2687 18628.81 6759.22)
(64.87725 389.5234 11747.57)
(224.7028 1404.244 12562.57)
(435.9437 3180.21 13767.38)
(707.5007 6844.109 16261.49)
(1029.294 16083.6 27520.76)
(1296.694 1846.776 37231.21)
(672.6764 818.3916 36836.63)
(58.75059 328.5675 11534.82)
(202.1259 1169.326 12440.51)
(393.8829 2565.741 13962.77)
(658.0885 5057.136 16975.45)
(1032.991 8701.109 24159.8)
(1460.262 3378.121 30765.37)
(1545.524 1711.635 33121.85)
(784.0762 793.8038 35089.93)
(53.50884 244.3482 11291.59)
(182.4853 858.003 12236.78)
(353.7532 1821.841 13873.98)
(592.1636 3322.539 16807.92)
(940.1939 4800.004 21946.48)
(1360.961 2631.5 26682.46)
(1705.882 1558.679 29409.75)
(1780.95 805.475 32073.32)
(896.1778 203.0653 34476.65)
(48.87023 147.8479 10993.58)
(165.2319 513.4542 11934.86)
(317.6309 1062.757 13568.59)
(527.4158 1836.946 16284.51)
(829.8875 2414.756 20330.69)
(1194.215 1527.197 24006.87)
(1564.776 981.4562 26523.49)
(1937.495 536.9544 29050.71)
(2013.884 149.7476 31684.26)
(1010.386 -286.5776 34077.38)
(44.63499 48.4186 10630.45)
(149.7299 166.9828 11535.37)
(285.2812 340.5967 13104.41)
(468.7484 572.421 15613.38)
(727.8607 720.9527 19087.82)
(1033.376 480.7715 22191.86)
(1358.82 319.0164 24424.99)
(1760.413 178.1814 26650.62)
(2164.981 51.84992 28965.45)
(2249.717 -90.70134 31397.03)
(1128.09 -302.9036 33528.38)
(31.7549 -265.7614 14802.89)
(75.85179 -86.74095 13983.06)
(92.72625 -308.0928 13828.97)
(89.51502 80.7049 13101.31)
(224.5146 292.2906 13235.47)
(149.9889 629.4797 12002.36)
(86.41353 218.0688 12376.51)
(268.525 792.6929 12633.53)
(369.8165 1753.623 11855.97)
(203.509 3311.742 9097.782)
(78.11313 318.0312 11860.33)
(262.484 1155.444 12202.27)
(449.7106 2594.274 11804.89)
(515.9152 5169.301 9712.347)
(253.4711 8833.538 4063.998)
(69.72977 376.8589 11522.3)
(239.9063 1367.474 11970.61)
(446.6212 3105.875 11990.67)
(642.9703 6503.776 10709.07)
(671.485 12772.56 4908.647)
(62.6697 393.2517 11303.79)
(215.9993 1422.465 11886.8)
(414.1082 3247.824 12413.7)
(654.3508 7108.992 12405.78)
(877.6919 17298.7 6294.996)
(56.9315 369.5816 11141.81)
(195.0986 1326.448 11862.33)
(376.8434 2988.065 12933.87)
(619.9195 6391.952 15191.13)
(955.2976 14937.65 25562.8)
(1434.988 1715.985 34522.21)
(1535.928 776.6048 34643.88)
(782.6347 339.1527 35824.61)
(52.15665 312.8929 10981.13)
(177.3788 1109.477 11799.84)
(341.9108 2423.667 13186.24)
(568.0416 4751.744 15949.56)
(900.3111 8126.301 22565.13)
(1338.973 3138.243 28559.93)
(1693.272 1592.731 30663.7)
(1776.303 761.0712 32891.82)
(896.6664 195.3518 35114.58)
(48.00211 233.402 10783.2)
(162.019 817.0792 11650.04)
(310.4668 1728.632 13161.1)
(513.8782 3138.649 15875.97)
(810.1381 4510.241 20622.77)
(1180.909 2457.794 24919.36)
(1555.719 1448.883 27288.72)
(1932.788 753.9208 29643.93)
(2014.258 213.6767 32202.99)
(1013.274 -361.7471 34683)
(44.22629 141.5891 10526.29)
(148.2401 490.4562 11397.98)
(282.0507 1012.083 12919.25)
(462.9345 1743.002 15450.16)
(719.9517 2281.152 19206.84)
(1027.626 1435.002 22561.14)
(1354.647 916.8309 24770.09)
(1757.947 500.2475 26942.97)
(2164.636 147.015 29235.63)
(2252.631 -240.2806 31715.4)
(1131.804 -817.094 34009.96)
(40.68428 46.47194 10201.62)
(135.5103 159.9149 11045.4)
(255.9801 325.345 12515.84)
(416.3268 545.1363 14867.98)
(638.9729 684.0929 18112.72)
(896.2878 454.1668 20967.92)
(1168.394 299.7668 22956.14)
(1520.691 166.5581 24888.43)
(1954.288 49.14969 26851.82)
(2393.852 -78.96322 28922.33)
(2493.913 -265.7655 31087.58)
(1252.725 -589.6847 32873.88)
(32.64349 -415.0166 15185.15)
(76.92098 -252.2197 14172.58)
(94.30647 -898.2636 14098.01)
(89.51502 -80.7049 13101.31)
(224.5146 -292.2906 13235.47)
(149.9889 -629.4797 12002.36)
(85.3473 74.99683 12212.69)
(264.5607 271.8936 12396.39)
(362.3674 596.8289 11477.52)
(197.6952 1107.328 8598.285)
(76.36009 203.6634 11567.54)
(255.6002 736.5779 11774.1)
(433.9709 1630.642 11094.73)
(489.5847 3137.571 8686.831)
(235.4441 5016.57 3472.157)
(67.65458 298.8019 11141.05)
(231.6791 1079.114 11403.96)
(426.5317 2410.334 10996.46)
(600.8724 4804.439 9074.435)
(605.7301 8361.633 3872.204)
(60.55685 355.9742 10879.11)
(207.6708 1284.813 11244.94)
(393.3465 2900.687 11204.71)
(606.1377 6041.676 9967.15)
(773.037 11863.92 4577.205)
(54.99332 373.1191 10720.75)
(187.5574 1343.661 11223.97)
(358.1235 3051.594 11661.9)
(574.2773 6639.328 11590.15)
(819.7116 16066.24 5853.548)
(50.53972 351.9507 10606.87)
(171.2087 1258.559 11251.23)
(327.1468 2822.616 12214.25)
(535.3294 6005.997 14272.86)
(833.6683 13950.8 23875.41)
(1316.252 1594.039 32048.99)
(1682.748 722.4367 32076.25)
(1772.731 324.7374 33582.35)
(896.9031 83.71237 35569.7)
(46.78757 298.8763 10486.64)
(157.4798 1056.56 11233.93)
(300.0681 2299.676 12508.52)
(492.9771 4488.795 15065.05)
(775.9622 7635.853 21204.04)
(1162.008 2931.03 26672.71)
(1544.251 1480.287 28452.84)
(1927.162 711.6207 30400.96)
(2014.421 202.6049 32792.7)
(1016.264 -299.2468 35345.26)
(43.43986 223.5216 10324.81)
(145.3542 780.4824 11125.92)
(275.6819 1646.212 12531.18)
(451.0463 2978.152 15062.49)
(702.8387 4260.751 19482.76)
(1016.216 2309.43 23418.52)
(1346.825 1353.428 25484.6)
(1753.476 702.1445 27492.91)
(2163.923 208.4315 29711.53)
(2257.462 -302.9622 32263.84)
(1138.094 -1064.817 34856.88)
(40.31146 135.8966 10101.64)
(134.1607 469.6968 10913.82)
(253.0781 966.7637 12338.96)
(411.158 1659.925 14712.53)
(632.0271 2164.537 18225.65)
(891.3051 1355.599 21316.77)
(1164.81 861.5075 23280.38)
(1518.526 467.5887 25161.27)
(1953.72 139.1674 27101.6)
(2395.762 -209.1247 29211.68)
(2500.454 -717.0551 31517.86)
(1259.595 -1615.078 33602.1)
(37.30171 44.69038 9809.425)
(123.5214 153.4862 10600.07)
(231.6951 311.5771 11984.87)
(373.6374 520.7329 14201.5)
(567.6584 651.4952 17250.18)
(786.9512 430.9447 19899.11)
(1013.278 283.1771 21692.31)
(1306.644 156.5287 23394.12)
(1684.471 46.1697 25076.34)
(2149.324 -71.59751 26799.85)
(2624.699 -237.4976 28586.35)
(2743.92 -520.9823 30348.46)
(1380.632 -1031.129 31516.4)
(33.87049 -523.4521 15714.98)
(78.96126 -393.8607 14535.26)
(97.33554 -1409.174 14620.91)
(90.68944 -234.6667 13277.61)
(228.1345 -852.1707 13490.51)
(153.254 -1849.65 12401.98)
(85.3473 -74.99683 12212.69)
(264.5607 -271.8936 12396.39)
(362.3674 -596.8289 11477.52)
(197.6952 -1107.328 8598.285)
(75.44115 70.04262 11414.54)
(252.0065 252.6471 11553.78)
(425.8529 554.9882 10743.04)
(476.3793 1049.19 8214.158)
(226.8144 1628.473 3211.584)
(66.15091 191.349 10865.96)
(225.75 687.9186 11004.08)
(412.3035 1515.046 10336.78)
(572.3627 2916.383 8121.94)
(564.9849 4750.002 3312.481)
(58.7588 282.2427 10518.98)
(200.6152 1013.882 10712.52)
(376.063 2251.097 10276.18)
(568.2253 4463.226 8448.972)
(702.3856 7768.537 3614.923)
(53.13828 337.7499 10317.81)
(180.3411 1213.633 10617.64)
(340.3239 2725.422 10525.88)
(532.8636 5642.522 9312.635)
(725.9087 11019.5 4258.314)
(48.81694 355.3195 10205.88)
(164.5874 1274.891 10645.51)
(310.9267 2882.628 11012.62)
(496.2154 6238.433 10889.07)
(717.4518 15004.81 5468.192)
(45.33525 336.1846 10129.14)
(151.9951 1198.533 10711.47)
(287.1037 2678.224 11586.2)
(464.6328 5673.69 13481.01)
(718.8668 13109.06 22435.21)
(1142.496 1488.772 29931.2)
(1534.717 671.3649 29764.45)
(1922.932 303.437 31040.27)
(2014.362 86.07972 33214.33)
(1018.172 -115.9664 35793.46)
(42.3396 286.2244 10040.8)
(141.277 1009.238 10728.43)
(266.4375 2190.037 11909.68)
(432.6914 4259.29 14292.99)
(673.2254 7213.588 20031.85)
(1000.013 2754.117 25066.02)
(1336.935 1382.707 26571.64)
(1748.179 662.5083 28194.97)
(2162.957 196.3912 30253.09)
(2262.452 -250.2734 32863.85)
(1144.808 -915.1151 35814.82)
(39.59405 214.5351 9908.267)
(131.5462 747.4477 10653.27)
(247.3571 1572.501 11968.25)
(400.5886 2836.218 14343.32)
(616.998 4042.978 18487.45)
(881.4167 2181.661 22126.73)
(1158.094 1271.757 23951.71)
(1514.609 656.2429 25674.58)
(1952.655 196.8807 27541.67)
(2398.92 -263.5378 29710.25)
(2511.533 -934.7781 32274.46)
(1271.517 -2166.613 34945.58)
(36.95967 130.6868 9713.279)
(122.2902 450.8149 10473.78)
(229.0659 925.8531 11815.48)
(368.994 1585.621 14053)
(561.4829 2061.403 17357.73)
(782.5754 1286.291 20230.13)
(1010.171 813.8325 21998.61)
(1304.774 439.4278 23650.45)
(1683.899 130.6778 25309.29)
(2150.581 -189.6019 27066.51)
(2629.525 -640.8965 28974.93)
(2756.134 -1427.157 30994.53)
(1392.561 -2888.799 32605.07)
(34.36693 43.05155 9448.837)
(113.2554 147.6027 10192.75)
(211.2145 299.0539 11502.17)
(338.2441 498.7021 13599.99)
(509.5766 622.3379 16478.54)
(699.2866 410.4083 18953.29)
(889.7626 268.6954 20588.43)
(1133.059 147.865 22108.79)
(1446.358 43.43506 23573.68)
(1848.504 -66.38988 25028.58)
(2343.664 -217.5138 26477.7)
(2854.84 -467.5452 27857.86)
(2995.515 -911.8362 28962.91)
(1508.073 -1678.354 29095.78)
(35.31296 -578.2773 16339.81)
(81.77806 -496.7574 15037.91)
(101.543 -1785.866 15362.05)
(92.93011 -366.4457 13614.99)
(235.0716 -1336.809 13986.17)
(159.5916 -2943.105 13209.1)
(86.41353 -218.0688 12376.51)
(268.525 -792.6929 12633.53)
(369.8165 -1753.623 11855.97)
(203.509 -3311.742 9097.782)
(75.44115 -70.04262 11414.54)
(252.0065 -252.6471 11553.78)
(425.8529 -554.9882 10743.04)
(476.3793 -1049.19 8214.158)
(226.8144 -1628.473 3211.584)
(65.36269 65.80749 10722.21)
(222.6546 235.9569 10798.31)
(404.963 515.6491 10010.08)
(558.0483 975.2739 7682.871)
(545.4502 1542.176 3065.988)
(57.45595 180.7445 10259.13)
(195.5304 646.3331 10336.8)
(363.8203 1414.955 9660.086)
(542.529 2709.329 7564.294)
(658.4783 4413.771 3095.156)
(51.55964 267.7929 9976.115)
(174.2278 957.7099 10114.7)
(325.5057 2115.073 9653.418)
(500.2869 4168.353 7894.762)
(662.4664 7216.046 3364.638)
(47.16806 321.6375 9822.163)
(158.2513 1151.517 10070.2)
(295.5041 2574.509 9939.445)
(460.723 5301.772 8748.944)
(636.9877 10291.47 3978.35)
(43.78784 339.4025 9746.117)
(146.1093 1214.086 10134.63)
(272.8607 2735.167 10445.98)
(430.7414 5893.263 10284.18)
(619.3178 14099.43 5137.676)
(41.02394 321.9535 9698.437)
(136.3504 1144.854 10229.36)
(254.9122 2550.543 11031.29)
(407.7991 5383.64 12789.84)
(623.7524 12384.36 21194.9)
(983.2903 1398.918 28127.86)
(1328.723 627.0934 27796.49)
(1744.228 282.4299 28788.09)
(2162.174 83.12478 30640.71)
(2265.63 -96.8904 33270.12)
(1149.237 -364.4882 36490.66)
(38.59037 274.7171 9635.676)
(127.8525 966.5223 10272.6)
(239.0528 2091.98 11374.57)
(384.2695 4056.323 13610.45)
(590.9894 6844.989 19008.47)
(867.3757 2601.776 23683.11)
(1149.606 1299.267 24973.1)
(1509.982 619.1354 26329.95)
(1951.353 185.1144 28042.64)
(2402.169 -217.5615 30255.86)
(2523.361 -803.6832 33130)
(1284.746 -1933.022 36593.33)
(36.3015 206.3107 9527.315)
(119.9051 717.4007 10223.7)
(223.8828 1505.96 11460.45)
(359.4988 2709.267 13700.3)
(548.1199 3850.374 17607.04)
(773.8911 2070.135 20998.69)
(1004.348 1201.387 22632.8)
(1301.395 616.7098 24132.7)
(1682.847 184.7557 25719.74)
(2152.655 -238.8977 27526.04)
(2637.703 -835.7488 29658.22)
(2777.329 -1915.102 32186.47)
(1414.004 -4056.05 34757.6)
(34.05165 125.8944 9356.216)
(112.1258 433.5341 10071.3)
(208.816 888.6409 11339.58)
(334.037 1518.539 13457.77)
(504.0285 1969.152 16581.27)
(695.3961 1224.998 19268.53)
(887.0338 772.2158 20879.07)
(1131.436 415.1068 22350.94)
(1445.844 122.9268 23792.5)
(1849.436 -175.8103 25277.04)
(2347.184 -587.0224 26835.01)
(2864.048 -1280.992 28439.45)
(3016.719 -2555.072 29924.79)
(1527.623 -4856.276 30570.98)
(31.792 41.53754 9115.853)
(104.3475 142.1904 9818.217)
(193.673 287.5921 11060.56)
(308.384 478.6619 13052.97)
(461.4001 596.014 15781.81)
(627.8782 392.0401 18106.79)
(790.7666 255.8893 19611.25)
(995.0575 140.2995 20985.83)
(1254.107 41.02995 22281.5)
(1586.127 -62.28341 23532.33)
(2011.222 -202.2978 24729.6)
(2534.999 -428.9012 25794.65)
(3080.08 -819.0884 26543.5)
(3241.21 -1482.861 26614.14)
(1628.796 -2506.319 49195.75)
(36.82016 -572.7846 16992.76)
(85.08901 -548.7806 15630.68)
(106.514 -1977.283 16255.71)
(96.02291 -462.1746 14082.57)
(244.7041 -1694.081 14688.61)
(168.5582 -3793.045 14426)
(88.44763 -340.5259 12690.01)
(276.1199 -1243.478 13094.38)
(384.2682 -2790.063 12620.22)
(215.1123 -5457.213 10181.74)
(76.36009 -203.6634 11567.54)
(255.6002 -736.5779 11774.1)
(433.9709 -1630.642 11094.73)
(489.5847 -3137.571 8686.831)
(235.4441 -5016.57 3472.157)
(65.36269 -65.80749 10722.21)
(222.6546 -235.9569 10798.31)
(404.963 -515.6491 10010.08)
(558.0483 -975.2739 7682.871)
(545.4502 -1542.176 3065.988)
(56.773 62.16043 10123.35)
(192.8757 221.6928 10143.47)
(357.5034 481.5829 9354.972)
(529.6201 906.0451 7156.474)
(637.3897 1433.127 2866.23)
(50.41577 171.4909 9729.567)
(169.822 610.5232 9759.79)
(315.0089 1329.451 9074.528)
(478.2005 2530.331 7068.535)
(622.9846 4100.043 2881.903)
(45.76486 255.0176 9496.766)
(152.8837 908.6912 9592.988)
(282.6647 1997.947 9115.246)
(432.8017 3916.594 7416.629)
(582.5315 6739.296 3143.718)
(42.30682 307.2292 9379.583)
(140.4771 1096.596 9586.743)
(259.318 2442.802 9427.648)
(399.9882 5008.384 8262.348)
(550.3812 9670.294 3737.693)
(39.62213 325.0352 9331.626)
(131.0635 1159.71 9678.349)
(242.25 2604.771 9945.385)
(378.0347 5591.988 9756.235)
(537.4928 13319.95 4852.68)
(37.39018 309.0098 9307.074)
(123.3893 1096.398 9794.648)
(228.6994 2436.349 10535.49)
(362.1374 5127.123 12178.85)
(547.5362 11751.73 20112.06)
(852.8848 1321.547 26575.66)
(1142.562 589.2508 26124)
(1506.541 263.923 26883.68)
(1950.376 78.25138 28401.35)
(2404.229 -84.18516 30625.43)
(2531.166 -320.1947 33733.41)
(1293.897 -791.8025 37891.26)
(35.38068 264.1857 9265.173)
(116.5356 927.6693 9858.333)
(216.3592 2003.46 10891.88)
(344.8378 3874.777 13000.21)
(524.9936 6518.971 18103.23)
(761.5595 2468.798 22475.53)
(996.9907 1227.384 23597.69)
(1297.408 581.8278 24748.44)
(1681.588 173.608 26187.05)
(2154.783 -197.1806 28029.01)
(2646.441 -718.7909 30430.87)
(2800.847 -1709.221 33648.44)
(1439.297 -3860.797 37751.12)
(33.44496 198.7452 9177.071)
(109.9376 689.9014 9830.799)
(204.0875 1445.433 10998.82)
(325.4339 2594.656 13119.99)
(492.0228 3678.086 16819.43)
(687.6749 1971.503 20000.48)
(881.9207 1139.959 21480.85)
(1128.503 582.5792 22806.5)
(1444.902 173.773 24178.05)
(1850.971 -221.5174 25705.24)
(2353.156 -765.6165 27463.33)
(2880.033 -1719.481 29512.6)
(3054.831 -3588.692 31827.61)
(1564.515 -7312.665 33757.92)
(31.50023 121.4671 9026.489)
(103.3063 417.6374 9701.219)
(191.4725 854.5827 10904.2)
(304.5457 1457.519 12916.46)
(456.3731 1885.865 15880.19)
(624.3831 1170.175 18407.93)
(788.3407 735.4138 19888.04)
(993.6321 393.8695 21215.6)
(1253.656 116.1196 22488.21)
(1586.883 -164.9383 23765.67)
(2013.983 -545.9825 25062.29)
(2541.845 -1175.229 26328.81)
(3096.096 -2295.642 27407.96)
(3275.845 -4291.861 27912.47)
(1658.412 -7550.93 52496.67)
(29.51128 40.1338 8807.22)
(96.53134 137.1903 9472.335)
(178.4494 277.0481 10654.44)
(282.8003 460.3197 12552.39)
(420.7354 572.0678 15147.94)
(568.6228 375.4576 17342.2)
(710.1195 244.4363 18736.4)
(884.4891 133.6108 19991.38)
(1101.504 38.92406 21152.18)
(1375.21 -58.83781 22245.88)
(1724.627 -189.9072 23255.54)
(2170.721 -399.0883 24095.17)
(2719.932 -751.6747 24573.8)
(3293.751 -1332.002 24360.19)
(3469.075 -2210.161 44729.86)
(222.8282 -508.4865 15495.59)
(38.23406 -509.1947 17602.16)
(88.54846 -543.5735 16250.11)
(111.7101 -1951.911 17196.67)
(99.65763 -510.5733 14633.96)
(256.0813 -1875.612 15535.51)
(179.3528 -4247.516 16011.17)
(91.25498 -429.4822 13124.49)
(286.6615 -1575.769 13747.44)
(404.6996 -3595.433 13772.21)
(232.3002 -7390.008 12043)
(78.11313 -318.0312 11860.33)
(262.484 -1155.444 12202.27)
(449.7106 -2594.274 11804.89)
(515.9152 -5169.301 9712.347)
(253.4711 -8833.538 4063.998)
(66.15091 -191.349 10865.96)
(225.75 -687.9186 11004.08)
(412.3035 -1515.046 10336.78)
(572.3627 -2916.383 8121.94)
(564.9849 -4750.002 3312.481)
(56.773 -62.16043 10123.35)
(192.8757 -221.6928 10143.47)
(357.5034 -481.5829 9354.972)
(529.6201 -906.0451 7156.474)
(637.3897 -1433.127 2866.23)
(49.81616 58.97796 9600.732)
(167.5219 209.4098 9577.159)
(309.5927 452.4806 8787.84)
(467.1029 846.1851 6687.66)
(604.0053 1331.29 2669.281)
(44.74812 163.3097 9261.979)
(149.0154 579.2738 9256.234)
(273.5698 1255.826 8568.387)
(413.8702 2377.489 6640.27)
(548.6252 3829.16 2692.878)
(41.04647 243.5935 9068.762)
(135.7057 865.3506 9132.279)
(248.0438 1895.73 8645.58)
(375.7954 3699.825 7003.694)
(503.7193 6332.421 2953.415)
(38.28045 294.2238 8980.607)
(126.0043 1047.481 9154.991)
(230.2105 2326.34 8975.566)
(351.027 4752.311 7837.664)
(477.76 9135.484 3530.059)
(36.11141 311.9676 8955.008)
(118.5996 1110.626 9266.946)
(217.3246 2488.149 9498.16)
(335.6728 5325.542 9289.644)
(471.7682 12639.51 4603.919)
(34.27958 297.1638 8949.167)
(112.464 1052.325 9399.589)
(206.9789 2333.261 10088.28)
(324.954 4897.673 11632.63)
(486.3537 11192.15 19154.24)
(748.8324 1254.009 25220.31)
(990.8854 556.6531 24684.95)
(1294.445 248.017 25268.7)
(1680.662 73.36038 26521.71)
(2156.128 -76.28723 28369.74)
(2652.212 -286.441 30975.82)
(2817.114 -700.2943 34800.1)
(1458.353 -1662.417 40620.71)
(32.59617 254.4979 8924.541)
(106.8462 892.1104 9479.433)
(197.2237 1922.941 10453.08)
(312.1502 3710.875 12449.49)
(471.2445 6227.327 17293.4)
(676.7105 2351.189 21406.98)
(875.4588 1164.636 22396.43)
(1125.043 549.6305 23388.18)
(1443.783 163.2661 24617.03)
(1852.543 -182.8312 26173.95)
(2359.544 -658.5913 28173.9)
(2897.779 -1535.165 30829.18)
(3099.776 -3417.308 34475.93)
(1612.265 -7796.133 39065.59)
(30.93878 191.7559 8853.644)
(101.2893 664.6045 9469.538)
(187.1341 1390.037 10576.49)
(296.6969 2490.4 12592.24)
(445.4948 3522.534 16108.27)
(617.4464 1883.279 19107.12)
(783.795 1085.636 20461.15)
(991.0561 552.7774 21647.88)
(1252.83 164.1497 22852.43)
(1588.127 -207.8242 24167.81)
(2018.669 -712.1469 25647.38)
(2553.738 -1577.788 27314.59)
(3124.891 -3225.479 29118.81)
(3341.207 -6466.243 30721.05)
(1717.691 -12550.67 60397.41)
(29.24035 117.3622 8720.876)
(95.56773 402.9514 9359.45)
(176.4209 823.2515 10503.82)
(279.2786 1401.669 12421.11)
(416.149 1810.1 15242.37)
(565.4561 1120.68 17630.6)
(707.9403 702.4996 19000.81)
(883.2222 375.0928 20210.21)
(1101.107 110.1607 21348.32)
(1375.854 -155.8164 22466.31)
(1726.917 -512.5547 23567.93)
(2176.143 -1093.599 24592.37)
(2731.892 -2106.964 25367.26)
(3319.801 -3856.3 25525.31)
(3521.286 -6661.98 47608.67)
(229.0823 -1620.701 16553.46)
(27.47446 38.82826 8520.258)
(89.60778 132.5543 9151.73)
(165.0894 267.307 10279.34)
(260.5909 443.4455 12091.94)
(385.8791 550.1497 14567.73)
(518.584 360.3732 16646.41)
(643.1791 234.0975 17946)
(794.4028 127.6307 19100.76)
(979.2736 37.06484 20151.65)
(1208.042 -55.84243 21121.09)
(1495.231 -179.3981 21988.22)
(1860.265 -374.6793 22664.28)
(2324.26 -699.4908 22960.88)
(2893.261 -1222.356 22555.93)
(3485.901 -1984.208 40915.78)
(466.7 -445.9461 14068.7)
(264.2624 -812.9297 22177.79)
(39.41551 -397.6213 18107.64)
(91.79429 -483.2411 16828.25)
(116.5483 -1720.556 18048.8)
(103.4553 -505.7317 15210.16)
(267.9727 -1851.567 16427.18)
(190.718 -4158.981 17786.68)
(94.55397 -474.4567 13636.85)
(299.108 -1744.597 14534.76)
(429.2783 -4025.918 15272.44)
(254.2604 -8698.635 15034.88)
(80.5325 -401.1112 12266.11)
(272.0366 -1464.201 12809.01)
(471.9437 -3342.944 12875.21)
(554.8621 -6998.527 11472.62)
(282.6346 -13499.31 5160.319)
(67.65458 -298.8019 11141.05)
(231.6791 -1079.114 11403.96)
(426.5317 -2410.334 10996.46)
(600.8724 -4804.439 9074.435)
(605.7301 -8361.633 3872.204)
(57.45595 -180.7445 10259.13)
(195.5304 -646.3331 10336.8)
(363.8203 -1414.955 9660.086)
(542.529 -2709.329 7564.294)
(658.4783 -4413.771 3095.156)
(49.81616 -58.97796 9600.732)
(167.5219 -209.4098 9577.159)
(309.5927 -452.4806 8787.84)
(467.1029 -846.1851 6687.66)
(604.0053 -1331.29 2669.281)
(44.21515 56.16431 9139.289)
(146.9958 198.6911 9082.947)
(268.8769 427.4213 8297.563)
(404.3574 795.0694 6282.385)
(532.3212 1243.334 2494.304)
(40.13324 155.9938 8844.49)
(132.2672 551.6443 8811.58)
(240.0577 1191.573 8126.678)
(359.392 2245.889 6270.267)
(474.6626 3597.94 2529.78)
(37.1387 233.2818 8682.941)
(121.7185 826.5922 8720.874)
(220.1878 1805.344 8230.758)
(329.7813 3510.631 6643.31)
(437.3285 5982.11 2789.13)
(34.88749 282.3949 8618.099)
(114.0164 1003.147 8765.731)
(206.5092 2222.181 8571.735)
(311.6598 4525.85 7462.416)
(419.3043 8668.651 3348.834)
(33.10638 300.0083 8610.597)
(108.0946 1065.981 8893.094)
(196.6733 2382.87 9094.816)
(301.1772 5087.212 8872.614)
(418.9742 12037.64 4384.013)
(31.5812 286.2668 8620.122)
(103.1106 1011.988 9038.269)
(188.6661 2239.49 9681.763)
(294.1338 4690.517 11139.72)
(436.5258 10691.53 18297.38)
(665.3938 1194.276 24021.04)
(870.0967 528.1979 23428.13)
(1122.472 234.2931 23879.66)
(1442.964 68.98479 24931.41)
(1853.535 -70.73425 26491.5)
(2363.77 -262.4835 28675.09)
(2910.061 -629.1311 31866.59)
(3133.633 -1471.852 37016.87)
(1654.28 -3661.39 46255.78)
(30.15328 245.5481 8609.994)
(98.43959 859.3995 9131.053)
(180.8367 1849.246 10051.67)
(284.5775 3561.776 11948.67)
(426.6671 5964.001 16562.19)
(607.5956 2245.987 20450.69)
(778.0499 1109.144 21333.12)
(988.0169 521.518 22199.83)
(1251.851 154.2244 23267.12)
(1589.401 -171.5341 24608.02)
(2023.687 -612.6507 26309.11)
(2566.959 -1408.942 28524.24)
(3158.861 -3072.779 31501.5)
(3425.809 -6898.477 35407.79)
(1805.077 -16358.66 77681.65)
(28.71901 185.2757 8553.872)
(93.70107 641.2342 9135.915)
(172.4217 1339.075 10188.12)
(272.0772 2394.974 12109.3)
(406.2239 3381.027 15461.28)
(559.171 1803.628 18300.21)
(703.8568 1037.051 19548.27)
(880.9326 526.4274 20621.9)
(1100.382 155.7285 21693.93)
(1376.915 -196.3367 22846.2)
(1730.805 -668.5755 24117.34)
(2185.569 -1468.338 25510.03)
(2753.413 -2961.041 26938.06)
(3368.988 -5813.025 28047.89)
(3625.833 -11084.01 54521.75)
(242.6116 -3181.627 19086.16)
(27.22216 113.5444 8436.722)
(88.71301 389.3347 9042.659)
(163.2121 794.3057 10134.01)
(257.3445 1350.288 11965.47)
(381.6709 1740.75 14658.53)
(515.6949 1075.657 16923.22)
(641.2048 672.787 18199.22)
(793.2651 358.3048 19309.79)
(978.9218 104.8993 20338.45)
(1208.607 -147.8862 21330.26)
(1497.197 -484.1989 22283.32)
(1864.78 -1026.747 23131.08)
(2333.757 -1960.839 23699.22)
(2912.718 -3539.486 23624.63)
(3524.88 -5983.345 43489.71)
(477.5957 -1422.867 14987.91)
(274.5196 -2648.591 23616.5)
(25.64231 37.61085 8252.726)
(83.42436 128.2426 8853.622)
(153.2538 258.2749 9931.622)
(241.0958 427.8558 11666.59)