/*--------------------------------*- C++ -*----------------------------------*\
| =========                 |                                                 |
| \\      /  F ield         | OpenFOAM: The Open Source CFD Toolbox           |
|  \\    /   O peration     | Version:  2306                                  |
|   \\  /    A nd           | Website:  www.openfoam.com                      |
|    \\/     M anipulation  |                                                 |
\*---------------------------------------------------------------------------*/
FoamFile
{
    version     2.0;
    format      ascii;
    arch        "LSB;label=32;scalar=64";
    class       volScalarField;
    location    "0.9/phiEC";
    object      phi;
}
// * * * * * * * * * * * * * * * * * * * * * * * * * * * * * * * * * * * * * //

dimensions      [1 2 -3 0 0 -1 0];

internalField   nonuniform List<scalar> 
20000
(
0.7240462
0.7240453
0.7240421
0.7242345
0.7240437
0.7240413
0.7242317
0.7240364
0.724222
0.7244347
0.7240414
0.7240397
0.7242261
0.7240357
0.7242193
0.7244292
0.7240308
0.7242047
0.7244129
0.724658
0.7240386
0.7240375
0.7242184
0.7240342
0.7242141
0.7244182
0.7240301
0.7242022
0.7244077
0.7246491
0.7240258
0.7241875
0.724383
0.7246252
0.7249181
0.7240356
0.7240349
0.7242089
0.7240322
0.7242067
0.7244023
0.7240287
0.7241973
0.7243973
0.7246309
0.7240251
0.7241852
0.7243781
0.7246168
0.7249075
0.7240214
0.7241722
0.7243535
0.7245809
0.7248716
0.7251465
0.7240328
0.7240321
0.7241988
0.7240297
0.7241978
0.7243825
0.7240268
0.7241905
0.7243822
0.7246028
0.7240238
0.7241807
0.7243685
0.7245995
0.7248845
0.7240208
0.72417
0.724349
0.724573
0.7248616
0.7251399
0.7240176
0.724159
0.7243273
0.7245376
0.72481
0.7250872
0.7253061
0.7240304
0.7240294
0.7241892
0.7240271
0.7241882
0.7243607
0.7240246
0.7241821
0.7243634
0.7245647
0.724022
0.7241743
0.7243545
0.7245729
0.7248446
0.7240196
0.7241658
0.72434
0.724557
0.7248398
0.7251266
0.724017
0.7241569
0.7243231
0.7245303
0.7248007
0.7250808
0.725302
0.7240143
0.7241475
0.7243047
0.7244993
0.7247505
0.7250099
0.7252373
0.7254705
0.7240286
0.7240271
0.724181
0.7240246
0.724179
0.72434
0.7240221
0.7241732
0.7243428
0.7245191
0.7240199
0.7241666
0.724337
0.7245368
0.7247779
0.7240179
0.7241598
0.724327
0.7245323
0.724802
0.7251077
0.7240159
0.724153
0.7243147
0.7245154
0.7247804
0.7250682
0.7252942
0.7240138
0.7241456
0.7243007
0.7244925
0.7247418
0.725004
0.7252334
0.7254684
0.7240114
0.7241376
0.7242851
0.7244662
0.7246982
0.7249361
0.725149
0.7253917
0.7256378
0.7240277
0.7240255
0.7241751
0.7240225
0.7241712
0.7243228
0.7240198
0.7241647
0.7243232
0.7244777
0.7240177
0.7241583
0.7243178
0.7244936
0.7246614
0.7240159
0.7241526
0.7243108
0.7244987
0.7247389
0.7250882
0.7240143
0.7241474
0.7243025
0.7244924
0.7247453
0.7250503
0.7252843
0.7240127
0.7241419
0.7242928
0.7244786
0.724723
0.7249923
0.725226
0.7254645
0.7240109
0.7241357
0.7242814
0.7244598
0.72469
0.7249306
0.7251454
0.7253896
0.7256373
0.7240088
0.7241287
0.7242681
0.7244377
0.7246531
0.7248715
0.7250652
0.7252918
0.7255482
0.7258064
0.7240277
0.7240246
0.724172
0.724021
0.7241656
0.7243106
0.7240178
0.7241575
0.7243068
0.7244452
0.7240155
0.7241504
0.7242996
0.7244545
0.7245809
0.7240138
0.7241449
0.7242929
0.7244586
0.7246288
0.7240125
0.7241406
0.7242874
0.7244613
0.7246867
0.7250319
0.7252762
0.7240112
0.7241366
0.7242814
0.7244571
0.7246904
0.7249757
0.7252167
0.72546
0.7240099
0.7241322
0.7242739
0.7244468
0.7246725
0.7249198
0.7251385
0.7253859
0.7256364
0.7240083
0.724127
0.7242645
0.7244317
0.7246455
0.7248664
0.7250618
0.7252899
0.7255477
0.7258075
0.7240065
0.7241209
0.724253
0.7244128
0.7246143
0.724816
0.7249921
0.7251977
0.7254364
0.7257056
0.725975
0.7240286
0.7240246
0.724172
0.7240201
0.7241627
0.7243043
0.7240164
0.7241523
0.7242953
0.7244231
0.7240136
0.7241436
0.7242844
0.7244237
0.7245264
0.7240118
0.7241375
0.724276
0.7244222
0.7245526
0.7240104
0.7241333
0.7242707
0.724424
0.7245845
0.7240094
0.7241302
0.7242672
0.724428
0.724636
0.7249585
0.7252089
0.7254566
0.7240085
0.7241271
0.7242631
0.7244266
0.724642
0.7249043
0.7251298
0.7253816
0.7256352
0.7240074
0.7241236
0.7242575
0.7244193
0.724629
0.7248562
0.7250554
0.7252864
0.7255467
0.7258093
0.724006
0.7241192
0.7242496
0.7244071
0.7246071
0.7248112
0.7249889
0.7251959
0.7254359
0.7257065
0.725978
0.7240044
0.7241138
0.7242396
0.7243908
0.7245803
0.7247682
0.7249293
0.7251158
0.7253317
0.7255814
0.7258622
0.7261417
0.7240304
0.7240255
0.7241751
0.7240201
0.7241627
0.7243043
0.7240157
0.7241495
0.7242893
0.724412
0.7240123
0.7241388
0.7242736
0.7244028
0.7244926
0.72401
0.7241312
0.7242619
0.7243936
0.7245011
0.7240085
0.7241264
0.7242549
0.7243902
0.7245137
0.7240075
0.7241233
0.7242515
0.7243932
0.7245411
0.7240068
0.7241211
0.7242497
0.7243993
0.7245912
0.7248884
0.7251226
0.7253783
0.7256344
0.724006
0.7241188
0.7242472
0.7244003
0.7246004
0.7248418
0.7250473
0.7252823
0.7255456
0.7258111
0.7240051
0.724116
0.7242429
0.7243954
0.7245915
0.7248017
0.7249829
0.7251927
0.7254349
0.725708
0.7259832
0.7240039
0.7241122
0.7242363
0.7243854
0.7245735
0.7247636
0.7249264
0.7251141
0.7253312
0.7255822
0.7258649
0.7261476
0.7240024
0.7241073
0.7242274
0.7243712
0.7245504
0.7247264
0.7248752
0.7250456
0.725241
0.7254662
0.7257256
0.7260164
0.7263038
0.7240328
0.7240271
0.724181
0.724021
0.7241656
0.7243106
0.7240157
0.7241495
0.7242893
0.724412
0.7240116
0.7241363
0.7242681
0.7243923
0.7244763
0.7240088
0.7241267
0.7242519
0.7243742
0.724469
0.7240069
0.7241205
0.7242417
0.7243636
0.7244659
0.7240057
0.7241167
0.7242367
0.7243616
0.7244753
0.7240049
0.7241146
0.7242349
0.7243666
0.7245025
0.7240044
0.724113
0.7242345
0.7243745
0.7245526
0.7248269
0.7250406
0.7252793
0.7255447
0.7258123
0.7240038
0.7241114
0.7242331
0.7243773
0.7245645
0.7247881
0.7249754
0.7251889
0.7254338
0.7257095
0.7259887
0.724003
0.7241091
0.7242299
0.7243742
0.7245587
0.7247546
0.7249207
0.7251111
0.7253303
0.7255835
0.7258694
0.7261579
0.724002
0.7241058
0.7242243
0.724366
0.7245439
0.7247221
0.7248724
0.725044
0.7252405
0.7254669
0.725728
0.7260216
0.7263141
0.7240006
0.7241014
0.7242164
0.7243535
0.7245236
0.7246895
0.724828
0.7249851
0.7251633
0.7253665
0.7255997
0.7258673
0.7261657
0.7264569
0.7240356
0.7240294
0.7241892
0.7240225
0.7241712
0.7243228
0.7240164
0.7241523
0.7242953
0.7244231
0.7240116
0.7241363
0.7242681
0.7243923
0.7244763
0.7240081
0.7241243
0.7242467
0.7243644
0.7244536
0.7240057
0.7241162
0.7242324
0.7243455
0.7244361
0.7240041
0.7241112
0.7242243
0.7243367
0.7244309
0.7240032
0.7241083
0.7242209
0.7243369
0.7244412
0.7240026
0.7241068
0.7242204
0.7243436
0.7244693
0.7240022
0.7241059
0.724221
0.7243528
0.7245193
0.7247741
0.7249691
0.725186
0.725433
0.7257105
0.7259923
0.7240018
0.7241047
0.7242206
0.724357
0.7245331
0.7247418
0.7249136
0.7251075
0.7253293
0.7255849
0.7258742
0.7261693
0.7240011
0.7241028
0.7242182
0.7243553
0.7245298
0.7247135
0.7248671
0.7250412
0.7252397
0.7254681
0.725732
0.7260307
0.7263326
0.7240002
0.7240999
0.7242134
0.7243485
0.7245174
0.7246854
0.7248253
0.7249836
0.7251629
0.7253672
0.7256019
0.725872
0.7261748
0.7264737
0.723999
0.724096
0.7242063
0.7243374
0.7244994
0.7246565
0.7247863
0.7249323
0.7250963
0.7252813
0.7254913
0.7257309
0.7260042
0.7263061
0.7265947
0.7240386
0.7240321
0.7241988
0.7240246
0.724179
0.72434
0.7240178
0.7241575
0.7243068
0.7244452
0.7240123
0.7241388
0.7242736
0.7244028
0.7244926
0.7240081
0.7241243
0.7242467
0.7243644
0.7244536
0.7240051
0.724114
0.7242276
0.7243365
0.7244217
0.724003
0.7241072
0.7242155
0.7243199
0.7244032
0.7240017
0.724103
0.7242092
0.7243135
0.7243996
0.724001
0.7241009
0.7242071
0.7243155
0.7244116
0.7240006
0.7240999
0.7242076
0.7243235
0.7244406
0.7240003
0.7240994
0.724209
0.7243337
0.7244903
0.7247286
0.7249077
0.7251049
0.7253285
0.7255857
0.7258774
0.7261772
0.7239999
0.7240986
0.7242092
0.7243389
0.7245054
0.7247014
0.7248604
0.7250379
0.7252387
0.7254693
0.7257364
0.7260408
0.7263546
0.7239994
0.7240971
0.7242075
0.7243383
0.7245039
0.7246772
0.7248203
0.7249809
0.7251621
0.7253683
0.7256056
0.7258801
0.7261912
0.7265054
0.7239986
0.7240946
0.7242034
0.7243326
0.7244935
0.7246525
0.7247837
0.7249309
0.7250959
0.7252819
0.7254933
0.7257352
0.7260124
0.7263209
0.7266198
0.7239975
0.724091
0.724197
0.7243226
0.7244774
0.7246267
0.7247489
0.7248856
0.7250379
0.7252079
0.7253986
0.7256138
0.7258577
0.7261327
0.7264318
0.7268426
0.7240414
0.7240349
0.7242089
0.7240271
0.7241882
0.7243607
0.7240198
0.7241647
0.7243232
0.7244777
0.7240136
0.7241436
0.7242844
0.7244237
0.7245264
0.7240088
0.7241267
0.7242519
0.7243742
0.724469
0.7240051
0.724114
0.7242276
0.7243365
0.7244217
0.7240024
0.7241051
0.724211
0.7243114
0.7243899
0.7240007
0.7240992
0.7242009
0.7242977
0.7243738
0.7239996
0.7240959
0.724196
0.7242935
0.7243726
0.723999
0.7240943
0.7241949
0.7242969
0.7243861
0.7239987
0.7240937
0.7241962
0.7243057
0.7244156
0.7239985
0.7240935
0.7241981
0.7243166
0.7244646
0.7246888
0.7248548
0.7250354
0.7252379
0.72547
0.7257392
0.7260478
0.7263712
0.7239982
0.724093
0.7241989
0.7243225
0.7244806
0.7246657
0.7248139
0.7249778
0.7251611
0.7253694
0.7256096
0.7258892
0.7262107
0.7265468
0.7239978
0.7240918
0.7241977
0.7243228
0.7244806
0.7246448
0.7247789
0.7249283
0.7250952
0.725283
0.7254967
0.7257427
0.7260272
0.726349
0.7266702
0.7239971
0.7240896
0.7241942
0.724318
0.7244717
0.7246229
0.7247465
0.7248842
0.7250375
0.7252085
0.7254005
0.7256178
0.7258652
0.7261461
0.7264539
0.726885
0.723996
0.7240863
0.7241884
0.7243091
0.7244573
0.7245996
0.7247153
0.7248438
0.7249862
0.7251438
0.7253188
0.7255139
0.7257322
0.7259767
0.7262478
0.7266569
0.7272175
0.7240437
0.7240375
0.7242184
0.7240297
0.7241978
0.7243825
0.7240221
0.7241732
0.7243428
0.7245191
0.7240155
0.7241504
0.7242996
0.7244545
0.7245809
0.72401
0.7241312
0.7242619
0.7243936
0.7245011
0.7240057
0.7241162
0.7242324
0.7243455
0.7244361
0.7240024
0.7241051
0.724211
0.7243114
0.7243899
0.7240001
0.7240973
0.7241966
0.7242898
0.7243613
0.7239985
0.7240923
0.7241881
0.7242785
0.7243483
0.7239976
0.7240895
0.7241844
0.724276
0.7243493
0.7239972
0.7240883
0.7241841
0.7242804
0.7243639
0.723997
0.7240881
0.7241859
0.7242899
0.7243934
0.7239968
0.7240882
0.7241883
0.7243012
0.7244416
0.7246537
0.7248087
0.7249754
0.7251604
0.7253701
0.7256122
0.7258955
0.7262254
0.7265834
0.7239967
0.7240879
0.7241895
0.7243077
0.7244582
0.7246337
0.7247729
0.7249253
0.7250943
0.725284
0.7255004
0.725751
0.7260446
0.7263856
0.7267453
0.7239963
0.724087
0.7241888
0.7243086
0.7244593
0.7246155
0.7247419
0.7248818
0.7250368
0.7252095
0.7254037
0.7256247
0.7258788
0.7261713
0.7264985
0.7269776
0.7239957
0.724085
0.7241858
0.7243047
0.7244518
0.724596
0.7247129
0.7248426
0.7249858
0.7251444
0.7253206
0.7255176
0.7257392
0.7259889
0.7262676
0.7266941
0.7272852
0.7239947
0.724082
0.7241805
0.7242966
0.7244389
0.7245748
0.7246846
0.7248061
0.72494
0.7250871
0.7252491
0.7254278
0.7256253
0.7258434
0.7260832
0.7264537
0.7269972
0.7275819
0.7240453
0.7240397
0.7242261
0.7240322
0.7242067
0.7244023
0.7240246
0.7241821
0.7243634
0.7245647
0.7240177
0.7241583
0.7243178
0.7244936
0.7246614
0.7240118
0.7241375
0.724276
0.7244222
0.7245526
0.7240069
0.7241205
0.7242417
0.7243636
0.7244659
0.724003
0.7241072
0.7242155
0.7243199
0.7244032
0.7240001
0.7240973
0.7241966
0.7242898
0.7243613
0.723998
0.7240904
0.7241841
0.724271
0.7243366
0.7239966
0.724086
0.7241769
0.7242618
0.7243263
0.7239959
0.7240837
0.724174
0.7242605
0.7243289
0.7239955
0.7240829
0.7241743
0.7242657
0.7243442
0.7239954
0.7240829
0.7241765
0.7242756
0.7243737
0.7239953
0.7240832
0.7241793
0.7242872
0.7244209
0.7246223
0.7247678
0.7249231
0.7250936
0.7252847
0.7255028
0.7257568
0.7260579
0.726418
0.7268338
0.7239952
0.7240832
0.7241809
0.7242941
0.7244379
0.7246049
0.7247361
0.724879
0.7250359
0.7252105
0.7254072
0.7256325
0.7258948
0.7262042
0.7265648
0.7271501
0.7239949
0.7240824
0.7241805
0.7242956
0.7244399
0.7245888
0.7247085
0.7248402
0.7249851
0.7251453
0.7253236
0.7255241
0.7257518
0.7260121
0.7263076
0.7267755
0.7274382
0.7239943
0.7240807
0.7241779
0.7242923
0.7244336
0.7245714
0.7246824
0.7248049
0.7249396
0.7250876
0.7252508
0.7254313
0.7256318
0.7258548
0.7261014
0.726487
0.7270564
0.7276722
0.7239935
0.724078
0.7241731
0.724285
0.7244218
0.724552
0.7246566
0.7247719
0.7248982
0.7250364
0.7251874
0.7253526
0.7255331
0.7257299
0.7259431
0.7262741
0.726765
0.7273281
0.7279322
0.7240462
0.7240413
0.7242317
0.7240342
0.7242141
0.7244182
0.7240268
0.7241905
0.7243822
0.7246028
0.7240199
0.7241666
0.724337
0.7245368
0.7247779
0.7240138
0.7241449
0.7242929
0.7244586
0.7246288
0.7240085
0.7241264
0.7242549
0.7243902
0.7245137
0.7240041
0.7241112
0.7242243
0.7243367
0.7244309
0.7240007
0.7240992
0.7242009
0.7242977
0.7243738
0.723998
0.7240904
0.7241841
0.724271
0.7243366
0.7239961
0.7240842
0.724173
0.7242546
0.7243153
0.7239949
0.7240804
0.7241668
0.724247
0.7243071
0.7239942
0.7240785
0.7241646
0.7242467
0.7243109
0.723994
0.7240779
0.7241654
0.7242525
0.7243266
0.7239939
0.7240782
0.724168
0.7242627
0.7243558
0.7239939
0.7240787
0.724171
0.7242744
0.7244021
0.724594
0.7247313
0.7248769
0.7250353
0.7252111
0.7254095
0.7256379
0.725907
0.7262334
0.7266431
0.7275723
0.7239939
0.7240788
0.7241729
0.7242816
0.7244193
0.7245787
0.724703
0.7248375
0.7249843
0.7251462
0.7253269
0.7255314
0.7257668
0.7260423
0.7263673
0.7269274
0.7277333
0.7239936
0.7240783
0.7241728
0.7242835
0.7244221
0.7245645
0.7246782
0.7248027
0.7249389
0.7250885
0.7252537
0.7254375
0.7256437
0.7258764
0.7261381
0.72656
0.7271904
0.7278764
0.7239931
0.7240768
0.7241706
0.7242808
0.7244167
0.7245487
0.7246544
0.7247707
0.7248979
0.7250369
0.725189
0.725356
0.7255393
0.7257406
0.72596
0.7263046
0.726818
0.7274069
0.7280414
0.7239923
0.7240742
0.7241662
0.7242742
0.7244059
0.724531
0.7246308
0.7247405
0.7248603
0.7249906
0.7251323
0.7252861
0.7254527
0.7256322
0.7258237
0.7261218
0.7265629
0.7270679
0.7276464
0.7282655
0.7240421
0.7242345
0.7240357
0.7242193
0.7244292
0.7240287
0.7241973
0.7243973
0.7246309
0.724022
0.7241743
0.7243545
0.7245729
0.7248446
0.7240159
0.7241526
0.7243108
0.7244987
0.7247389
0.7250882
0.7240104
0.7241333
0.7242707
0.724424
0.7245845
0.7240057
0.7241167
0.7242367
0.7243616
0.7244753
0.7240017
0.724103
0.7242092
0.7243135
0.7243996
0.7239985
0.7240923
0.7241881
0.7242785
0.7243483
0.7239961
0.7240842
0.724173
0.7242546
0.7243153
0.7239944
0.7240787
0.7241631
0.7242402
0.7242966
0.7239933
0.7240753
0.7241578
0.7242338
0.7242901
0.7239928
0.7240737
0.7241561
0.7242342
0.7242948
0.7239925
0.7240734
0.7241573
0.7242404
0.7243108
0.7239925
0.7240738
0.7241601
0.7242508
0.7243396
0.7300458
0.7239926
0.7240744
0.7241633
0.7242626
0.7243849
0.7245682
0.7246984
0.7248355
0.7249837
0.7251468
0.7253291
0.7255365
0.7257781
0.7260691
0.7264378
0.727301
0.7283807
0.7239926
0.7240747
0.7241654
0.72427
0.7244022
0.7245547
0.7246728
0.7248001
0.7249382
0.7250894
0.7252568
0.7254444
0.7256577
0.7259045
0.7261929
0.7266965
0.7274498
0.7282606
0.7239924
0.7240744
0.7241657
0.7242724
0.7244056
0.7245421
0.7246504
0.7247686
0.7248973
0.7250377
0.7251918
0.7253618
0.7255505
0.7257608
0.7259942
0.7263716
0.726938
0.7275853
0.7282862
0.723992
0.724073
0.7241638
0.7242702
0.724401
0.7245278
0.7246287
0.7247394
0.7248599
0.7249911
0.7251338
0.7252893
0.7254585
0.7256422
0.7258396
0.7261502
0.7266114
0.7271382
0.7277414
0.7283893
0.7239912
0.7240707
0.7241598
0.7242641
0.7243912
0.7245115
0.724607
0.7247117
0.7248255
0.7249489
0.7250824
0.7252265
0.7253814
0.7255467
0.725721
0.7259922
0.7263922
0.7268439
0.7273594
0.7279496
0.7284304
0.7240364
0.724222
0.7244347
0.7240301
0.7242022
0.7244077
0.7246491
0.7240238
0.7241807
0.7243685
0.7245995
0.7248845
0.7240179
0.7241598
0.724327
0.7245323
0.724802
0.7251077
0.7240125
0.7241406
0.7242874
0.7244613
0.7246867
0.7250319
0.7252762
0.7240075
0.7241233
0.7242515
0.7243932
0.7245411
0.7240032
0.7241083
0.7242209
0.7243369
0.7244412
0.7239996
0.7240959
0.724196
0.7242935
0.7243726
0.7239966
0.724086
0.7241769
0.7242618
0.7243263
0.7239944
0.7240787
0.7241631
0.7242402
0.7242966
0.7239929
0.7240736
0.7241542
0.7242273
0.7242802
0.7239919
0.7240706
0.7241495
0.7242219
0.724275
0.7239914
0.7240693
0.7241483
0.7242229
0.7242803
0.7239912
0.7240691
0.7241498
0.7242294
0.7242964
0.7314779
0.7239913
0.7240697
0.7241528
0.7242399
0.7243248
0.7294973
0.7302133
0.7239914
0.7240705
0.7241562
0.7242517
0.724369
0.7245446
0.7246684
0.7247982
0.7249376
0.72509
0.7252588
0.7254491
0.7256683
0.7259294
0.7262578
0.7270331
0.7280216
0.729
0.7239914
0.724071
0.7241585
0.7242593
0.7243864
0.7245327
0.7246453
0.7247661
0.7248965
0.7250386
0.7251948
0.7253683
0.7255638
0.7257872
0.7260451
0.7264969
0.7271709
0.7279222
0.7287316
0.7239913
0.7240707
0.724159
0.724262
0.7243903
0.7245214
0.7246248
0.7247373
0.7248593
0.7249919
0.7251364
0.7252948
0.7254692
0.7256614
0.7258717
0.7262124
0.7267214
0.7272979
0.7279548
0.7286645
0.7239909
0.7240695
0.7241575
0.7242603
0.7243865
0.7245084
0.724605
0.7247106
0.7248252
0.7249494
0.7250839
0.7252296
0.725387
0.7255563
0.725736
0.7260189
0.7264373
0.7269083
0.7274441
0.7280569
0.7285596
0.7239902
0.7240674
0.7241538
0.7242547
0.7243775
0.7244933
0.7245849
0.724685
0.7247936
0.7249108
0.7250371
0.7251728
0.7253177
0.7254711
0.7256312
0.7258806
0.7262472
0.7266554
0.7271144
0.7276373
0.7280997
0.7284459
0.7240308
0.7242047
0.7244129
0.724658
0.7240251
0.7241852
0.7243781
0.7246168
0.7249075
0.7240196
0.7241658
0.72434
0.724557
0.7248398
0.7251266
0.7240143
0.7241474
0.7243025
0.7244924
0.7247453
0.7250503
0.7252843
0.7240094
0.7241302
0.7242672
0.724428
0.724636
0.7249585
0.7252089
0.7254566
0.7240049
0.7241146
0.7242349
0.7243666
0.7245025
0.724001
0.7241009
0.7242071
0.7243155
0.7244116
0.7239976
0.7240895
0.7241844
0.724276
0.7243493
0.7239949
0.7240804
0.7241668
0.724247
0.7243071
0.7239929
0.7240736
0.7241542
0.7242273
0.7242802
0.7239914
0.724069
0.7241462
0.7242157
0.7242655
0.7239905
0.7240663
0.724142
0.7242111
0.7242613
0.7239901
0.7240652
0.7241412
0.7242126
0.7242671
0.7324434
0.72399
0.7240652
0.7241429
0.7242193
0.7242832
0.7307642
0.7315537
0.7239901
0.724066
0.7241461
0.7242298
0.7243112
0.7290158
0.729646
0.7304604
0.7239903
0.7240668
0.7241496
0.7242416
0.7243544
0.7245229
0.724641
0.7247642
0.724896
0.7250391
0.7251967
0.7253728
0.7255738
0.7258107
0.7261055
0.7268064
0.7276855
0.7285737
0.7295047
0.7239903
0.7240674
0.7241521
0.7242494
0.7243718
0.7245123
0.7246199
0.7247349
0.7248586
0.7249927
0.7251393
0.725301
0.7254817
0.7256863
0.7259196
0.7263291
0.726935
0.7276001
0.7283443
0.7291508
0.7239902
0.7240673
0.7241528
0.7242523
0.7243761
0.7245022
0.7246012
0.7247086
0.7248246
0.7249502
0.7250864
0.7252349
0.7253971
0.7255745
0.7257663
0.7260773
0.7265395
0.7270545
0.7276349
0.728296
0.7288457
0.7239899
0.7240663
0.7241515
0.724251
0.7243729
0.7244903
0.724583
0.7246839
0.7247933
0.7249113
0.7250385
0.7251757
0.725323
0.7254802
0.7256454
0.7259057
0.7262894
0.7267152
0.727192
0.727733
0.7282115
0.7285755
0.7239893
0.7240643
0.7241481
0.7242459
0.7243647
0.7244764
0.7245644
0.7246603
0.724764
0.7248757
0.7249956
0.7251238
0.7252601
0.7254034
0.7255516
0.725783
0.7261221
0.7264953
0.7269089
0.7273726
0.7277751
0.7281138
0.7284612
0.7240258
0.7241875
0.724383
0.7246252
0.7249181
0.7240208
0.72417
0.724349
0.724573
0.7248616
0.7251399
0.7240159
0.724153
0.7243147
0.7245154
0.7247804
0.7250682
0.7252942
0.7240112
0.7241366
0.7242814
0.7244571
0.7246904
0.7249757
0.7252167
0.72546
0.7240068
0.7241211
0.7242497
0.7243993
0.7245912
0.7248884
0.7251226
0.7253783
0.7256344
0.7240026
0.7241068
0.7242204
0.7243436
0.7244693
0.723999
0.7240943
0.7241949
0.7242969
0.7243861
0.7239959
0.7240837
0.724174
0.7242605
0.7243289
0.7239933
0.7240753
0.7241578
0.7242338
0.7242901
0.7239914
0.724069
0.7241462
0.7242157
0.7242655
0.7239901
0.7240648
0.7241388
0.7242051
0.7242522
0.7239893
0.7240623
0.7241351
0.7242012
0.7242489
0.7330636
0.7239889
0.7240614
0.7241346
0.7242031
0.7242551
0.7316157
0.7325
0.7239889
0.7240616
0.7241365
0.7242099
0.7242711
0.7301565
0.7308304
0.7316937
0.723989
0.7240624
0.7241398
0.7242204
0.7242986
0.7286315
0.7291503
0.7298648
0.7307449
0.7239892
0.7240634
0.7241435
0.7242323
0.7243409
0.7245029
0.7246158
0.7247331
0.7248581
0.7249932
0.7251411
0.7253053
0.7254913
0.7257085
0.7259763
0.7266174
0.7274079
0.7281857
0.7290233
0.7299353
0.7239893
0.7240641
0.7241461
0.7242401
0.7243582
0.7244934
0.7245965
0.7247063
0.7248239
0.724951
0.7250891
0.7252408
0.7254091
0.7255981
0.7258115
0.7261868
0.7267383
0.7273316
0.7279839
0.7287201
0.7293461
0.7239892
0.7240641
0.724147
0.7242433
0.7243629
0.7244843
0.7245793
0.7246821
0.7247927
0.724912
0.725041
0.7251808
0.7253327
0.7254975
0.7256741
0.7259609
0.7263854
0.7268511
0.7273666
0.7279466
0.7284597
0.7288626
0.7239889
0.7240632
0.7241459
0.7242423
0.7243602
0.7244735
0.7245625
0.7246593
0.7247637
0.7248762
0.724997
0.7251266
0.7252652
0.7254121
0.7255652
0.7258068
0.726162
0.7265514
0.7269809
0.7274601
0.7278747
0.728226
0.7285912
0.7239883
0.7240614
0.7241428
0.7242377
0.7243527
0.7244606
0.7245452
0.7246373
0.7247367
0.7248433
0.7249575
0.725079
0.7252077
0.7253423
0.7254804
0.7256965
0.7260127
0.7263573
0.7267344
0.7271509
0.7275007
0.7277881
0.7281277
0.7284763
0.7240214
0.7241722
0.7243535
0.7245809
0.7248716
0.7251465
0.724017
0.7241569
0.7243231
0.7245303
0.7248007
0.7250808
0.725302
0.7240127
0.7241419
0.7242928
0.7244786
0.724723
0.7249923
0.725226
0.7254645
0.7240085
0.7241271
0.7242631
0.7244266
0.724642
0.7249043
0.7251298
0.7253816
0.7256352
0.7240044
0.724113
0.7242345
0.7243745
0.7245526
0.7248269
0.7250406
0.7252793
0.7255447
0.7258123
0.7240006
0.7240999
0.7242076
0.7243235
0.7244406
0.7239972
0.7240883
0.7241841
0.7242804
0.7243639
0.7239942
0.7240785
0.7241646
0.7242467
0.7243109
0.7239919
0.7240706
0.7241495
0.7242219
0.724275
0.7239901
0.7240648
0.7241388
0.7242051
0.7242522
0.7239889
0.7240609
0.724132
0.7241954
0.7242402
0.7333697
0.7239881
0.7240587
0.7241287
0.7241921
0.7242376
0.7321616
0.7331153
0.7239878
0.7240579
0.7241285
0.7241943
0.724244
0.7309218
0.7316644
0.7326108
0.7239878
0.7240582
0.7241305
0.7242012
0.7242599
0.7296801
0.7302164
0.7309526
0.7318856
0.723988
0.7240591
0.724134
0.7242118
0.7242869
0.7283189
0.7287556
0.7293485
0.7301161
0.7310463
0.7239882
0.7240602
0.7241377
0.7242235
0.7243283
0.7244843
0.7245925
0.7247046
0.7248235
0.7249515
0.7250909
0.7252449
0.7254182
0.7256192
0.7258651
0.7264577
0.7271788
0.7278694
0.7285935
0.7294067
0.7301344
0.7239883
0.724061
0.7241405
0.7242314
0.7243455
0.7244758
0.7245747
0.7246798
0.724792
0.7249128
0.7250436
0.7251865
0.7253441
0.7255201
0.7257171
0.7260643
0.726572
0.7271089
0.7276865
0.7283259
0.7288952
0.7293643
0.7239883
0.7240611
0.7241416
0.7242348
0.7243505
0.7244677
0.724559
0.7246574
0.7247632
0.7248769
0.7249993
0.7251315
0.7252745
0.7254286
0.7255925
0.7258591
0.7262526
0.7266789
0.7271432
0.7276554
0.7280962
0.728475
0.7288792
0.723988
0.7240603
0.7241407
0.7242341
0.7243483
0.7244578
0.7245434
0.7246363
0.7247364
0.7248437
0.7249588
0.7250817
0.7252126
0.7253506
0.7254934
0.7257191
0.7260505
0.7264102
0.7268019
0.7272321
0.7275917
0.727888
0.7282403
0.7286067
0.7239875
0.7240586
0.7241378
0.7242299
0.7243414
0.7244458
0.7245273
0.7246159
0.7247112
0.7248133
0.7249222
0.7250378
0.7251597
0.7252866
0.725416
0.7256189
0.7259156
0.7262363
0.7265839
0.7269627
0.7272711
0.7275128
0.7278009
0.7281415
0.7284912
0.7240176
0.724159
0.7243273
0.7245376
0.72481
0.7250872
0.7253061
0.7240138
0.7241456
0.7243007
0.7244925
0.7247418
0.725004
0.7252334
0.7254684
0.7240099
0.7241322
0.7242739
0.7244468
0.7246725
0.7249198
0.7251385
0.7253859
0.7256364
0.724006
0.7241188
0.7242472
0.7244003
0.7246004
0.7248418
0.7250473
0.7252823
0.7255456
0.7258111
0.7240022
0.7241059
0.724221
0.7243528
0.7245193
0.7247741
0.7249691
0.725186
0.725433
0.7257105
0.7259923
0.7239987
0.7240937
0.7241962
0.7243057
0.7244156
0.7239955
0.7240829
0.7241743
0.7242657
0.7243442
0.7239928
0.7240737
0.7241561
0.7242342
0.7242948
0.7239905
0.7240663
0.724142
0.7242111
0.7242613
0.7239889
0.7240609
0.724132
0.7241954
0.7242402
0.7333697
0.7239877
0.7240572
0.7241257
0.7241865
0.7242291
0.7324307
0.7334201
0.7239871
0.7240553
0.7241228
0.7241837
0.7242271
0.7314118
0.7322056
0.7332181
0.7239868
0.7240546
0.7241228
0.7241861
0.7242338
0.7303829
0.7309656
0.7317597
0.7327726
0.7239868
0.7240551
0.724125
0.7241932
0.7242496
0.7292958
0.7297353
0.7303267
0.7311196
0.7321192
0.723987
0.7240561
0.7241285
0.7242037
0.7242761
0.728057
0.7284348
0.7289384
0.7295761
0.7303816
0.7312082
0.7239873
0.7240572
0.7241324
0.7242153
0.7243165
0.7244671
0.7245709
0.7246782
0.7247916
0.7249132
0.7250453
0.7251904
0.7253528
0.7255401
0.7257679
0.7263204
0.7269857
0.7276096
0.7282459
0.7289414
0.7295837
0.730153
0.7239874
0.724058
0.7241352
0.7242233
0.7243337
0.7244595
0.7245545
0.7246553
0.7247626
0.7248776
0.7250018
0.725137
0.7252854
0.7254502
0.7256334
0.7259573
0.7264288
0.7269208
0.7274406
0.7280029
0.7284856
0.7289115
0.729382
0.7239874
0.7240582
0.7241364
0.7242269
0.7243389
0.7244521
0.72454
0.7246345
0.7247359
0.7248444
0.724961
0.7250864
0.7252215
0.7253664
0.7255195
0.725769
0.7261364
0.7265305
0.726954
0.7274136
0.7277942
0.7281102
0.7284899
0.7288954
0.7239872
0.7240576
0.7241357
0.7242265
0.7243372
0.724443
0.7245256
0.7246149
0.7247109
0.7248137
0.7249235
0.7250404
0.7251645
0.7252946
0.7254284
0.7256406
0.7259516
0.7262865
0.7266475
0.7270388
0.7273556
0.7276041
0.7279011
0.7282543
0.7286219
0.7239867
0.724056
0.7241331
0.7242226
0.7243308
0.7244319
0.7245106
0.7245958
0.7246874
0.7247853
0.7248895
0.7249998
0.7251156
0.7252356
0.7253575
0.7255489
0.7258286
0.726129
0.7264519
0.7268003
0.7270762
0.7272824
0.7275247
0.7278135
0.7281551
0.7285086
0.7240143
0.7241475
0.7243047
0.7244993
0.7247505
0.7250099
0.7252373
0.7254705
0.7240109
0.7241357
0.7242814
0.7244598
0.72469
0.7249306
0.7251454
0.7253896
0.7256373
0.7240074
0.7241236
0.7242575
0.7244193
0.724629
0.7248562
0.7250554
0.7252864
0.7255467
0.7258093
0.7240038
0.7241114
0.7242331
0.7243773
0.7245645
0.7247881
0.7249754
0.7251889
0.7254338
0.7257095
0.7259887
0.7240003
0.7240994
0.724209
0.7243337
0.7244903
0.7247286
0.7249077
0.7251049
0.7253285
0.7255857
0.7258774
0.7261772
0.723997
0.7240881
0.7241859
0.7242899
0.7243934
0.723994
0.7240779
0.7241654
0.7242525
0.7243266
0.7239914
0.7240693
0.7241483
0.7242229
0.7242803
0.7239893
0.7240623
0.7241351
0.7242012
0.7242489
0.7330636
0.7239877
0.7240572
0.7241257
0.7241865
0.7242291
0.7324307
0.7334201
0.7239867
0.7240539
0.7241199
0.7241783
0.724219
0.7316532
0.7324735
0.7335209
0.7239861
0.7240521
0.7241173
0.7241759
0.7242175
0.7308326
0.7314513
0.7322931
0.7333711
0.7239858
0.7240516
0.7241175
0.7241786
0.7242243
0.7299502
0.7304233
0.7310513
0.7318985
0.732982
0.7239859
0.7240521
0.7241198
0.7241857
0.7242399
0.7289748
0.7293473
0.729837
0.7304774
0.7313223
0.7322601
0.7239861
0.7240532
0.7241234
0.7241961
0.724266
0.7278324
0.728166
0.7286055
0.7291485
0.7298165
0.7305237
0.7312237
0.7239864
0.7240544
0.7241273
0.7242077
0.7243055
0.724451
0.7245508
0.7246537
0.7247621
0.7248781
0.7250035
0.7251408
0.7252938
0.7254693
0.7256819
0.7262004
0.7268198
0.727391
0.7279611
0.7285673
0.7291022
0.7296001
0.730171
0.7239866
0.7240553
0.7241303
0.7242157
0.7243225
0.7244442
0.7245357
0.7246325
0.7247352
0.7248451
0.7249634
0.7250917
0.725232
0.725387
0.7255586
0.7258624
0.7263036
0.726759
0.7272331
0.7277365
0.7281507
0.7285004
0.7289274
0.7293993
0.7239866
0.7240556
0.7241316
0.7242194
0.724328
0.7244376
0.7245223
0.7246132
0.7247104
0.7248143
0.7249256
0.725045
0.725173
0.7253098
0.7254535
0.7256882
0.7260334
0.7264006
0.7267911
0.7272089
0.7275436
0.7278072
0.7281239
0.7285046
0.7289113
0.7239864
0.724055
0.7241311
0.7242193
0.7243267
0.7244292
0.7245089
0.7245949
0.7246872
0.7247857
0.7248907
0.7250023
0.7251201
0.7252433
0.7253694
0.7255696
0.725863
0.7261768
0.7265123
0.7268721
0.7271553
0.7273672
0.7276163
0.727914
0.7282682
0.7286397
0.7239859
0.7240536
0.7241287
0.7242158
0.7243209
0.7244188
0.7244949
0.7245771
0.7246653
0.7247593
0.7248591
0.7249644
0.7250748
0.7251887
0.7253038
0.7254851
0.7257499
0.7260328
0.7263348
0.7266579
0.7269079
0.7270869
0.7272936
0.7275364
0.727826
0.728171
0.7285248
0.7240114
0.7241376
0.7242851
0.7244662
0.7246982
0.7249361
0.725149
0.7253917
0.7256378
0.7240083
0.724127
0.7242645
0.7244317
0.7246455
0.7248664
0.7250618
0.7252899
0.7255477
0.7258075
0.7240051
0.724116
0.7242429
0.7243954
0.7245915
0.7248017
0.7249829
0.7251927
0.7254349
0.725708
0.7259832
0.7240018
0.7241047
0.7242206
0.724357
0.7245331
0.7247418
0.7249136
0.7251075
0.7253293
0.7255849
0.7258742
0.7261693
0.7239985
0.7240935
0.7241981
0.7243166
0.7244646
0.7246888
0.7248548
0.7250354
0.7252379
0.72547
0.7257392
0.7260478
0.7263712
0.7239954
0.7240829
0.7241765
0.7242756
0.7243737
0.7239925
0.7240734
0.7241573
0.7242404
0.7243108
0.7239901
0.7240652
0.7241412
0.7242126
0.7242671
0.7324434
0.7239881
0.7240587
0.7241287
0.7241921
0.7242376
0.7321616
0.7331153
0.7239867
0.7240539
0.7241199
0.7241783
0.724219
0.7316532
0.7324735
0.7335209
0.7239857
0.7240507
0.7241144
0.7241707
0.7242097
0.7310541
0.7316916
0.7325589
0.7336717
0.7239851
0.7240491
0.7241121
0.7241686
0.7242086
0.7303687
0.730869
0.7315298
0.7324232
0.7335733
0.7239849
0.7240487
0.7241125
0.7241715
0.7242155
0.7295894
0.7299878
0.7305022
0.7311762
0.7320777
0.7331155
0.723985
0.7240493
0.7241149
0.7241786
0.724231
0.7286999
0.7290233
0.7294422
0.7299759
0.7306603
0.7314441
0.7322739
0.7239853
0.7240505
0.7241186
0.724189
0.7242565
0.7276361
0.7279355
0.7283266
0.7288016
0.7293703
0.7299452
0.7305373
0.7312392
0.7239855
0.7240517
0.7241226
0.7242005
0.7242953
0.7244359
0.7245321
0.7246309
0.7247348
0.7248456
0.724965
0.7250953
0.72524
0.7254054
0.7256049
0.726094
0.7266747
0.7272032
0.7277218
0.7282614
0.7287159
0.7291171
0.7296162
0.7301887
0.7239858
0.7240527
0.7241256
0.7242086
0.7243121
0.7244298