/*--------------------------------*- C++ -*----------------------------------*\
| =========                 |                                                 |
| \\      /  F ield         | OpenFOAM: The Open Source CFD Toolbox           |
|  \\    /   O peration     | Version:  2306                                  |
|   \\  /    A nd           | Website:  www.openfoam.com                      |
|    \\/     M anipulation  |                                                 |
\*---------------------------------------------------------------------------*/
FoamFile
{
    version     2.0;
    format      ascii;
    arch        "LSB;label=32;scalar=64";
    class       volScalarField;
    location    "0.9/phiEC";
    object      T;
}
// * * * * * * * * * * * * * * * * * * * * * * * * * * * * * * * * * * * * * //

dimensions      [0 0 0 1 0 0 0];

internalField   nonuniform List<scalar> 
20000
(
1243.064
1243.062
1245.064
1242.994
1243.058
1245.063
1242.991
1247.701
1245.042
1242.854
1243.051
1245.061
1242.984
1247.7
1245.041
1242.849
1250.409
1247.701
1245
1242.65
1243.044
1245.059
1242.976
1247.699
1245.039
1242.839
1250.408
1247.7
1244.999
1242.641
1253
1250.417
1247.703
1244.943
1242.392
1243.036
1245.056
1242.965
1247.697
1245.036
1242.825
1250.407
1247.698
1244.995
1242.623
1253
1250.416
1247.702
1244.94
1242.374
1255.424
1253.01
1250.434
1247.71
1244.877
1242.179
1243.028
1245.053
1242.954
1247.694
1245.032
1242.808
1250.405
1247.695
1244.991
1242.598
1252.998
1250.414
1247.699
1244.935
1242.34
1255.423
1253.009
1250.432
1247.708
1244.873
1242.148
1257.676
1255.433
1253.031
1250.463
1247.727
1244.83
1242.04
1243.022
1245.05
1242.944
1247.692
1245.028
1242.789
1250.402
1247.692
1244.985
1242.569
1252.996
1250.411
1247.694
1244.929
1242.295
1255.422
1253.007
1250.429
1247.703
1244.865
1242.087
1257.675
1255.432
1253.029
1250.461
1247.724
1244.823
1242.001
1259.769
1257.685
1255.454
1253.065
1250.508
1247.752
1244.802
1241.914
1243.017
1245.048
1242.934
1247.689
1245.024
1242.77
1250.4
1247.689
1244.979
1242.538
1252.994
1250.408
1247.689
1244.92
1242.246
1255.42
1253.004
1250.425
1247.696
1244.854
1241.998
1257.674
1255.431
1253.026
1250.456
1247.718
1244.809
1241.92
1259.768
1257.684
1255.452
1253.062
1250.505
1247.749
1244.793
1241.866
1261.717
1259.777
1257.704
1255.487
1253.116
1250.556
1247.773
1244.782
1241.807
1243.014
1245.046
1242.927
1247.687
1245.02
1242.753
1250.397
1247.685
1244.973
1242.502
1252.991
1250.404
1247.683
1244.911
1242.212
1255.418
1253.001
1250.419
1247.687
1244.844
1241.884
1257.673
1255.428
1253.022
1250.448
1247.708
1244.791
1241.797
1259.767
1257.683
1255.449
1253.058
1250.498
1247.742
1244.775
1241.768
1261.717
1259.776
1257.702
1255.485
1253.113
1250.553
1247.769
1244.771
1241.753
1263.536
1261.725
1259.794
1257.734
1255.536
1253.168
1250.592
1247.799
1244.772
1241.725
1243.014
1245.045
1242.923
1247.686
1245.018
1242.74
1250.395
1247.682
1244.967
1242.467
1252.989
1250.4
1247.677
1244.9
1242.132
1255.415
1252.998
1250.413
1247.676
1244.835
1257.671
1255.425
1253.016
1250.438
1247.693
1244.771
1241.624
1259.766
1257.68
1255.445
1253.05
1250.488
1247.733
1244.748
1241.615
1261.716
1259.775
1257.7
1255.48
1253.107
1250.549
1247.762
1244.748
1241.641
1263.535
1261.724
1259.793
1257.732
1255.533
1253.166
1250.59
1247.795
1244.759
1241.666
1265.236
1263.542
1261.74
1259.822
1257.779
1255.585
1253.207
1250.633
1247.831
1244.774
1241.671
1243.017
1245.045
1242.923
1247.685
1245.016
1242.733
1250.393
1247.68
1244.962
1242.44
1252.987
1250.397
1247.672
1244.888
1242.053
1255.413
1252.994
1250.407
1247.665
1244.813
1257.668
1255.422
1253.01
1250.426
1247.67
1259.764
1257.677
1255.44
1253.04
1250.47
1247.722
1244.715
1241.397
1261.715
1259.773
1257.696
1255.473
1253.096
1250.542
1247.751
1244.713
1241.466
1263.534
1261.723
1259.791
1257.728
1255.528
1253.162
1250.586
1247.787
1244.732
1241.546
1265.236
1263.542
1261.739
1259.82
1257.777
1255.584
1253.205
1250.631
1247.827
1244.76
1241.611
1266.83
1265.242
1263.556
1261.765
1259.862
1257.824
1255.622
1253.249
1250.678
1247.87
1244.79
1241.647
1243.022
1245.046
1242.927
1247.685
1245.016
1242.733
1250.393
1247.679
1244.96
1242.425
1252.985
1250.395
1247.668
1244.879
1241.993
1255.411
1252.991
1250.401
1247.655
1244.787
1257.666
1255.419
1253.004
1250.414
1247.648
1259.762
1257.675
1255.435
1253.029
1250.442
1261.713
1259.77
1257.692
1255.464
1253.079
1250.534
1247.739
1244.665
1241.218
1263.533
1261.721
1259.787
1257.722
1255.518
1253.156
1250.58
1247.774
1244.69
1241.359
1265.235
1263.54
1261.737
1259.816
1257.772
1255.58
1253.202
1250.627
1247.818
1244.73
1241.487
1266.83
1265.242
1263.555
1261.763
1259.86
1257.823
1255.621
1253.248
1250.676
1247.866
1244.775
1241.586
1268.327
1266.836
1265.255
1263.579
1261.801
1259.903
1257.858
1255.662
1253.295
1250.727
1247.916
1244.82
1241.652
1243.028
1245.048
1242.934
1247.686
1245.018
1242.74
1250.393
1247.679
1244.96
1242.425
1252.984
1250.394
1247.666
1244.873
1241.961
1255.41
1252.989
1250.398
1247.648
1244.765
1257.665
1255.416
1252.999
1250.405
1247.63
1259.76
1257.672
1255.429
1253.018
1250.42
1261.711
1259.768
1257.687
1255.453
1253.051
1263.532
1261.719
1259.783
1257.714
1255.502
1253.15
1250.574
1247.757
1244.632
1241.095
1265.234
1263.539
1261.734
1259.811
1257.763
1255.575
1253.198
1250.622
1247.804
1244.685
1241.295
1266.829
1265.241
1263.553
1261.76
1259.855
1257.82
1255.618
1253.245
1250.672
1247.856
1244.746
1241.463
1268.326
1266.835
1265.254
1263.577
1261.799
1259.902
1257.857
1255.661
1253.294
1250.725
1247.912
1244.807
1241.592
1269.734
1268.332
1266.847
1265.275
1263.612
1261.838
1259.933
1257.894
1255.704
1253.343
1250.779
1247.968
1244.865
1241.684
1243.036
1245.05
1242.944
1247.687
1245.02
1242.753
1250.393
1247.68
1244.962
1242.44
1252.984
1250.394
1247.666
1244.873
1241.961
1255.409
1252.988
1250.396
1247.645
1244.753
1257.663
1255.414
1252.996
1250.398
1247.616
1259.759
1257.669
1255.425
1253.009
1250.403
1261.71
1259.765
1257.682
1255.443
1253.03
1263.53
1261.716
1259.779
1257.704
1255.476
1265.233
1263.537
1261.73
1259.803
1257.749
1255.57
1253.194
1250.614
1247.783
1244.62
1241.026
1266.828
1265.239
1263.551
1261.755
1259.848
1257.815
1255.615
1253.242
1250.667
1247.841
1244.7
1241.274
1268.326
1266.834
1265.252
1263.574
1261.795
1259.899
1257.855
1255.659
1253.292
1250.722
1247.903
1244.779
1241.472
1269.733
1268.331
1266.847
1265.274
1263.61
1261.837
1259.932
1257.893
1255.704
1253.343
1250.778
1247.965
1244.853
1241.626
1271.058
1269.738
1268.343
1266.866
1265.305
1263.645
1261.865
1259.966
1257.932
1255.749
1253.394
1250.835
1248.027
1244.922
1241.743
1243.044
1245.053
1242.954
1247.689
1245.024
1242.77
1250.395
1247.682
1244.967
1242.467
1252.985
1250.395
1247.668
1244.879
1241.993
1255.409
1252.988
1250.396
1247.645
1244.753
1257.663
1255.413
1252.994
1250.395
1247.609
1259.758
1257.668
1255.422
1253.003
1250.392
1261.708
1259.763
1257.678
1255.435
1253.015
1263.529
1261.714
1259.774
1257.695
1255.457
1265.231
1263.535
1261.726
1259.794
1257.725
1266.827
1265.237
1263.547
1261.748
1259.835
1257.81
1255.612
1253.238
1250.659
1247.819
1244.635
1241.011
1268.325
1266.833
1265.25
1263.57
1261.788
1259.895
1257.852
1255.657
1253.289
1250.717
1247.889
1244.736
1241.29
1269.733
1268.33
1266.845
1265.271
1263.606
1261.834
1259.93
1257.892
1255.703
1253.341
1250.776
1247.958
1244.828
1241.509
1271.057
1269.738
1268.342
1266.865
1265.304
1263.644
1261.865
1259.965
1257.932
1255.749
1253.394
1250.835
1248.025
1244.912
1241.684
1272.304
1271.062
1269.748
1268.36
1266.894
1265.336
1263.67
1261.895
1260
1257.973
1255.796
1253.447
1250.894
1248.09
1244.99
1242.732
1243.051
1245.056
1242.965
1247.692
1245.028
1242.789
1250.397
1247.685
1244.973
1242.502
1252.987
1250.397
1247.672
1244.888
1242.053
1255.41
1252.989
1250.398
1247.648
1244.765
1257.663
1255.413
1252.994
1250.395
1247.609
1259.757
1257.667
1255.42
1253
1250.386
1261.707
1259.761
1257.675
1255.43
1253.005
1263.527
1261.712
1259.771
1257.688
1255.443
1265.23
1263.532
1261.722
1259.786
1257.707
1266.826
1265.235
1263.543
1261.74
1259.813
1268.324
1266.831
1265.247
1263.564
1261.777
1259.89
1257.849
1255.655
1253.286
1250.709
1247.868
1244.676
1241.045
1269.732
1268.329
1266.843
1265.267
1263.6
1261.831
1259.928
1257.89
1255.701
1253.34
1250.772
1247.947
1244.792
1241.336
1271.057
1269.737
1268.34
1266.862
1265.301
1263.642
1261.863
1259.964
1257.931
1255.749
1253.394
1250.835
1248.021
1244.891
1241.567
1272.304
1271.062
1269.748
1268.359
1266.892
1265.335
1263.669
1261.894
1260
1257.973
1255.796
1253.448
1250.895
1248.089
1244.981
1242.652
1273.479
1272.309
1271.071
1269.764
1268.385
1266.921
1265.358
1263.696
1261.926
1260.037
1258.015
1255.844
1253.502
1250.955
1248.156
1245.893
1244.631
1243.058
1245.059
1242.976
1247.694
1245.032
1242.808
1250.4
1247.689
1244.979
1242.538
1252.989
1250.4
1247.677
1244.9
1242.132
1255.411
1252.991
1250.401
1247.655
1244.787
1257.663
1255.414
1252.996
1250.398
1247.616
1259.757
1257.667
1255.42
1253
1250.386
1261.707
1259.761
1257.673
1255.427
1253
1263.526
1261.711
1259.768
1257.683
1255.434
1265.229
1263.531
1261.719
1259.78
1257.695
1266.824
1265.233
1263.54
1261.733
1259.798
1268.322
1266.829
1265.243
1263.556
1261.757
1269.731
1268.328
1266.84
1265.262
1263.59
1261.827
1259.925
1257.888
1255.699
1253.336
1250.765
1247.929
1244.743
1241.113
1271.056
1269.736
1268.338
1266.859
1265.295
1263.638
1261.861
1259.962
1257.93
1255.748
1253.393
1250.833
1248.014
1244.864
1241.397
1272.304
1271.061
1269.746
1268.356
1266.889
1265.333
1263.667
1261.893
1259.999
1257.973
1255.797
1253.449
1250.897
1248.089
1244.964
1242.476
1273.479
1272.308
1271.071
1269.763
1268.384
1266.92
1265.357
1263.696
1261.926
1260.037
1258.015
1255.845
1253.504
1250.957
1248.157
1245.885
1244.514
1274.585
1273.483
1272.317
1271.086
1269.788
1268.411
1266.942
1265.382
1263.724
1261.959
1260.074
1258.058
1255.893
1253.557
1251.015
1248.946
1247.621
1246.542
1243.062
1245.061
1242.984
1247.697
1245.036
1242.825
1250.402
1247.692
1244.985
1242.569
1252.991
1250.404
1247.683
1244.911
1242.212
1255.413
1252.994
1250.407
1247.665
1244.813
1257.665
1255.416
1252.999
1250.405
1247.63
1259.758
1257.668
1255.422
1253.003
1250.392
1261.707
1259.761
1257.673
1255.427
1253
1263.526
1261.71
1259.767
1257.68
1255.43
1265.228
1263.529
1261.717
1259.775
1257.688
1266.823
1265.232
1263.537
1261.727
1259.787
1268.321
1266.828
1265.24
1263.55
1261.743
1269.73
1268.326
1266.837
1265.255
1263.572
1271.055
1269.734
1268.336
1266.854
1265.285
1263.635
1261.858
1259.96
1257.929
1255.746
1253.391
1250.829
1248.003
1244.83
1241.187
1272.303
1271.06
1269.744
1268.353
1266.884
1265.33
1263.665
1261.892
1259.998
1257.972
1255.797
1253.451
1250.899
1248.089
1244.944
1242.131
1273.478
1272.307
1271.069
1269.761
1268.381
1266.919
1265.356
1263.695
1261.925
1260.037
1258.016
1255.847
1253.507
1250.962
1248.161
1245.872
1244.234
1274.585
1273.482
1272.317
1271.085
1269.787
1268.41
1266.941
1265.382
1263.724
1261.959
1260.075
1258.059
1255.895
1253.56
1251.019
1248.954
1247.614
1246.395
1275.627
1274.589
1273.491
1272.331
1271.108
1269.812
1268.43
1266.964
1265.408
1263.754
1261.993
1260.113
1258.102
1255.942
1253.611
1251.702
1250.457
1249.35
1248.471
1243.064
1245.063
1242.991
1247.699
1245.039
1242.839
1250.405
1247.695
1244.991
1242.598
1252.994
1250.408
1247.689
1244.92
1242.246
1255.415
1252.998
1250.413
1247.676
1244.835
1257.666
1255.419
1253.004
1250.414
1247.648
1259.759
1257.669
1255.425
1253.009
1250.403
1261.707
1259.761
1257.675
1255.43
1253.005
1263.526
1261.71
1259.767
1257.68
1255.43
1265.227
1263.529
1261.715
1259.773
1257.684
1266.823
1265.231
1263.535
1261.723
1259.78
1268.32
1266.826
1265.237
1263.544
1261.734
1269.729
1268.324
1266.834
1265.249
1263.559
1271.054
1269.733
1268.333
1266.847
1265.269
1272.302
1271.058
1269.742
1268.348
1266.875
1265.326
1263.663
1261.89
1259.997
1257.971
1255.797
1253.451
1250.899
1248.088
1244.927
1241.161
1273.477
1272.306
1271.068
1269.758
1268.376
1266.916
1265.354
1263.693
1261.924
1260.036
1258.017
1255.849
1253.511
1250.969
1248.168
1245.871
1243.63
1274.584
1273.482
1272.315
1271.083
1269.784
1268.408
1266.94
1265.381
1263.724
1261.959
1260.075
1258.061
1255.899
1253.566
1251.027
1248.975
1247.606
1246.038
1275.627
1274.589
1273.49
1272.33
1271.107
1269.811
1268.429
1266.964
1265.408
1263.754
1261.993
1260.114
1258.104
1255.945
1253.615
1251.713
1250.475
1249.343
1248.303
1276.607
1275.631
1274.597
1273.504
1272.352
1271.13
1269.829
1268.45
1266.988
1265.435
1263.785
1262.028
1260.153
1258.146
1255.99
1254.209
1253.014
1251.964
1251.079
1250.423
1245.064
1242.994
1247.7
1245.041
1242.849
1250.407
1247.698
1244.995
1242.623
1252.996
1250.411
1247.694
1244.929
1242.295
1255.418
1253.001
1250.419
1247.687
1244.844
1241.884
1257.668
1255.422
1253.01
1250.426
1247.67
1259.76
1257.672
1255.429
1253.018
1250.42
1261.708
1259.763
1257.678
1255.435
1253.015
1263.526
1261.711
1259.768
1257.683
1255.434
1265.227
1263.529
1261.715
1259.773
1257.684
1266.822
1265.23
1263.534
1261.721
1259.777
1268.32
1266.825
1265.235
1263.541
1261.727
1269.728
1268.323
1266.831
1265.244
1263.55
1271.053
1269.731
1268.33
1266.842
1265.257
1272.301
1271.057
1269.739
1268.343
1266.86
1234.254
1273.476
1272.305
1271.065
1269.754
1268.368
1266.913
1265.352
1263.692
1261.923
1260.035
1258.017
1255.85
1253.515
1250.978
1248.183
1245.996
1242.05
1274.584
1273.481
1272.314
1271.08
1269.779
1268.406
1266.938
1265.38
1263.723
1261.958
1260.076
1258.063
1255.904
1253.575
1251.042
1249.04
1247.624
1245.277
1275.626
1274.588
1273.489
1272.328
1271.105
1269.809
1268.428
1266.963
1265.407
1263.754
1261.994
1260.116
1258.107
1255.952
1253.624
1251.743
1250.527
1249.336
1247.9
1276.607
1275.63
1274.596
1273.503
1272.351
1271.13
1269.829
1268.45
1266.987
1265.435
1263.785
1262.029
1260.154
1258.149
1255.994
1254.221
1253.038
1251.991
1251.072
1250.244
1277.529
1276.611
1275.638
1274.609
1273.524
1272.373
1271.147
1269.848
1268.472
1267.013
1265.463
1263.817
1262.063
1260.192
1258.188
1256.515
1255.353
1254.322
1253.466
1252.809
1251.467
1247.701
1245.042
1242.854
1250.408
1247.7
1244.999
1242.641
1252.998
1250.414
1247.699
1244.935
1242.34
1255.42
1253.004
1250.425
1247.696
1244.854
1241.998
1257.671
1255.425
1253.016
1250.438
1247.693
1244.771
1241.624
1259.762
1257.675
1255.435
1253.029
1250.442
1261.71
1259.765
1257.682
1255.443
1253.03
1263.527
1261.712
1259.771
1257.688
1255.443
1265.228
1263.529
1261.717
1259.775
1257.688
1266.822
1265.23
1263.534
1261.721
1259.777
1268.319
1266.824
1265.234
1263.539
1261.724
1269.727
1268.322
1266.829
1265.241
1263.544
1271.052
1269.73
1268.328
1266.837
1265.249
1272.3
1271.055
1269.737
1268.337
1266.85
1225.908
1273.476
1272.304
1271.063
1269.748
1268.354
1247.648
1236.707
1274.583
1273.479
1272.312
1271.076
1269.772
1268.403
1266.937
1265.378
1263.722
1261.958
1260.076
1258.065
1255.908
1253.585
1251.064
1249.346
1247.793
1243.526
1275.626
1274.587
1273.488
1272.326
1271.1
1269.807
1268.426
1266.962
1265.407
1263.754
1261.994
1260.118
1258.112
1255.96
1253.639
1251.82
1250.67
1249.352
1247.074
1276.607
1275.63
1274.595
1273.502
1272.348
1271.128
1269.828
1268.449
1266.987
1265.435
1263.786
1262.03
1260.157
1258.154
1256.003
1254.251
1253.103
1252.064
1251.062
1249.823
1277.529
1276.61
1275.637
1274.608
1273.523
1272.372
1271.146
1269.848
1268.472
1267.013
1265.464
1263.817
1262.065
1260.194
1258.192
1256.526
1255.377
1254.357
1253.5
1252.801
1251.288
1278.395
1277.532
1276.618
1275.65
1274.628
1273.543
1272.388
1271.165
1269.868
1268.495
1267.038
1265.492
1263.849
1262.098
1260.229
1258.652
1257.518
1256.492
1255.624
1254.963
1253.723
1251.579
1250.409
1247.701
1245
1242.65
1253
1250.416
1247.702
1244.94
1242.374
1255.422
1253.007
1250.429
1247.703
1244.865
1242.087
1257.673
1255.428
1253.022
1250.448
1247.708
1244.791
1241.797
1259.764
1257.677
1255.44
1253.04
1250.47
1247.722
1244.715
1241.397
1261.711
1259.768
1257.687
1255.453
1253.051
1263.529
1261.714
1259.774
1257.695
1255.457
1265.229
1263.531
1261.719
1259.78
1257.695
1266.823
1265.231
1263.535
1261.723
1259.78
1268.319
1266.824
1265.234
1263.539
1261.724
1269.727
1268.321
1266.829
1265.239
1263.542
1271.051
1269.729
1268.326
1266.834
1265.244
1272.299
1271.054
1269.734
1268.333
1266.842
1219.266
1273.475
1272.302
1271.06
1269.744
1268.344
1246.938
1230.152
1274.582
1273.478
1272.309
1271.071
1269.759
1252.246
1248.659
1239.332
1275.625
1274.586
1273.486
1272.322
1271.093
1269.804
1268.425
1266.96
1265.406
1263.753
1261.994
1260.119
1258.116
1255.97
1253.662
1252.149
1251.153
1249.479
1245.381
1276.606
1275.629
1274.593
1273.499
1272.344
1271.126
1269.826
1268.448
1266.986
1265.435
1263.786
1262.032
1260.162
1258.163
1256.018
1254.327
1253.27
1252.245
1251.063
1249.001
1277.529
1276.61
1275.636
1274.607
1273.52
1272.371
1271.145
1269.847
1268.471
1267.012
1265.464
1263.819
1262.067
1260.199
1258.2
1256.554
1255.442
1254.447
1253.583
1252.786
1250.87
1278.395
1277.532
1276.617
1275.649
1274.627
1273.543
1272.388
1271.164
1269.868
1268.495
1267.039
1265.493
1263.85
1262.1
1260.233
1258.662
1257.541
1256.527
1255.666
1255
1253.716
1251.401
1279.206
1278.398
1277.539
1276.629
1275.667
1274.646
1273.558
1272.405
1271.183
1269.89
1268.519
1267.065
1265.521
1263.88
1262.132
1260.642
1259.538
1258.517
1257.625
1256.919
1255.752
1253.822
1251.692
1253
1250.417
1247.703
1244.943
1242.392
1255.423
1253.009
1250.432
1247.708
1244.873
1242.148
1257.674
1255.431
1253.026
1250.456
1247.718
1244.809
1241.92
1259.766
1257.68
1255.445
1253.05
1250.488
1247.733
1244.748
1241.615
1261.713
1259.77
1257.692
1255.464
1253.079
1250.534
1247.739
1244.665
1241.218
1263.53
1261.716
1259.779
1257.704
1255.476
1265.23
1263.532
1261.722
1259.786
1257.707
1266.823
1265.232
1263.537
1261.727
1259.787
1268.32
1266.825
1265.235
1263.541
1261.727
1269.727
1268.321
1266.829
1265.239
1263.542
1271.051
1269.729
1268.325
1266.833
1265.242
1272.299
1271.053
1269.733
1268.331
1266.837
1214.789
1273.474
1272.301
1271.058
1269.74
1268.338
1245.606
1224.651
1274.581
1273.477
1272.307
1271.067
1269.75
1253.188
1248.18
1234.197
1275.624
1274.585
1273.483
1272.317
1271.081
1255.136
1253.033
1249.895
1242.088
1276.605
1275.628
1274.592
1273.495
1272.338
1271.123
1269.825
1268.447
1266.985
1265.434
1263.786
1262.033
1260.166
1258.172
1256.038
1254.638
1253.798
1252.733
1251.12
1247.481
1277.528
1276.609
1275.635
1274.604
1273.517
1272.368
1271.144
1269.846
1268.471
1267.012
1265.464
1263.82
1262.071
1260.207
1258.214
1256.625
1255.604
1254.66
1253.769
1252.765
1250.074
1278.394
1277.532
1276.616
1275.647
1274.625
1273.541
1272.387
1271.164
1269.868
1268.495
1267.039
1265.494
1263.853
1262.105
1260.24
1258.688
1257.602
1256.617
1255.77
1255.085
1253.698
1250.984
1279.206
1278.398
1277.539
1276.629
1275.666
1274.646
1273.557
1272.404
1271.183
1269.89
1268.519
1267.065
1265.523
1263.882
1262.135
1260.651
1259.559
1258.55
1257.668
1256.965
1255.788
1253.814
1251.514
1279.965
1279.209
1278.404
1277.55
1276.646
1275.685
1274.66
1273.574
1272.422
1271.203
1269.912
1268.543
1267.091
1265.55
1263.911
1262.502
1261.43
1260.419
1259.51
1258.752
1257.599
1255.836
1253.921
1251.806
1255.424
1253.01
1250.434
1247.71
1244.877
1242.179
1257.675
1255.432
1253.029
1250.461
1247.724
1244.823
1242.001
1259.767
1257.683
1255.449
1253.058
1250.498
1247.742
1244.775
1241.768
1261.715
1259.773
1257.696
1255.473
1253.096
1250.542
1247.751
1244.713
1241.466
1263.532
1261.719
1259.783
1257.714
1255.502
1253.15
1250.574
1247.757
1244.632
1241.095
1265.231
1263.535
1261.726
1259.794
1257.725
1266.824
1265.233
1263.54
1261.733
1259.798
1268.32
1266.826
1265.237
1263.544
1261.734
1269.727
1268.322
1266.829
1265.241
1263.544
1271.051
1269.729
1268.325
1266.833
1265.242
1272.298
1271.053
1269.732
1268.329
1266.835
1212.546
1273.473
1272.3
1271.057
1269.737
1268.333
1244.388
1220.848
1274.58
1273.476
1272.305
1271.063
1269.744
1253.391
1247.176
1229.725
1275.623
1274.583
1273.481
1272.313
1271.073
1256.46
1253.891
1249.525
1238.11
1276.605
1275.626
1274.589
1273.491
1272.327
1257.417
1255.795
1253.985
1251.266
1244.938
1277.527
1276.608
1275.633
1274.601
1273.51
1272.366
1271.142
1269.845
1268.47
1267.012
1265.464
1263.822
1262.075
1260.215
1258.233
1256.909
1256.108
1255.21
1254.191
1252.749
1248.672
1278.394
1277.531
1276.615
1275.645
1274.621
1273.539
1272.385
1271.163
1269.867
1268.495
1267.039
1265.496
1263.856
1262.112
1260.252
1258.753
1257.753
1256.826
1255.996
1255.256
1253.665
1250.191
1279.205
1278.397
1277.538
1276.627
1275.664
1274.644
1273.556
1272.404
1271.183
1269.89
1268.519
1267.067
1265.525
1263.887
1262.142
1260.675
1259.616
1258.635
1257.773
1257.074
1255.872
1253.796
1251.098
1279.965
1279.209
1278.404
1277.549
1276.645
1275.685
1274.66
1273.573
1272.422
1271.203
1269.912
1268.544
1267.093
1265.552
1263.914
1262.511
1261.45
1260.451
1259.551
1258.799
1257.646
1255.873
1253.913
1251.628
1280.673
1279.968
1279.215
1278.415
1277.566
1276.663
1275.698
1274.675
1273.59
1272.441
1271.224
1269.934
1268.568
1267.118
1265.578
1264.244
1263.207
1262.214
1261.296
1260.497
1259.343
1257.672
1255.921
1254.02
1251.919
1257.676
1255.433
1253.031
1250.463
1247.727
1244.83
1242.04
1259.768
1257.684
1255.452
1253.062
1250.505
1247.749
1244.793
1241.866
1261.716
1259.775
1257.7
1255.48
1253.107
1250.549
1247.762
1244.748
1241.641
1263.533
1261.721
1259.787
1257.722
1255.518
1253.156
1250.58
1247.774
1244.69
1241.359
1265.233
1263.537
1261.73
1259.803
1257.749
1255.57
1253.194
1250.614
1247.783
1244.62
1241.026
1266.826
1265.235
1263.543
1261.74
1259.813
1268.321
1266.828
1265.24
1263.55
1261.743
1269.728
1268.323
1266.831
1265.244
1263.55
1271.051
1269.729
1268.326
1266.834
1265.244
1272.298
1271.053
1269.732
1268.329
1266.835
1212.546
1273.473
1272.3
1271.056
1269.736
1268.331
1243.685
1218.923
1274.58
1273.475
1272.304
1271.061
1269.74
1253.325
1246.224
1226.564
1275.623
1274.582
1273.479
1272.31
1271.067
1257.093
1254.155
1248.762
1234.556
1276.604
1275.625
1274.587
1273.487
1272.319
1258.755
1256.957
1254.694
1250.948
1241.932
1277.527
1276.607
1275.631
1274.597
1273.5
1259.423
1257.986
1256.587
1255.024
1252.718
1246.476
1278.393
1277.53
1276.613
1275.642
1274.615
1273.537
1272.384
1271.162
1269.866
1268.494
1267.039
1265.497
1263.859
1262.12
1260.27
1259.009
1258.214
1257.355
1256.487
1255.582
1253.612
1248.801
1279.205
1278.396
1277.536
1276.625
1275.661
1274.642
1273.555
1272.403
1271.182
1269.889
1268.52
1267.068
1265.528
1263.893
1262.153
1260.734
1259.754
1258.83
1257.997
1257.289
1256.028
1253.762
1250.308
1279.964
1279.208
1278.403
1277.548
1276.643
1275.683
1274.659
1273.573
1272.422
1271.203
1269.912
1268.545
1267.095
1265.556
1263.92
1262.533
1261.502
1260.53
1259.65
1258.909
1257.754
1255.957
1253.894
1251.212
1280.673
1279.967
1279.215
1278.414
1277.565
1276.662
1275.698
1274.675
1273.59
1272.441
1271.224
1269.935
1268.569
1267.12
1265.581
1264.253
1263.226
1262.243
1261.334
1260.542
1259.391
1257.719
1255.958
1254.012
1251.742
1281.331
1280.676
1279.974
1279.226
1278.43
1277.583
1276.676
1275.712
1274.691
1273.608
1272.46
1271.245
1269.957
1268.592
1267.144
1265.881
1264.881
1263.91
1262.993
1262.166
1261.014
1259.407
1257.746
1256.006
1254.118
1252.026
1259.769
1257.685
1255.454
1253.065
1250.508
1247.752
1244.802
1241.914
1261.717
1259.776
1257.702
1255.485
1253.113
1250.553
1247.769
1244.771
1241.753
1263.534
1261.723
1259.791
1257.728
1255.528
1253.162
1250.586
1247.787
1244.732
1241.546
1265.234
1263.539
1261.734
1259.811
1257.763
1255.575
1253.198
1250.622
1247.804
1244.685
1241.295
1266.827
1265.237
1263.547
1261.748
1259.835
1257.81
1255.612
1253.238
1250.659
1247.819
1244.635
1241.011
1268.322
1266.829
1265.243
1263.556
1261.757
1269.729
1268.324
1266.834
1265.249
1263.559
1271.052
1269.73
1268.328
1266.837
1265.249
1272.299
1271.053
1269.733
1268.331
1266.837
1214.789
1273.473
1272.3
1271.056
1269.736
1268.331
1243.685
1218.923
1274.58
1273.475
1272.303
1271.06
1269.738
1253.236
1245.667
1224.947
1275.622
1274.582
1273.478
1272.307
1271.063
1257.383
1254.164
1248.025
1231.997
1276.603
1275.624
1274.586
1273.484
1272.313
1259.473
1257.568
1254.964
1250.363
1239.201
1277.526
1276.606
1275.629
1274.593
1273.492
1260.671
1259.153
1257.543
1255.569
1252.426
1243.919
1278.392
1277.529
1276.611
1275.638
1274.605
1261.269
1259.922
1258.668
1257.446
1256.11
1253.511
1246.642
1279.204
1278.395
1277.535
1276.622
1275.656
1274.64
1273.554
1272.402
1271.181
1269.889
1268.52
1267.069
1265.531
1263.9
1262.169
1260.966
1260.173
1259.318
1258.476
1257.689
1256.3
1253.705
1248.932
1279.964
1279.207
1278.402
1277.546
1276.64
1275.682
1274.658
1273.572
1272.421
1271.203
1269.913
1268.546
1267.098
1265.562
1263.93
1262.587
1261.629
1260.709
1259.86
1259.125
1257.956
1256.111
1253.859
1250.427
1280.672
1279.967
1279.214
1278.413
1277.564
1276.661
1275.697
1274.674
1273.59
1272.441
1271.224
1269.936
1268.571
1267.124
1265.587
1264.273
1263.275
1262.316
1261.427
1260.647
1259.501
1257.827
1256.041
1253.993
1251.327
1281.331
1280.675
1279.973
1279.225
1278.43
1277.582
1276.675
1275.712
1274.691
1273.608
1272.461
1271.246
1269.958
1268.594
1267.146
1265.889
1264.899
1263.937
1263.029
1262.209
1261.06
1259.455
1257.793
1256.043
1254.111
1251.849
1281.942
1281.334
1280.682
1279.984
1279.24
1278.446
1277.595
1276.689
1275.727
1274.707
1273.626
1272.48
1271.266
1269.98
1268.616
1267.421
1266.46
1265.515
1264.608
1263.767
1262.623
1261.07
1259.47
1257.819
1256.091
1254.211
1252.109
1261.717
1259.777
1257.704
1255.487
1253.116
1250.556
1247.773
1244.782
1241.807
1263.535
1261.724
1259.793
1257.732
1255.533
1253.166
1250.59
1247.795
1244.759
1241.666
1265.235
1263.54
1261.737
1259.816
1257.772
1255.58
1253.202
1250.627
1247.818
1244.73
1241.487
1266.828
1265.239
1263.551
1261.755
1259.848
1257.815
1255.615
1253.242
1250.667
1247.841
1244.7
1241.274
1268.324
1266.831
1265.247
1263.564
1261.777
1259.89
1257.849
1255.655
1253.286
1250.709
1247.868
1244.676
1241.045
1269.73
1268.326
1266.837
1265.255
1263.572
1271.053
1269.731
1268.33
1266.842
1265.257
1272.299
1271.054
1269.734
1268.333
1266.842
1219.266
1273.473
1272.3
1271.057
1269.737
1268.333
1244.388
1220.848
1274.58
1273.475
1272.303
1271.06
1269.738
1253.236
1245.667
1224.947
1275.622
1274.581
1273.478
1272.306
1271.061
1257.492
1254.121
1247.589
1230.673
1276.603
1275.624
1274.585
1273.482
1272.31
1259.85
1257.867
1255.017
1249.8
1237.2
1277.525
1276.605
1275.628
1274.59
1273.487
1261.367
1259.826
1258.095
1255.814
1251.977
1241.583
1278.391
1277.528
1276.61
1275.634
1274.598
1262.408
1261.011
1259.63
1258.195
1256.495
1253.225
1244.133
1279.203
1278.394
1277.533
1276.618
1275.646
1263.003
1261.713
1260.52
1259.405
1258.338
1256.697
1253.597
1246.808
1279.963
1279.206
1278.4
1277.543
1276.635
1275.68
1274.656
1273.571
1272.421
1271.202
1269.913
1268.547
1267.101
1265.568
1263.945
1262.798
1262.009
1261.154
1260.307
1259.524
1258.303
1256.377
1253.799
1249.064
1280.672
1279.966
1279.213
1278.411
1277.561
1276.66
1275.696
1274.673
1273.589
1272.441
1271.225
1269.937
1268.574
1267.129
1265.596
1264.323
1263.391
1262.482
1261.622
1260.852
1259.706
1258.027
1256.194
1253.956
1250.546
1281.331
1280.675
1279.973
1279.224
1278.428
1277.581
1276.674
1275.712
1274.69
1273.608
1272.461
1271.247
1269.96
1268.597
1267.151
1265.908
1264.944
1264.005
1263.116
1262.308
1261.165
1259.565
1257.9
1256.126
1254.091
1251.436
1281.941
1281.334
1280.681
1279.983
1279.24
1278.446
1277.594
1276.689
1275.727
1274.707
1273.626
1272.481
1271.267
1269.982
1268.618
1267.428
1266.476
1265.541
1264.641
1263.807
1262.666
1261.116
1259.518
1257.866
1256.128
1254.203
1251.932
1282.505
1281.944
1281.34
1280.691
1279.998
1279.256
1278.458
1277.608
1276.704
1275.743
1274.725
1273.645
1272.5
1271.288
1270.002
1268.871
1267.95
1267.035
1266.144
1265.3
1264.172
1262.672
1261.125
1259.534
1257.892
1256.171
1254.282
1252.176
1263.536
1261.725
1259.794
1257.734
1255.536
1253.168
1250.592
1247.799
1244.772
1241.725
1265.236
1263.542
1261.739
1259.82
1257.777
1255.584
1253.205
1250.631
1247.827
1244.76
1241.611
1266.829
1265.241
1263.553
1261.76
1259.855
1257.82
1255.618
1253.245
1250.672
1247.856
1244.746
1241.463
1268.325
1266.833
1265.25
1263.57
1261.788
1259.895
1257.852
1255.657
1253.289
1250.717
1247.889
1244.736
1241.29
1269.731
1268.328
1266.84
1265.262
1263.59
1261.827
1259.925
1257.888
1255.699
1253.336
1250.765
1247.929
1244.743
1241.113
1271.054
1269.733
1268.333
1266.847
1265.269
1272.3
1271.055
1269.737
1268.337
1266.85
1225.908
1273.474
1272.301
1271.058
1269.74
1268.338
1245.606
1224.651
1274.58
1273.475
1272.304
1271.061
1269.74
1253.325
1246.224
1226.564
1275.622
1274.581
1273.478
1272.306
1271.061
1257.492
1254.121
1247.589
1230.673
1276.602
1275.623
1274.584
1273.481
1272.308
1260.013
1257.986
1255.006
1249.466
1236.155
1277.525
1276.604
1275.626
1274.588
1273.484
1261.747
1260.193
1258.381
1255.887
1251.557
1239.857
1278.391
1277.527
1276.608
1275.632
1274.593
1263.052
1261.659
1260.229
1258.665
1256.694
1252.835
1241.838
1279.203
1278.393
1277.531
1276.615
1275.639
1264.037
1262.707
1261.42
1260.165
1258.892
1257.001
1253.312
1244.346
1279.962
1279.206
1278.398
1277.539
1276.626
1264.643
1263.401
1262.244
1261.165
1260.168
1258.817
1256.76
1253.683
1246.975
1280.671
1279.965
1279.211
1278.408
1277.555
1276.658
1275.695
1274.672
1273.588
1272.44
1271.225
1269.938
1268.576
1267.135
1265.609
1264.516
1263.738
1262.888
1262.032
1261.229
1260.057
1258.369
1256.454
1253.892
1249.197
1281.33
1280.674
1279.971
1279.221
1278.425
1277.579
1276.673
1275.711
1274.69
1273.608
1272.461
1271.248
1269.963
1268.602
1267.16
1265.954
1265.052
1264.158
1263.296
1262.499
1261.361
1259.768
1258.099
1256.277
1254.054
1250.659
1281.941
1281.333
1280.68
1279.982
1279.238
1278.445
1277.593
1276.688
1275.727
1274.707
1273.627
1272.482
1271.269
1269.985
1268.623
1267.446
1266.518
1265.604
1264.722
1263.899
1262.765
1261.221
1259.628
1257.973
1256.21
1254.184
1251.521
1282.505
1281.944
1281.34
1280.691
1279.998
1279.255