/*--------------------------------*- C++ -*----------------------------------*\
| =========                 |                                                 |
| \\      /  F ield         | OpenFOAM: The Open Source CFD Toolbox           |
|  \\    /   O peration     | Version:  2306                                  |
|   \\  /    A nd           | Website:  www.openfoam.com                      |
|    \\/     M anipulation  |                                                 |
\*---------------------------------------------------------------------------*/
FoamFile
{
    version     2.0;
    format      ascii;
    arch        "LSB;label=32;scalar=64";
    class       volScalarField;
    location    "0.3/fuel";
    object      diffSp.H2;
}
// * * * * * * * * * * * * * * * * * * * * * * * * * * * * * * * * * * * * * //

dimensions      [0 2 -1 0 0 0 0];

internalField   nonuniform List<scalar> 
16000
(
0.0001008281
0.0001008168
0.0001010883
0.0001008419
0.0001007883
0.0001010914
0.0001008308
0.0001013185
0.0001010992
0.0001008712
0.0001007352
0.0001010962
0.0001008029
0.000101325
0.0001011023
0.0001008606
0.0001015222
0.000101327
0.0001011229
0.0001009056
0.0001006357
0.0001011033
0.0001007506
0.000101338
0.0001011073
0.0001008337
0.0001015294
0.0001013336
0.0001011263
0.0001008955
0.0001017093
0.000101529
0.0001013461
0.0001011507
0.0001009751
0.0001004992
0.0001011043
0.0001006526
0.0001013598
0.0001011146
0.000100783
0.0001015438
0.0001013466
0.0001011316
0.0001008697
0.0001017162
0.0001015361
0.0001013528
0.0001011544
0.0001009661
0.0001018852
0.0001017147
0.0001015447
0.0001013687
0.0001012075
0.0001514873
0.0001003188
0.0001011078
0.0001005181
0.0001013862
0.0001011158
0.0001006873
0.0001015686
0.0001013684
0.0001011395
0.0001008209
0.0001017304
0.0001015506
0.000101366
0.0001011602
0.0001009425
0.0001018917
0.0001017216
0.0001015519
0.0001013756
0.0001012117
0.0001514742
0.0001020526
0.0001018896
0.0001017278
0.0001015634
0.0001014151
0.0001518312
0.000151499
0.0001001542
0.0001010827
0.00010034
0.0001014247
0.0001011193
0.0001005559
0.0001016012
0.0001013947
0.0001011414
0.0001007278
0.0001017549
0.0001015753
0.0001013881
0.0001011689
0.0001008971
0.0001019053
0.0001017359
0.0001015665
0.000101389
0.0001012187
0.0001514396
0.0001020587
0.0001018961
0.0001017348
0.0001015707
0.0001014223
0.0001518377
0.0001514861
0.0001022127
0.0001020561
0.0001019007
0.0001017436
0.0001016022
0.0001521389
0.0001518406
0.0001515149
0.0001000296
0.0001010532
0.0001001774
0.0001014434
0.0001010944
0.0001003807
0.0001016479
0.0001014329
0.0001011455
0.0001005997
0.0001017881
0.0001016077
0.0001014146
0.0001011715
0.0001008087
0.0001019286
0.0001017602
0.0001015913
0.0001014114
0.0001012289
0.0001513731
0.0001020715
0.0001019097
0.0001017491
0.0001015855
0.0001014364
0.0001518483
0.000151452
0.0001022185
0.0001020623
0.0001019073
0.0001017506
0.0001016097
0.0001521497
0.0001518471
0.0001515023
0.0001023662
0.0001022156
0.0001020657
0.0001019142
0.0001017766
0.0001524166
0.0001521464
0.0001518534
0.0001515292
9.996385e-05
0.0001010258
0.0001000542
0.0001014546
0.0001010653
0.0001002205
0.0001016793
0.0001014512
0.0001011211
0.0001004275
0.0001018352
0.000101654
0.0001014527
0.0001011763
0.0001006862
0.0001019607
0.0001017932
0.0001016237
0.0001014382
0.0001012334
0.0001512428
0.0001020935
0.0001019329
0.0001017736
0.0001016105
0.0001014597
0.000151864
0.0001513865
0.0001022306
0.000102075
0.0001019209
0.000101765
0.0001016249
0.0001521709
0.0001518578
0.0001514689
0.0001023717
0.0001022213
0.0001020718
0.0001019208
0.0001017838
0.0001524279
0.0001521572
0.00015186
0.0001515169
0.0001025135
0.0001023686
0.0001022238
0.0001020773
0.0001019427
0.000152676
0.0001524227
0.0001521567
0.0001518649
0.0001515456
9.996385e-05
0.0001010102
9.998923e-05
0.0001014584
0.0001010382
0.0001000989
0.0001017029
0.0001014623
0.0001010925
0.0001002697
0.0001018699
0.000101685
0.000101471
0.0001011525
0.0001005186
0.0001020061
0.0001018399
0.0001016698
0.0001014765
0.0001012402
0.0001510618
0.0001021241
0.0001019647
0.0001018064
0.0001016429
0.0001014875
0.000151871
0.0001512578
0.0001022514
0.000102097
0.0001019441
0.0001017896
0.0001016505
0.0001522059
0.0001518735
0.0001514046
0.0001023832
0.0001022334
0.0001020846
0.0001019345
0.0001017985
0.0001524507
0.0001521784
0.0001518708
0.0001514841
0.0001025187
0.000102374
0.0001022296
0.0001020835
0.0001019494
0.0001526868
0.0001524339
0.0001521675
0.0001518715
0.0001515336
0.0001026549
0.0001025154
0.0001023758
0.000102234
0.0001021023
0.0001529235
0.000152681
0.0001524311
0.0001521659
0.0001518781
0.0003691152
0.0001000296
0.0001010102
9.998923e-05
0.0001014596
0.0001010228
0.0001000347
0.0001017168
0.0001014662
0.0001010659
0.0001001498
0.0001018969
0.0001017084
0.0001014821
0.0001011245
0.0001003642
0.0001020408
0.0001018741
0.0001017006
0.0001014947
0.0001012178
0.0001508135
0.0001021673
0.0001020097
0.0001018529
0.0001016889
0.0001015266
0.0001518813
0.0001510787
0.0001022806
0.0001021274
0.0001019759
0.0001018224
0.0001016835
0.0001522474
0.0001518804
0.0001512777
0.0001024029
0.0001022542
0.0001021066
0.0001019577
0.0001018234
0.000152489
0.0001522132
0.0001518866
0.000151421
0.0001025297
0.0001023855
0.0001022417
0.0001020963
0.0001019633
0.0001527089
0.0001524567
0.0001521887
0.0001518824
0.0001515016
0.0001026599
0.0001025206
0.0001023812
0.0001022398
0.0001021085
0.0001529336
0.0001526917
0.0001524423
0.0001521767
0.0001518847
0.000369089
0.0001027906
0.0001026565
0.0001025218
0.0001023847
0.000102256
0.0001531615
0.0001529275
0.0001526879
0.0001524386
0.0001521765
0.0003698978
0.0003692304
0.0001001542
0.0001010258
0.0001000542
0.0001014596
0.0001010228
0.0001000347
0.0001017234
0.0001014674
0.0001010507
0.0001000864
0.0001019138
0.0001017221
0.000101486
0.0001010984
0.0001002464
0.0001020683
0.0001019009
0.0001017238
0.0001015059
0.0001011908
0.0001505847
0.0001022011
0.0001020441
0.0001018868
0.0001017195
0.0001015454
0.000151848
0.0001508329
0.0001023215
0.0001021701
0.0001020206
0.0001018687
0.0001017299
0.0001523056
0.0001518903
0.0001511008
0.0001024308
0.0001022831
0.0001021368
0.0001019894
0.0001018566
0.0001525382
0.0001522541
0.0001518936
0.0001512958
0.0001025485
0.0001024051
0.0001022624
0.0001021183
0.0001019869
0.0001527462
0.0001524947
0.0001522233
0.0001518984
0.0001514398
0.0001026704
0.0001025315
0.0001023927
0.0001022519
0.0001021216
0.0001529544
0.0001527137
0.000152465
0.0001521978
0.0001518958
0.0003690182
0.0001027953
0.0001026614
0.0001025269
0.0001023902
0.0001022619
0.0001531709
0.0001529375
0.0001526986
0.0001524498
0.0001521873
0.0003699143
0.0003692103
0.0001029206
0.0001027918
0.000102662
0.0001025297
0.0001024043
0.000153391
0.0001531647
0.0001529332
0.000152694
0.0001524472
0.0003706031
0.000369983
0.0003693927
0.0001003188
0.0001010532
0.0001001774
0.0001014584
0.0001010382
0.0001000989
0.0001017234
0.0001014674
0.0001010507
0.0001000864
0.0001019221
0.0001017286
0.0001014873
0.0001010835
0.000100184
0.0001020858
0.0001019176
0.0001017374
0.0001015099
0.0001011654
0.0001504099
0.0001022281
0.0001020713
0.0001019134
0.0001017426
0.0001015569
0.000151808
0.0001506063
0.0001023543
0.0001022037
0.0001020547
0.0001019024
0.0001017606
0.0001523333
0.000151857
0.0001508575
0.0001024698
0.0001023238
0.0001021794
0.0001020339
0.0001019031
0.0001526072
0.0001523116
0.0001519033
0.000151121
0.0001025753
0.0001024328
0.0001022913
0.0001021485
0.0001020188
0.0001527956
0.0001525433
0.0001522639
0.0001519053
0.0001513164
0.0001026884
0.0001025503
0.0001024123
0.0001022726
0.0001021437
0.0001529896
0.0001527507
0.0001525028
0.0001522323
0.0001519119
0.0003688802
0.0001028054
0.0001026718
0.0001025378
0.0001024016
0.0001022742
0.0001531903
0.0001529582
0.0001527205
0.0001524723
0.0001522084
0.000369942
0.0003691537
0.0001029252
0.0001027965
0.000102667
0.0001025348
0.0001024099
0.0001533998
0.0001531741
0.0001529433
0.0001527047
0.0001524584
0.000370629
0.0003699997
0.0003693816
0.0001030452
0.0001029216
0.0001027967
0.0001026691
0.0001025473
0.0001536125
0.0001533936
0.0001531695
0.0001529383
0.0001527011
0.0003712456
0.0003706679
0.0003701025
0.0003695402
0.0001004992
0.0001010827
0.00010034
0.0001014546
0.0001010653
0.0001002205
0.0001017168
0.0001014662
0.0001010659
0.0001001498
0.0001019221
0.0001017286
0.0001014873
0.0001010835
0.000100184
0.0001020945
0.0001019259
0.000101744
0.0001015111
0.0001011508
0.0001503174
0.0001022454
0.0001020887
0.00010193
0.0001017561
0.0001015611
0.0001517703
0.0001504333
0.0001023804
0.0001022304
0.0001020817
0.0001019288
0.0001017838
0.0001523504
0.0001518172
0.0001506333
0.0001025015
0.0001023562
0.0001022126
0.0001020678
0.0001019368
0.0001526527
0.0001523387
0.00015187
0.0001508799
0.0001026126
0.0001024716
0.0001023317
0.0001021908
0.0001020634
0.0001528648
0.0001526115
0.0001523208
0.0001519148
0.0001511439
0.0001027142
0.0001025769
0.0001024399
0.0001023014
0.0001021741
0.0001530371
0.0001527996
0.000152551
0.0001522725
0.0001519189
0.0003685976
0.0001028227
0.0001026898
0.0001025566
0.0001024213
0.000102295
0.0001532234
0.0001529932
0.0001527573
0.0001525099
0.0001522428
0.0003699815
0.0003690409
0.0001029349
0.0001028065
0.0001026774
0.0001025458
0.0001024214
0.0001534181
0.0001531934
0.0001529638
0.0001527264
0.0001524809
0.0003706792
0.0003700276
0.0003693452
0.0001030496
0.0001029261
0.0001028015
0.000102674
0.0001025525
0.0001536208
0.0001534024
0.0001531788
0.0001529482
0.0001527118
0.0003712722
0.0003706923
0.0003701202
0.0003695394
0.0001031644
0.000103046
0.000102926
0.000102803
0.000102685
0.0001538262
0.0001536146
0.0001533976
0.0001531736
0.0001529442
0.0003718506
0.0003712944
0.000370759
0.0003702066
0.0003696917
0.0001006357
0.0001011078
0.0001005181
0.0001014434
0.0001010944
0.0001003807
0.0001017029
0.0001014623
0.0001010925
0.0001002697
0.0001019138
0.0001017221
0.000101486
0.0001010984
0.0001002464
0.0001020945
0.0001019259
0.000101744
0.0001015111
0.0001011508
0.0001503174
0.0001022541
0.0001020973
0.0001019382
0.0001017626
0.0001015624
0.0001517488
0.0001503417
0.0001023974
0.0001022476
0.000102099
0.0001019453
0.0001017974
0.0001523566
0.0001517799
0.0001504621
0.0001025269
0.0001023822
0.0001022391
0.0001020946
0.0001019632
0.0001526871
0.0001523555
0.0001518305
0.000150658
0.0001026433
0.000102503
0.0001023639
0.0001022238
0.0001020972
0.0001529147
0.0001526563
0.0001523474
0.0001518814
0.0001509051
0.0001027501
0.000102614
0.0001024785
0.0001023416
0.0001022164
0.0001531035
0.000152868
0.0001526185
0.0001523287
0.0001519284
0.0003681948
0.0001028476
0.0001027154
0.000102583
0.0001024488
0.0001023239
0.0001532686
0.0001530403
0.0001528058
0.0001525577
0.0001522827
0.0003699969
0.0003687877
0.0001029516
0.0001028238
0.0001026953
0.0001025645
0.0001024412
0.0001534493
0.0001532263
0.0001529986
0.000152763
0.0001525183
0.0003707603
0.0003700678
0.0003692695
0.000103059
0.0001029358
0.0001028115
0.0001026844
0.0001025635
0.0001536381
0.0001534206
0.0001531981
0.0001529687
0.0001527334
0.0003713253
0.0003707391
0.0003701505
0.0003695272
0.0001031687
0.0001030503
0.0001029305
0.0001028078
0.00010269
0.000153834
0.0001536228
0.0001534063
0.0001531829
0.0001529541
0.0003718758
0.000371319
0.0003707822
0.0003702256
0.0003697025
0.0001032784
0.000103165
0.0001030499
0.0001029317
0.0001028175
0.0001540321
0.0001538278
0.0001536179
0.000153401
0.0001531786
0.0003724316
0.000371886
0.0003713645
0.0003708362
0.0003703117
0.0001007352
0.0001011043
0.0001006526
0.0001014247
0.0001011193
0.0001005559
0.0001016793
0.0001014512
0.0001011211
0.0001004275
0.0001018969
0.0001017084
0.0001014821
0.0001011245
0.0001003642
0.0001020858
0.0001019176
0.0001017374
0.0001015099
0.0001011654
0.0001504099
0.0001022541
0.0001020973
0.0001019382
0.0001017626
0.0001015624
0.0001517488
0.0001503417
0.0001024059
0.0001022562
0.0001021075
0.0001019534
0.0001018039
0.0001523587
0.0001517585
0.0001503714
0.0001025434
0.000102399
0.0001022563
0.0001021118
0.0001019797
0.0001527073
0.0001523617
0.0001517935
0.0001504885
0.000102668
0.0001025282
0.0001023897
0.0001022502
0.0001021239
0.0001529539
0.0001526903
0.0001523639
0.0001518422
0.0001506854
0.0001027799
0.0001026445
0.0001025096
0.0001023736
0.0001022493
0.0001531536
0.0001529173
0.0001526627
0.0001523547
0.0001518949
0.0003676369
0.0001028822
0.0001027511
0.00010262
0.0001024871
0.0001023642
0.0001533317
0.000153106
0.0001528735
0.0001526245
0.0001523384
0.0003700143
0.0003683983
0.0001029757
0.0001028486
0.0001027208
0.0001025909
0.0001024688
0.0001534923
0.0001532711
0.0001530452
0.000152811
0.0001525656
0.0003708517
0.0003700797
0.0003690581
0.0001030752
0.0001029525
0.0001028287
0.0001027024
0.0001025823
0.0001536676
0.0001534515
0.0001532307
0.0001530033
0.0001527698
0.000371413
0.0003708145
0.0003701961
0.0003694977
0.0001031778
0.0001030597
0.0001029402
0.0001028178
0.0001027005
0.0001538504
0.00015364
0.0001534244
0.0001532021
0.0001529745
0.0003719268
0.0003713678
0.0003708262
0.0003702592
0.0003697177
0.0001032825
0.0001031692
0.0001030543
0.0001029362
0.0001028223
0.0001540395
0.0001538356
0.0001536261
0.0001534097
0.0001531878
0.000372455
0.0003719093
0.0003713873
0.000370858
0.0003703323
0.0001033872
0.0001032788
0.0001031685
0.000103055
0.0001029449
0.0001542303
0.0001540334
0.0001538306
0.0001536208
0.0001534052
0.0003729933
0.0003724559
0.0003719396
0.0003714225
0.0003709133
0.0001007883
0.0001011033
0.0001007506
0.0001013862
0.0001011158
0.0001006873
0.0001016479
0.0001014329
0.0001011455
0.0001005997
0.0001018699
0.000101685
0.000101471
0.0001011525
0.0001005186
0.0001020683
0.0001019009
0.0001017238
0.0001015059
0.0001011908
0.0001505847
0.0001022454
0.0001020887
0.00010193
0.0001017561
0.0001015611
0.0001517703
0.0001504333
0.0001024059
0.0001022562
0.0001021075
0.0001019534
0.0001018039
0.0001523587
0.0001517585
0.0001503714
0.0001025517
0.0001024075
0.0001022648
0.0001021203
0.0001019878
0.000152717
0.0001523637
0.0001517725
0.0001503987
0.0001026841
0.0001025446
0.0001024065
0.0001022672
0.000102141
0.0001529784
0.0001527103
0.0001523699
0.0001518055
0.0001505176
0.0001028039
0.0001026689
0.0001025347
0.0001023992
0.0001022756
0.0001531934
0.0001529561
0.0001526962
0.000152371
0.000151856
0.000367126
0.0001029114
0.0001027807
0.0001026502
0.0001025181
0.000102396
0.0001533806
0.0001531555
0.0001529222
0.0001526679
0.0001523638
0.0003699312
0.000367853
0.0001030093
0.000102883
0.0001027563
0.0001026276
0.0001025071
0.0001535522
0.0001533336
0.0001531104
0.0001528781
0.0001526318
0.0003709776
0.0003700884
0.0003686752
0.0001030986
0.0001029764
0.0001028534
0.0001027278
0.0001026088
0.0001537086
0.0001534942
0.0001532752
0.0001530495
0.0001528174
0.0003715217
0.0003708949
0.0003702105
0.0003693467
0.0001031935
0.0001030758
0.0001029568
0.000102835
0.0001027185
0.0001538785
0.0001536694
0.0001534552
0.0001532345
0.0001530088
0.0003720118
0.0003714482
0.0003708981
0.0003703132
0.0003697463
0.0001032913
0.0001031783
0.0001030636
0.0001029458
0.0001028323
0.0001540552
0.000153852
0.0001536433
0.0001534277
0.0001532069
0.0003725029
0.0003719559
0.0003714319
0.0003708993
0.0003703702
0.0001033912
0.0001032829
0.0001031728
0.0001030594
0.0001029494
0.0001542374
0.0001540408
0.0001538384
0.000153629
0.0001534138
0.0003730151
0.0003724775
0.0003719607
0.0003714431
0.0003709338
0.0001034909
0.0001033875
0.000103282
0.0001031732
0.0001030671
0.0001544208
0.0001542313
0.0001540357
0.000153833
0.0001536242
0.0003735377
0.0003730083
0.0003724958
0.0003719823
0.0003714799
0.0001008168
0.0001010962
0.0001008029
0.0001013598
0.0001011146
0.000100783
0.0001016012
0.0001013947
0.0001011414
0.0001007278
0.0001018352
0.000101654
0.0001014527
0.0001011763
0.0001006862
0.0001020408
0.0001018741
0.0001017006
0.0001014947
0.0001012178
0.0001508135
0.0001022281
0.0001020713
0.0001019134
0.0001017426
0.0001015569
0.000151808
0.0001506063
0.0001023974
0.0001022476
0.000102099
0.0001019453
0.0001017974
0.0001523566
0.0001517799
0.0001504621
0.0001025517
0.0001024075
0.0001022648
0.0001021203
0.0001019878
0.000152717
0.0001523637
0.0001517725
0.0001503987
0.0001026922
0.0001025529
0.0001024148
0.0001022757
0.0001021495
0.0001529905
0.0001527199
0.000152372
0.0001517847
0.0001504288
0.0001028197
0.000102685
0.000102551
0.0001024159
0.0001022925
0.0001532188
0.0001529803
0.000152716
0.0001523769
0.0001518197
0.0003667362
0.0001029348
0.0001028046
0.0001026746
0.000102543
0.0001024216
0.0001534197
0.0001531949
0.0001529605
0.0001527011
0.0001523797
0.0003698388
0.000367365
0.0001030377
0.0001029119
0.0001027858
0.0001026577
0.000102538
0.0001535996
0.000153382
0.0001531593
0.0001529262
0.0001526746
0.0003710325
0.0003699935
0.0003681198
0.0001031311
0.0001030098
0.0001028876
0.0001027631
0.0001026455
0.0001537658
0.0001535536
0.0001533372
0.0001531141
0.000152884
0.0003716729
0.0003710089
0.0003702189
0.0003689323
0.0001032163
0.0001030991
0.0001029807
0.0001028595
0.0001027439
0.0001539179
0.0001537101
0.0001534975
0.0001532786
0.0001530546
0.0003721214
0.0003715446
0.0003709706
0.0003703368
0.000369698
0.0001033066
0.0001031939
0.0001030797
0.0001029624
0.0001028496
0.000154082
0.0001538799
0.0001536724
0.0001534583
0.0001532391
0.0003725831
0.0003720335
0.0003715059
0.0003709683
0.0003704369
0.0001033998
0.0001032917
0.0001031818
0.0001030687
0.0001029591
0.0001542524
0.0001540564
0.0001538546
0.000153646
0.0001534317
0.0003730599
0.0003725211
0.0003720028
0.0003714831
0.0003709726
0.0001034949
0.0001033915
0.0001032861
0.0001031774
0.0001030715
0.0001544276
0.0001542384
0.0001540431
0.0001538407
0.0001536324
0.0003735581
0.0003730283
0.0003725153
0.0003720012
0.0003714984
0.0001035897
0.0001034911
0.0001033904
0.0001032862
0.0001031843
0.0001546038
0.0001544216
0.0001542332
0.0001540377
0.0001538359
0.000374065
0.0003735448
0.0003730368
0.0003725261
0.0003720245
0.0001008281
0.0001010914
0.0001008308
0.000101338
0.0001011073
0.0001008337
0.0001015686
0.0001013684
0.0001011395
0.0001008209
0.0001017881
0.0001016077
0.0001014146
0.0001011715
0.0001008087
0.0001020061
0.0001018399
0.0001016698
0.0001014765
0.0001012402
0.0001510618
0.0001022011
0.0001020441
0.0001018868
0.0001017195
0.0001015454
0.000151848
0.0001508329
0.0001023804
0.0001022304
0.0001020817
0.0001019288
0.0001017838
0.0001523504
0.0001518172
0.0001506333
0.0001025434
0.000102399
0.0001022563
0.0001021118
0.0001019797
0.0001527073
0.0001523617
0.0001517935
0.0001504885
0.0001026922
0.0001025529
0.0001024148
0.0001022757
0.0001021495
0.0001529905
0.0001527199
0.000152372
0.0001517847
0.0001504288
0.0001028276
0.0001026931
0.0001025592
0.0001024242
0.000102301
0.0001532315
0.0001529923
0.0001527255
0.000152379
0.000151799
0.0003665298
0.0001029503
0.0001028203
0.0001026906
0.0001025593
0.0001024382
0.0001534449
0.0001532201
0.0001529845
0.0001527207
0.0001523856
0.0003697541
0.0003669969
0.0001030606
0.0001029352
0.0001028096
0.0001026819
0.0001025628
0.0001536376
0.0001534207
0.0001531983
0.0001529641
0.0001527073
0.0003710676
0.0003698988
0.0003676404
0.000103159
0.0001030381
0.0001029164
0.0001027924
0.0001026755
0.0001538118
0.0001536006
0.000153385
0.0001531624
0.0001529314
0.0003717691
0.0003710476
0.0003701057
0.0003683463
0.000103248
0.0001031315
0.0001030139
0.0001028937
0.0001027792
0.0001539727
0.0001537668
0.0001535565
0.0001533401
0.0001531187
0.0003722744
0.0003716845
0.0003710832
0.0003703346
0.0003692529
0.0001033289
0.0001032166
0.0001031029
0.0001029862
0.0001028742
0.00015412
0.0001539189
0.0001537128
0.0001535002
0.0001532828
0.0003726889
0.0003721312
0.0003715918
0.000371035
0.0003704842
0.0001034147
0.0001033069
0.0001031974
0.0001030847
0.0001029757
0.0001542782
0.0001540831
0.0001538824
0.0001536749
0.0001534621
0.0003731353
0.0003725942
0.0003720733
0.0003715507
0.0003710401
0.0001035032
0.0001034
0.0001032949
0.0001031864
0.0001030808
0.0001544421
0.0001542533
0.0001540586
0.0001538569
0.0001536493
0.0003736001
0.000373069
0.0003725543
0.0003720381
0.0003715337
0.0001035935
0.000103495
0.0001033943
0.0001032903
0.0001031885
0.0001546103
0.0001544284
0.0001542403
0.000154045
0.0001538436
0.0003740841
0.0003735635
0.0003730548
0.0003725432
0.0003720409
0.0001036835
0.0001035898
0.0001034937
0.0001033942
0.0001032965
0.0001547792
0.0001546043
0.0001544232
0.0001542348
0.0001540401
0.0003745752
0.0003740655
0.0003735639
0.0003730568
0.0003725558
0.0001010883
0.0001008419
0.000101325
0.0001011023
0.0001008606
0.0001015438
0.0001013466
0.0001011316
0.0001008697
0.0001017549
0.0001015753
0.0001013881
0.0001011689
0.0001008971
0.0001019607
0.0001017932
0.0001016237
0.0001014382
0.0001012334
0.0001512428
0.0001021673
0.0001020097
0.0001018529
0.0001016889
0.0001015266
0.0001518813
0.0001510787
0.0001023543
0.0001022037
0.0001020547
0.0001019024
0.0001017606
0.0001523333
0.000151857
0.0001508575
0.0001025269
0.0001023822
0.0001022391
0.0001020946
0.0001019632
0.0001526871
0.0001523555
0.0001518305
0.000150658
0.0001026841
0.0001025446
0.0001024065
0.0001022672
0.000102141
0.0001529784
0.0001527103
0.0001523699
0.0001518055
0.0001505176
0.0001028276
0.0001026931
0.0001025592
0.0001024242
0.000102301
0.0001532315
0.0001529923
0.0001527255
0.000152379
0.000151799
0.0003665298
0.000102958
0.0001028282
0.0001026986
0.0001025674
0.0001024464
0.0001534575
0.0001532326
0.0001529964
0.0001527301
0.0001523876
0.0003697064
0.000366803
0.0001030758
0.0001029507
0.0001028252
0.0001026979
0.000102579
0.0001536624
0.0001534457
0.0001532233
0.0001529878
0.0001527267
0.0003710807
0.0003698162
0.000367286
0.0001031815
0.0001030609
0.0001029396
0.0001028161
0.0001026996
0.0001538487
0.0001536383
0.0001534234
0.000153201
0.0001529688
0.0003718436
0.0003710735
0.0003700039
0.0003678645
0.0001032753
0.0001031592
0.000103042
0.0001029223
0.0001028085
0.0001540174
0.0001538124
0.000153603
0.0001533874
0.0001531665
0.0003723822
0.0003717651
0.0003711033
0.0003701987
0.0003685965
0.0001033598
0.0001032481
0.0001031351
0.0001030193
0.0001029083
0.0001541727
0.0001539734
0.0001537692
0.0001535588
0.0001533439
0.000372837
0.0003722746
0.0003717309
0.0003711441
0.0003705015
0.0009966773
0.0001034365
0.0001033291
0.00010322
0.0001031079
0.0001029996
0.0001543148
0.0001541207
0.0001539212
0.000153715
0.0001535037
0.0003732363
0.000372689
0.0003721601
0.0003716262
0.0003711058
0.0001035177
0.0001034149
0.00010331
0.000103202
0.0001030969
0.0001544669
0.0001542789
0.0001540851
0.0001538844
0.0001536781
0.0003736711
0.0003731376
0.0003726202
0.0003721009
0.0003715951
0.0001036017
0.0001035033
0.0001034029
0.0001032991
0.0001031976
0.0001546243
0.0001544427
0.0001542552
0.0001540604
0.0001538596
0.0003741238
0.0003736016
0.000373091
0.000372577
0.0003720724
0.0001036873
0.0001035935
0.0001034976
0.0001033982
0.0001033006
0.0001547855
0.0001546109
0.00015443
0.0001542418
0.0001540474
0.0003745933
0.000374083
0.0003735806
0.0003730725
0.0003725704
0.0001037725
0.0001036835
0.0001035921
0.0001034972
0.0001034037
0.0001549472
0.0001547796
0.0001546057
0.0001544245
0.0001542369
0.0003750681
0.0003745703
0.0003740767
0.0003735752
0.0003730762
0.0001013185
0.0001010992
0.0001008712
0.0001015294
0.0001013336
0.0001011263
0.0001008955
0.0001017304
0.0001015506
0.000101366
0.0001011602
0.0001009425
0.0001019286
0.0001017602
0.0001015913
0.0001014114
0.0001012289
0.0001513731
0.0001021241
0.0001019647
0.0001018064
0.0001016429
0.0001014875
0.000151871
0.0001512578
0.0001023215
0.0001021701
0.0001020206
0.0001018687
0.0001017299
0.0001523056
0.0001518903
0.0001511008
0.0001025015
0.0001023562
0.0001022126
0.0001020678
0.0001019368
0.0001526527
0.0001523387
0.00015187
0.0001508799
0.000102668
0.0001025282
0.0001023897
0.0001022502
0.0001021239
0.0001529539
0.0001526903
0.0001523639
0.0001518422
0.0001506854
0.0001028197
0.000102685
0.000102551
0.0001024159
0.0001022925
0.0001532188
0.0001529803
0.000152716
0.0001523769
0.0001518197
0.0003667362
0.000102958
0.0001028282
0.0001026986
0.0001025674
0.0001024464
0.0001534575
0.0001532326
0.0001529964
0.0001527301
0.0001523876
0.0003697064
0.000366803
0.0001030835
0.0001029584
0.0001028331
0.0001027058
0.0001025871
0.0001536747
0.0001534582
0.0001532358
0.0001529996
0.000152736
0.0003710854
0.0003697708
0.000367101
0.0001031964
0.000103076
0.000102955
0.0001028317
0.0001027155
0.0001538729
0.0001536628
0.0001534482
0.0001532258
0.0001529924
0.0003718881
0.0003710824
0.0003699207
0.0003675178
0.0001032974
0.0001031816
0.0001030648
0.0001029454
0.000102832
0.0001540533
0.0001538491
0.0001536404
0.0001534255
0.0001532048
0.0003724682
0.0003718293
0.0003711183
0.0003700877
0.00036809
0.0001033866
0.0001032753
0.0001031627
0.0001030473
0.0001029368
0.0001542162
0.0001540177
0.0001538144
0.0001536049
0.0001533907
0.0003729465
0.0003723685
0.0003717951
0.0003711454
0.0003703225
0.0009938724
0.0001034666
0.0001033598
0.0001032514
0.00010314
0.0001030326
0.0001543658
0.0001541731
0.0001539753
0.000153771
0.0001535619
0.0003733781
0.0003728294
0.0003723039
0.0003717658
0.0003712453
0.001000459
0.0009975585
0.0001035391
0.0001034365
0.0001033321
0.0001032245
0.0001031201
0.0001545025
0.0001543153
0.0001541225
0.0001539229
0.0001537178
0.0003737676
0.0003732287
0.0003727046
0.0003721762
0.0003716611
0.0001036159
0.0001035178
0.0001034177
0.0001033142
0.0001032132
0.0001546483
0.0001544674
0.0001542806
0.0001540868
0.000153887
0.000374191
0.0003736662
0.0003731526
0.000372635
0.0003721274
0.0001036952
0.0001036017
0.0001035059
0.0001034067
0.0001033094
0.000154799
0.0001546247
0.0001544443
0.0001542566
0.0001540627
0.0003746309
0.000374119
0.0003736143
0.0003731035
0.0003725987
0.0001037762
0.0001036872
0.0001035959
0.0001035011
0.0001034077
0.0001549533
0.0001547859
0.0001546122
0.0001544312
0.0001542439
0.0003750853
0.0003745868
0.0003740923
0.0003735897
0.0003730893
0.0001038568
0.0001037724
0.0001036857
0.0001035953
0.0001035061
0.0001551077
0.0001549474
0.0001547807
0.0001546067
0.0001544262
0.0003755436
0.0003750586
0.0003745749
0.0003740809
0.000373586
0.0001015222
0.000101327
0.0001011229
0.0001009056
0.0001017162
0.0001015361
0.0001013528
0.0001011544
0.0001009661
0.0001019053
0.0001017359
0.0001015665
0.000101389
0.0001012187
0.0001514396
0.0001020935
0.0001019329
0.0001017736
0.0001016105
0.0001014597
0.000151864
0.0001513865
0.0001022806
0.0001021274
0.0001019759
0.0001018224
0.0001016835
0.0001522474
0.0001518804
0.0001512777
0.0001024698
0.0001023238
0.0001021794
0.0001020339
0.0001019031
0.0001526072
0.0001523116
0.0001519033
0.000151121
0.0001026433
0.000102503
0.0001023639
0.0001022238
0.0001020972
0.0001529147
0.0001526563
0.0001523474
0.0001518814
0.0001509051
0.0001028039
0.0001026689
0.0001025347
0.0001023992
0.0001022756
0.0001531934
0.0001529561
0.0001526962
0.000152371
0.000151856
0.000367126
0.0001029503
0.0001028203
0.0001026906
0.0001025593
0.0001024382
0.0001534449
0.0001532201
0.0001529845
0.0001527207
0.0001523856
0.0003697541
0.0003669969
0.0001030835
0.0001029584
0.0001028331
0.0001027058
0.0001025871
0.0001536747
0.0001534582
0.0001532358
0.0001529996
0.000152736
0.0003710854
0.0003697708
0.000367101
0.0001032039
0.0001030836
0.0001029627
0.0001028395
0.0001027234
0.000153885
0.0001536751
0.0001534606
0.0001532381
0.000153004
0.0003719098
0.0003710857
0.0003698761
0.0003673388
0.0001033121
0.0001031965
0.0001030798
0.0001029607
0.0001028475
0.000154077
0.0001538731
0.0001536648
0.0001534501
0.0001532293
0.0003725226
0.000371868
0.000371122
0.0003700025
0.0003677432
0.0001034084
0.0001032973
0.000103185
0.00010307
0.0001029599
0.0001542514
0.0001540535
0.0001538508
0.000153642
0.0001534284
0.0003730349
0.000372445
0.0003718482
0.0003711493
0.0003701893
0.000991947
0.0001034931
0.0001033865
0.0001032785
0.0001031675
0.0001030605
0.0001544083
0.0001542164
0.0001540193
0.0001538158
0.0001536076
0.0003734863
0.0003729271
0.0003723841
0.0003718146
0.0003712139
0.0009996722
0.0009950671
0.0001035686
0.0001034666
0.0001033627
0.0001032558
0.0001031522
0.0001545518
0.000154366
0.0001541746
0.0001539767
0.0001537736
0.0003739035
0.0003733646
0.0003728469
0.0003723236
0.0003718339
0.001002882
0.001000818
0.0009980605
0.0001036368
0.0001035391
0.0001034393
0.0001033362
0.0001032357
0.0001546828
0.0001545027
0.0001543168
0.0001541239
0.0001539252
0.0003742836
0.0003737538
0.000373234
0.0003727078
0.0003721899
0.0001037092
0.0001036158
0.0001035203
0.0001034215
0.0001033245
0.0001548223
0.0001546486
0.0001544688
0.0001542819
0.0001540889
0.000374695
0.0003741802
0.0003736721
0.0003731571
0.0003726481
0.000103784
0.0001036952
0.000103604
0.0001035094
0.0001034162
0.0001549664
0.0001547993
0.000154626
0.0001544454
0.0001542585
0.0003751212
0.0003746208
0.000374124
0.0003736184
0.0003731149
0.0001038603
0.0001037761
0.0001036893
0.0001035991
0.0001035099
0.0001551137
0.0001549535
0.000154787
0.0001546132
0.0001544329
0.00037556
0.0003750743
0.0003745895
0.0003740942
0.000373598
0.0001039363
0.0001038566
0.0001037744
0.0001036886
0.0001036036
0.000155261
0.0001551078
0.0001549483
0.0001547815
0.0001546082
0.0003760016
0.0003755304
0.0003750578
0.0003745731
0.0003740844
0.0001017093
0.000101529
0.0001013461
0.0001011507
0.0001009751
0.0001018917
0.0001017216
0.0001015519
0.0001013756
0.0001012117
0.0001514742
0.0001020715
0.0001019097
0.0001017491
0.0001015855
0.0001014364
0.0001518483
0.000151452
0.0001022514
0.000102097
0.0001019441
0.0001017896
0.0001016505
0.0001522059
0.0001518735
0.0001514046
0.0001024308
0.0001022831
0.0001021368
0.0001019894
0.0001018566
0.0001525382
0.0001522541
0.0001518936
0.0001512958
0.0001026126
0.0001024716
0.0001023317
0.0001021908
0.0001020634
0.0001528648
0.0001526115
0.0001523208
0.0001519148
0.0001511439
0.0001027799
0.0001026445
0.0001025096
0.0001023736
0.0001022493
0.0001531536
0.0001529173
0.0001526627
0.0001523547
0.0001518949
0.0003676369
0.0001029348
0.0001028046
0.0001026746
0.000102543
0.0001024216
0.0001534197
0.0001531949
0.0001529605
0.0001527011
0.0001523797
0.0003698388
0.000367365
0.0001030758
0.0001029507
0.0001028252
0.0001026979
0.000102579
0.0001536624
0.0001534457