/*--------------------------------*- C++ -*----------------------------------*\
| =========                 |                                                 |
| \\      /  F ield         | OpenFOAM: The Open Source CFD Toolbox           |
|  \\    /   O peration     | Version:  2306                                  |
|   \\  /    A nd           | Website:  www.openfoam.com                      |
|    \\/     M anipulation  |                                                 |
\*---------------------------------------------------------------------------*/
FoamFile
{
    version     2.0;
    format      ascii;
    arch        "LSB;label=32;scalar=64";
    class       volScalarField;
    location    "0.3/fuel";
    object      eta.fuel;
}
// * * * * * * * * * * * * * * * * * * * * * * * * * * * * * * * * * * * * * //

dimensions      [1 2 -3 0 0 -1 0];

internalField   nonuniform List<scalar> 
16000
(
0.121285
0.1217671
0.1150046
0.1174353
0.1227047
0.1153296
0.1178897
0.1092824
0.111486
0.1146549
0.1240669
0.1159477
0.1187721
0.1095371
0.1117931
0.1150909
0.1045489
0.1060578
0.1089294
0.1129052
0.1257319
0.116818
0.1200531
0.1100162
0.1123764
0.1159371
0.104762
0.1062988
0.1092242
0.1133316
0.1005474
0.1015637
0.1037048
0.1073019
0.1121625
0.1273825
0.117827
0.1216167
0.1106784
0.113197
0.1171658
0.1051598
0.1067516
0.1097837
0.1141595
0.100732
0.1017656
0.1039363
0.1075898
0.1125879
0.09706412
0.09776161
0.0993792
0.1021955
0.1065832
0
0.1284028
0.1187513
0.1231641
0.1114217
0.1141469
0.1186661
0.1057014
0.107377
0.1105707
0.1153631
0.1010748
0.1021419
0.1043707
0.1081359
0.1134148
0.09722789
0.0979367
0.09957317
0.1024213
0.1068692
0
0.09396989
0.09444916
0.09571909
0.09797122
0.1015122
0
0
0.1288769
0.1192677
0.12411
0.1120658
0.1150151
0.1201525
0.1062926
0.1080776
0.1114812
0.1168364
0.1015352
0.1026537
0.1049705
0.1089044
0.1146199
0.09753081
0.09826118
0.09993432
0.1028449
0.1074121
0
0.09411752
0.0946046
0.09588737
0.09816037
0.1017361
0
0
0.09117613
0.09150409
0.09252914
0.09439839
0.09732432
0
0
0
0.1290457
0.1194686
0.1245404
0.1123928
0.1154947
0.1210547
0.106779
0.1086827
0.1123125
0.1183016
0.1020254
0.1032111
0.1056415
0.1097941
0.1161014
0.09793334
0.09869651
0.1004251
0.1034296
0.1081769
0
0.09438991
0.09489162
0.09619885
0.09851232
0.1021561
0
0
0.09131097
0.09164432
0.09267861
0.09456247
0.09751167
0
0
0
0.08861982
0.08884248
0.08969157
0.09128487
0.09378584
0
0
0
0
0.1290884
0.1195127
0.1246866
0.112492
0.1156767
0.1214606
0.1069992
0.1089859
0.1127676
0.1191896
0.1024083
0.1036674
0.1062199
0.110607
0.1175844
0.09835244
0.09915856
0.1009587
0.1040838
0.1090639
0
0.09474847
0.09527241
0.09661635
0.09899051
0.1027363
0
0
0.09155934
0.09190259
0.09295424
0.09486596
0.09786022
0
0
0
0.08874419
0.08897066
0.08982648
0.09143062
0.09394827
0
0
0
0
0.08625834
0.0864046
0.08712563
0.08851509
0.09070413
0
0
0
0
0
0.1290884
0.1195099
0.12472
0.1124899
0.1157126
0.1215949
0.1070392
0.1090743
0.1129374
0.1195889
0.102559
0.1038703
0.1065063
0.1110494
0.1184868
0.09866404
0.09951716
0.1013939
0.1046469
0.1098761
0
0.0951146
0.09566741
0.09705839
0.09950987
0.1033857
0
0
0.0918836
0.09224196
0.09331949
0.09527253
0.09833388
0
0
0
0.08897321
0.08920634
0.09007462
0.09169919
0.09424862
0
0
0
0
0.0863741
0.08652291
0.087249
0.08864667
0.09084836
0
0
0
0
0
0.08405931
0.08415018
0.08477375
0.08600993
0.08796361
0
0
0
0
0
0
0.1290457
0.1195099
0.12472
0.1124703
0.115707
0.1216237
0.1070088
0.1090685
0.1129684
0.1197215
0.1025604
0.1039034
0.106587
0.1112132
0.1188974
0.0987676
0.09965436
0.1015841
0.1049231
0.1103172
0
0.09537447
0.09595851
0.09739952
0.09993224
0.1039448
0
0
0.09220921
0.09258698
0.09369722
0.09570233
0.09884827
0
0
0
0.08927047
0.08951341
0.0904002
0.09205481
0.09465097
0
0
0
0
0.08658732
0.0867404
0.08747555
0.08888847
0.09111405
0
0
0
0
0
0.08416781
0.08426038
0.08488769
0.08613028
0.08809379
0
0
0
0
0
0
0.08199725
0.08204862
0.08259729
0.08371303
0.08548535
0
0
0
0
0
0
0
0.1288769
0.1195127
0.1246866
0.1124703
0.115707
0.1216237
0.1069782
0.1090481
0.1129612
0.1197501
0.102511
0.1038712
0.1065787
0.1112421
0.119038
0.09874325
0.09965094
0.1016119
0.1049991
0.110481
0
0.09544499
0.09605119
0.09752664
0.1001141
0.1042171
0
0
0.09243081
0.09282918
0.09397347
0.09603253
0.09926595
0
0
0
0.089565
0.08982024
0.09073005
0.09242184
0.09507606
0
0
0
0
0.08686263
0.08702208
0.08777024
0.08920547
0.09146581
0
0
0
0
0
0.08436782
0.08446304
0.08509686
0.0863511
0.08833297
0
0
0
0
0
0
0.08209956
0.08215199
0.08270348
0.0838242
0.08560443
0
0
0
0
0
0
0
0.0800518
0.08007584
0.08056687
0.08158663
0.08321327
0
0
0
0
0
0
0
0
0.1284029
0.1194686
0.1245404
0.1124899
0.1157126
0.1215949
0.1069782
0.1090481
0.1129612
0.1197501
0.1024729
0.1038406
0.1065577
0.1112346
0.1190708
0.0986815
0.09960087
0.1015784
0.1049892
0.1105108
0
0.09540332
0.09602338
0.09751941
0.1001382
0.1042912
0
0
0.09247798
0.09289063
0.09405788
0.09615276
0.09944366
0
0
0
0.08975814
0.09002632
0.09095936
0.09268862
0.09540168
0
0
0
0
0.08713224
0.08729967
0.08806353
0.08952582
0.0918285
0
0
0
0
0
0.08462497
0.08472409
0.0853673
0.08663804
0.08864642
0
0
0
0
0
0
0.08228839
0.08234224
0.08289849
0.08402814
0.08582283
0
0
0
0
0
0
0
0.08014874
0.08017339
0.08066653
0.08169028
0.08332326
0
0
0
0
0
0
0
0
0.07820829
0.0782126
0.07865939
0.07960208
0.0811098
0
0
0
0
0
0
0
0
0
0.1273825
0.1192677
0.12411
0.112492
0.1156767
0.1214606
0.1070088
0.1090685
0.1129684
0.1197215
0.1024729
0.1038406
0.1065577
0.1112346
0.1190708
0.09863853
0.0995631
0.1015476
0.104968
0.110504
0
0.09533366
0.09596151
0.09746863
0.1001036
0.1042808
0
0
0.09242488
0.09284639
0.09402722
0.09614264
0.09946565
0
0
0
0.08978896
0.09006574
0.09101385
0.09276721
0.09551807
0
0
0
0
0.08730335
0.08747898
0.08825823
0.0897468
0.09209101
0
0
0
0
0
0.08487442
0.08497829
0.08563266
0.08692281
0.08896281
0
0
0
0
0
0
0.08253036
0.08258627
0.08314925
0.08429152
0.08610653
0
0
0
0
0
0
0
0.08032796
0.08035317
0.08084972
0.08188048
0.08352498
0
0
0
0
0
0
0
0
0.07830052
0.0783051
0.07875348
0.07969938
0.08121236
0
0
0
0
0
0
0
0
0
0.07645458
0.07644509
0.07685635
0.07773681
0.0791465
0
0
0
0
0
0
0
0
0
0
0.1257319
0.1187513
0.1231641
0.1123928
0.1154947
0.1210547
0.1070392
0.1090743
0.1129374
0.1195889
0.102511
0.1038712
0.1065787
0.1112421
0.119038
0.09863853
0.0995631
0.1015476
0.104968
0.110504
0
0.09528772
0.09591909
0.09743103
0.1000727
0.1042595
0
0
0.0923505
0.09277697
0.09396508
0.09609114
0.09943022
0
0
0
0.08972873
0.09001068
0.09096741
0.09273426
0.09550593
0
0
0
0
0.08732233
0.08750306
0.08829167
0.08979631
0.09216616
0
0
0
0
0
0.08502838
0.08513691
0.08580179
0.0871101
0.08917988
0
0
0
0
0
0
0.08276326
0.08282157
0.0833923
0.08454915
0.08638767
0
0
0
0
0
0
0
0.08055706
0.08058296
0.08108425
0.08212476
0.08378537
0
0
0
0
0
0
0
0
0.07847136
0.07847587
0.07892669
0.07987812
0.0814005
0
0
0
0
0
0
0
0
0
0.07654264
0.07653316
0.07694563
0.07782872
0.07924279
0
0
0
0
0
0
0
0
0
0
0.07477945
0.07476191
0.07514459
0.07597282
0.07730098
0
0
0
0
0
0
0
0
0
0
0.1240669
0.117827
0.1216167
0.1120658
0.1150151
0.1201525
0.1069992
0.1089859
0.1127676
0.1191896
0.1025604
0.1039034
0.106587
0.1112132
0.1188974
0.0986815
0.09960087
0.1015784
0.1049892
0.1105108
0
0.09528772
0.09591909
0.09743103
0.1000727
0.1042595
0
0
0.092303
0.0927317
0.09392296
0.09605353
0.0993992
0
0
0
0.089652
0.08993677
0.09089798
0.09267166
0.09545368
0
0
0
0
0.08725767
0.0874413
0.08823488
0.08974801
0.09213142
0
0
0
0
0
0.08503894
0.08514993
0.08582063
0.0871392
0.08922631
0
0
0
0
0
0
0.08290374
0.08296415
0.08354171
0.08471161
0.0865714
0
0
0
0
0
0
0
0.08077633
0.08080279
0.0813093
0.08236074
0.08403967
0
0
0
0
0
0
0
0
0.07868934
0.07869362
0.07914768
0.08010666
0.08164202
0
0
0
0
0
0
0
0
0
0.07670608
0.07669608
0.07711027
0.07799778
0.07941961
0
0
0
0
0
0
0
0
0
0
0.07486352
0.07484605
0.07522963
0.07606005
0.07739194
0
0
0
0
0
0
0
0
0
0
0.07317353
0.07315245
0.0735132
0.07429728
0.07555538
0
0
0
0
0
0
0
0
0
0
0.1227047
0.116818
0.1200531
0.1114217
0.1141469
0.1186661
0.106779
0.1086827
0.1123125
0.1183016
0.102559
0.1038703
0.1065063
0.1110494
0.1184868
0.09874325
0.09965094
0.1016119
0.1049991
0.110481
0
0.09533366
0.09596151
0.09746863
0.1001036
0.1042808
0
0
0.092303
0.0927317
0.09392296
0.09605353
0.0993992
0
0
0
0.08960397
0.08988999
0.09085312
0.09262963
0.0954159
0
0
0
0
0.08718004
0.08736516
0.08816114
0.08967833
0.09206819
0
0
0
0
0
0.08497189
0.08508405
0.08575747
0.08708089
0.08917648
0
0
0
0
0
0
0.08290837
0.08296938
0.08355009
0.08472663
0.08659776
0
0
0
0
0
0
0
0.08090627
0.08093281
0.08144349
0.0825041
0.08419888
0
0
0
0
0
0
0
0
0.07889705
0.07890074
0.07935803
0.08032521
0.08187494
0
0
0
0
0
0
0
0
0
0.07691419
0.07690343
0.0773198
0.0782132
0.07964559
0
0
0
0
0
0
0
0
0
0
0.0750199
0.07500204
0.07538681
0.07622081
0.07755922
0
0
0
0
0
0
0
0
0
0
0.07325422
0.07323282
0.07359449
0.07438041
0.07564172
0
0
0
0
0
0
0
0
0
0
0.0716307
0.07160784
0.07195201
0.07269961
0.07389703
0
0
0
0
0
0
0
0
0
0
0.1217671
0.1159477
0.1187721
0.1106784
0.113197
0.1171658
0.1062926
0.1080776
0.1114812
0.1168364
0.1024083
0.1036674
0.1062199
0.110607
0.1175844
0.0987676
0.09965436
0.1015841
0.1049231
0.1103172
0
0.09540332
0.09602338
0.09751941
0.1001382
0.1042912
0
0
0.0923505
0.09277697
0.09396508
0.09609114
0.09943022
0
0
0
0.08960397
0.08988999
0.09085312
0.09262963
0.0954159
0
0
0
0
0.08713211
0.08731787
0.08811481
0.08963361
0.09202602
0
0
0
0
0
0.08489446
0.0850071
0.08568162
0.08700702
0.08910627
0
0
0
0
0
0
0.08284038
0.08290133
0.08348306
0.08466221
0.08653811
0
0
0
0
0
0
0
0.08090699
0.08093261
0.08144453
0.08250907
0.08421144
0
0
0
0
0
0
0
0
0.07901844
0.07902099
0.07948031
0.08045385
0.08201531
0
0
0
0
0
0
0
0
0
0.07711141
0.07709978
0.07751809
0.07841753
0.0798613
0
0
0
0
0
0
0
0
0
0
0.07521889
0.07520017
0.07558646
0.07642515
0.07777225
0
0
0
0
0
0
0
0
0
0
0.07340474
0.07338217
0.07374508
0.07453394
0.07580081
0
0
0
0
0
0
0
0
0
0
0.07170837
0.07168503
0.0720297
0.07277909
0.07397931
0
0
0
0
0
0
0
0
0
0
0.07014488
0.07012241
0.07045253
0.0711699
0.07231543
0
0
0
0
0
0
0
0
0
0
0.121285
0.1153296
0.1178897
0.1100162
0.1123764
0.1159371
0.1057014
0.107377
0.1105707
0.1153631
0.1020254
0.1032111
0.1056415
0.1097941
0.1161014
0.09866404
0.09951716
0.1013939
0.1046469
0.1098761
0
0.09544499
0.09605119
0.09752664
0.1001141
0.1042171
0
0
0.09242488
0.09284639
0.09402722
0.09614264
0.09946565
0
0
0
0.089652
0.08993677
0.09089798
0.09267166
0.09545368
0
0
0
0
0.08713211
0.08731787
0.08811481
0.08963361
0.09202602
0
0
0
0
0
0.08484711
0.08495991
0.08563481
0.08696089
0.08906144
0
0
0
0
0
0
0.08276391
0.08282461
0.08340646
0.08458632
0.08646381
0
0
0
0
0
0
0
0.08083921
0.08086378
0.08137553
0.08244097
0.08414584
0
0
0
0
0
0
0
0
0.07901634
0.07901728
0.07947632
0.08045183
0.08201806
0
0
0
0
0
0
0
0
0
0.07722506
0.07721216
0.07763119
0.07853471
0.0799872
0
0
0
0
0
0
0
0
0
0
0.07540731
0.07538673
0.07577456
0.07661783
0.07797394
0
0
0
0
0
0
0
0
0
0
0.0735962
0.07357175
0.07393596
0.07472872
0.07600291
0
0
0
0
0
0
0
0
0
0
0.07185364
0.0718289
0.07217395
0.07292625
0.07413127
0
0
0
0
0
0
0
0
0
0
0.07021965
0.07019676
0.07052718
0.07124588
0.07239412
0
0
0
0
0
0
0
0
0
0
0.06870881
0.06869043
0.06900937
0.06969988
0.07080079
0
0
0
0
0
0
0
0
0
0
0.1150046
0.1174353
0.1095371
0.1117931
0.1150909
0.1051598
0.1067516
0.1097837
0.1141595
0.1015352
0.1026537
0.1049705
0.1089044
0.1146199
0.09835244
0.09915856
0.1009587
0.1040838
0.1090639
0
0.09537447
0.09595851
0.09739952
0.09993224
0.1039448
0
0
0.09247798
0.09289063
0.09405788
0.09615276
0.09944366
0
0
0
0.08972873
0.09001068
0.09096741
0.09273426
0.09550593
0
0
0
0
0.08718004
0.08736516
0.08816114
0.08967833
0.09206819
0
0
0
0
0
0.08484711
0.08495991
0.08563481
0.08696089
0.08906144
0
0
0
0
0
0
0.08271746
0.08277799
0.08335976
0.08453972
0.0864176
0
0
0
0
0
0
0
0.08076429
0.08078804
0.0812992
0.08236439
0.0840696
0
0
0
0
0
0
0
0
0.07894915
0.0789488
0.07940668
0.08038189
0.08194893
0
0
0
0
0
0
0
0
0
0.07722086
0.07720597
0.077624
0.07852792
0.07998315
0
0
0
0
0
0
0
0
0
0
0.07551529
0.07549196
0.07588027
0.07672619
0.07808858
0
0
0
0
0
0
0
0
0
0
0
0.07377729
0.07375013
0.07411478
0.07491157
0.07619314
0
0
0
0
0
0
0
0
0
0
0.07203839
0.07201145
0.07235669
0.07311255
0.07432395
0
0
0
0
0
0
0
0
0
0
0.0703598
0.07033572
0.07066621
0.0713869
0.0725398
0
0
0
0
0
0
0
0
0
0
0.06878097
0.06876205
0.06908131
0.06977292
0.07087602
0
0
0
0
0
0
0
0
0
0
0.06731789
0.067305
0.06761708
0.06828437
0.06934493
0
0
0
0
0
0
0
0
0
0
0.1092824
0.111486
0.1146549
0.104762
0.1062988
0.1092242
0.1133316
0.1010748
0.1021419
0.1043707
0.1081359
0.1134148
0.09793334
0.09869651
0.1004251
0.1034296
0.1081769
0
0.0951146
0.09566741
0.09705839
0.09950987
0.1033857
0
0
0.09243081
0.09282918
0.09397347
0.09603253
0.09926595
0
0
0
0.08978896
0.09006574
0.09101385
0.09276721
0.09551807
0
0
0
0
0.08725767
0.0874413
0.08823488
0.08974801
0.09213142
0
0
0
0
0
0.08489446
0.0850071
0.08568162
0.08700702
0.08910627
0
0
0
0
0
0
0.08271746
0.08277799
0.08335976
0.08453972
0.0864176
0
0
0
0
0
0
0
0.08071899
0.0807423
0.08125306
0.08231792
0.08402296
0
0
0
0
0
0
0
0
0.07887589
0.0788746
0.07933135
0.08030564
0.08187206
0
0
0
0
0
0
0
0
0
0.07715499
0.07713817
0.0775548
0.07845747
0.0799123
0
0
0
0
0
0
0
0
0
0
0.07551028
0.07548396
0.07587087
0.07671644
0.07807994
0
0
0
0
0
0
0
0
0
0
0
0.07388076
0.07385019
0.07421377
0.07501287
0.07629914
0
0
0
0
0
0
0
0
0
0
0
0
0.07221297
0.07218305
0.07252777
0.07328644
0.0745045
0
0
0
0
0
0
0
0
0
0
0.07053793
0.07051201
0.0708423
0.07156532
0.07272412
0
0
0
0
0
0
0
0
0
0
0.06891666
0.06889619
0.06921567
0.06990889
0.07101563
0
0
0
0
0
0
0
0
0
0
0.06738759
0.06737415
0.0676864
0.06835477
0.06941726
0
0
0
0
0
0
0
0
0
0
0.06596751
0.06596178
0.06626899
0.06691806
0.06794273
0
0
0
0
0
0
0
0
0
0
0.1045489
0.1060578
0.1089294
0.1129052
0.100732
0.1017656
0.1039363
0.1075898
0.1125879
0.09753081
0.09826118
0.09993432
0.1028449
0.1074121
0
0.09474847
0.09527241
0.09661635
0.09899051
0.1027363
0
0
0.09220921
0.09258698
0.09369722
0.09570233
0.09884827
0
0
0
0.08975814
0.09002632
0.09095936
0.09268862
0.09540168
0
0
0
0
0.08732233
0.08750306
0.08829167
0.08979631
0.09216616
0
0
0
0
0
0.08497189
0.08508405
0.08575747
0.08708089
0.08917648
0
0
0
0
0
0
0.08276391
0.08282461
0.08340646
0.08458632
0.08646381
0
0
0
0
0
0
0
0.08071899
0.0807423
0.08125306
0.08231792
0.08402296
0
0
0
0
0
0
0
0
0.07883176
0.07882998
0.07928608
0.08025973
0.08182556
0
0
0
0
0
0
0
0
0
0.07708383
0.07706562
0.07748103
0.07838224
0.07983581
0
0
0
0
0
0
0
0
0
0
0.07544627
0.07541754
0.07580244
0.07664652
0.07800867
0
0
0
0
0
0
0
0
0
0
0
0.07387559
0.07384162
0.07420279
0.0750011
0.07628769
0
0
0
0
0
0
0
0
0
0
0
0
0.07231236
0.07227904
0.07262197
0.07338131
0.0746036
0
0
0
0
0
0
0
0
0
0
0
0
0
0.07070622
0.07067759
0.07100699
0.07173175
0.07289584
0
0
0
0
0
0
0
0
0
0
0.06908925
0.06906628
0.06938582
0.07008088
0.07119219
0
0
0
0
0
0
0
0
0
0
0.06751905
0.06750412
0.06781618
0.06848622
0.0695519
0
0
0
0
0
0
0
0
0
0
0.06603504
0.06602861
0.06633595
0.06698592
0.06801246
0
0
0
0
0
0
0
0
0
0
0.06465659
0.06465641
0.06496098
0.06559444
0.06658898
0
0
0
0
0
0
0
0
0
0
0.1005474
0.1015637
0.1037048
0.1073019
0.1121625
0.09722789
0.0979367
0.09957318
0.1024213
0.1068692
0
0.09438991
0.09489162
0.09619885
0.09851232
0.1021561
0
0
0.0918836
0.09224196
0.09331949
0.09527253
0.09833388
0
0
0
0.089565
0.08982024
0.09073005
0.09242184
0.09507606
0
0
0
0
0.08730335
0.08747898
0.08825823
0.0897468
0.09209101
0
0
0
0
0
0.08503894
0.08514993
0.08582063
0.0871392
0.08922631
0
0
0
0
0
0
0.08284038
0.08290133
0.08348306
0.08466221
0.08653811
0
0
0
0
0
0
0
0.08076429
0.08078804
0.0812992
0.08236439
0.0840696
0
0
0
0
0
0
0
0
0.07883176
0.07882998
0.07928608
0.08025973
0.08182556
0
0
0
0
0
0
0
0
0
0.07704106
0.07702215
0.07743687
0.07833721
0.07978989
0
0
0
0
0
0
0
0
0
0
0.07537744
0.07534706
0.0757303
0.07657286
0.07793323
0
0
0
0
0
0
0
0
0
0
0
0.07381374
0.07377712
0.0741358
0.07493202
0.07621703
0
0
0
0
0
0
0
0
0
0
0
0
0.07230694
0.07227053
0.07261061
0.07336812
0.07459026
0
0
0
0
0
0
0
0
0
0
0
0
0
0.07080218
0.0707699
0.07109744
0.07182207
0.07298865
0
0
0
0
0
0
0
0
0
0
0
0
0
0
0.0692524
0.06922602
0.06954486
0.07024118
0.07135658
0
0
0
0
0
0
0
0
0
0
0.06768635
0.06766904
0.06798042
0.06865249
0.06972212
0
0
0
0
0
0
0
0
0
0
0.06616278
0.0661546
0.06646176
0.06711292
0.06814266
0
0
0
0
0
0
0
0
0
0
0.06472213
0.06472119
0.06502572
0.06566
0.0666562
0
0
0
0
0
0
0
0
0
0
0.06338167
0.06338803
0.06368886
0.06430951
0.06527721
0
0
0
0
0
0
0
0
0
0
0.09706412
0.09776161
0.0993792
0.1021955
0.1065832
0
0.09411752
0.0946046
0.09588737
0.09816037
0.1017361
0
0
0.09155934
0.09190259
0.09295424
0.09486596
0.09786022
0
0
0
0.08927047
0.08951341
0.0904002
0.09205481
0.09465097
0
0
0
0
0.08713224
0.08729967
0.08806353
0.08952582
0.0918285
0
0
0
0
0
0.08502838
0.08513691
0.08580179
0.0871101
0.08917988
0
0
0
0
0
0
0.08290837
0.08296938
0.08355009
0.08472663
0.08659776
0
0
0
0
0
0
0
0.0808392
0.08086378
0.08137553
0.08244097
0.08414584
0
0
0
0
0
0
0
0
0.07887589
0.07887459
0.07933135
0.08030564
0.08187206
0
0
0
0
0
0
0
0
0
0.07704105
0.07702215
0.07743687
0.07833721
0.07978989
0
0
0
0
0
0
0
0
0
0
0.07533613
0.07530493
0.07568728
0.07652894
0.0778882
0
0
0
0
0
0
0
0
0
0
0
0.07374732
0.07370894
0.07406573
0.07486002
0.07614319
0
0
0
0
0
0
0
0
0
0
0
0
0.072247
0.07220822
0.07254558
0.07330055
0.0745205
0
0
0
0
0
0
0
0
0
0
0
0
0
0.07079734
0.07076132
0.0710863
0.07180864
0.07297401
0
0
0
0
0
0
0
0
0
0
0
0
0
0
0.06934564
0.06931525
0.06963192
0.07032797
0.07144497
0
0
0
0
0
0
0
0
0
0
0
0
0
0
0
0.06784471
0.06782404
0.06813394
0.06880735
0.06988049
0
0
0
0
0
0
0
0
0
0
0.06632548
0.06631458
0.06662111
0.06727347
0.06830724
0
0
0
0
0
0
0
0
0
0
0.06484649
0.0648437
0.06514773
0.06578317
0.06678201
0
0
0
0
0
0
0
0
0
0
0.06344537
0.06345094
0.06375164
0.06437292
0.06534217
0
0
0
0
0
0
0
0
0
0
0.06214383
0.06215336
0.06245191
0.06305922
0.0640035
0
0
0
0
0
0
0
0
0
0
0.09396989
0.09444916
0.09571909
0.09797122
0.1015122
0
0
0.09131097
0.09164432
0.09267861
0.09456247
0.09751167
0
0
0
0.08897321
0.08920634
0.09007462
0.09169919
0.09424862
0
0
0
0
0.08686263
0.08702208
0.08777024
0.08920547
0.09146581
0
0
0
0
0
0.08487442
0.08497829
0.08563266
0.08692281
0.08896281
0
0
0
0
0
0
0.08290373
0.08296415
0.08354171
0.08471161
0.0865714
0
0
0
0
0
0
0
0.08090697
0.0809326
0.08144453
0.08250907
0.08421144
0
0
0
0
0
0
0
0
0.07894916
0.07894879
0.07940668
0.08038189
0.08194893
0
0
0
0
0
0
0
0
0
0.0770838
0.07706562
0.07748102
0.07838224
0.07983581
0
0
0
0
0
0
0
0
0
0
0.07533614
0.07530492
0.07568728
0.07652893
0.0778882
0
0
0
0
0
0
0
0
0
0
0
0.07370745
0.07366823
0.07402402
0.07481721
0.07609927
0
0
0
0
0
0
0
0
0
0
0
0
0.07218279
0.07214242
0.0724778
0.07323061
0.07444834
0
0
0
0
0
0
0
0
0
0
0
0
0
0.07073988
0.07070094
0.0710235
0.07174307
0.07290581
0
0
0
0
0
0
0
0
0
0
0
0
0
0
0.06934139
0.06930741
0.06962085
0.07031488
0.07143018
0
0
0
0
0
0
0
0
0
0
0
0
0
0
0
0.06793562
0.06791086
0.06821819
0.06889094
0.06996546
0
0
0
0
0
0
0
0
0
0
0
0
0
0
0
0
0.0664798
0.06646514
0.06677017
0.06742302
0.06846027
0
0
0
0
0
0
0
0
0
0
0.06500507
0.06499939
0.06530238
0.06593899
0.06694095
0
0
0
0
0
0
0
0
0
0
0.06356663
0.06357028
0.06387033
0.06449241
0.06546419
0
0
0
0
0
0
0
0
0
0
0.06220578
0.06221453
0.06251289
0.06312072
0.06406632
0
0
0
0
0
0
0
0
0
0
0.060938
0.06095363
0.06124699
0.06184291
0.06276381
0
0
0
0
0
0
0
0
0
0
0.09117613
0.09150409
0.09252914
0.09439839
0.09732432
0
0
0
0.08874419
0.08897066
0.08982648
0.09143062
0.09394827
0
0
0
0
0.08658732
0.0867404
0.08747555
0.08888847
0.09111405
0
0
0
0
0
0.08462497
0.08472409
0.0853673
0.08663804
0.08864642
0
0
0
0
0
0
0.08276326
0.08282157
0.0833923
0.08454915
0.08638767
0
0
0
0
0
0
0
0.08090624
0.08093281
0.08144349
0.0825041
0.08419888
0
0
0
0
0
0
0
0
0.07901634
0.07901726
0.07947632
0.08045183
0.08201806
0
0
0
0
0
0
0
0
0
0.07715495
0.07713818
0.07755479
0.07845747
0.0799123
0
0
0
0
0
0
0
0
0
0
0.07537745
0.07534704
0.0757303
0.07657286
0.07793323
0
0
0
0
0
0
0
0
0
0
0
0.07370745
0.07366824
0.07402401
0.07481721
0.07609927
0
0
0
0
0
0
0
0
0
0
0
0
0.07214431
0.07210312
0.0724375
0.07318911
0.07440555
0
0
0
0
0
0
0
0
0
0
0
0
0
0.0706782
0.07063733
0.07095808
0.07167543
0.07283573
0
0
0
0
0
0
0
0
0
0
0
0
0
0
0.06928616
0.06924953
0.06956002
0.07025158
0.07136403
0
0
0
0
0
0
0
0
0
0
0
0
0
0
0
0.06793233
0.06790374
0.06820797
0.06887804
0.0699511
0
0
0
0
0
0
0
0
0
0
0
0
0
0
0
0
0.06656906
0.06654992
0.06685224
0.06750398
0.06854214
0
0
0
0
0
0
0
0
0
0
0
0
0
0
0
0
0
0.06515587
0.06514625
0.06544727
0.06608427
0.06708877
0
0
0
0
0
0
0
0
0
0
0.06372145
0.06372213
0.06402092
0.06464369
0.06561849
0
0
0
0
0
0
0
0
0
0
0.06232408
0.06233096
0.06262858
0.06323699
0.06418472
0
0
0
0
0
0
0
0
0
0
0.06099834
0.06101314
0.06130632
0.06190266
0.06282476
0
0
0
0
0
0
0
0
0
0
0.05976154
0.05978394
0.06007544
0.06065754
0.06155756
0
0
0
0
0
0
0
0
0
0
0.08861982
0.08884248
0.08969157
0.09128487
0.09378584
0
0
0
0
0.0863741
0.08652291
0.087249
0.08864667
0.09084836
0
0
0
0
0
0.08436782
0.08446304
0.08509686
0.0863511
0.08833297
0
0
0
0
0
0
0.08253036
0.08258627
0.08314925
0.08429152
0.08610653
0
0
0
0
0
0
0
0.0807763
0.08080279
0.0813093
0.08236074
0.08403967
0
0
0
0
0
0
0
0
0.07901844
0.07902096
0.07948031
0.08045385
0.08201531
0
0
0
0
0
0
0
0
0
0.07722081
0.07720598
0.07762398
0.07852792
0.07998315
0
0
0
0
0
0
0
0
0
0
0.07544629
0.0754175
0.07580244
0.07664651
0.07800867
0
0
0
0
0
0
0
0
0
0
0
0.07374731
0.07370896
0.07406571
0.07486002
0.07614318
0
0
0
0
0
0
0
0
0
0
0
0
0.07214431
0.07210312
0.0724375
0.07318911
0.07440555
0
0
0
0
0
0
0
0
0
0
0
0
0
0.0706412
0.07059938
0.07091917
0.07163533
0.07279425
0
0
0
0
0
0
0
0
0
0
0
0
0
0
0.06922677
0.06918841
0.06949678
0.07018629
0.07129626
0
0
0
0
0
0
0
0
0
0
0
0
0
0
0
0.06787965
0.06784811
0.06814967
0.06881673
0.06988724
0
0
0
0
0
0
0
0
0
0
0
0
0
0
0
0
0.06656718
0.06654389
0.06684287
0.06749202
0.06852804
0
0
0
0
0
0
0
0
0
0
0
0
0
0
0
0
0
0.0652439
0.06522964
0.06552751
0.06616321
0.06716809
0
0
0
0
0
0
0
0
0
0
0
0
0
0
0
0
0
0
0.06386912
0.06386576
0.06416234
0.06478496
0.06576211
0
0
0
0
0
0
0
0
0
0
0.06247533
0.06247931
0.06277553
0.06338435
0.06433454
0
0
0
0
0
0
0
0
0
0
0.0611139
0.0611268
0.06141923
0.06201603
0.06293999
0
0
0
0
0
0
0
0
0
0
0.05982038
0.05984193
0.06013318
0.06071569
0.06161679
0
0
0
0
0
0
0
0
0
0
0.05861423
0.05864179
0.0589325
0.05950452
0.06038173
0
0
0
0
0
0
0
0
0
0
0.08625834
0.0864046
0.08712563
0.08851509
0.09070413
0
0
0
0
0
0.08416781
0.08426038
0.08488769
0.08613028
0.08809379
0
0
0
0
0
0
0.08228839
0.08234224
0.08289849
0.08402814
0.08582283
0
0
0
0
0
0
0
0.08055703
0.08058296
0.08108425
0.08212476
0.08378537
0
0
0
0
0
0
0
0
0.07889706
0.0789007
0.07935802
0.08032521
0.08187494
0
0
0
0
0
0
0
0
0
0.077225
0.07721217
0.07763116
0.07853471
0.0799872
0
0
0
0
0
0
0
0
0
0
0.07551028
0.07548391
0.07587087
0.07671642
0.07807994
0
0
0
0
0
0
0
0
0
0
0
0.07381373
0.07377714
0.07413576
0.07493202
0.07621702
0
0
0
0
0
0
0
0
0
0
0
0
0.0721828
0.07214241
0.07247782
0.07323059
0.07444834
0
0
0
0
0
0
0
0
0
0
0
0
0
0.0706412
0.07059938
0.07091917
0.07163534
0.07279424
0
0
0
0
0
0
0
0
0
0
0
0
0
0
0.06919113
0.06915192
0.06945919
0.07014757
0.07125618
0
0
0
0
0
0
0
0
0
0
0
0
0
0
0
0.06782273
0.06778925
0.06808889
0.06875362
0.06982184
0
0
0
0
0
0
0
0
0
0
0
0
0
0
0
0
0.06651724
0.06649081
0.06678683
0.06743326
0.06846622
0
0
0
0
0
0
0
0
0
0
0
0
0
0
0
0
0
0.06524355
0.06522511
0.06551932
0.06615217
0.067155
0
0
0
0
0
0
0
0
0
0
0
0
0
0
0
0
0
0
0.06395622
0.06394815
0.06424139
0.06486221
0.0658395
0
0
0
0
0
0
0
0
0
0
0
0
0
0
0
0
0
0
0
0.06262005
0.0626201
0.06291395
0.06352231
0.06447423
0
0
0
0
0
0
0
0
0
0
0.06126188
0.06127182
0.06156288
0.06215988
0.06308595
0
0
0
0
0
0
0
0
0
0
0.05993343
0.05995302
0.06024345
0.06082637
0.06172915
0
0
0
0
0
0
0
0
0
0
0.05867161
0.05869836
0.05898877
0.05956113
0.06043937
0
0
0
0
0
0
0
0
0
0
0.05749465
0.05752708
0.05781574
0.05837916
0.05923776
0
0
0
0
0
0
0
0
0
0
0.08405931
0.08415018
0.08477375
0.08600993
0.08796361
0
0
0
0
0
0
0.08209956
0.08215199
0.08270348
0.0838242
0.08560443
0
0
0
0
0
0
0
0.08032794
0.08035316
0.08084972
0.08188048
0.08352498
0
0
0
0
0
0
0
0
0.07868935
0.07869359
0.07914767
0.08010666
0.08164202
0
0
0
0
0
0
0
0
0
0.07711134
0.07709979
0.07751806
0.07841753
0.0798613
0
0
0
0
0
0
0
0
0
0
0.07551527
0.0754919
0.07588027
0.07672617
0.07808858
0
0
0
0
0
0
0
0
0
0
0
0.07387557
0.07384163
0.07420273
0.0750011
0.07628767
0
0
0
0
0
0
0
0
0
0
0
0
0.07224701
0.0722082
0.0725456
0.07330051
0.0745205
0
0
0
0
0
0
0
0
0
0
0
0
0
0.07067821
0.07063734
0.07095808
0.07167545
0.07283571
0
0
0
0
0
0
0
0
0
0
0
0
0
0
0.06919113
0.06915193
0.06945919
0.07014757
0.07125618
0
0
0
0
0
0
0
0
0
0
0
0
0
0
0
0.06778853
0.06775409
0.06805274
0.06871622
0.06978314
0
0
0
0
0
0
0
0
0
0
0
0
0
0
0
0
0.06646286
0.06643439
0.06672829
0.06737261
0.068403
0
0
0
0
0
0
0
0
0
0
0
0
0
0
0
0
0
0.06519633
0.06517478
0.06546584
0.0660957
0.06709575
0
0
0
0
0
0
0
0
0
0
0
0
0
0
0
0
0
0
0.06395752
0.06394525
0.06423479
0.06485243
0.06582738
0
0
0
0
0
0
0
0
0
0
0
0
0
0
0
0
0
0
0
0.06270631
0.06270176
0.06299216
0.06359849
0.06455001
0
0
0
0
0
0
0
0
0
0
0
0
0
0
0
0
0
0
0
0
0.06140395
0.06140991
0.06169864
0.06229497
0.06322239
0
0
0
0
0
0
0
0
0
0
0.06007843
0.060095
0.06038395
0.06096704
0.06187166
0
0
0
0
0
0
0
0
0
0
0.05878221
0.05880709
0.0590966
0.05966925
0.06054909
0
0
0
0
0
0
0
0
0
0
0.05755071
0.05758228
0.05787066
0.05843435
0.05929388
0
0
0
0
0
0
0
0
0
0
0.0564014
0.05643849
0.05672518
0.05727912
0.05812101
0
0
0
0
0
0
0
0
0
0
0.08199724
0.08204862
0.08259729
0.08371303
0.08548535
0
0
0
0
0
0
0
0.08014873
0.08017339
0.08066653
0.08169028
0.08332326
0
0
0
0
0
0
0
0
0.07847137
0.07847585
0.07892669
0.07987812
0.0814005
0
0
0
0
0
0
0
0
0
0.07691411
0.07690344
0.07731977
0.0782132
0.07964559
0
0
0
0
0
0
0
0
0
0
0.07540725
0.07538666
0.07577456
0.0766178
0.07797394
0
0
0
0
0
0
0
0
0
0
0.07388073
0.07385017
0.07421371
0.07501288
0.07629911
0
0
0
0
0
0
0
0
0
0
0
0
0.07230695
0.07227051
0.07261061
0.07336807
0.07459026
0
0
0
0
0
0
0
0
0
0
0
0
0
0.0707399
0.07070095
0.07102349
0.07174309
0.07290577
0
0
0
0
0
0
0
0
0
0
0
0
0
0
0.06922679
0.06918842
0.06949678
0.07018628
0.07129628
0
0
0
0
0
0
0
0
0
0
0
0
0
0
0
0.06778853
0.0677541
0.06805275
0.06871622
0.06978314
0
0
0
0
0
0
0
0
0
0
0
0
0
0
0
0
0.06643011
0.06640064
0.06669345
0.06733664
0.06836562
0
0
0
0
0
0
0
0
0
0
0
0
0
0
0
0
0
0.06514444
0.06512086
0.06540972
0.06603727
0.067035
0
0
0
0
0
0
0
0
0
0
0
0
0
0
0
0
0
0
0.06391302
0.06389764
0.06418405
0.06479853
0.06577045
0
0
0
0
0
0
0
0
0
0
0
0
0
0
0
0
0
0
0
0.06270922
0.0627006
0.06298726
0.06359036
0.0645392
0
0
0
0
0
0
0
0
0
0
0
0
0
0
0
0
0
0
0
0
0.06148959
0.06149093
0.06177629
0.06237043
0.06329716
0
0
0
0
0
0
0
0
0
0
0
0
0
0
0
0
0
0
0
0
0.06021818
0.06023066
0.0605172
0.0610996
0.0620053
0
0
0
0
0
0
0
0
0
0
0.05892429
0.0589463
0.05923421
0.05980687
0.06068847
0
0
0
0
0
0
0
0
0
0
0.0576591
0.0576887
0.05797625
0.05854011
0.05940108
0
0
0
0
0
0
0
0
0
0
0.05645622
0.05649243
0.05677877
0.05733299
0.05817572
0
0
0
0
0
0
0
0
0
0
0.05533659
0.05537473
0.05565954
0.05620445
0.05702914
0
0
0
0
0
0
0
0
0
0
0.08005179
0.08007584
0.08056687
0.08158663
0.08321327
0
0
0
0
0
0
0
0
0.07830053
0.07830508
0.07875348
0.07969938
0.08121236
0
0
0
0
0
0
0
0
0
0.076706
0.07669609
0.07711025
0.07799778
0.07941961
0
0
0
0
0
0
0
0
0
0
0.07521881
0.07520009
0.07558647
0.07642512
0.07777224
0
0
0
0
0
0
0
0
0
0
0.07377725
0.07375007
0.07411471
0.07491158
0.0761931
0
0
0
0
0
0
0
0
0
0
0.07231236
0.07227902
0.07262195
0.07338125
0.0746036
0
0
0
0
0
0
0
0
0
0
0
0
0
0.07079737
0.07076132
0.07108628
0.07180865
0.07297395
0
0
0
0
0
0
0
0
0
0
0
0
0
0
0.06928619
0.06924955
0.06956003
0.07025156
0.07136405
0
0
0
0
0
0
0
0
0
0
0
0
0
0
0
0.06782274
0.06778927
0.0680889
0.06875362
0.06982183
0
0
0
0
0
0
0
0
0
0
0
0
0
0
0
0
0.06643011
0.06640064
0.06669346
0.06733664
0.06836562
0
0
0
0
0
0
0
0
0
0
0
0
0
0
0
0
0
0.06511311
0.06508854
0.06537628
0.06600261
0.06699904
0
0
0
0
0
0
0
0
0
0
0
0
0
0
0
0
0
0
0.06386357
0.06384618
0.06413042
0.06474251
0.06571193
0
0
0
0
0
0
0
0
0
0
0
0
0
0
0
0
0
0
0
0.06266735
0.0626557
0.06293926
0.06353923
0.06448486
0
0
0
0
0
0
0
0
0
0
0
0
0
0
0
0
0
0
0
0
0.06149418
0.06149145
0.06177319
0.06236407
0.06328805
0
0
0
0
0
0
0
0
0
0
0
0
0
0
0
0
0
0
0
0
0.06030344
0.06031124
0.06059434
0.0611746
0.06207941
0
0
0
0
0
0
0
0
0
0
0
0
0
0
0
0
0
0
0
0
0.05906172
0.05907986
0.05936521
0.05993704
0.06081963
0
0
0
0
0
0
0
0
0
0
0.05779861
0.05782518
0.05811124
0.05867494
0.05953746
0
0
0
0
0
0
0
0
0
0
0.05656256
0.05659679
0.05688215
0.05743658
0.05828058
0
0
0
0
0
0
0
0
0
0
0.05539026
0.0554275
0.05571193
0.05625702
0.05708255
0
0
0
0
0
0
0
0
0
0
0.05429779
0.05433795
0.05461763
0.05515393
0.05596225
0
0
0
0
0
0
0
0
0
0
0.07820829
0.07821259
0.07865939
0.07960208
0.0811098
0
0
0
0
0
0
0
0
0
0.07654256
0.07653317
0.07694561
0.07782872
0.07924279
0
0
0
0
0
0
0
0
0
0
0.07501979
0.07500197
0.07538682
0.07622079
0.07755921
0
0
0
0
0
0
0
0
0
0
0.07359615
0.07357167
0.07393588
0.07472873
0.07600288
0
0
0
0
0
0
0
0
0
0
0.07221299
0.07218302
0.07252772
0.07328637
0.07450451
0
0
0
0
0
0
0
0
0
0
0.07080222
0.0707699
0.07109742
0.07182205
0.0729886
0
0
0
0
0
0
0
0
0
0
0
0
0
0
0.06934142
0.06930743
0.06962086
0.07031487
0.07143019
0
0
0
0
0
0
0
0
0
0
0
0
0
0
0
0.06787967
0.06784813
0.06814968
0.06881674
0.06988723
0
0
0
0
0
0
0
0
0
0
0
0
0
0
0
0
0.06646286
0.0664344
0.0667283
0.06737261
0.068403
0
0
0
0
0
0
0
0
0
0
0
0
0
0
0
0
0
0.06511311
0.06508854
0.06537628
0.06600261
0.06699905
0
0
0
0
0
0
0
0
0
0
0
0
0
0
0
0
0
0
0.06383363
0.06381525
0.06409839
0.06470923
0.06567728
0
0
0
0
0
0
0
0
0
0
0
0
0
0
0
0
0
0
0
0.06262026
0.06260666
0.06288805
0.06348568
0.06442875
0
0
0
0
0
0
0
0
0
0
0
0
0
0
0
0
0
0
0
0
0.06145492
0.06144918
0.06172791
0.06231567
0.0632365
0
0
0
0
0
0
0
0
0
0
0
0
0
0
0
0
0
0
0
0
0.06030981
0.06031351
0.06059299
0.06117009
0.0620721
0
0
0
0
0
0
0
0
0
0
0
0
0
0
0
0
0
0
0
0
0.05914654
0.05916022
0.05944204
0.06001163
0.06089334
0
0
0
0
0
0
0
0
0
0