/*--------------------------------*- C++ -*----------------------------------*\
| =========                 |                                                 |
| \\      /  F ield         | OpenFOAM: The Open Source CFD Toolbox           |
|  \\    /   O peration     | Version:  2306                                  |
|   \\  /    A nd           | Website:  www.openfoam.com                      |
|    \\/     M anipulation  |                                                 |
\*---------------------------------------------------------------------------*/
FoamFile
{
    version     2.0;
    format      ascii;
    arch        "LSB;label=32;scalar=64";
    class       volScalarField;
    location    "0.3/fuel";
    object      H2;
}
// * * * * * * * * * * * * * * * * * * * * * * * * * * * * * * * * * * * * * //

dimensions      [0 0 0 0 0 0 0];

internalField   nonuniform List<scalar> 
16000
(
0.5617654
0.5667529
0.4944295
0.5620512
0.5769115
0.4975634
0.5670451
0.4337915
0.4946389
0.5626105
0.5923849
0.5038985
0.5772174
0.4360391
0.497776
0.5676169
0.3857538
0.4339452
0.4950491
0.5634353
0.6126669
0.5134348
0.5927132
0.4405698
0.5041179
0.5778156
0.3874738
0.4361948
0.4981925
0.56846
0.3474319
0.3858711
0.4342468
0.4956544
0.5645218
0.6348323
0.5257489
0.6130293
0.447361
0.5136651
0.5933553
0.3909327
0.4407295
0.5045477
0.5786977
0.3487966
0.3875923
0.4365001
0.4988072
0.5695706
0.3162302
0.3475243
0.3861013
0.4346922
0.4964521
0.5655998
0.6519631
0.5390123
0.6352391
0.4560803
0.5259956
0.6137383
0.3961
0.4475271
0.5141163
0.594302
0.3515363
0.3910538
0.4410425
0.5051818
0.5798596
0.3173413
0.3488899
0.387825
0.436951
0.4996171
0.5706725
0.2903324
0.316305
0.347706
0.3864416
0.4352792
0.4972436
0.5664939
0.6631019
0.5492264
0.6523977
0.4654101
0.5392796
0.6360352
0.4027045
0.456256
0.5264786
0.6147835
0.3556182
0.3962253
0.4478528
0.514782
0.595549
0.3195687
0.3516314
0.3912916
0.4415049
0.5060174
0.5810125
0.2912554
0.3174168
0.3490733
0.3881688
0.4375453
0.5004207
0.5715866
0.2684817
0.2903942
0.3164522
0.3479746
0.3868902
0.4358618
0.4978997
0.5673835
0.6695356
0.5559018
0.6635517
0.4725541
0.5495052
0.6532479
0.4097353
0.4655981
0.5398034
0.6372094
0.3608175
0.4028362
0.4566007
0.5271915
0.6161608
0.3228805
0.3557163
0.3964713
0.4483337
0.5156592
0.5967865
0.2931037
0.3196454
0.3518183
0.3916429
0.4421143
0.5068464
0.5819692
0.2692612
0.2913177
0.3175651
0.3493444
0.3886222
0.438135
0.5010869
0.572496
0.24979
0.2685337
0.2905159
0.3166699
0.348329
0.3873355
0.4363444
0.4985521
0.5682684
0.6724553
0.5597934
0.6699934
0.4772088
0.5561862
0.6644311
0.4150957
0.4727483
0.5500515
0.6545017
0.3663306
0.4098751
0.4659669
0.5405766
0.6387575
0.3270873
0.36092
0.4030946
0.4571096
0.5281311
0.6175279
0.2958473
0.3229594
0.3559089
0.3968348
0.4489677
0.5165296
0.5978154
0.2708206
0.293167
0.3197963
0.3520946
0.3921061
0.4427191
0.507534
0.5829217
0.2504573
0.2693136
0.2914403
0.3177846
0.349702
0.3890721
0.4386237
0.5017494
0.5734008
0.2336114
0.2498343
0.2686361
0.290696
0.3169571
0.3486807
0.3877043
0.4368242
0.4992008
0.5691486
0.6724553
0.561574
0.6729166
0.4799197
0.5600806
0.6708884
0.4185793
0.4774056
0.5567432
0.6657279
0.3705203
0.4152393
0.4731292
0.5508578
0.6561547
0.3315346
0.3664389
0.4101497
0.4665119
0.5415961
0.6402953
0.2993249
0.3271695
0.3611213
0.4034766
0.4577806
0.5290635
0.6186706
0.2731324
0.2959122
0.3231145
0.3561937
0.397314
0.4495968
0.5172525
0.5988416
0.2517912
0.2708737
0.2932915
0.3200196
0.352459
0.3925658
0.4432203
0.508218
0.5838698
0.2341893
0.2505019
0.2694167
0.2916218
0.3180742
0.350057
0.3894448
0.4391094
0.5024082
0.5743008
0.2194665
0.2336497
0.2499217
0.2687877
0.2909337
0.3172422
0.3489719
0.3880707
0.437301
0.4998458
0.5734075
0.6695356
0.561574
0.6729166
0.4811599
0.5618623
0.6738183
0.4206058
0.4801176
0.5606429
0.6722077
0.3732379
0.4187243
0.4777916
0.5575654
0.6674372
0.3349056
0.3706311
0.4155212
0.473692
0.551921
0.6577968
0.3029923
0.3316211
0.3666518
0.4105557
0.4672307
0.5426084
0.6415927
0.2760573
0.2993923
0.327331
0.3614191
0.4039803
0.4584465
0.5298413
0.6198164
0.2537665
0.2731867
0.2960399
0.3233439
0.3565693
0.3977897
0.450119
0.5179728
0.599865
0.2353438
0.2518365
0.2709783
0.2934758
0.3203141
0.3528207
0.3929468
0.4437188
0.5088984
0.5848134
0.219972
0.2342278
0.2505898
0.2695693
0.2918613
0.3183617
0.3503509
0.3898152
0.4395922
0.5030632
0.5786558
0.2069913
0.2194999
0.2337251
0.2500511
0.2689878
0.2911698
0.3174783
0.3492612
0.3884348
0.4377749
0.502965
0.5763393
0.6631019
0.5597934
0.6699934
0.4811599
0.5618623
0.6738183
0.4215326
0.4813584
0.5624269
0.6751476
0.3748173
0.4207514
0.4805059
0.5614728
0.6739466
0.3370888
0.3733494
0.4190089
0.4783619
0.5586493
0.6691351
0.3057665
0.3349938
0.3708487
0.415938
0.4744343
0.5529766
0.6591827
0.2791358
0.303063
0.3317912
0.3669667
0.4110912
0.4679443
0.5434597
0.6429059
0.2562621
0.2761136
0.2995249
0.32757
0.361812
0.4044802
0.4590017
0.5306198
0.6209652
0.2370518
0.2538128
0.2732937
0.2962289
0.3236466
0.3569421
0.3981844
0.4506391
0.5186905
0.6008855
0.2209811
0.2353828
0.2519255
0.2711331
0.293719
0.3206065
0.3531204
0.3933255
0.4442145
0.5095753
0.5893816
0.2074372
0.2200055
0.2343037
0.25072
0.2697708
0.2920991
0.3185997
0.3506429
0.3901832
0.440072
0.5062312
0.5816672
0.1959048
0.2070207
0.2195657
0.2338369
0.2502219
0.2691866
0.2913651
0.3177127
0.3495486
0.3887966
0.4400659
0.5051046
0.5785618
0.6519631
0.5559018
0.6635517
0.4799197
0.5600806
0.6708884
0.4215326
0.4813584
0.5624269
0.6751476
0.3755394
0.4216783
0.4817476
0.5632601
0.6768994
0.3383567
0.3749291
0.421037
0.4810795
0.5625668
0.6756738
0.307561
0.3371775
0.3735686
0.4194297
0.4791139
0.5597253
0.6705654
0.2814606
0.3058385
0.3351673
0.3711708
0.4164879
0.4751712
0.5538645
0.6605859
0.2588844
0.2791948
0.3032023
0.332043
0.3673822
0.411623
0.468544
0.5443186
0.644235
0.2392069
0.2563099
0.2762245
0.2997212
0.3278855
0.3622019
0.4048969
0.459557
0.5313989
0.622117
0.222473
0.2370916
0.2539038
0.2734522
0.2964782
0.3239471
0.3572514
0.3985774
0.4511571
0.5194055
0.6058353
0.2083271
0.2210151
0.2354596
0.2520575
0.2713375
0.2939605
0.3208487
0.3534182
0.393702
0.4447073
0.5128503
0.5925932
0.1963011
0.2074668
0.2200717
0.2344162
0.250892
0.2699709
0.2922959
0.3188362
0.3509331
0.3905489
0.442392
0.5084119
0.5839611
0.1859859
0.1959308
0.2070786
0.2196632
0.2339846
0.2503916
0.2693511
0.2915592
0.3179456
0.3498341
0.390545
0.4416332
0.5067233
0.5800557
0.6348323
0.5492264
0.6523977
0.4772088
0.5561862
0.6644311
0.4206058
0.4801176
0.5606429
0.6722077
0.3755394
0.4216783
0.4817476
0.5632601
0.6768994
0.3389362
0.3756513
0.4219644
0.4823225
0.5643584
0.6786395
0.3086025
0.3384455
0.3751488
0.4214593
0.4818358
0.5636529
0.6771266
0.2829628
0.3076332
0.3373518
0.3738928
0.4199847
0.4798605
0.560629
0.6720107
0.260862
0.2815205
0.3059801
0.335424
0.3715957
0.4170339
0.4757907
0.5547607
0.6620064
0.2414683
0.2589344
0.2793109
0.3034084
0.3323753
0.3677948
0.4120698
0.4691487
0.5451851
0.6455803
0.2243534
0.239248
0.2564041
0.2763887
0.2999803
0.3281986
0.3625269
0.4053136
0.4601125
0.5321786
0.6277336
0.2096416
0.2225076
0.23717
0.2540386
0.2736613
0.2967258
0.3241963
0.3575593
0.3989687
0.4516729
0.5228701
0.6095083
0.1970917
0.2083569
0.221082
0.2355734
0.2522317
0.2715404
0.2941605
0.3210894
0.3537143
0.3940762
0.4470911
0.5151348
0.5950855
0.1863406
0.1963273
0.207525
0.2201698
0.2345647
0.2510628
0.2701365
0.2924915
0.319071
0.3512213
0.3923163
0.4439845
0.5100679
0.58551
0.1770588
0.1860092
0.1959822
0.2071645
0.2197921
0.2341312
0.2505321
0.2695144
0.2917519
0.3181769
0.3512136
0.391739
0.4428174
0.5078095
0.5808065
0.6126669
0.5390123
0.6352391
0.4725541
0.5495052
0.6532479
0.4185793
0.4774056
0.5567432
0.6657279
0.3748173
0.4207514
0.4805059
0.5614728
0.6739466
0.3389362
0.3756513
0.4219644
0.4823225
0.5643584
0.6786395
0.3090783
0.3390249
0.3758711
0.4223872
0.4830805
0.5654487
0.6801021
0.2838342
0.3086747
0.3386199
0.3754736
0.4220162
0.4825865
0.5645637
0.6785925
0.2621387
0.2830229
0.3077753
0.3376097
0.3743206
0.4205357
0.480487
0.5615395
0.6734712
0.2431717
0.2609127
0.2816385
0.3061899
0.3357629
0.3720177
0.4174927
0.4764155
0.555665
0.6634446
0.2263242
0.2415112
0.2590328
0.279483
0.3036807
0.3327054
0.3681415
0.4125201
0.4697584
0.5460595
0.6522044
0.211297
0.2243891
0.239329
0.2565436
0.2766056
0.3002376
0.3284595
0.3628518
0.4057303
0.4606682
0.5359739
0.6325331
0.1982588
0.209672
0.2225758
0.2372861
0.2542167
0.273869
0.2969312
0.3244444
0.3578659
0.3993582
0.4541714
0.5253973
0.6125423
0.1870476
0.1971181
0.2084158
0.2211813
0.2357238
0.2524047
0.2717085
0.2943592
0.3213286
0.3540085
0.3958857
0.4487487
0.5168962
0.5967992
0.1773779
0.1863639
0.1963789
0.2076113
0.2202994
0.2347122
0.2512041
0.270301
0.2926857
0.3193043
0.352614
0.3935272
0.4451922
0.5111833
0.5862909
0.1689814
0.1770797
0.1860551
0.1960584
0.207278
0.2199202
0.2342526
0.2506716
0.2696766
0.2919432
0.3192943
0.3521544
0.3926403
0.4436114
0.5083549
0.5923849
0.5257489
0.6130293
0.4654101
0.5392796
0.6360352
0.4150957
0.4727483
0.5500515
0.6545017
0.3732379
0.4187243
0.4777916
0.5575654
0.6674372
0.3383567
0.3749291
0.421037
0.4810795
0.5625668
0.6756738
0.3090783
0.3390249
0.3758711
0.4223872
0.4830805
0.5654487
0.6801021
0.2842323
0.3091505
0.3391994
0.3761961
0.4229449
0.4838329
0.5663626
0.6815768
0.2628789
0.2838942
0.3088168
0.3388782
0.3759023
0.4225691
0.4832158
0.5654802
0.6800716
0.2442706
0.2621894
0.2831411
0.3079858
0.3379502
0.3747453
0.420998
0.4811179
0.5624567
0.6749469
0.2278072
0.2432152
0.2610125
0.2818132
0.3064668
0.3360994
0.3723722
0.4179554
0.4770457
0.5565777
0.6705262
0.2130302
0.2263614
0.2415957
0.2591787
0.2797102
0.3039511
0.3329827
0.3684908
0.4129741
0.4703732
0.5503515
0.6592883
0.1997275
0.2113283
0.2244595
0.2394489
0.2567278
0.2768209
0.300452
0.3287204
0.3631766
0.406147
0.4633715
0.5391004
0.6371987
0.1880909
0.1982857
0.2097319
0.222677
0.2374396
0.2543935
0.2740413
0.2971356
0.3246914
0.3581709
0.4012446
0.4559863
0.5274512
0.6147724
0.1780141
0.1870712
0.1971703
0.2085031
0.2213124
0.2358731
0.252548
0.2718755
0.2945567
0.3215662
0.3554308
0.3971415
0.4500244
0.5181004
0.5976756
0.1692702
0.1773989
0.18641
0.1964555
0.2077254
0.2204281
0.2348343
0.2513445
0.2704644
0.2928785
0.3204314
0.353567
0.3944447
0.4460047
0.5117448
0.161638
0.1690003
0.1771209
0.1861232
0.1961592
0.2073908
0.2200261
0.2343731
0.25081
0.2698377
0.2928676
0.3200556
0.3528641
0.3932441
0.4440098
0.5769115
0.5134348
0.5927132
0.4560803
0.5259956
0.6137383
0.4097353
0.4655981
0.5398034
0.6372094
0.3705203
0.4152393
0.4731292
0.5508578
0.6561547
0.3370888
0.3733494
0.4190089
0.4783619
0.5586493
0.6691351
0.3086025
0.3384455
0.3751488
0.4214593
0.4818358
0.5636529
0.6771266
0.2842323
0.3091505
0.3391994
0.3761961
0.4229449
0.4838329
0.5663626
0.6815768
0.263217
0.2842922
0.3092927
0.3394577
0.376625
0.4234985
0.4844632
0.5672815
0.6830638
0.2449075
0.2629296
0.2840124
0.3090273
0.3392189
0.3763278
0.4230324
0.4838485
0.5664023
0.6815638
0.2287633
0.2443141
0.2622893
0.2833162
0.3082636
0.3382883
0.3751016
0.4214634
0.481753
0.5633808
0.6821994
0.2143333
0.2278449
0.2433007
0.2611603
0.2820439
0.3067418
0.3363821
0.3727296
0.4184218
0.4776813
0.5610579
0.6780013
0.2012638
0.2130628
0.2264348
0.241721
0.2593714
0.279936
0.3041781
0.3332621
0.3688429
0.4134318
0.4733895
0.5546879
0.6682118
0.1894028
0.1997552
0.2113901
0.2245638
0.2396075
0.2569108
0.2770003
0.3006662
0.3289811
0.3635014
0.4081738
0.4655854
0.5420409
0.6413652
0.1789523
0.1881149
0.1983388
0.2098208
0.2228106
0.237592
0.2545401
0.2742127
0.297339
0.3249371
0.359648
0.402612
0.4574572
0.5289382
0.6159841
0.1698456
0.1780352
0.1871178
0.1972477
0.2086184
0.2214426
0.2359968
0.2526904
0.2720414
0.2947528
0.322715
0.3564166
0.3981071
0.4508953
0.5187137
0.1619005
0.1692891
0.1774403
0.1864784
0.1965568
0.2078388
0.2205347
0.2349555
0.2514839
0.2706266
0.2938102
0.3212018
0.3542885
0.3950616
0.4464135
0.1549331
0.1616552
0.1690376
0.1771821
0.1862132
0.1962593
0.2074841
0.2201313
0.2344927
0.2509475
0.2706156
0.2934968
0.3206295
0.3533393
0.393547
0.5667529
0.5038985
0.5772174
0.447361
0.5136651
0.5933553
0.4027045
0.456256
0.5264786
0.6147835
0.3663306
0.4098751
0.4659669
0.5405766
0.6387575
0.3349056
0.3706311
0.4155212
0.473692
0.551921
0.6577968
0.307561
0.3371775
0.3735686
0.4194297
0.4791139
0.5597253
0.6705654
0.2838342
0.3086747
0.3386199
0.3754736
0.4220162
0.4825865
0.5645637
0.6785925
0.263217
0.2842922
0.3092927
0.3394577
0.376625
0.4234985
0.4844632
0.5672815
0.6830638
0.2451983
0.2632676
0.2844103
0.309503
0.3397985
0.3770508
0.423962
0.4850966
0.5682055
0.684563
0.2293172
0.2449508
0.2630294
0.2841874
0.3093051
0.3395573
0.3766843
0.4234981
0.4844848
0.56733
0.6888872
0.2151728
0.2288009
0.2443997
0.2624374
0.2835474
0.3085395
0.3385719
0.3754602
0.4219318
0.4823926
0.5679093
0.6895075
0.202418
0.2143662
0.2279191
0.2434276
0.2613557
0.2822732
0.3069729
0.3366671
0.3730899
0.4188922
0.4807994
0.5655374
0.6870697
0.1907742
0.2012926
0.2131271
0.2265436
0.2418866
0.2595629
0.2801256
0.304407
0.3335436
0.3691978
0.4156764
0.4764158
0.5599173
0.6797944
0.1801313
0.1894275
0.1998098
0.2114817
0.2247017
0.2397649
0.2570632
0.2771796
0.3008804
0.3292418
0.3650809
0.4098304
0.4676584
0.5445892
0.6442461
0.1706938
0.1789738
0.1881623
0.1984176
0.2099383
0.2229434
0.2377184
0.254686
0.2743833
0.2975414
0.3261268
0.3607174
0.4037192
0.4585195
0.5297367
0.1624234
0.1698647
0.1780771
0.1871868
0.19735
0.208733
0.2215504
0.2361196
0.2528318
0.2722062
0.295701
0.3235104
0.357174
0.3987659
0.4513385
0.1551727
0.1619177
0.1693265
0.1775018
0.1865688
0.1966573
0.2079326
0.2206405
0.2350759
0.2516223
0.2714102
0.2944465
0.3217848
0.3547734
0.3953718
0.1487873
0.1549487
0.161689
0.1690928
0.177263
0.1863026
0.1963421
0.2075768
0.2202357
0.2346115
0.2516115
0.2711447
0.2939711
0.3210138
0.3535776
0.5617654
0.4975634
0.5670451
0.4405698
0.5041179
0.5778156
0.3961
0.4475271
0.5141163
0.594302
0.3608175
0.4028362
0.4566007
0.5271915
0.6161608
0.3315346
0.3664389
0.4101497
0.4665119
0.5415961
0.6402953
0.3057665
0.3349938
0.3708487
0.415938
0.4744343
0.5529766
0.6591827
0.2829628
0.3076332
0.3373518
0.3738928
0.4199847
0.4798605
0.560629
0.6720107
0.2628789
0.2838942
0.3088168
0.3388782
0.3759023
0.4225691
0.4832158
0.5654802
0.6800716
0.2451983
0.2632676
0.2844103
0.309503
0.3397985
0.3770508
0.423962
0.4850966
0.5682055
0.684563
0.2295701
0.2452416
0.2633674
0.2845852
0.3097808
0.3401369
0.3774073
0.4244278
0.4857332
0.5691345
0.691915
0.2156591
0.2293548
0.2450363
0.2631773
0.2844184
0.309581
0.3398407
0.3770426
0.4239663
0.4851246
0.5718705
0.6960252
0.2031612
0.2152058
0.2288752
0.2445266
0.262633
0.2837771
0.3087709
0.3388572
0.375821
0.4224032
0.485525
0.5722481
0.6979878
0.1918036
0.2024471
0.2144312
0.2280292
0.2435953
0.2615498
0.2824657
0.3072057
0.3369544
0.3734532
0.4211991
0.4838994
0.5707524
0.6979228
0.1813629
0.1907998
0.2013495
0.2132225
0.2266874
0.2420511
0.2597236
0.2803166
0.3046376
0.3338274
0.3709381
0.4179252
0.4800455
0.566465
0.6956392
0.1717592
0.1801535
0.1894762
0.1998909
0.2116027
0.2248387
0.2398961
0.2572155
0.2773588
0.3010945
0.3305093
0.3663703
0.4113798
0.4694477
0.5463072
0.1631939
0.1707132
0.1790163
0.1882325
0.1985217
0.2100551
0.2230535
0.2378442
0.2548312
0.274553
0.2985211
0.3269872
0.3615827
0.4045182
0.4590892
0.1556499
0.1624407
0.1699024
0.1781391
0.1872782
0.1974516
0.2088279
0.2216576
0.2362417
0.2529723
0.2730027
0.296357
0.3241213
0.3576905
0.3991009
0.1490069
0.1551884
0.1619516
0.1693821
0.177583
0.1866587
0.1967406
0.2080257
0.2207455
0.2351954
0.2522908
0.271945
0.2949278
0.3221764
0.3550172
0.1431341
0.1488016
0.1549795
0.1617392
0.169166
0.1773434
0.1863766
0.1964243
0.2076687
0.2203394
0.2351851
0.252063
0.2715434
0.2942884
0.3212064
0.4944295
0.5620512
0.4360391
0.497776
0.5676169
0.3909327
0.4407295
0.5045477
0.5786977
0.3556182
0.3962253
0.4478528
0.514782
0.595549
0.3270873
0.36092
0.4030946
0.4571096
0.5281311
0.6175279
0.3029923
0.3316211
0.3666518
0.4105557
0.4672307
0.5426084
0.6415927
0.2814606
0.3058385
0.3351673
0.3711708
0.4164879
0.4751712
0.5538645
0.6605859
0.2621387
0.2830229
0.3077753
0.3376097
0.3743206
0.4205357
0.480487
0.5615395
0.6734712
0.2449075
0.2629296
0.2840124
0.3090273
0.3392189
0.3763278
0.4230324
0.4838485
0.5664023
0.6815638
0.2295701
0.2452416
0.2633674
0.2845852
0.3097808
0.3401369
0.3774073
0.4244278
0.4857332
0.5691345
0.691915
0.215881
0.2296076
0.245327
0.2635151
0.2848162
0.3100566
0.3404202
0.3777654
0.4248956
0.4863728
0.5736787
0.6989708
0.2035915
0.2156919
0.2294288
0.2451631
0.2633727
0.284648
0.3098121
0.3401255
0.3774027
0.4244369
0.4882542
0.5760897
0.7040815
0.1924662
0.2031903
0.2152707
0.2289852
0.2446943
0.2628273
0.2839697
0.3090037
0.3391444
0.3761842
0.4247118
0.4885125
0.5770844
0.7076573
0.1822869
0.1918295
0.2025045
0.2145277
0.2281747
0.2437618
0.2617129
0.2826597
0.3074405
0.337244
0.3752345
0.42349
0.4874932
0.5767821
0.7107251
0.1728713
0.1813859
0.1908504
0.2014338
0.2133487
0.2268304
0.2421892
0.2598856
0.2805091
0.3048699
0.3352188
0.3726809
0.4206191
0.4845644
0.5751586
0.7229015
0.1641613
0.1717791
0.1801971
0.1895485
0.1999981
0.211723
0.2249528
0.2400272
0.2573678
0.2775379
0.3021354
0.3315434
0.367576
0.4127159
0.4706504
0.156353
0.1632116
0.1707516
0.1790794
0.1883254
0.1986251
0.2101518
0.2231631
0.2379693
0.2549757
0.2753745
0.2992292
0.3276832
0.362207
0.4049466
0.1494441
0.1556657
0.162475
0.1699584
0.1782211
0.1873689
0.1975358
0.2089222
0.221764
0.2363629
0.2536511
0.2735533
0.2968605
0.3245376
0.3579531
0.143336
0.1490212
0.1552193
0.1620021
0.1694555
0.1776638
0.1867331
0.1968232
0.2081182
0.2208498
0.2357727
0.2527468
0.2723494
0.2952511
0.3223733
0.1379171
0.1431472
0.1488298
0.1550253
0.1618056
0.1692386
0.17741
0.1864501
0.1965059
0.20776
0.2208401
0.2355749
0.252403
0.2718102
0.2944475
0.4337915
0.4946389
0.5626105
0.3874738
0.4361948
0.4981925
0.56846
0.3515363
0.3910538
0.4410425
0.5051818
0.5798596
0.3228805
0.3557163
0.3964713
0.4483337
0.5156592
0.5967865
0.2993249
0.3271695
0.3611213
0.4034766
0.4577806
0.5290635
0.6186706
0.2791358
0.303063
0.3317912
0.3669667
0.4110912
0.4679443
0.5434597
0.6429059
0.260862
0.2815205
0.3059801
0.335424
0.3715957
0.4170339
0.4757907
0.5547607
0.6620064
0.2442706
0.2621894
0.2831411
0.3079858
0.3379502
0.3747453
0.420998
0.4811179
0.5624567
0.6749469
0.2293172
0.2449508
0.2630294
0.2841874
0.3093051
0.3395573
0.3766843
0.4234981
0.4844848
0.56733
0.6888872
0.215881
0.2296076
0.245327
0.2635151
0.2848162
0.3100566
0.3404202
0.3777654
0.4248956
0.4863728
0.5736787
0.6989708
0.2037879
0.2159138
0.2296816
0.2454536
0.2637103
0.2850455
0.3102875
0.3407046
0.378125
0.4253657
0.4894999
0.5778416
0.706835
0.1928498
0.2036205
0.2157567
0.2295387
0.2453305
0.2635667
0.2848401
0.3100442
0.3404117
0.3777646
0.4267382
0.4911509
0.5806663
0.7130525
0.1828814
0.1924921
0.2032476
0.2153671
0.2291306
0.2448609
0.2629902
0.2841634
0.3092379
0.3394333
0.377962
0.4269115
0.4918317
0.5824079
0.7184845
0.1737052
0.1823101
0.1918806
0.2025897
0.2146551
0.2283192
0.2439017
0.2618772
0.2828553
0.307677
0.3386638
0.377003
0.4261437
0.4916306
0.5836803
0.7279361
0.1651705
0.172892
0.1814312
0.1909255
0.2015454
0.213474
0.2269504
0.2423284
0.2600488
0.2807031
0.3060092
0.3366118
0.3747676
0.4239663
0.4905276
0.5897708
0.7384379
0.1572351
0.1641793
0.1718185
0.1802619
0.189644
0.2001046
0.2118232
0.2250669
0.2401582
0.2575199
0.2784087
0.3029841
0.33251
0.3686152
0.4136135
0.1500881
0.156369
0.1632463
0.1708085
0.1791627
0.1884177
0.1987109
0.2102481
0.2232721
0.2380937
0.2556748
0.2759678
0.2998017
0.3281851
0.3625416
0.1437381
0.1494586
0.1556969
0.1625258
0.1700325
0.1783027
0.1874441
0.1976193
0.2090158
0.2218696
0.2369485
0.2541201
0.2739759
0.2972037
0.3247493
0.1381035
0.1433492
0.1490495
0.1552653
0.1620687
0.1695285
0.1777307
0.1868069
0.1969053
0.20821
0.2213534
0.2361663
0.2530916
0.2726209
0.2954135
0.1330885
0.1379292
0.1431731
0.1488717
0.1550859
0.1618716
0.1692988
0.177476
0.186523
0.1965869
0.2082009
0.2211801
0.2358685
0.2526305
0.2719439
0.3857538
0.4339452
0.4950491
0.5634353
0.3487966
0.3875923
0.4365001
0.4988072
0.5695706
0.3195687
0.3516314
0.3912916
0.4415049
0.5060174
0.5810125
0.2958473
0.3229594
0.3559089
0.3968348
0.4489677
0.5165296
0.5978154
0.2760573
0.2993923
0.327331
0.3614191
0.4039803
0.4584465
0.5298413
0.6198164
0.2588844
0.2791948
0.3032023
0.332043
0.3673822
0.411623
0.468544
0.5443186
0.644235
0.2431717
0.2609127
0.2816385
0.3061899
0.3357629
0.3720177
0.4174927
0.4764155
0.555665
0.6634446
0.2287633
0.2443141
0.2622893
0.2833162
0.3082636
0.3382883
0.3751016
0.4214634
0.481753
0.5633808
0.6821994
0.2156591
0.2293548
0.2450363
0.2631773
0.2844184
0.309581
0.3398407
0.3770426
0.4239663
0.4851246
0.5718705
0.6960252
0.2037879
0.2159138
0.2296816
0.2454536
0.2637103
0.2850455
0.3102875
0.3407046
0.378125
0.4253657
0.4894999
0.5778416
0.706835
0.1930248
0.2038169
0.2159786
0.2297913
0.2456209
0.2639042
0.2852375
0.3105193
0.3409903
0.3784862
0.4276628
0.4923541
0.582302
0.7155068
0.1832255
0.1928756
0.2036777
0.2158529
0.2296838
0.2454968
0.2637292
0.2850332
0.3102775
0.3406993
0.3795341
0.4288665
0.4942849
0.5855829
0.7229099
0.1742416
0.1829045
0.1925431
0.2033327
0.2154944
0.2292751
0.2450006
0.2631541
0.2843583
0.3094736
0.3408475
0.3796554
0.4293541
0.4954735
0.5881784
0.7324214
0.1659269
0.1737261
0.1823558
0.1919564
0.2027023
0.2147818
0.2284407
0.2440427
0.2620427
0.2830524
0.3088369
0.3400732
0.3790508
0.4291942
0.496343
0.5926965
0.7406367
0.1581551
0.1651893
0.1729329
0.1814985
0.1910248
0.2016562
0.2135793
0.2270713
0.2424686
0.2602133
0.281654
0.3071497
0.3382793
0.3773577
0.4283711
0.5004865
0.5984718
0.7503453
0.1508958
0.1572516
0.164215
0.1718769
0.1803476
0.1897389
0.2001933
0.2119234
0.2251808
0.2402891
0.2582596
0.2791184
0.3037773
0.333343
0.3693132
0.14433
0.1501027
0.1564007
0.1632979
0.1708837
0.1792456
0.1884942
0.1987962
0.2103439
0.2233805
0.2386962
0.2561795
0.2764475
0.3002146
0.3284542
0.1384743
0.1437513
0.1494871
0.1557433
0.1625931
0.1701062
0.1783702
0.1875187
0.1977023
0.2091087
0.2223802
0.237353
0.25448
0.2742638
0.2973782
0.1332609
0.1381156
0.1433752
0.1490916
0.1553261
0.162135
0.1695889
0.177797
0.1868802
0.1969867
0.2086533
0.2216967
0.2364638
0.253323
0.2727573
0.1286069
0.1330997
0.1379531
0.1432116
0.1489272
0.1551461
0.1619262
0.1693585
0.1775416
0.1865954
0.1969781
0.2085002
0.2214362
0.2360648
0.2527445
0.3474319
0.3858711
0.4342468
0.4956544
0.5645218
0.3173413
0.3488899
0.387825
0.436951
0.4996171
0.5706725
0.2931037
0.3196454
0.3518183
0.3916429
0.4421143
0.5068464
0.5819692
0.2731324
0.2959122
0.3231145
0.3561937
0.397314
0.4495968
0.5172525
0.5988416
0.2562621
0.2761136
0.2995249
0.32757
0.361812
0.4044802
0.4590017
0.5306198
0.6209652
0.2414683
0.2589344
0.2793109
0.3034084
0.3323753
0.3677948
0.4120698
0.4691487
0.5451851
0.6455803
0.2278072
0.2432152
0.2610125
0.2818132
0.3064668
0.3360994
0.3723722
0.4179554
0.4770457
0.5565777
0.6705262
0.2151728
0.2288009
0.2443997
0.2624374
0.2835474
0.3085395
0.3385719
0.3754602
0.4219318
0.4823926
0.5679093
0.6895075
0.2035915
0.2156919
0.2294288
0.2451631
0.2633727
0.284648
0.3098121
0.3401255
0.3774027
0.4244369
0.4882542
0.5760897
0.7040815
0.1930248
0.2038169
0.2159786
0.2297913
0.2456209
0.2639042
0.2852375
0.3105193
0.3409903
0.3784862
0.4276628
0.4923541
0.582302
0.7155068
0.1833824
0.1930506
0.203874
0.2160746
0.2299362
0.245787
0.2640665
0.2854302
0.310752
0.3412772
0.3802513
0.4297578
0.4954056
0.5870457
0.7249696
0.1745519
0.1832485
0.1929264
0.2037626
0.2159799
0.229828
0.2456361
0.2638925
0.2852272
0.3105119
0.3421053
0.38117
0.4311683
0.4976432
0.5908063
0.7354697
0.1664132
0.1742624
0.1829502
0.1926188
0.2034452
0.215621
0.2293963
0.2451411
0.263319
0.2845545
0.3106271
0.3421944
0.3815357
0.4320316
0.4994087
0.5953786
0.7432123
0.1588442
0.1659458
0.1737673
0.1824237
0.1920566
0.2028143
0.2148882
0.228563
0.2441848
0.2622096
0.2840187
0.3099882
0.3417052
0.3814032
0.432662
0.5024776
0.5998657
0.7514496
0.1517377
0.1581721
0.1652263
0.1729935
0.1815876
0.1911236
0.2017493
0.2136853
0.2271931
0.2426099
0.2610195
0.2826058
0.3085148
0.3403478
0.3807601
0.435701
0.5063754
0.6055259
0.7597664
0.1450722
0.1509108
0.1572841
0.164268
0.1719542
0.1804328
0.189818
0.2002819
0.2120234
0.2252947
0.2409255
0.2588623
0.2797817
0.3044608
0.3339025
0.1390203
0.1443435
0.1501317
0.1564477
0.1633662
0.1709586
0.1793143
0.1885704
0.1988811
0.2104392
0.2239051
0.2391309
0.2565874
0.2767934
0.3004359
0.1336041
0.1384866
0.1437775
0.1495295
0.1558046
0.1626599
0.1701672
0.1784372
0.1875928
0.1977848
0.2095579
0.2227328
0.2376633
0.2547252
0.2744102
0.1287669
0.1332721
0.1381396
0.1434138
0.1491473
0.1553865
0.1621898
0.1696488
0.1778629
0.1869529
0.19738
0.2089554
0.2219561
0.2366635
0.2534393
0.1244367
0.1286172
0.1331218
0.1379886
0.1432626
0.1489823
0.1551959
0.1619804
0.1694177
0.1776066
0.1869449
0.1972437
0.2087256
0.2216074
0.2361632
0.3162302
0.3475243
0.3861013
0.4346922
0.4964521
0.5655998
0.2912554
0.3174168
0.3490733
0.3881688
0.4375453
0.5004207
0.5715866
0.2708206
0.293167
0.3197963
0.3520946
0.3921061
0.4427191
0.507534
0.5829217
0.2537665
0.2731867
0.2960399
0.3233439
0.3565693
0.3977897
0.450119
0.5179728
0.599865
0.2392069
0.2563099
0.2762245
0.2997212
0.3278855
0.3622019
0.4048969
0.459557
0.5313989
0.622117
0.2263242
0.2415112
0.2590328
0.279483
0.3036807
0.3327054
0.3681415
0.4125201
0.4697584
0.5460595
0.6522044
0.2143333
0.2278449
0.2433007
0.2611603
0.2820439
0.3067418
0.3363821
0.3727296
0.4184218
0.4776813
0.5610579
0.6780013
0.2031612
0.2152058
0.2288752
0.2445266
0.262633
0.2837771
0.3087709
0.3388572
0.375821
0.4224032
0.485525
0.5722481
0.6979878
0.1928498
0.2036205
0.2157567
0.2295387
0.2453305
0.2635667
0.2848401
0.3100442
0.3404117
0.3777646
0.4267382
0.4911509
0.5806663
0.7130525
0.1833824
0.1930506
0.203874
0.2160746
0.2299362
0.245787
0.2640665
0.2854302
0.310752
0.3412772
0.3802513
0.4297578
0.4954056
0.5870457
0.7249696
0.1746935
0.1834054
0.1931013
0.2039587
0.2162015
0.2300803
0.2459261
0.2642294
0.2856237
0.3109858
0.342679
0.3818604
0.431997
0.4986437
0.5920483
0.7369877
0.1666945
0.1745727
0.183294
0.1930019
0.2038748
0.2161062
0.2299488
0.245776
0.2640565
0.2854222
0.3116577
0.3434049
0.3829393
0.4336333
0.5012028
0.5972483
0.7452177
0.1592872
0.1664321
0.1743035
0.183018
0.1927188
0.203557
0.2157271
0.2295182
0.2452825
0.2634849
0.2855142
0.3117256
0.3436899
0.3835958
0.4349211
0.5043057
0.6015244
0.7529417
0.1523682
0.1588614
0.1659831
0.1738285
0.1825135
0.1921563
0.2029083
0.2149954
0.2286863
0.244328
0.2630276
0.2849778
0.3113211
0.3435788
0.384074
0.4371661
0.5073366
0.606345
0.7604077
0.1458456
0.1517533
0.1582058
0.1652812
0.1730738
0.1816761
0.1912065
0.2018431
0.2137921
0.2273158
0.2433025
0.2618265
0.283745
0.3102072
0.3430615
0.386408
0.4400101
0.5111405
0.6113892
0.7672532
0.1397045
0.145086
0.1509405
0.1573323
0.1643381
0.1720311
0.1805038
0.189897
0.2003704
0.2121234
0.2258482
0.241444
0.2594255
0.2803531
0.3049199
0.134109
0.1390327
0.1443701
0.1501747
0.1565099
0.1634341
0.1710206
0.1793827
0.1886461
0.1989655
0.2109003
0.2242836
0.2394822
0.2568815
0.2769787
0.1290852
0.1336154
0.1385107
0.1438165
0.1495857
0.1558656
0.1627153
0.1702277
0.1785038
0.1876664
0.198183
0.2098679
0.2230032
0.2378747
0.2548498
0.1245856
0.1287772
0.1332943
0.1381752
0.143465
0.1492026
0.1554366
0.1622443
0.1697083
0.1779283
0.1873042
0.1976479
0.2091836
0.2221302
0.2367638
0.1205472
0.1244464
0.1286377
0.1331546
0.1380356
0.1433133
0.1490279
0.1552454
0.1620342
0.1694765
0.1779207
0.1871821
0.1974436
0.2088763
0.2216932
0.2903324
0.316305
0.347706
0.3864416
0.4352792
0.4972436
0.5664939
0.2692612
0.2913177
0.3175651
0.3493444
0.3886222
0.438135
0.5010869
0.572496
0.2517912
0.2708737
0.2932915
0.3200196
0.352459
0.3925658
0.4432203
0.508218
0.5838698
0.2370518
0.2538128
0.2732937
0.2962289
0.3236466
0.3569421
0.3981844
0.4506391
0.5186905
0.6008855
0.2243534
0.239248
0.2564041
0.2763887
0.2999803
0.3281986
0.3625269
0.4053136
0.4601125
0.5321786
0.6277336
0.2130302
0.2263614
0.2415957
0.2591787
0.2797102
0.3039511
0.3329827
0.3684908
0.4129741
0.4703732
0.5503515
0.6592883
0.202418
0.2143662
0.2279191
0.2434276
0.2613557
0.2822732
0.3069729
0.3366671
0.3730899
0.4188922
0.4807994
0.5655374
0.6870697
0.1924662
0.2031903
0.2152707
0.2289852
0.2446943
0.2628273
0.2839697
0.3090037
0.3391444
0.3761842
0.4247118
0.4885125
0.5770844
0.7076573
0.1832255
0.1928756
0.2036777
0.2158529
0.2296838
0.2454968
0.2637292
0.2850332
0.3102775
0.3406993
0.3795341
0.4288665
0.4942849
0.5855829
0.7229099
0.1746935
0.1834054
0.1931013
0.2039587
0.2162015
0.2300803
0.2459261
0.2642294
0.2856237
0.3109858
0.342679
0.3818604
0.431997
0.4986437
0.5920483
0.7369877
0.1668229
0.1747142
0.1834509
0.1931767
0.2040708
0.2163276
0.2302008
0.2460656
0.264393
0.285818
0.3121276
0.3439566
0.3835804
0.434372
0.5020518
0.5981945
0.7462823
0.1595434
0.1667133
0.1746136
0.1833616
0.1931017
0.2039863
0.2162119
0.2300701
0.2459165
0.2642213
0.2863748
0.3127166
0.3448105
0.3848335
0.4362438
0.5055838
0.6028392
0.7542147
0.1527733
0.1593043
0.1664693
0.1743645
0.1831076
0.1928183
0.2036507
0.2158338
0.2296408
0.2454247
0.2642966
0.2864282
0.3129453
0.3453279
0.3858174
0.4385117
0.5084806
0.6074385
0.7613237
0.1464244
0.1523839
0.1588953
0.1660385
0.1739094
0.1826028
0.19224
0.203003
0.2151035
0.2288105
0.2450298
0.2638396
0.2860882
0.3128509
0.3457041
0.3875376
0.4407218
0.511721
0.6119724
0.7676829
0.1404172
0.1458598
0.1517841
0.1582558
0.165354
0.1731536
0.1817505
0.19129
0.2019375
0.2138998
0.2279174
0.2439957
0.2627923
0.2851568
0.3124253
0.3475576
0.3897149
0.4434866
0.5150939
0.6162266
0.7731148
0.1347418
0.1397172
0.1451133
0.1509847
0.1573962
0.1644078
0.1720951
0.1805746
0.189976
0.2004589
0.2126094
0.2262991
0.2419284
0.2599107
0.280737
0.1295536
0.1341205
0.1390572
0.1444096
0.1502317
0.1565718
0.1634904
0.1710823
0.1794507