/*--------------------------------*- C++ -*----------------------------------*\
| =========                 |                                                 |
| \\      /  F ield         | OpenFOAM: The Open Source CFD Toolbox           |
|  \\    /   O peration     | Version:  2306                                  |
|   \\  /    A nd           | Website:  www.openfoam.com                      |
|    \\/     M anipulation  |                                                 |
\*---------------------------------------------------------------------------*/
FoamFile
{
    version     2.0;
    format      ascii;
    arch        "LSB;label=32;scalar=64";
    class       volScalarField;
    location    "0.3/fuel";
    object      H2O;
}
// * * * * * * * * * * * * * * * * * * * * * * * * * * * * * * * * * * * * * //

dimensions      [0 0 0 0 0 0 0];

internalField   nonuniform List<scalar> 
16000
(
0.4383419
0.4333539
0.5056652
0.438056
0.4231943
0.5025311
0.4330617
0.5662901
0.5054558
0.4374967
0.4077192
0.4961954
0.4228884
0.5640424
0.5023184
0.4324898
0.6143165
0.5661364
0.5050456
0.4366718
0.3874346
0.4866582
0.4073908
0.5595115
0.495976
0.42229
0.6125965
0.5638867
0.5019019
0.4316466
0.652629
0.6141992
0.5658348
0.5044402
0.4355851
0.3652659
0.4743428
0.3870721
0.55272
0.4864279
0.4067486
0.6091376
0.5593518
0.4955462
0.4214078
0.6512643
0.612478
0.5635814
0.5012871
0.4305358
0.6838226
0.6525365
0.613969
0.5653894
0.5036424
0.4345069
0.348132
0.4610779
0.3648589
0.5440001
0.4740961
0.386363
0.6039702
0.5525539
0.4859766
0.4058018
0.6485247
0.6090164
0.5590387
0.494912
0.4202458
0.6827116
0.6511709
0.6122453
0.5631305
0.5004771
0.4294337
0.7097137
0.6837478
0.6523549
0.6136287
0.5648023
0.5028508
0.4336127
0.3369909
0.4508623
0.3476972
0.5346697
0.4608105
0.3640627
0.5973655
0.5438244
0.473613
0.3853175
0.6444427
0.6038449
0.5522281
0.4853109
0.4045545
0.6804843
0.6484295
0.6087787
0.5585763
0.4940763
0.4190927
0.7087907
0.6826361
0.6509876
0.6119015
0.5625361
0.4996734
0.4285195
0.7315584
0.7096518
0.6836007
0.6520862
0.6131801
0.5642197
0.5021947
0.432723
0.3305556
0.4441859
0.336541
0.5275251
0.4505835
0.3468469
0.5903346
0.5344817
0.4602867
0.3628882
0.6392436
0.5972339
0.5434797
0.4729
0.38394
0.6771726
0.6443447
0.6035989
0.5517471
0.4844336
0.4033168
0.7069425
0.6804076
0.6482427
0.6084274
0.5579669
0.4932472
0.4181358
0.730779
0.7087283
0.6824878
0.6507165
0.6114481
0.5619464
0.4990072
0.42761
0.7502451
0.7315064
0.7095301
0.683383
0.6517319
0.6127348
0.5637371
0.5015422
0.431838
0.3276353
0.4402935
0.3300977
0.5228699
0.4439014
0.3356613
0.584974
0.5273309
0.4500372
0.3455928
0.6337305
0.5901948
0.5341128
0.4595134
0.3613398
0.672966
0.6391411
0.5969754
0.5429707
0.4719604
0.3825726
0.704199
0.6770937
0.6441521
0.6032354
0.5511131
0.4835631
0.4022877
0.7292197
0.7068792
0.6802567
0.6479664
0.6079641
0.5573621
0.4925596
0.4171831
0.7495779
0.7307266
0.7086057
0.6822683
0.6503589
0.6109982
0.5614577
0.4983446
0.4267051
0.7664192
0.7502008
0.7314041
0.70935
0.6830958
0.6513802
0.612366
0.5632573
0.5008935
0.4309576
0.3276353
0.4385127
0.3271738
0.5201587
0.4400064
0.3292026
0.5814902
0.5226731
0.4433443
0.3343643
0.6295408
0.5848304
0.5269499
0.4492307
0.3439394
0.6685189
0.6336222
0.5899202
0.5335678
0.4584937
0.3598017
0.7007217
0.6728838
0.6389397
0.5965935
0.5422997
0.4710279
0.3814297
0.7269082
0.7041341
0.6769387
0.6438673
0.6027561
0.550484
0.4828401
0.4012614
0.748244
0.7291666
0.7067547
0.6800334
0.6476019
0.6075044
0.5568608
0.4918755
0.4162349
0.7658414
0.7495332
0.7306235
0.7084243
0.6819787
0.6500039
0.6106255
0.560972
0.4976858
0.4258049
0.7805603
0.766381
0.7501134
0.7312525
0.7091123
0.6828107
0.651089
0.6119996
0.5627804
0.5002484
0.4266981
0.3305556
0.4385127
0.3271738
0.5189183
0.4382244
0.3262719
0.5794635
0.5199607
0.4394439
0.327883
0.6268232
0.5813452
0.522287
0.442522
0.3326546
0.6651479
0.62943
0.5845485
0.526387
0.4481674
0.342297
0.6970545
0.6684324
0.6334093
0.5895142
0.532849
0.4574813
0.358504
0.7239835
0.7006543
0.6727223
0.638642
0.5960898
0.5416338
0.4702499
0.3802837
0.7462689
0.7268538
0.7040065
0.6767093
0.6434917
0.6022805
0.5499617
0.4821197
0.4002378
0.764687
0.7481988
0.7290621
0.7065705
0.6797389
0.6472402
0.6071235
0.5563623
0.491195
0.4152912
0.7800549
0.7658029
0.7494453
0.7304709
0.7081848
0.6816912
0.64971
0.6102551
0.5604891
0.4970307
0.4214492
0.793032
0.7805269
0.7663055
0.7499841
0.7310524
0.7088763
0.6825746
0.6507997
0.6116355
0.5623065
0.4971289
0.4237659
0.3369909
0.4402935
0.3300977
0.5189183
0.4382244
0.3262719
0.5785367
0.5187198
0.4376596
0.3249423
0.6252437
0.579318
0.5195724
0.4386139
0.3261437
0.6629647
0.6267116
0.5810605
0.5217167
0.441438
0.3309563
0.6942804
0.6650597
0.6292124
0.5841316
0.5256447
0.4471117
0.3409107
0.7209052
0.6969838
0.6682623
0.6330945
0.5889786
0.5321353
0.4566299
0.3571906
0.7437735
0.7239271
0.7005217
0.6724833
0.6382491
0.5955898
0.5410786
0.4694713
0.3791347
0.7629792
0.7462227
0.7267468
0.7038175
0.6764066
0.6431189
0.6018858
0.5494416
0.4814019
0.3992171
0.7790458
0.764648
0.7481098
0.7289073
0.7063272
0.6794465
0.6469406
0.6067448
0.5558666
0.490518
0.4107222
0.7925861
0.7800213
0.765727
0.7493151
0.7302694
0.707947
0.6814532
0.649418
0.6098871
0.5600093
0.4938624
0.4184373
0.8041155
0.7930026
0.7804611
0.7661938
0.7498132
0.7308537
0.708681
0.6823402
0.6505123
0.6112737
0.5600154
0.4949891
0.421543
0.348132
0.4441859
0.336541
0.5201587
0.4400064
0.3292026
0.5785367
0.5187198
0.4376596
0.3249423
0.6245216
0.578391
0.5183306
0.4368263
0.3231901
0.6616968
0.6251319
0.5790323
0.5189988
0.4375198
0.3244161
0.692486
0.6628761
0.6264924
0.5806398
0.5209646
0.4403618
0.3295257
0.7185805
0.6942084
0.6648863
0.6288903
0.5835817
0.5249077
0.4462236
0.3395073
0.7411515
0.7208462
0.6968445
0.6680105
0.6326789
0.5884469
0.5315356
0.4557709
0.3558612
0.7608243
0.7437257
0.7238162
0.7003254
0.6721679
0.6378592
0.5951731
0.5405232
0.4686921
0.3779827
0.7775541
0.7629394
0.7461317
0.7265884
0.7035682
0.6761061
0.6428096
0.6014928
0.5489236
0.4806869
0.3942664
0.7916964
0.7790118
0.7645712
0.7479778
0.7287029
0.7060858
0.6792043
0.6466427
0.6063683
0.5553737
0.4872427
0.4075101
0.8037192
0.7925566
0.7799551
0.7656146
0.7491432
0.7300694
0.7077502
0.6812168
0.6491279
0.6095214
0.5576892
0.4916815
0.416143
0.8140316
0.8040894
0.7929447
0.7803636
0.7660461
0.7496435
0.7306892
0.7084869
0.6821073
0.6502268
0.6095253
0.558448
0.4933702
0.4200489
0.3652659
0.4508623
0.3476973
0.5228699
0.4439014
0.3356613
0.5794635
0.5199607
0.4394439
0.327883
0.6245216
0.578391
0.5183306
0.4368263
0.3231901
0.6611174
0.6244097
0.5781049
0.5177556
0.4357278
0.3214496
0.6914445
0.6616081
0.6249122
0.5786101
0.5182424
0.4364336
0.3229629
0.7170784
0.6924138
0.6627018
0.6261682
0.5800847
0.520218
0.439458
0.32808
0.739174
0.7185206
0.6940668
0.6646296
0.6284654
0.5830357
0.5242882
0.4453273
0.3380864
0.7585631
0.7411015
0.7207301
0.6966384
0.6676781
0.6322663
0.5880001
0.5309309
0.4549042
0.3545156
0.7756739
0.7607832
0.7436316
0.723652
0.7000663
0.6718547
0.6375342
0.5947564
0.5399676
0.4679124
0.372365
0.7903821
0.7775195
0.7628611
0.7459969
0.7263792
0.7033206
0.6758568
0.6425017
0.6011015
0.5484078
0.4772219
0.3905928
0.8029287
0.7916666
0.7789449
0.7644574
0.7478036
0.7285
0.7058858
0.6789637
0.6463467
0.605994
0.5529899
0.4849579
0.4050173
0.813677
0.803693
0.7924984
0.779857
0.7654661
0.7489724
0.7299038
0.7075547
0.680982
0.6488396
0.607754
0.5560966
0.4900253
0.414594
0.8229563
0.8140083
0.8040381
0.7928588
0.7802347
0.7658995
0.7495031
0.7305258
0.7082942
0.681876
0.6488473
0.6083313
0.5572637
0.4922839
0.419298
0.3874346
0.4610779
0.3648589
0.5275251
0.4505835
0.3468469
0.5814902
0.5226731
0.4433443
0.3343643
0.6252437
0.579318
0.5195724
0.4386139
0.3261437
0.6611174
0.6244097
0.5781049
0.5177556
0.4357278
0.3214496
0.6909687
0.6610286
0.6241899
0.5776821
0.5169976
0.4346374
0.3199867
0.716207
0.6913723
0.6614336
0.6245874
0.5780531
0.5174916
0.4355226
0.3214967
0.7378974
0.7170183
0.6922716
0.6624438
0.6257405
0.5795337
0.5195914
0.4385474
0.3266193
0.7568598
0.7391234
0.7184027
0.6938571
0.6642907
0.6280435
0.5825769
0.5236633
0.4444229
0.336648
0.7737033
0.7585202
0.7410031
0.720558
0.6963662
0.6673481
0.6319197
0.5875497
0.5303211
0.4540298
0.3478902
0.7887268
0.7756382
0.7607023
0.7434921
0.7234352
0.699809
0.6715938
0.6372093
0.5943397
0.539412
0.4641165
0.3675645
0.8017617
0.7903516
0.7774513
0.7627449
0.7458188
0.7261715
0.7031152
0.6756087
0.6421952
0.6007119
0.5459092
0.4746944
0.3875582
0.8129701
0.8029023
0.7916077
0.7788457
0.7643071
0.7476306
0.7283319
0.7056871
0.6787245
0.6460525
0.6041845
0.5513322
0.4831963
0.4033034
0.8226372
0.8136537
0.8036414
0.7924121
0.7797275
0.7653186
0.7488311
0.7297393
0.7073605
0.6807487
0.6474469
0.606543
0.5548889
0.4889098
0.4138129
0.8310314
0.8229354
0.8139625
0.8039619
0.7927453
0.7801066
0.7657781
0.7493636
0.7303637
0.7081029
0.6807587
0.6479066
0.60743
0.5564697
0.4917385
0.4077192
0.4743428
0.3870721
0.5346697
0.4608105
0.3640627
0.584974
0.5273309
0.4500372
0.3455928
0.6268232
0.5813452
0.522287
0.442522
0.3326546
0.6616968
0.6251319
0.5790323
0.5189988
0.4375198
0.3244161
0.6909687
0.6610286
0.6241899
0.5776821
0.5169976
0.4346374
0.3199867
0.715809
0.6908965
0.6608541
0.6238649
0.5771244
0.5162451
0.4337234
0.3185116
0.7371572
0.716147
0.6912302
0.6611754
0.6241588
0.5775002
0.5168624
0.434606
0.3200173
0.755761
0.7378467
0.7169001
0.6920612
0.6621034
0.6253157
0.5790714
0.5189605
0.43763
0.3251432
0.7722204
0.7568164
0.7390236
0.718228
0.6935802
0.6639542
0.6276889
0.5821143
0.5230331
0.4435101
0.3295648
0.7869938
0.7736661
0.7584357
0.7408572
0.7203308
0.6960958
0.6670709
0.6315704
0.5870957
0.5297062
0.4497372
0.3408049
0.8002932
0.7886955
0.7755678
0.7605823
0.7433079
0.7232199
0.6995947
0.671333
0.6368845
0.593923
0.5367084
0.4609897
0.3628981
0.8119269
0.8017348
0.7902917
0.7773501
0.7625915
0.745642
0.7259993
0.7029108
0.6753618
0.6418901
0.5988256
0.5440942
0.4726402
0.3853278
0.8220011
0.8129465
0.8028501
0.7915204
0.7787146
0.7641577
0.7474873
0.728165
0.7054896
0.6784868
0.6446302
0.6029287
0.5500564
0.481992
0.4024268
0.8307427
0.8226162
0.8136076
0.8035648
0.792298
0.7795987
0.7651965
0.7486907
0.7295759
0.7071677
0.6796216
0.646494
0.6056255
0.5540763
0.4883483
0.8383729
0.8310126
0.8228942
0.8138944
0.8038611
0.7926326
0.7800007
0.7656576
0.7492251
0.7302026
0.7071786
0.6799974
0.6471969
0.6068261
0.5560713
0.4231943
0.4866582
0.4073908
0.5440001
0.4740961
0.386363
0.5903346
0.5344817
0.4602867
0.3628882
0.6295408
0.5848304
0.5269499
0.4492307
0.3439394
0.6629647
0.6267116
0.5810605
0.5217167
0.441438
0.3309563
0.6914445
0.6616081
0.6249122
0.5786101
0.5182424
0.4364336
0.3229629
0.715809
0.6908965
0.6608541
0.6238649
0.5771244
0.5162451
0.4337234
0.3185116
0.7368192
0.715749
0.6907544
0.6605959
0.623436
0.5765708
0.5156147
0.4328043
0.3170244
0.7551242
0.7371066
0.7160289
0.6910197
0.6608347
0.6237332
0.5770369
0.5162296
0.4336838
0.3185247
0.7712644
0.7557176
0.7377468
0.716725
0.6917834
0.6617653
0.6249595
0.5786061
0.5183253
0.4367058
0.317889
0.7856909
0.7721827
0.7567308
0.7388757
0.7179972
0.6933051
0.6636715
0.6273315
0.5816478
0.5223976
0.4390292
0.3220881
0.7987571
0.7869612
0.7735927
0.7583104
0.7406645
0.720105
0.6958687
0.6667915
0.6312183
0.5866381
0.5266898
0.4454002
0.3318797
0.8106151
0.8002655
0.7886338
0.7754635
0.7604238
0.743125
0.7230405
0.6993804
0.6710723
0.6365597
0.5918961
0.5344944
0.4580489
0.3587309
0.821063
0.8119029
0.8016817
0.7902028
0.7772165
0.7624391
0.7454954
0.7258279
0.7027075
0.6751161
0.640413
0.5974581
0.5426231
0.4711531
0.3841158
0.8301674
0.82198
0.8128999
0.8027727
0.7914051
0.7785844
0.7640341
0.747345
0.7279991
0.7052935
0.6773381
0.6436445
0.6019631
0.5491854
0.4813786
0.8381104
0.8307238
0.8225748
0.8135392
0.8034636
0.7921846
0.7794922
0.7650752
0.7485513
0.7294137
0.7062361
0.6788513
0.6457725
0.6050086
0.5536675
0.845076
0.8383557
0.8309753
0.822833
0.8138044
0.803761
0.7925393
0.7798955
0.765538
0.7490877
0.7294248
0.7065494
0.6794235
0.6467216
0.6065232
0.4333539
0.4961954
0.4228884
0.55272
0.4864279
0.4067486
0.5973655
0.5438244
0.473613
0.3853175
0.6337305
0.5901948
0.5341128
0.4595134
0.3613398
0.6651479
0.62943
0.5845485
0.526387
0.4481674
0.342297
0.692486
0.6628761
0.6264924
0.5806398
0.5209646
0.4403618
0.3295257
0.716207
0.6913723
0.6614336
0.6245874
0.5780531
0.5174916
0.4355226
0.3214967
0.7368192
0.715749
0.6907544
0.6605959
0.623436
0.5765708
0.5156147
0.4328043
0.3170244
0.7548335
0.7367686
0.7156309
0.690544
0.6602551
0.6230102
0.5761072
0.5149813
0.4318802
0.3155248
0.7707106
0.7550809
0.7370068
0.7158539
0.6907419
0.6604963
0.6233767
0.5765712
0.5155932
0.4327559
0.3111997
0.7848514
0.7712268
0.755632
0.7375987
0.7164938
0.6915075
0.6614817
0.6246009
0.5781377
0.5176857
0.4321767
0.3105793
0.797603
0.7856579
0.7721085
0.756604
0.7386804
0.717768
0.6930741
0.6633865
0.6269712
0.5811775
0.5192792
0.4345491
0.3130179
0.809244
0.7987283
0.7868969
0.7734839
0.7581449
0.7404731
0.7199155
0.6956399
0.6665099
0.6308634
0.5843934
0.5236632
0.4401701
0.3202949
0.8198841
0.8105904
0.8002109
0.7885422
0.7753256
0.7602663
0.7429726
0.7228613
0.6991663
0.6708116
0.6349803
0.5902396
0.5324213
0.4555002
0.3558495
0.8293193
0.8210415
0.8118555
0.801603
0.7900853
0.7770837
0.7623127
0.7453495
0.7256573
0.7025051
0.6739265
0.6393437
0.5963509
0.5415608
0.4703545
0.8375876
0.8301483
0.8219382
0.8128308
0.8026705
0.7912905
0.7784765
0.7639113
0.7472036
0.7278343
0.7043453
0.6765428
0.642887
0.6013043
0.5487422
0.8448364
0.8380932
0.8306864
0.8225134
0.8134488
0.803363
0.7920908
0.7793864
0.7649549
0.7484129
0.7286302
0.7055998
0.6782683
0.6452876
0.6046984
0.8512202
0.8450604
0.8383219
0.8309201
0.8227521
0.8137149
0.8036782
0.7924466
0.7797911
0.7654192
0.7484237
0.7288957
0.7060752
0.6790393
0.6464833
0.4383419
0.5025311
0.4330617
0.5595115
0.495976
0.42229
0.6039702
0.5525539
0.4859766
0.4058018
0.6392436
0.5972339
0.5434797
0.4729
0.38394
0.6685189
0.6336222
0.5899202
0.5335678
0.4584937
0.3598017
0.6942804
0.6650597
0.6292124
0.5841316
0.5256447
0.4471117
0.3409107
0.7170784
0.6924138
0.6627018
0.6261682
0.5800847
0.520218
0.439458
0.32808
0.7371572
0.716147
0.6912302
0.6611754
0.6241588
0.5775002
0.5168624
0.434606
0.3200173
0.7548335
0.7367686
0.7156309
0.690544
0.6602551
0.6230102
0.5761072
0.5149813
0.4318802
0.3155248
0.7704577
0.7547901
0.7366688
0.7154561
0.6902663
0.6599167
0.6226537
0.5756415
0.5143447
0.430951
0.3081711
0.7843652
0.770673
0.7549954
0.7368589
0.7156228
0.690466
0.6602129
0.6230185
0.576103
0.5149534
0.4282147
0.3040601
0.7968599
0.7848185
0.7711526
0.7555051
0.7374032
0.7162642
0.6912762
0.6611964
0.6242401
0.5776662
0.5145531
0.4278372
0.3020972
0.8082146
0.797574
0.7855929
0.7719985
0.7564364
0.7384863
0.7175755
0.6928413
0.6630992
0.626608
0.5788705
0.516179
0.4293333
0.3021625
0.8186527
0.8092183
0.7986714
0.7868015
0.7733401
0.7579804
0.7403123
0.7197245
0.6954093
0.6662262
0.6291231
0.5821445
0.5200333
0.4336216
0.3044471
0.8282541
0.819862
0.8105418
0.8001298
0.7884211
0.7751886
0.7601352
0.7428202
0.7226821
0.6989522
0.6695441
0.6336909
0.5886901
0.5306319
0.4537821
0.8368172
0.8292999
0.820999
0.8117853
0.8014989
0.7899686
0.7769736
0.7621869
0.7452043
0.7254876
0.7015254
0.6730661
0.6384784
0.5955519
0.5409911
0.8443593
0.8375703
0.8301106
0.8218761
0.8127395
0.8025688
0.7911956
0.7783694
0.7637893
0.7470631
0.7270379
0.7036894
0.6759319
0.6423706
0.6009693
0.8510006
0.8448207
0.8380593
0.8306309
0.8224321
0.8133589
0.8032798
0.7919977
0.7792814
0.7648354
0.7477445
0.7280955
0.7051185
0.6778767
0.6450438
0.8568719
0.8512059
0.8450296
0.8382717
0.830847
0.8226717
0.8136409
0.803596
0.7923547
0.7796874
0.7648457
0.7479723
0.728497
0.7057578
0.6788467
0.5056652
0.438056
0.5640424
0.5023184
0.4324898
0.6091376
0.5593518
0.4955462
0.4214079
0.6444427
0.6038449
0.5522281
0.4853109
0.4045545
0.672966
0.6391411
0.5969754
0.5429707
0.4719604
0.3825726
0.6970545
0.6684324
0.6334093
0.5895142
0.532849
0.4574813
0.358504
0.7185805
0.6942084
0.6648863
0.6288903
0.5835817
0.5249077
0.4462236
0.3395073
0.7378974
0.7170183
0.6922716
0.6624438
0.6257405
0.5795337
0.5195914
0.4385474
0.3266193
0.7551242
0.7371066
0.7160289
0.6910197
0.6608347
0.6237332
0.5770369
0.5162296
0.4336838
0.3185247
0.7704577
0.7547901
0.7366688
0.7154561
0.6902663
0.6599167
0.6226537
0.5756415
0.5143447
0.430951
0.3081711
0.7841433
0.7704202
0.7547047
0.7365211
0.7152251
0.6899905
0.6596335
0.6222957
0.5751736
0.513705
0.4264062
0.3011137
0.7964296
0.7843323
0.7705989
0.7548687
0.7366635
0.7153933
0.690235
0.6599281
0.6226584
0.5756324
0.5118236
0.4239948
0.2960019
0.8075521
0.7968308
0.7847535
0.7710425
0.7553374
0.7372089
0.7160716
0.6910434
0.6609093
0.623877
0.5753576
0.5115654
0.4230002
0.2924255
0.8177288
0.8081888
0.7975166
0.7854965
0.771853
0.7562698
0.7383233
0.7173815
0.6926066
0.6628097
0.6248267
0.5765795
0.5125849
0.4233028
0.2893575
0.8271421
0.8186297
0.8091677
0.7985871
0.7866754
0.7731972
0.7578423
0.7401504
0.719532
0.695177
0.6648348
0.6273804
0.5794507
0.5155141
0.4249268
0.2771778
0.8358499
0.8282341
0.8198184
0.8104695
0.8000227
0.7883008
0.7750745
0.7600041
0.742668
0.722503
0.6979114
0.6685101
0.6324853
0.587354
0.5294291
0.8436563
0.8367995
0.8292616
0.820936
0.8116924
0.8013955
0.7898718
0.7768641
0.7620618
0.7450599
0.7246662
0.7008174
0.6723701
0.6378542
0.5951235
0.8505634
0.8443435
0.837536
0.8300546
0.8217941
0.8126488
0.8024847
0.7911014
0.778263
0.7636681
0.7463844
0.7264873
0.7031859
0.6755156
0.6421079
0.85667
0.8509863
0.8447898
0.8380089
0.8305575
0.8223513
0.8132846
0.8031972
0.7919052
0.7791771
0.7642582
0.7472885
0.7276911
0.7047953
0.6776799
0.8620874
0.8568588
0.8511777
0.8449838
0.8382053
0.8307743
0.8226052
0.8135675
0.8035144
0.7922634
0.7791869
0.7644559
0.7476323
0.7282303
0.7055988
0.5662901
0.5054558
0.4374967
0.6125965
0.5638867
0.5019019
0.4316466
0.6485247
0.6090164
0.5590387
0.494912
0.4202458
0.6771726
0.6443447
0.6035989
0.5517471
0.4844336
0.4033168
0.7007217
0.6728838
0.6389397
0.5965935
0.5422997
0.4710279
0.3814297
0.7209052
0.6969838
0.6682623
0.6330945
0.5889786
0.5321353
0.4566299
0.3571906
0.739174
0.7185206
0.6940668
0.6646296
0.6284654
0.5830357
0.5242882
0.4453273
0.3380864
0.755761
0.7378467
0.7169001
0.6920612
0.6621034
0.6253157
0.5790714
0.5189605
0.43763
0.3251432
0.7707106
0.7550809
0.7370068
0.7158539
0.6907419
0.6604963
0.6233767
0.5765712
0.5155932
0.4327559
0.3111997
0.7841433
0.7704202
0.7547047
0.7365211
0.7152251
0.6899905
0.6596335
0.6222957
0.5751736
0.513705
0.4264062
0.3011137
0.7962332
0.7841104
0.7703462
0.7545781
0.7363259
0.7149958
0.6897596
0.659349
0.621936
0.5747035
0.5105777
0.4222427
0.2932476
0.8071685
0.7964006
0.7842675
0.7704891
0.7547013
0.7364695
0.7152012
0.6900029
0.6596419
0.6222965
0.573331
0.5089267
0.4194176
0.2870288
0.8171344
0.8075262
0.7967735
0.7846572
0.7708971
0.7551708
0.737046
0.7158779
0.6908092
0.6606204
0.6220992
0.5731578
0.5082459
0.4176758
0.2815959
0.8263082
0.8177057
0.8081377
0.7974314
0.7853691
0.7717085
0.7561299
0.738159
0.7171859
0.69237
0.6613899
0.6230583
0.5739258
0.5084472
0.4164035
0.2721417
0.8348408
0.8271214
0.8185844
0.8090926
0.7984756
0.78655
0.7730772
0.7577031
0.7399872
0.719338
0.6940377
0.6634419
0.6252937
0.5761033
0.5095505
0.4103118
0.2616361
0.8427742
0.8358319
0.8281948
0.8197536
0.810374
0.7999162
0.7882006
0.7749605
0.7598731
0.7425159
0.7216323
0.6970627
0.6675436
0.6314461
0.5864565
0.8499195
0.8436403
0.8367648
0.8292047
0.8208526
0.8116001
0.8013097
0.7897756
0.7767551
0.7619374
0.7443609
0.7240729
0.7002449
0.6718682
0.6375196
0.856268
0.850549
0.8443122
0.8374852
0.8299805
0.8217126
0.8125737
0.8024011
0.7910078
0.7781574
0.7630825
0.7459154
0.7260647
0.7028427
0.6753039
0.8619011
0.8566568
0.8509579
0.8447438
0.8379422
0.8304845
0.8222845
0.8132107
0.8031151
0.7918135
0.7786735
0.7638646
0.7469438
0.7274196
0.7046328
0.8669148
0.8620753
0.8568328
0.8511358
0.8449232
0.8381393
0.8307141
0.8225391
0.8134946
0.8034334
0.7918226
0.7788468
0.7641624
0.7474049
0.7280966
0.6143165
0.5661364
0.5050456
0.4366718
0.6512643
0.612478
0.5635814
0.5012871
0.4305358
0.6804843
0.6484295
0.6087787
0.5585763
0.4940763
0.4190927
0.704199
0.6770937
0.6441521
0.6032354
0.5511131
0.4835631
0.4022877
0.7239835
0.7006543
0.6727223
0.638642
0.5960898
0.5416338
0.4702499
0.3802837
0.7411515
0.7208462
0.6968445
0.6680105
0.6326789
0.5884469
0.5315356
0.4557709
0.3558612
0.7568598
0.7391234
0.7184027
0.6938571
0.6642907
0.6280435
0.5825769
0.5236633
0.4444229
0.336648
0.7712644
0.7557176
0.7377468
0.716725
0.6917834
0.6617653
0.6249595
0.5786061
0.5183253
0.4367058
0.317889
0.7843652
0.770673
0.7549954
0.7368589
0.7156228
0.690466
0.6602129
0.6230185
0.576103
0.5149534
0.4282147
0.3040601
0.7962332
0.7841104
0.7703462
0.7545781
0.7363259
0.7149958
0.6897596
0.659349
0.621936
0.5747035
0.5105777
0.4222427
0.2932476
0.8069935
0.7962043
0.7840457
0.7702365
0.7544109
0.736132
0.7148038
0.6895278
0.6590633
0.6215748
0.5724063
0.5077232
0.4177816
0.2845738
0.8167904
0.8071428
0.7963434
0.7841714
0.770344
0.7545349
0.736307
0.7150081
0.6897696
0.6593543
0.620527
0.5712027
0.5057924
0.4145002
0.2771692
0.8257719
0.8171113
0.8074752
0.7966884
0.7845298
0.7707526
0.7550311
0.7368821
0.715683
0.6905735
0.6592063
0.6204057
0.5707152
0.5046038
0.4119044
0.267655
0.8340845
0.8262874
0.8176599
0.8080619
0.7973188
0.7852424
0.7715871
0.7559889
0.7379934
0.7169889
0.6912102
0.6599806
0.6210104
0.5708752
0.5037344
0.4073854
0.2594366
0.8418544
0.8348221
0.8270805
0.8185171
0.8089933
0.7983647
0.7864448
0.7729563
0.7575629
0.7398227
0.7183872
0.6928974
0.6617744
0.6227037
0.5716985
0.4995903
0.4016085
0.2497244
0.8491119
0.8427578
0.8357962
0.8281363
0.8196679
0.8102791
0.7998275
0.7881005
0.7748466
0.7597422
0.7417762
0.7209226
0.6962695
0.6667106
0.6307481
0.8556761
0.8499049
0.8436086
0.8367132
0.8291294
0.8207697
0.8115236
0.8012244
0.7896798
0.7766467
0.761335
0.7438562
0.7235933
0.6998321
0.6715992
0.8615303
0.8562547
0.8505204
0.8442659
0.837418
0.8299068
0.8216451
0.8124991
0.8023182
0.7909148
0.7776468
0.762678
0.7455555
0.7257768
0.7026683
0.8667424
0.861889
0.8566308
0.8509159
0.8446831
0.837876
0.8304241
0.8222182
0.8131375
0.8030337
0.7913702
0.7783303
0.7635672
0.7467124
0.7272832
0.8713953
0.8669036
0.8620514
0.8567943
0.8510803
0.844863
0.8380847
0.8306545
0.8224736
0.8134222
0.8030423
0.7915233
0.7785908
0.7639661
0.7472909
0.652629
0.6141992
0.5658348
0.5044402
0.4355851
0.6827116
0.6511709
0.6122453
0.5631305
0.5004771
0.4294337
0.7069425
0.6804076
0.6482427
0.6084274
0.5579669
0.4932472
0.4181358
0.7269082
0.7041341
0.6769387
0.6438673
0.6027561
0.550484
0.4828401
0.4012614
0.7437735
0.7239271
0.7005217
0.6724833
0.6382491
0.5955898
0.5410786
0.4694713
0.3791347
0.7585631
0.7411015
0.7207301
0.6966384
0.6676781
0.6322663
0.5880001
0.5309309
0.4549042
0.3545156
0.7722204
0.7568164
0.7390236
0.718228
0.6935802
0.6639542
0.6276889
0.5821143
0.5230331
0.4435101
0.3295648
0.7848514
0.7712268
0.755632
0.7375987
0.7164938
0.6915075
0.6614817
0.6246009
0.5781377
0.5176857
0.4321767
0.3105793
0.7964296
0.7843323
0.7705989
0.7548687
0.7366635
0.7153933
0.690235
0.6599281
0.6226584
0.5756324
0.5118236
0.4239948
0.2960019
0.8069935
0.7962043
0.7840457
0.7702365
0.7544109
0.736132
0.7148038
0.6895278
0.6590633
0.6215748
0.5724063
0.5077232
0.4177816
0.2845738
0.8166334
0.8069678
0.7961472
0.7839497
0.7700916
0.7542448
0.7359698
0.7146111
0.6892951
0.6587764
0.6198098
0.5703113
0.5046715
0.4130371
0.2751088
0.8254617
0.8167673
0.8070919
0.7962586
0.7840444
0.7701998
0.7543957
0.7361438
0.7148141
0.6895352
0.6579484
0.6188911
0.5689008
0.5024337
0.4092759
0.2646056
0.8335983
0.8257511
0.8170656
0.8073996
0.796576
0.7844033
0.7706315
0.7548906
0.7367172
0.7154869
0.6894201
0.6578594
0.6185255
0.5680376
0.5006682
0.4047026
0.2568601
0.8411653
0.8340657
0.8262462
0.817592
0.8079616
0.7972068
0.785136
0.7714647
0.7558469
0.7378266
0.7160227
0.690059
0.6583487
0.6186581
0.5674073
0.497599
0.4002143
0.2486197
0.8482701
0.8418374
0.8347851
0.8270199
0.8184281
0.8088946
0.7982717
0.7863388
0.7728345
0.7574217
0.7390166
0.7174355
0.6915324
0.6597061
0.6193014
0.5643681
0.4937003
0.3945524
0.2402995
0.854934
0.8490969
0.8427253
0.8357432
0.828059
0.8195827
0.8102
0.7997389
0.7880005
0.7747327
0.7591059
0.7411736
0.7202594
0.6955861
0.6661512
0.8609844
0.8556626
0.8498759
0.8435616
0.8366449
0.8290546
0.820701
0.8114475
0.8011395
0.7895845
0.7761221
0.7609003
0.7434483
0.7232475
0.6996108
0.8663993
0.8615181
0.8562285
0.850478
0.8442046
0.8373511
0.8298459
0.8215781
0.812425
0.8022357
0.7904657
0.7772944
0.7623677
0.7453104
0.7256305
0.8712353
0.8667312
0.861865
0.8565921
0.8508602
0.8446226
0.8378211
0.8303641
0.8221523
0.8130647
0.8026404
0.7910682
0.7780709
0.7633675
0.7465962
0.8755643
0.8713849
0.8668815
0.8620159
0.8567434
0.8510252
0.8448132
0.8380305
0.8305952
0.8224086
0.8130728
0.8027767
0.791298
0.7784196
0.7638677
0.6838226
0.6525365
0.613969
0.5653894
0.5036424
0.4345069
0.7087907
0.6826361
0.6509876
0.6119015
0.5625361
0.4996734
0.4285195
0.7292197
0.7068792
0.6802567
0.6479664
0.6079641
0.5573621
0.4925596
0.4171831
0.7462689
0.7268538
0.7040065
0.6767093
0.6434917
0.6022805
0.5499617
0.4821197
0.4002378
0.7608243
0.7437257
0.7238162
0.7003254
0.6721679
0.6378592
0.5951731
0.5405232
0.4686921
0.3779827
0.7737033
0.7585202
0.7410031
0.720558
0.6963662
0.6673481
0.6319197
0.5875497
0.5303211
0.4540298
0.3478902
0.7856909
0.7721827
0.7567308
0.7388757
0.7179972
0.6933051
0.6636715
0.6273315
0.5816478
0.5223976
0.4390292
0.3220881
0.7968599
0.7848185
0.7711526
0.7555051
0.7374032
0.7162642
0.6912762
0.6611964
0.6242401
0.5776662
0.5145531
0.4278372
0.3020972
0.8071685
0.7964006
0.7842675
0.7704891
0.7547013
0.7364695
0.7152012
0.6900029
0.6596419
0.6222965
0.573331
0.5089267
0.4194176
0.2870288
0.8166334
0.8069678
0.7961472
0.7839497
0.7700916
0.7542448
0.7359698
0.7146111
0.6892951
0.6587764
0.6198098
0.5703113
0.5046715
0.4130371
0.2751088
0.8253201
0.8166104
0.806917
0.7960624
0.7838228
0.7699475
0.7541057
0.7358069
0.7144176
0.6890614
0.6573748
0.6182007
0.5680721
0.5014331
0.4080336
0.2630871
0.833317
0.8254409
0.8167218
0.8070165
0.7961464
0.7839181
0.7700791
0.7542558
0.7359798
0.7146192
0.6883895
0.6566489
0.6171219
0.5664357
0.4988739
0.4028324
0.2548541
0.8407224
0.8335794
0.82571
0.8169979
0.8072995
0.7964642
0.7842972
0.7705096
0.7547493
0.7365514
0.7145272
0.6883217
0.656364
0.6164654
0.565148
0.4957705
0.3985552
0.2471271
0.8476397
0.8411482
0.8340284
0.826185
0.8175022
0.807862
0.7971128
0.7850288
0.7713414
0.7557038
0.7370087
0.7150637
0.6887262
0.6564752
0.6159873
0.5629028
0.492739
0.3937331
0.2396581
0.8541607
0.8482545
0.8418037
0.8347301
0.8269396
0.8183395
0.8088117
0.7981779
0.786232
0.7727118
0.7567292
0.7382097
0.7162964
0.6898401
0.6569926
0.6136532
0.5600584
0.4889343
0.3886874
0.2328097
0.8603002
0.8549202
0.8490672
0.8426771
0.8356731
0.8279822
0.8195118
0.810121
0.7996504
0.7879005
0.7741792
0.7585875
0.7406105
0.719688
0.6951271
0.8658944
0.860972
0.855636
0.8498329
0.8434994
0.836577
0.8289926
0.8206327
0.8113718
0.8010551
0.7891234
0.7757437
0.760549
0.7431543
0.7230621
0.870917
0.866388
0.8614939
0.8561895
0.8504219
0.8441437
0.8372958
0.8297853
0.8215115
0.8123514
0.8018375
0.7901557
0.777024
0.7621564
0.7451858
0.8754155
0.8712249
0.866709
0.8618294
0.856541
0.8508049
0.8445726
0.8377667
0.8303046
0.822087
0.8127135
0.8023726
0.7908399
0.7778969
0.7632672
0.8794528
0.8755547
0.8713644
0.8668487
0.861969
0.8566927
0.8509796
0.8447638
0.8379767
0.8305364
0.8220945
0.8128356
0.8025769
0.7911473
0.7783338
0.7097137
0.6837478
0.6523549
0.6136287
0.5648023
0.5028508
0.4336127
0.730779
0.7087283
0.6824878
0.6507165
0.6114481
0.5619464
0.4990072
0.42761
0.748244
0.7291666
0.7067547
0.6800334
0.6476019
0.6075044
0.5568608
0.4918755
0.4162349
0.7629792
0.7462227
0.7267468
0.7038175
0.6764066
0.6431189
0.6018858
0.5494416
0.4814019
0.3992171
0.7756739
0.7607832
0.7436316
0.723652
0.7000663
0.6718547
0.6375342
0.5947564
0.5399676
0.4679124
0.372365
0.7869938
0.7736661
0.7584357
0.7408572
0.7203308
0.6960958
0.6670709
0.6315704
0.5870957
0.5297062
0.4497372
0.3408049
0.797603
0.7856579
0.7721085
0.756604
0.7386804
0.717768
0.6930741
0.6633865
0.6269712
0.5811775
0.5192792
0.4345491
0.3130179
0.8075521
0.7968308
0.7847535
0.7710425
0.7553374
0.7372089
0.7160716
0.6910434
0.6609093
0.623877
0.5753576
0.5115654
0.4230002
0.2924255
0.8167904
0.8071428
0.7963434
0.7841714
0.770344
0.7545349
0.736307
0.7150081
0.6897696
0.6593543
0.620527
0.5712027
0.5057924
0.4145002
0.2771692
0.8253201
0.8166104
0.806917
0.7960624
0.7838228
0.7699475
0.7541057
0.7358069
0.7144176
0.6890614
0.6573748
0.6182007
0.5680721
0.5014331
0.4080336
0.2630871
0.8331887
0.8252994
0.816565
0.8068417
0.7959504
0.7836967
0.769827
0.7539662
0.7356433
0.7142233
0.6879196
0.6560972
0.6164807
0.5656969
0.4980247
0.401886
0.253789
0.8404663
0.8332982
0.8253999
0.8166543
0.8069167
0.7960349
0.7838124
0.7699578
0.7541153
0.735815
0.7136666
0.6873307
0.6552433
0.6152276
0.5638251
0.4944922
0.39724
0.2458536
0.8472347
0.8407053
0.8335422
0.825649
0.8169082
0.8072
0.7963705
0.7841905
0.7703871
0.7546071
0.7357398
0.7136133
0.6871021
0.654726
0.6142439
0.561557
0.4915948
0.3926394
0.2387417
0.8535819
0.8476241
0.8411143
0.833973
0.8261041
0.8174129
0.8077783
0.7970181
0.7849208
0.7712172
0.755002
0.7361968
0.7139533
0.6871965
0.65435
0.6125236
0.5593466
0.4883536
0.3881041
0.2323798
0.8595877
0.8541465
0.8482238
0.8417537
0.8346574
0.8268598
0.8182652
0.8087281
0.7980834
0.7861243
0.7721103
0.756036
0.737244
0.7148848
0.6876222
0.6524964
0.6103461
0.5565814
0.4849801
0.3838486
0.2269456
0.8652617
0.8602876
0.8548929
0.8490231
0.8426132
0.8356035
0.8279182
0.8194409
0.8100421
0.7995619
0.7874146
0.7737285
0.7581032
0.7401253
0.7193042
0.8704487
0.8658829
0.8609476
0.8555965
0.849776
0.8434375
0.8365207
0.8289309
0.8205647
0.8112965
0.8006466