/*--------------------------------*- C++ -*----------------------------------*\
| =========                 |                                                 |
| \\      /  F ield         | OpenFOAM: The Open Source CFD Toolbox           |
|  \\    /   O peration     | Version:  2306                                  |
|   \\  /    A nd           | Website:  www.openfoam.com                      |
|    \\/     M anipulation  |                                                 |
\*---------------------------------------------------------------------------*/
FoamFile
{
    version     2.0;
    format      ascii;
    arch        "LSB;label=32;scalar=64";
    class       volScalarField;
    location    "0.3/fuel";
    object      iDmdtfuel.H2;
}
// * * * * * * * * * * * * * * * * * * * * * * * * * * * * * * * * * * * * * //

dimensions      [1 -3 -1 0 0 0 0];

internalField   nonuniform List<scalar> 
16000
(
-11.58064
-11.66882
-10.42543
-11.05631
-11.84419
-10.47973
-11.13761
-9.407218
-9.983435
-10.68572
-12.10628
-10.58502
-11.29913
-9.447092
-10.0338
-10.76243
-8.588222
-9.032486
-9.668571
-10.45571
-12.4427
-10.73622
-11.54023
-9.523536
-10.13136
-10.91477
-8.619988
-9.06965
-9.716248
-10.52985
-7.913947
-8.264173
-8.76397
-9.470827
-10.35225
-12.79708
-10.91857
-11.84931
-9.631206
-10.27138
-11.14211
-8.680491
-9.140842
-9.808562
-10.67709
-7.94034
-8.293896
-8.799261
-9.51693
-10.42553
-7.34289
-7.629339
-8.031013
-8.593969
-9.379551
-0
-13.05354
-11.09365
-12.17431
-9.756872
-10.44014
-11.43353
-8.764613
-9.241076
-9.941037
-10.89697
-7.9904
-8.350467
-8.866832
-9.606192
-10.57118
-7.365413
-7.654115
-8.059312
-8.628133
-9.425038
-0
-6.849506
-7.090046
-7.423927
-7.882625
-8.514351
-0
-0
-13.20473
-11.20774
-12.40835
-9.871168
-10.60201
-11.74002
-8.860605
-9.35801
-10.1007
-11.17924
-8.059329
-8.429094
-8.961957
-9.734327
-10.78901
-7.408031
-7.701073
-8.113145
-8.693537
-9.513136
-0
-6.869078
-7.111246
-7.447568
-7.910055
-8.548039
-0
-0
-6.416528
-6.622866
-6.907117
-7.292729
-7.812603
-0
-0
-0
-13.28379
-11.26651
-12.54557
-9.939791
-10.70711
-11.95995
-8.944603
-9.464279
-10.25383
-11.47674
-8.136638
-8.518774
-9.072926
-9.888876
-11.0694
-7.466295
-7.765707
-8.187955
-8.785628
-9.639695
-0
-6.906059
-7.151335
-7.492351
-7.962222
-8.612543
-0
-0
-6.43378
-6.641333
-6.927386
-7.31567
-7.839653
-0
-0
-0
-6.031831
-6.21192
-6.458576
-6.789976
-7.230569
-0
-0
-0
-0
-13.31689
-11.29292
-12.61694
-9.970454
-10.76103
-12.08846
-8.991769
-9.527897
-10.35293
-11.6898
-8.202246
-8.597176
-9.173739
-10.03722
-11.36609
-7.530753
-7.838157
-8.273269
-8.893102
-9.792554
-0
-6.956325
-7.206117
-7.553981
-8.034725
-8.703406
-0
-0
-6.466347
-6.676201
-6.965692
-7.359119
-7.8911
-0
-0
-0
-6.0472
-6.228231
-6.476261
-6.809667
-7.253199
-0
-0
-0
-0
-5.686858
-5.846019
-6.06336
-6.353165
-6.734359
-0
-0
-0
-0
-0
-13.31689
-11.30252
-12.6467
-9.981301
-10.78514
-12.1551
-9.009975
-9.556215
-10.40361
-11.81415
-8.236985
-8.641065
-9.233891
-10.13295
-11.57849
-7.584102
-7.899568
-8.347805
-8.990759
-9.939514
-0
-7.011329
-7.266682
-7.623043
-8.117423
-8.809534
-0
-0
-6.510399
-6.723575
-7.018027
-7.418912
-7.962624
-0
-0
-0
-6.076215
-6.259004
-6.509637
-6.846872
-7.296059
-0
-0
-0
-0
-5.700682
-5.860578
-6.079005
-6.370363
-6.75379
-0
-0
-0
-0
-0
-5.375129
-5.517268
-5.710923
-5.9679
-6.303068
-0
-0
-0
-0
-0
-0
-13.28379
-11.30252
-12.6467
-9.984054
-10.79385
-12.18282
-9.014317
-9.566168
-10.42621
-11.87863
-8.248412
-8.657918
-9.260564
-10.18182
-11.70261
-7.610899
-7.931961
-8.38937
-9.048816
-10.03412
-0
-7.055924
-7.31673
-7.681521
-8.18965
-8.906019
-0
-0
-6.558176
-6.775371
-7.075862
-7.485916
-8.044245
-0
-0
-0
-6.115336
-6.300607
-6.554969
-6.8977
-7.355054
-0
-0
-0
-0
-5.726785
-5.888046
-6.108505
-6.402812
-6.790505
-0
-0
-0
-0
-0
-5.387655
-5.530385
-5.724905
-5.983128
-6.320047
-0
-0
-0
-0
-0
-0
-5.091586
-5.219672
-5.393822
-5.624012
-5.922521
-0
-0
-0
-0
-0
-0
-0
-13.20473
-11.29292
-12.61694
-9.984054
-10.79385
-12.18282
-9.014338
-9.568663
-10.43435
-11.90546
-8.249451
-8.661875
-9.269889
-10.20359
-11.76715
-7.618263
-7.942526
-8.405238
-9.074471
-10.08238
-0
-7.077285
-7.341751
-7.712226
-8.229749
-8.963156
-0
-0
-6.596267
-6.817286
-7.123587
-7.54261
-8.11552
-0
-0
-0
-6.157474
-6.345686
-6.604506
-6.953862
-7.421183
-0
-0
-0
-0
-5.761878
-5.925062
-6.148375
-6.446881
-6.84067
-0
-0
-0
-0
-0
-5.411323
-5.55514
-5.751275
-6.011835
-6.352081
-0
-0
-0
-0
-0
-0
-5.103009
-5.231576
-5.406436
-5.637634
-5.937561
-0
-0
-0
-0
-0
-0
-0
-4.83221
-4.94854
-5.1064
-5.314334
-5.582709
-0
-0
-0
-0
-0
-0
-0
-0
-13.05354
-11.26651
-12.54557
-9.981301
-10.78514
-12.1551
-9.014338
-9.568663
-10.43435
-11.90546
-8.248167
-8.661848
-9.272204
-10.21143
-11.79408
-7.617478
-7.943405
-8.408902
-9.083408
-10.10392
-0
-7.082053
-7.348526
-7.722142
-8.244963
-8.98832
-0
-0
-6.613757
-6.837247
-7.147314
-7.572219
-8.154893
-0
-0
-0
-6.190611
-6.381548
-6.644524
-7.000156
-7.477102
-0
-0
-0
-0
-5.799455
-5.964892
-6.191548
-6.495027
-6.896108
-0
-0
-0
-0
-0
-5.443067
-5.588402
-5.786797
-6.05063
-6.395592
-0
-0
-0
-0
-0
-0
-5.124612
-5.254057
-5.430231
-5.663318
-5.965913
-0
-0
-0
-0
-0
-0
-0
-4.842684
-4.959412
-5.11786
-5.326632
-5.596168
-0
-0
-0
-0
-0
-0
-0
-0
-4.593888
-4.700142
-4.844222
-5.03341
-5.276581
-0
-0
-0
-0
-0
-0
-0
-0
-0
-12.79708
-11.20774
-12.40835
-9.970454
-10.76103
-12.08846
-9.014317
-9.566168
-10.42621
-11.87863
-8.248167
-8.661848
-9.272204
-10.21143
-11.79408
-7.61553
-7.942155
-8.408832
-9.085615
-10.1117
-0
-7.080221
-7.34769
-7.722883
-8.24842
-8.997067
-0
-0
-6.616818
-6.841592
-7.153635
-7.581682
-8.169731
-0
-0
-0
-6.20528
-6.3979
-6.663457
-7.023029
-7.506133
-0
-0
-0
-0
-5.828668
-5.996137
-6.225825
-6.533867
-6.941762
-0
-0
-0
-0
-0
-5.476895
-5.62398
-5.824993
-6.092624
-6.443131
-0
-0
-0
-0
-0
-0
-5.153531
-5.284192
-5.462191
-5.697911
-6.004231
-0
-0
-0
-0
-0
-0
-0
-4.862511
-4.979963
-5.139496
-5.349827
-5.621543
-0
-0
-0
-0
-0
-0
-0
-0
-4.603534
-4.710123
-4.8547
-5.044592
-5.288736
-0
-0
-0
-0
-0
-0
-0
-0
-0
-4.374047
-4.471583
-4.603755
-4.776964
-4.998773
-0
-0
-0
-0
-0
-0
-0
-0
-0
-0
-12.4427
-11.09365
-12.17431
-9.939791
-10.70711
-11.95995
-9.009975
-9.556215
-10.40361
-11.81415
-8.249451
-8.661875
-9.269889
-10.20359
-11.76715
-7.61553
-7.942155
-8.408832
-9.085615
-10.1117
-0
-7.077941
-7.345811
-7.721647
-8.248313
-8.999222
-0
-0
-6.614394
-6.839766
-7.15274
-7.582308
-8.173048
-0
-0
-0
-6.207214
-6.400645
-6.667468
-7.029018
-7.515306
-0
-0
-0
-0
-5.841192
-6.009859
-6.241336
-6.552111
-6.964167
-0
-0
-0
-0
-0
-5.502949
-5.651564
-5.854889
-6.125911
-6.481435
-0
-0
-0
-0
-0
-0
-5.184227
-5.316269
-5.49635
-5.735093
-6.045708
-0
-0
-0
-0
-0
-0
-0
-4.889017
-5.007457
-5.168485
-5.380976
-5.655724
-0
-0
-0
-0
-0
-0
-0
-0
-4.621818
-4.729011
-4.874498
-5.065698
-5.311662
-0
-0
-0
-0
-0
-0
-0
-0
-0
-4.382966
-4.480787
-4.613384
-4.787194
-5.00983
-0
-0
-0
-0
-0
-0
-0
-0
-0
-0
-4.170472
-4.260471
-4.382264
-4.541585
-4.745081
-0
-0
-0
-0
-0
-0
-0
-0
-0
-0
-12.10628
-10.91857
-11.84931
-9.871168
-10.60201
-11.74002
-8.991769
-9.527897
-10.35293
-11.6898
-8.248412
-8.657918
-9.260564
-10.18182
-11.70261
-7.617478
-7.943405
-8.408902
-9.083408
-10.10392
-0
-7.077941
-7.345811
-7.721647
-8.248313
-8.999222
-0
-0
-6.611969
-6.837568
-7.1509
-7.581068
-8.172906
-0
-0
-0
-6.204484
-6.398255
-6.665625
-7.028058
-7.515829
-0
-0
-0
-0
-5.84235
-6.011547
-6.243826
-6.555871
-6.969928
-0
-0
-0
-0
-0
-5.513817
-5.663283
-5.867907
-6.140854
-6.499293
-0
-0
-0
-0
-0
-0
-5.207691
-5.340904
-5.52277
-5.764143
-6.078541
-0
-0
-0
-0
-0
-0
-0
-4.917068
-5.036605
-5.199317
-5.414253
-5.692462
-0
-0
-0
-0
-0
-0
-0
-0
-4.646232
-4.754245
-4.900976
-5.093972
-5.342451
-0
-0
-0
-0
-0
-0
-0
-0
-0
-4.399895
-4.498227
-4.6316
-4.806522
-5.030698
-0
-0
-0
-0
-0
-0
-0
-0
-0
-0
-4.178733
-4.268992
-4.391151
-4.550992
-4.755199
-0
-0
-0
-0
-0
-0
-0
-0
-0
-0
-3.981311
-4.064738
-4.177478
-4.324632
-4.512149
-0
-0
-0
-0
-0
-0
-0
-0
-0
-0
-11.84419
-10.73622
-11.54023
-9.756872
-10.44014
-11.43353
-8.944603
-9.464279
-10.25383
-11.47674
-8.236985
-8.641065
-9.233891
-10.13295
-11.57849
-7.618263
-7.942526
-8.405238
-9.074471
-10.08238
-0
-7.080221
-7.34769
-7.722883
-8.24842
-8.997067
-0
-0
-6.611969
-6.837568
-7.1509
-7.581068
-8.172906
-0
-0
-0
-6.20203
-6.395914
-6.663476
-7.02623
-7.514567
-0
-0
-0
-0
-5.839479
-6.008866
-6.241443
-6.553992
-6.968893
-0
-0
-0
-0
-0
-5.514449
-5.664246
-5.869393
-6.143146
-6.502869
-0
-0
-0
-0
-0
-0
-5.217257
-5.351078
-5.533889
-5.776681
-6.09316
-0
-0
-0
-0
-0
-0
-0
-4.938387
-5.058819
-5.222934
-5.439941
-5.721122
-0
-0
-0
-0
-0
-0
-0
-0
-4.672007
-4.780917
-4.929022
-5.124029
-5.375341
-0
-0
-0
-0
-0
-0
-0
-0
-0
-4.42247
-4.5215
-4.655926
-4.832364
-5.058656
-0
-0
-0
-0
-0
-0
-0
-0
-0
-0
-4.194432
-4.285159
-4.407986
-4.568786
-4.774316
-0
-0
-0
-0
-0
-0
-0
-0
-0
-0
-3.988999
-4.072637
-4.185713
-4.33332
-4.521456
-0
-0
-0
-0
-0
-0
-0
-0
-0
-0
-3.805108
-3.882649
-3.987435
-4.123916
-4.297382
-0
-0
-0
-0
-0
-0
-0
-0
-0
-0
-11.66882
-10.58502
-11.29913
-9.631206
-10.27138
-11.14211
-8.860605
-9.35801
-10.1007
-11.17924
-8.202246
-8.597176
-9.173739
-10.03722
-11.36609
-7.610899
-7.931961
-8.38937
-9.048816
-10.03412
-0
-7.082053
-7.348526
-7.722142
-8.244963
-8.98832
-0
-0
-6.614394
-6.839766
-7.15274
-7.582308
-8.173048
-0
-0
-0
-6.20203
-6.395914
-6.663476
-7.02623
-7.514567
-0
-0
-0
-0
-5.837056
-6.006494
-6.239155
-6.551863
-6.967051
-0
-0
-0
-0
-0
-5.511545
-5.661428
-5.866731
-6.140744
-6.500934
-0
-0
-0
-0
-0
-0
-5.217533
-5.351548
-5.534688
-5.778008
-6.095302
-0
-0
-0
-0
-0
-0
-0
-4.946925
-5.067779
-5.23259
-5.450649
-5.733384
-0
-0
-0
-0
-0
-0
-0
-0
-4.691507
-4.801125
-4.950339
-5.147006
-5.400692
-0
-0
-0
-0
-0
-0
-0
-0
-0
-4.446227
-4.546038
-4.681614
-4.859723
-5.088373
-0
-0
-0
-0
-0
-0
-0
-0
-0
-0
-4.215357
-4.306703
-4.430442
-4.592544
-4.799877
-0
-0
-0
-0
-0
-0
-0
-0
-0
-0
-4.003634
-4.087644
-4.201333
-4.349775
-4.539062
-0
-0
-0
-0
-0
-0
-0
-0
-0
-0
-3.812285
-3.890007
-3.995074
-4.131971
-4.30598
-0
-0
-0
-0
-0
-0
-0
-0
-0
-0
-3.640558
-3.712847
-3.810483
-3.937537
-4.098626
-0
-0
-0
-0
-0
-0
-0
-0
-0
-0
-11.58064
-10.47973
-11.13761
-9.523536
-10.13136
-10.91477
-8.764613
-9.241076
-9.941037
-10.89697
-8.136638
-8.518774
-9.072926
-9.888876
-11.0694
-7.584102
-7.899568
-8.347805
-8.990759
-9.939513
-0
-7.077285
-7.341751
-7.712226
-8.229749
-8.963156
-0
-0
-6.616818
-6.841592
-7.153635
-7.581682
-8.169731
-0
-0
-0
-6.204484
-6.398255
-6.665625
-7.028058
-7.515829
-0
-0
-0
-0
-5.837056
-6.006494
-6.239155
-6.551863
-6.967051
-0
-0
-0
-0
-0
-5.509194
-5.659084
-5.864411
-6.13848
-6.498797
-0
-0
-0
-0
-0
-0
-5.214667
-5.3487
-5.531895
-5.775338
-6.092858
-0
-0
-0
-0
-0
-0
-0
-4.94697
-5.067918
-5.232924
-5.451316
-5.734586
-0
-0
-0
-0
-0
-0
-0
-0
-4.699191
-4.809127
-4.958845
-5.156305
-5.411162
-0
-0
-0
-0
-0
-0
-0
-0
-0
-4.464115
-4.564544
-4.701025
-4.880474
-5.111055
-0
-0
-0
-0
-0
-0
-0
-0
-0
-0
-4.237365
-4.329346
-4.454098
-4.61762
-4.826937
-0
-0
-0
-0
-0
-0
-0
-0
-0
-0
-4.023134
-4.107636
-4.222139
-4.371721
-4.562569
-0
-0
-0
-0
-0
-0
-0
-0
-0
-0
-3.82597
-3.904013
-4.009585
-4.147247
-4.322266
-0
-0
-0
-0
-0
-0
-0
-0
-0
-0
-3.647267
-3.719723
-3.817605
-3.945012
-4.106599
-0
-0
-0
-0
-0
-0
-0
-0
-0
-0
-3.486418
-3.55411
-3.645337
-3.763898
-3.914011
-0
-0
-0
-0
-0
-0
-0
-0
-0
-0
-10.42543
-11.05631
-9.447092
-10.0338
-10.76243
-8.680491
-9.140842
-9.808562
-10.67709
-8.059329
-8.429094
-8.961957
-9.734327
-10.78901
-7.530753
-7.838157
-8.273269
-8.893102
-9.792554
-0
-7.055924
-7.31673
-7.681521
-8.18965
-8.906019
-0
-0
-6.613757
-6.837247
-7.147314
-7.572219
-8.154893
-0
-0
-0
-6.207214
-6.400645
-6.667468
-7.029018
-7.515306
-0
-0
-0
-0
-5.839479
-6.008866
-6.241443
-6.553992
-6.968893
-0
-0
-0
-0
-0
-5.509194
-5.659084
-5.864411
-6.13848
-6.498797
-0
-0
-0
-0
-0
-0
-5.21241
-5.346422
-5.529601
-5.773042
-6.090589
-0
-0
-0
-0
-0
-0
-0
-4.944191
-5.065106
-5.230103
-5.448522
-5.731882
-0
-0
-0
-0
-0
-0
-0
-0
-4.699062
-4.809055
-4.958868
-5.156527
-5.411722
-0
-0
-0
-0
-0
-0
-0
-0
-0
-4.471073
-4.57175
-4.708624
-4.888667
-5.120146
-0
-0
-0
-0
-0
-0
-0
-0
-0
-0
-4.253906
-4.346339
-4.471888
-4.636526
-4.847427
-0
-0
-0
-0
-0
-0
-0
-0
-0
-0
-0
-4.04362
-4.128634
-4.243986
-4.394826
-4.587378
-0
-0
-0
-0
-0
-0
-0
-0
-0
-0
-3.844197
-3.922661
-4.028908
-4.167592
-4.343987
-0
-0
-0
-0
-0
-0
-0
-0
-0
-0
-3.660075
-3.732832
-3.831158
-3.959212
-4.121723
-0
-0
-0
-0
-0
-0
-0
-0
-0
-0
-3.492706
-3.560543
-3.651996
-3.77087
-3.921413
-0
-0
-0
-0
-0
-0
-0
-0
-0
-0
-3.341715
-3.405266
-3.490831
-3.601755
-3.741968
-0
-0
-0
-0
-0
-0
-0
-0
-0
-0
-9.407218
-9.983435
-10.68572
-8.619988
-9.06965
-9.716248
-10.52985
-7.9904
-8.350467
-8.866832
-9.606192
-10.57118
-7.466295
-7.765707
-8.187955
-8.785628
-9.639695
-0
-7.011329
-7.266682
-7.623043
-8.117423
-8.809534
-0
-0
-6.596267
-6.817286
-7.123587
-7.54261
-8.11552
-0
-0
-0
-6.20528
-6.3979
-6.663457
-7.023029
-7.506133
-0
-0
-0
-0
-5.84235
-6.011547
-6.243826
-6.555871
-6.969928
-0
-0
-0
-0
-0
-5.511545
-5.661428
-5.866731
-6.140744
-6.500934
-0
-0
-0
-0
-0
-0
-5.21241
-5.346422
-5.529601
-5.773042
-6.090589
-0
-0
-0
-0
-0
-0
-0
-4.942043
-5.062916
-5.227871
-5.446251
-5.729584
-0
-0
-0
-0
-0
-0
-0
-0
-4.696377
-4.806326
-4.956084
-5.153708
-5.408901
-0
-0
-0
-0
-0
-0
-0
-0
-0
-4.470843
-4.571518
-4.708451
-4.888594
-5.120277
-0
-0
-0
-0
-0
-0
-0
-0
-0
-0
-4.260289
-4.352868
-4.478735
-4.643848
-4.855438
-0
-0
-0
-0
-0
-0
-0
-0
-0
-0
-0
-4.058994
-4.144364
-4.260335
-4.412165
-4.606052
-0
-0
-0
-0
-0
-0
-0
-0
-0
-0
-0
-0
-3.863326
-3.942228
-4.049184
-4.188942
-4.366853
-0
-0
-0
-0
-0
-0
-0
-0
-0
-0
-3.677124
-3.75028
-3.849196
-3.978115
-4.141865
-0
-0
-0
-0
-0
-0
-0
-0
-0
-0
-3.504734
-3.572822
-3.664691
-3.784139
-3.935475
-0
-0
-0
-0
-0
-0
-0
-0
-0
-0
-3.347618
-3.4113
-3.497065
-3.608278
-3.748874
-0
-0
-0
-0
-0
-0
-0
-0
-0
-0
-3.205564
-3.265402
-3.345846
-3.449981
-3.581272
-0
-0
-0
-0
-0
-0
-0
-0
-0
-0
-8.588223
-9.032486
-9.668571
-10.45571
-7.94034
-8.293896
-8.799261
-9.51693
-10.42553
-7.408031
-7.701073
-8.113145
-8.693537
-9.513136
-0
-6.956325
-7.206117
-7.553981
-8.034725
-8.703406
-0
-0
-6.558176
-6.775371
-7.075862
-7.485916
-8.044245
-0
-0
-0
-6.190611
-6.381548
-6.644524
-7.000156
-7.477102
-0
-0
-0
-0
-5.841192
-6.009859
-6.241336
-6.552111
-6.964167
-0
-0
-0
-0
-0
-5.514449
-5.664246
-5.869393
-6.143146
-6.502869
-0
-0
-0
-0
-0
-0
-5.214667
-5.3487
-5.531895
-5.775338
-6.092858
-0
-0
-0
-0
-0
-0
-0
-4.942043
-5.062916
-5.227871
-5.446251
-5.729584
-0
-0
-0
-0
-0
-0
-0
-0
-4.694334
-4.804239
-4.953937
-5.151499
-5.406629
-0
-0
-0
-0
-0
-0
-0
-0
-0
-4.468282
-4.56888
-4.705749
-4.885813
-5.117435
-0
-0
-0
-0
-0
-0
-0
-0
-0
-0
-4.260011
-4.352546
-4.478415
-4.64359
-4.855284
-0
-0
-0
-0
-0
-0
-0
-0
-0
-0
-0
-4.064898
-4.150359
-4.266541
-4.418763
-4.613212
-0
-0
-0
-0
-0
-0
-0
-0
-0
-0
-0
-0
-3.87765
-3.956864
-4.06433
-4.204883
-4.383984
-0
-0
-0
-0
-0
-0
-0
-0
-0
-0
-0
-0
-0
-3.695005
-3.768568
-3.868105
-3.997941
-4.163
-0
-0
-0
-0
-0
-0
-0
-0
-0
-0
-3.520748
-3.589157
-3.681581
-3.801795
-3.954195
-0
-0
-0
-0
-0
-0
-0
-0
-0
-0
-3.35893
-3.422842
-3.508965
-3.620711
-3.762016
-0
-0
-0
-0
-0
-0
-0
-0
-0
-0
-3.211122
-3.271071
-3.351697
-3.45609
-3.587734
-0
-0
-0
-0
-0
-0
-0
-0
-0
-0
-3.07735
-3.133685
-3.209511
-3.30749
-3.430814
-0
-0
-0
-0
-0
-0
-0
-0
-0
-0
-7.913947
-8.264173
-8.76397
-9.470827
-10.35225
-7.365413
-7.654115
-8.059312
-8.628133
-9.425038
-0
-6.906059
-7.151335
-7.492351
-7.962222
-8.612543
-0
-0
-6.510399
-6.723575
-7.018027
-7.418912
-7.962624
-0
-0
-0
-6.157474
-6.345686
-6.604506
-6.953862
-7.421183
-0
-0
-0
-0
-5.828668
-5.996137
-6.225825
-6.533867
-6.941762
-0
-0
-0
-0
-0
-5.513817
-5.663283
-5.867907
-6.140854
-6.499293
-0
-0
-0
-0
-0
-0
-5.217533
-5.351548
-5.534688
-5.778008
-6.095302
-0
-0
-0
-0
-0
-0
-0
-4.94419
-5.065106
-5.230103
-5.448522
-5.731882
-0
-0
-0
-0
-0
-0
-0
-0
-4.694334
-4.804239
-4.953937
-5.151499
-5.406629
-0
-0
-0
-0
-0
-0
-0
-0
-0
-4.466353
-4.566893
-4.703701
-4.883687
-5.115226
-0
-0
-0
-0
-0
-0
-0
-0
-0
-0
-4.257587
-4.350028
-4.475802
-4.640892
-4.852484
-0
-0
-0
-0
-0
-0
-0
-0
-0
-0
-0
-4.064602
-4.149998
-4.26614
-4.418368
-4.612883
-0
-0
-0
-0
-0
-0
-0
-0
-0
-0
-0
-0
-3.88311
-3.962414
-4.070032
-4.210866
-4.390437
-0
-0
-0
-0
-0
-0
-0
-0
-0
-0
-0
-0
-0
-3.708397
-3.782217
-3.882209
-4.012718
-4.178755
-0
-0
-0
-0
-0
-0
-0
-0
-0
-0
-0
-0
-0
-0
-3.537536
-3.606268
-3.699267
-3.820293
-3.973826
-0
-0
-0
-0
-0
-0
-0
-0
-0
-0
-3.37399
-3.438198
-3.524787
-3.637252
-3.779506
-0
-0
-0
-0
-0
-0
-0
-0
-0
-0
-3.221791
-3.281934
-3.362889
-3.46775
-3.600053
-0
-0
-0
-0
-0
-0
-0
-0
-0
-0
-3.082593
-3.139025
-3.21501
-3.313225
-3.436867
-0
-0
-0
-0
-0
-0
-0
-0
-0
-0
-2.956384
-3.009539
-3.081028
-3.173435
-3.289523
-0
-0
-0
-0
-0
-0
-0
-0
-0
-0
-7.34289
-7.629339
-8.031013
-8.593969
-9.379551
-0
-6.869078
-7.111246
-7.447568
-7.910055
-8.548039
-0
-0
-6.466347
-6.676201
-6.965692
-7.359119
-7.8911
-0
-0
-0
-6.115336
-6.300607
-6.554969
-6.8977
-7.355054
-0
-0
-0
-0
-5.799455
-5.964892
-6.191548
-6.495027
-6.896108
-0
-0
-0
-0
-0
-5.502949
-5.651564
-5.854889
-6.125911
-6.481435
-0
-0
-0
-0
-0
-0
-5.217257
-5.351078
-5.533889
-5.776681
-6.09316
-0
-0
-0
-0
-0
-0
-0
-4.946969
-5.067918
-5.232924
-5.451316
-5.734586
-0
-0
-0
-0
-0
-0
-0
-0
-4.696377
-4.806326
-4.956084
-5.153708
-5.408901
-0
-0
-0
-0
-0
-0
-0
-0
-0
-4.466352
-4.566893
-4.703701
-4.883687
-5.115226
-0
-0
-0
-0
-0
-0
-0
-0
-0
-0
-4.255773
-4.348149
-4.473851
-4.638864
-4.85036
-0
-0
-0
-0
-0
-0
-0
-0
-0
-0
-0
-4.062316
-4.147613
-4.263645
-4.41576
-4.610169
-0
-0
-0
-0
-0
-0
-0
-0
-0
-0
-0
-0
-3.882791
-3.962041
-4.069599
-4.210397
-4.389979
-0
-0
-0
-0
-0
-0
-0
-0
-0
-0
-0
-0
-0
-3.713503
-3.787354
-3.887492
-4.018217
-4.184607
-0
-0
-0
-0
-0
-0
-0
-0
-0
-0
-0
-0
-0
-0
-3.550104
-3.619039
-3.712429
-3.83406
-3.988435
-0
-0
-0
-0
-0
-0
-0
-0
-0
-0
-0
-0
-0
-0
-0
-3.389778
-3.454276
-3.541345
-3.654562
-3.797827
-0
-0
-0
-0
-0
-0
-0
-0
-0
-0
-3.235997
-3.296387
-3.377773
-3.483251
-3.616441
-0
-0
-0
-0
-0
-0
-0
-0
-0
-0
-3.092678
-3.149278
-3.22555
-3.324196
-3.448422
-0
-0
-0
-0
-0
-0
-0
-0
-0
-0
-2.96134
-3.014581
-3.086212
-3.178828
-3.295207
-0
-0
-0
-0
-0
-0
-0
-0
-0
-0
-2.842271
-2.892316
-2.959853
-3.047044
-3.156566
-0
-0
-0
-0
-0
-0
-0
-0
-0
-0
-6.849506
-7.090046
-7.423927
-7.882625
-8.514351
-0
-0
-6.43378
-6.641333
-6.927386
-7.31567
-7.839653
-0
-0
-0
-6.076215
-6.259004
-6.509637
-6.846872
-7.296059
-0
-0
-0
-0
-5.761878
-5.925062
-6.148375
-6.446881
-6.84067
-0
-0
-0
-0
-0
-5.476895
-5.62398
-5.824993
-6.092624
-6.443131
-0
-0
-0
-0
-0
-0
-5.207691
-5.340904
-5.52277
-5.764143
-6.078541
-0
-0
-0
-0
-0
-0
-0
-4.946923
-5.067779
-5.23259
-5.450649
-5.733384
-0
-0
-0
-0
-0
-0
-0
-0
-4.699062
-4.809054
-4.958868
-5.156527
-5.411722
-0
-0
-0
-0
-0
-0
-0
-0
-0
-4.46828
-4.568881
-4.705749
-4.885813
-5.117435
-0
-0
-0
-0
-0
-0
-0
-0
-0
-0
-4.255773
-4.348149
-4.473851
-4.638864
-4.85036
-0
-0
-0
-0
-0
-0
-0
-0
-0
-0
-0
-4.06061
-4.145844
-4.261799
-4.413827
-4.608142
-0
-0
-0
-0
-0
-0
-0
-0
-0
-0
-0
-0
-3.880627
-3.959791
-4.067235
-4.207908
-4.387357
-0
-0
-0
-0
-0
-0
-0
-0
-0
-0
-0
-0
-0
-3.713202
-3.786964
-3.887053
-4.017723
-4.184082
-0
-0
-0
-0
-0
-0
-0
-0
-0
-0
-0
-0
-0
-0
-3.554887
-3.623847
-3.717321
-3.839158
-3.993816
-0
-0
-0
-0
-0
-0
-0
-0
-0
-0
-0
-0
-0
-0
-0
-3.401603
-3.466272
-3.553669
-3.667416
-3.811442
-0
-0
-0
-0
-0
-0
-0
-0
-0
-0
-0
-0
-0
-0
-0
-0
-3.250892
-3.311518
-3.393341
-3.499464
-3.633589
-0
-0
-0
-0
-0
-0
-0
-0
-0
-0
-3.106109
-3.162922
-3.239566
-3.338784
-3.463783
-0
-0
-0
-0
-0
-0
-0
-0
-0
-0
-2.97089
-3.024279
-3.096165
-3.189163
-3.306081
-0
-0
-0
-0
-0
-0
-0
-0
-0
-0
-2.84696
-2.897085
-2.964749
-3.052129
-3.161912
-0
-0
-0
-0
-0
-0
-0
-0
-0
-0
-2.734339
-2.78165
-2.845365
-2.927792
-3.031182
-0
-0
-0
-0
-0
-0
-0
-0
-0
-0
-6.416528
-6.622866
-6.907117
-7.292729
-7.812603
-0
-0
-0
-6.0472
-6.228231
-6.476261
-6.809667
-7.253199
-0
-0
-0
-0
-5.726785
-5.888046
-6.108505
-6.402812
-6.790505
-0
-0
-0
-0
-0
-5.443067
-5.588402
-5.786797
-6.05063
-6.395592
-0
-0
-0
-0
-0
-0
-5.184227
-5.316269
-5.49635
-5.735093
-6.045708
-0
-0
-0
-0
-0
-0
-0
-4.938385
-5.058819
-5.222934
-5.439941
-5.721122
-0
-0
-0
-0
-0
-0
-0
-0
-4.699191
-4.809126
-4.958845
-5.156305
-5.411162
-0
-0
-0
-0
-0
-0
-0
-0
-0
-4.47084
-4.571518
-4.70845
-4.888594
-5.120277
-0
-0
-0
-0
-0
-0
-0
-0
-0
-0
-4.257588
-4.350027
-4.475803
-4.640892
-4.852484
-0
-0
-0
-0
-0
-0
-0
-0
-0
-0
-0
-4.06061
-4.145844
-4.261799
-4.413827
-4.608142
-0
-0
-0
-0
-0
-0
-0
-0
-0
-0
-0
-0
-3.87902
-3.958126
-4.065496
-4.206078
-4.385424
-0
-0
-0
-0
-0
-0
-0
-0
-0
-0
-0
-0
-0
-3.711176
-3.784832
-3.884821
-4.015363
-4.181579
-0
-0
-0
-0
-0
-0
-0
-0
-0
-0
-0
-0
-0
-0
-3.554596
-3.623481
-3.71687
-3.838663
-3.993269
-0
-0
-0
-0
-0
-0
-0
-0
-0
-0
-0
-0
-0
-0
-0
-3.406112
-3.47078
-3.558252
-3.672139
-3.816431
-0
-0
-0
-0
-0
-0
-0
-0
-0
-0
-0
-0
-0
-0
-0
-0
-3.262065
-3.322816
-3.404926
-3.511506
-3.646304
-0
-0
-0
-0
-0
-0
-0
-0
-0
-0
-0
-0
-0
-0
-0
-0
-0
-3.120199
-3.177209
-3.254227
-3.354034
-3.479848
-0
-0
-0
-0
-0
-0
-0
-0
-0
-0
-2.983614
-3.037188
-3.109404
-3.202907
-3.320541
-0
-0
-0
-0
-0
-0
-0
-0
-0
-0
-2.856015
-2.906274
-2.974169
-3.061894
-3.172158
-0
-0
-0
-0
-0
-0
-0
-0
-0
-0
-2.738785
-2.786165
-2.849998
-2.932596
-3.036223
-0
-0
-0
-0
-0
-0
-0
-0
-0
-0
-2.632095
-2.676901
-2.737219
-2.815074
-2.912854
-0
-0
-0
-0
-0
-0
-0
-0
-0
-0
-6.031831
-6.21192
-6.458576
-6.789976
-7.230569
-0
-0
-0
-0
-5.700682
-5.860578
-6.079005
-6.370363
-6.75379
-0
-0
-0
-0
-0
-5.411323
-5.55514
-5.751275
-6.011835
-6.352081
-0
-0
-0
-0
-0
-0
-5.153531
-5.284192
-5.462191
-5.697911
-6.004231
-0
-0
-0
-0
-0
-0
-0
-4.917065
-5.036605
-5.199317
-5.414253
-5.692462
-0
-0
-0
-0
-0
-0
-0
-0
-4.691507
-4.801123
-4.950339
-5.147006
-5.400692
-0
-0
-0
-0
-0
-0
-0
-0
-0
-4.471069
-4.57175
-4.708623
-4.888667
-5.120146
-0
-0
-0
-0
-0
-0
-0
-0
-0
-0
-4.260012
-4.352543
-4.478415
-4.643589
-4.855284
-0
-0
-0
-0
-0
-0
-0
-0
-0
-0
-0
-4.062315
-4.147614
-4.263644
-4.41576
-4.610169
-0
-0
-0
-0
-0
-0
-0
-0
-0
-0
-0
-0
-3.87902
-3.958126
-4.065496
-4.206077
-4.385425
-0
-0
-0
-0
-0
-0
-0
-0
-0
-0
-0
-0
-0
-3.709671
-3.783263
-3.883183
-4.013638
-4.17975
-0
-0
-0
-0
-0
-0
-0
-0
-0
-0
-0
-0
-0
-0
-3.552688
-3.621483
-3.714755
-3.836435
-3.990898
-0
-0
-0
-0
-0
-0
-0
-0
-0
-0
-0
-0
-0
-0
-0
-3.405854
-3.470428
-3.557829
-3.671636
-3.815889
-0
-0
-0
-0
-0
-0
-0
-0
-0
-0
-0
-0
-0
-0
-0
-0
-3.266348
-3.32707
-3.409226
-3.515933
-3.650929
-0
-0
-0
-0
-0
-0
-0
-0
-0
-0
-0
-0
-0
-0
-0
-0
-0
-3.130785
-3.187892
-3.265144
-3.365358
-3.491763
-0
-0
-0
-0
-0
-0
-0
-0
-0
-0
-0
-0
-0
-0
-0
-0
-0
-0
-2.996969
-3.050712
-3.123255
-3.217274
-3.335655
-0
-0
-0
-0
-0
-0
-0
-0
-0
-0
-2.868084
-2.918511
-2.986702
-3.07488
-3.185783
-0
-0
-0
-0
-0
-0
-0
-0
-0
-0
-2.747384
-2.794884
-2.858928
-2.941841
-3.045905
-0
-0
-0
-0
-0
-0
-0
-0
-0
-0
-2.636316
-2.681183
-2.741607
-2.819621
-2.917618
-0
-0
-0
-0
-0
-0
-0
-0
-0
-0
-2.5352
-2.577601
-2.634798
-2.70856
-2.800986
-0
-0
-0
-0
-0
-0
-0
-0
-0
-0
-5.686858
-5.846019
-6.06336
-6.353165
-6.734359
-0
-0
-0
-0
-0
-5.387655
-5.530385
-5.724905
-5.983128
-6.320047
-0
-0
-0
-0
-0
-0
-5.124612
-5.254057
-5.430231
-5.663318
-5.965913
-0
-0
-0
-0
-0
-0
-0
-4.889015
-5.007456
-5.168485
-5.380976
-5.655724
-0
-0
-0
-0
-0
-0
-0
-0
-4.672007
-4.780915
-4.929022
-5.124029
-5.375341
-0
-0
-0
-0
-0
-0
-0
-0
-0
-4.464111
-4.564544
-4.701023
-4.880474
-5.111055
-0
-0
-0
-0
-0
-0
-0
-0
-0
-0
-4.26029
-4.352864
-4.478736
-4.643846
-4.855437
-0
-0
-0
-0
-0
-0
-0
-0
-0
-0
-0
-4.064601
-4.149999
-4.266137
-4.418368
-4.612882
-0
-0
-0
-0
-0
-0
-0
-0
-0
-0
-0
-0
-3.880627
-3.95979
-4.067236
-4.207906
-4.387357
-0
-0
-0
-0
-0
-0
-0
-0
-0
-0
-0
-0
-0
-3.709671
-3.783263
-3.883183
-4.013639
-4.17975
-0
-0
-0
-0
-0
-0
-0
-0
-0
-0
-0
-0
-0
-0
-3.551273
-3.620011
-3.71321
-3.83481
-3.989174
-0
-0
-0
-0
-0
-0
-0
-0
-0
-0
-0
-0
-0
-0
-0
-3.404072
-3.468545
-3.555845
-3.669524
-3.81365
-0
-0
-0
-0
-0
-0
-0
-0
-0
-0
-0
-0
-0
-0
-0
-0
-3.266136
-3.326753
-3.40882
-3.515462
-3.650383
-0
-0
-0
-0
-0
-0
-0
-0
-0
-0
-0
-0
-0
-0
-0
-0
-0
-3.134869
-3.191937
-3.269204
-3.369514
-3.4961
-0
-0
-0
-0
-0
-0
-0
-0
-0
-0
-0
-0
-0
-0
-0
-0
-0
-0
-3.007025
-3.060842
-3.133584
-3.227949
-3.346863
-0
-0
-0
-0
-0
-0
-0
-0
-0
-0
-0
-0
-0
-0
-0
-0
-0
-0
-0
-2.88076
-2.93134
-2.99982
-3.088458
-3.200025
-0
-0
-0
-0
-0
-0
-0
-0
-0
-0
-2.758852
-2.806498
-2.870815
-2.954138
-3.058782
-0
-0
-0
-0
-0
-0
-0
-0
-0
-0
-2.644497
-2.689469
-2.750083
-2.828388
-2.926785
-0
-0
-0
-0
-0
-0
-0
-0
-0
-0
-2.539211
-2.581669
-2.638962
-2.712868
-2.805496
-0
-0
-0
-0
-0
-0
-0
-0
-0
-0
-2.44329
-2.483434
-2.537652
-2.607647
-2.695256
-0
-0
-0
-0
-0
-0
-0
-0
-0
-0
-5.375129
-5.517268
-5.710923
-5.9679
-6.303068
-0
-0
-0
-0
-0
-0
-5.103009
-5.231576
-5.406436
-5.637634
-5.937561
-0
-0
-0
-0
-0
-0
-0
-4.86251
-4.979963
-5.139496
-5.349827
-5.621543
-0
-0
-0
-0
-0
-0
-0
-0
-4.646233
-4.754243
-4.900976
-5.093972
-5.342451
-0
-0
-0
-0
-0
-0
-0
-0
-0
-4.446223
-4.546039
-4.681612
-4.859723
-5.088373
-0
-0
-0
-0
-0
-0
-0
-0
-0
-0
-4.253904
-4.346335
-4.471889
-4.636524
-4.847427
-0
-0
-0
-0
-0
-0
-0
-0
-0
-0
-0
-4.064897
-4.15036
-4.266537
-4.418764
-4.613211
-0
-0
-0
-0
-0
-0
-0
-0
-0
-0
-0
-0
-3.882791
-3.962041
-4.0696
-4.210394
-4.389979
-0
-0
-0
-0
-0
-0
-0
-0
-0
-0
-0
-0
-0
-3.711176
-3.784832
-3.884821
-4.015364
-4.181577
-0
-0
-0
-0
-0
-0
-0
-0
-0
-0
-0
-0
-0
-0
-3.551273
-3.620011
-3.71321
-3.83481
-3.989174
-0
-0
-0
-0
-0
-0
-0
-0
-0
-0
-0
-0
-0
-0
-0
-3.402747
-3.467161
-3.554396
-3.667991
-3.812026
-0
-0
-0
-0
-0
-0
-0
-0
-0
-0
-0
-0
-0
-0
-0
-0
-3.264479
-3.324993
-3.40695
-3.51348
-3.64826
-0
-0
-0
-0
-0
-0
-0
-0
-0
-0
-0
-0
-0
-0
-0
-0
-0
-3.134705
-3.19167
-3.268838
-3.369064
-3.495588
-0
-0
-0
-0
-0
-0
-0
-0
-0
-0
-0
-0
-0
-0
-0
-0
-0
-0
-3.010933
-3.064704
-3.137449
-3.231876
-3.350935
-0
-0
-0
-0
-0
-0
-0
-0
-0
-0
-0
-0
-0
-0
-0
-0
-0
-0
-0
-2.890327
-2.94097
-3.009621
-3.098563
-3.210593
-0
-0
-0
-0
-0
-0
-0
-0
-0
-0
-0
-0
-0
-0
-0
-0
-0
-0
-0
-0
-2.770907
-2.818683
-2.883265
-2.967003
-3.072245
-0
-0
-0
-0
-0
-0
-0
-0
-0
-0
-2.655413
-2.700512
-2.761371
-2.840055
-2.938981
-0
-0
-0
-0
-0
-0
-0
-0
-0
-0
-2.547
-2.589556
-2.647021
-2.721192
-2.814192
-0
-0
-0
-0
-0
-0
-0
-0
-0
-0
-2.447108
-2.487301
-2.541609
-2.611737
-2.699529
-0
-0
-0
-0
-0
-0
-0
-0
-0
-0
-2.356036
-2.394053
-2.445481
-2.511898
-2.595067
-0
-0
-0
-0
-0
-0
-0
-0
-0
-0
-5.091586
-5.219672
-5.393822
-5.624012
-5.922521
-0
-0
-0
-0
-0
-0
-0
-4.842683
-4.959412
-5.11786
-5.326632
-5.596168
-0
-0
-0
-0
-0
-0
-0
-0
-4.621818
-4.729009
-4.874498
-5.065698
-5.311662
-0
-0
-0
-0
-0
-0
-0
-0
-0
-4.422465
-4.5215
-4.655923
-4.832364
-5.058656
-0
-0
-0
-0
-0
-0
-0
-0
-0
-0
-4.237362
-4.329341
-4.454098
-4.617617
-4.826937
-0
-0
-0
-0
-0
-0
-0
-0
-0
-0
-4.058992
-4.144363
-4.260331
-4.412165
-4.606051
-0
-0
-0
-0
-0
-0
-0
-0
-0
-0
-0
-0
-3.883111
-3.962413
-4.070033
-4.210862
-4.390438
-0
-0
-0
-0
-0
-0
-0
-0
-0
-0
-0
-0
-0
-3.713203
-3.786965
-3.887053
-4.017724
-4.184079
-0
-0
-0
-0
-0
-0
-0
-0
-0
-0
-0
-0
-0
-0
-3.552689
-3.621483
-3.714755
-3.836434
-3.990899
-0
-0
-0
-0
-0
-0
-0
-0
-0
-0
-0
-0
-0
-0
-0
-3.402748
-3.467161
-3.554396
-3.667991
-3.812025
-0
-0
-0
-0
-0
-0
-0
-0
-0
-0
-0
-0
-0
-0
-0
-0
-3.263243
-3.323696
-3.405586
-3.512041
-3.646727
-0
-0
-0
-0
-0
-0
-0
-0
-0
-0
-0
-0
-0
-0
-0
-0
-0
-3.133167
-3.190032
-3.267089
-3.367196
-3.493597
-0
-0
-0
-0
-0
-0
-0
-0
-0
-0
-0
-0
-0
-0
-0
-0
-0
-0
-3.01082
-3.064488
-3.137135
-3.231468
-3.350448
-0
-0
-0
-0
-0
-0
-0
-0
-0
-0
-0
-0
-0
-0
-0
-0
-0
-0
-0
-2.894074
-2.944671
-3.013315
-3.102304
-3.214443
-0
-0
-0
-0
-0
-0
-0
-0
-0
-0
-0
-0
-0
-0
-0
-0
-0
-0
-0
-0
-2.780027
-2.827851
-2.892588
-2.976596
-3.082251
-0
-0
-0
-0
-0
-0
-0
-0
-0
-0
-0
-0
-0
-0
-0
-0
-0
-0
-0
-0
-2.666898
-2.712106
-2.773202
-2.85227
-2.95174
-0
-0
-0
-0
-0
-0
-0
-0
-0
-0
-2.557398
-2.600073
-2.657757
-2.732275
-2.825765
-0
-0
-0
-0
-0
-0
-0
-0
-0
-0
-2.454539
-2.494813
-2.549283
-2.619653
-2.707787
-0
-0
-0
-0
-0
-0
-0
-0
-0
-0
-2.359676
-2.397735
-2.449244
-2.515785
-2.599123
-0
-0
-0
-0
-0
-0
-0
-0
-0
-0
-2.273299
-2.309147
-2.357952
-2.421021
-2.499987
-0
-0
-0
-0
-0
-0
-0
-0
-0
-0
-4.83221
-4.94854
-5.1064
-5.314334
-5.582709
-0
-0
-0
-0
-0
-0
-0
-0
-4.603534
-4.710122
-4.854699
-5.044592
-5.288736
-0
-0
-0
-0
-0
-0
-0
-0
-0
-4.39989
-4.498228
-4.631598
-4.806521
-5.030698
-0
-0
-0
-0
-0
-0
-0
-0
-0
-0
-4.215352
-4.306698
-4.430443
-4.592541
-4.799877
-0
-0
-0
-0
-0
-0
-0
-0
-0
-0
-4.043618
-4.128631
-4.243981
-4.394827
-4.587376
-0
-0
-0
-0
-0
-0
-0
-0
-0
-0
-3.87765
-3.956862
-4.064329
-4.204879
-4.383984
-0
-0
-0
-0
-0
-0
-0
-0
-0
-0
-0
-0
-0
-3.713504
-3.787355
-3.887491
-4.018218
-4.184604
-0
-0
-0
-0
-0
-0
-0
-0
-0
-0
-0
-0
-0
-0
-3.554597
-3.623482
-3.716871
-3.838662
-3.993271
-0
-0
-0
-0
-0
-0
-0
-0
-0
-0
-0
-0
-0
-0
-0
-3.404072
-3.468546
-3.555846
-3.669524
-3.813649
-0
-0
-0
-0
-0
-0
-0
-0
-0
-0
-0
-0
-0
-0
-0
-0
-3.263243
-3.323696
-3.405586
-3.512042
-3.646727
-0
-0
-0
-0
-0
-0
-0
-0
-0
-0
-0
-0
-0
-0
-0
-0
-0
-3.132013
-3.188821
-3.26581
-3.365841
-3.492159
-0
-0
-0
-0
-0
-0
-0
-0
-0
-0
-0
-0
-0
-0
-0
-0
-0
-0
-3.009394
-3.062966
-3.135506
-3.229719
-3.34857
-0
-0
-0
-0
-0
-0
-0
-0
-0
-0
-0
-0
-0
-0
-0
-0
-0
-0
-0
-2.894007
-2.944506
-3.013053
-3.10195
-3.213999
-0
-0
-0
-0
-0
-0
-0
-0
-0
-0
-0
-0
-0
-0
-0
-0
-0
-0
-0
-0
-2.78363
-2.831403
-2.896131
-2.980173
-3.085919
-0
-0
-0
-0
-0
-0
-0
-0
-0
-0
-0
-0
-0
-0
-0
-0
-0
-0
-0
-0
-2.675613
-2.720853
-2.782083
-2.861399
-2.961241
-0
-0
-0
-0
-0
-0
-0
-0
-0
-0
-0
-0
-0
-0
-0
-0
-0
-0
-0
-0
-2.568349
-2.611127
-2.66902
-2.743885
-2.83788
-0
-0
-0
-0
-0
-0
-0
-0
-0
-0
-2.464464
-2.504836
-2.559513
-2.630197
-2.718782
-0
-0
-0
-0
-0
-0
-0
-0
-0
-0
-2.366773
-2.404905
-2.456557
-2.523325
-2.606978
-0
-0
-0
-0
-0
-0
-0
-0
-0
-0
-2.276774
-2.312659
-2.361537
-2.424717
-2.503843
-0
-0
-0
-0
-0
-0
-0
-0
-0
-0
-2.194769
-2.22859