/*--------------------------------*- C++ -*----------------------------------*\
| =========                 |                                                 |
| \\      /  F ield         | OpenFOAM: The Open Source CFD Toolbox           |
|  \\    /   O peration     | Version:  2306                                  |
|   \\  /    A nd           | Website:  www.openfoam.com                      |
|    \\/     M anipulation  |                                                 |
\*---------------------------------------------------------------------------*/
FoamFile
{
    version     2.0;
    format      ascii;
    arch        "LSB;label=32;scalar=64";
    class       volScalarField;
    location    "0.3/fuel";
    object      iDmdtfuel.H2O;
}
// * * * * * * * * * * * * * * * * * * * * * * * * * * * * * * * * * * * * * //

dimensions      [1 -3 -1 0 0 0 0];

internalField   nonuniform List<scalar> 
16000
(
103.4896
104.2776
93.16608
98.8039
105.8447
93.65134
99.53043
84.06691
89.21624
95.49212
108.1868
94.59224
100.9738
84.42324
89.66628
96.1777
76.74802
80.71815
86.40248
93.43665
111.1933
95.94342
103.1285
85.10638
90.53813
97.53901
77.03189
81.05026
86.82853
94.09923
70.7224
73.85218
78.31858
84.63536
92.51208
114.3602
97.57302
105.8905
86.06856
91.78942
99.57062
77.57257
81.68647
87.6535
95.41505
70.95826
74.1178
78.63395
85.04735
93.16701
65.6192
68.17903
71.76856
76.79937
83.81967
0
116.652
99.13763
108.7948
87.19157
93.29754
102.1749
78.32432
82.5822
88.83735
97.38001
71.40562
74.62334
79.2378
85.84503
94.4686
65.82048
68.40044
72.02145
77.10468
84.22616
0
61.2101
63.35967
66.34338
70.4425
76.08787
0
0
118.0031
100.1571
110.8863
88.21297
94.74405
104.9138
79.18215
83.62717
90.26418
99.90248
72.0216
75.32598
80.08787
86.9901
96.41517
66.20133
68.82007
72.50253
77.68915
85.01344
0
61.38501
63.54913
66.55464
70.68762
76.38893
0
0
57.34083
59.18475
61.72495
65.17094
69.81676
0
0
0
118.7096
100.6824
112.1125
88.82621
95.68331
106.8792
79.93279
84.57684
91.63256
102.561
72.71246
76.1274
81.07954
88.37122
98.92089
66.722
69.39767
73.17106
78.51212
86.14442
0
61.71549
63.90738
66.95485
71.15381
76.96536
0
0
57.495
59.34978
61.90608
65.37595
70.05848
0
0
0
53.90301
55.51237
57.71659
60.67813
64.61545
0
0
0
0
119.0054
100.9184
112.7504
89.10023
96.1652
108.0276
80.35429
85.14536
92.5182
104.465
73.29877
76.82804
81.98045
89.69687
101.5722
67.29803
70.04511
73.93347
79.47256
87.51044
0
62.16469
64.39693
67.5056
71.80173
77.77735
0
0
57.78603
59.66138
62.2484
65.76422
70.51824
0
0
0
54.04036
55.65813
57.87463
60.85409
64.81768
0
0
0
0
50.82019
52.24252
54.18478
56.77459
60.1811
0
0
0
0
0
119.0054
101.0041
113.0163
89.19716
96.38065
108.6232
80.51698
85.39841
92.97114
105.5762
73.60921
77.22024
82.51799
90.55238
103.4703
67.77477
70.59391
74.59955
80.34526
88.82373
0
62.65622
64.93817
68.12276
72.54076
78.72575
0
0
58.17971
60.08473
62.71608
66.29856
71.1574
0
0
0
54.29965
55.93313
58.17289
61.18657
65.20069
0
0
0
0
50.94372
52.37262
54.32458
56.92828
60.35475
0
0
0
0
0
48.03445
49.30466
51.03524
53.3317
56.32691
0
0
0
0
0
0
118.7096
101.0041
113.0163
89.22177
96.45848
108.8709
80.55578
85.48736
93.17303
106.1525
73.71133
77.37085
82.75635
90.98908
104.5795
68.01424
70.88339
74.97099
80.86408
89.66917
0
63.05474
65.38542
68.64535
73.18621
79.58798
0
0
58.60666
60.54761
63.23292
66.89734
71.8868
0
0
0
54.64925
56.30492
58.578
61.64079
65.7279
0
0
0
0
51.17699
52.61809
54.58821
57.21826
60.68285
0
0
0
0
0
48.14639
49.42188
51.1602
53.46778
56.47864
0
0
0
0
0
0
45.50058
46.64521
48.2015
50.25857
52.92618
0
0
0
0
0
0
0
118.0031
100.9184
112.7504
89.22177
96.45848
108.8709
80.55597
85.50966
93.24576
106.3923
73.72062
77.40621
82.83969
91.18363
105.1563
68.08005
70.9778
75.11279
81.09334
90.10043
0
63.24564
65.60902
68.91974
73.54455
80.09858
0
0
58.94706
60.92218
63.65941
67.40398
72.52375
0
0
0
55.02581
56.70776
59.02068
62.14268
66.31886
0
0
0
0
51.4906
52.94888
54.94451
57.61208
61.13114
0
0
0
0
0
48.35789
49.6431
51.39585
53.72432
56.76491
0
0
0
0
0
0
45.60267
46.75159
48.31421
50.38031
53.06058
0
0
0
0
0
0
0
43.18269
44.22227
45.63296
47.49116
49.88947
0
0
0
0
0
0
0
0
116.652
100.6824
112.1125
89.19716
96.38065
108.6232
80.55597
85.50966
93.24576
106.3923
73.70914
77.40597
82.86038
91.25374
105.3969
68.07303
70.98565
75.14554
81.17321
90.29291
0
63.28824
65.66957
69.00836
73.6805
80.32347
0
0
59.10336
61.10056
63.87145
67.66858
72.8756
0
0
0
55.32194
57.02823
59.3783
62.55638
66.81857
0
0
0
0
51.82641
53.30482
55.33031
58.04234
61.62657
0
0
0
0
0
48.64157
49.94035
51.71329
54.07101
57.15374
0
0
0
0
0
0
45.79572
46.9525
48.52686
50.60982
53.31394
0
0
0
0
0
0
0
43.27629
44.31943
45.73538
47.60106
50.00974
0
0
0
0
0
0
0
0
41.05294
42.00247
43.29003
44.9807
47.15378
0
0
0
0
0
0
0
0
0
114.3602
100.1571
110.8863
89.10023
96.1652
108.0276
80.55578
85.48736
93.17303
106.1525
73.70914
77.40597
82.86038
91.25374
105.3969
68.05563
70.97448
75.14491
81.19293
90.3625
0
63.27187
65.66209
69.01498
73.7114
80.40163
0
0
59.13071
61.13939
63.92793
67.75315
73.0082
0
0
0
55.45303
57.17436
59.54749
62.76078
67.07801
0
0
0
0
52.08747
53.58404
55.63663
58.38942
62.03455
0
0
0
0
0
48.94387
50.25828
52.05462
54.44629
57.57856
0
0
0
0
0
0
46.05415
47.2218
48.81247
50.91896
53.65637
0
0
0
0
0
0
0
43.45348
44.50307
45.92873
47.80834
50.23651
0
0
0
0
0
0
0
0
41.13914
42.09167
43.38367
45.08063
47.2624
0
0
0
0
0
0
0
0
0
39.08835
39.95998
41.14112
42.68899
44.67117
0
0
0
0
0
0
0
0
0
0
111.1933
99.13763
108.7948
88.82621
95.68331
106.8792
80.51698
85.39841
92.97114
105.5762
73.72062
77.40621
82.83969
91.18363
105.1563
68.05563
70.97448
75.14491
81.19293
90.3625
0
63.2515
65.6453
69.00393
73.71045
80.42089
0
0
59.10905
61.12307
63.91993
67.75874
73.03785
0
0
0
55.47031
57.19889
59.58334
62.81431
67.15998
0
0
0
0
52.19938
53.70666
55.77524
58.55246
62.23477
0
0
0
0
0
49.1767
50.50479
52.32179
54.74375
57.92087
0
0
0
0
0
0
46.32847
47.50845
49.11773
51.25124
54.02703
0
0
0
0
0
0
0
43.69034
44.74877
46.18779
48.0867
50.54196
0
0
0
0
0
0
0
0
41.30254
42.26046
43.5606
45.26924
47.46728
0
0
0
0
0
0
0
0
0
39.16806
40.04223
41.22717
42.78041
44.76998
0
0
0
0
0
0
0
0
0
0
37.26912
38.07339
39.16178
40.58554
42.40406
0
0
0
0
0
0
0
0
0
0
108.1868
97.57302
105.8905
88.21297
94.74405
104.9138
80.35429
85.14536
92.5182
104.465
73.71133
77.37085
82.75635
90.98908
104.5795
68.07303
70.98565
75.14554
81.17321
90.29291
0
63.2515
65.6453
69.00393
73.71045
80.42089
0
0
59.08738
61.10342
63.90349
67.74765
73.03657
0
0
0
55.44592
57.17753
59.56687
62.80572
67.16466
0
0
0
0
52.20974
53.72175
55.79749
58.58606
62.28625
0
0
0
0
0
49.27382
50.60951
52.43812
54.87729
58.08045
0
0
0
0
0
0
46.53815
47.72859
49.35383
51.51084
54.32044
0
0
0
0
0
0
0
43.94102
45.00925
46.46331
48.38407
50.87026
0
0
0
0
0
0
0
0
41.52071
42.48596
43.79721
45.52191
47.74242
0
0
0
0
0
0
0
0
0
39.31934
40.19808
41.38995
42.95313
44.95646
0
0
0
0
0
0
0
0
0
0
37.34294
38.14954
39.2412
40.66961
42.49449
0
0
0
0
0
0
0
0
0
0
35.57869
36.32423
37.33173
38.64676
40.32249
0
0
0
0
0
0
0
0
0
0
105.8447
95.94342
103.1285
87.19157
93.29753
102.1749
79.93279
84.57684
91.63256
102.561
73.60921
77.22024
82.51799
90.55238
103.4703
68.08005
70.9778
75.11279
81.09334
90.10043
0
63.27187
65.66209
69.01498
73.7114
80.40163
0
0
59.08738
61.10342
63.90349
67.74765
73.03657
0
0
0
55.42398
57.15662
59.54766
62.78939
67.15337
0
0
0
0
52.18407
53.69779
55.77619
58.56927
62.277
0
0
0
0
0
49.27947
50.61811
52.4514
54.89777
58.11241
0
0
0
0
0
0
46.62364
47.81952
49.4532
51.62289
54.45108
0
0
0
0
0
0
0
44.13153
45.20776
46.67437
48.61363
51.12639
0
0
0
0
0
0
0
0
41.75105
42.72431
44.04784
45.79051
48.03634
0
0
0
0
0
0
0
0
0
39.52108
40.40605
41.60734
43.18406
45.2063
0
0
0
0
0
0
0
0
0
0
37.48323
38.29401
39.39164
40.82862
42.66533
0
0
0
0
0
0
0
0
0
0
35.6474
36.39482
37.40531
38.7244
40.40566
0
0
0
0
0
0
0
0
0
0
34.00407
34.69701
35.63342
36.85308
38.40324
0
0
0
0
0
0
0
0
0
0
104.2776
94.59224
100.9738
86.06856
91.78942
99.57062
79.18215
83.62717
90.26418
99.90248
73.29877
76.82804
81.98045
89.69687
101.5722
68.01424
70.88339
74.97099
80.86408
89.66917
0
63.28824
65.66957
69.00836
73.6805
80.32347
0
0
59.10905
61.12307
63.91993
67.75874
73.03785
0
0
0
55.42398
57.15662
59.54766
62.78939
67.15337
0
0
0
0
52.16243
53.67659
55.75575
58.55024
62.26054
0
0
0
0
0
49.25352
50.59294
52.42761
54.87631
58.09512
0
0
0
0
0
0
46.6261
47.82372
49.46033
51.63475
54.47022
0
0
0
0
0
0
0
44.20783
45.28784
46.76066
48.70933
51.23597
0
0
0
0
0
0
0
0
41.92531
42.9049
44.23834
45.99584
48.26288
0
0
0
0
0
0
0
0
0
39.73338
40.62534
41.8369
43.42856
45.47187
0
0
0
0
0
0
0
0
0
0
37.67023
38.48654
39.59232
41.04093
42.89375
0
0
0
0
0
0
0
0
0
0
35.77818
36.52893
37.5449
38.87145
40.563
0
0
0
0
0
0
0
0
0
0
34.06821
34.76277
35.70168
36.92505
38.48007
0
0
0
0
0
0
0
0
0
0
32.53358
33.17959
34.05211
35.18751
36.62707
0
0
0
0
0
0
0
0
0
0
103.4896
93.65134
99.53043
85.10638
90.53813
97.53901
78.32432
82.5822
88.83735
97.38001
72.71246
76.1274
81.07954
88.37122
98.92089
67.77477
70.59391
74.59955
80.34526
88.82373
0
63.24564
65.60902
68.91974
73.54455
80.09858
0
0
59.13071
61.13939
63.92793
67.75315
73.0082
0
0
0
55.44592
57.17753
59.56687
62.80572
67.16466
0
0
0
0
52.16243
53.67659
55.75575
58.55024
62.26054
0
0
0
0
0
49.23251
50.57199
52.40687
54.85607
58.07603
0
0
0
0
0
0
46.60049
47.79827
49.43538
51.61088
54.44838
0
0
0
0
0
0
0
44.20823
45.28908
46.76364
48.71528
51.24671
0
0
0
0
0
0
0
0
41.99397
42.97641
44.31435
46.07894
48.35645
0
0
0
0
0
0
0
0
0
39.89323
40.79071
42.01036
43.614
45.67456
0
0
0
0
0
0
0
0
0
0
37.8669
38.68888
39.80372
41.26502
43.13557
0
0
0
0
0
0
0
0
0
0
35.95244
36.70759
37.73084
39.06756
40.77306
0
0
0
0
0
0
0
0
0
0
34.1905
34.88792
35.83136
37.06157
38.62561
0
0
0
0
0
0
0
0
0
0
32.59353
33.24103
34.11575
35.25431
36.69832
0
0
0
0
0
0
0
0
0
0
31.15612
31.76104
32.57629
33.6358
34.97727
0
0
0
0
0
0
0
0
0
0
93.16608
98.8039
84.42324
89.66628
96.1777
77.57257
81.68647
87.6535
95.41505
72.0216
75.32598
80.08787
86.9901
96.41517
67.29803
70.04511
73.93347
79.47256
87.51044
0
63.05474
65.38542
68.64535
73.18621
79.58798
0
0
59.10336
61.10056
63.87145
67.66858
72.8756
0
0
0
55.47031
57.19889
59.58334
62.81431
67.15998
0
0
0
0
52.18407
53.69779
55.77619
58.56927
62.277
0
0
0
0
0
49.23251
50.57199
52.40687
54.85607
58.07603
0
0
0
0
0
0
46.58032
47.77791
49.41487
51.59036
54.4281
0
0
0
0
0
0
0
44.1834
45.26395
46.73843
48.69031
51.22254
0
0
0
0
0
0
0
0
41.99282
42.97577
44.31456
46.08093
48.36146
0
0
0
0
0
0
0
0
0
39.95541
40.85511
42.07828
43.68722
45.75581
0
0
0
0
0
0
0
0
0
0
38.01472
38.84074
39.9627
41.43397
43.31868
0
0
0
0
0
0
0
0
0
0
0
36.13551
36.89524
37.92607
39.27404
40.99477
0
0
0
0
0
0
0
0
0
0
34.35338
35.05457
36.00404
37.24338
38.81972
0
0
0
0
0
0
0
0
0
0
32.70799
33.35818
34.23686
35.38121
36.83347
0
0
0
0
0
0
0
0
0
0
31.21231
31.81853
32.6358
33.69811
35.04342
0
0
0
0
0
0
0
0
0
0
29.86299
30.43091
31.19556
32.18682
33.43982
0
0
0
0
0
0
0
0
0
0
84.06691
89.21624
95.49212
77.03189
81.05026
86.82853
94.09923
71.40562
74.62334
79.2378
85.84503
94.4686
66.722
69.39767
73.17106
78.51212
86.14442
0
62.65622
64.93817
68.12276
72.54076
78.72575
0
0
58.94706
60.92218
63.65941
67.40398
72.52375
0
0
0
55.45303
57.17436
59.54749
62.76078
67.07801
0
0
0
0
52.20974
53.72175
55.79749
58.58606
62.28625
0
0
0
0
0
49.25352
50.59294
52.42761
54.87631
58.09512
0
0
0
0
0
0
46.58032
47.77791
49.41487
51.59036
54.4281
0
0
0
0
0
0
0
44.1642
45.24438
46.71849
48.67002
51.20201
0
0
0
0
0
0
0
0
41.96883
42.95138
44.28968
46.05573
48.33625
0
0
0
0
0
0
0
0
0
39.95336
40.85304
42.07673
43.68656
45.75698
0
0
0
0
0
0
0
0
0
0
38.07176
38.89908
40.02389
41.4994
43.39026
0
0
0
0
0
0
0
0
0
0
0
36.2729
37.03581
38.07217
39.42898
41.16165
0
0
0
0
0
0
0
0
0
0
0
0
34.52433
35.22943
36.18524
37.43417
39.02406
0
0
0
0
0
0
0
0
0
0
32.86035
33.51411
34.39806
35.55014
37.01347
0
0
0
0
0
0
0
0
0
0
31.3198
31.92826
32.74924
33.81668
35.16908
0
0
0
0
0
0
0
0
0
0
29.91574
30.48483
31.25127
32.24511
33.50154
0
0
0
0
0
0
0
0
0
0
28.64629
29.18103
29.89991
30.8305
32.00377
0
0
0
0
0
0
0
0
0
0
76.74802
80.71815
86.40248
93.43665
70.95826
74.1178
78.63395
85.04735
93.16701
66.20133
68.82007
72.50253
77.68915
85.01344
0
62.16469
64.39693
67.5056
71.80173
77.77735
0
0
58.60666
60.54761
63.23292
66.89734
71.8868
0
0
0
55.32194
57.02823
59.3783
62.55638
66.81857
0
0
0
0
52.19938
53.70666
55.77524
58.55246
62.23477
0
0
0
0
0
49.27947
50.61811
52.4514
54.89777
58.11241
0
0
0
0
0
0
46.60049
47.79827
49.43538
51.61088
54.44838
0
0
0
0
0
0
0
44.1642
45.24438
46.71849
48.67002
51.20201
0
0
0
0
0
0
0
0
41.95057
42.93273
44.27049
46.03599
48.31595
0
0
0
0
0
0
0
0
0
39.93047
40.82946
42.05258
43.66171
45.73158
0
0
0
0
0
0
0
0
0
0
38.06928
38.89621
40.02103
41.4971
43.38889
0
0
0
0
0
0
0
0
0
0
0
36.32566
37.08938
38.12763
39.48795
41.22563
0
0
0
0
0
0
0
0
0
0
0
0
34.65233
35.36022
36.32059
37.57663
39.17715
0
0
0
0
0
0
0
0
0
0
0
0
0
33.02015
33.67753
34.56704
35.72731
37.20234
0
0
0
0
0
0
0
0
0
0
31.46291
32.07424
32.90018
33.97446
35.33638
0
0
0
0
0
0
0
0
0
0
30.01683
30.58798
31.3576
32.35622
33.61898
0
0
0
0
0
0
0
0
0
0
28.69595
29.23168
29.9522
30.88509
32.06152
0
0
0
0
0
0
0
0
0
0
27.50051
28.00394
28.68156
29.55714
30.65922
0
0
0
0
0
0
0
0
0
0
70.7224
73.85218
78.31858
84.63536
92.51208
65.82048
68.40044
72.02145
77.10468
84.22616
0
61.71549
63.90738
66.95485
71.15381
76.96536
0
0
58.17971
60.08473
62.71608
66.29856
71.1574
0
0
0
55.02581
56.70776
59.02068
62.14268
66.31886
0
0
0
0
52.08747
53.58404
55.63663
58.38942
62.03455
0
0
0
0
0
49.27382
50.60951
52.43812
54.87729
58.08045
0
0
0
0
0
0
46.6261
47.82372
49.46033
51.63475
54.47022
0
0
0
0
0
0
0
44.18339
45.26395
46.73843
48.69031
51.22254
0
0
0
0
0
0
0
0
41.95057
42.93273
44.27049
46.03599
48.31595
0
0
0
0
0
0
0
0
0
39.91323
40.81171
42.03428
43.64272
45.71185
0
0
0
0
0
0
0
0
0
0
38.04762
38.87371
39.99768
41.47299
43.36387
0
0
0
0
0
0
0
0
0
0
0
36.32302
37.08615
38.12404
39.48442
41.22269
0
0
0
0
0
0
0
0
0
0
0
0
34.70113
35.40982
36.37155
37.63009
39.23482
0
0
0
0
0
0
0
0
0
0
0
0
0
33.13982
33.79951
34.69308
35.85936
37.34314
0
0
0
0
0
0
0
0
0
0
0
0
0
0
31.61293
32.22715
33.05823
34.13977
35.51181
0
0
0
0
0
0
0
0
0
0
30.15142
30.72521
31.499
32.50403
33.77528
0
0
0
0
0
0
0
0
0
0
28.7913
29.32876
30.05221
30.98929
32.17161
0
0
0
0
0
0
0
0
0
0
27.54737
28.05167
28.7307
29.60839
30.71331
0
0
0
0
0
0
0
0
0
0
26.41951
26.89453
27.53338
28.35917
29.39658
0
0
0
0
0
0
0
0
0
0
65.6192
68.17903
71.76856
76.79937
83.81967
0
61.38501
63.54913
66.55464
70.68762
76.38893
0
0
57.78603
59.66138
62.2484
65.76422
70.51824
0
0
0
54.64925
56.30492
58.578
61.64079
65.7279
0
0
0
0
51.82641
53.30482
55.33031
58.04234
61.62657
0
0
0
0
0
49.1767
50.50479
52.32179
54.74375
57.92087
0
0
0
0
0
0
46.62364
47.81952
49.4532
51.62289
54.45108
0
0
0
0
0
0
0
44.20823
45.28908
46.76364
48.71528
51.24671
0
0
0
0
0
0
0
0
41.96883
42.95138
44.28968
46.05573
48.33625
0
0
0
0
0
0
0
0
0
39.91323
40.81171
42.03428
43.64272
45.71185
0
0
0
0
0
0
0
0
0
0
38.0314
38.85692
39.98024
41.45487
43.34488
0
0
0
0
0
0
0
0
0
0
0
36.30259
37.06484
38.10175
39.46112
41.19844
0
0
0
0
0
0
0
0
0
0
0
0
34.69827
35.40649
36.36767
37.62591
39.23072
0
0
0
0
0
0
0
0
0
0
0
0
0
33.18545
33.84541
34.74029
35.90851
37.39544
0
0
0
0
0
0
0
0
0
0
0
0
0
0
31.72524
32.34128
33.17585
34.2628
35.64236
0
0
0
0
0
0
0
0
0
0
0
0
0
0
0
30.2925
30.86888
31.64697
32.65872
33.939
0
0
0
0
0
0
0
0
0
0
28.91825
29.45792
30.18522
31.12782
32.31806
0
0
0
0
0
0
0
0
0
0
27.63749
28.14329
28.82489
29.70643
30.81657
0
0
0
0
0
0
0
0
0
0
26.4638
26.93958
27.5797
28.40736
29.44737
0
0
0
0
0
0
0
0
0
0
25.39974
25.84697
26.45051
27.22969
28.20842
0
0
0
0
0
0
0
0
0
0
61.2101
63.35967
66.34338
70.4425
76.08787
0
0
57.495
59.34978
61.90608
65.37595
70.05848
0
0
0
54.29965
55.93313
58.17289
61.18657
65.20069
0
0
0
0
51.4906
52.94888
54.94451
57.61208
61.13114
0
0
0
0
0
48.94387
50.25828
52.05462
54.44629
57.57856
0
0
0
0
0
0
46.53815
47.72859
49.35383
51.51084
54.32044
0
0
0
0
0
0
0
44.20782
45.28783
46.76066
48.70933
51.23597
0
0
0
0
0
0
0
0
41.99282
42.97576
44.31456
46.08093
48.36146
0
0
0
0
0
0
0
0
0
39.93046
40.82947
42.05258
43.66171
45.73158
0
0
0
0
0
0
0
0
0
0
38.0314
38.85691
39.98024
41.45487
43.34488
0
0
0
0
0
0
0
0
0
0
0
36.28734
37.04903
38.08525
39.44384
41.18032
0
0
0
0
0
0
0
0
0
0
0
0
34.67894
35.38638
36.34655
37.60366
39.20729
0
0
0
0
0
0
0
0
0
0
0
0
0
33.18276
33.84193
34.73637
35.90408
37.39074
0
0
0
0
0
0
0
0
0
0
0
0
0
0
31.76798
32.38425
33.21957
34.30835
35.69044
0
0
0
0
0
0
0
0
0
0
0
0
0
0
0
30.39818
30.97609
31.75711
32.77359
34.06067
0
0
0
0
0
0
0
0
0
0
0
0
0
0
0
0
29.05136
29.59314
30.32434
31.2727
32.4713
0
0
0
0
0
0
0
0
0
0
27.75752
28.26522
28.95015
29.8368
30.95385
0
0
0
0
0
0
0
0
0
0
26.54914
27.02625
27.66865
28.49973
29.54455
0
0
0
0
0
0
0
0
0
0
25.44165
25.88958
26.49426
27.27513
28.25619
0
0
0
0
0
0
0
0
0
0
24.43522
24.85801
25.42739
26.164
27.08793
0
0
0
0
0
0
0
0
0
0
57.34083
59.18475
61.72495
65.17094
69.81676
0
0
0
54.04036
55.65813
57.87463
60.85409
64.81768
0
0
0
0
51.17699
52.61809
54.58821
57.21826
60.68285
0
0
0
0
0
48.64157
49.94035
51.71329
54.07101
57.15374
0
0
0
0
0
0
46.32846
47.50845
49.11773
51.25124
54.02703
0
0
0
0
0
0
0
44.13151
45.20776
46.67437
48.61363
51.12639
0
0
0
0
0
0
0
0
41.99398
42.9764
44.31435
46.07894
48.35645
0
0
0
0
0
0
0
0
0
39.95333
40.85304
42.07672
43.68656
45.75698
0
0
0
0
0
0
0
0
0
0
38.04763
38.8737
39.99768
41.47299
43.36387
0
0
0
0
0
0
0
0
0
0
0
36.28734
37.04903
38.08525
39.44384
41.18032
0
0
0
0
0
0
0
0
0
0
0
0
34.66458
35.3715
36.331
37.58731
39.19002
0
0
0
0
0
0
0
0
0
0
0
0
0
33.16465
33.82287
34.71642
35.883
37.36837
0
0
0
0
0
0
0
0
0
0
0
0
0
0
31.76539
32.38097
33.21554
34.30393
35.68556
0
0
0
0
0
0
0
0
0
0
0
0
0
0
0
30.43847
31.01638
31.79806
32.8158
34.10526
0
0
0
0
0
0
0
0
0
0
0
0
0
0
0
0
29.1512
29.6941
30.42787
31.38031
32.58493
0
0
0
0
0
0
0
0
0
0
0
0
0
0
0
0
0
27.88343
28.3929
29.08116
29.97308
31.09741
0
0
0
0
0
0
0
0
0
0
26.66284
27.14161
27.78696
28.62254
29.67377
0
0
0
0
0
0
0
0
0
0
25.52257
25.97171
26.57844
27.36239
28.34776
0
0
0
0
0
0
0
0
0
0
24.47495
24.89836
25.46879
26.20693
27.13298
0
0
0
0
0
0
0
0
0
0
23.52152
23.92193
24.46095
25.1567
26.0305
0
0
0
0
0
0
0
0
0
0
53.90301
55.51237
57.71659
60.67813
64.61545
0
0
0
0
50.94372
52.37262
54.32458
56.92828
60.35475
0
0
0
0
0
48.35789
49.6431
51.39585
53.72432
56.76491
0
0
0
0
0
0
46.05415
47.2218
48.81247
50.91896
53.65637
0
0
0
0
0
0
0
43.94099
45.00925
46.46331
48.38407
50.87026
0
0
0
0
0
0
0
0
41.92531
42.90488
44.23834
45.99584
48.26288
0
0
0
0
0
0
0
0
0
39.95538
40.85511
42.07827
43.68722
45.75581
0
0
0
0
0
0
0
0
0
0
38.06929
38.89618
40.02103
41.49709
43.38889
0
0
0
0
0
0
0
0
0
0
0
36.30258
37.06485
38.10174
39.46112
41.19844
0
0
0
0
0
0
0
0
0
0
0
0
34.66458
35.3715
36.33101
37.5873
39.19002
0
0
0
0
0
0
0
0
0
0
0
0
0
33.1512
33.80885
34.70178
35.86758
37.35203
0
0
0
0
0
0
0
0
0
0
0
0
0
0
31.74834
32.36311
33.19664
34.28402
35.66437
0
0
0
0
0
0
0
0
0
0
0
0
0
0
0
30.43617
31.01323
31.79428
32.81131
34.10042
0
0
0
0
0
0
0
0
0
0
0
0
0
0
0
0
29.18948
29.73211
30.46629
31.41987
32.62626
0
0
0
0
0
0
0
0
0
0
0
0
0
0
0
0
0
27.97803
28.48836
29.17872
30.07428
31.20389
0
0
0
0
0
0
0
0
0
0
0
0
0
0
0
0
0
0
26.78219
27.26247
27.91074
28.75093
29.80884
0
0
0
0
0
0
0
0
0
0
25.63042
26.08106
26.69044
27.47844
28.46952
0
0
0
0
0
0
0
0
0
0
24.5518
24.97627
25.5486
26.28954
27.21951
0
0
0
0
0
0
0
0
0
0
23.55924
23.9602
24.50017
25.19734
26.07308
0
0
0
0
0
0
0
0
0
0
22.65563
23.03455
23.54568
24.20485
25.03081
0
0
0
0
0
0
0
0
0
0
50.82019
52.24252
54.18478
56.77459
60.1811
0
0
0
0
0
48.14639
49.42188
51.1602
53.46778
56.47864
0
0
0
0
0
0
45.79572
46.9525
48.52686
50.60982
53.31394
0
0
0
0
0
0
0
43.69032
44.74877
46.18779
48.0867
50.54196
0
0
0
0
0
0
0
0
41.75105
42.72429
44.04784
45.79051
48.03634
0
0
0
0
0
0
0
0
0
39.8932
40.79071
42.01034
43.614
45.67456
0
0
0
0
0
0
0
0
0
0
38.07177
38.89905
40.02389
41.49939
43.39026
0
0
0
0
0
0
0
0
0
0
0
36.32301
37.08616
38.12402
39.48442
41.22269
0
0
0
0
0
0
0
0
0
0
0
0
34.67894
35.38637
36.34656
37.60364
39.20729
0
0
0
0
0
0
0
0
0
0
0
0
0
33.1512
33.80885
34.70178
35.86759
37.35203
0
0
0
0
0
0
0
0
0
0
0
0
0
0
31.73569
32.34997
33.18283
34.2695
35.64896
0
0
0
0
0
0
0
0
0
0
0
0
0
0
0
30.42024
30.9964
31.77655
32.79243
34.0804
0
0
0
0
0
0
0
0
0
0
0
0
0
0
0
0
29.18759
29.72929
30.46267
31.41567
32.62138
0
0
0
0
0
0
0
0
0
0
0
0
0
0
0
0
0
28.01452
28.52451
29.21501
30.11142
31.24264
0
0
0
0
0
0
0
0
0
0
0
0
0
0
0
0
0
0
26.87206
27.35299
28.00304
28.84633
29.909
0
0
0
0
0
0
0
0
0
0
0
0
0
0
0
0
0
0
0
25.7437
26.1957
26.80767
27.59978
28.59679
0
0
0
0
0
0
0
0
0
0
24.65428
25.08007
25.65482
26.39944
27.33458
0
0
0
0
0
0
0
0
0
0
23.63235
24.03424
24.57592
25.27568
26.155
0
0
0
0
0
0
0
0
0
0
22.69147
23.0709
23.58289
24.24335
25.07111
0
0
0
0
0
0
0
0
0
0
21.83428
22.19302
22.67755
23.30305
24.08595
0
0
0
0
0
0
0
0
0
0
48.03445
49.30466
51.03524
53.3317
56.32691
0
0
0
0
0
0
45.60267
46.75159
48.31421
50.38031
53.06058
0
0
0
0
0
0
0
43.45346
44.50307
45.92873
47.80834
50.23651
0
0
0
0
0
0
0
0
41.52072
42.48594
43.79721
45.52191
47.74242
0
0
0
0
0
0
0
0
0
39.73334
40.62534
41.83688
43.42856
45.47187
0
0
0
0
0
0
0
0
0
0
38.0147
38.8407
39.96271
41.43395
43.31868
0
0
0
0
0
0
0
0
0
0
0
36.32565
37.08939
38.1276
39.48796
41.22562
0
0
0
0
0
0
0
0
0
0
0
0
34.69828
35.40648
36.36768
37.62588
39.23072
0
0
0
0
0
0
0
0
0
0
0
0
0
33.16465
33.82287
34.71642
35.88301
37.36836
0
0
0
0
0
0
0
0
0
0
0
0
0
0
31.73569
32.34997
33.18283
34.2695
35.64896
0
0
0
0
0
0
0
0
0
0
0
0
0
0
0
30.4084
30.98403
31.7636
32.77873
34.06589
0
0
0
0
0
0
0
0
0
0
0
0
0
0
0
0
29.17278
29.71355
30.44596
31.39796
32.60241
0
0
0
0
0
0
0
0
0
0
0
0
0
0
0
0
0
28.01306
28.52212
29.21173
30.10739
31.23807
0
0
0
0
0
0
0
0
0
0
0
0
0
0
0
0
0
0
26.90699
27.3875
28.03759
28.88143
29.94539
0
0
0
0
0
0
0
0
0
0
0
0
0
0
0
0
0
0
0
25.82919
26.28177
26.89526
27.69008
28.69123
0
0
0
0
0
0
0
0
0
0
0
0
0
0
0
0
0
0
0
0
24.762
25.18895
25.76609
26.51441
27.45489
0
0
0
0
0
0
0
0
0
0
23.7299
24.13292
24.67679
25.37995
26.26399
0
0
0
0
0
0
0
0
0
0
22.76108
23.14137
23.65491
24.31774
25.14882
0
0
0
0
0
0
0
0
0
0
21.8684
22.22758
22.7129
23.33959
24.12415
0
0
0
0
0
0
0
0
0
0
21.05454
21.39428
21.85386
22.44739
23.19062
0
0
0
0
0
0
0
0
0
0
45.50058
46.64521
48.20149
50.25857
52.92618
0
0
0
0
0
0
0
43.27628
44.31942
45.73538
47.60106
50.00974
0
0
0
0
0
0
0
0
41.30254
42.26045
43.5606
45.26924
47.46728
0
0
0
0
0
0
0
0
0
39.52104
40.40606
41.60732
43.18406
45.2063
0
0
0
0
0
0
0
0
0
0
37.86687
38.68884
39.80372
41.265
43.13557
0
0
0
0
0
0
0
0
0
0
36.27289
37.03579
38.07213
39.42899
41.16163
0
0
0
0
0
0
0
0
0
0
0
0
34.70113
35.40981
36.37155
37.63006
39.23483
0
0
0
0
0
0
0
0
0
0
0
0
0
33.18277
33.84193
34.73636
35.90409
37.39071
0
0
0
0
0
0
0
0
0
0
0
0
0
0
31.74834
32.36312
33.19664
34.28401
35.66438
0
0
0
0
0
0
0
0
0
0
0
0
0
0
0
30.4084
30.98403
31.7636
32.77873
34.06589
0
0
0
0
0
0
0
0
0
0
0
0
0
0
0
0
29.16173
29.70197
30.43377
31.3851
32.58871
0
0
0
0
0
0
0
0
0
0
0
0
0
0
0
0
0
27.99931
28.50749
29.1961
30.0907
31.22027
0
0
0
0
0
0
0
0
0
0
0
0
0
0
0
0
0
0
26.90597
27.38557
28.03477
28.87777
29.94103
0
0
0
0
0
0
0
0
0
0
0
0
0
0
0
0
0
0
0
25.86268
26.31483
26.92827
27.72351
28.72563
0
0
0
0
0
0
0
0
0
0
0
0
0
0
0
0
0
0
0
0
24.8435
25.27088
25.8494
26.60013
27.54431
0
0
0
0
0
0
0
0
0
0
0
0
0
0
0
0
0
0
0
0
23.83254
24.23653
24.78252
25.4891
26.37801
0
0
0
0
0
0
0
0
0
0
22.854
23.23536
23.75085
24.41677
25.25224
0
0
0
0
0
0
0
0
0
0
21.9348
22.29471
22.78148
23.41033
24.19794
0
0
0
0
0
0
0
0
0
0
21.08707
21.42719
21.88749
22.48213
23.22687
0
0
0
0
0
0
0
0
0
0
20.31517
20.63552
21.07167
21.63527
22.34095
0
0
0
0
0
0
0
0
0
0
43.18269
44.22227
45.63296
47.49116
49.88947
0
0
0
0
0
0
0
0
41.13915
42.09166
43.38366
45.08063
47.2624
0
0
0
0
0
0
0
0
0
39.3193
40.19808
41.38994
42.95313
44.95646
0
0
0
0
0
0
0
0
0
0
37.67019
38.48649
39.59233
41.04091
42.89375
0
0
0
0
0
0
0
0
0
0
36.13549
36.89521
37.92603
39.27405
40.99475
0
0
0
0
0
0
0
0
0
0
34.65234
35.36021
36.32057
37.5766
39.17716
0
0
0
0
0
0
0
0
0
0
0
0
0
33.18546
33.84542
34.74028
35.90851
37.3954
0
0
0
0
0
0
0
0
0
0
0
0
0
0
31.7654
32.38098
33.21554
34.30392
35.68557
0
0
0
0
0
0
0
0
0
0
0
0
0
0
0
30.42024
30.99641
31.77656
32.79243
34.0804
0
0
0
0
0
0
0
0
0
0
0
0
0
0
0
0
29.16173
29.70197
30.43377
31.3851
32.58871
0
0
0
0
0
0
0
0
0
0
0
0
0
0
0
0
0
27.989
28.49666
29.18467
30.07859
31.20742
0
0
0
0
0
0
0
0
0
0
0
0
0
0
0
0
0
0
26.89323
27.37197
28.02022
28.86215
29.92425
0
0
0
0
0
0
0
0
0
0
0
0
0
0
0
0
0
0
0
25.86208
26.31336
26.92593
27.72035
28.72167
0
0
0
0
0
0
0
0
0
0
0
0
0
0
0
0
0
0
0
0
24.87571
25.30262
25.88106
26.6321
27.57709
0
0
0
0
0
0
0
0
0
0
0
0
0
0
0
0
0
0
0
0
23.91042
24.3147
24.86188
25.57068
26.46291
0
0
0
0
0
0
0
0
0
0
0
0
0
0
0
0
0
0
0
0
22.95186
23.33414
23.8515
24.52053
25.3605
0
0
0
0
0
0
0
0
0
0
22.0235
22.38429
22.8729
23.50456
24.29619
0
0
0
0
0
0
0
0
0
0
21.1505
21.49126
21.95284
22.54951
23.29706
0
0
0
0
0
0
0
0
0
0
20.34622
20.66691
21.1037
21.66831
22.37541
0
0
0
0
0
0
0
0
0
0
19.6134
19.91563
20.32829
20.8638
21.53437
0
0
0
0
0
0
0
0
0
0
41.05294
42.00247
43.29003
44.9807
47.15378
0
0
0
0
0
0
0
0
0
39.16802
40.04223
41.22716
42.78041
44.76998
0
0
0
0
0
0
0
0
0
0
37.48317
38.29396
39.39165
40.82861
42.66532
0
0
0
0
0
0
0
0
0
0
35.95241
36.70754
37.73079
39.06757
40.77304
0
0
0
0
0
0
0
0
0
0
34.52434
35.22941
36.18521
37.43413
39.02406
0
0
0
0
0
0
0
0
0
0
33.13984
33.79951
34.69306
35.85935
37.34311
0
0
0
0
0
0
0
0
0
0
0
0
0
0
31.768
32.38426
33.21957
34.30834
35.69045
0
0
0
0
0
0
0
0
0
0
0
0
0
0
0
30.43617
31.01324
31.79429
32.81131
34.10041
0
0
0
0
0
0
0
0
0
0
0
0
0
0
0
0
29.17278
29.71356
30.44597
31.39796
32.60241
0
0
0
0
0
0
0
0
0
0
0
0
0
0
0
0
0
27.989
28.49666
29.18467
30.07859
31.20742
0
0
0
0
0
0
0
0
0
0
0
0
0
0
0
0
0
0
26.88361
27.36186
28.00954
28.8508
29.91214
0
0
0
0
0
0
0
0
0
0
0
0
0
0
0
0
0
0
0
25.85028
26.30075
26.9124
27.7058
28.70597
0
0
0
0
0
0
0
0
0
0
0
0
0
0
0
0
0
0
0
0
24.87553
25.30159
25.8792
26.62942
27.57363
0
0
0
0
0
0
0
0
0
0
0
0
0
0
0
0
0
0
0
0
23.94149
24.34525
24.89229
25.60136
26.49427
0
0
0
0
0
0
0
0
0
0
0
0
0
0
0
0
0
0
0
0
23.02632
23.40888
23.92726
24.59827
25.44132
0
0
0
0
0
0
0
0
0
0
0
0
0
0
0
0
0
0
0
0
22.11702
22.47852
22.96891
23.60337
24.39912
0
0
0
0
0
0
0
0
0
0
21.23527
21.5768
22.04
22.63932
23.39056
0
0
0
0
0
0
0
0
0
0
20.4069
20.72814
21.16609
21.73253
22.44227
0
0
0
0
0
0
0
0
0
0
19.64307
19.9456
20.35885
20.89529
21.56715
0
0
0
0
0
0
0
0
0
0
18.94856
19.23197
19.62268
20.13039
20.76804
0
0
0
0
0
0
0
0
0
0
39.08831
39.95998
41.14112
42.68899
44.67117
0
0
0
0
0
0
0
0
0
0
37.34287
38.1495
39.2412
40.6696
42.49449
0
0
0
0
0
0
0
0
0
0
35.77815
36.52887
37.54486
38.87145
40.56298
0
0
0
0
0
0
0
0
0
0
34.3534
35.05455
36.00399
37.24333
38.81972
0
0
0
0
0
0
0
0
0
0
33.02018
33.67754
34.56702
35.72728
37.2023
0
0
0
0
0
0
0
0
0
0
31.72527
32.3413
33.17585
34.26278
35.64234
0
0
0
0
0
0
0
0
0
0
0
0
0
0
0
30.43849
31.01639
31.79808
32.8158
34.10525
0
0
0
0
0
0
0
0
0
0
0
0
0
0
0
0
29.18759
29.7293
30.46268
31.41567
32.62138
0
0
0
0
0
0
0
0
0
0
0
0
0
0
0
0
0
27.99931
28.50749
29.1961
30.0907
31.22028
0
0
0
0
0
0
0
0
0
0
0
0
0
0
0
0
0
0
26.88361
27.36186
28.00954
28.8508
29.91215
0
0
0
0
0
0
0
0
0
0
0
0
0
0
0
0
0
0
0
25.84131
26.29132
26.90242
27.69518
28.69462
0
0
0
0
0
0
0
0
0
0
0
0
0
0
0
0
0
0
0
0
24.86461
25.28989
25.86665
26.61589
27.55901
0
0
0
0
0
0
0
0
0
0
0
0
0
0
0
0
0
0
0
0
23.94174
24.34465
24.89089
25.59918
26.49132
0
0
0
0
0
0
0
0
0
0
0
0
0
0
0
0
0
0
0
0
23.0563
23.43839
23.95656
24.62777
25.47144
0
0
0
0
0
0
0
0
0
0
0
0
0
0
0
0
0
0
0
0
22.1884
22.55002
23.04138
23.6776
24.47615
0
0
0
0
0
0
0
0
0
0
0
0
0
0
0
0
0
0
0
0
21.32477
21.6669
22.13162
22.73359
23.48859
0
0
0
0
0
0
0
0
0
0
20.48805
20.80994
21.24936
21.81818
22.5314
0
0
0
0
0
0
0
0
0
0
19.70118
20.0042
20.41849
20.95662
21.63089
0
0
0
0
0
0
0
0
0
0
18.97696
19.26063
19.65187
20.16043
20.79928
0
0
0
0
0
0
0
0
0
0
18.31988
18.58394
18.95229
19.43404
20.03939
0
0
0
0
0
0
0
0
0
0
37.26904
38.07335
39.16178
40.58554
42.40406
0
0
0
0
0
0
0
0
0
0
35.64736
36.39475
37.40527
38.7244
40.40566
0
0
0
0
0
0
0
0
0
0
34.19052
34.88789
35.83131
37.06152
38.62562
0
0
0
0
0
0
0
0
0
0
32.86039
33.51412
34.39804
35.55009
37.01343
0
0
0
0
0
0
0
0
0
0
31.61297
32.22718
33.05824
34.13975
35.51178
0
0
0
0
0
0
0
0
0
0
30.3982
30.97612
31.75713
32.7736
34.06065
0
0
0
0
0
0
0
0
0
0
0
0
0
0
0
0
29.18949
29.73213
30.46631
31.41989
32.62626
0
0
0
0
0
0
0
0
0
0
0
0
0
0
0
0
0
28.01307
28.52213
29.21174
30.1074
31.23808
0
0
0
0
0
0
0
0
0
0
0
0
0
0
0
0
0
0
26.89323
27.37197
28.02022
28.86215
29.92426
0
0
0
0
0
0
0
0
0
0
0
0
0
0
0
0
0
0
0
25.84131
26.29132
26.90242
27.69519
28.69462
0
0
0
0
0
0
0
0
0
0
0
0
0
0
0
0
0
0
0
0
24.85624
25.28109
25.85733
26.60597
27.54839
0
0
0
0
0
0
0
0
0
0
0
0
0
0
0
0
0
0
0
0
23.93167
24.33383
24.87924
25.58662
26.47772
0
0
0
0
0
0
0
0
0
0
0
0
0
0
0
0
0
0
0
0
23.05693
23.43824
23.95561
24.62605
25.469
0
0
0
0
0
0
0
0
0
0
0
0
0
0
0
0
0
0
0
0
22.21744
22.57853
23.06971
23.70604
24.50512
0
0
0
0
0
0
0
0
0
0
0
0
0
0
0
0
0
0
0
0
21.39329
21.73549
22.20099
22.80463
23.56216
0
0
0
0
0
0
0
0
0
0
0
0
0
0
0
0
0
0
0
0
20.57384
20.89621
21.337
21.90818
22.62494
0
0
0
0
0
0
0
0
0
0
19.77897
20.08255
20.49815
21.03847
21.71589
0
0
0
0
0
0
0
0
0
0
19.03269
19.31677
19.70897
20.21908
20.86015
0
0
0
0
0
0
0
0
0
0
18.34707
18.61137
18.98021
19.46274
20.0692
0
0
0
0
0
0
0
0
0
0
17.73104
17.97084
18.31658
18.77227
19.34747
0
0
0
0
0
0
0
0
0
0
35.57866
36.32416
37.33169
38.64676
40.32248
0
0
0
0
0
0
0
0
0
0
34.06824
34.76273
35.70161
36.92501
38.48008
0
0
0
0
0
0
0
0
0
0
32.70803
33.3582
34.23683
35.38115
36.83343
0
0
0
0
0
0
0
0
0
0
31.46296
32.07428
32.90019
33.97444
35.33633
0
0
0
0
0
0
0
0
0
0
30.29253
30.86892
31.647
32.65873
33.93898
0
0
0
0
0
0
0
0
0
0
29.15121
29.69412
30.42789
31.38034
32.58494
0
0
0
0
0
0
0
0
0
0
0
0
0
0
0
0
0
28.01453
28.52452
29.21502
30.11143
31.24265
0
0
0
0
0
0
0
0
0
0
0
0
0
0
0
0
0
0
26.90597
27.38557
28.03478
28.87778
29.94104
0
0
0
0
0
0
0
0
0
0
0
0
0
0
0
0
0
0
0
25.85028
26.30075