/*--------------------------------*- C++ -*----------------------------------*\
| =========                 |                                                 |
| \\      /  F ield         | OpenFOAM: The Open Source CFD Toolbox           |
|  \\    /   O peration     | Version:  2306                                  |
|   \\  /    A nd           | Website:  www.openfoam.com                      |
|    \\/     M anipulation  |                                                 |
\*---------------------------------------------------------------------------*/
FoamFile
{
    version     2.0;
    format      ascii;
    arch        "LSB;label=32;scalar=64";
    class       volScalarField;
    location    "0.3/fuel";
    object      p_rgh;
}
// * * * * * * * * * * * * * * * * * * * * * * * * * * * * * * * * * * * * * //

dimensions      [1 -1 -2 0 0 0 0];

internalField   nonuniform List<scalar> 
16000
(
100628.2
100620.3
100514.1
100607.6
100606.2
100506.2
100599.4
100423.8
100497.3
100562.5
100581.2
100491.7
100584.6
100416.9
100489.3
100553.7
100357.1
100410.1
100460.5
100510.4
100557.6
100467.1
100558.7
100404
100474.4
100537.6
100351.1
100403.1
100452.1
100500.8
100307.6
100345.6
100380
100417.9
100401.8
100510.3
100441.8
100533.8
100382.4
100449.2
100509.6
100339.9
100389.9
100436.6
100483.1
100302.3
100339.5
100372.8
100409.1
100390.6
100269.3
100297.8
100320.5
100345.2
100329.2
100381
100501.1
100397.4
100485.1
100359.8
100423.4
100482
100321.2
100368
100410.2
100452.8
100292.5
100328.2
100359.2
100392.6
100369.7
100264.7
100292.5
100314.2
100337.6
100319.4
100369.5
100239.1
100260.8
100276.2
100291.2
100272.5
100312.2
100374.4
100493.5
100385
100474.9
100321.8
100378.2
100430.2
100301.6
100345
100382.9
100422.1
100276.2
100309.3
100336.5
100365
100334.5
100256
100282.5
100302.5
100323.4
100301.2
100348
100234.9
100256.1
100270.8
100284.8
100264.3
100302.3
100362.8
100214.4
100231.6
100242.1
100251.2
100230.3
100258.6
100306.8
100363.3
100492.1
100375.7
100466.7
100310.1
100365.3
100417.9
100269.2
100306.6
100336.3
100366.7
100259
100289.3
100312.6
100336.1
100297.3
100241.7
100266.1
100283
100299.9
100270.9
100311.8
100227.2
100247.4
100260.6
100272.6
100249
100283.7
100341.1
100210.7
100227.4
100237.3
100245.6
100223.4
100250.3
100296.8
100351.5
100194
100207.8
100215.1
100220.4
100199
100218.6
100254.2
100297.7
100353.9
100491.4
100372.7
100465
100301.6
100355.7
100408.4
100258.8
100294.6
100322.3
100351.9
100231
100256.6
100273.1
100287.6
100234.6
100226.4
100248.6
100262.5
100275
100238.5
100273.4
100214.4
100232.9
100243.8
100252.6
100223.7
100252.9
100304.6
100203.7
100219.6
100228.3
100235.1
100210.4
100234.7
100278.1
100329.5
100190.7
100204
100210.8
100215.4
100193.1
100211.6
100245.9
100287.7
100342.1
100176.8
100188.1
100193.1
100195.9
100174.9
100189
100214.9
100246.7
100290.1
100342.4
100491.4
100371.3
100464.1
100298.6
100352.6
100405.9
100251.3
100285.9
100312.1
100340.8
100221.8
100246.1
100260.6
100272.4
100214.5
100201.9
100220.4
100229.1
100234.4
100186.3
100209.3
100200.8
100217.5
100225.9
100231.3
100196.6
100219.8
100265.8
100192.3
100206.7
100213.5
100217.8
100189.1
100209.1
100247.1
100292.5
100184.3
100197
100202.8
100206.2
100182
100198.5
100230.2
100268.7
100319.8
100173.8
100184.7
100189.3
100191.6
100169.8
100183.1
100207.9
100238.3
100280
100330.3
100162.1
100171.4
100174.9
100176
100155.9
100166.2
100185.9
100208.7
100240.5
100280.6
100312.9
100492.1
100371.3
100464.1
100297.3
100351.1
100404.7
100248.6
100282.8
100308.6
100337.5
100215.2
100238.4
100251.5
100261.5
100200.3
100193.7
100211.1
100218.1
100221.1
100168.6
100188.3
100179.1
100192.8
100197.1
100197.1
100153.6
100166.9
100201.2
100180
100193
100197.8
100199.4
100166.3
100181.6
100213.9
100253
100174
100185.4
100189.7
100191.1
100163.7
100177
100204.5
100237.4
100282.3
100168
100178.3
100182.1
100183.4
100160.1
100171.8
100194.7
100222.6
100260.9
100307.7
100159.3
100168.3
100171.4
100172.1
100151.3
100161
100179.9
100201.6
100232.1
100270.4
100300.5
100149.4
100157.2
100159.5
100159.6
100140.4
100148.2
100163.5
100180.5
100203.4
100232.8
100256.6
100319.8
100493.5
100372.7
100465
100297.3
100351.1
100404.7
100247.3
100281.4
100307
100336
100212.7
100235.7
100248.2
100257.6
100195.3
100187.9
100204.4
100210.3
100211.6
100156.2
100173.5
100171.8
100184.5
100187.5
100185.7
100138.8
100148.8
100179.9
100160.6
100171.1
100172.7
100170.1
100130.5
100138.2
100160.7
100187.5
100162.9
100173.1
100175.7
100174.9
100144.2
100153.9
100176.8
100203.9
100242.2
100158.5
100167.8
100170.4
100170
100144.2
100153.4
100173.1
100196.6
100229.4
100269.6
100154
100162.5
100165
100164.8
100142.7
100151.2
100168.6
100188.3
100216.2
100251.2
100277
100146.8
100154.4
100156.4
100156
100136.3
100143.6
100158.3
100174.5
100196.4
100224.3
100246.2
100307.4
100138.3
100144.9
100146.4
100145.6
100127.5
100133.6
100145.8
100158.8
100176.1
100197
100213.2
100262.3
100308.5
100501.1
100375.7
100466.7
100298.6
100352.6
100405.9
100247.3
100281.4
100307
100336
100211.6
100234.4
100246.8
100255.9
100193
100185.6
100201.9
100207.4
100208.1
100151.6
100168.1
100166.5
100178.6
100180.7
100177.5
100128.5
100136.1
100164.9
100154
100163.7
100164.2
100160.1
100118
100123.1
100142.4
100165.6
100145.4
100153.6
100153.6
100149.4
100113.6
100117.7
100133.2
100150.2
100176
100148.5
100156.7
100157.8
100155.6
100127.2
100133.6
100149.9
100168.8
100195.5
100228.8
100145.4
100153
100154.3
100152.8
100128.8
100135.2
100150.1
100166.6
100190.1
100219.3
100237.7
100141.9
100149.1
100150.5
100149.4
100128.7
100135
100148.4
100163.1
100183
100208.3
100226.5
100284
100135.9
100142.3
100143.5
100142.4
100123.9
100129.5
100141.2
100153.6
100170
100189.8
100204.5
100251.8
100295.9
100128.4
100134.1
100135
100133.7
100116.7
100121.4
100131.4
100141.7
100154.9
100170.5
100180.5
100217.7
100253.1
100306.2
100510.3
100385
100474.9
100301.6
100355.7
100408.4
100248.6
100282.8
100308.6
100337.5
100211.6
100234.4
100246.8
100255.9
100193
100184.6
100200.8
100206
100206.5
100149.5
100165.7
100164.5
100176.3
100178.1
100174.5
100124.6
100131.3
100159.4
100149.3
100158.4
100158.2
100153.1
100109.3
100112.6
100129.6
100150.3
100139.4
100146.9
100146
100140.6
100103
100105.1
100118.1
100131.7
100153.7
100132.6
100139.1
100138
100133.2
100100.7
100102.9
100113.6
100124.9
100141.4
100161.6
100136.1
100142.9
100143
100140
100113.7
100118
100130.2
100143.2
100162
100185
100195.1
100134
100140.4
100140.8
100138.6
100116.2
100120.9
100132.4
100144.5
100161.2
100181.9
100193.9
100244.4
100131.4
100137.4
100138.1
100136.4
100117
100121.7
100132.5
100143.7
100158.6
100176.4
100188.2
100232.1
100272
100126.2
100131.7
100132.3
100130.8
100113.3
100117.7
100127.3
100137.1
100149.7
100164.4
100173.3
100209.1
100242.5
100293.4
100119.7
100124.6
100125
100123.4
100107.3
100111.1
100119.4
100127.7
100138.3
100150.1
100156.4
100184.4
100210.2
100251.1
100303.6
100557.6
100397.4
100485.1
100310.1
100365.3
100417.9
100251.3
100285.9
100312.1
100340.8
100212.7
100235.7
100248.2
100257.6
100195.3
100184.6
100200.8
100206
100206.5
100149.5
100165.7
100163.6
100175.3
100176.9
100173.1
100122.8
100129.2
100157
100147.4
100156.4
100155.9
100150.4
100106
100108.6
100124.8
100144.7
100135.1
100142.1
100140.6
100134.5
100095.6
100096.3
100107.5
100118.8
100138.2
100127.1
100133
100131.2
100125.4
100091.4
100092.1
100100.9
100109.6
100122.7
100138.8
100121.7
100126.9
100125.2
100120
100090.5
100091.4
100099.4
100106.7
100117.9
100130.3
100126
100125.5
100131.1
100130.5
100127
100102.8
100105.7
100115.1
100124.6
100137.6
100153.6
100158.7
100201.7
100124
100129.4
100129.3
100126.6
100105.8
100109.2
100118.4
100127.5
100139.9
100154.4
100161.4
100199.3
100230.7
100122.1
100127.2
100127.4
100125.3
100107.1
100110.8
100119.5
100128.3
100139.7
100152.9
100159.6
100192.8
100222.5
100269.3
100117.6
100122.4
100122.6
100120.7
100104.3
100107.8
100115.7
100123.6
100133.6
100144.8
100150.3
100177.1
100201.5
100240.5
100290.7
100111.9
100116.2
100116.2
100114.4
100099.3
100102.3
100109.3
100116.2
100124.7
100134
100137.9
100159.7
100178.1
100208.7
100249
100581.2
100441.8
100533.8
100321.8
100378.2
100430.2
100258.8
100294.6
100322.3
100351.9
100215.2
100238.4
100251.5
100261.5
100200.3
100185.6
100201.9
100207.4
100208.1
100151.6
100168.1
100163.6
100175.3
100176.9
100173.1
100122.8
100129.2
100157
100146.6
100155.5
100154.8
100149.2
100104.5
100106.8
100122.7
100142.2
100133.4
100140.3
100138.5
100132.1
100092.7
100092.9
100103.5
100113.9
100132.4
100123.2
100128.7
100126.4
100119.9
100085
100084.6
100092.1
100098.9
100109.7
100122.9
100116.6
100121.4
100119
100113
100082.3
100082
100088.6
100093.9
100102.4
100111.4
100101.7
100112.2
100116.5
100114.4
100109.1
100082.2
100082.4
100088.4
100093.6
100101
100109
100103.1
100128
100116.2
100120.9
100119.8
100116.1
100093.8
100095.7
100103.2
100110.2
100119.8
100130.7
100132.5
100163.9
100186.3
100115.3
100119.8
100119.3
100116.4
100097
100099.5
100107
100114.1
100123.5
100134.1
100137.3
100165.7
100188.4
100226.6
100113.8
100118.2
100118
100115.7
100098.6
100101.5
100108.8
100115.8
100124.9
100134.8
100138.6
100163.5
100184.9
100220.3
100266.3
100109.9
100114.1
100114
100111.9
100096.5
100099.2
100106
100112.4
100120.5
100129.3
100132.5
100153.6
100170.8
100199.9
100238.3
100104.8
100108.6
100108.4
100106.4
100092.2
100094.6
100100.7
100106.4
100113.4
100120.9
100123.2
100140.7
100154.4
100176.8
100206.9
100606.2
100467.1
100558.7
100359.8
100423.4
100482
100269.2
100306.6
100336.3
100366.7
100221.8
100246.1
100260.6
100272.4
100214.5
100187.9
100204.4
100210.3
100211.6
100156.2
100173.5
100164.5
100176.3
100178.1
100174.5
100124.6
100131.3
100159.4
100146.6
100155.5
100154.8
100149.2
100104.5
100106.8
100122.7
100142.2
100132.7
100139.5
100137.6
100131
100091.4
100091.4
100101.7
100111.7
100129.8
100121.7
100127.1
100124.5
100117.8
100082.5
100081.7
100088.7
100094.9
100104.7
100117
100113.1
100117.5
100114.7
100108.1
100076.7
100075.5
100081
100085.1
100091.8
100098.3
100085
100107.6
100111.5
100108.8
100102.8
100074.9
100074.1
100079
100082.7
100088.1
100093.5
100083.5
100105.3
100104
100107.6
100105.2
100099.8
100075.3
100075
100079.8
100083.4
100088.7
100093.7
100087.4
100104.5
100099
100108
100111.9
100110.6
100106.8
100086.1
100087.4
100093.4
100098.9
100106.1
100113.9
100113.2
100136.6
100151.8
100181.1
100107.4
100111.4
100110.5
100107.5
100089.4
100091.3
100097.5
100103.2
100110.6
100118.5
100119.6
100140.9
100157
100185.2
100221.9
100106.3
100110.2
100109.7
100107.3
100091.3
100093.5
100099.7
100105.5
100112.7
100120.5
100122.4
100141.9
100156.9
100183.2
100217.9
100103
100106.7
100106.3
100104.1
100089.6
100091.8
100097.6
100103
100109.7
100116.7
100118.5
100135.4
100148.1
100169.4
100198.1
100098.4
100101.7
100101.3
100099.3
100085.9
100087.9
100093.2
100098
100103.9
100110
100111.3
100125.7
100136.1
100153.2
100175.3
100620.3
100491.7
100584.6
100382.4
100449.2
100509.6
100301.6
100345
100382.9
100422.1
100231
100256.6
100273.1
100287.6
100234.6
100193.7
100211.1
100218.1
100221.1
100168.6
100188.3
100166.5
100178.6
100180.7
100177.5
100128.5
100136.1
100164.9
100147.4
100156.4
100155.9
100150.4
100106
100108.6
100124.8
100144.7
100132.7
100139.5
100137.6
100131
100091.4
100091.4
100101.7
100111.7
100129.8
100121
100126.3
100123.7
100116.8
100081.4
100080.4
100087.2
100093
100102.5
100114.4
100111.7
100116
100113
100106.2
100074.5
100073
100078.1
100081.7
100087.7
100093.3
100078.6
100104.3
100107.9
100104.8
100098.3
100069.9
100068.4
100072.5
100075.1
100079.2
100082.8
100070
100089.8
100099.7
100102.9
100100
100094.1
100068.7
100067.6
100071.5
100073.9
100077.7
100080.7
100071.4
100086.1
100079.4
100096.7
100099.7
100097.2
100092
100069.4
100068.8
100072.7
100075.3
100079.2
100082.5
100075.9
100088.4
100082.1
100079.1
100100.7
100104.1
100102.5
100098.7
100079.5
100080.3
100085.4
100089.6
100095.3
100101
100099.1
100116.6
100127
100147.7
100174.9
100100.4
100103.9
100102.8
100099.7
100082.8
100084.2
100089.5
100094.1
100100.1
100106.2
100105.9
100122.7
100133.6
100154.4
100181.5
100099.6
100103
100102.3
100099.8
100084.8
100086.6
100091.9
100096.7
100102.7
100108.9
100109.6
100125.2
100136.3
100155.4
100181.3
100096.7
100099.9
100099.4
100097.2
100083.5
100085.3
100090.4
100094.9
100100.5
100106.3
100107.1
100121
100130.6
100146.9
100167.9
100092.5
100095.5
100095
100092.9
100080.2
100081.9
100086.5
100090.7
100095.7
100100.8
100101.4
100113.5
100121.6
100135.1
100152
100628.2
100506.2
100599.4
100404
100474.4
100537.6
100321.2
100368
100410.2
100452.8
100259
100289.3
100312.6
100336.1
100297.3
100201.9
100220.4
100229.1
100234.4
100186.3
100209.3
100171.8
100184.5
100187.5
100185.7
100138.8
100148.8
100179.9
100149.3
100158.4
100158.2
100153.1
100109.3
100112.6
100129.6
100150.3
100133.4
100140.3
100138.5
100132.1
100092.7
100092.9
100103.5
100113.9
100132.4
100121
100126.3
100123.7
100116.8
100081.4
100080.4
100087.2
100093
100102.5
100114.4
100111
100115.3
100112.2
100105.3
100073.5
100071.9
100076.8
100080.1
100085.8
100091
100075.7
100103
100106.5
100103.3
100096.6
100067.9
100066.2
100070
100072.2
100075.8
100078.6
100064.7
100084.1
100096.7
100099.6
100096.4
100090.1
100064.2
100062.5
100065.8
100067.4
100070.2
100071.8
100060.5
100073.5
100066.2
100092.7
100095.4
100092.5
100086.7
100063.5
100062.2
100065.3
100067
100069.7
100071.5
100062.6
100073.5
100066.4
100063.5
100090.2
100092.7
100090.2
100085.1
100064.3
100063.6
100066.7
100068.7
100071.6
100073.8
100067.4
100076.7
100070.5
100066.6
100028.2
100094.1
100097.1
100095.4
100091.6
100073.7
100074.3
100078.5
100081.9
100086.4
100090.8
100088.2
100102
100108.6
100123.6
100142.9
100094.1
100097.1
100095.9
100092.8
100077
100078.1
100082.6
100086.4
100091.3
100096.2
100095.1
100108.6
100116.5
100131.4
100151.4
100093.5
100096.5
100095.7
100093.2
100079.1
100080.5
100085.1
100089.2
100094.2
100099.2
100099.2
100112.1
100120.4
100135
100153.8
100090.9
100093.8
100093.1
100090.9
100078.1
100079.6
100084
100087.9
100092.6
100097.4
100097.6
100109.3
100116.9
100129.6
100145.7
100087.1
100089.8
100089.2
100087.1
100075.2
100076.6
100080.7
100084.3
100088.6
100092.9
100093
100103.4
100109.9
100120.8
100134
100514.1
100607.6
100416.9
100489.3
100553.7
100339.9
100389.9
100436.6
100483.1
100276.2
100309.3
100336.5
100365
100334.5
100226.4
100248.6
100262.5
100275
100238.5
100273.4
100179.1
100192.8
100197.1
100197.1
100153.6
100166.9
100201.2
100154
100163.7
100164.2
100160.1
100118
100123.1
100142.4
100165.6
100135.1
100142.1
100140.6
100134.5
100095.6
100096.3
100107.5
100118.8
100138.2
100121.7
100127.1
100124.5
100117.8
100082.5
100081.7
100088.7
100094.9
100104.7
100117
100111
100115.3
100112.2
100105.3
100073.5
100071.9
100076.8
100080.1
100085.8
100091
100075.7
100102.4
100105.8
100102.6
100095.9
100067
100065.2
100068.8
100070.9
100074.2
100076.8
100062.4
100081.5
100095.5
100098.3
100095
100088.6
100062.4
100060.6
100063.5
100064.9
100067.2
100068.4
100056.2
100068.8
100061.6
100089.9
100092.3
100089.1
100083.1
100059.4
100057.7
100060.2
100061.3
100063.1
100063.9
100053.5
100063.2
100055.8
100053.2
100086.5
100088.7
100085.8
100080.3
100058.9
100057.6
100060.1
100061.4
100063.3
100064.3
100056.2
100064.3
100057.8
100054.2
100027.3
100084.4
100086.5
100084
100079.1
100059.9
100059
100061.7
100063.2
100065.5
100067
100060.8
100068.2
100062
100058.1
100027.1
100027
100088.2
100090.8
100089
100085.3
100068.7
100069
100072.6
100075.4
100079.1
100082.5
100079.5
100090.7
100095.2
100105.9
100119.8
100088.3
100091
100089.7
100086.7
100071.9
100072.7
100076.6
100079.8
100083.9
100087.8
100086.3
100097.5
100103.2
100114.6
100129
100087.9
100090.6
100089.7
100087.2
100073.9
100075.1
100079.1
100082.6
100086.9
100091.1
100090.5
100101.4
100107.8
100119.3
100133.7
100085.6
100088.2
100087.5
100085.2
100073.1
100074.4
100078.3
100081.7
100085.8
100089.8
100089.6
100099.6
100105.6
100116
100128.5
100082.2
100084.6
100083.9
100081.8
100070.6
100071.8
100075.4
100078.6
100082.4
100086
100085.8
100094.8
100100.1
100109.1
100119.8
100423.8
100497.3
100562.5
100351.1
100403.1
100452.1
100500.8
100292.5
100328.2
100359.2
100392.6
100369.7
100241.7
100266.1
100283
100299.9
100270.9
100311.8
100200.8
100217.5
100225.9
100231.3
100196.6
100219.8
100265.8
100160.6
100171.1
100172.7
100170.1
100130.5
100138.2
100160.7
100187.5
100139.4
100146.9
100146
100140.6
100103
100105.1
100118.1
100131.7
100153.7
100123.2
100128.7
100126.4
100119.9
100085
100084.6
100092.1
100098.9
100109.7
100122.9
100111.7
100116
100113
100106.2
100074.5
100073
100078.1
100081.7
100087.7
100093.3
100078.6
100102.4
100105.8
100102.6
100095.9
100067
100065.2
100068.8
100070.9
100074.2
100076.8
100062.4
100081.5
100094.9
100097.7
100094.4
100087.9
100061.6
100059.7
100062.5
100063.7
100065.9
100066.8
100054.3
100066.7
100059.6
100088.8
100091.1
100087.8
100081.7
100057.8
100055.9
100058.2
100059.1
100060.6
100061
100050
100059.4
100052
100050
100083.9
100085.9
100082.8
100077
100055.2
100053.5
100055.6
100056.3
100057.6
100057.8
100048.5
100055.8
100049.2
100045.9
100027
100080.9
100082.8
100079.9
100074.7
100054.9
100053.6
100055.7
100056.6
100058.1
100058.7
100051.2
100057.6
100051.4
100048.1
100026.5
100027
100079.1
100081
100078.4
100073.8
100055.9
100055
100057.3
100058.5
100060.3
100061.3
100055.6
100061.5
100055.7
100051.7
100026.6
100026.3
100027
100082.8
100085.1
100083.3
100079.7
100064.2
100064.3
100067.4
100069.8
100072.8
100075.5
100072.5
100081.7
100084.8
100092.8
100102.6
100083.1
100085.5
100084.1
100081.1
100067.3
100067.9
100071.3
100074.1
100077.5
100080.7
100079
100088.4
100092.8
100101.6
100112.5
100082.8
100085.2
100084.3
100081.8
100069.3
100070.3
100073.8
100076.8
100080.5
100084
100083.2
100092.5
100097.6
100106.9
100118.1
100080.8
100083.1
100082.3
100080.1
100068.7
100069.7
100073.2
100076.2
100079.8
100083.2
100082.7
100091.4
100096.3
100104.8
100115
100077.6
100079.8
100079.1
100077
100066.4
100067.4
100070.7
100073.5
100076.8
100080
100079.5
100087.5
100091.8
100099.4
100108.3
100357.1
100410.1
100460.5
100510.4
100302.3
100339.5
100372.8
100409.1
100390.6
100256
100282.5
100302.5
100323.4
100301.2
100348
100214.4
100232.9
100243.8
100252.6
100223.7
100252.9
100304.6
100180
100193
100197.8
100199.4
100166.3
100181.6
100213.9
100253
100145.4
100153.6
100153.6
100149.4
100113.6
100117.7
100133.2
100150.2
100176
100127.1
100133
100131.2
100125.4
100091.4
100092.1
100100.9
100109.6
100122.7
100138.8
100113.1
100117.5
100114.7
100108.1
100076.7
100075.5
100081
100085.1
100091.8
100098.3
100085
100103
100106.5
100103.3
100096.6
100067.9
100066.2
100070
100072.2
100075.8
100078.6
100064.7
100084.1
100094.9
100097.7
100094.4
100087.9
100061.6
100059.7
100062.5
100063.7
100065.9
100066.8
100054.3
100066.7
100059.6
100088.3
100090.6
100087.2
100081
100057.1
100055.1
100057.3
100058.1
100059.4
100059.7
100048.4
100057.7
100050.4
100048.6
100082.9
100084.8
100081.6
100075.7
100053.7
100051.9
100053.8
100054.3
100055.3
100055.2
100045.5
100052.6
100046.2
100043.4
100027
100078.5
100080.2
100077.1
100071.6
100051.5
100049.9
100051.6
100052.1
100053
100052.9
100044.5
100050.4
100044.3
100041.4
100026.3
100026.9
100075.9
100077.5
100074.7
100069.7
100051.4
100050.1
100051.9
100052.6
100053.7
100053.9
100047.2
100052.4
100046.8
100043.5
100026.1
100026.2
100027
100074.3
100075.9
100073.4
100069
100052.4
100051.5
100053.5
100054.5
100055.9
100056.6
100051.3
100056.2
100050.7
100047
100025.8
100025.9
100026.3
100027
100077.9
100079.9
100078.1
100074.6
100060.1
100060.1
100062.9
100064.9
100067.4
100069.6
100066.6
100074.4
100076.6
100082.8
100090.1
100078.3
100080.4
100079
100076.1
100063.1
100063.6
100066.6
100069
100072
100074.6
100072.8
100080.9
100084.2
100091.4
100099.8
100078.1
100080.3
100079.3
100076.8
100065.1
100065.9
100069.1
100071.7
100074.9
100077.9
100076.9
100085
100089.1
100096.8
100105.9
100076.2
100078.4
100077.5
100075.4
100064.6
100065.5
100068.6
100071.3
100074.4
100077.4
100076.7
100084.4
100088.4
100095.6
100104
100073.3
100075.3
100074.6
100072.6
100062.5
100063.4
100066.4
100068.9
100071.8
100074.6
100074
100081.1
100084.8
100091.2
100098.7
100307.6
100345.6
100380
100417.9
100401.8
100264.7
100292.5
100314.2
100337.6
100319.4
100369.5
100227.2
100247.4
100260.6
100272.6
100249
100283.7
100341.1
100192.3
100206.7
100213.5
100217.8
100189.1
100209.1
100247.1
100292.5
100162.9
100173.1
100175.7
100174.9
100144.2
100153.9
100176.8
100203.9
100242.2
100132.6
100139.1
100138
100133.2
100100.7
100102.9
100113.6
100124.9
100141.4
100161.6
100116.6
100121.4
100119
100113
100082.3
100082
100088.6
100093.9
100102.4
100111.4
100101.7
100104.3
100107.9
100104.8
100098.3
100069.9
100068.4
100072.5
100075.1
100079.2
100082.8
100070
100089.8
100095.5
100098.3
100095
100088.6
100062.4
100060.6
100063.5
100064.9
100067.2
100068.4
100056.2
100068.8
100061.6
100088.3
100090.6
100087.2
100081
100057.1
100055.1
100057.3
100058.1
100059.4
100059.7
100048.4
100057.7
100050.4
100048.6
100082.4
100084.3
100081
100075.1
100053.1
100051.2
100053
100053.4
100054.3
100054.1
100044.2
100051.2
100044.9
100042.3
100027
100077.5
100079.2
100076
100070.4
100050.2
100048.4
100050
100050.3
100051
100050.7
100041.9
100047.7
100041.8
100039.4
100026.3
100026.9
100073.6
100075.1
100072
100066.8
100048.3
100046.6
100048.2
100048.4
100049.1
100048.8
100041.3
100046.2
100040.8
100038
100025.9
100026.2
100026.9
100071.3
100072.7
100069.9
100065.2
100048.2
100046.9
100048.5
100049
100049.9
100050
100043.8
100048.2
100043.1
100040.1
100025.4
100025.9
100026.2
100027
100069.9
100071.3
100068.9
100064.7
100049.2
100048.3
100050.1
100050.9
100052.1
100052.6
100047.6
100051.8
100046.8
100043.3
100025.2
100025.3
100025.9
100026.3
100027
100073.4
100075.2
100073.4
100070
100056.4
100056.4
100058.8
100060.5
100062.7
100064.5
100061.5
100068.3
100069.9
100074.8
100080.4
100073.8
100075.7
100074.4
100071.5
100059.3
100059.7
100062.4
100064.5
100067
100069.3
100067.4
100074.4
100077.1
100083
100089.8
100073.7
100075.7
100074.7
100072.3
100061.2
100061.9
100064.8
100067.1
100069.9
100072.5
100071.3
100078.5
100081.9
100088.4
100095.8
100072
100074
100073.1
100071
100060.8
100061.6
100064.5
100066.8
100069.6
100072.2
100071.4
100078.2
100081.6
100087.8
100094.8
100069.3
100071.2
100070.4
100068.5
100058.9
100059.7
100062.5
100064.7
100067.4
100069.8
100069.1
100075.4
100078.6
100084.2
100090.5
100269.3
100297.8
100320.5
100345.2
100329.2
100381
100234.9
100256.1
100270.8
100284.8
100264.3
100302.3
100362.8
100203.7
100219.6
100228.3
100235.1
100210.4
100234.7
100278.1
100329.5
100174
100185.4
100189.7
100191.1
100163.7
100177
100204.5
100237.4
100282.3
100148.5
100156.7
100157.8
100155.6
100127.2
100133.6
100149.9
100168.8
100195.5
100228.8
100121.7
100126.9
100125.2
100120
100090.5
100091.4
100099.4
100106.7
100117.9
100130.3
100126
100107.6
100111.5
100108.8
100102.8
100074.9
100074.1
100079
100082.7
100088.1
100093.5
100083.5
100105.3
100096.7
100099.6
100096.4
100090.1
100064.2
100062.5
100065.8
100067.4
100070.2
100071.8
100060.5
100073.5
100066.2
100088.8
100091.1
100087.8
100081.7
100057.8
100055.9
100058.2
100059.1
100060.6
100061
100050
100059.4
100052
100050
100082.4
100084.3
100081
100075.1
100053.1
100051.2
100053
100053.4
100054.3
100054.1
100044.2
100051.2
100044.9
100042.3
100027
100077.1
100078.7
100075.5
100069.8
100049.6
100047.7
100049.3
100049.5
100050.1
100049.7
100040.8
100046.5
100040.7
100038.5
100026.3
100026.9
100072.7
100074.1
100071
100065.7
100047
100045.3
100046.7
100046.8
100047.3
100046.9
100039.1
100043.8
100038.7
100036.2
100025.9
100026.2
100026.9
100069.1
100070.4
100067.5
100062.5
100045.3
100043.8
100045.1
100045.3
100045.8
100045.4
100038.6
100042.8
100037.9
100035.4
100025.3
100025.8
100026.2
100026.9
100067.1
100068.3
100065.7
100061.1
100045.3
100044.1
100045.5
100045.9
100046.6
100046.6
100040.9
100044.7
100040.1
100037.3
100024.8
100025.2
100025.9
100026.2
100026.9
100065.8
100067.1
100064.8
100060.8
100046.3
100045.4
100047
100047.7
100048.7
100049
100044.4
100048
100043.4
100040.3
100024.5
100024.7
100025.3
100025.9
100026.2
100026.9
100069.2
100070.8
100069.1
100065.9
100053.1
100053
100055.2
100056.7
100058.6
100060.1
100057.2
100063.1
100064.3
100068.3
100072.8
100069.7
100071.4
100070.1
100067.3
100055.8
100056.1
100058.6
100060.4
100062.7
100064.6
100062.7
100068.9
100071.1
100076
100081.6
100069.7
100071.5
100070.5
100068.1
100057.7
100058.3
100060.9
100063
100065.5
100067.7
100066.5
100072.9
100075.7
100081.2
100087.5
100068.1
100069.9
100069.1
100067
100057.4
100058.1
100060.7
100062.8
100065.3
100067.6
100066.7
100072.8
100075.7
100081
100087.1
100065.6
100067.3
100066.5
100064.6
100055.6
100056.3
100058.8
100060.9
100063.3
100065.5
100064.7
100070.4
100073.1
100078.1
100083.6
100239.1
100260.8
100276.2
100291.2
100272.5
100312.2
100374.4
100210.7
100227.4
100237.3
100245.6
100223.4
100250.3
100296.8
100351.5
100184.3
100197
100202.8
100206.2
100182
100198.5
100230.2
100268.7
100319.8
100158.5
100167.8
100170.4
100170
100144.2
100153.4
100173.1
100196.6
100229.4
100269.6
100136.1
100142.9
100143
100140
100113.7
100118
100130.2
100143.2
100162
100185
100195.1
100112.2
100116.5
100114.4
100109.1
100082.2
100082.4
100088.4
100093.6
100101
100109
100103.1
100128
100099.7
100102.9
100100
100094.1
100068.7
100067.6
100071.5
100073.9
100077.7
100080.7
100071.4
100086.1
100079.4
100089.9
100092.3
100089.1
100083.1
100059.4
100057.7
100060.2
100061.3
100063.1
100063.9
100053.5
100063.2
100055.8
100053.2
100082.9
100084.8
100081.6
100075.7
100053.7
100051.9
100053.8
100054.3
100055.3
100055.2
100045.5
100052.6
100046.2
100043.4
100027
100077.1
100078.7
100075.5
100069.8
100049.6
100047.7
100049.3
100049.5
100050.1
100049.7
100040.8
100046.5
100040.7
100038.5
100026.3
100026.9
100072.3
100073.7
100070.5
100065.2
100046.5
100044.7
100046
100046.1
100046.5
100046
100038.1
100042.8
100037.7
100035.5
100025.9
100026.2
100026.9
100068.3
100069.5
100066.5
100061.5
100044.2
100042.6
100043.8
100043.8
100044.2
100043.7
100036.6
100040.7
100036
100034
100025.3
100025.8
100026.2
100026.9
100065.1
100066.2
100063.4
100058.7
100042.7
100041.2
100042.4
100042.5
100042.9
100042.5
100036.3
100039.9
100035.5
100033.3
100024.7
100025.2
100025.9
100026.2
100026.9
100063.2
100064.3
100061.7
100057.5
100042.7
100041.5
100042.8
100043.1
100043.7
100043.6
100038.4
100041.7
100037.5
100035
100024.2
100024.7
100025.2
100025.9
100026.2
100026.9
100062.1
100063.3
100061
100057.2
100043.7
100042.8
100044.2
100044.8
100045.7
100045.9
100041.7
100044.8
100040.6
100037.7
100023.9
100024.1
100024.7
100025.2
100025.9
100026.2
100026.9
100065.3
100066.8
100065.1
100062
100050
100049.9
100051.9
100053.2
100054.8
100056.1
100053.4
100058.6
100059.4
100062.8
100066.5
100065.8
100067.4
100066.1
100063.5
100052.6
100052.8
100055.1
100056.7
100058.7
100060.4
100058.5
100064.1
100065.8
100070.1
100074.8
100065.9
100067.6
100066.5
100064.3
100054.4
100054.9
100057.3
100059.2
100061.4
100063.4
100062.2
100067.9
100070.3
100075.1
100080.5
100064.5
100066.1
100065.3
100063.3
100054.2
100054.8
100057.2
100059.1
100061.4
100063.4
100062.5
100068
100070.5
100075.2
100080.4
100062.1
100063.7
100062.9
100061.1
100052.6
100053.2
100055.5
100057.4
100059.6
100061.5
100060.7
100065.9
100068.3
100072.7
100077.5
100214.4
100231.6
100242.1
100251.2
100230.3
100258.6
100306.8
100363.3
100190.7
100204
100210.8
100215.4
100193.1
100211.6
100245.9
100287.7
100342.1
100168
100178.3
100182.1
100183.4
100160.1
100171.8
100194.7
100222.6
100260.9
100307.7
100145.4
100153
100154.3
100152.8
100128.8
100135.2
100150.1
100166.6
100190.1
100219.3
100237.7
100125.5
100131.1
100130.5
100127
100102.8
100105.7
100115.1
100124.6
100137.6
100153.6
100158.7
100201.7
100104
100107.6
100105.2
100099.8
100075.3
100075
100079.8
100083.4
100088.7
100093.7
100087.4
100104.5
100099
100092.7
100095.4
100092.5
100086.7
100063.5
100062.2
100065.3
100067
100069.7
100071.5
100062.6
100073.5
100066.4
100063.5
100083.9
100085.9
100082.8
100077
100055.2
100053.5
100055.6
100056.3
100057.6
100057.8
100048.5
100055.8
100049.2
100045.9
100027
100077.5
100079.2
100076
100070.4
100050.2
100048.4
100050
100050.3
100051
100050.7
100041.9
100047.7
100041.8
100039.4
100026.3
100026.9
100072.3
100073.7
100070.5
100065.2
100046.5
100044.7
100046
100046.1
100046.5
100046
100038.1
100042.8
100037.7
100035.5
100025.9
100026.2
100026.9
100067.9
100069.1
100066.1
100061
100043.7
100042
100043.2
100043.2
100043.5
100042.9
100035.7
100039.8
100035.2
100033.3
100025.3
100025.8
100026.2
100026.9
100064.3
100065.3
100062.5
100057.7
100041.6
100040.1
100041.1
100041.1
100041.4
100040.9
100034.5
100038.1
100033.9
100032
100024.7
100025.2
100025.9
100026.2
100026.9
100061.3
100062.3
100059.6
100055.2
100040.2
100038.9
100039.9
100040
100040.3
100039.9
100034.2
100037.4
100033.5
100031.5
100024.1
100024.7
100025.2
100025.9
100026.2
100026.9
100059.6
100060.6
100058.1
100054.1
100040.3
100039.2
100040.3
100040.6
100041.1
100040.9
100036.2
100039.1
100035.3
100033
100023.6
100024.1
100024.7
100025.2
100025.9
100026.2
100026.9
100058.6
100059.7
100057.5
100053.9
100041.2
100040.4
100041.7
100042.2
100042.9
100043.1
100039.2
100042
100038.1
100035.5
100023.2
100023.5
100024.1
100024.7
100025.2
100025.9
100026.2
100026.9
100061.7
100063
100061.4
100058.5
100047.2
100047
100048.8
100050
100051.5
100052.6
100050
100054.7
100055.3
100058.2
100061.2
100062.2
100063.7
100062.4
100059.9
100049.7
100049.8
100051.9
100053.3
100055.2
100056.7
100054.8
100059.8
100061.3
100064.9
100068.9
100062.3
100063.9
100062.9
100060.7
100051.4
100051.8
100054
100055.7
100057.8
100059.5
100058.3
100063.4
100065.5
100069.7
100074.4
100061
100062.6
100061.7
100059.8
100051.2
100051.7
100053.9
100055.7
100057.8
100059.6
100058.6
100063.7
100065.9
100070
100074.6
100058.8
100060.3
100059.5
100057.8
100049.7
100050.2
100052.4
100054.1
100056.1
100057.9
100057.1
100061.8
100063.9
100067.9
100072.1
100194
100207.8
100215.1
100220.4
100199
100218.6
100254.2
100297.7
100353.9
100173.8