/*--------------------------------*- C++ -*----------------------------------*\
| =========                 |                                                 |
| \\      /  F ield         | OpenFOAM: The Open Source CFD Toolbox           |
|  \\    /   O peration     | Version:  2306                                  |
|   \\  /    A nd           | Website:  www.openfoam.com                      |
|    \\/     M anipulation  |                                                 |
\*---------------------------------------------------------------------------*/
FoamFile
{
    version     2.0;
    format      ascii;
    arch        "LSB;label=32;scalar=64";
    class       volScalarField;
    location    "0.3/fuel";
    object      T;
}
// * * * * * * * * * * * * * * * * * * * * * * * * * * * * * * * * * * * * * //

dimensions      [0 0 0 1 0 0 0];

internalField   nonuniform List<scalar> 
16000
(
1164.801
1164.653
1166.541
1164.812
1164.314
1166.525
1164.665
1168.138
1166.546
1164.828
1163.688
1166.488
1164.326
1168.159
1166.53
1164.681
1169.625
1168.139
1166.557
1164.85
1162.646
1166.415
1163.704
1168.205
1166.492
1164.345
1169.656
1168.16
1166.541
1164.704
1171.055
1169.623
1168.145
1166.572
1164.877
1161.134
1166.283
1162.668
1168.283
1166.418
1163.725
1169.726
1168.205
1166.502
1164.369
1171.089
1169.653
1168.165
1166.556
1164.732
1172.447
1171.049
1169.624
1168.156
1166.593
1164.91
1159.433
1166.065
1161.166
1168.398
1166.284
1162.696
1169.847
1168.281
1166.427
1163.753
1171.164
1169.722
1168.209
1166.517
1164.398
1172.48
1171.083
1169.655
1168.176
1166.576
1164.766
1173.805
1172.439
1171.048
1169.631
1168.171
1166.619
1164.944
1157.887
1165.766
1159.481
1168.537
1166.063
1161.205
1170.034
1168.392
1166.29
1162.73
1171.295
1169.841
1168.284
1166.441
1163.786
1172.555
1171.157
1169.723
1168.219
1166.537
1164.435
1173.837
1172.472
1171.081
1169.661
1168.19
1166.602
1164.801
1175.128
1173.795
1172.435
1171.051
1169.641
1168.191
1166.646
1164.979
1156.74
1165.445
1157.95
1168.641
1165.763
1159.535
1170.279
1168.525
1166.066
1161.249
1171.501
1170.025
1168.392
1166.302
1162.771
1172.687
1171.287
1169.84
1168.291
1166.46
1163.827
1173.911
1172.546
1171.154
1169.728
1168.233
1166.563
1164.472
1175.16
1173.827
1172.468
1171.084
1169.671
1168.21
1166.629
1164.836
1176.415
1175.117
1173.789
1172.435
1171.058
1169.657
1168.212
1166.673
1165.013
1156.135
1165.178
1156.814
1168.696
1165.443
1158.017
1170.507
1168.625
1165.765
1159.593
1171.775
1170.263
1168.518
1166.075
1161.3
1172.894
1171.49
1170.02
1168.396
1166.32
1162.818
1174.04
1172.677
1171.283
1169.843
1168.303
1166.485
1163.868
1175.231
1173.9
1172.541
1171.156
1169.737
1168.252
1166.589
1164.509
1176.446
1175.148
1173.821
1172.468
1171.09
1169.686
1168.231
1166.656
1164.872
1177.663
1176.402
1175.109
1173.787
1172.439
1171.07
1169.673
1168.233
1166.7
1165.048
1156.135
1165.028
1156.215
1168.715
1165.178
1156.893
1170.681
1168.678
1165.447
1158.09
1172.039
1170.487
1168.615
1165.772
1159.657
1173.171
1171.758
1170.253
1168.517
1166.088
1161.356
1174.242
1172.881
1171.482
1170.02
1168.404
1166.343
1162.866
1175.356
1174.027
1172.67
1171.283
1169.851
1168.321
1166.511
1163.91
1176.515
1175.219
1173.893
1172.54
1171.162
1169.751
1168.272
1166.616
1164.547
1177.693
1176.433
1175.14
1173.819
1172.471
1171.102
1169.702
1168.252
1166.683
1164.908
1178.871
1177.65
1176.393
1175.105
1173.789
1172.448
1171.082
1169.689
1168.254
1166.727
1165.22
1156.74
1165.028
1156.215
1168.717
1165.03
1156.299
1170.792
1168.696
1165.184
1156.976
1172.249
1170.658
1168.666
1165.455
1158.168
1173.442
1172.018
1170.472
1168.609
1165.785
1159.727
1174.514
1173.153
1171.745
1170.247
1168.52
1166.108
1161.414
1175.553
1174.227
1172.871
1171.479
1170.024
1168.418
1166.366
1162.916
1176.636
1175.343
1174.019
1172.668
1171.287
1169.863
1168.339
1166.536
1163.953
1177.76
1176.501
1175.21
1173.89
1172.543
1171.173
1169.766
1168.291
1166.642
1164.586
1178.9
1177.679
1176.424
1175.136
1173.82
1172.48
1171.113
1169.718
1168.272
1166.71
1165.085
1180.037
1178.857
1177.64
1176.388
1175.105
1173.794
1172.456
1171.094
1169.705
1168.275
1166.861
1165.547
1157.887
1165.178
1156.814
1168.717
1165.03
1156.299
1170.845
1168.699
1165.037
1156.388
1172.389
1170.768
1168.683
1165.195
1157.064
1173.66
1172.225
1170.64
1168.658
1165.469
1158.251
1174.781
1173.42
1172.001
1170.462
1168.608
1165.803
1159.798
1175.818
1174.495
1173.138
1171.736
1170.245
1168.529
1166.128
1161.472
1176.828
1175.538
1174.216
1172.866
1171.48
1170.033
1168.433
1166.39
1162.965
1177.879
1176.622
1175.333
1174.015
1172.669
1171.296
1169.876
1168.357
1166.562
1163.996
1178.966
1177.746
1176.492
1175.205
1173.89
1172.551
1171.183
1169.781
1168.311
1166.669
1164.776
1180.066
1178.886
1177.669
1176.418
1175.136
1173.826
1172.488
1171.125
1169.733
1168.293
1166.844
1165.427
1181.162
1180.023
1178.846
1177.633
1176.386
1175.109
1173.8
1172.465
1171.106
1169.721
1168.38
1167.106
1165.889
1159.433
1165.445
1157.95
1168.715
1165.178
1156.893
1170.845
1168.699
1165.037
1156.388
1172.458
1170.821
1168.686
1165.049
1156.482
1173.807
1172.363
1170.749
1168.675
1165.211
1157.158
1174.998
1173.635
1172.205
1170.627
1168.655
1165.489
1158.335
1176.079
1174.759
1173.402
1171.988
1170.456
1168.613
1165.822
1159.868
1177.086
1175.798
1174.48
1173.128
1171.732
1170.249
1168.537
1166.148
1161.53
1178.066
1176.812
1175.525
1174.209
1172.864
1171.485
1170.042
1168.447
1166.414
1163.016
1179.081
1177.864
1176.611
1175.327
1174.014
1172.675
1171.305
1169.889
1168.375
1166.588
1164.21
1180.13
1178.951
1177.735
1176.485
1175.204
1173.895
1172.558
1171.194
1169.796
1168.331
1166.802
1165.154
1181.19
1180.051
1178.875
1177.663
1176.416
1175.139
1173.831
1172.496
1171.137
1169.749
1168.396
1167.089
1165.791
1182.244
1181.147
1180.012
1178.839
1177.63
1176.388
1175.112
1173.806
1172.474
1171.118
1169.803
1168.568
1167.353
1166.245
1161.134
1165.766
1159.481
1168.696
1165.443
1158.017
1170.792
1168.696
1165.184
1156.976
1172.458
1170.821
1168.686
1165.049
1156.482
1173.88
1172.432
1170.801
1168.678
1165.066
1156.581
1175.145
1173.781
1172.342
1170.734
1168.672
1165.232
1157.252
1176.291
1174.973
1173.614
1172.19
1170.619
1168.658
1165.508
1158.418
1177.341
1176.057
1174.74
1173.388
1171.98
1170.455
1168.617
1165.841
1159.938
1178.317
1177.066
1175.783
1174.469
1173.123
1171.733
1170.252
1168.546
1166.168
1161.588
1179.264
1178.049
1176.799
1175.517
1174.206
1172.867
1171.49
1170.051
1168.461
1166.438
1163.264
1180.244
1179.066
1177.852
1176.604
1175.324
1174.017
1172.681
1171.313
1169.901
1168.392
1166.718
1164.649
1181.253
1180.115
1178.94
1177.728
1176.483
1175.207
1173.9
1172.566
1171.205
1169.81
1168.43
1167.048
1165.565
1182.271
1181.175
1180.04
1178.868
1177.659
1176.418
1175.142
1173.837
1172.505
1171.148
1169.829
1168.581
1167.338
1166.171
1183.283
1182.229
1181.136
1180.004
1178.835
1177.63
1176.39
1175.116
1173.812
1172.482
1171.18
1169.947
1168.754
1167.602
1166.609
1162.646
1166.065
1161.166
1168.641
1165.763
1159.535
1170.681
1168.678
1165.447
1158.09
1172.389
1170.768
1168.683
1165.195
1157.064
1173.88
1172.432
1170.801
1168.678
1165.066
1156.581
1175.219
1173.854
1172.41
1170.786
1168.674
1165.089
1156.68
1176.436
1175.119
1173.759
1172.325
1170.724
1168.673
1165.254
1157.345
1177.548
1176.267
1174.952
1173.598
1172.179
1170.615
1168.66
1165.528
1158.5
1178.566
1177.319
1176.038
1174.726
1173.378
1171.976
1170.454
1168.622
1165.859
1160.007
1179.51
1178.297
1177.05
1175.771
1174.462
1173.121
1171.733
1170.256
1168.555
1166.188
1161.87
1180.422
1179.247
1178.035
1176.789
1175.512
1174.207
1172.87
1171.496
1170.06
1168.476
1166.559
1163.777
1181.364
1180.228
1179.054
1177.844
1176.6
1175.326
1174.02
1172.686
1171.322
1169.914
1168.482
1166.964
1165.144
1182.333
1181.238
1180.103
1178.932
1177.724
1176.484
1175.209
1173.905
1172.573
1171.215
1169.885
1168.606
1167.301
1166.005
1183.31
1182.256
1181.163
1180.032
1178.863
1177.659
1176.419
1175.146
1173.842
1172.513
1171.208
1169.968
1168.763
1167.59
1166.564
1184.279
1183.268
1182.217
1181.127
1179.999
1178.834
1177.631
1176.392
1175.119
1173.818
1172.528
1171.287
1170.087
1168.938
1167.853
1163.688
1166.283
1162.668
1168.537
1166.063
1161.205
1170.507
1168.625
1165.765
1159.593
1172.249
1170.658
1168.666
1165.455
1158.168
1173.807
1172.363
1170.749
1168.675
1165.211
1157.158
1175.219
1173.854
1172.41
1170.786
1168.674
1165.089
1156.68
1176.509
1175.192
1173.831
1172.393
1170.775
1168.676
1165.112
1156.779
1177.69
1176.411
1175.097
1173.741
1172.313
1170.719
1168.675
1165.276
1157.436
1178.769
1177.524
1176.247
1174.936
1173.586
1172.172
1170.611
1168.663
1165.548
1158.582
1179.754
1178.544
1177.3
1176.024
1174.716
1173.373
1171.972
1170.453
1168.627
1165.878
1160.339
1180.663
1179.49
1178.281
1177.038
1175.763
1174.458
1173.119
1171.733
1170.259
1168.564
1166.29
1162.389
1181.54
1180.405
1179.233
1178.025
1176.783
1175.511
1174.207
1172.872
1171.501
1170.069
1168.548
1166.794
1164.366
1182.442
1181.348
1180.215
1179.044
1177.838
1176.599
1175.327
1174.023
1172.692
1171.331
1169.978
1168.642
1167.223
1165.692
1183.371
1182.318
1181.225
1180.094
1178.927
1177.723
1176.484
1175.212
1173.909
1172.58
1171.27
1170.013
1168.78
1167.56
1166.465
1184.306
1183.295
1182.244
1181.154
1180.026
1178.862
1177.659
1176.421
1175.149
1173.848
1172.556
1171.31
1170.102
1168.943
1167.845
1185.232
1184.264
1183.256
1182.208
1181.121
1179.997
1178.833
1177.631
1176.393
1175.123
1173.849
1172.605
1171.391
1170.224
1169.121
1164.314
1166.415
1163.704
1168.398
1166.284
1162.696
1170.279
1168.525
1166.066
1161.249
1172.039
1170.487
1168.615
1165.772
1159.657
1173.66
1172.225
1170.64
1168.658
1165.469
1158.251
1175.145
1173.781
1172.342
1170.734
1168.672
1165.232
1157.252
1176.509
1175.192
1173.831
1172.393
1170.775
1168.676
1165.112
1156.779
1177.761
1176.483
1175.17
1173.813
1172.38
1170.769
1168.677
1165.135
1156.876
1178.908
1177.665
1176.389
1175.079
1173.728
1172.305
1170.713
1168.677
1165.297
1157.528
1179.953
1178.746
1177.504
1176.23
1174.923
1173.578
1172.165
1170.607
1168.665
1165.568
1158.968
1180.903
1179.732
1178.526
1177.285
1176.013
1174.709
1173.367
1171.968
1170.452
1168.632
1165.972
1160.899
1181.776
1180.644
1179.474
1178.268
1177.029
1175.758
1174.455
1173.117
1171.734
1170.263
1168.609
1166.483
1162.919
1182.615
1181.522
1180.391
1179.222
1178.018
1176.781
1175.51
1174.207
1172.875
1171.506
1170.114
1168.679
1167.054
1165.058
1183.478
1182.426
1181.335
1180.205
1179.038
1177.837
1176.599
1175.328
1174.027
1172.697
1171.375
1170.086
1168.802
1167.498
1166.287
1184.366
1183.355
1182.305
1181.216
1180.089
1178.925
1177.723
1176.485
1175.214
1173.914
1172.618
1171.361
1170.136
1168.952
1167.825
1185.259
1184.291
1183.282
1182.235
1181.148
1180.024
1178.861
1177.659
1176.422
1175.152
1173.877
1172.628
1171.408
1170.234
1169.122
1186.143
1185.218
1184.252
1183.246
1182.202
1181.118
1179.995
1178.832
1177.631
1176.395
1175.142
1173.901
1172.678
1171.491
1170.36
1164.653
1166.488
1164.326
1168.283
1166.418
1163.725
1170.034
1168.392
1166.29
1162.73
1171.775
1170.263
1168.518
1166.075
1161.3
1173.442
1172.018
1170.472
1168.609
1165.785
1159.727
1174.998
1173.635
1172.205
1170.627
1168.655
1165.489
1158.335
1176.436
1175.119
1173.759
1172.325
1170.724
1168.673
1165.254
1157.345
1177.761
1176.483
1175.17
1173.813
1172.38
1170.769
1168.677
1165.135
1156.876
1178.978
1177.736
1176.461
1175.152
1173.799
1172.371
1170.763
1168.679
1165.158
1156.972
1180.089
1178.884
1177.644
1176.371
1175.066
1173.719
1172.297
1170.708
1168.679
1165.319
1157.958
1181.098
1179.93
1178.726
1177.487
1176.217
1174.915
1173.57
1172.159
1170.603
1168.668
1165.665
1159.593
1182.012
1180.881
1179.714
1178.511
1177.274
1176.005
1174.703
1173.362
1171.965
1170.451
1168.656
1166.142
1161.421
1182.848
1181.757
1180.627
1179.461
1178.259
1177.023
1175.754
1174.452
1173.116
1171.734
1170.282
1168.693
1166.682
1163.449
1183.648
1182.597
1181.507
1180.379
1179.214
1178.014
1176.778
1175.508
1174.208
1172.877
1171.533
1170.191
1168.814
1167.346
1165.902
1184.472
1183.462
1182.413
1181.325
1180.198
1179.036
1177.835
1176.598
1175.329
1174.03
1172.726
1171.447
1170.19
1168.962
1167.786
1185.318
1184.35
1183.342
1182.295
1181.21
1180.086
1178.923
1177.722
1176.486
1175.217
1173.939
1172.68
1171.447
1170.256
1169.125
1186.169
1185.244
1184.278
1183.273
1182.228
1181.145
1180.022
1178.859
1177.659
1176.423
1175.17
1173.924
1172.696
1171.503
1170.364
1187.012
1186.128
1185.205
1184.242
1183.24
1182.198
1181.115
1179.992
1178.831
1177.631
1176.405
1175.173
1173.949
1172.748
1171.59
1164.801
1166.525
1164.665
1168.205
1166.492
1164.345
1169.847
1168.281
1166.427
1163.753
1171.501
1170.025
1168.392
1166.302
1162.771
1173.171
1171.758
1170.253
1168.517
1166.088
1161.356
1174.781
1173.42
1172.001
1170.462
1168.608
1165.803
1159.798
1176.291
1174.973
1173.614
1172.19
1170.619
1168.658
1165.508
1158.418
1177.69
1176.411
1175.097
1173.741
1172.313
1170.719
1168.675
1165.276
1157.436
1178.978
1177.736
1176.461
1175.152
1173.799
1172.371
1170.763
1168.679
1165.158
1156.972
1180.158
1178.953
1177.714
1176.443
1175.137
1173.789
1172.362
1170.758
1168.681
1165.181
1157.427
1181.232
1180.065
1178.863
1177.626
1176.358
1175.056
1173.709
1172.289
1170.703
1168.681
1165.424
1158.641
1182.204
1181.076
1179.91
1178.709
1177.475
1176.208
1174.906
1173.562
1172.152
1170.6
1168.682
1165.834
1160.148
1183.08
1181.99
1180.863
1179.699
1178.499
1177.266
1175.998
1174.696
1173.357
1171.961
1170.448
1168.705
1166.311
1161.897
1183.878
1182.828
1181.74
1180.614
1179.451
1178.253
1177.018
1175.749
1174.449
1173.114
1171.737
1170.315
1168.778
1166.884
1163.964
1184.639
1183.631
1182.583
1181.496
1180.371
1179.21
1178.01
1176.775
1175.507
1174.208
1172.89
1171.574
1170.263
1168.956
1167.687
1185.422
1184.455
1183.448
1182.402
1181.317
1180.195
1179.032
1177.833
1176.598
1175.33
1174.045
1172.769
1171.511
1170.289
1169.125
1186.228
1185.302
1184.337
1183.332
1182.288
1181.206
1180.083
1178.921
1177.721
1176.487
1175.23
1173.976
1172.736
1171.528
1170.373
1187.037
1186.154
1185.231
1184.268
1183.266
1182.225
1181.142
1180.019
1178.858
1177.659
1176.431
1175.196
1173.967
1172.76
1171.595
1187.838
1186.997
1186.116
1185.195
1184.235
1183.236
1182.194
1181.112
1179.99
1178.829
1177.632
1176.417
1175.2
1173.994
1172.816
1166.541
1164.812
1168.159
1166.53
1164.681
1169.726
1168.205
1166.502
1164.369
1171.295
1169.841
1168.284
1166.441
1163.786
1172.894
1171.49
1170.02
1168.396
1166.32
1162.818
1174.514
1173.153
1171.745
1170.247
1168.52
1166.108
1161.414
1176.079
1174.759
1173.402
1171.988
1170.456
1168.613
1165.822
1159.868
1177.548
1176.267
1174.952
1173.598
1172.179
1170.615
1168.66
1165.528
1158.5
1178.908
1177.665
1176.389
1175.079
1173.728
1172.305
1170.713
1168.677
1165.297
1157.528
1180.158
1178.953
1177.714
1176.443
1175.137
1173.789
1172.362
1170.758
1168.681
1165.181
1157.427
1181.3
1180.134
1178.932
1177.696
1176.428
1175.127
1173.779
1172.353
1170.752
1168.683
1165.291
1158.142
1182.336
1181.209
1180.045
1178.846
1177.613
1176.347
1175.046
1173.7
1172.281
1170.698
1168.691
1165.602
1159.237
1183.269
1182.182
1181.056
1179.894
1178.696
1177.465
1176.199
1174.897
1173.555
1172.146
1170.583
1168.713
1165.997
1160.636
1184.106
1183.059
1181.972
1180.848
1179.687
1178.491
1177.258
1175.991
1174.69
1173.351
1171.943
1170.447
1168.756
1166.475
1162.319
1184.865
1183.858
1182.812
1181.727
1180.604
1179.444
1178.246
1177.012
1175.745
1174.445
1173.106
1171.742
1170.348
1168.86
1167.079
1164.943
1185.588
1184.622
1183.616
1182.571
1181.487
1180.366
1179.205
1178.006
1176.772
1175.506
1174.21
1172.905
1171.608
1170.334
1169.111
1186.331
1185.406
1184.442
1183.438
1182.394
1181.313
1180.191
1179.029
1177.831
1176.597
1175.335
1174.064
1172.803
1171.57
1170.386
1187.095
1186.212
1185.289
1184.327
1183.325
1182.284
1181.202
1180.08
1178.919
1177.721
1176.49
1175.246
1174.006
1172.786
1171.606
1187.863
1187.022
1186.142
1185.221
1184.261
1183.262
1182.221
1181.139
1180.017
1178.857
1177.658
1176.44
1175.218
1174.006
1172.822
1188.622
1187.823
1186.985
1186.106
1185.188
1184.231
1183.231
1182.191
1181.109
1179.988
1178.824
1177.631
1176.427
1175.224
1174.037
1168.138
1166.546
1164.828
1169.656
1168.16
1166.541
1164.704
1171.164
1169.722
1168.209
1166.517
1164.398
1172.687
1171.287
1169.84
1168.291
1166.46
1163.827
1174.242
1172.881
1171.482
1170.02
1168.404
1166.343
1162.866
1175.818
1174.495
1173.138
1171.736
1170.245
1168.529
1166.128
1161.472
1177.341
1176.057
1174.74
1173.388
1171.98
1170.455
1168.617
1165.841
1159.938
1178.769
1177.524
1176.247
1174.936
1173.586
1172.172
1170.611
1168.663
1165.548
1158.582
1180.089
1178.884
1177.644
1176.371
1175.066
1173.719
1172.297
1170.708
1168.679
1165.319
1157.958
1181.3
1180.134
1178.932
1177.696
1176.428
1175.127
1173.779
1172.353
1170.752
1168.683
1165.291
1158.142
1182.402
1181.276
1180.113
1178.914
1177.682
1176.418
1175.116
1173.769
1172.345
1170.746
1168.692
1165.476
1158.764
1183.399
1182.313
1181.189
1180.028
1178.832
1177.602
1176.337
1175.036
1173.691
1172.273
1170.674
1168.713
1165.769
1159.752
1184.293
1183.247
1182.162
1181.04
1179.881
1178.686
1177.455
1176.19
1174.889
1173.547
1172.115
1170.559
1168.745
1166.151
1161.052
1185.091
1184.086
1183.041
1181.957
1180.836
1179.678
1178.482
1177.25
1175.984
1174.684
1173.325
1171.917
1170.449
1168.807
1166.628
1163.067
1185.811
1184.846
1183.842
1182.799
1181.716
1180.597
1179.437
1178.24
1177.007
1175.74
1174.429
1173.09
1171.745
1170.377
1168.935
1167.462
1165.531
1186.494
1185.57
1184.607
1183.604
1182.562
1181.481
1180.36
1179.2
1178.002
1176.769
1175.498
1174.203
1172.911
1171.635
1170.403
1187.197
1186.315
1185.393
1184.431
1183.43
1182.389
1181.308
1180.186
1179.026
1177.829
1176.593
1175.334
1174.075
1172.831
1171.624
1187.92
1187.08
1186.199
1185.279
1184.319
1183.32
1182.28
1181.198
1180.077
1178.917
1177.716
1176.489
1175.257
1174.032
1172.834
1188.648
1187.849
1187.01
1186.132
1185.214
1184.256
1183.257
1182.217
1181.136
1180.015
1178.849
1177.653
1176.444
1175.236
1174.043
1189.365
1188.608
1187.811
1186.975
1186.099
1185.183
1184.226
1183.227
1182.187
1181.107
1179.977
1178.81
1177.625
1176.433
1175.246
1169.625
1168.139
1166.557
1164.85
1171.089
1169.653
1168.165
1166.556
1164.732
1172.555
1171.157
1169.723
1168.219
1166.537
1164.435
1174.04
1172.677
1171.283
1169.843
1168.303
1166.485
1163.868
1175.553
1174.227
1172.871
1171.479
1170.024
1168.418
1166.366
1162.916
1177.086
1175.798
1174.48
1173.128
1171.732
1170.249
1168.537
1166.148
1161.53
1178.566
1177.319
1176.038
1174.726
1173.378
1171.976
1170.454
1168.622
1165.859
1160.007
1179.953
1178.746
1177.504
1176.23
1174.923
1173.578
1172.165
1170.607
1168.665
1165.568
1158.968
1181.232
1180.065
1178.863
1177.626
1176.358
1175.056
1173.709
1172.289
1170.703
1168.681
1165.424
1158.641
1182.402
1181.276
1180.113
1178.914
1177.682
1176.418
1175.116
1173.769
1172.345
1170.746
1168.692
1165.476
1158.764
1183.465
1182.379
1181.256
1180.096
1178.9
1177.671
1176.407
1175.106
1173.76
1172.337
1170.719
1168.712
1165.648
1159.297
1184.421
1183.377
1182.293
1181.172
1180.014
1178.821
1177.591
1176.327
1175.026
1173.682
1172.234
1170.638
1168.738
1165.924
1160.186
1185.275
1184.272
1183.228
1182.147
1181.027
1179.871
1178.677
1177.446
1176.18
1174.88
1173.509
1172.068
1170.542
1168.779
1166.294
1161.778
1186.034
1185.071
1184.068
1183.026
1181.946
1180.827
1179.67
1178.474
1177.242
1175.976
1174.651
1173.284
1171.895
1170.453
1168.853
1166.938
1163.866
1186.715
1185.792
1184.83
1183.829
1182.788
1181.709
1180.589
1179.43
1178.234
1177.001
1175.717
1174.398
1173.073
1171.745
1170.401
1169.075
1167.702
1165.866
1187.358
1186.477
1185.556
1184.595
1183.595
1182.555
1181.475
1180.354
1179.195
1177.998
1176.754
1175.474
1174.187
1172.907
1171.654
1188.021
1187.181
1186.301
1185.382
1184.423
1183.424
1182.384
1181.303
1180.182
1179.023
1177.817
1176.576
1175.325
1174.079
1172.854
1188.704
1187.905
1187.067
1186.189
1185.271
1184.314
1183.315
1182.275
1181.195
1180.074
1178.906
1177.701
1176.483
1175.262
1174.055
1189.39
1188.633
1187.836
1187
1186.124
1185.209
1184.252
1183.253
1182.213
1181.133
1180.002
1178.831
1177.642
1176.445
1175.252
1190.067
1189.351
1188.596
1187.801
1186.967
1186.094
1185.178
1184.221
1183.223
1182.183
1181.091
1179.953
1178.792
1177.617
1176.438
1171.055
1169.623
1168.145
1166.572
1164.877
1172.48
1171.083
1169.655
1168.176
1166.576
1164.766
1173.911
1172.546
1171.154
1169.728
1168.233
1166.563
1164.472
1175.356
1174.027
1172.67
1171.283
1169.851
1168.321
1166.511
1163.91
1176.828
1175.538
1174.216
1172.866
1171.48
1170.033
1168.433
1166.39
1162.965
1178.317
1177.066
1175.783
1174.469
1173.123
1171.733
1170.252
1168.546
1166.168
1161.588
1179.754
1178.544
1177.3
1176.024
1174.716
1173.373
1171.972
1170.453
1168.627
1165.878
1160.339
1181.098
1179.93
1178.726
1177.487
1176.217
1174.915
1173.57
1172.159
1170.603
1168.668
1165.665
1159.593
1182.336
1181.209
1180.045
1178.846
1177.613
1176.347
1175.046
1173.7
1172.281
1170.698
1168.691
1165.602
1159.237
1183.465
1182.379
1181.256
1180.096
1178.9
1177.671
1176.407
1175.106
1173.76
1172.337
1170.719
1168.712
1165.648
1159.297
1184.486
1183.442
1182.359
1181.239
1180.082
1178.889
1177.66
1176.396
1175.096
1173.75
1172.295
1170.678
1168.733
1165.806
1159.745
1185.402
1184.4
1183.357
1182.277
1181.159
1180.004
1178.81
1177.581
1176.317
1175.017
1173.636
1172.174
1170.61
1168.764
1166.068
1160.938
1186.216
1185.255
1184.253
1183.213
1182.134
1181.017
1179.861
1178.667
1177.436
1176.172
1174.838
1173.448
1172.027
1170.529
1168.812
1166.588
1162.669
1186.935
1186.014
1185.053
1184.053
1183.014
1181.936
1180.818
1179.661
1178.466
1177.235
1175.94
1174.599
1173.246
1171.875
1170.457
1168.951
1167.269
1164.436
1187.577
1186.697
1185.777
1184.817
1183.818
1182.78
1181.701
1180.582
1179.423
1178.227
1176.973
1175.675
1174.366
1173.054
1171.741
1170.436
1169.161
1167.842
1166.114
1188.181
1187.342
1186.462
1185.544
1184.585
1183.588
1182.549
1181.469
1180.349
1179.19
1177.976
1176.716
1175.44
1174.16
1172.891
1188.804
1188.006
1187.168
1186.29
1185.373
1184.417
1183.418
1182.379
1181.298
1180.178
1179.005
1177.787
1176.551
1175.309
1174.076
1189.446
1188.689
1187.892
1187.056
1186.181
1185.266
1184.309
1183.31
1182.271
1181.191
1180.058
1178.879
1177.68
1176.471
1175.264
1190.092
1189.376
1188.621
1187.826
1186.992
1186.119
1185.203
1184.247
1183.248
1182.209
1181.115
1179.974
1178.809
1177.629
1176.444
1190.728
1190.053
1189.339
1188.586
1187.794
1186.962
1186.088
1185.173
1184.217
1183.219
1182.164
1181.058
1179.925
1178.772
1177.607
1172.447
1171.049
1169.624
1168.156
1166.593
1164.91
1173.837
1172.472
1171.081
1169.661
1168.19
1166.602
1164.801
1175.231
1173.9
1172.541
1171.156
1169.737
1168.252
1166.589
1164.509
1176.636
1175.343
1174.019
1172.668
1171.287
1169.863
1168.339
1166.536
1163.953
1178.066
1176.812
1175.525
1174.209
1172.864
1171.485
1170.042
1168.447
1166.414
1163.016
1179.51
1178.297
1177.05
1175.771
1174.462
1173.121
1171.733
1170.256
1168.555
1166.188
1161.87
1180.903
1179.732
1178.526
1177.285
1176.013
1174.709
1173.367
1171.968
1170.452
1168.632
1165.972
1160.899
1182.204
1181.076
1179.91
1178.709
1177.475
1176.208
1174.906
1173.562
1172.152
1170.6
1168.682
1165.834
1160.148
1183.399
1182.313
1181.189
1180.028
1178.832
1177.602
1176.337
1175.036
1173.691
1172.273
1170.674
1168.713
1165.769
1159.752
1184.486
1183.442
1182.359
1181.239
1180.082
1178.889
1177.66
1176.396
1175.096
1173.75
1172.295
1170.678
1168.733
1165.806
1159.745
1185.467
1184.464
1183.423
1182.342
1181.225
1180.071
1178.878
1177.649
1176.385
1175.085
1173.701
1172.229
1170.644
1168.756
1165.952
1160.52
1186.342
1185.381
1184.381
1183.341
1182.263
1181.148
1179.993
1178.8
1177.571
1176.307
1174.967
1173.565
1172.123
1170.587
1168.79
1166.363
1161.89
1187.116
1186.196
1185.236
1184.238
1183.2
1182.124
1181.007
1179.851
1178.657
1177.427
1176.126
1174.769
1173.395
1171.993
1170.519
1168.886
1166.954
1163.374
1187.795
1186.916
1185.997
1185.039
1184.041
1183.005
1181.927
1180.809
1179.652
1178.458
1177.195
1175.88
1174.552
1173.213
1171.858
1170.463
1169.054
1167.504
1164.878
1188.397
1187.559
1186.681
1185.763
1184.806
1183.81
1182.772
1181.693
1180.574
1179.416
1178.195
1176.921
1175.631
1174.333
1173.033
1171.718
1170.454
1169.211
1167.947
1166.328
1188.962
1188.164
1187.327
1186.45
1185.534
1184.578
1183.581
1182.542
1181.462
1180.343
1179.163
1177.927
1176.668
1175.394
1174.117
1189.545
1188.788
1187.992
1187.157
1186.281
1185.367
1184.41
1183.412
1182.373
1181.293
1180.156
1178.964
1177.749
1176.518
1175.286
1190.147
1189.432
1188.676
1187.882
1187.048
1186.175
1185.26
1184.303
1183.305
1182.266
1181.17
1180.021
1178.847
1177.655
1176.456
1190.753
1190.078
1189.364
1188.611
1187.818
1186.987
1186.113
1185.198
1184.242
1183.244
1182.188
1181.079
1179.942
1178.784
1177.613
1191.348
1190.714
1190.041
1189.329
1188.578
1187.788
1186.956
1186.083
1185.168
1184.212
1183.196
1182.124
1181.022
1179.895
1178.75
1173.805
1172.439
1171.048
1169.631
1168.171
1166.619
1164.944
1175.16
1173.827
1172.468
1171.084
1169.671
1168.21
1166.629
1164.836
1176.515
1175.219
1173.893
1172.54
1171.162
1169.751
1168.272
1166.616
1164.547
1177.879
1176.622
1175.333
1174.015
1172.669
1171.296
1169.876
1168.357
1166.562
1163.996
1179.264
1178.049
1176.799
1175.517
1174.206
1172.867
1171.49
1170.051
1168.461
1166.438
1163.264
1180.663
1179.49
1178.281
1177.038
1175.763
1174.458
1173.119
1171.733
1170.259
1168.564
1166.29
1162.389
1182.012
1180.881
1179.714
1178.511
1177.274
1176.005
1174.703
1173.362
1171.965
1170.451
1168.656
1166.142
1161.421
1183.269
1182.182
1181.056
1179.894
1178.696
1177.465
1176.199
1174.897
1173.555
1172.146
1170.583
1168.713
1165.997
1160.636
1184.421
1183.377
1182.293
1181.172
1180.014
1178.821
1177.591
1176.327
1175.026
1173.682
1172.234
1170.638
1168.738
1165.924
1160.186
1185.467
1184.464
1183.423
1182.342
1181.225
1180.071
1178.878
1177.649
1176.385
1175.085
1173.701
1172.229
1170.644
1168.756
1165.952
1160.52
1186.405
1185.445
1184.445
1183.406
1182.329
1181.214
1180.059
1178.867
1177.639
1176.375
1175.033
1173.624
1172.172
1170.617
1168.78
1166.251
1161.504
1187.24
1186.321
1185.363
1184.365
1183.328
1182.253
1181.137
1179.982
1178.789
1177.56
1176.255
1174.889
1173.502
1172.079
1170.569
1168.852
1166.747
1162.673
1187.974
1187.096
1186.178
1185.221
1184.225
1183.19
1182.113
1180.997
1179.841
1178.648
1177.379
1176.052
1174.709
1173.35
1171.964
1170.502
1168.984
1167.242
1163.95
1188.613
1187.776
1186.899
1185.983
1185.027
1184.032
1182.995
1181.918
1180.8
1179.644
1178.415
1177.128
1175.824
1174.509
1173.183
1171.817
1170.467
1169.127
1167.686
1165.254
1189.176
1188.379
1187.543
1186.668
1185.753
1184.798
1183.801
1182.764
1181.685
1180.567
1179.38
1178.135
1176.868
1175.587
1174.299
1172.972
1171.699
1170.464
1169.25
1168.038
1166.528
1189.702
1188.946
1188.15
1187.315
1186.441
1185.527
1184.571
1183.573
1182.535
1181.456
1180.311
1179.104
1177.867
1176.606
1175.33
1190.245
1189.53
1188.775
1187.981
1187.148
1186.275
1185.36
1184.404
1183.406
1182.368
1181.267
1180.105
1178.914
1177.702
1176.478
1190.807
1190.133
1189.419
1188.666
1187.874
1187.042
1186.169
1185.254
1184.298
1183.3
1182.242
1181.125
1179.979
1178.809
1177.625
1191.372
1190.739
1190.066
1189.354
1188.603
1187.813
1186.981
1186.108
1185.193
1184.237
1183.22
1182.145
1181.038
1179.906
1178.756
1191.928
1191.335
1190.703
1190.032
1189.322
1188.573
1187.782
1186.95
1186.077
1185.163
1184.186
1183.151
1182.081
1180.984
1179.863
1175.128
1173.795
1172.435
1171.051
1169.641
1168.191
1166.646
1164.979
1176.446
1175.148
1173.821
1172.468
1171.09
1169.686
1168.231
1166.656
1164.872
1177.76
1176.501
1175.21
1173.89
1172.543
1171.173
1169.766
1168.291
1166.642
1164.586
1179.081
1177.864
1176.611
1175.327
1174.014
1172.675
1171.305
1169.889
1168.375
1166.588
1164.21
1180.422
1179.247
1178.035
1176.789
1175.512
1174.207
1172.87
1171.496
1170.06
1168.476
1166.559
1163.777
1181.776
1180.644
1179.474
1178.268
1177.029
1175.758
1174.455
1173.117
1171.734
1170.263
1168.609
1166.483
1162.919
1183.08
1181.99
1180.863
1179.699
1178.499
1177.266
1175.998
1174.696
1173.357
1171.961
1170.448
1168.705
1166.311
1161.897
1184.293
1183.247
1182.162
1181.04
1179.881
1178.686
1177.455
1176.19
1174.889
1173.547
1172.115
1170.559
1168.745
1166.151
1161.052
1185.402
1184.4
1183.357
1182.277
1181.159
1180.004
1178.81
1177.581
1176.317
1175.017
1173.636
1172.174
1170.61
1168.764
1166.068
1160.938
1186.405
1185.445
1184.445
1183.406
1182.329
1181.214
1180.059
1178.867
1177.639
1176.375
1175.033
1173.624
1172.172
1170.617
1168.78
1166.251
1161.504
1187.303
1186.384
1185.426
1184.429
1183.393
1182.318
1181.203
1180.048
1178.856
1177.628
1176.321
1174.95
1173.557
1172.124
1170.595
1168.837
1166.644
1162.325
1188.097
1187.22
1186.303
1185.347
1184.352
1183.317
1182.242
1181.126
1179.972
1178.779
1177.507
1176.172
1174.82
1173.448
1172.042
1170.535
1168.943
1167.064
1163.333
1188.79
1187.954
1187.078
1186.163
1185.209
1184.215
1183.179
1182.103
1180.987
1179.831
1178.598
1177.301
1175.986
1174.655
1173.31
1171.901
1170.486
1169.065
1167.474
1164.45
1189.39
1188.595
1187.759
1186.885
1185.971
1185.018
1184.023
1182.986
1181.909
1180.792
1179.599
1178.343
1177.067
1175.774
1174.47
1173.112
1171.769
1170.469
1169.185
1167.837
1165.603
1189.914
1189.159
1188.364
1187.53
1186.657
1185.744
1184.789
1183.793
1182.756
1181.677
1180.528
1179.314
1178.074
1176.815
1175.543
1174.21
1172.93
1171.69
1170.474
1169.285
1168.122
1166.729
1190.401
1189.686
1188.932
1188.138
1187.305
1186.433
1185.519
1184.563
1183.566
1182.528
1181.421
1180.245
1179.034
1177.792
1176.524
1190.905
1190.23
1189.517
1188.764
1187.972
1187.141
1186.268
1185.353
1184.397
1183.4
1182.337
1181.209
1180.046
1178.856
1177.647
1191.427
1190.793
1190.12
1189.409
1188.658
1187.868
1187.036
1186.163
1185.248
1184.292
1183.273
1182.191
1181.075
1179.932
1178.768
1191.952
1191.359
1190.727
1190.056
1189.346
1188.597
1187.806
1186.975