/*--------------------------------*- C++ -*----------------------------------*\
| =========                 |                                                 |
| \\      /  F ield         | OpenFOAM: The Open Source CFD Toolbox           |
|  \\    /   O peration     | Version:  2306                                  |
|   \\  /    A nd           | Website:  www.openfoam.com                      |
|    \\/     M anipulation  |                                                 |
\*---------------------------------------------------------------------------*/
FoamFile
{
    version     2.0;
    format      ascii;
    arch        "LSB;label=32;scalar=64";
    class       volVectorField;
    location    "0.3/fuel";
    object      U;
}
// * * * * * * * * * * * * * * * * * * * * * * * * * * * * * * * * * * * * * //

dimensions      [0 1 -1 0 0 0 0];

internalField   nonuniform List<vector> 
16000
(
(0.0001134498 7.935326e-05 -0.005185429)
(0.0001134451 0.0002184337 -0.005263124)
(0.0002027392 7.884014e-05 -0.004217977)
(0.0001110847 8.441688e-05 -0.01646791)
(0.0001138006 0.0003880134 -0.005420731)
(0.0002018174 0.0002213351 -0.004261962)
(0.0001109474 0.0002305068 -0.01671257)
(0.0001555436 6.947852e-05 -0.003438889)
(0.0001982682 8.238068e-05 -0.01341539)
(0.0001028407 9.160628e-05 -0.02445575)
(0.0001135731 0.000482224 -0.005663299)
(0.0002005526 0.0003881434 -0.004349515)
(0.0001110324 0.0004087384 -0.01720865)
(0.0001537238 0.0001960776 -0.003467852)
(0.0001971418 0.0002293343 -0.01355421)
(0.0001024187 0.0002506111 -0.02481666)
(0.0001150545 6.015432e-05 -0.002873615)
(0.0001520955 7.215811e-05 -0.01095211)
(0.0001832723 8.662149e-05 -0.01994494)
(9.301014e-05 9.745115e-05 -0.040231)
(0.0001152265 0.0007050861 -0.005982557)
(0.0001972718 0.0004945777 -0.004480704)
(0.0001103656 0.0005105035 -0.01797211)
(0.0001504581 0.0003416695 -0.003525016)
(0.0001954634 0.000401698 -0.01383042)
(0.0001019128 0.0004428941 -0.02554835)
(0.0001133969 0.0001701727 -0.00289435)
(0.0001501607 0.0002019544 -0.01104368)
(0.0001817329 0.0002406734 -0.02015006)
(9.225365e-05 0.0002740474 -0.04082242)
(8.678996e-05 5.253937e-05 -0.002452453)
(0.0001125369 6.22828e-05 -0.009162036)
(0.0001405215 7.503708e-05 -0.01629913)
(0.0001658412 8.950405e-05 -0.03283465)
(7.702916e-05 0.00012138 -0.03273827)
(0.0001123939 0.0005620384 -0.006344171)
(0.0001961965 0.0006902097 -0.004646158)
(0.000111438 0.0007407651 -0.01897673)
(0.0001445108 0.0004372981 -0.003609684)
(0.0001915182 0.0005125626 -0.01424444)
(0.0001003087 0.0005583415 -0.02667431)
(0.0001103549 0.0002955112 -0.002935037)
(0.000146668 0.0003515857 -0.01122433)
(0.0001792053 0.0004205639 -0.0205582)
(9.10541e-05 0.0004827153 -0.04202105)
(8.544075e-05 0.0001488476 -0.002468052)
(0.0001108056 0.0001747407 -0.009227677)
(0.0001383882 0.0002094187 -0.01643461)
(0.0001638221 0.0002539309 -0.03317104)
(7.55163e-05 0.0003391233 -0.03321841)
(6.768345e-05 4.637997e-05 -0.002127762)
(8.488503e-05 5.428814e-05 -0.007826667)
(0.0001040292 6.439654e-05 -0.01364648)
(0.0001270542 7.670946e-05 -0.02685214)
(0.0001364467 0.0001054405 -0.02672497)
(0.0006580295 0.001109297 -0.06529028)
(0.0001157826 0.0001663093 -0.006605429)
(0.0001869514 0.0005639325 -0.004827092)
(0.0001078666 0.0005935181 -0.0201166)
(0.0001389617 0.0005994624 -0.003714311)
(0.0001895848 0.0007125934 -0.01476672)
(0.0001000915 0.0007986353 -0.02815564)
(0.0001050531 0.0003789484 -0.002994809)
(0.0001403633 0.0004503057 -0.01149205)
(0.0001739285 0.0005381417 -0.02117003)
(8.835017e-05 0.0006140938 -0.04386669)
(8.294473e-05 0.0002578637 -0.002498527)
(0.0001076195 0.0003032009 -0.009356431)
(0.0001344959 0.0003638939 -0.01670191)
(0.0001603075 0.0004426303 -0.03384006)
(7.276515e-05 0.000594203 -0.03419267)
(6.658611e-05 0.0001315238 -0.002139914)
(8.348488e-05 0.0001525366 -0.007876103)
(0.0001021832 0.0001800822 -0.0137437)
(0.0001246897 0.0002181661 -0.02707449)
(0.0001332813 0.0002958331 -0.02699793)
(0.0006432467 0.003147351 -0.06625045)
(5.419424e-05 4.133934e-05 -0.00187044)
(6.619733e-05 4.785268e-05 -0.006796105)
(7.844397e-05 5.591501e-05 -0.01166574)
(9.41217e-05 6.544998e-05 -0.02249666)
(0.0001042782 8.84329e-05 -0.02186073)
(0.001166882 0.0009559123 -0.05329863)
(0.0006756653 0.001144254 -0.04606114)
(0.0001176398 8.920784e-05 -0.006768127)
(0.0001894552 0.0002158991 -0.004948534)
(0.0001107564 0.0001849032 -0.0209365)
(0.0001270541 0.0004919456 -0.003827259)
(0.0001792522 0.0005829737 -0.01533965)
(9.501001e-05 0.0006460872 -0.0298367)
(9.977177e-05 0.0005145904 -0.003067578)
(0.000134378 0.000615615 -0.01182302)
(0.0001701934 0.0007425181 -0.02194196)
(8.662126e-05 0.0008660681 -0.04629648)
(7.866315e-05 0.0003310145 -0.00254301)
(0.0001020918 0.000388964 -0.009545689)
(0.0001275827 0.000466747 -0.01709811)
(0.0001534832 0.0005680539 -0.03484373)
(6.75567e-05 0.0007671362 -0.03569269)
(6.454677e-05 0.000227428 -0.002163579)
(8.089001e-05 0.0002640649 -0.007972642)
(9.87682e-05 0.0003119526 -0.0139344)
(0.0001203318 0.0003783259 -0.02751291)
(0.0001274394 0.0005134167 -0.02754167)
(0.0006158258 0.005510365 -0.06819501)
(5.329024e-05 0.0001173096 -0.00188016)
(6.506296e-05 0.000134587 -0.006834654)
(7.696992e-05 0.0001565534 -0.01173902)
(9.214179e-05 0.0001863533 -0.02265631)
(0.00010129 0.0002484196 -0.02204109)
(0.001136733 0.002719048 -0.05384481)
(0.0006596988 0.003332369 -0.04674276)
(4.441373e-05 3.715364e-05 -0.001661848)
(5.300536e-05 4.260313e-05 -0.005978628)
(6.116598e-05 4.914738e-05 -0.01013591)
(7.093802e-05 5.66045e-05 -0.01924261)
(7.739178e-05 7.45765e-05 -0.01831905)
(0.0008912465 0.0007990937 -0.04360177)
(0.001202979 0.0009845704 -0.03758403)
(0.0006596646 0.001183382 -0.05113276)
(0.0001192592 2.143341e-05 -0.006857181)
(0.0001904795 0.0001216982 -0.005021358)
(0.0001122925 0.0001000117 -0.02144628)
(0.000124965 0.000200083 -0.003899149)
(0.0001810539 0.0002262907 -0.01572229)
(9.674688e-05 0.00022016 -0.03104396)
(8.983535e-05 0.000422994 -0.003145528)
(0.0001219159 0.0005054576 -0.01218173)
(0.0001577816 0.0006090262 -0.02278925)
(7.976994e-05 0.000707313 -0.04906233)
(7.429797e-05 0.0004466309 -0.002596509)
(9.654155e-05 0.0005270211 -0.009776234)
(0.0001208092 0.0006345869 -0.01758807)
(0.0001476551 0.0007775146 -0.03611079)
(6.248115e-05 0.001057995 -0.03766936)
(6.108088e-05 0.0002921095 -0.002197946)
(7.645405e-05 0.0003390505 -0.008113644)
(9.289587e-05 0.000400527 -0.0142148)
(0.0001127094 0.0004860227 -0.0281633)
(0.0001168954 0.0006624236 -0.02835709)
(0.0005647189 0.007130674 -0.07119761)
(5.160545e-05 0.0002025425 -0.001899038)
(6.295206e-05 0.000232573 -0.006909685)
(7.422857e-05 0.0002706132 -0.01188213)
(8.845964e-05 0.0003222346 -0.02296927)
(9.569556e-05 0.0004291931 -0.0223974)
(0.001080355 0.004715572 -0.05492963)
(0.0006299706 0.005833589 -0.04812316)
(4.365803e-05 0.0001054851 -0.00166979)
(5.207338e-05 0.0001199073 -0.006009486)
(5.998087e-05 0.0001377158 -0.01019308)
(6.937761e-05 0.0001612768 -0.01936302)
(7.501953e-05 0.0002095853 -0.01844853)
(0.0008635698 0.002274488 -0.04396289)
(0.001170748 0.00287015 -0.03797198)
(0.0006429948 0.00339031 -0.05189187)
(3.706696e-05 3.362641e-05 -0.001489579)
(4.344373e-05 3.825449e-05 -0.005315424)
(4.897408e-05 4.365985e-05 -0.008921543)
(5.52995e-05 4.960686e-05 -0.01672803)
(5.823818e-05 6.398273e-05 -0.01567268)
(0.0006617771 0.0006725914 -0.03654263)
(0.0009186293 0.0008225191 -0.03073484)
(0.001170404 0.001012739 -0.04171408)
(0.0006438313 0.001190892 -0.05192286)
(0.0001199568 7.180841e-06 -0.00689586)
(0.0001920505 4.324652e-05 -0.005060128)
(0.0001137414 2.656203e-05 -0.02172511)
(0.0001231986 0.0001139941 -0.003940841)
(0.0001816289 0.0001276126 -0.01595157)
(9.755203e-05 0.0001206548 -0.0317939)
(8.737042e-05 0.0001769407 -0.003192969)
(0.0001195104 0.000207123 -0.01240875)
(0.0001580259 0.0002428731 -0.02335458)
(8.015851e-05 0.0002611834 -0.05103951)
(6.648141e-05 0.0003674154 -0.002653537)
(8.625983e-05 0.0004332815 -0.01002431)
(0.0001074709 0.0005215732 -0.01811948)
(0.0001328278 0.0006394914 -0.03750706)
(5.144884e-05 0.0008774487 -0.0399152)
(5.75001e-05 0.00039226 -0.002238855)
(7.190772e-05 0.0004566081 -0.008283339)
(8.690729e-05 0.0005402376 -0.01455647)
(0.0001050179 0.0006568334 -0.02896806)
(0.0001062049 0.0008940149 -0.02938744)
(0.0005132282 0.00979719 -0.07515388)
(4.87612e-05 0.0002602225 -0.00192634)
(5.937469e-05 0.000298752 -0.007018725)
(6.957384e-05 0.0003476254 -0.01209121)
(8.218474e-05 0.000414111 -0.02342983)
(8.613747e-05 0.0005530077 -0.0229257)
(0.0009794691 0.006089726 -0.05656275)
(0.0005748193 0.007554476 -0.05028368)
(4.224665e-05 0.0001818992 -0.001685181)
(5.033471e-05 0.0002069036 -0.006069389)
(5.776997e-05 0.0002376542 -0.01030439)
(6.6465e-05 0.0002783199 -0.01959798)
(7.056708e-05 0.0003611878 -0.01870288)
(0.0008113546 0.003927223 -0.04467371)
(0.001110343 0.004977106 -0.03874274)
(0.0006118134 0.005933688 -0.05342894)
(3.642669e-05 9.550533e-05 -0.00149618)
(4.266625e-05 0.0001077252 -0.005340655)
(4.80057e-05 0.0001224099 -0.008967341)
(5.405503e-05 0.0001414004 -0.01682205)
(5.641012e-05 0.0001798529 -0.01577031)
(0.0006399811 0.001914865 -0.03680205)
(0.000889302 0.002397953 -0.03099147)
(0.001137087 0.002905691 -0.0421463)
(0.0006264452 0.003451031 -0.05270026)
(3.142828e-05 3.061868e-05 -0.001345135)
(3.62623e-05 3.45969e-05 -0.004767298)
(4.01457e-05 3.913469e-05 -0.007935745)
(4.427135e-05 4.39667e-05 -0.01473104)
(4.536111e-05 5.573719e-05 -0.01362741)
(0.0004978047 0.0005762644 -0.03126826)
(0.0006822227 0.0006919248 -0.02575139)
(0.0008934539 0.0008441922 -0.03410732)
(0.001143995 0.001015587 -0.04234519)
(0.0006749824 0.001331929 -0.0439019)
(0.0001199568 -7.180755e-06 -0.00689586)
(0.0001927137 1.368896e-05 -0.005076678)
(0.0001143644 8.730654e-06 -0.02184613)
(0.000122954 4.316501e-05 -0.003962343)
(0.0001829651 4.595397e-05 -0.0160737)
(9.859771e-05 3.689481e-05 -0.03220383)
(8.547704e-05 0.000101316 -0.003219649)
(0.0001175426 0.0001179423 -0.01254033)
(0.0001576223 0.0001370803 -0.02369329)
(8.010989e-05 0.0001446623 -0.05226605)
(6.431681e-05 0.0001563604 -0.002686826)
(8.361141e-05 0.0001821263 -0.01017431)
(0.0001044437 0.0002169696 -0.01845557)
(0.0001312652 0.0002622572 -0.03843301)
(4.895042e-05 0.0003638145 -0.04152579)
(5.127361e-05 0.0003228018 -0.002282331)
(6.385699e-05 0.0003756079 -0.008465131)
(7.614456e-05 0.0004442908 -0.01492441)
(9.065833e-05 0.0005404731 -0.029845)
(8.532786e-05 0.0007389263 -0.03051877)
(0.000407069 0.008145542 -0.07972743)
(4.579677e-05 0.0003481181 -0.001958552)
(5.56646e-05 0.0004005133 -0.007148611)
(6.475311e-05 0.0004663388 -0.01234291)
(7.568448e-05 0.0005557675 -0.02399134)
(7.604988e-05 0.0007392785 -0.02358)
(0.000875199 0.008196998 -0.05862484)
(0.000518711 0.01037305 -0.05310924)
(3.987595e-05 0.0002337327 -0.001707361)
(4.740661e-05 0.0002658366 -0.006156084)
(5.404428e-05 0.0003053562 -0.01046618)
(6.155433e-05 0.0003577168 -0.01994158)
(6.309312e-05 0.0004650025 -0.01907694)
(0.000722472 0.005062822 -0.04573254)
(0.001002502 0.006429448 -0.03992635)
(0.0005543117 0.007693339 -0.05584511)
(3.522902e-05 0.0001645097 -0.001508954)
(4.121303e-05 0.0001856589 -0.005389527)
(4.619557e-05 0.000210955 -0.009056254)
(5.172704e-05 0.0002436434 -0.01700487)
(5.297533e-05 0.0003094114 -0.01596129)
(0.0005988068 0.003298128 -0.03730952)
(0.000833918 0.004140079 -0.03149691)
(0.001074462 0.005037737 -0.04300481)
(0.0005937812 0.006039179 -0.05427069)
(3.087966e-05 8.698747e-05 -0.001350703)
(3.560466e-05 9.746317e-05 -0.004788283)
(3.934122e-05 0.0001097703 -0.007973211)
(4.326034e-05 0.000125361 -0.01480639)
(4.392385e-05 0.0001566949 -0.01370362)
(0.0004810683 0.001640811 -0.03146402)
(0.0006591868 0.002017438 -0.02593584)
(0.0008635645 0.002422831 -0.03439335)
(0.001109624 0.002944992 -0.04278872)
(0.0006552536 0.003823589 -0.04455367)
(2.699627e-05 2.802669e-05 -0.001222451)
(3.075186e-05 3.148287e-05 -0.00430739)
(3.351765e-05 3.534217e-05 -0.007120545)
(3.62967e-05 3.933711e-05 -0.01310918)
(3.62974e-05 4.916705e-05 -0.01200289)
(0.0003876554 0.0005014827 -0.02719186)
(0.0005131148 0.000592575 -0.02202951)
(0.0006637281 0.000709377 -0.02857415)
(0.0008730297 0.0008453297 -0.03461486)
(0.001196088 0.001129165 -0.0357924)
(0.005597512 0.01239372 -0.115214)
(0.0001192592 -2.143347e-05 -0.006857181)
(0.0001927137 -1.368895e-05 -0.005076678)
(0.0001143644 -8.730573e-06 -0.02184613)
(0.0001228295 1.359528e-05 -0.003971301)
(0.000183526 1.450532e-05 -0.01612584)
(9.90453e-05 1.183243e-05 -0.03238168)
(8.495714e-05 3.944333e-05 -0.003232966)
(0.0001171969 4.492165e-05 -0.01260828)
(0.0001584216 5.061881e-05 -0.02387377)
(8.068526e-05 4.890298e-05 -0.05293612)
(6.269535e-05 8.979604e-05 -0.002704988)
(8.160181e-05 0.0001041908 -0.01025862)
(0.0001020922 0.0001234201 -0.01865043)
(0.0001297269 0.0001481496 -0.0389872)
(4.706183e-05 0.0002042412 -0.0425242)
(4.944119e-05 0.0001389948 -0.002306715)
(6.157379e-05 0.0001603822 -0.008570472)
(7.316729e-05 0.0001886088 -0.01514677)
(8.690714e-05 0.0002285187 -0.03039557)
(7.974874e-05 0.0003178089 -0.03127334)
(0.0003794319 0.003437561 -0.08292589)
(4.074534e-05 0.0002865028 -0.001992739)
(4.92699e-05 0.0003295383 -0.007287399)
(5.640395e-05 0.0003835757 -0.01261276)
(6.43597e-05 0.0004572317 -0.02459921)
(5.871554e-05 0.000609567 -0.02428952)
(0.0006778722 0.006781137 -0.06094752)
(0.0004047626 0.008629816 -0.05669485)
(3.738934e-05 0.0003117127 -0.001733327)
(4.434581e-05 0.0003551013 -0.006258442)
(5.015031e-05 0.0004079659 -0.01065898)
(5.641272e-05 0.0004777933 -0.02035545)
(5.514366e-05 0.0006183408 -0.01953344)
(0.0006280182 0.006753537 -0.04704253)
(0.0008904317 0.008651599 -0.04140754)
(0.0004950291 0.01055391 -0.05900163)
(3.322556e-05 0.00021139 -0.001527314)
(3.877731e-05 0.0002385617 -0.005460008)
(4.316206e-05 0.0002710692 -0.009184971)
(4.78276e-05 0.000313141 -0.0172709)
(4.725498e-05 0.0003981024 -0.01624034)
(0.0005298663 0.004247478 -0.03805979)
(0.0007397313 0.005338235 -0.03226868)
(0.0009630685 0.006511101 -0.04433141)
(0.0005338613 0.007838486 -0.05677243)
(2.985236e-05 0.0001496992 -0.001361467)
(3.43737e-05 0.0001677956 -0.004828871)
(3.783521e-05 0.0001889609 -0.008045791)
(4.136645e-05 0.0002157374 -0.0149525)
(4.122154e-05 0.0002692151 -0.01385224)
(0.0004494332 0.002821313 -0.0318451)
(0.000615639 0.003474575 -0.02629693)
(0.0008070579 0.004182374 -0.03495651)
(0.001044839 0.0051053 -0.04366696)
(0.0006177691 0.00669045 -0.04588249)
(2.652152e-05 7.964106e-05 -0.001227207)
(3.01891e-05 8.871783e-05 -0.004325105)
(3.283945e-05 9.916379e-05 -0.007151721)
(3.546056e-05 0.0001121849 -0.01317085)
(3.514191e-05 0.0001382351 -0.01206395)
(0.0003745276 0.001427968 -0.02734479)
(0.0004954468 0.001727889 -0.02216877)
(0.0006403497 0.002036123 -0.0287798)
(0.0008425667 0.002451309 -0.03490886)
(0.001157493 0.003243681 -0.03616238)
(0.005412244 0.03575524 -0.1171259)
(2.346186e-05 2.577301e-05 -0.001117084)
(2.642098e-05 2.880268e-05 -0.00391652)
(2.843523e-05 3.212281e-05 -0.006436196)
(3.031325e-05 3.547117e-05 -0.01176741)
(2.977017e-05 4.382214e-05 -0.01068332)
(0.0003101607 0.0004420076 -0.02395385)
(0.0003995478 0.0005155051 -0.01915396)
(0.0004990946 0.0006070727 -0.02444252)
(0.0006487492 0.0007096956 -0.02899406)
(0.000912385 0.000937562 -0.02925106)
(0.009904601 0.01039823 -0.09388173)
(0.005762584 0.01232532 -0.01180861)
(0.0001176398 -8.920797e-05 -0.006768127)
(0.0001920505 -4.324652e-05 -0.005060128)
(0.0001137414 -2.65621e-05 -0.02172511)
(0.0001228295 -1.359528e-05 -0.003971301)
(0.000183526 -1.450531e-05 -0.01612584)
(9.90453e-05 -1.183236e-05 -0.03238168)
(8.471455e-05 1.240507e-05 -0.003238365)
(0.0001170284 1.412267e-05 -0.0126366)
(0.0001587494 1.589517e-05 -0.02395084)
(8.09283e-05 1.543682e-05 -0.05322678)
(6.218526e-05 3.553644e-05 -0.00271374)
(8.102547e-05 4.06925e-05 -0.01030077)
(0.0001015371 4.756223e-05 -0.01875114)
(0.0001299043 5.607083e-05 -0.03928249)
(4.665575e-05 7.748721e-05 -0.04306951)
(4.80861e-05 7.997368e-05 -0.002319616)
(5.987753e-05 9.200434e-05 -0.008627889)
(7.095814e-05 0.0001077012 -0.0152718)
(8.41087e-05 0.0001298489 -0.03071445)
(7.566373e-05 0.0001797647 -0.03172475)
(0.0003591924 0.001933216 -0.08490553)
(3.919793e-05 0.000124409 -0.002011186)
(4.735556e-05 0.0001422307 -0.007364598)
(5.392279e-05 0.0001649075 -0.01276907)
(6.099848e-05 0.0001962328 -0.0249635)
(5.319706e-05 0.0002653025 -0.02473848)
(0.0006207593 0.002941624 -0.06243542)
(0.000373952 0.003656338 -0.05886164)
(3.32179e-05 0.0002565257 -0.001760884)
(3.916832e-05 0.0002921761 -0.006367712)
(4.355709e-05 0.0003355472 -0.01086513)
(4.771423e-05 0.0003929603 -0.02080173)
(4.20048e-05 0.0005090345 -0.02002467)
(0.0004678495 0.005570976 -0.04850935)
(0.0006800755 0.007158282 -0.04332489)
(0.0003770036 0.008789204 -0.06313879)
(3.111434e-05 0.0002811919 -0.001548664)
(3.621654e-05 0.0003177268 -0.00554258)
(3.997193e-05 0.0003609812 -0.009336997)
(4.371829e-05 0.0004167532 -0.01758805)
(4.114976e-05 0.0005274504 -0.01657679)
(0.0004562192 0.005637418 -0.03897424)
(0.00063944 0.007119712 -0.03321397)
(0.0008463023 0.008757599 -0.04598975)
(0.0004713693 0.01074781 -0.06002299)
(2.814013e-05 0.0001923539 -0.0013769)
(3.231853e-05 0.0002156031 -0.004887251)
(3.532203e-05 0.0002428029 -0.008150489)
(3.820931e-05 0.0002772464 -0.01516424)
(3.674329e-05 0.000346211 -0.01406828)
(0.0003968603 0.003630748 -0.03240525)
(0.00054277 0.004475285 -0.02684645)
(0.0007111095 0.005394488 -0.03582308)
(0.0009299498 0.006601557 -0.04505021)
(0.0005494628 0.008696958 -0.04798645)
(2.563181e-05 0.0001369464 -0.001236392)
(2.913477e-05 0.0001526034 -0.004359324)
(3.156842e-05 0.0001705362 -0.007212026)
(3.389261e-05 0.000192864 -0.01329017)
(3.296848e-05 0.000237248 -0.01218273)
(0.0003497035 0.002452175 -0.02764139)
(0.0004620307 0.002970881 -0.02244013)
(0.0005961245 0.003506285 -0.02918226)
(0.0007849057 0.004231205 -0.03548558)
(0.001084142 0.005622609 -0.03690451)
(0.005037351 0.06251309 -0.1208065)
(2.304747e-05 7.324955e-05 -0.00112119)
(2.593454e-05 8.118462e-05 -0.00393166)
(2.785647e-05 9.01533e-05 -0.006462525)
(2.961092e-05 0.0001011741 -0.01181875)
(2.882239e-05 0.0001232142 -0.0107333)
(0.0002996249 0.001258651 -0.02407648)
(0.0003856999 0.001503216 -0.01926282)
(0.0004811978 0.001742559 -0.02459786)
(0.0006250097 0.002058051 -0.02920576)
(0.000878708 0.002693403 -0.02949537)
(0.009547185 0.02998965 -0.09501339)
(0.005579071 0.03593986 -0.01230821)
(2.059221e-05 2.379718e-05 -0.001025705)
(2.296775e-05 2.647477e-05 -0.00358062)
(2.444184e-05 2.93586e-05 -0.0058543)
(2.572961e-05 3.219947e-05 -0.01064054)
(2.488188e-05 3.939075e-05 -0.009591472)
(0.0002544106 0.000393696 -0.0213235)
(0.0003196616 0.0004542469 -0.01687047)
(0.0003885851 0.0005278246 -0.02125089)
(0.0004877335 0.0006069546 -0.02479832)
(0.000678302 0.0007861053 -0.02449676)
(0.007548734 0.008596071 -0.07669153)
(0.01022502 0.01036978 -0.009572035)
(0.005564764 0.0126672 -0.03396112)
(0.0001157826 -0.0001663094 -0.006605429)
(0.0001904796 -0.0001216982 -0.005021358)
(0.0001122925 -0.0001000118 -0.02144628)
(0.000122954 -4.3165e-05 -0.003962343)
(0.0001829651 -4.595397e-05 -0.0160737)
(9.859771e-05 -3.689487e-05 -0.03220383)
(8.471455e-05 -1.240507e-05 -0.003238365)
(0.0001170284 -1.412267e-05 -0.0126366)
(0.0001587494 -1.589517e-05 -0.02395084)
(8.09283e-05 -1.543677e-05 -0.05322678)
(6.194937e-05 1.116834e-05 -0.002717177)
(8.075833e-05 1.277845e-05 -0.01031787)
(0.0001012776 1.489923e-05 -0.01879315)
(0.0001299622 1.752013e-05 -0.03940864)
(4.647185e-05 2.40553e-05 -0.04330604)
(4.763055e-05 3.199538e-05 -0.002325597)
(5.933205e-05 3.64763e-05 -0.008655608)
(7.027419e-05 4.234217e-05 -0.01533439)
(8.33099e-05 5.066073e-05 -0.03087929)
(7.449902e-05 7.077418e-05 -0.03196531)
(0.0003537657 0.0007443204 -0.08598676)
(3.806276e-05 7.166554e-05 -0.002020646)
(4.594901e-05 8.173632e-05 -0.007405386)
(5.210837e-05 9.438571e-05 -0.01285431)
(5.855617e-05 0.0001118342 -0.02516807)
(4.9284e-05 0.000150444 -0.02499846)
(0.0005796648 0.001664191 -0.0633227)
(0.0003515708 0.002057188 -0.06019415)
(3.190238e-05 0.000112094 -0.001775208)
(3.756157e-05 0.0001270852 -0.006426131)
(4.151475e-05 0.0001455235 -0.01097976)
(4.500147e-05 0.0001702429 -0.02105777)
(3.76363e-05 0.000222831 -0.02032193)
(0.0004153304 0.002438479 -0.04939002)
(0.000617918 0.003109216 -0.04429781)
(0.0003434577 0.003746883 -0.06550985)
(2.761666e-05 0.0002313749 -0.001571341)
(3.194754e-05 0.000261394 -0.005630758)
(3.465568e-05 0.0002968513 -0.00949939)
(3.689234e-05 0.0003426375 -0.01792932)
(3.123795e-05 0.0004336921 -0.01693704)
(0.0003356027 0.004641727 -0.03999611)
(0.0004699014 0.005873037 -0.03447174)
(0.0006299175 0.007247585 -0.04823762)
(0.0003490241 0.008957885 -0.06463801)
(2.63297e-05 0.0002553157 -0.001394737)
(3.014873e-05 0.0002864457 -0.004955191)
(3.266712e-05 0.000322478 -0.008273191)
(3.486753e-05 0.0003679246 -0.01541442)
(3.195345e-05 0.0004574406 -0.01432609)
(0.0003405657 0.004802194 -0.03307964)
(0.0004648275 0.005939209 -0.02750899)
(0.0006086092 0.007193163 -0.03688337)
(0.0008086448 0.008878529 -0.04676814)
(0.0004771808 0.01192223 -0.05073373)
(2.415328e-05 0.0001759562 -0.001249536)
(2.738055e-05 0.0001960724 -0.004408427)
(2.945474e-05 0.0002191073 -0.00729879)
(3.128848e-05 0.0002478168 -0.01346247)
(2.937979e-05 0.0003049691 -0.01235468)
(0.0003086438 0.003153862 -0.02807542)
(0.0004065263 0.003823567 -0.02285229)
(0.000522197 0.004517113 -0.02980022)
(0.0006871194 0.005459145 -0.03639407)
(0.0009545647 0.00727564 -0.03806313)
(0.004364241 0.0814871 -0.1275312)
(2.227036e-05 0.0001258672 -0.001129115)
(2.50225e-05 0.0001395374 -0.003960876)
(2.677103e-05 0.0001549129 -0.006513389)
(2.829283e-05 0.00017378 -0.01191792)
(2.703908e-05 0.0002112846 -0.01083031)
(0.0002796974 0.002159193 -0.0243136)
(0.0003595 0.002581283 -0.01947419)
(0.0004473318 0.002995756 -0.02490042)
(0.0005800625 0.00354384 -0.0296183)
(0.0008146034 0.004648897 -0.02998225)
(0.008832726 0.0519458 -0.09711375)
(0.005207204 0.06333836 -0.01331611)
(2.022775e-05 6.764305e-05 -0.001029283)
(2.254355e-05 7.463741e-05 -0.003593698)
(2.39427e-05 8.24115e-05 -0.00587681)
(2.513206e-05 9.185211e-05 -0.01068391)
(2.40911e-05 0.0001107575 -0.009633069)
(0.0002457808 0.001121097 -0.02142393)
(0.0003085541 0.001324605 -0.01695782)
(0.000374575 0.001515105 -0.02137236)
(0.0004695902 0.001760133 -0.02495845)
(0.0006521851 0.002258248 -0.0246721)
(0.00724481 0.02478575 -0.07746268)
(0.009869477 0.03022594 -0.009929181)
(0.005372259 0.03667977 -0.03493233)
(1.823343e-05 2.205317e-05 -0.0009458026)
(2.016418e-05 2.44357e-05 -0.003289151)
(2.12591e-05 2.696258e-05 -0.005354016)
(2.212964e-05 2.939729e-05 -0.009681982)
(2.114831e-05 3.566318e-05 -0.008674355)
(0.0002126784 0.0003536896 -0.01914684)
(0.0002622118 0.0004045116 -0.01501594)
(0.0003108703 0.0004648982 -0.01871668)
(0.0003796999 0.0005274632 -0.02155792)
(0.0005098006 0.0006717015 -0.02094893)
(0.005618444 0.007189702 -0.0642069)
(0.007795272 0.008582686 -0.007791732)
(0.009851074 0.01060645 -0.02761507)
(0.005514053 0.01274679 -0.01253425)
(0.0001123939 -0.0005620384 -0.006344171)
(0.0001894552 -0.0002158991 -0.004948534)
(0.0001107564 -0.0001849033 -0.0209365)
(0.0001231986 -0.0001139941 -0.003940841)
(0.0001816289 -0.0001276126 -0.01595157)
(9.755203e-05 -0.0001206549 -0.0317939)
(8.495714e-05 -3.944333e-05 -0.003232966)
(0.0001171969 -4.492164e-05 -0.01260828)
(0.0001584216 -5.061881e-05 -0.02387377)
(8.068526e-05 -4.890302e-05 -0.05293612)
(6.194937e-05 -1.116834e-05 -0.002717177)
(8.075833e-05 -1.277845e-05 -0.01031787)
(0.0001012776 -1.489923e-05 -0.01879315)
(0.0001299622 -1.752013e-05 -0.03940864)
(4.647184e-05 -2.405527e-05 -0.04330604)
(4.742048e-05 1.005079e-05 -0.002327859)
(5.908084e-05 1.144808e-05 -0.0086665)
(6.996062e-05 1.325569e-05 -0.0153598)
(8.294456e-05 1.581108e-05 -0.03094808)
(7.397392e-05 2.19448e-05 -0.0320681)
(0.0003513416 0.0002305976 -0.08645577)
(3.766511e-05 2.888904e-05 -0.00202485)
(4.54697e-05 3.273201e-05 -0.007424329)
(5.150005e-05 3.756292e-05 -0.01289551)
(5.774652e-05 4.428437e-05 -0.02527049)
(4.791489e-05 5.99745e-05 -0.02513291)
(0.0005668375 0.000659367 -0.06379524)
(0.0003452473 0.000795283 -0.06092195)
(3.094292e-05 6.461843e-05 -0.001782326)
(3.638925e-05 7.311385e-05 -0.006456033)
(4.003311e-05 8.34173e-05 -0.01104035)
(4.304867e-05 9.719781e-05 -0.02119718)
(3.456232e-05 0.0001265198 -0.02048887)
(0.000378347 0.001382279 -0.04989744)
(0.0005733996 0.001758943 -0.04486808)
(0.00031934 0.00210956 -0.06696054)
(2.648935e-05 0.000101586 -0.001582712)
(3.058747e-05 0.0001143558 -0.005676127)
(3.296193e-05 0.0001295582 -0.009586187)
(3.469999e-05 0.0001494154 -0.01811705)
(2.788261e-05 0.0001905368 -0.01714612)
(0.0002947312 0.002040449 -0.04057655)
(0.0004139182 0.002571772 -0.03502949)
(0.0005639099 0.003154008 -0.04928678)
(0.0003128037 0.003835944 -0.06694659)
(2.336005e-05 0.0002100436 -0.001413712)
(2.657352e-05 0.0002356155 -0.005027828)
(2.829758e-05 0.0002651246 -0.008404298)
(2.93884e-05 0.0003023776 -0.01568349)
(2.426585e-05 0.0003757709 -0.01460129)
(0.0002498497 0.003948678 -0.03383355)
(0.0003374208 0.004889837 -0.02841319)
(0.0004361888 0.005933496 -0.03837456)
(0.0005861281 0.007348488 -0.04936974)
(0.0003386441 0.009946514 -0.05455719)
(2.258567e-05 0.0002331168 -0.001264644)
(2.55228e-05 0.0002599586 -0.004465224)
(2.72144e-05 0.0002903627 -0.007399796)
(2.852304e-05 0.0003280966 -0.01366448)
(2.553567e-05 0.0004020692 -0.01255806)
(0.0002646124 0.004160589 -0.02859254)
(0.0003470367 0.005057014 -0.02334285)
(0.000442958 0.005994138 -0.0305446)
(0.0005823621 0.007280151 -0.03749767)
(0.0008164391 0.009787986 -0.03951149)
(0.003630944 0.1110972 -0.1358127)
(2.098218e-05 0.0001617075 -0.001140435)
(2.350928e-05 0.0001792698 -0.004002718)
(2.497153e-05 0.0001990132 -0.006586397)
(2.611037e-05 0.0002232556 -0.01206077)
(2.410298e-05 0.0002714923 -0.01097023)
(0.0002468509 0.002775675 -0.02465933)
(0.0003161837 0.003320121 -0.01979499)
(0.0003911267 0.003856177 -0.02536462)
(0.0005049891 0.004566494 -0.03026913)
(0.0007060665 0.006000932 -0.03074097)
(0.007582276 0.06730087 -0.1010984)
(0.004527921 0.08273041 -0.01834594)
(1.95439e-05 0.0001161603 -0.001036185)
(2.174773e-05 0.0001281971 -0.003618918)
(2.300603e-05 0.0001415086 -0.005920256)
(2.401005e-05 0.0001576498 -0.01076759)
(2.260286e-05 0.0001897844 -0.009713712)
(0.000229455 0.001921603 -0.02161763)
(0.000287535 0.002272257 -0.01712694)
(0.0003480579 0.00260144 -0.02160812)
(0.0004352336 0.003025841 -0.02526888)
(0.000602489 0.003888511 -0.02502012)
(0.006641137 0.042754 -0.07886341)
(0.009157629 0.05275337 -0.01065653)
(0.004982625 0.0655046 -0.03679998)
(1.791073e-05 6.269246e-05 -0.0009489456)
(1.979137e-05 6.889934e-05 -0.003300552)
(2.082465e-05 7.569743e-05 -0.005373467)
(2.161558e-05 8.386505e-05 -0.009719082)
(2.047927e-05 0.0001002782 -0.008709495)
(0.0002054865 0.001007174 -0.0192305)
(0.0002531178 0.001179575 -0.01508752)
(0.0002996429 0.001334475 -0.01881418)
(0.0003655121 0.001529606 -0.02168332)
(0.0004898845 0.001929531 -0.02108117)
(0.005384709 0.02072691 -0.06477499)
(0.007490735 0.02500913 -0.008065564)
(0.009481694 0.03070128 -0.0282724)
(0.005318171 0.03703052 -0.01313918)
(1.627166e-05 2.050384e-05 -0.0008754227)
(1.785994e-05 2.263725e-05 -0.003034152)
(1.867565e-05 2.486744e-05 -0.004919727)
(1.926233e-05 2.697347e-05 -0.00885755)
(1.821986e-05 3.248646e-05 -0.007894108)
(0.0001808282 0.0003200717 -0.01731833)
(0.0002192142 0.0003633423 -0.01348159)
(0.0002550161 0.0004138482 -0.0166587)
(0.0003037445 0.0004643993 -0.01898547)
(0.0003968176 0.000583336 -0.01820958)
(0.004220262 0.00613278 -0.05489562)
(0.005800522 0.007182779 -0.006505236)
(0.007508281 0.008761075 -0.02252959)
(0.009766741 0.01066133 -0.01017262)
(0.00540052 0.01272838 -0.006416809)
(0.0001152265 -0.000705086 -0.005982558)
(0.0001869514 -0.0005639325 -0.004827091)
(0.0001078666 -0.0005935181 -0.0201166)
(0.000124965 -0.000200083 -0.003899149)
(0.0001810539 -0.0002262906 -0.01572229)
(9.674689e-05 -0.0002201601 -0.03104396)
(8.547704e-05 -0.000101316 -0.003219649)
(0.0001175426 -0.0001179423 -0.01254033)
(0.0001576223 -0.0001370803 -0.02369329)
(8.010989e-05 -0.0001446623 -0.05226605)
(6.218526e-05 -3.553644e-05 -0.00271374)
(8.102547e-05 -4.06925e-05 -0.01030077)
(0.0001015371 -4.756223e-05 -0.01875114)
(0.0001299043 -5.607083e-05 -0.03928249)
(4.665575e-05 -7.748724e-05 -0.04306951)
(4.742048e-05 -1.005079e-05 -0.002327859)
(5.908084e-05 -1.144808e-05 -0.0086665)
(6.996062e-05 -1.325569e-05 -0.0153598)
(8.294456e-05 -1.581108e-05 -0.03094808)
(7.397392e-05 -2.194479e-05 -0.0320681)
(0.0003513416 -0.0002305974 -0.08645577)
(3.748194e-05 9.071334e-06 -0.00202637)
(4.524939e-05 1.026922e-05 -0.007431495)
(5.122199e-05 1.175614e-05 -0.01291172)
(5.737871e-05 1.381814e-05 -0.0253121)
(4.730084e-05 1.859884e-05 -0.02518904)
(0.0005610945 0.0002041988 -0.06399704)
(0.0003424297 0.0002462443 -0.06123708)
(3.059718e-05 2.619089e-05 -0.001785345)
(3.597485e-05 2.948481e-05 -0.006469343)
(3.951451e-05 3.347361e-05 -0.01106854)
(4.236677e-05 3.884641e-05 -0.02126458)
(3.343819e-05 5.076003e-05 -0.02057251)
(0.00036508 0.0005531248 -0.05015939)
(0.0005591754 0.0006980597 -0.04517048)
(0.0003120749 0.0008207927 -0.06775405)
(2.567079e-05 5.858441e-05 -0.001588186)
(2.96002e-05 6.583611e-05 -0.005698613)
(3.173954e-05 7.433679e-05 -0.009630631)
(3.313025e-05 8.540842e-05 -0.0182161)
(2.55292e-05 0.0001082657 -0.01725999)
(0.0002661148 0.001157771 -0.04090025)
(0.0003745738 0.001457537 -0.03534123)
(0.0005169688 0.00178409 -0.04989453)
(0.0002869875 0.002160786 -0.06834344)
(2.238694e-05 9.256545e-05 -0.001422899)
(2.541173e-05 0.0001035313 -0.005063846)
(2.687621e-05 0.0001162616 -0.008471738)
(2.759255e-05 0.0001324881 -0.01582561)
(2.163508e-05 0.0001655064 -0.01475471)
(0.0002186919 0.001740374 -0.03423998)
(0.0002940775 0.002149441 -0.02876963)
(0.0003786214 0.002599556 -0.03896789)