/*--------------------------------*- C++ -*----------------------------------*\
| =========                 |                                                 |
| \\      /  F ield         | OpenFOAM: The Open Source CFD Toolbox           |
|  \\    /   O peration     | Version:  2306                                  |
|   \\  /    A nd           | Website:  www.openfoam.com                      |
|    \\/     M anipulation  |                                                 |
\*---------------------------------------------------------------------------*/
FoamFile
{
    version     2.0;
    format      ascii;
    arch        "LSB;label=32;scalar=64";
    class       volScalarField;
    location    "0.3/fuel";
    object      X.H2;
}
// * * * * * * * * * * * * * * * * * * * * * * * * * * * * * * * * * * * * * //

dimensions      [0 0 0 0 0 0 0];

internalField   nonuniform List<scalar> 
16000
(
0.9196817
0.9211674
0.8972904
0.9197674
0.9241285
0.8984401
0.9212538
0.8725177
0.8973676
0.919935
0.9284778
0.9007293
0.9242163
0.8735316
0.8985177
0.9214227
0.8487259
0.8725873
0.8975186
0.9201816
0.9339027
0.9040897
0.928568
0.8755509
0.9008078
0.9243879
0.8496548
0.8736015
0.8986695
0.9216711
0.8262845
0.8487894
0.8727237
0.8977412
0.9205055
0.9395007
0.9082835
0.933997
0.8785179
0.9041697
0.9287443
0.8515042
0.8756214
0.9009613
0.9246403
0.8271461
0.8497186
0.8737385
0.8988932
0.9219975
0.8051409
0.8263431
0.8489141
0.8729249
0.8980338
0.9208259
0.9436087
0.9126269
0.9396004
0.8822258
0.9083659
0.934181
0.8542213
0.8785896
0.9043261
0.9290036
0.8288608
0.8515685
0.8757597
0.9011874
0.9249719
0.8059451
0.8272049
0.8498437
0.8739406
0.8991873
0.9223202
0.785185
0.8051952
0.826458
0.8490981
0.8731897
0.8983233
0.9210909
0.9461841
0.9158555
0.9437106
0.8860723
0.9127127
0.9397952
0.8576168
0.8822994
0.9085271
0.9344518
0.8313796
0.8542865
0.87873
0.9045564
0.9293442
0.8075451
0.82892
0.8516946
0.8759636
0.9014847
0.9252998
0.785939
0.8059996
0.8273202
0.8500284
0.8742065
0.8994784
0.9225872
0.7663101
0.7852356
0.8053019
0.8266278
0.8493403
0.8734519
0.8985628
0.9213539
0.9476389
0.9179133
0.9462866
0.8889365
0.9159423
0.9439095
0.8611396
0.8861485
0.9128805
0.9400818
0.8345265
0.8576837
0.8824436
0.9087645
0.9348074
0.8098949
0.8314395
0.8544145
0.8789371
0.9048592
0.929681
0.7874387
0.8076
0.8290362
0.8518808
0.8762319
0.9017789
0.9255711
0.7670195
0.7859898
0.8061066
0.8274906
0.8502716
0.8744697
0.8997191
0.9228521
0.7484223
0.7663575
0.7853352
0.8054596
0.8268514
0.8495803
0.8736687
0.8988005
0.9216148
0.9482913
0.9190945
0.9477415
0.8907663
0.918
0.9464866
0.8637638
0.8890134
0.916112
0.9442021
0.8377908
0.8612087
0.886298
0.9131278
0.9404583
0.8128301
0.8345878
0.8578147
0.8826562
0.9090766
0.935159
0.7896408
0.8099504
0.8315573
0.8546033
0.8792096
0.9051589
0.9299602
0.7684302
0.7874898
0.8077078
0.8292079
0.8521259
0.8764975
0.9020223
0.9258405
0.7490917
0.7670671
0.7860896
0.8062648
0.827715
0.8505124
0.8746874
0.8999579
0.923115
0.7314387
0.7484669
0.7664508
0.7854824
0.8056675
0.8270731
0.8497788
0.8738838
0.8990363
0.9218737
0.9482913
0.9196304
0.948394
0.891819
0.9191811
0.9479417
0.8654417
0.890843
0.9181698
0.9467807
0.840223
0.8638334
0.8891641
0.9163621
0.9445865
0.8158744
0.8378542
0.8613443
0.8865185
0.913453
0.9408307
0.7923911
0.8128869
0.8347083
0.8580082
0.882936
0.9093855
0.935452
0.7705013
0.7896925
0.8100596
0.8317312
0.8548519
0.8794794
0.9054071
0.9302378
0.7504225
0.7684781
0.7875904
0.8078671
0.829434
0.8523688
0.8767173
0.902264
0.9261079
0.7320718
0.7491363
0.7671606
0.7862373
0.8064734
0.8279374
0.8507117
0.8749035
0.900195
0.9233758
0.7152868
0.7314807
0.7485546
0.7665889
0.7856766
0.8058735
0.8272564
0.8499757
0.8740972
0.8992702
0.923117
0.9476389
0.9196304
0.948394
0.8922975
0.9197169
0.9485943
0.8664079
0.8918955
0.9193505
0.9482362
0.8417789
0.865511
0.8909934
0.9184198
0.947167
0.8181428
0.8402868
0.8639699
0.8893865
0.916691
0.9449667
0.7952432
0.815933
0.8379787
0.8615446
0.8868087
0.9137749
0.9411438
0.7730875
0.7924439
0.8129985
0.8348863
0.858263
0.8832129
0.9096424
0.9357448
0.752376
0.7705497
0.7897943
0.8102209
0.8319602
0.8550981
0.8797029
0.9056539
0.9305139
0.7333303
0.7504674
0.7685722
0.787739
0.8080771
0.829658
0.8525696
0.8769354
0.9025038
0.9263733
0.7158869
0.7321139
0.7492243
0.7672991
0.7864321
0.8066801
0.8281214
0.8509094
0.8751179
0.9004301
0.9246285
0.6999031
0.7153265
0.7315634
0.7486845
0.766771
0.7858691
0.8060439
0.8274383
0.8501711
0.874309
0.9003949
0.9239642
0.9461841
0.9190945
0.9477415
0.8922975
0.9197169
0.9485943
0.8668473
0.8923738
0.9198862
0.9488887
0.8426754
0.866477
0.8920454
0.9196
0.9486227
0.8195943
0.8418424
0.8656471
0.8912152
0.9187486
0.947549
0.7973686
0.8182017
0.840412
0.8641715
0.889679
0.9170165
0.9452863
0.7757693
0.7952978
0.8160482
0.8381627
0.8618083
0.8870962
0.9140448
0.9414596
0.7548152
0.773137
0.7925479
0.8131634
0.8351207
0.8585153
0.8834434
0.909899
0.9360375
0.7351776
0.7524215
0.770645
0.7899447
0.8104335
0.8321873
0.8553022
0.8799251
0.9058993
0.9307884
0.7170796
0.7333727
0.750556
0.7687116
0.7879351
0.8082852
0.8298434
0.8527691
0.877152
0.9027419
0.9276485
0.7004729
0.7159267
0.7321969
0.7493546
0.7674817
0.7866252
0.8068511
0.8283039
0.8511055
0.8753306
0.9015607
0.9254857
0.6852313
0.6999407
0.7154047
0.731686
0.7488559
0.7669517
0.7860284
0.806213
0.8276188
0.850365
0.8753279
0.90116
0.9246017
0.9436087
0.9179133
0.9462866
0.891819
0.9191811
0.9479417
0.8668473
0.8923738
0.9198862
0.9488887
0.8430833
0.8669163
0.8925235
0.9201354
0.9492753
0.8204311
0.8427386
0.8666125
0.8922665
0.9199281
0.949005
0.7987288
0.819653
0.841967
0.865848
0.891507
0.9190739
0.9478695
0.7777677
0.7974233
0.8183175
0.840597
0.864437
0.8899688
0.9172895
0.9456088
0.7573442
0.7758203
0.795405
0.8162186
0.8384051
0.8620697
0.8873372
0.9143164
0.9417782
0.7374839
0.7548616
0.7732343
0.7927017
0.8133808
0.8353531
0.8587253
0.8836735
0.9101552
0.9363301
0.7188302
0.7352204
0.752511
0.7707859
0.7901431
0.8106442
0.8323753
0.855505
0.880146
0.9061432
0.9321092
0.7016054
0.7171197
0.7334562
0.750687
0.7688953
0.7881295
0.8084575
0.8300274
0.852967
0.8773669
0.9038867
0.9285353
0.6857733
0.7005106
0.7160051
0.7323197
0.7495264
0.7676629
0.7867849
0.8070207
0.828485
0.8513001
0.8763539
0.9023324
0.9261338
0.6712212
0.6852669
0.7000148
0.7155206
0.7318477
0.7490259
0.767101
0.7861864
0.8063808
0.8277978
0.8512981
0.8760202
0.9017353
0.925028
0.9395007
0.9158555
0.9437106
0.8907663
0.918
0.9464866
0.8664079
0.8918955
0.9193505
0.9482362
0.8430833
0.8669163
0.8925235
0.9201354
0.9492753
0.8208119
0.8431464
0.8670516
0.8927442
0.920463
0.9496576
0.7995132
0.8204895
0.8428628
0.8668126
0.8925574
0.9202527
0.9493253
0.7790469
0.7987834
0.8197683
0.8421513
0.8661125
0.891796
0.9193463
0.9481922
0.7592287
0.7778189
0.7975311
0.8184887
0.8408407
0.8647
0.8902118
0.9175643
0.9459341
0.7398748
0.7573921
0.7759206
0.7955638
0.8164432
0.8386455
0.8622888
0.8875797
0.9145898
0.9420995
0.7210155
0.7375276
0.754953
0.7733782
0.7929044
0.8135964
0.8355465
0.858935
0.8839032
0.910411
0.9377439
0.7032674
0.7188706
0.7353048
0.7526435
0.7709718
0.7903399
0.8108189
0.8325623
0.8557066
0.8803655
0.9073174
0.9330777
0.6868504
0.7016433
0.7171985
0.7335797
0.7508599
0.7690777
0.7882903
0.8086284
0.8302101
0.8531635
0.8784013
0.9046783
0.929218
0.6717375
0.685809
0.7005848
0.7161213
0.7324819
0.7496969
0.7678127
0.7869434
0.807189
0.8286647
0.852237
0.8770516
0.9029149
0.926569
0.6578278
0.6712551
0.6853373
0.7001246
0.7156736
0.7320082
0.7491665
0.7672493
0.7863431
0.8065472
0.8286599
0.8519317
0.8765407
0.9021198
0.9252415
0.9339027
0.9126269
0.9396004
0.8889365
0.9159423
0.9439095
0.8654417
0.890843
0.9181698
0.9467807
0.8426754
0.866477
0.8920454
0.9196
0.9486227
0.8208119
0.8431464
0.8670516
0.8927442
0.920463
0.9496576
0.7998703
0.8208702
0.8432703
0.8672513
0.8930345
0.9207872
0.9499777
0.7797846
0.7995674
0.8206042
0.8430462
0.8670761
0.8928454
0.9205241
0.9496473
0.7604352
0.7790978
0.7988906
0.8199387
0.842394
0.8663745
0.892038
0.91962
0.9485172
0.7416565
0.7592768
0.7779196
0.7976905
0.8187144
0.8410824
0.8649206
0.8904564
0.9178409
0.9462622
0.7232809
0.7399199
0.7574863
0.7760692
0.7957731
0.816666
0.8388471
0.8625094
0.8878238
0.9148649
0.9436654
0.705342
0.7210568
0.7376137
0.7550883
0.7735682
0.7931055
0.8137758
0.8357395
0.8591443
0.8841326
0.9116473
0.9389354
0.688431
0.7033057
0.7189504
0.7354297
0.7528183
0.7711562
0.7905029
0.8109925
0.8327482
0.8559071
0.8814236
0.908166
0.9338706
0.6727634
0.6868863
0.701718
0.7173154
0.7337428
0.7510314
0.7692285
0.78845
0.8087981
0.8303914
0.8541097
0.8791155
0.9052849
0.9296847
0.6583203
0.6717714
0.6858795
0.7006949
0.7162746
0.7326428
0.7498379
0.7679614
0.7871007
0.8073561
0.82953
0.8528752
0.877578
0.9033055
0.9267877
0.645011
0.6578601
0.6713219
0.6854415
0.7002696
0.7158255
0.732141
0.7493061
0.7673963
0.7864986
0.8073489
0.829245
0.852408
0.8768885
0.9023123
0.9284778
0.9082835
0.933997
0.8860723
0.9127127
0.9397952
0.8637638
0.8890134
0.916112
0.9442021
0.8417789
0.865511
0.8909934
0.9184198
0.947167
0.8204311
0.8427386
0.8666125
0.8922665
0.9199281
0.949005
0.7998703
0.8208702
0.8432703
0.8672513
0.8930345
0.9207872
0.9499777
0.7801206
0.7999244
0.8209847
0.8434533
0.8675142
0.893322
0.9210581
0.9502992
0.7611311
0.7798353
0.7996742
0.8207738
0.8432879
0.8673371
0.8930863
0.9207965
0.949971
0.7427971
0.760483
0.779198
0.7990492
0.8201633
0.8426346
0.866594
0.8922812
0.919895
0.9488443
0.7249689
0.7417017
0.7593713
0.7780687
0.7979007
0.8189382
0.8412851
0.8651427
0.8907026
0.9181193
0.9478608
0.7074925
0.7233234
0.7400086
0.7576258
0.7762652
0.7959808
0.8168529
0.83905
0.8627314
0.8880694
0.9162051
0.9453107
0.6904038
0.7053811
0.7211381
0.7377412
0.7552668
0.7737566
0.7932728
0.8139549
0.8359323
0.8593533
0.8852422
0.9126552
0.9400794
0.6742688
0.6884673
0.7033812
0.7190684
0.7355946
0.7529918
0.771309
0.7906649
0.8111651
0.832933
0.8568735
0.8821864
0.9088509
0.9344491
0.6592988
0.6727976
0.6869572
0.7018287
0.7174696
0.7339047
0.7511733
0.7693782
0.7886085
0.8089666
0.8312648
0.8547624
0.8796624
0.9056976
0.9299225
0.6454814
0.6583526
0.6718385
0.685984
0.7008403
0.7164269
0.7327759
0.7499779
0.7681089
0.7872567
0.8081606
0.8301192
0.8533568
0.877931
0.9035016
0.6327343
0.6450418
0.6579238
0.6714211
0.6855793
0.7004136
0.7159511
0.7322727
0.7494445
0.7675422
0.7872479
0.8078928
0.8296848
0.8527263
0.8770626
0.9241285
0.9040897
0.928568
0.8822258
0.9083659
0.934181
0.8611396
0.8861485
0.9128805
0.9400818
0.840223
0.8638334
0.8891641
0.9163621
0.9445865
0.8195943
0.8418424
0.8656471
0.8912152
0.9187486
0.947549
0.7995132
0.8204895
0.8428628
0.8668126
0.8925574
0.9202527
0.9493253
0.7801206
0.7999244
0.8209847
0.8434533
0.8675142
0.893322
0.9210581
0.9502992
0.761448
0.7801711
0.8000309
0.8211539
0.8436945
0.8677746
0.8935623
0.9213299
0.9506222
0.7434551
0.7611786
0.7799351
0.799832
0.8209974
0.8435274
0.8675554
0.893328
0.9210699
0.9502964
0.7260496
0.742842
0.760577
0.7793464
0.7992584
0.820386
0.8428361
0.8668145
0.8925255
0.9201714
0.9504346
0.7090948
0.7250115
0.7417907
0.7595114
0.7782655
0.7981093
0.819126
0.8414891
0.8653662
0.8909504
0.9194753
0.9495175
0.6924486
0.7075327
0.7234072
0.7401401
0.75781
0.7764597
0.796155
0.817041
0.8392541
0.8629548
0.889267
0.917542
0.9473415
0.6761477
0.6904408
0.7054581
0.7212586
0.7379095
0.755444
0.7739134
0.7934399
0.8141337
0.8361248
0.8603652
0.8861434
0.9135945
0.9410892
0.6607346
0.6743033
0.6885389
0.7034931
0.7192244
0.7357583
0.7531356
0.771461
0.790826
0.8113367
0.8338245
0.8575698
0.8828012
0.909344
0.934762
0.6464158
0.6593313
0.6728649
0.6870623
0.7019749
0.7176228
0.7340386
0.7513142
0.7695269
0.7887658
0.8097783
0.8318671
0.8552622
0.8800344
0.9059072
0.6331839
0.6455122
0.6584165
0.6719379
0.6861221
0.7009847
0.7165528
0.732908
0.7501167
0.7682553
0.7880085
0.8087082
0.8305638
0.8536796
0.8781082
0.6209645
0.6327636
0.6451025
0.6580182
0.6715521
0.6857161
0.7005327
0.7160757
0.7324033
0.7495818
0.7682453
0.787756
0.8083016
0.8299787
0.8528856
0.9211674
0.9007293
0.9242163
0.8785179
0.9041697
0.9287443
0.8576168
0.8822994
0.9085271
0.9344518
0.8377908
0.8612087
0.886298
0.9131278
0.9404583
0.8181428
0.8402868
0.8639699
0.8893865
0.916691
0.9449667
0.7987288
0.819653
0.841967
0.865848
0.891507
0.9190739
0.9478695
0.7797846
0.7995674
0.8206042
0.8430462
0.8670761
0.8928454
0.9205241
0.9496473
0.761448
0.7801711
0.8000309
0.8211539
0.8436945
0.8677746
0.8935623
0.9213299
0.9506222
0.7437548
0.7614954
0.7802706
0.8001884
0.821377
0.8439335
0.8679923
0.8938033
0.9216023
0.9509467
0.7266731
0.7434998
0.7612722
0.7800827
0.8000402
0.8212191
0.8437277
0.8677744
0.8935705
0.9213442
0.9518759
0.7101207
0.726092
0.7429306
0.7607163
0.7795421
0.7994658
0.8205726
0.8430386
0.8670361
0.892771
0.921515
0.9520084
0.6939721
0.7091352
0.7250956
0.7419226
0.7596962
0.7784607
0.7982842
0.819315
0.8416945
0.8655912
0.8921585
0.9208134
0.9514865
0.6780949
0.6924867
0.7076121
0.7235315
0.7403138
0.7579929
0.7766229
0.7963304
0.8172303
0.8394597
0.864045
0.8904565
0.9191317
0.9499103
0.6625264
0.6761828
0.6905139
0.7055723
0.7214177
0.7380766
0.7555914
0.7740699
0.7936068
0.8143123
0.8370572
0.8611865
0.8869811
0.9144019
0.941781
0.6477868
0.6607674
0.6743714
0.6886451
0.7036408
0.7193792
0.7358939
0.7532785
0.771612
0.7909862
0.8121647
0.8344665
0.858131
0.8832433
0.9096079
0.6340773
0.6464468
0.6593955
0.6729649
0.6872011
0.7021201
0.7177495
0.7341716
0.7514541
0.7696744
0.7895241
0.8103379
0.8323283
0.8556021
0.8802232
0.6213948
0.6332134
0.645573
0.6585111
0.6720692
0.6862593
0.7011041
0.7166778
0.733039
0.7502545
0.7689607
0.78852
0.8091213
0.8308618
0.8538416
0.6096717
0.6209926
0.6328216
0.6451926
0.6581431
0.6716823
0.6858292
0.7006509
0.7161993
0.732533
0.7502438
0.768722
0.788138
0.8085747
0.8301258
0.9196817
0.8984401
0.9212538
0.8755509
0.9008078
0.9243879
0.8542213
0.8785896
0.9043261
0.9290036
0.8345265
0.8576837
0.8824436
0.9087645
0.9348074
0.8158744
0.8378542
0.8613443
0.8865185
0.913453
0.9408307
0.7973686
0.8182017
0.840412
0.8641715
0.889679
0.9170165
0.9452863
0.7790469
0.7987834
0.8197683
0.8421513
0.8661125
0.891796
0.9193463
0.9481922
0.7611311
0.7798353
0.7996742
0.8207738
0.8432879
0.8673371
0.8930863
0.9207965
0.949971
0.7437548
0.7614954
0.7802706
0.8001884
0.821377
0.8439335
0.8679923
0.8938033
0.9216023
0.9509467
0.7269571
0.7437994
0.7615888
0.7804179
0.800396
0.8215981
0.8441332
0.8682106
0.894045
0.9218756
0.9525208
0.7107126
0.7267153
0.7435879
0.7614108
0.7802774
0.8002467
0.8214046
0.8439288
0.8679943
0.8938139
0.9226761
0.9533884
0.6949476
0.7101609
0.7261757
0.7430618
0.7609002
0.7797363
0.7996396
0.8207601
0.843242
0.8672587
0.8939659
0.922786
0.9537997
0.6795458
0.6940104
0.7092148
0.7252203
0.7420969
0.7598797
0.7786246
0.7984604
0.8195053
0.8419013
0.8666892
0.8933473
0.9223496
0.953786
0.6643834
0.6781312
0.692562
0.7077298
0.7236956
0.7404862
0.7581463
0.7767871
0.7965069
0.8174208
0.8404633
0.8651282
0.8918674
0.9210883
0.9533071
0.6494977
0.6625599
0.6762523
0.6906222
0.705723
0.7215757
0.7382157
0.7557387
0.7742263
0.7937734
0.8151778
0.837814
0.8619502
0.8876995
0.9149427
0.6353879
0.6478181
0.6608322
0.6744724
0.6887854
0.7037875
0.7195074
0.7360287
0.7534206
0.7717622
0.7917594
0.8127609
0.834984
0.8585345
0.8834797
0.6222497
0.6341068
0.646508
0.6594907
0.6730969
0.687339
0.7022402
0.7178752
0.7343036
0.7515929
0.7703857
0.7900467
0.8107663
0.8326419
0.8557747
0.610084
0.6214229
0.6332715
0.6456633
0.6586363
0.6721997
0.6863727
0.7012226
0.7168018
0.7331691
0.7509185
0.7694405
0.788906
0.8093982
0.8310113
0.5988288
0.6096986
0.621048
0.6329076
0.6453117
0.6582671
0.6717899
0.6859414
0.7007681
0.716322
0.7331578
0.7506924
0.7690803
0.7883931
0.8087115
0.8972904
0.9197674
0.8735316
0.8985177
0.9214227
0.8515042
0.8756214
0.9009613
0.9246403
0.8313796
0.8542865
0.87873
0.9045564
0.9293442
0.8128301
0.8345878
0.8578147
0.8826562
0.9090766
0.935159
0.7952432
0.815933
0.8379787
0.8615446
0.8868087
0.9137749
0.9411438
0.7777677
0.7974233
0.8183175
0.840597
0.864437
0.8899688
0.9172895
0.9456088
0.7604352
0.7790978
0.7988906
0.8199387
0.842394
0.8663745
0.892038
0.91962
0.9485172
0.7434551
0.7611786
0.7799351
0.799832
0.8209974
0.8435274
0.8675554
0.893328
0.9210699
0.9502964
0.7269571
0.7437994
0.7615888
0.7804179
0.800396
0.8215981
0.8441332
0.8682106
0.894045
0.9218756
0.9525208
0.7109822
0.7269992
0.7438873
0.761727
0.7806122
0.800602
0.821783
0.8443336
0.8684296
0.8942873
0.9232017
0.954005
0.6955104
0.7107525
0.7267985
0.7437185
0.7615937
0.7804707
0.8004194
0.8215907
0.8441306
0.8682149
0.8949971
0.9238983
0.9550643
0.6804747
0.6949856
0.71024
0.7262996
0.7432351
0.7610826
0.779899
0.7998143
0.8209485
0.8434465
0.8683435
0.8950942
0.9241842
0.9557977
0.6657668
0.6795821
0.6940859
0.7093328
0.7253849
0.7422698
0.7600337
0.7787895
0.7986378
0.8196969
0.8429111
0.8677705
0.8947104
0.9240973
0.9564218
0.6512707
0.6644178
0.6782027
0.6926737
0.7078852
0.7238585
0.7406308
0.7583007
0.7769525
0.7966846
0.8183518
0.8414612
0.866414
0.8936006
0.9236296
0.9588551
0.6370233
0.6495296
0.662626
0.6763552
0.6907653
0.7058727
0.7217072
0.7383546
0.7558857
0.7743824
0.7945812
0.8158803
0.838518
0.8626051
0.8881799
0.6235039
0.6354177
0.6478799
0.6609284
0.6746058
0.6889247
0.7039091
0.7196349
0.7361628
0.7535618
0.7724872
0.792316
0.8132414
0.8353561
0.8587503
0.6109029
0.622278
0.6341652
0.6465987
0.6596165
0.6732281
0.6874531
0.7023594
0.7180001
0.7344346
0.7522624
0.7708758
0.7904468
0.8110576
0.8328011
0.599224
0.6101109
0.6214785
0.6333577
0.6457827
0.6587606
0.6723076
0.6864852
0.7013401
0.7169248
0.7337959
0.7513701
0.7698025
0.7891647
0.8095372
0.5884107
0.5988545
0.6097516
0.6211302
0.6330214
0.64543
0.6583697
0.6718967
0.6860528
0.7008844
0.7169133
0.7335813
0.7510297
0.7693197
0.7885209
0.8725177
0.8973676
0.919935
0.8496548
0.8736015
0.8986695
0.9216711
0.8288608
0.8515685
0.8757597
0.9011874
0.9249719
0.8098949
0.8314395
0.8544145
0.8789371
0.9048592
0.929681
0.7923911
0.8128869
0.8347083
0.8580082
0.882936
0.9093855
0.935452
0.7757693
0.7952978
0.8160482
0.8381627
0.8618083
0.8870962
0.9140448
0.9414596
0.7592287
0.7778189
0.7975311
0.8184887
0.8408407
0.8647
0.8902118
0.9175643
0.9459341
0.7427971
0.760483
0.779198
0.7990492
0.8201633
0.8426346
0.866594
0.8922812
0.919895
0.9488443
0.7266731
0.7434998
0.7612722
0.7800827
0.8000402
0.8212191
0.8437277
0.8677744
0.8935705
0.9213442
0.9518759
0.7109822
0.7269992
0.7438873
0.761727
0.7806122
0.800602
0.821783
0.8443336
0.8684296
0.8942873
0.9232017
0.954005
0.6957667
0.711022
0.7270822
0.7440175
0.7619095
0.7808049
0.8007742
0.8219685
0.8445345
0.8686492
0.8954648
0.9244015
0.9556296
0.6810106
0.6955482
0.7108313
0.7269218
0.7438909
0.7617753
0.7806323
0.8005928
0.8217775
0.8443331
0.8692883
0.8960816
0.9252075
0.9568925
0.6666526
0.6805108
0.6950607
0.7103573
0.7264633
0.743407
0.7612354
0.7800625
0.7999898
0.8211379
0.8444434
0.8693688
0.8963349
0.9257013
0.9579806
0.6525915
0.6658014
0.6796538
0.6941979
0.7094887
0.7255483
0.7424149
0.7601887
0.7789556
0.7988164
0.8206329
0.8439065
0.8690118
0.8962601
0.9260604
0.9598409
0.638718
0.6513036
0.6644859
0.6783088
0.6928212
0.7080396
0.7239953
0.7407764
0.7584561
0.777119
0.7975532
0.8192783
0.842647
0.8679941
0.8958489
0.9277622
0.9618605
0.6250689
0.6370538
0.6495926
0.662724
0.6764913
0.6909074
0.7059973
0.7218385
0.7384932
0.7560325
0.7751396
0.7952369
0.8165341
0.8391221
0.8630433
0.6121042
0.6235324
0.6354767
0.6479716
0.6610554
0.6747383
0.6890401
0.70403
0.7197617
0.7362961
0.754244
0.773009
0.7927647
0.8135871
0.8355552
0.6000091
0.6109299
0.6223338
0.6342519
0.6467187
0.6597414
0.6733366
0.6875663
0.7024778
0.718124
0.7350665
0.7527235
0.771251
0.7907189
0.8112056
0.5887899
0.5992498
0.610164
0.6215609
0.6334717
0.6459013
0.6588634
0.6724146
0.6865969
0.7014568
0.7175179
0.7342221
0.7517108
0.7700451
0.7892945
0.5783942
0.5884353
0.5989053
0.6098303
0.621239
0.6331344
0.6455279
0.6584714
0.6720027
0.6861633
0.7014451
0.717314
0.7338997
0.751255
0.7694395
0.8487259
0.8725873
0.8975186
0.9201816
0.8271461
0.8497186
0.8737385
0.8988932
0.9219975
0.8075451
0.82892
0.8516946
0.8759636
0.9014847
0.9252998
0.7896408
0.8099504
0.8315573
0.8546033
0.8792096
0.9051589
0.9299602
0.7730875
0.7924439
0.8129985
0.8348863
0.858263
0.8832129
0.9096424
0.9357448
0.7573442
0.7758203
0.795405
0.8162186
0.8384051
0.8620697
0.8873372
0.9143164
0.9417782
0.7416565
0.7592768
0.7779196
0.7976905
0.8187144
0.8410824
0.8649206
0.8904564
0.9178409
0.9462622
0.7260496
0.742842
0.760577
0.7793464
0.7992584
0.820386
0.8428361
0.8668145
0.8925255
0.9201714
0.9504346
0.7107126
0.7267153
0.7435879
0.7614108
0.7802774
0.8002467
0.8214046
0.8439288
0.8679943
0.8938139
0.9226761
0.9533884
0.6957667
0.711022
0.7270822
0.7440175
0.7619095
0.7808049
0.8007742
0.8219685
0.8445345
0.8686492
0.8954648
0.9244015
0.9556296
0.6812547
0.6958045
0.7111006
0.7272052
0.7441894
0.7620906
0.780966
0.8009469
0.8221545
0.8447361
0.8697171
0.8965291
0.9256714
0.9573859
0.6671636
0.6810465
0.6956229
0.710948
0.7270846
0.7440619
0.7619271
0.7807946
0.8007668
0.821965
0.8453191
0.8702731
0.8972435
0.9265952
0.9588568
0.6534372
0.666687
0.6805821
0.695172
0.7105124
0.7266258
0.7435511
0.7613891
0.7802268
0.8001663
0.8220614
0.8453864
0.8704977
0.8976811
0.9273201
0.9607095
0.6399805
0.6526245
0.6658697
0.6797602
0.6943458
0.7096435
0.7256855
0.7425611
0.7603448
0.7791228
0.7996891
0.8215564
0.8450504
0.870424
0.8980001
0.9285695
0.9622771
0.6266904
0.6387494
0.6513684
0.6645869
0.6784491
0.6929678
0.7081691
0.7241329
0.740923
0.7586127
0.7779328
0.798418
0.82038
0.8441052
0.8700444
0.8995084
0.930144
0.9640917
0.6136031
0.6250979
0.6371139
0.6496861
0.6628536
0.6766265
0.6910257
0.7061218
0.7219697
0.7386317
0.7567447
0.7757543
0.7958474
0.8170953
0.8395264
0.6011608
0.6121315
0.6235888
0.6355642
0.6480927
0.6611817
0.6748481
0.6891549
0.7041501
0.7198878
0.7369398
0.7547349
0.7734297
0.7930875
0.8137721
0.5895432
0.600035
0.6109833
0.6224166
0.6343665
0.6468379
0.6598448
0.6734443
0.6876787
0.7025953
0.7187218
0.7355016
0.7530766
0.7715062
0.790857
0.5787583
0.5888146
0.5993007
0.6102429
0.6216699
0.633585
0.6459994
0.6589654
0.6725209
0.6867076
0.7020192
0.7179212
0.7345436
0.7519391
0.7701669
0.5687576
0.5784178
0.588484
0.5989807
0.6099344
0.6213471
0.6332279
0.645625
0.6585724
0.6721078
0.686696
0.7018251
0.7176152
0.7341123
0.7513678
0.8262845
0.8487894
0.8727237
0.8977412
0.9205055
0.8059451
0.8272049
0.8498437
0.8739406
0.8991873
0.9223202
0.7874387
0.8076
0.8290362
0.8518808
0.8762319
0.9017789
0.9255711
0.7705013
0.7896925
0.8100596
0.8317312
0.8548519
0.8794794
0.9054071
0.9302378
0.7548152
0.773137
0.7925479
0.8131634
0.8351207
0.8585153
0.8834434
0.909899
0.9360375
0.7398748
0.7573921
0.7759206
0.7955638
0.8164432
0.8386455
0.8622888
0.8875797
0.9145898
0.9420995
0.7249689
0.7417017
0.7593713
0.7780687
0.7979007
0.8189382
0.8412851
0.8651427
0.8907026
0.9181193
0.9478608
0.7101207
0.726092
0.7429306
0.7607163
0.7795421
0.7994658
0.8205726
0.8430386
0.8670361
0.892771
0.921515
0.9520084
0.6955104
0.7107525
0.7267985
0.7437185
0.7615937
0.7804707
0.8004194
0.8215907
0.8441306
0.8682149
0.8949971
0.9238983
0.9550643
0.6812547
0.6958045
0.7111006
0.7272052
0.7441894
0.7620906
0.780966
0.8009469
0.8221545
0.8447361
0.8697171
0.8965291
0.9256714
0.9573859
0.6673964
0.6812906
0.695879
0.711217
0.7273676
0.7443601
0.7622419
0.7811277
0.8011201
0.822341
0.8457168
0.8706834
0.8976562
0.9270045
0.9592615
0.6539251
0.6671978
0.6811175
0.6957337
0.7111022
0.7272463
0.7442051
0.7620796
0.7809574
0.8009414
0.8228782
0.8462246
0.8713298
0.8984756
0.9280488
0.9612946
0.6407887
0.6534699
0.6667548
0.6806879
0.6953191
0.7106663
0.7267619
0.7436959
0.7615435
0.7803919
0.8010271
0.8229359
0.8464262
0.8717238
0.899118
0.9293038
0.9627624
0.6278984
0.6400119
0.6526895
0.665971
0.6799009
0.6944928
0.7097735
0.7258236
0.7427082
0.7605019
0.7799403
0.8005508
0.8226188
0.8463531
0.8720107
0.9002262
0.9305202
0.9642956
0.6151562
0.6267204
0.6388113
0.6514647
0.6647205
0.6785885
0.6930907
0.7082996
0.7242715
0.7410706
0.759378
0.7787436
0.7994472
0.8217356
0.8459981
0.8733851
0.9016182
0.9320334
0.9658146
0.6025977
0.6136309
0.6251554
0.6372031
0.6498096
0.6629823
0.676739
0.6911439
0.706246
0.7221006
0.7393036
0.757323
0.7763268
0.7963716
0.8174712
0.5906481
0.6011869
0.6121854
0.6236724
0.6356799
0.6482131
0.6612863
0.6749572
0.689269
0.7042696
0.7204967
0.737403
0.7551308
0.7737325
0.7932603
0.5794816
0.589568
0.6000861
0.6110626
0.6225262
0.6344803
0.6469366
0.6599475
0.6735513
0.6877903
0.703162
0.7191335
0.7358348
0.7533168
0.7716358
0.5691075
0.578782
0.5888633
0.5993762
0.6103472
0.6217782
0.6336787
0.6460967
0.6590666
0.6726263
0.6872419
0.7024015
0.7182254
0.7347592
0.7520537
0.5594811
0.5687802
0.5784645
0.5885562
0.5990804
0.6100379
0.6214365
0.6333207
0.6457213
0.6586725
0.6726147
0.6870568
0.7021106
0.7178164
0.7342188
0.8051409
0.8263431
0.8489141
0.8729249
0.8980338
0.9208259
0.785939
0.8059996
0.8273202
0.8500284
0.8742065
0.8994784
0.9225872
0.7684302
0.7874898
0.8077078
0.8292079
0.8521259
0.8764975
0.9020223
0.9258405
0.752376
0.7705497
0.7897943
0.8102209
0.8319602
0.8550981
0.8797029
0.9056539
0.9305139
0.7374839
0.7548616
0.7732343
0.7927017
0.8133808
0.8353531
0.8587253
0.8836735
0.9101552
0.9363301
0.7232809
0.7399199
0.7574863
0.7760692
0.7957731
0.816666
0.8388471
0.8625094
0.8878238
0.9148649
0.9436654
0.7090948
0.7250115
0.7417907
0.7595114
0.7782655
0.7981093
0.819126
0.8414891
0.8653662
0.8909504
0.9194753
0.9495175
0.6949476
0.7101609
0.7261757
0.7430618
0.7609002
0.7797363
0.7996396
0.8207601
0.843242
0.8672587
0.8939659
0.922786
0.9537997
0.6810106
0.6955482
0.7108313
0.7269218
0.7438909
0.7617753
0.7806323
0.8005928
0.8217775
0.8443331
0.8692883
0.8960816
0.9252075
0.9568925
0.6673964
0.6812906
0.695879
0.711217
0.7273676
0.7443601
0.7622419
0.7811277
0.8011201
0.822341
0.8457168
0.8706834
0.8976562
0.9270045
0.9592615
0.6541473
0.6674305
0.6813613
0.6959894
0.7113708
0.7275288
0.7445027
0.7623938
0.7812898
0.8012939
0.8232493
0.846605
0.8717081
0.8988402
0.9283913
0.9615845
0.641255
0.6539576
0.6672653
0.6812227
0.69588
0.7112554
0.7273816
0.7443487
0.7622326
0.7811209
0.8017924
0.8237175
0.8471973
0.8724517
0.8997672
0.9298125
0.9631383
0.6286717
0.64082
0.6535346
0.6668555
0.6808277
0.6954652
0.7107952
0.7268988
0.7438414
0.7616987
0.781198
0.8018427
0.8239009
0.8475565
0.8730339
0.9008812
0.9309661
0.9645702
0.6163131
0.6279284
0.640074
0.6527861
0.6661049
0.6800406
0.6946161
0.7099043
0.7259627
0.7428564
0.7612704
0.7807479
0.8015428
0.8238293
0.8478175
0.8740425
0.9019589
0.9322504
0.9659305
0.6040865
0.6151848
0.6267795
0.6389032
0.6515921
0.6648532
0.6787054
0.6932146
0.7084309
0.724411
0.7417925
0.7601408
0.7797091
0.8007141
0.823496
0.8490848
0.8753088
0.9032969
0.9335763
0.9671579
0.5920267
0.6026243
0.6136859
0.6252407
0.6373211
0.6499324
0.6630895
0.6768514
0.6912619
0.7063701
0.722736
0.7398492
0.7578617
0.7768185
0.7967228
0.5805424
0.5906731
0.6012385
0.6122654
0.6237831
0.6357949
0.6483129
0.6613903
0.6750658
0.6893825
0.7048468
0.7209348
0.7377765
0.7554157
0.7738945
0.5698024
0.5795053
0.589617
0.600162
0.6111674
0.6226351
0.6345746
0.6470345
0.6600493
0.6736574
0.6883287
0.7035523
0.7194487
0.7360615
0.7534387
0.5598175
0.5691302
0.5788287
0.5889358
0.5994762
0.6104509
0.6218678
0.6337716
0.6461933
0.6591671
0.6731346
0.687605
0.7026899
0.7184293
0.7348673
0.5505461
0.5595029
0.568825
0.5785338
0.5886519
0.5991796
0.6101235
0.6215252
0.6334127
0.6458169
0.6591555
0.672958
0.6873281
0.7023014
0.7179171
0.785185
0.8051952
0.826458
0.8490981
0.8731897
0.8983233
0.9210909
0.7670195
0.7859898
0.8061066
0.8274906
0.8502716
0.8744697
0.8997191
0.9228521
0.7504225
0.7684781
0.7875904
0.8078671
0.829434
0.8523688
0.8767173
0.902264
0.9261079
0.7351776
0.7524215
0.770645
0.7899447
0.8104335
0.8321873
0.8553022
0.8799251
0.9058993
0.9307884
0.7210155
0.7375276
0.754953
0.7733782
0.7929044
0.8135964
0.8355465
0.858935
0.8839032
0.910411
0.9377439
0.7074925
0.7233234
0.7400086
0.7576258
0.7762652
0.7959808
0.8168529
0.83905
0.8627314
0.8880694
0.9162051
0.9453107
0.6939721
0.7091352
0.7250956
0.7419226
0.7596962
0.7784607
0.7982842
0.819315
0.8416945
0.8655912
0.8921585
0.9208134
0.9514865
0.6804747
0.6949856
0.71024
0.7262996
0.7432351
0.7610826
0.779899
0.7998143
0.8209485
0.8434465
0.8683435
0.8950942
0.9241842
0.9557977
0.6671636
0.6810465
0.6956229
0.710948
0.7270846
0.7440619
0.7619271
0.7807946
0.8007668
0.821965
0.8453191
0.8702731
0.8972435
0.9265952
0.9588568
0.6541473
0.6674305
0.6813613
0.6959894
0.7113708
0.7275288
0.7445027
0.7623938
0.7812898
0.8012939
0.8232493
0.846605
0.8717081
0.8988402
0.9283913
0.9615845
0.6414675
0.6541798
0.6674979
0.6814663
0.6961354
0.7115235
0.7276636
0.7446458
0.7625461
0.7814524
0.8021402
0.8240724
0.8475481
0.872786
0.9000731
0.9300689
0.9633372
0.6291178
0.6412861
0.654022
0.6673655
0.6813618
0.6960253
0.7113835
0.7275173
0.744493
0.7623862
0.7819176
0.802575
0.8246201
0.8482313
0.8736291
0.9013369
0.9313181
0.9648038
0.6170536
0.6287015
0.6408817
0.6536306
0.6669886
0.6809666
0.6955876
0.7109249
0.7270363
0.7439877
0.7624563
0.7819622
0.8027435
0.8249509
0.8487652
0.8746432
0.902363
0.9325394
0.9660959
0.6051953
0.6163418
0.6279877
0.6401662
0.6529138
0.6662379
0.6801579
0.6947403
0.7100361
0.7261028
0.7435811
0.7620301
0.7816782
0.8026739
0.8251909
0.849694
0.8756237
0.9034997
0.9337284
0.9672343
0.5934549
0.6041139
0.6152414
0.6268674
0.6390248
0.6517187
0.6649646
0.6788231
0.6933392
0.7085631
0.7250937
0.7425123
0.7610496
0.7808981
0.8023599
0.8263684
0.8508608
0.8768396
0.9046707
0.9348309
0.9681939
0.581866
0.5920522
0.6026769
0.6137675
0.6253534
0.6374384
0.6500346
0.6631965
0.6769636
0.6913797
0.7069724
0.723252
0.7403575
0.7583245
0.777148
0.5708217
0.5805664
0.5907226
0.6013152
0.6123713
0.623893
0.6358902
0.6484121
0.6614937
0.6751737
0.6899306
0.7052621
0.7212882
0.7380453
0.7555682
0.5604856