/*--------------------------------*- C++ -*----------------------------------*\
| =========                 |                                                 |
| \\      /  F ield         | OpenFOAM: The Open Source CFD Toolbox           |
|  \\    /   O peration     | Version:  2306                                  |
|   \\  /    A nd           | Website:  www.openfoam.com                      |
|    \\/     M anipulation  |                                                 |
\*---------------------------------------------------------------------------*/
FoamFile
{
    version     2.0;
    format      ascii;
    arch        "LSB;label=32;scalar=64";
    class       volScalarField;
    location    "0.3/fuel";
    object      X.H2O;
}
// * * * * * * * * * * * * * * * * * * * * * * * * * * * * * * * * * * * * * //

dimensions      [0 0 0 0 0 0 0];

internalField   nonuniform List<scalar> 
16000
(
0.08031832
0.07883255
0.1027096
0.08023259
0.07587151
0.1015599
0.07874615
0.1274823
0.1026324
0.08006503
0.07152224
0.09927068
0.07578368
0.1264684
0.1014823
0.07857732
0.1512741
0.1274127
0.1024814
0.07981844
0.06609729
0.09591027
0.07143198
0.1244491
0.09919222
0.07561211
0.1503452
0.1263985
0.1013305
0.07832889
0.1737155
0.1512106
0.1272763
0.1022588
0.0794945
0.06049931
0.09171645
0.06600304
0.1214821
0.09583034
0.07125569
0.1484958
0.1243786
0.0990387
0.07535968
0.1728539
0.1502814
0.1262615
0.1011068
0.07800254
0.1948591
0.1736569
0.1510859
0.1270751
0.1019662
0.07917409
0.05639132
0.08737308
0.06039959
0.1177742
0.09163408
0.06581897
0.1457787
0.1214104
0.09567394
0.07099636
0.1711392
0.1484315
0.1242403
0.09881256
0.07502812
0.1940549
0.1727951
0.1501563
0.1260594
0.1008127
0.07767975
0.214815
0.1948048
0.173542
0.1509019
0.1268103
0.1016767
0.07890909
0.05381588
0.0841445
0.05628944
0.1139277
0.08728733
0.06020481
0.1423832
0.1177006
0.0914729
0.06554822
0.1686204
0.1457135
0.12127
0.09544359
0.07065579
0.1924549
0.17108
0.1483054
0.1240364
0.09851526
0.07470021
0.214061
0.1940004
0.1726798
0.1499716
0.1257935
0.1005216
0.0774128
0.2336899
0.2147644
0.1946981
0.1733722
0.1506597
0.1265481
0.1014372
0.07864614
0.05236113
0.08208672
0.0537134
0.1110635
0.08405774
0.0560905
0.1388604
0.1138515
0.0871195
0.05991823
0.1654735
0.1423163
0.1175564
0.09123549
0.06519265
0.1901051
0.1685605
0.1455855
0.1210629
0.09514078
0.07031898
0.2125613
0.1924
0.1709638
0.1481192
0.1237681
0.09822107
0.07442889
0.2329805
0.2140102
0.1938934
0.1725094
0.1497284
0.1255303
0.1002809
0.07714788
0.2515777
0.2336425
0.2146648
0.1945404
0.1731486
0.1504197
0.1263313
0.1011995
0.07838522
0.0517087
0.08090554
0.05225851
0.1092337
0.08199995
0.05351338
0.1362362
0.1109866
0.08388797
0.05579788
0.1622092
0.1387913
0.113702
0.0868722
0.05954174
0.1871699
0.1654122
0.1421853
0.1173438
0.09092339
0.06484098
0.2103592
0.1900496
0.1684427
0.1453967
0.1207904
0.09484114
0.07003983
0.2315698
0.2125102
0.1922922
0.1707921
0.1478741
0.1235025
0.09797767
0.07415952
0.2509083
0.2329329
0.2139104
0.1937352
0.172285
0.1494876
0.1253126
0.1000421
0.076885
0.2685613
0.2515331
0.2335492
0.2145176
0.1943325
0.1729269
0.1502212
0.1261162
0.1009637
0.07812633
0.0517087
0.08036957
0.05160604
0.108181
0.08081893
0.05205825
0.1345583
0.109157
0.0818302
0.05321926
0.159777
0.1361666
0.1108359
0.08363786
0.05541353
0.1841256
0.1621458
0.1386557
0.1134815
0.08654702
0.05916928
0.2076089
0.1871131
0.1652917
0.1419918
0.117064
0.09061455
0.06454803
0.2294987
0.2103075
0.1899404
0.1682688
0.1451481
0.1205206
0.09459288
0.0697622
0.2495775
0.2315219
0.2124096
0.1921329
0.170566
0.1476312
0.1232827
0.09773604
0.07389212
0.2679282
0.2508637
0.2328394
0.2137627
0.1935266
0.1720626
0.1492883
0.1250965
0.09980504
0.07662417
0.2847132
0.2685193
0.2514454
0.2334111
0.2143234
0.1941265
0.1727436
0.1500243
0.1259028
0.1007298
0.07688297
0.05236113
0.08036957
0.05160604
0.1077025
0.08028305
0.05140573
0.1335921
0.1081045
0.0806495
0.05176385
0.1582211
0.134489
0.1090066
0.08158016
0.05283303
0.1818572
0.1597132
0.1360301
0.1106135
0.08330901
0.05503334
0.2047568
0.184067
0.1620213
0.1384554
0.1131913
0.08622514
0.05885619
0.2269125
0.2075561
0.1870015
0.1651137
0.141737
0.1167871
0.09035756
0.0642552
0.247624
0.2294503
0.2102057
0.1897791
0.1680398
0.1449019
0.1202971
0.09434608
0.0694861
0.2666697
0.2495326
0.2314278
0.212261
0.1919229
0.170342
0.1474304
0.1230646
0.09749619
0.07362667
0.2841131
0.2678861
0.2507757
0.2327009
0.2135679
0.1933199
0.1718786
0.1490906
0.1248821
0.09956986
0.0753715
0.3000969
0.2846735
0.2684366
0.2513155
0.233229
0.2141309
0.1939561
0.1725617
0.1498289
0.125691
0.09960506
0.07603582
0.05381588
0.08090554
0.05225851
0.1077025
0.08028305
0.05140573
0.1331527
0.1076262
0.08011382
0.05111129
0.1573246
0.133523
0.1079546
0.08039996
0.0513773
0.1804057
0.1581576
0.1343529
0.1087848
0.08125144
0.05245103
0.2026314
0.1817983
0.159588
0.1358285
0.110321
0.08298351
0.05471368
0.2242307
0.2047022
0.1839518
0.1618373
0.1381917
0.1129038
0.08595521
0.05854038
0.2451848
0.226863
0.2074521
0.1868366
0.1648793
0.1414847
0.1165566
0.09010098
0.0639625
0.2648224
0.2475785
0.229355
0.2100553
0.1895665
0.1678127
0.1446978
0.1200749
0.09410073
0.06921156
0.2829204
0.2666273
0.249444
0.2312884
0.2120649
0.1917148
0.1701566
0.1472309
0.122848
0.09725811
0.07235152
0.2995271
0.2840733
0.2678031
0.2506454
0.2325183
0.2133748
0.1931489
0.1716961
0.1488945
0.1246694
0.09843929
0.07451432
0.3147687
0.3000593
0.2845953
0.268314
0.2511441
0.2330483
0.2139716
0.193787
0.1723812
0.149635
0.1246721
0.09884001
0.0753983
0.05639132
0.08208672
0.0537134
0.108181
0.08081893
0.05205825
0.1331527
0.1076262
0.08011382
0.05111129
0.1569167
0.1330837
0.1074765
0.07986459
0.05072471
0.1795689
0.1572614
0.1333875
0.1077335
0.08007194
0.05099501
0.2012712
0.180347
0.158033
0.134152
0.108493
0.08092613
0.05213048
0.2222323
0.2025767
0.1816825
0.159403
0.135563
0.1100312
0.08271049
0.05439121
0.2426558
0.2241797
0.204595
0.1837814
0.1615949
0.1379303
0.1126628
0.08568356
0.05822183
0.2625161
0.2451384
0.2267657
0.2072983
0.1866192
0.1646469
0.1412747
0.1163265
0.08984481
0.06366994
0.2811698
0.2647796
0.247489
0.2292141
0.2098569
0.1893558
0.1676247
0.144495
0.119854
0.09385684
0.06789082
0.2983946
0.2828803
0.2665438
0.249313
0.2311047
0.2118705
0.1915425
0.1699726
0.147033
0.1226331
0.09611332
0.07146474
0.3142267
0.2994894
0.2839949
0.2676803
0.2504736
0.2323371
0.2132151
0.1929793
0.171515
0.1486999
0.1236461
0.09766763
0.07386624
0.3287788
0.3147331
0.2999852
0.2844794
0.2681523
0.2509741
0.232899
0.2138136
0.1936192
0.1722022
0.1487019
0.1239798
0.09826467
0.07497204
0.06049931
0.0841445
0.05628944
0.1092337
0.08199995
0.05351338
0.1335921
0.1081045
0.0806495
0.05176385
0.1569167
0.1330837
0.1074765
0.07986459
0.05072471
0.1791881
0.1568536
0.1329484
0.1072558
0.07953698
0.05034241
0.2004868
0.1795105
0.1571372
0.1331874
0.1074426
0.07974734
0.05067472
0.2209531
0.2012166
0.1802317
0.1578487
0.1338875
0.108204
0.08065372
0.05180775
0.2407713
0.2221811
0.2024689
0.1815113
0.1591593
0.1353
0.1097882
0.08243567
0.0540659
0.2601252
0.2426079
0.2240794
0.2044362
0.1835568
0.1613545
0.1377112
0.1124203
0.08541018
0.05790052
0.2789845
0.2624724
0.245047
0.2266218
0.2070956
0.1864036
0.1644535
0.141065
0.1160968
0.08958905
0.06225611
0.2967326
0.2811294
0.2646952
0.2473565
0.2290282
0.2096601
0.1891811
0.1674377
0.1442934
0.1196345
0.09268261
0.06692226
0.3131496
0.2983567
0.2828015
0.2664203
0.2491401
0.2309223
0.2117097
0.1913716
0.1697899
0.1468365
0.1215987
0.09532167
0.07078203
0.3282625
0.314191
0.2994152
0.2838787
0.2675181
0.2503031
0.2321873
0.2130566
0.192811
0.1713353
0.147763
0.1229484
0.09708514
0.07343103
0.3421722
0.3287449
0.3146627
0.2998754
0.2843264
0.2679918
0.2508335
0.2327507
0.2136569
0.1934528
0.1713401
0.1480683
0.1234593
0.09788022
0.07475851
0.0660973
0.08737308
0.06039959
0.1110635
0.08405774
0.0560905
0.1345583
0.109157
0.0818302
0.05321926
0.1573246
0.133523
0.1079546
0.08039996
0.0513773
0.1791881
0.1568536
0.1329484
0.1072558
0.07953698
0.05034241
0.2001297
0.1791298
0.1567297
0.1327487
0.1069655
0.0792128
0.05002233
0.2202154
0.2004326
0.1793958
0.1569538
0.1329239
0.1071546
0.07947588
0.05035273
0.2395648
0.2209022
0.2011094
0.1800613
0.157606
0.1336255
0.107962
0.08037999
0.05148283
0.2583435
0.2407232
0.2220804
0.2023095
0.1812856
0.1589176
0.1350794
0.1095436
0.08215907
0.05373777
0.2767191
0.2600801
0.2425137
0.2239308
0.2042269
0.183334
0.1611529
0.1374906
0.1121762
0.08513506
0.05633464
0.294658
0.2789432
0.2623863
0.2449117
0.2264318
0.2068945
0.1862242
0.1642605
0.1408557
0.1158674
0.08835267
0.06106456
0.311569
0.2966943
0.2810496
0.2645703
0.2471817
0.2288438
0.2094971
0.1890075
0.1672518
0.1440929
0.1185764
0.09183399
0.06612945
0.3272366
0.3131137
0.298282
0.2826846
0.2662572
0.2489686
0.2307715
0.21155
0.1912019
0.1696086
0.1458903
0.1208845
0.09471514
0.07031533
0.3416797
0.3282286
0.3141205
0.2993051
0.2837254
0.2673572
0.2501621
0.2320386
0.2128993
0.1926439
0.17047
0.1471248
0.122422
0.09669453
0.07321231
0.354989
0.3421399
0.3286781
0.3145585
0.2997304
0.2841745
0.267859
0.2506939
0.2326037
0.2135014
0.1926511
0.170755
0.147592
0.1231115
0.09768771
0.07152224
0.09171645
0.06600304
0.1139277
0.08728733
0.06020481
0.1362362
0.1109866
0.08388797
0.05579788
0.1582211
0.134489
0.1090066
0.08158016
0.05283303
0.1795689
0.1572614
0.1333875
0.1077335
0.08007194
0.05099501
0.2001297
0.1791298
0.1567297
0.1327487
0.1069655
0.0792128
0.05002233
0.2198794
0.2000756
0.1790153
0.1565467
0.1324858
0.106678
0.07894185
0.04970079
0.2388689
0.2201647
0.2003258
0.1792262
0.1567121
0.1326629
0.1069137
0.07920348
0.05002903
0.2572029
0.239517
0.220802
0.2009508
0.1798367
0.1573654
0.133406
0.1077188
0.08010496
0.05115572
0.2750311
0.2582983
0.2406287
0.2219313
0.2020993
0.1810618
0.1587149
0.1348573
0.1092974
0.08188068
0.05213923
0.2925075
0.2766766
0.2599914
0.2423742
0.2237348
0.2040192
0.1831471
0.16095
0.1372686
0.1119306
0.08379487
0.05468932
0.3095962
0.2946189
0.2788619
0.2622588
0.2447332
0.2262434
0.2067272
0.1860451
0.1640677
0.1406467
0.1147578
0.08734478
0.05992065
0.3257312
0.3115327
0.2966188
0.2809316
0.2644054
0.2470082
0.228691
0.2093351
0.1888349
0.167067
0.1431265
0.1178136
0.0911491
0.06555087
0.3407012
0.3272024
0.3130428
0.2981713
0.2825304
0.2660953
0.2488267
0.2306218
0.2113915
0.1910334
0.1687352
0.1452376
0.1203376
0.09430239
0.07007751
0.3545186
0.3416474
0.3281615
0.314016
0.2991597
0.2835731
0.2672241
0.2500221
0.2318911
0.2127433
0.1918394
0.1698808
0.1466432
0.122069
0.09649842
0.3672657
0.3549582
0.3420762
0.3285789
0.3144207
0.2995864
0.2840489
0.2677273
0.2505555
0.2324578
0.2127521
0.1921072
0.1703152
0.1472737
0.1229374
0.07587151
0.09591027
0.07143198
0.1177742
0.09163408
0.06581897
0.1388604
0.1138515
0.08711949
0.05991823
0.159777
0.1361666
0.1108359
0.08363786
0.05541353
0.1804057
0.1581576
0.1343529
0.1087848
0.08125144
0.05245103
0.2004868
0.1795105
0.1571372
0.1331874
0.1074426
0.07974734
0.05067472
0.2198794
0.2000756
0.1790153
0.1565467
0.1324858
0.106678
0.07894185
0.04970079
0.238552
0.2198289
0.1999691
0.1788461
0.1563055
0.1322254
0.1064377
0.07867014
0.04937777
0.2565449
0.2388214
0.2200649
0.200168
0.1790026
0.1564726
0.1324446
0.106672
0.07893013
0.04970364
0.2739504
0.257158
0.239423
0.2206536
0.2007416
0.179614
0.1571639
0.1331855
0.1074745
0.07982861
0.04956543
0.2909052
0.2749885
0.2582093
0.2404886
0.2217345
0.2018907
0.180874
0.1585109
0.1346338
0.1090496
0.08052473
0.05048247
0.3075514
0.2924673
0.2765928
0.2598599
0.24219
0.2235403
0.203845
0.182959
0.1607459
0.1370452
0.110733
0.082458
0.05265853
0.3238523
0.3095592
0.2945419
0.2787414
0.2620905
0.244556
0.2260866
0.2065601
0.1858663
0.1638752
0.1396348
0.1138566
0.08640547
0.05891085
0.3392654
0.3256967
0.3114611
0.2965069
0.2807756
0.2642417
0.2468644
0.228539
0.209174
0.1886633
0.1661755
0.1424302
0.1171988
0.09065597
0.06523796
0.3535842
0.3406687
0.3271351
0.3129377
0.2980251
0.2823772
0.2659614
0.2486858
0.2304731
0.2112342
0.1902217
0.1681329
0.1447378
0.1199656
0.09409276
0.3668161
0.3544878
0.3415835
0.3280621
0.3138779
0.2990153
0.2834472
0.267092
0.2498833
0.2317447
0.2119915
0.1912918
0.1694362
0.1463204
0.1218918
0.3790355
0.3672364
0.3548975
0.3419818
0.3284479
0.3142839
0.2994673
0.2839243
0.2675967
0.2504182
0.2317547
0.212244
0.1916984
0.1700213
0.1471144
0.07883255
0.09927068
0.07578368
0.1214821
0.09583034
0.07125569
0.1423832
0.1177006
0.0914729
0.06554822
0.1622092
0.1387913
0.113702
0.0868722
0.05954175
0.1818572
0.1597132
0.1360301
0.1106135
0.08330901
0.05503334
0.2012712
0.180347
0.158033
0.134152
0.108493
0.08092613
0.05213048
0.2202154
0.2004326
0.1793958
0.1569538
0.1329239
0.1071546
0.07947588
0.05035273
0.238552
0.2198289
0.1999691
0.1788461
0.1563055
0.1322254
0.1064377
0.07867014
0.04937777
0.2562452
0.2385046
0.2197294
0.1998116
0.178623
0.1560665
0.1320077
0.1061967
0.07839765
0.04905329
0.2733269
0.2565002
0.2387278
0.2199173
0.1999598
0.1787809
0.1562723
0.1322256
0.1064295
0.07865584
0.04812407
0.2898793
0.273908
0.2570694
0.2392837
0.2204579
0.2005342
0.1794274
0.1569614
0.1329639
0.107229
0.07848499
0.04799159
0.3060279
0.2908648
0.2749044
0.2580774
0.2403038
0.2215393
0.2017158
0.180685
0.1583055
0.1344088
0.1078415
0.07918661
0.04851349
0.3219051
0.3075133
0.2923879
0.2764685
0.2596862
0.2420071
0.2233771
0.2036696
0.1827697
0.1605403
0.135955
0.1095435
0.08086831
0.05008968
0.3374736
0.3238172
0.3094861
0.2944277
0.2785823
0.2619234
0.2444086
0.2259301
0.2063932
0.1856877
0.1629428
0.1388135
0.1130189
0.08559811
0.05821903
0.3522132
0.3392326
0.3256286
0.3113549
0.2963592
0.2806208
0.2641061
0.2467215
0.228388
0.2090138
0.1878353
0.1655335
0.141869
0.1167567
0.09039208
0.3659227
0.3535532
0.3406045
0.3270351
0.3127989
0.2978799
0.2822505
0.2658284
0.2485459
0.2303256
0.2104759
0.1896621
0.1676717
0.1443979
0.1197768
0.3786052
0.3667866
0.354427
0.3414889
0.3279308
0.3137407
0.2988959
0.2833222
0.266961
0.2497455
0.2310393
0.21148
0.1908787
0.1691382
0.1461584
0.3903283
0.3790074
0.3671784
0.3548074
0.3418569
0.3283177
0.3141708
0.2993491
0.2838007
0.267467
0.2497562
0.231278
0.211862
0.1914253
0.1698742
0.08031832
0.1015599
0.07874615
0.1244491
0.09919222
0.07561211
0.1457787
0.1214104
0.09567394
0.07099636
0.1654735
0.1423163
0.1175564
0.09123549
0.06519265
0.1841256
0.1621458
0.1386557
0.1134815
0.08654702
0.05916928
0.2026314
0.1817983
0.159588
0.1358285
0.110321
0.08298351
0.05471368
0.2209531
0.2012166
0.1802317
0.1578487
0.1338875
0.108204
0.08065372
0.05180775
0.2388689
0.2201647
0.2003258
0.1792262
0.1567121
0.1326629
0.1069137
0.07920348
0.05002903
0.2562452
0.2385046
0.2197294
0.1998116
0.178623
0.1560665
0.1320077
0.1061967
0.07839765
0.04905329
0.2730429
0.2562006
0.2384112
0.2195821
0.199604
0.1784019
0.1558668
0.1317894
0.105955
0.0781244
0.04747923
0.2892874
0.2732847
0.2564121
0.2385892
0.2197226
0.1997533
0.1785954
0.1560712
0.1320057
0.1061861
0.07732393
0.04661156
0.3050524
0.2898391
0.2738243
0.2569382
0.2390998
0.2202637
0.2003604
0.1792399
0.156758
0.1327413
0.1060341
0.07721399
0.04620032
0.3204542
0.3059896
0.2907852
0.2747797
0.2579031
0.2401203
0.2213754
0.2015396
0.1804947
0.1580987
0.1333108
0.1066527
0.07765041
0.04621396
0.3356166
0.3218688
0.307438
0.2922702
0.2763044
0.2595138
0.2418537
0.2232129
0.2034931
0.1825792
0.1595367
0.1348718
0.1081326
0.07891174
0.04669288
0.3505023
0.3374401
0.3237477
0.3093778
0.294277
0.2784243
0.2617843
0.2442613
0.2257737
0.2062266
0.1848222
0.162186
0.1380498
0.1123005
0.08505726
0.3646121
0.3521819
0.3391678
0.3255276
0.3112146
0.2962125
0.2804926
0.2639713
0.2465794
0.2282378
0.2082406
0.1872391
0.165016
0.1414655
0.1165203
0.3777503
0.3658932
0.353492
0.3405093
0.3269031
0.312661
0.2977598
0.2821248
0.2656964
0.2484071
0.2296143
0.2099533
0.1892337
0.1673581
0.1442253
0.389916
0.3785771
0.3667285
0.3543367
0.3413637
0.3278003
0.3136273
0.2987774
0.2831982
0.2668309
0.2490815
0.2305595
0.211094
0.1906018
0.1689887
0.4011712
0.3903014
0.378952
0.3670924
0.3546883
0.3417329
0.3282101
0.3140586
0.2992319
0.283678
0.2668422
0.2493076
0.2309197
0.2116069
0.1912885
0.1027096
0.08023259
0.1264684
0.1014823
0.07857732
0.1484958
0.1243786
0.0990387
0.07535968
0.1686204
0.1457135
0.12127
0.09544359
0.07065579
0.1871699
0.1654122
0.1421853
0.1173438
0.09092339
0.06484098
0.2047568
0.184067
0.1620213
0.1384554
0.1131913
0.08622514
0.05885619
0.2222323
0.2025767
0.1816825
0.159403
0.135563
0.1100312
0.08271049
0.05439121
0.2395648
0.2209022
0.2011094
0.1800613
0.157606
0.1336255
0.107962
0.08037999
0.05148283
0.2565449
0.2388214
0.2200649
0.200168
0.1790026
0.1564726
0.1324446
0.106672
0.07893013
0.04970364
0.2730429
0.2562006
0.2384112
0.2195821
0.199604
0.1784019
0.1558668
0.1317894
0.105955
0.0781244
0.04747923
0.2890178
0.2730008
0.2561127
0.238273
0.2193878
0.199398
0.178217
0.1556664
0.1315704
0.1057127
0.07679831
0.04599502
0.3044896
0.2892475
0.2732015
0.2562815
0.2384063
0.2195293
0.1995806
0.1784093
0.1558694
0.1317851
0.1050029
0.07610172
0.04493573
0.3195253
0.3050144
0.28976
0.2737004
0.2567649
0.2389174
0.220101
0.2001857
0.1790515
0.1565535
0.1316565
0.1049058
0.07581578
0.04420233
0.3342332
0.3204179
0.3059141
0.2906672
0.2746151
0.2577302
0.2399663
0.2212105
0.2013622
0.1803031
0.1570889
0.1322295
0.1052896
0.07590267
0.04357818
0.3487293
0.3355822
0.3217973
0.3073263
0.2921148
0.2761415
0.2593692
0.2416993
0.2230475
0.2033154
0.1816482
0.1585388
0.133586
0.1063994
0.07637038
0.04114491
0.3629767
0.3504704
0.337374
0.3236448
0.3092347
0.2941273
0.2782928
0.2616454
0.2441143
0.2256176
0.2054188
0.1841197
0.161482
0.1373949
0.1118201
0.3764961
0.3645823
0.3521201
0.3390716
0.3253942
0.3110753
0.2960909
0.2803651
0.2638372
0.2464382
0.2275128
0.207684
0.1867586
0.1646439
0.1412497
0.3890971
0.377722
0.3658348
0.3534013
0.3403835
0.3267719
0.3125469
0.2976406
0.2819999
0.2655654
0.2477376
0.2291242
0.2095532
0.1889424
0.1671989
0.400776
0.3898891
0.3785215
0.3666423
0.3542173
0.3412394
0.3276924
0.3135148
0.2986599
0.2830752
0.2662041
0.2486299
0.2301975
0.2108353
0.1904628
0.4115893
0.4011455
0.3902484
0.3788698
0.3669786
0.35457
0.3416303
0.3281033
0.3139472
0.2991156
0.2830867
0.2664187
0.2489703
0.2306803
0.2114791
0.1274823
0.1026324
0.08006503
0.1503452
0.1263985
0.1013305
0.07832889
0.1711392
0.1484315
0.1242403
0.09881256
0.07502812
0.1901051
0.1685605
0.1455855
0.1210629
0.09514078
0.07031898
0.2076089
0.1871131
0.1652917
0.1419918
0.117064
0.09061455
0.06454803
0.2242307
0.2047022
0.1839518
0.1618373
0.1381917
0.1129038
0.08595521
0.05854038
0.2407713
0.2221811
0.2024689
0.1815113
0.1591593
0.1353
0.1097882
0.08243567
0.0540659
0.2572029
0.239517
0.220802
0.2009508
0.1798367
0.1573654
0.133406
0.1077188
0.08010496
0.05115572
0.2733269
0.2565002
0.2387278
0.2199173
0.1999598
0.1787809
0.1562723
0.1322256
0.1064295
0.07865584
0.04812407
0.2890178
0.2730008
0.2561127
0.238273
0.2193878
0.199398
0.178217
0.1556664
0.1315704
0.1057127
0.07679831
0.04599502
0.3042333
0.288978
0.2729178
0.2559825
0.2380905
0.2191951
0.1992258
0.1780315
0.1554655
0.1313508
0.1045352
0.07559853
0.04437036
0.3189894
0.3044518
0.2891687
0.2730782
0.2561091
0.2382247
0.2193677
0.1994072
0.1782225
0.1556669
0.1307117
0.1039184
0.0747925
0.04310749
0.3333474
0.3194892
0.3049393
0.2896427
0.2735367
0.256593
0.2387646
0.2199375
0.2000102
0.1788621
0.1555566
0.1306312
0.1036651
0.07429875
0.04201944
0.3474085
0.3341986
0.3203462
0.3058021
0.2905113
0.2744517
0.2575851
0.2398113
0.2210444
0.2011836
0.1793671
0.1560935
0.1309882
0.1037399
0.07393961
0.04015907
0.361282
0.3486964
0.3355141
0.3216912
0.3071788
0.2919604
0.2760047
0.2592236
0.2415439
0.222881
0.2024468
0.1807217
0.157353
0.1320059
0.1041511
0.07223778
0.03813953
0.3749311
0.3629462
0.3504074
0.337276
0.3235087
0.3090926
0.2940027
0.2781615
0.2615068
0.2439675
0.2248604
0.2047631
0.1834659
0.1608779
0.1369567
0.3878958
0.3764676
0.3645233
0.3520284
0.3389446
0.3252617
0.3109599
0.29597
0.2802383
0.2637039
0.245756
0.226991
0.2072353
0.1864129
0.1644448
0.3999909
0.3890701
0.3776662
0.3657481
0.3532813
0.3402586
0.3266634
0.3124337
0.2975222
0.281876
0.2649335
0.2472765
0.228749
0.2092811
0.1887944
0.4112101
0.4007502
0.389836
0.3784391
0.3665283
0.3540987
0.3411366
0.3275854
0.3134031
0.2985432
0.2824821
0.2657779
0.2482892
0.2299549
0.2107055
0.4216058
0.4115647
0.4010947
0.3901697
0.378761
0.3668656
0.3544721
0.3415286
0.3279973
0.3138367
0.2985549
0.282686
0.2661003
0.248745
0.2305605
0.1512741
0.1274127
0.1024814
0.07981844
0.1728539
0.1502814
0.1262615
0.1011068
0.07800254
0.1924549
0.17108
0.1483054
0.1240364
0.09851526
0.07470021
0.2103592
0.1900496
0.1684427
0.1453967
0.1207904
0.09484114
0.07003983
0.2269125
0.2075561
0.1870015
0.1651137
0.141737
0.1167871
0.09035756
0.0642552
0.2426558
0.2241797
0.204595
0.1837814
0.1615949
0.1379303
0.1126628
0.08568356
0.05822183
0.2583435
0.2407232
0.2220804
0.2023095
0.1812856
0.1589176
0.1350794
0.1095436
0.08215907
0.05373777
0.2739504
0.257158
0.239423
0.2206536
0.2007416
0.179614
0.1571639
0.1331855
0.1074745
0.07982861
0.04956543
0.2892874
0.2732847
0.2564121
0.2385892
0.2197226
0.1997533
0.1785954
0.1560712
0.1320057
0.1061861
0.07732393
0.04661156
0.3042333
0.288978
0.2729178
0.2559825
0.2380905
0.2191951
0.1992258
0.1780315
0.1554655
0.1313508
0.1045352
0.07559853
0.04437036
0.3187453
0.3041955
0.2888994
0.2727948
0.2558106
0.2379094
0.219034
0.1990531
0.1778455
0.1552639
0.1302829
0.1034709
0.07432865
0.0426141
0.3328364
0.3189535
0.3043771
0.289052
0.2729154
0.2559381
0.2380729
0.2192054
0.1992332
0.178035
0.1546809
0.1297269
0.1027565
0.07340476
0.0411432
0.3465628
0.333313
0.3194179
0.304828
0.2894876
0.2733742
0.2564489
0.2386109
0.2197732
0.1998337
0.1779386
0.1546136
0.1295023
0.1023189
0.0726799
0.03929051
0.3600195
0.3473755
0.3341303
0.3202398
0.3056542
0.2903565
0.2743145
0.2574389
0.2396552
0.2208772
0.2003109
0.1784436
0.1549496
0.129576
0.1019999
0.0714305
0.03772292
0.3733096
0.3612506
0.3486316
0.3354131
0.3215509
0.3070322
0.2918309
0.2758671
0.259077
0.2413873
0.2220672
0.201582
0.17962
0.1558948
0.1299556
0.1004916
0.06985601
0.03590827
0.3863969
0.3749021
0.3628861
0.3503139
0.3371464
0.3233735
0.3089743
0.2938782
0.2780303
0.2613683
0.2432553
0.2242457
0.2041526
0.1829047
0.1604736
0.3988392
0.3878685
0.3764112
0.3644358
0.3519073
0.3388183
0.3251519
0.3108451
0.2958499
0.2801122
0.2630602
0.2452651
0.2265703
0.2069125
0.1862279
0.4104568
0.399965
0.3890167
0.3775834
0.3656335
0.3531621
0.3401552
0.3265557
0.3123213
0.2974047
0.2812782
0.2644984
0.2469234
0.2284938
0.209143
0.4212417
0.4111854
0.4006993
0.3897571
0.3783301
0.366415
0.3540006
0.3410346
0.3274791
0.3132924
0.2979808
0.2820788
0.2654564
0.2480609
0.2298331
0.4312424
0.4215822
0.411516
0.4010193
0.3900656
0.3786529
0.3667721
0.354375
0.3414276
0.3278922
0.313304
0.2981749
0.2823848
0.2658877
0.2486322
0.1737155
0.1512106
0.1272763
0.1022588
0.0794945
0.1940549
0.1727951
0.1501563
0.1260594
0.1008127
0.07767975
0.2125613
0.1924
0.1709638
0.1481192
0.1237681
0.09822107
0.07442889
0.2294987
0.2103075
0.1899404
0.1682688
0.1451481
0.1205206
0.09459288
0.0697622
0.2451848
0.226863
0.2074521
0.1868366
0.1648793
0.1414847
0.1165566
0.09010098
0.0639625
0.2601252
0.2426079
0.2240794
0.2044362
0.1835568
0.1613545
0.1377112
0.1124203
0.08541018
0.05790052
0.2750311
0.2582983
0.2406287
0.2219313
0.2020993
0.1810618
0.1587149
0.1348573
0.1092974
0.08188068
0.05213923
0.2898793
0.273908
0.2570694
0.2392837
0.2204579
0.2005342
0.1794274
0.1569614
0.1329639
0.107229
0.07848499
0.04799159
0.3044896
0.2892475
0.2732015
0.2562815
0.2384063
0.2195293
0.1995806
0.1784093
0.1558694
0.1317851
0.1050029
0.07610172
0.04493573
0.3187453
0.3041955
0.2888994
0.2727948
0.2558106
0.2379094
0.219034
0.1990531
0.1778455
0.1552639
0.1302829
0.1034709
0.07432865
0.0426141
0.3326036
0.3187094
0.304121
0.288783
0.2726324
0.2556399
0.2377581
0.2188723
0.1988799
0.177659
0.1542832
0.1293166
0.1023438
0.07299553
0.04073848
0.3460749
0.3328022
0.3188825
0.3042663
0.2888978
0.2727537
0.2557949
0.2379204
0.2190426
0.1990586
0.1771218
0.1537754
0.1286702
0.1015244
0.07195125
0.03870539
0.3592113
0.3465301
0.3332452
0.3193121
0.3046809
0.2893337
0.2732381
0.2563041
0.2384565
0.2196081
0.1989729
0.1770641
0.1535738
0.1282762
0.100882
0.07069616
0.03723757
0.3721016
0.3599881
0.3473105
0.334029
0.3200991
0.3055072
0.2902265
0.2741764
0.2572918
0.2394981
0.2200597
0.1994492
0.1773812
0.1536469
0.1279893
0.09977384
0.06947977
0.03570441
0.3848438
0.3732796
0.3611887
0.3485353
0.3352795
0.3214115
0.3069093
0.2917004
0.2757285
0.2589294
0.240622
0.2212564
0.2005528
0.1782644
0.1540019
0.1266149
0.09838176
0.06796661
0.03418538
0.3974023
0.3863691
0.3748446
0.3627969
0.3501904
0.3370177
0.323261
0.3088561
0.293754
0.2778994
0.2606964
0.242677
0.2236732
0.2036284
0.1825288
0.4093519
0.3988131
0.3878146
0.3763276
0.3643201
0.3517869
0.3387137
0.3250428
0.310731
0.2957304
0.2795033
0.262597
0.2448692
0.2262675
0.2067397
0.4205184
0.410432
0.3999139
0.3889374
0.3774738
0.3655197
0.3530634
0.3400525
0.3264487
0.3122097
0.296838
0.2808665
0.2641652
0.2466832
0.2283642
0.4308925
0.421218
0.4111367
0.4006238
0.3896528
0.3782218
0.3663213
0.3539033
0.3409334
0.3273737
0.3127581
0.2975985
0.2817746
0.2652408
0.2479463
0.4405189
0.4312198
0.4215355
0.4114438
0.4009196
0.3899621
0.3785635
0.3666793
0.3542787
0.3413275
0.3273853
0.3129432
0.2978894
0.2821836
0.2657812
0.1948591
0.1736569
0.1510859
0.1270751
0.1019662
0.07917409
0.214061
0.1940004
0.1726798
0.1499716
0.1257935
0.1005216
0.0774128
0.2315698
0.2125102
0.1922922
0.1707921
0.1478741
0.1235025
0.09797767
0.07415952
0.247624
0.2294503
0.2102057
0.1897791
0.1680398
0.1449019
0.1202971
0.09434608
0.0694861
0.2625161
0.2451384
0.2267657
0.2072983
0.1866192
0.1646469
0.1412747
0.1163265
0.0898448
0.06366994
0.2767191
0.2600801
0.2425137
0.2239308
0.2042269
0.183334
0.1611529
0.1374906
0.1121762
0.08513506
0.05633464
0.2909052
0.2749885
0.2582093
0.2404886
0.2217345
0.2018907
0.180874
0.1585109
0.1346338
0.1090496
0.08052473
0.05048247
0.3050524
0.2898391
0.2738243
0.2569382
0.2390998
0.2202637
0.2003604
0.1792399
0.156758
0.1327413
0.1060341
0.07721399
0.04620032
0.3189894
0.3044518
0.2891687
0.2730782
0.2561091
0.2382247
0.2193677
0.1994072
0.1782225
0.1556669
0.1307117
0.1039184
0.0747925
0.04310749
0.3326036
0.3187094
0.304121
0.288783
0.2726324
0.2556399
0.2377581
0.2188723
0.1988799
0.177659
0.1542832
0.1293166
0.1023438
0.07299553
0.04073848
0.3458527
0.3325695
0.3186387
0.3040106
0.2886292
0.2724712
0.2554973
0.2376062
0.2187102
0.1987061
0.1767507
0.153395
0.1282919
0.1011598
0.07160873
0.03841553
0.358745
0.3460424
0.3327347
0.3187773
0.30412
0.2887446
0.2726184
0.2556513
0.2377674
0.2188791
0.1982076
0.1762825
0.1528027
0.1275483
0.1002328
0.07018749
0.03686167
0.3713283
0.35918
0.3464654
0.3331445
0.3191723
0.3045348
0.2892048
0.2731012
0.2561586
0.2383013
0.218802
0.1981573
0.1760991
0.1524435
0.1269661
0.0991188
0.06903393
0.03542979
0.3836869
0.3720716
0.359926
0.3472139
0.3338951
0.3199594
0.3053839
0.2900957
0.2740373
0.2571436
0.2387296
0.2192521
0.1984572
0.1761707
0.1521825
0.1259575
0.09804112
0.0677496
0.03406945
0.3959135
0.3848152
0.3732205
0.3610968
0.3484079
0.3351468
0.3212946
0.3067854
0.2915691
0.275589
0.2582075
0.2398592
0.2202909
0.1992859
0.176504
0.1509152
0.1246912
0.0967031
0.0664237
0.03284214
0.4079733
0.3973757
0.3863141
0.3747593
0.3626789
0.3500676
0.3369105
0.3231486
0.3087381
0.2936299
0.277264
0.2601508
0.2421383
0.2231815
0.2032772
0.4194576
0.4093269
0.3987615
0.3877346
0.3762169
0.3642051
0.3516871
0.3386097
0.3249342
0.3106175
0.2951532
0.2790652
0.2622235
0.2445843
0.2261055
0.4301976
0.4204947
0.410383
0.399838
0.3888326
0.3773649
0.3654254
0.3529655
0.3399507
0.3263426
0.3116713
0.2964477
0.2805513
0.2639385
0.2465613
0.4401825
0.4308698
0.4211713
0.4110642
0.4005238
0.3895491
0.3781322
0.3662284
0.3538067
0.3408329
0.3268654
0.312395
0.2973101
0.2815707
0.2651327
0.4494539
0.4404971
0.431175
0.4214662
0.4113481
0.4008204
0.3898765
0.3784748
0.3665873
0.3541831
0.3408445
0.327042
0.3126719
0.2976986
0.2820829
0.214815
0.1948048
0.173542
0.1509019
0.1268103
0.1016767
0.07890909
0.2329805
0.2140102
0.1938934
0.1725094
0.1497284
0.1255303
0.1002809
0.07714788
0.2495775
0.2315219
0.2124096
0.1921329
0.170566
0.1476312
0.1232827
0.09773604
0.07389212
0.2648224
0.2475785
0.229355
0.2100553
0.1895665
0.1678127
0.1446978
0.1200749
0.09410073
0.06921156
0.2789845
0.2624724
0.245047
0.2266218
0.2070956
0.1864036
0.1644535
0.141065
0.1160968
0.08958905
0.06225612
0.2925075
0.2766766
0.2599914
0.2423742
0.2237348
0.2040192
0.1831471
0.16095
0.1372686
0.1119306
0.08379487
0.05468932
0.3060279
0.2908648
0.2749044
0.2580774
0.2403038
0.2215393
0.2017158
0.180685
0.1583055
0.1344088
0.1078415
0.07918661
0.04851349
0.3195253
0.3050144
0.28976
0.2737004
0.2567649
0.2389174
0.220101
0.2001857
0.1790515
0.1565535
0.1316565
0.1049058
0.07581578
0.04420233
0.3328364
0.3189535
0.3043771
0.289052
0.2729154
0.2559381
0.2380729
0.2192054
0.1992332
0.178035
0.1546809
0.1297269
0.1027565
0.07340476
0.0411432
0.3458527
0.3325695
0.3186387
0.3040106
0.2886292
0.2724712
0.2554973
0.2376062
0.2187102
0.1987061
0.1767507
0.153395
0.1282919
0.1011598
0.07160873
0.03841553
0.3585325
0.3458202
0.3325021
0.3185337
0.3038646
0.2884765
0.2723364
0.2553542
0.2374539
0.2185476
0.1978598
0.1759276
0.1524519
0.127214
0.0999269
0.06993106
0.0366628
0.3708822
0.3587139
0.345978
0.3326345
0.3186382
0.3039747
0.2886165
0.2724827
0.255507
0.2376138
0.2180824
0.197425
0.1753799
0.1517687
0.1263709
0.0986631
0.06868195
0.03519622
0.3829464
0.3712985
0.3591183
0.3463694
0.3330114
0.3190334
0.3044124
0.2890751
0.2729637
0.2560123
0.2375437
0.2180378
0.1972565
0.1750491
0.1512348
0.1253568
0.09763703
0.06746064
0.03390412
0.3948047
0.3836582
0.3720123
0.3598338
0.3470862
0.3337621
0.3198421
0.3052597
0.2899639
0.2738972
0.2564189
0.2379699
0.2183218
0.1973261
0.1748091
0.150306
0.1243763