/*--------------------------------*- C++ -*----------------------------------*\
| =========                 |                                                 |
| \\      /  F ield         | OpenFOAM: The Open Source CFD Toolbox           |
|  \\    /   O peration     | Version:  2306                                  |
|   \\  /    A nd           | Website:  www.openfoam.com                      |
|    \\/     M anipulation  |                                                 |
\*---------------------------------------------------------------------------*/
FoamFile
{
    version     2.0;
    format      ascii;
    arch        "LSB;label=32;scalar=64";
    class       volScalarField;
    location    "0.3/air";
    object      diffSp.O2;
}
// * * * * * * * * * * * * * * * * * * * * * * * * * * * * * * * * * * * * * //

dimensions      [0 2 -1 0 0 0 0];

internalField   nonuniform List<scalar> 
16000
(
0.000184333
0.0001819483
0.0001871227
0.0001819098
0.0001806571
0.0001864876
0.0001762128
0.0001878044
0.0001864782
0.0001805849
0.0001799344
0.0001859424
0.0001727589
0.0001875298
0.0001846112
0.0001727061
0.0001883626
0.0001875379
0.0001859218
0.0001798213
0.0001796012
0.0001855443
0.000170725
0.0001872844
0.0001829922
0.0001676056
0.0001882244
0.0001867304
0.0001829668
0.0001705848
0.0001888573
0.0001882398
0.0001872976
0.0001855069
0.0001794337
0.0001796012
0.0001853345
0.0001697716
0.0001870976
0.0001818044
0.0001644806
0.0001881034
0.0001859977
0.000180369
0.0001643632
0.0001887767
0.0001878441
0.0001859998
0.0001817319
0.0001694916
0.0001893116
0.0001887941
0.0001881309
0.0001871139
0.0001852743
0.0001793591
0.0001094437
0.0001799344
0.0001853345
0.0001697716
0.0001869963
0.0001811773
0.0001629835
0.000188012
0.0001854348
0.0001784458
0.000160451
0.0001887088
0.0001874891
0.0001848052
0.0001783794
0.0001626567
0.0001892572
0.0001885718
0.000187503
0.0001854326
0.0001810339
0.0001692897
0.000189732
0.0001892743
0.0001887403
0.0001880515
0.0001870156
0.0001852484
0.0001795927
0.0001094353
0.0001097358
0.0001096287
0.0001806571
0.0001855443
0.000170725
0.0001869963
0.0001811773
0.0001629835
0.0001879625
0.0001851283
0.0001774256
0.0001585496
0.0001886588
0.0001872171
0.0001838781
0.0001758773
0.0001582986
0.0001892131
0.0001883779
0.0001869296
0.000183868
0.0001772463
0.0001623381
0.0001896897
0.0001891297
0.0001883958
0.0001872466
0.0001851188
0.0001809478
0.0001699699
0.0001901252
0.0001897058
0.0001892443
0.0001887051
0.0001880163
0.0001870225
0.0001854375
0.0001801833
0.0001094171
0.000109734
0.0001096167
0.000110026
0.0001099077
0.0001098151
0.0001819483
0.0001859424
0.0001727589
0.0001870976
0.0001818044
0.0001644806
0.0001879625
0.0001851283
0.0001774256
0.0001585496
0.0001886322
0.0001870688
0.0001833705
0.0001745436
0.0001561638
0.0001891815
0.0001882327
0.0001864847
0.0001826437
0.0001744051
0.0001578917
0.0001896565
0.0001890075
0.0001880894
0.0001865016
0.0001833414
0.0001770992
0.0001634004
0.0001900891
0.0001895966
0.0001890259
0.0001882733
0.0001871201
0.0001851189
0.000181496
0.0001716419
0.0001904943
0.0001901041
0.000189686
0.0001892278
0.0001886962
0.0001880359
0.0001871411
0.0001858349
0.0001812809
0.0001093817
0.0001097307
0.0001095883
0.0001100258
0.0001099059
0.0001098
0.0001103006
0.0001101797
0.0001100798
0.000110004
0.000184333
0.0001864876
0.0001762128
0.0001872844
0.0001829922
0.0001676056
0.000188012
0.0001854348
0.0001784458
0.000160451
0.0001886322
0.0001870688
0.0001833705
0.0001745436
0.0001561638
0.000189165
0.0001881546
0.0001862403
0.0001819702
0.0001728859
0.0001557098
0.0001896333
0.0001889184
0.0001878566
0.0001859174
0.0001819429
0.0001742072
0.0001592286
0.0001900612
0.0001895066
0.0001888376
0.0001878834
0.0001862827
0.0001833283
0.0001779725
0.0001659679
0.0001904616
0.0001900121
0.0001895243
0.000188961
0.0001882271
0.0001871559
0.0001854506
0.0001826491
0.0001746067
0.0001908422
0.0001904754
0.0001900886
0.0001896772
0.0001892295
0.0001887195
0.0001881152
0.0001873679
0.0001864285
0.0001833165
0.0001092866
0.000109727
0.0001095277
0.000110026
0.0001099028
0.000109764
0.0001103009
0.0001101805
0.000110078
0.0001099868
0.0001105563
0.000110437
0.0001103331
0.0001102527
0.0001101939
0.0001871227
0.0001819098
0.0001875298
0.0001846112
0.0001727061
0.0001881034
0.0001859977
0.000180369
0.0001643632
0.0001886588
0.0001872171
0.0001838781
0.0001758773
0.0001582986
0.000189165
0.0001881546
0.0001862403
0.0001819702
0.0001728859
0.0001557098
0.0001896213
0.0001888713
0.0001877303
0.0001855944
0.0001811712
0.0001726593
0.0001571895
0.0001900421
0.0001894427
0.0001886983
0.0001875836
0.0001856209
0.0001819153
0.0001753278
0.0001624256
0.0001904366
0.0001899377
0.0001893887
0.0001887275
0.0001877987
0.0001863276
0.0001838548
0.0001798044
0.0001703581
0.0001908118
0.0001903927
0.0001899542
0.0001894838
0.000188948
0.0001882744
0.000187366
0.0001860905
0.0001843311
0.0001795792
0.0001911709
0.0001908246
0.0001904619
0.0001900829
0.0001896826
0.0001892529
0.0001887788
0.000188256
0.0001877015
0.000187237
0.0001086201
0.0001097336
0.0001093738
0.000110029
0.0001099002
0.0001096879
0.0001103022
0.0001101835
0.0001100747
0.000109946
0.0001105568
0.0001104386
0.0001103347
0.0001102508
0.0001101756
0.0001107968
0.0001106777
0.000110573
0.0001104867
0.0001104247
4.647975e-05
0.0001878044
0.0001864782
0.0001805849
0.0001882244
0.0001867304
0.0001829668
0.0001705848
0.0001887088
0.0001874891
0.0001848052
0.0001783794
0.0001626567
0.0001891815
0.0001882327
0.0001864847
0.0001826437
0.0001744051
0.0001578917
0.0001896213
0.0001888713
0.0001877303
0.0001855944
0.0001811712
0.0001726593
0.0001571895
0.0001900323
0.0001894095
0.0001886241
0.0001874198
0.0001852534
0.0001811343
0.0001739129
0.0001607102
0.0001904195
0.0001898857
0.0001892912
0.0001885528
0.0001874661
0.0001856691
0.0001825929
0.0001776728
0.0001677664
0.0001907886
0.0001903264
0.0001898435
0.0001893197
0.0001886988
0.0001878632
0.0001866525
0.0001848687
0.0001824344
0.0001772667
0.0001911421
0.0001907477
0.0001903417
0.0001899242
0.0001894838
0.0001889971
0.000188424
0.0001877439
0.0001869881
0.0001864305
0.0001078387
0.0001914821
0.0001911541
0.0001908121
0.0001904574
0.0001900894
0.0001897049
0.0001893014
0.0001888784
0.0001884686
0.000188192
0.0001098682
0.0001088586
0.0001100544
0.0001099091
0.0001095169
0.0001103072
0.0001101937
0.0001100714
0.0001098631
0.0001105584
0.0001104435
0.0001103396
0.0001102471
0.0001101327
0.0001107973
0.0001106795
0.0001105757
0.0001104889
0.0001104227
4.647188e-05
0.0001110225
0.0001109054
0.0001107986
0.000110709
0.0001106389
4.657419e-05
4.648475e-05
0.0001883626
0.0001875379
0.0001859218
0.0001798213
0.0001887767
0.0001878441
0.0001859998
0.0001817319
0.0001694916
0.0001892131
0.0001883779
0.0001869296
0.000183868
0.0001772463
0.0001623381
0.0001896333
0.0001889184
0.0001878566
0.0001859174
0.0001819429
0.0001742072
0.0001592286
0.0001900323
0.0001894095
0.0001886241
0.0001874198
0.0001852534
0.0001811343
0.0001739129
0.0001607102
0.0001904109
0.0001898589
0.0001892401
0.000188459
0.0001872832
0.0001853022
0.0001818948
0.0001765335
0.0001665253
0.0001907728
0.0001902805
0.0001897653
0.0001892003
0.0001885103
0.0001875407
0.0001860809
0.0001838961
0.0001810052
0.0001758577
0.0001911202
0.0001906862
0.0001902438
0.0001897923
0.0001893133
0.0001887672
0.0001880877
0.0001872347
0.0001862534
0.0001856036
0.0001072232
0.0001914547
0.0001910813
0.0001907005
0.0001903163
0.0001899287
0.0001895311
0.0001891155
0.0001886786
0.0001882768
0.0001881006
0.0001097676
0.0001082414
0.0001917772
0.0001914659
0.0001911421
0.0001908079
0.0001904638
0.0001901102
0.0001897469
0.00018938
0.0001890336
0.0001888172
0.0001103214
0.000109972
0.0001091109
0.000110337
0.0001102352
0.0001100754
0.0001096968
0.0001105638
0.0001104573
0.0001103533
0.000110242
0.0001100497
0.0001107989
0.0001106848
0.0001105831
0.0001104948
0.0001104184
4.64536e-05
0.000111023
0.0001109073
0.0001108016
0.0001107124
0.0001106413
4.657332e-05
4.647688e-05
0.0001112355
0.0001111205
0.0001110136
0.0001109195
0.0001108433
4.666141e-05
4.657868e-05
4.648971e-05
0.0001888573
0.0001882398
0.0001872976
0.0001855069
0.0001794337
0.0001892572
0.0001885718
0.000187503
0.0001854326
0.0001810339
0.0001692897
0.0001896565
0.0001890075
0.0001880894
0.0001865016
0.0001833414
0.0001770992
0.0001634004
0.0001900421
0.0001894427
0.0001886983
0.0001875836
0.0001856209
0.0001819153
0.0001753278
0.0001624256
0.0001904109
0.0001898589
0.0001892401
0.000188459
0.0001872832
0.0001853022
0.0001818948
0.0001765335
0.0001665253
0.0001907648
0.000190257
0.0001897249
0.0001891374
0.0001884083
0.0001873624
0.000185761
0.0001833563
0.0001802394
0.0001751812
0.0001911053
0.0001906438
0.0001901753
0.0001896983
0.000189188
0.000188591
0.0001878193
0.0001868169
0.00018565
0.0001849518
0.0001068112
0.0001914338
0.0001910232
0.0001906099
0.0001902004
0.0001897941
0.0001893798
0.0001889413
0.0001884669
0.0001880239
0.0001878673
0.0001096074
0.0001077277
0.000191751
0.0001913965
0.0001910365
0.0001906772
0.000190322
0.0001899732
0.0001896321
0.0001893097
0.0001890438
0.0001889699
0.0001103869
0.0001098996
0.0001086242
0.0001920573
0.0001917616
0.0001914544
0.0001911381
0.000190814
0.0001904832
0.000190148
0.000189814
0.0001895052
0.0001893102
0.0001106287
0.0001104044
0.0001100976
0.0001093758
0.0001105934
0.0001105067
0.0001103948
0.0001102392
0.0001098987
0.0001108042
0.0001106993
0.0001106016
0.0001105089
0.0001104111
4.641891e-05
0.0001110246
0.0001109126
0.0001108096
0.0001107213
0.0001106474
4.657138e-05
4.645863e-05
0.000111236
0.0001111223
0.0001110166
0.0001109233
0.0001108472
4.666249e-05
4.657781e-05
4.648184e-05
0.0001114367
0.0001113246
0.000111218
0.0001111217
0.0001110386
4.674504e-05
4.666538e-05
4.658311e-05
4.649473e-05
0.0001893116
0.0001887941
0.0001881309
0.0001871139
0.0001852743
0.0001793591
0.0001896897
0.0001891297
0.0001883958
0.0001872466
0.0001851188
0.0001809478
0.0001699699
0.0001900612
0.0001895066
0.0001888376
0.0001878834
0.0001862827
0.0001833283
0.0001779725
0.0001659679
0.0001904195
0.0001898857
0.0001892912
0.0001885528
0.0001874661
0.0001856691
0.0001825929
0.0001776728
0.0001677664
0.0001907648
0.000190257
0.0001897249
0.0001891374
0.0001884083
0.0001873624
0.000185761
0.0001833563
0.0001802394
0.0001751812
0.0001910978
0.0001906222
0.0001901402
0.0001896494
0.0001891216
0.0001884949
0.0001876694
0.0001865806
0.0001853108
0.0001845962
0.0001066057
0.0001914196
0.0001909832
0.0001905469
0.0001901188
0.0001896974
0.000189267
0.0001888035
0.0001882873
0.0001877938
0.000187639
0.0001094656
0.000107375
0.000191731
0.000191341
0.000190951
0.0001905704
0.0001902048
0.0001898568
0.0001895264
0.0001892229
0.0001889848
0.000188965
0.0001103783
0.0001097764
0.0001082033
0.0001920322
0.000191695
0.0001913535
0.0001910144
0.0001906828
0.0001903636
0.0001900633
0.0001897943
0.000189592
0.0001895435
0.0001107459
0.0001104668
0.0001100405
0.0001089954
0.0001923233
0.0001920422
0.0001917504
0.0001914504
0.0001911437
0.0001908321
0.0001905179
0.0001902078
0.0001899221
0.0001897402
0.000110877
0.0001106993
0.0001105037
0.0001102377
0.0001096477
0.0001108323
0.000110749
0.0001106529
0.0001105437
0.0001104014
4.635865e-05
0.0001110295
0.0001109267
0.0001108291
0.0001107411
0.00011066
4.65678e-05
4.642406e-05
0.0001112375
0.0001111274
0.0001110246
0.0001109329
0.0001108566
4.666506e-05
4.657586e-05
4.646362e-05
0.0001114371
0.0001113263
0.000111221
0.0001111256
0.0001110429
4.674675e-05
4.666646e-05
4.658224e-05
4.648688e-05
0.0001116273
0.0001115183
0.0001114132
0.0001113155
0.0001112282
4.68254e-05
4.674856e-05
4.666929e-05
4.65876e-05
4.649963e-05
0.000189732
0.0001892743
0.0001887403
0.0001880515
0.0001870156
0.0001852484
0.0001795927
0.0001900891
0.0001895966
0.0001890259
0.0001882733
0.0001871201
0.0001851189
0.000181496
0.0001716419
0.0001904366
0.0001899377
0.0001893887
0.0001887275
0.0001877987
0.0001863276
0.0001838548
0.0001798044
0.0001703581
0.0001907728
0.0001902805
0.0001897653
0.0001892003
0.0001885103
0.0001875407
0.0001860809
0.0001838961
0.0001810052
0.0001758577
0.0001910978
0.0001906222
0.0001901402
0.0001896494
0.0001891216
0.0001884949
0.0001876694
0.0001865806
0.0001853108
0.0001845962
0.0001066057
0.0001914125
0.0001909629
0.0001905147
0.0001900768
0.0001896468
0.0001892065
0.0001887271
0.0001881842
0.0001876585
0.0001875033
0.0001093848
0.0001071971
0.0001917174
0.0001913029
0.0001908916
0.0001904956
0.0001901217
0.000189772
0.0001894441
0.0001891442
0.00018891
0.0001889146
0.000110349
0.0001096644
0.0001079077
0.0001920129
0.0001916418
0.0001912719
0.0001909135
0.0001905751
0.0001902634
0.0001899868
0.0001897579
0.0001896104
0.0001896238
0.0001107916
0.0001104693
0.0001099453
0.0001086576
0.0001922992
0.0001919782
0.0001916536
0.0001913322
0.0001910196
0.0001907216
0.0001904461
0.0001902068
0.0001900326
0.0001899925
0.0001110069
0.0001108034
0.0001105556
0.0001101895
0.0001093565
0.0001925762
0.0001923088
0.0001920314
0.0001917464
0.0001914556
0.0001911607
0.0001908644
0.0001905728
0.0001903049
0.0001901303
0.000111098
0.0001109391
0.0001107833
0.0001106132
0.0001103847
4.626467e-05
0.0001110557
0.0001109741
0.0001108814
0.0001107865
0.0001106856
4.656221e-05
4.636431e-05
0.0001112421
0.0001111407
0.0001110437
0.000110954
0.0001108753
4.666988e-05
4.657224e-05
4.642919e-05
0.0001114385
0.0001113311
0.0001112287
0.0001111353
0.0001110533
4.675076e-05
4.666903e-05
4.658028e-05
4.64687e-05
0.0001116277
0.0001115199
0.000111416
0.0001113192
0.0001112326
4.68273e-05
4.675027e-05
4.667038e-05
4.658673e-05
4.64918e-05
0.0001118081
0.0001117026
0.0001115994
0.0001115017
0.0001114113
4.690387e-05
4.682854e-05
4.675202e-05
4.667325e-05
4.659197e-05
3.037202e-05
0.0001901252
0.0001897058
0.0001892443
0.0001887051
0.0001880163
0.0001870225
0.0001854375
0.0001801833
0.0001904616
0.0001900121
0.0001895243
0.000188961
0.0001882271
0.0001871559
0.0001854506
0.0001826491
0.0001746067
0.0001907886
0.0001903264
0.0001898435
0.0001893197
0.0001886988
0.0001878632
0.0001866525
0.0001848687
0.0001824344
0.0001772667
0.0001911053
0.0001906438
0.0001901753
0.0001896983
0.000189188
0.000188591
0.0001878193
0.0001868169
0.00018565
0.0001849518
0.0001068112
0.0001914125
0.0001909629
0.0001905147
0.0001900768
0.0001896468
0.0001892065
0.0001887271
0.0001881842
0.0001876585
0.0001875033
0.0001093848
0.0001071971
0.0001917105
0.0001912835
0.0001908613
0.0001904572
0.0001900786
0.0001897273
0.000189399
0.0001890977
0.0001888613
0.000188876
0.0001103277
0.0001095998
0.0001077568
0.0001919999
0.0001916053
0.0001912153
0.0001908431
0.0001904992
0.0001901915
0.0001899283
0.0001897205
0.0001895992
0.0001896436
0.000110806
0.0001104515
0.0001098576
0.0001084156
0.0001922807
0.0001919272
0.0001915754
0.0001912359
0.0001909178
0.0001906299
0.0001903821
0.0001901899
0.0001900786
0.0001901018
0.0001110707
0.0001108501
0.0001105634
0.0001101155
0.0001090934
0.000192553
0.0001922473
0.0001919384
0.000191633
0.0001913368
0.0001910559
0.0001907984
0.0001905772
0.0001904186
0.0001903776
0.0001112265
0.000111053
0.0001108692
0.0001106524
0.0001103422
4.615741e-05
0.0001928164
0.0001925622
0.0001922983
0.0001920274
0.0001917513
0.0001914716
0.000191191
0.0001909155
0.000190662
0.0001904941
0.0001113016
0.0001111536
0.0001110126
0.0001108754
0.0001107265
4.655245e-05
4.627178e-05
0.0001112664
0.0001111851
0.000111094
0.0001110012
0.0001109117
4.667865e-05
4.656651e-05
4.636995e-05
0.0001114428
0.0001113437
0.0001112468
0.0001111561
0.0001110737
4.675827e-05
4.667379e-05
4.657662e-05
4.643442e-05
0.000111629
0.0001115245
0.0001114234
0.0001113286
0.000111243
4.683174e-05
4.675428e-05
4.667294e-05
4.658477e-05
4.647367e-05
0.0001118084
0.0001117042
0.0001116021
0.0001115053
0.0001114156
4.690579e-05
4.683044e-05
4.675374e-05
4.667435e-05
4.65911e-05
3.036693e-05
0.0001119797
0.000111878
0.0001117775
0.0001116805
0.0001115887
4.698005e-05
4.690669e-05
4.683163e-05
4.675553e-05
4.66771e-05
3.043179e-05
3.037628e-05
0.0001904943
0.0001901041
0.000189686
0.0001892278
0.0001886962
0.0001880359
0.0001871411
0.0001858349
0.0001812809
0.0001908118
0.0001903927
0.0001899542
0.0001894838
0.000188948
0.0001882744
0.000187366
0.0001860905
0.0001843311
0.0001795792
0.0001911202
0.0001906862
0.0001902438
0.0001897923
0.0001893133
0.0001887672
0.0001880877
0.0001872347
0.0001862534
0.0001856036
0.0001072232
0.0001914196
0.0001909832
0.0001905469
0.0001901188
0.0001896974
0.000189267
0.0001888035
0.0001882873
0.0001877938
0.000187639
0.0001094656
0.000107375
0.0001917105
0.0001912835
0.0001908613
0.0001904572
0.0001900786
0.0001897273
0.000189399
0.0001890977
0.0001888613
0.000188876
0.0001103277
0.0001095998
0.0001077568
0.0001919933
0.0001915867
0.0001911864
0.000190807
0.0001904601
0.000190154
0.0001898966
0.0001896975
0.0001895864
0.0001896446
0.0001108088
0.0001104369
0.0001098066
0.0001082908
0.0001922682
0.000191892
0.0001915211
0.0001911687
0.0001908464
0.0001905645
0.0001903339
0.0001901691
0.0001900916
0.0001901479
0.000111101
0.0001108682
0.0001105535
0.0001100477
0.0001089014
0.0001925352
0.0001921982
0.0001918632
0.0001915406
0.0001912396
0.0001909692
0.0001907403
0.000190567
0.0001904724
0.0001904926
0.0001112945
0.0001111141
0.0001109129
0.0001106613
0.0001102848
4.605984e-05
0.0001927941
0.000192503
0.0001922089
0.0001919184
0.0001916372
0.0001913712
0.0001911281
0.0001909204
0.0001907712
0.0001907284
0.0001114238
0.0001112659
0.0001111066
0.0001109423
0.0001107527
4.65351e-05
4.616636e-05
0.0001930447
0.0001928029
0.000192552
0.0001922945
0.000192032
0.0001917664
0.0001915002
0.0001912391
0.0001909987
0.0001908367
0.0001114938
0.0001113521
0.0001112192
0.0001110929
0.0001109699
4.669092e-05
4.655649e-05
4.627883e-05
0.0001114654
0.0001113852
0.0001112943
0.0001112021
0.0001111126
4.67716e-05
4.668233e-05
4.657075e-05
4.63757e-05
0.000111633
0.0001115364
0.0001114406
0.0001113486
0.0001112634
4.684003e-05
4.676173e-05
4.667764e-05
4.658107e-05
4.643955e-05
0.0001118097
0.0001117085
0.0001116092
0.0001115144
0.0001114258
4.691029e-05
4.683489e-05
4.675775e-05
4.66769e-05
4.658914e-05
3.035516e-05
0.0001119801
0.0001118795
0.0001117801
0.000111684
0.0001115928
4.698194e-05
4.690862e-05
4.683354e-05
4.675726e-05
4.66782e-05
3.043123e-05
3.037122e-05
0.000112143
0.0001120452
0.0001119476
0.0001118523
0.0001117601
4.705419e-05
4.698261e-05
4.690946e-05
4.683476e-05
4.675893e-05
3.04869e-05
3.043565e-05
3.037892e-05
0.0001908422
0.0001904754
0.0001900886
0.0001896772
0.0001892295
0.0001887195
0.0001881152
0.0001873679
0.0001864285
0.0001833165
0.0001911421
0.0001907477
0.0001903417
0.0001899242
0.0001894838
0.0001889971
0.000188424
0.0001877439
0.0001869881
0.0001864305
0.0001078387
0.0001914338
0.0001910232
0.0001906099
0.0001902004
0.0001897941
0.0001893798
0.0001889413
0.0001884669
0.0001880239
0.0001878673
0.0001096074
0.0001077277
0.0001917174
0.0001913029
0.0001908916
0.0001904956
0.0001901217
0.000189772
0.0001894441
0.0001891442
0.00018891
0.0001889146
0.000110349
0.0001096644
0.0001079077
0.0001919933
0.0001915867
0.0001911864
0.000190807
0.0001904601
0.000190154
0.0001898966
0.0001896975
0.0001895864
0.0001896446
0.0001108088
0.0001104369
0.0001098066
0.0001082908
0.0001922618
0.0001918742
0.0001914934
0.0001911344
0.0001908096
0.0001905305
0.000190308
0.0001901557
0.0001900929
0.0001901644
0.000111113
0.0001108735
0.000110544
0.0001100081
0.0001088014
0.0001925231
0.0001921644
0.000191811
0.0001914762
0.0001911714
0.0001909076
0.0001906968
0.0001905525
0.0001904936
0.0001905466
0.0001113298
0.000111145
0.0001109321
0.0001106565
0.0001102335
4.598809e-05
0.000192777
0.0001924557
0.0001921365
0.0001918295
0.0001915438
0.0001912881
0.000191073
0.0001909121
0.000190825
0.0001908406
0.0001114904
0.00011133
0.0001111619
0.0001109802
0.0001107605
4.651358e-05
4.607039e-05
0.0001930232
0.000192746
0.0001924659
0.0001921895
0.0001919222
0.0001916697
0.0001914395
0.000191243
0.0001911014
0.0001910564
0.0001116084
0.0001114589
0.0001113122
0.000111167
0.0001110187
4.669933e-05
4.653923e-05
4.617521e-05
0.0001932614
0.0001930317
0.0001927932
0.0001925483
0.0001922988
0.0001920464
0.0001917937
0.0001915458
0.0001913174
0.0001911616
0.0001116765
0.0001115402
0.0001114115
0.0001112907
0.0001111749
4.679088e-05
4.669406e-05
4.656048e-05
4.628596e-05
0.0001116542
0.0001115752
0.0001114852
0.0001113925
0.000111302
4.685464e-05
4.677483e-05
4.668595e-05
4.657506e-05
4.638135e-05
0.0001118134
0.0001117198
0.0001116255
0.0001115335
0.0001114456
4.691867e-05
4.684313e-05
4.676514e-05
4.668153e-05
4.658539e-05
3.033306e-05
0.0001119813
0.0001118837
0.0001117868
0.0001116926
0.0001116027
4.698636e-05
4.691312e-05
4.683797e-05
4.676126e-05
4.668074e-05
3.042996e-05
3.035952e-05
0.0001121433
0.0001120467
0.0001119501
0.0001118556
0.0001117641
4.705602e-05
4.698451e-05
4.69114e-05
4.683667e-05
4.676066e-05
3.048762e-05
3.04351e-05
3.037387e-05
0.0001122983
0.0001122046
0.0001121103
0.0001120171
0.0001119256
4.712607e-05
4.705652e-05
4.698512e-05
4.691228e-05
4.683779e-05
3.053991e-05
3.049038e-05
3.043797e-05
3.038086e-05
0.0001911709
0.0001908246
0.0001904619
0.0001900829
0.0001896826
0.0001892529
0.0001887788
0.000188256
0.0001877015
0.000187237
0.0001086201
0.0001914547
0.0001910813
0.0001907005
0.0001903163
0.0001899287
0.0001895311
0.0001891155
0.0001886786
0.0001882768
0.0001881006
0.0001097676
0.0001082414
0.000191731
0.000191341
0.000190951
0.0001905704
0.0001902048
0.0001898568
0.0001895264
0.0001892229
0.0001889848
0.000188965
0.0001103783
0.0001097764
0.0001082033
0.0001919999
0.0001916053
0.0001912153
0.0001908431
0.0001904992
0.0001901915
0.0001899283
0.0001897205
0.0001895992
0.0001896436
0.000110806
0.0001104515
0.0001098576
0.0001084156
0.0001922618
0.0001918742
0.0001914934
0.0001911344
0.0001908096
0.0001905305
0.000190308
0.0001901557
0.0001900929
0.0001901644
0.000111113
0.0001108735
0.000110544
0.0001100081
0.0001088014
0.000192517
0.0001921472
0.0001917843
0.0001914432
0.0001911364
0.0001908758
0.0001906736
0.0001905428
0.0001905001
0.0001905682
0.0001113449
0.0001111577
0.0001109388
0.0001106507
0.0001102038
4.595046e-05
0.0001927653
0.0001924231
0.0001920862
0.0001917676
0.0001914783
0.0001912292
0.000191032
0.0001908998
0.000190848
0.0001908954
0.0001115263
0.0001113647
0.0001111914
0.0001109988
0.0001107588
4.649478e-05
4.599975e-05
0.0001930067
0.0001927005
0.0001923963
0.000192104
0.0001918323
0.0001915898
0.0001913864
0.0001912348
0.0001911525
0.000191163
0.000111672
0.0001115214
0.0001113697
0.0001112143
0.0001110495
4.670212e-05
4.651804e-05
4.608082e-05
0.0001932408
0.0001929769
0.0001927103
0.0001924473
0.0001921931
0.0001919533
0.0001917348
0.0001915485
0.0001914135
0.0001913676
0.0001117839
0.0001116405
0.0001115002
0.0001113647
0.0001112304
4.680801e-05
4.670218e-05
4.654331e-05
4.618411e-05
0.0001934671
0.000193249
0.0001930224
0.0001927897
0.0001925525
0.0001923126
0.0001920725
0.0001918371
0.0001916201
0.0001914707
0.0001118511
0.0001117194
0.0001115945
0.0001114762
0.0001113636
4.687588e-05
4.679353e-05
4.669715e-05
4.656455e-05
4.629297e-05
0.0001118333
0.0001117562
0.0001116675
0.000111575
0.0001114829
4.693336e-05
4.685752e-05
4.6778e-05
4.668962e-05
4.657924e-05
3.029549e-05
0.0001119849
0.0001118944
0.0001118024
0.0001117109
0.0001116218
4.699455e-05
4.692146e-05
4.684616e-05
4.676859e-05
4.668531e-05
3.04275e-05
3.033756e-05
0.0001121444
0.0001120507
0.0001119566
0.000111864
0.0001117736
4.70603e-05
4.698892e-05
4.69159e-05
4.684111e-05
4.676465e-05
3.048927e-05
3.043383e-05
3.03622e-05
0.0001122986
0.000112206
0.0001121128
0.0001120204
0.0001119295
4.712785e-05
4.705836e-05
4.698702e-05
4.691422e-05
4.68397e-05
3.054103e-05
3.04911e-05
3.043743e-05
3.037582e-05
0.000112446
0.0001123566
0.0001122659
0.0001121754
0.0001120852
4.719572e-05
4.712821e-05
4.705881e-05
4.698767e-05
4.691499e-05
3.059101e-05
3.054306e-05
3.049242e-05
3.043965e-05
3.038174e-05
0.0001092866
0.0001914821
0.0001911541
0.0001908121
0.0001904574
0.0001900894
0.0001897049
0.0001893014
0.0001888784
0.0001884686
0.000188192
0.0001098682
0.0001088586
0.000191751
0.0001913965
0.0001910365
0.0001906772
0.000190322
0.0001899732
0.0001896321
0.0001893097
0.0001890438
0.0001889699
0.0001103869
0.0001098996
0.0001086242
0.0001920129
0.0001916418
0.0001912719
0.0001909135
0.0001905751
0.0001902634
0.0001899868
0.0001897579
0.0001896104
0.0001896238
0.0001107916
0.0001104693
0.0001099453
0.0001086576
0.0001922682
0.000191892
0.0001915211
0.0001911687
0.0001908464
0.0001905645
0.0001903339
0.0001901691
0.0001900916
0.0001901479
0.000111101
0.0001108682
0.0001105535
0.0001100477
0.0001089014
0.000192517
0.0001921472
0.0001917843
0.0001914432
0.0001911364
0.0001908758
0.0001906736
0.0001905428
0.0001905001
0.0001905682
0.0001113449
0.0001111577
0.0001109388
0.0001106507
0.0001102038
4.595046e-05
0.0001927595
0.0001924066
0.0001920606
0.0001917359
0.0001914447
0.0001911988
0.0001910102
0.0001908915
0.0001908559
0.0001909181
0.0001115421
0.0001113798
0.0001112041
0.000111006
0.0001107557
4.648395e-05
4.596268e-05
0.0001929955
0.0001926691
0.0001923479
0.0001920443
0.0001917693
0.0001915332
0.000191347
0.0001912231
0.0001911749
0.0001912159
0.0001117068
0.0001115563
0.0001114022
0.0001112412
0.0001110662
4.670184e-05
4.649957e-05
4.601127e-05
0.0001932249
0.0001929331
0.0001926432
0.000192365
0.0001921065
0.0001918762
0.0001916834
0.0001915399
0.0001914615
0.0001914682
0.0001118441
0.0001117001
0.0001115564
0.0001114139
0.0001112689
4.681947e-05
4.67049e-05
4.652242e-05
4.609127e-05
0.0001934472
0.0001931963
0.0001929427
0.0001926924
0.0001924507
0.0001922229
0.0001920156
0.0001918388
0.0001917103
0.0001916645
0.0001119521
0.0001118136
0.0001116782
0.0001115473
0.0001114198
4.68958e-05
4.681025e-05
4.670497e-05
4.654746e-05
4.619284e-05
0.000193662
0.0001934553
0.0001932401
0.000193019
0.0001927937
0.0001925658
0.0001923377
0.0001921141
0.0001919079
0.0001917652
0.0001120183
0.0001118912
0.0001117696
0.0001116537
0.000111542
4.695471e-05
4.68782e-05
4.679612e-05
4.67003e-05
4.65685e-05
3.023875e-05
0.0001120037
0.0001119289
0.000111842
0.0001117502
0.0001116575
4.700888e-05
4.693595e-05
4.686033e-05
4.67812e-05
4.669316e-05
3.042342e-05
3.030035e-05
0.0001121478
0.0001120609
0.0001119715
0.0001118814
0.000111792
4.706825e-05
4.699709e-05
4.692419e-05
4.684924e-05
4.677191e-05
3.049221e-05
3.043138e-05
3.034036e-05
0.0001122997
0.00011221
0.000112119
0.0001120284
0.0001119387
4.713199e-05
4.706265e-05
4.699144e-05
4.691871e-05
4.684413e-05
3.054363e-05
3.049276e-05
3.043616e-05
3.036419e-05
0.0001124463
0.000112358
0.0001122683
0.0001121785
0.000112089
4.719745e-05
4.713e-05
4.706066e-05
4.698958e-05
4.691693e-05
3.059226e-05
3.05442e-05
3.049314e-05
3.04391e-05
3.03767e-05
0.0001125867
0.0001125016
0.0001124147
0.0001123272
0.000112239
4.726306e-05
4.719771e-05
4.713032e-05
4.706114e-05
4.699012e-05
3.064109e-05
3.059391e-05
3.054486e-05
3.049385e-05
3.044034e-05
0.0001093817
0.0001097336
0.0001093738
0.0001917772
0.0001914659
0.0001911421
0.0001908079
0.0001904638
0.0001901102
0.0001897469
0.00018938
0.0001890336
0.0001888172
0.0001103214
0.000109972
0.0001091109
0.0001920322
0.000191695
0.0001913535
0.0001910144
0.0001906828
0.0001903636
0.0001900633
0.0001897943
0.000189592
0.0001895435
0.0001107459
0.0001104668
0.0001100405
0.0001089954
0.0001922807
0.0001919272
0.0001915754
0.0001912359
0.0001909178
0.0001906299
0.0001903821
0.0001901899
0.0001900786
0.0001901018
0.0001110707
0.0001108501
0.0001105634
0.0001101155
0.0001090934
0.0001925231
0.0001921644
0.000191811
0.0001914762
0.0001911714
0.0001909076
0.0001906968
0.0001905525
0.0001904936
0.0001905466
0.0001113298
0.000111145
0.0001109321
0.0001106565
0.0001102335
4.598809e-05
0.0001927595
0.0001924066
0.0001920606
0.0001917359
0.0001914447
0.0001911988
0.0001910102
0.0001908915
0.0001908559
0.0001909181
0.0001115421
0.0001113798
0.0001112041
0.000111006
0.0001107557
4.648395e-05
4.596268e-05
0.0001929898
0.0001926532
0.0001923232
0.0001920138
0.000191737
0.0001915039
0.0001913261
0.0001912153
0.0001911829
0.0001912381
0.0001117223
0.0001115719
0.0001114169
0.0001112532
0.0001110732
4.670096e-05
4.648894e-05
4.597476e-05
0.0001932141
0.0001929029
0.0001925966
0.0001923075
0.0001920458
0.0001918216
0.0001916454
0.0001915284
0.0001914826
0.0001915185
0.0001118773
0.0001117338
0.0001115889
0.0001114432
0.0001112922
4.682606e-05
4.670466e-05
4.650428e-05
4.602281e-05
0.0001934319
0.0001931541
0.000192878
0.0001926131
0.0001923674
0.0001921486
0.0001919659
0.00019183
0.0001917553
0.0001917595
0.0001120091
0.0001118701
0.0001117318
0.0001115956
0.0001114602
4.691029e-05
4.682152e-05
4.670762e-05
4.652687e-05
4.610152e-05
0.0001936428
0.0001934045
0.0001931634
0.0001929255
0.0001926958
0.0001924794
0.0001922827
0.0001921152
0.0001919932
0.0001919485
0.0001121137
0.0001119799
0.0001118485
0.0001117212
0.0001115967
4.697517e-05
4.68977e-05
4.681245e-05
4.670783e-05
4.655148e-05
3.017458e-05
0.0001938465
0.0001936507
0.0001934467
0.0001932369
0.000193023
0.0001928066
0.0001925899
0.0001923776
0.0001921818
0.000192046
0.0001121784
0.0001120559
0.000111938
0.0001118243
0.0001117137
4.702964e-05
4.695679e-05
4.688046e-05
4.679877e-05
4.670333e-05
3.041629e-05
3.024439e-05
0.0001121657
0.0001120937
0.0001120091
0.0001119188
0.0001118261
4.708207e-05
4.701123e-05
4.693848e-05
4.686318e-05
4.678429e-05
3.049719e-05
3.042726e-05
3.030346e-05
0.0001123029
0.0001122198
0.0001121333
0.0001120452
0.0001119564
4.713967e-05
4.707056e-05
4.699956e-05
4.692696e-05
4.68522e-05
3.054832e-05
3.049568e-05
3.043369e-05
3.034244e-05
0.0001124474
0.0001123618
0.0001122744
0.0001121864
0.0001120979
4.720147e-05
4.713416e-05
4.706495e-05
4.699399e-05
4.692143e-05
3.059514e-05
3.05468e-05
3.049479e-05
3.043782e-05
3.036508e-05
0.000112587
0.000112503
0.000112417
0.0001123303
0.0001122427
4.726474e-05
4.719945e-05
4.713211e-05
4.706299e-05
4.699203e-05
3.064236e-05
3.059516e-05
3.054599e-05
3.049456e-05
3.043978e-05
0.0001127206
0.0001126399
0.0001125569
0.0001124727
0.0001123871
4.73281e-05