/*--------------------------------*- C++ -*----------------------------------*\
| =========                 |                                                 |
| \\      /  F ield         | OpenFOAM: The Open Source CFD Toolbox           |
|  \\    /   O peration     | Version:  2306                                  |
|   \\  /    A nd           | Website:  www.openfoam.com                      |
|    \\/     M anipulation  |                                                 |
\*---------------------------------------------------------------------------*/
FoamFile
{
    version     2.0;
    format      ascii;
    arch        "LSB;label=32;scalar=64";
    class       volScalarField;
    location    "0.3/air";
    object      N2;
}
// * * * * * * * * * * * * * * * * * * * * * * * * * * * * * * * * * * * * * //

dimensions      [0 0 0 0 0 0 0];

internalField   nonuniform List<scalar> 
16000
(
0.7702149
0.7702103
0.7710182
0.7702448
0.7702035
0.7709463
0.7702379
0.7727535
0.7711159
0.7703137
0.7701971
0.770854
0.7702285
0.7726531
0.771018
0.770301
0.7746735
0.7728842
0.771373
0.7704438
0.7701933
0.7707763
0.7702199
0.7725164
0.7708995
0.7702849
0.7745677
0.772753
0.7712369
0.7704163
0.776621
0.7748134
0.7732113
0.7718542
0.7706828
0.7701933
0.770733
0.7702149
0.7723956
0.7708035
0.7702711
0.7744226
0.7725825
0.771075
0.7703858
0.776516
0.7746764
0.7730427
0.7716764
0.7706266
0.7785317
0.7767601
0.7751607
0.7737945
0.7726231
0.771123
0.8054941
0.7701971
0.770733
0.7702149
0.7723264
0.7707513
0.7702634
0.7742937
0.7724358
0.7709462
0.7703627
0.776372
0.7744968
0.7728265
0.7714593
0.7705627
0.7784299
0.7766245
0.7749876
0.7735902
0.7724058
0.7710273
0.7803834
0.7786671
0.777104
0.7757733
0.7746856
0.7737319
0.771885
0.8042645
0.8072594
0.8056882
0.7702035
0.7707763
0.7702199
0.7723264
0.7707513
0.7702634
0.7742193
0.7723528
0.7708768
0.7703503
0.776244
0.7743411
0.7726427
0.7712836
0.7705135
0.7782905
0.7764468
0.7747639
0.7733273
0.7721326
0.7709059
0.7802853
0.7785359
0.7769341
0.7755686
0.7744494
0.7734759
0.7717463
0.7821715
0.7805138
0.7790017
0.7777081
0.7766963
0.7759279
0.7752406
0.7731222
0.8017806
0.806143
0.8044631
0.8080674
0.8074397
0.8060756
0.7702103
0.770854
0.7702285
0.7723956
0.7708035
0.7702711
0.7742193
0.7723528
0.7708768
0.7703503
0.7761702
0.7742525
0.7725395
0.7711884
0.7704872
0.7781664
0.7762927
0.7745719
0.7731038
0.7719065
0.7708052
0.7801508
0.778364
0.7767145
0.7753032
0.7741427
0.7731497
0.7715596
0.7820771
0.7803874
0.7788377
0.7775093
0.7764666
0.7756624
0.7749332
0.7729093
0.7838989
0.7822972
0.7808362
0.7795885
0.7786131
0.7779617
0.7775575
0.777224
0.775069
0.7979511
0.8038926
0.8019949
0.8070136
0.8063267
0.8048585
0.8086347
0.8082365
0.8077998
0.8066553
0.7702149
0.7709463
0.7702379
0.7725164
0.7708995
0.7702849
0.7742937
0.7724358
0.7709462
0.7703627
0.7761702
0.7742525
0.7725395
0.7711884
0.7704872
0.7780949
0.776205
0.7744634
0.7729783
0.771782
0.7707496
0.7800313
0.7782148
0.7765261
0.7750754
0.7738805
0.772876
0.7713994
0.7819477
0.7802217
0.7786258
0.7772519
0.7761661
0.7753138
0.7745375
0.7726208
0.7838077
0.7821755
0.7806783
0.7793974
0.7783927
0.7777113
0.7772576
0.7768353
0.7746672
0.7855698
0.78402
0.7826079
0.7814012
0.7804656
0.7798455
0.7795913
0.7796101
0.7797753
0.7781578
0.7924176
0.800438
0.7982251
0.8048904
0.804089
0.8024165
0.8076344
0.8071858
0.8066928
0.8054478
0.8091666
0.8087949
0.8085742
0.8083387
0.8074259
0.7710182
0.7702448
0.7726531
0.771018
0.770301
0.7744226
0.7725825
0.771075
0.7703858
0.776244
0.7743411
0.7726427
0.7712836
0.7705135
0.7780949
0.776205
0.7744634
0.7729783
0.771782
0.7707496
0.7799624
0.7781299
0.7764196
0.7749467
0.7737331
0.7727237
0.7713093
0.7818326
0.7800781
0.778444
0.7770309
0.7759069
0.7750139
0.7742033
0.7723762
0.783683
0.7820161
0.7804744
0.77915
0.7781049
0.77738
0.7768607
0.7763394
0.7741841
0.7854818
0.7839026
0.7824559
0.7812174
0.7802547
0.7796079
0.7793154
0.7792472
0.7792077
0.7771929
0.7871896
0.7856868
0.7843194
0.7831523
0.7822452
0.781657
0.7814219
0.7816052
0.7821416
0.7830659
0.7834094
0.7954856
0.792983
0.8016332
0.8006841
0.7987356
0.8056193
0.805074
0.8044758
0.8030354
0.8082111
0.8077974
0.8075288
0.8072388
0.8062281
0.8097695
0.8093195
0.8091149
0.8090798
0.8090555
0.8085408
0.7727535
0.7711159
0.7703137
0.7745677
0.772753
0.7712369
0.7704163
0.776372
0.7744968
0.7728265
0.7714593
0.7705627
0.7781664
0.7762927
0.7745719
0.7731038
0.7719065
0.7708052
0.7799624
0.7781299
0.7764196
0.7749467
0.7737331
0.7727237
0.7713093
0.7817663
0.7799963
0.7783412
0.7769061
0.7757599
0.7748447
0.7740167
0.7722401
0.783572
0.7818778
0.7802995
0.7789377
0.7778568
0.7770922
0.7765183
0.775925
0.773806
0.7853613
0.7837488
0.7822596
0.7809798
0.7799795
0.7792943
0.7789471
0.7787738
0.7785382
0.7763311
0.7871044
0.7855734
0.7841728
0.7829754
0.7820427
0.7814306
0.781162
0.7812741
0.781618
0.7820005
0.7806174
0.7887625
0.7873029
0.7859762
0.7848443
0.7839655
0.7833909
0.7831768
0.7833588
0.7840469
0.7852952
0.7875433
0.7860281
0.7969684
0.795979
0.7938259
0.8025293
0.8018628
0.8011443
0.7994431
0.8062866
0.805793
0.8054357
0.8050447
0.8038422
0.8088536
0.8083666
0.8081222
0.8080405
0.8079624
0.807353
0.8104284
0.8099161
0.8096248
0.809594
0.8097523
0.8100931
0.8087708
0.7746735
0.7728842
0.771373
0.7704438
0.776516
0.7746764
0.7730427
0.7716764
0.7706266
0.7782905
0.7764468
0.7747639
0.7733273
0.7721326
0.7709059
0.7800313
0.7782148
0.7765261
0.7750754
0.7738805
0.772876
0.7713994
0.7817663
0.7799963
0.7783412
0.7769061
0.7757599
0.7748447
0.7740167
0.7722401
0.7835081
0.7817991
0.7802007
0.7788177
0.7777162
0.7769286
0.7763251
0.7756952
0.7736046
0.7852541
0.7836155
0.7820914
0.7807759
0.7797423
0.7790223
0.7786265
0.7783715
0.7780062
0.7757474
0.7869877
0.7854249
0.7839836
0.7827466
0.7817787
0.781132
0.7808159
0.7808387
0.7809927
0.7810064
0.7791407
0.7886798
0.787193
0.7858344
0.7846736
0.7837705
0.7831736
0.7829297
0.7830469
0.7835632
0.7843011
0.784911
0.7827443
0.7902924
0.7888723
0.7875829
0.7864833
0.7856284
0.7850694
0.7848516
0.7850392
0.785697
0.7870503
0.7894985
0.7897885
0.7880653
0.7981067
0.7974293
0.7967199
0.7948067
0.8033361
0.8027462
0.8022921
0.8017851
0.800318
0.8070089
0.8064521
0.8061351
0.8059677
0.8057879
0.8049898
0.8095471
0.8090026
0.8086764
0.8086068
0.8087187
0.8090066
0.8075851
0.8111448
0.8105694
0.8102088
0.8100819
0.8102314
0.8107261
0.8103071
0.8090029
0.776621
0.7748134
0.7732113
0.7718542
0.7706828
0.7784299
0.7766245
0.7749876
0.7735902
0.7724058
0.7710273
0.7801508
0.778364
0.7767145
0.7753032
0.7741427
0.7731497
0.7715596
0.7818326
0.7800781
0.778444
0.7770309
0.7759069
0.7750139
0.7742033
0.7723762
0.7835081
0.7817991
0.7802007
0.7788177
0.7777162
0.7769286
0.7763251
0.7756952
0.7736046
0.7851923
0.7835397
0.7819962
0.7806608
0.7796079
0.7788677
0.7784443
0.7781466
0.7777191
0.7754573
0.786884
0.7852961
0.7838213
0.7825505
0.7815512
0.7808729
0.7805151
0.7804661
0.7804908
0.780301
0.7782892
0.7885667
0.7870492
0.7856516
0.7844529
0.7835164
0.7828872
0.7826006
0.7826377
0.7829838
0.7833715
0.7834138
0.7809513
0.7902121
0.7887658
0.7874456
0.7863182
0.7854401
0.7848601
0.7846142
0.7847423
0.7852386
0.7861163
0.7870227
0.7867358
0.7846297
0.7917829
0.790399
0.7891438
0.7880739
0.7872413
0.7866932
0.786477
0.7866413
0.7872826
0.7885656
0.7910297
0.7916026
0.791546
0.7897331
0.7991146
0.798542
0.7981203
0.7975889
0.7958585
0.8041813
0.8035427
0.8031517
0.8028897
0.8025812
0.8015083
0.8077722
0.8071675
0.8067782
0.8066383
0.8066628
0.8068469
0.8052264
0.8102945
0.8096904
0.8092995
0.8091386
0.8092492
0.8096976
0.809222
0.8078191
0.8119017
0.8112809
0.8108511
0.8106471
0.8106902
0.8111543
0.810927
0.810523
0.8092369
0.7785317
0.7767601
0.7751607
0.7737945
0.7726231
0.771123
0.7802853
0.7785359
0.7769341
0.7755686
0.7744494
0.7734759
0.7717463
0.7819477
0.7802217
0.7786258
0.7772519
0.7761661
0.7753138
0.7745375
0.7726208
0.783572
0.7818778
0.7802995
0.7789377
0.7778568
0.7770922
0.7765183
0.775925
0.773806
0.7851923
0.7835397
0.7819962
0.7806608
0.7796079
0.7788677
0.7784443
0.7781466
0.7777191
0.7754573
0.7868242
0.7852228
0.7837296
0.7824398
0.7814225
0.7807257
0.7803445
0.7802568
0.7802187
0.7799402
0.7778917
0.7884661
0.7869245
0.7854948
0.7842638
0.7832975
0.782639
0.7823147
0.7822885
0.7825175
0.7827092
0.7825023
0.7799425
0.7901021
0.7886263
0.7872685
0.7861049
0.7851948
0.7845844
0.7842986
0.7843528
0.7846913
0.7852442
0.7856136
0.784977
0.7826306
0.7917047
0.7902955
0.7890106
0.7879139
0.7870591
0.7864909
0.7862482
0.7863558
0.7868449
0.7876761
0.7886869
0.788727
0.7883613
0.7862819
0.7932369
0.7918866
0.7906628
0.78962
0.7888078
0.7882709
0.7880514
0.7882019
0.7887975
0.7900312
0.7923614
0.7930201
0.7932455
0.7929958
0.7911419
0.8001363
0.7995291
0.7991943
0.7989296
0.7985288
0.797129
0.8050516
0.804379
0.8039288
0.8037161
0.8036322
0.8036691
0.8017533
0.8085821
0.8079246
0.8074798
0.8072578
0.8072959
0.8076535
0.8070652
0.8054649
0.8110792
0.8104328
0.8099761
0.8097426
0.8097514
0.8101764
0.8098995
0.8094392
0.8080551
0.8126917
0.8120333
0.8115527
0.8112729
0.8112303
0.811571
0.8113447
0.8111296
0.8107408
0.8094729
0.7803834
0.7786671
0.777104
0.7757733
0.7746856
0.7737319
0.771885
0.7820771
0.7803874
0.7788377
0.7775093
0.7764666
0.7756624
0.7749332
0.7729093
0.783683
0.7820161
0.7804744
0.77915
0.7781049
0.77738
0.7768607
0.7763394
0.7741841
0.7852541
0.7836155
0.7820914
0.7807759
0.7797423
0.7790223
0.7786265
0.7783715
0.7780062
0.7757474
0.7868242
0.7852228
0.7837296
0.7824398
0.7814225
0.7807257
0.7803445
0.7802568
0.7802187
0.7799402
0.7778917
0.7884081
0.7868536
0.7854062
0.784157
0.7831737
0.7824982
0.7821524
0.7820927
0.7822641
0.7823696
0.7820625
0.7794801
0.7900044
0.7885053
0.7871167
0.7859221
0.7849837
0.7843454
0.7840247
0.7840204
0.7842519
0.7846232
0.7847541
0.7839408
0.7815019
0.7915978
0.79016
0.7888388
0.7877071
0.7868218
0.7862244
0.785944
0.7859817
0.7863222
0.7868474
0.7873561
0.7870683
0.7864298
0.7841651
0.7931608
0.7917859
0.7905333
0.7894647
0.7886311
0.7880749
0.78783
0.7879264
0.7883762
0.7891794
0.7901259
0.7902959
0.7902416
0.7897928
0.7877172
0.7946572
0.7933379
0.7921432
0.7911254
0.790332
0.7898051
0.7895848
0.7897167
0.7902803
0.7914403
0.7936664
0.794259
0.7945724
0.7945968
0.7942315
0.7925375
0.8011603
0.8005329
0.8001502
0.7999579
0.7998038
0.7996736
0.7973892
0.8059576
0.8052416
0.8047486
0.8044663
0.8044173
0.8046467
0.803893
0.8019998
0.8094231
0.8087291
0.808225
0.8079393
0.8078846
0.8082332
0.8078578
0.8072853
0.8057053
0.8118947
0.811213
0.8107084
0.8104023
0.81033
0.810636
0.8103677
0.8101032
0.8096582
0.8082931
0.8135055
0.8128193
0.8122962
0.8119597
0.8118341
0.8120749
0.8117527
0.8115368
0.811334
0.8109604
0.8097608
0.7821715
0.7805138
0.7790017
0.7777081
0.7766963
0.7759279
0.7752406
0.7731222
0.7838077
0.7821755
0.7806783
0.7793974
0.7783927
0.7777113
0.7772576
0.7768353
0.7746672
0.7853613
0.7837488
0.7822596
0.7809798
0.7799795
0.7792943
0.7789471
0.7787738
0.7785382
0.7763311
0.786884
0.7852961
0.7838213
0.7825505
0.7815512
0.7808729
0.7805151
0.7804661
0.7804908
0.780301
0.7782892
0.7884081
0.7868536
0.7854062
0.784157
0.7831737
0.7824982
0.7821524
0.7820927
0.7822641
0.7823696
0.7820625
0.7794801
0.7899481
0.7884366
0.7870309
0.7858189
0.7848642
0.7842099
0.7838693
0.7838339
0.7840137
0.7843046
0.7843389
0.7834513
0.7809878
0.7915027
0.7900425
0.7886915
0.78753
0.7866175
0.7859937
0.78568
0.7856628
0.7859027
0.7862587
0.7865455
0.7860895
0.7852962
0.7829568
0.7930566
0.791654
0.7903664
0.7892641
0.7884009
0.7878169
0.7875357
0.7875655
0.7878736
0.7883861
0.7888577
0.7887263
0.7884171
0.7877597
0.7855492
0.7945829
0.7932398
0.7920172
0.7909744
0.7901604
0.7896149
0.7893701
0.7894499
0.7898736
0.7906203
0.7915242
0.7916588
0.7917246
0.7915716
0.7910429
0.7891468
0.7960459
0.7947557
0.7935879
0.7925933
0.7918173
0.7912998
0.7910784
0.7911965
0.7917247
0.7928285
0.7949364
0.7954833
0.795738
0.7958477
0.7957447
0.7954686
0.7928211
0.8022039
0.8015414
0.8011272
0.800877
0.8007823
0.8008671
0.7999083
0.7976499
0.8068848
0.8061408
0.8055969
0.8052631
0.8051341
0.8053755
0.8048555
0.8041184
0.8022478
0.8102898
0.8095652
0.8090188
0.8086668
0.8085398
0.8087781
0.8084265
0.8080637
0.8075071
0.8059475
0.8127318
0.8120244
0.8114795
0.8111196
0.8109675
0.811178
0.8108185
0.8105606
0.8103085
0.8098791
0.8085834
0.8143375
0.8136293
0.8130741
0.8126899
0.8125013
0.8126468
0.8122491
0.811936
0.8117305
0.8115401
0.8112283
0.8100559
0.7838989
0.7822972
0.7808362
0.7795885
0.7786131
0.7779617
0.7775575
0.777224
0.775069
0.7854818
0.7839026
0.7824559
0.7812174
0.7802547
0.7796079
0.7793154
0.7792472
0.7792077
0.7771929
0.7869877
0.7854249
0.7839836
0.7827466
0.7817787
0.781132
0.7808159
0.7808387
0.7809927
0.7810064
0.7791407
0.7884661
0.7869245
0.7854948
0.7842638
0.7832975
0.782639
0.7823147
0.7822885
0.7825175
0.7827092
0.7825023
0.7799425
0.7899481
0.7884366
0.7870309
0.7858189
0.7848642
0.7842099
0.7838693
0.7838339
0.7840137
0.7843046
0.7843389
0.7834513
0.7809878
0.7914479
0.7899757
0.7886083
0.78743
0.7865019
0.7858628
0.7855303
0.7854841
0.7856752
0.7859573
0.786154
0.7856266
0.7847659
0.7824068
0.7929639
0.7915398
0.7902233
0.7890922
0.7882029
0.7875935
0.7872806
0.7872578
0.7874705
0.7878226
0.7880864
0.7878011
0.7873447
0.7865593
0.7843007
0.7944813
0.7931113
0.7918547
0.7907794
0.7899369
0.7893645
0.7890848
0.7891005
0.7893883
0.789857
0.7903089
0.7901617
0.789996
0.7896484
0.7889609
0.7869805
0.7959734
0.79466
0.7934651
0.7924463
0.7916503
0.7911149
0.7908698
0.7909376
0.7913308
0.792037
0.7928748
0.7929912
0.7930191
0.7929778
0.7927289
0.7922949
0.7894373
0.7974055
0.7961421
0.7949995
0.7940264
0.7932666
0.792758
0.792536
0.792641
0.7931408
0.7941879
0.7962002
0.7966834
0.7968989
0.7969521
0.7969294
0.7968892
0.79572
0.7931028
0.8032546
0.8025713
0.8021124
0.8018225
0.8016613
0.8017846
0.801085
0.8001433
0.797911
0.8078301
0.8070618
0.8064833
0.8060914
0.8059024
0.8060464
0.8055727
0.8050656
0.8043452
0.8024974
0.8111738
0.8104275
0.8098453
0.809445
0.8092443
0.8093959
0.8089624
0.8086213
0.8082712
0.8077307
0.8062428
0.8135852
0.8128576
0.8122826
0.8118773
0.811665
0.8117833
0.8113529
0.8110025
0.8107551
0.8105156
0.8101485
0.8088809
0.8151828
0.8144579
0.8138767
0.8134557
0.8132138
0.8132856
0.8128145
0.8124248
0.8121208
0.8119258
0.8117915
0.8115028
0.810281
0.7855698
0.78402
0.7826079
0.7814012
0.7804656
0.7798455
0.7795913
0.7796101
0.7797753
0.7781578
0.7871044
0.7855734
0.7841728
0.7829754
0.7820427
0.7814306
0.781162
0.7812741
0.781618
0.7820005
0.7806174
0.7885667
0.7870492
0.7856516
0.7844529
0.7835164
0.7828872
0.7826006
0.7826377
0.7829838
0.7833715
0.7834138
0.7809513
0.7900044
0.7885053
0.7871167
0.7859221
0.7849837
0.7843454
0.7840247
0.7840204
0.7842519
0.7846232
0.7847541
0.7839408
0.7815019
0.7914479
0.7899757
0.7886083
0.78743
0.7865019
0.7858628
0.7855303
0.7854841
0.7856752
0.7859573
0.786154
0.7856266
0.7847659
0.7824068
0.7929106
0.7914748
0.7901424
0.7889952
0.7880909
0.7874667
0.7871359
0.7870854
0.787252
0.7875342
0.7877143
0.7873636
0.7868423
0.7859994
0.783732
0.794391
0.793
0.7917155
0.7906123
0.7897446
0.7891477
0.7888375
0.7888028
0.7889992
0.789315
0.78957
0.78928
0.7889805
0.7885108
0.7877237
0.7857295
0.7958742
0.7945347
0.7933068
0.7922565
0.7914329
0.7908715
0.7905927
0.7905987
0.7908609
0.7912999
0.7917051
0.7915562
0.7913693
0.7911538
0.7907563
0.7902036
0.7872718
0.7973346
0.7960487
0.7948797
0.7938831
0.793104
0.792578
0.792333
0.7923893
0.7927586
0.7934217
0.7942107
0.7942851
0.7942926
0.7942113
0.7940666
0.7938823
0.7925493
0.7897259
0.7987374
0.7974995
0.7963802
0.7954273
0.7946825
0.7941823
0.7939599
0.7940537
0.7945271
0.7955269
0.7974483
0.7978849
0.7980442
0.7980605
0.797981
0.7980062
0.7971218
0.79597
0.7933828
0.8043124
0.8036096
0.8031217
0.8027806
0.8025729
0.8026146
0.8019899
0.8013033
0.8003788
0.7981726
0.808786
0.8080016
0.8073929
0.8069601
0.8067059
0.8067759
0.8062342
0.8057712
0.8052771
0.8045734
0.8028011
0.8120704
0.8113074
0.8106989
0.8102574
0.8100021
0.8100676
0.8095724
0.809148
0.8088176
0.8084803
0.8080033
0.8065456
0.8144505
0.8137075
0.8131084
0.8126681
0.8124047
0.8124521
0.8119516
0.8115293
0.811188
0.8109512
0.8107682
0.8104246
0.8091079
0.8160384
0.8153001
0.8146984
0.8142472
0.8139635
0.8139725
0.8134474
0.8129836
0.8126021
0.8123072
0.8121641
0.812049
0.811712
0.8104343
0.7871896
0.7856868
0.7843194
0.7831523
0.7822452
0.781657
0.7814219
0.7816052
0.7821416
0.7830659
0.7834094
0.7886798
0.787193
0.7858344
0.7846736
0.7837705
0.7831736
0.7829297
0.7830469
0.7835632
0.7843011
0.784911
0.7827443
0.7901021
0.7886263
0.7872685
0.7861049
0.7851948
0.7845844
0.7842986
0.7843528
0.7846913
0.7852442
0.7856136
0.784977
0.7826306
0.7915027
0.7900425
0.7886915
0.78753
0.7866175
0.7859937
0.78568
0.7856628
0.7859027
0.7862587
0.7865455
0.7860895
0.7852962
0.7829568
0.7929106
0.7914748
0.7901424
0.7889952
0.7880909
0.7874667
0.7871359
0.7870854
0.787252
0.7875342
0.7877143
0.7873636
0.7868423
0.7859994
0.783732
0.7943389
0.7929367
0.7916368
0.790518
0.7896358
0.7890247
0.7886974
0.7886361
0.7887883
0.7890377
0.7892135
0.7888635
0.788505
0.7879796
0.7871469
0.7851594
0.795786
0.7944261
0.7931711
0.7920938
0.7912459
0.7906609
0.7903525
0.7903099
0.7904842
0.7907766
0.7909941
0.7907112
0.7904008
0.7900754
0.7895819
0.7889575
0.7860207
0.7972376
0.7959263
0.7947253
0.793698
0.7928922
0.7923411
0.7920635
0.79206
0.7923027
0.7927083
0.7930816
0.7929038
0.792711
0.7924698
0.7921943
0.7918969
0.7904565
0.7875617
0.798668
0.7974082
0.7962632
0.7952874
0.7945239
0.7940069
0.7937622
0.7938087
0.7941555
0.7947838
0.7955234
0.7955703
0.7955358
0.7954328
0.7952462
0.7951496
0.7941166
0.7928021
0.7900126
0.8000439
0.7988294
0.7977322
0.7967979
0.7960674
0.795575
0.7953527
0.7954362
0.7958863
0.7968426
0.7986859
0.7990771
0.7991968
0.7991605
0.7990446
0.7990041
0.798225
0.797353
0.7962185
0.7936611
0.8053712
0.8046563
0.8041415
0.8037657
0.8035016
0.8034848
0.8028099
0.8021957
0.801522
0.8006148
0.7984895
0.8097489
0.8089524
0.8083222
0.8078538
0.8075526
0.8075455
0.8069557
0.8064232
0.8059709
0.8054898
0.8048511
0.8031125
0.8129756
0.8122003
0.8115708
0.8110982
0.810796
0.8107962
0.8102374
0.8097503
0.8093352
0.8090155
0.8087353
0.8082826
0.8067766
0.8153245
0.8145695
0.8139513
0.8134825
0.8131792
0.813166
0.8126145
0.8121213
0.8117071
0.8113751
0.8111905
0.8110268
0.8106349
0.8092625
0.8169012
0.8161527
0.8155343
0.8150586
0.8147402
0.8146988
0.814129
0.8136106
0.8131541
0.8127808
0.8125346
0.812408
0.8122451
0.8118543
0.8105129
0.7924176
0.7887625
0.7873029
0.7859762
0.7848443
0.7839655
0.7833909
0.7831768
0.7833588
0.7840469
0.7852952
0.7875433
0.7860281
0.7902121
0.7887658
0.7874456
0.7863182
0.7854401
0.7848601
0.7846142
0.7847423
0.7852386
0.7861163
0.7870227
0.7867358
0.7846297
0.7915978
0.79016
0.7888388
0.7877071
0.7868218
0.7862244
0.785944
0.7859817
0.7863222
0.7868474
0.7873561
0.7870683
0.7864298
0.7841651
0.7929639
0.7915398
0.7902233
0.7890922
0.7882029
0.7875935
0.7872806
0.7872578
0.7874705
0.7878226
0.7880864
0.7878011
0.7873447
0.7865593
0.7843007
0.7943389
0.7929367
0.7916368
0.790518
0.7896358
0.7890247
0.7886974
0.7886361
0.7887883
0.7890377
0.7892135
0.7888635
0.788505
0.7879796
0.7871469
0.7851594
0.7957351
0.7943643
0.7930945
0.792002
0.7911401
0.7905414
0.7902164
0.7901482
0.7902801
0.7905088
0.7906512
0.7903121
0.7899476
0.789572
0.7890336
0.7883762
0.7854504
0.7971514
0.7958202
0.7945929
0.7935395
0.7927101
0.792136
0.7918299
0.7917794
0.7919373
0.7922018
0.7923951
0.7920906
0.7917825
0.7914406
0.7910799
0.7907113
0.7892088
0.7863108
0.7985731
0.7972885
0.7961123
0.7951068
0.7943174
0.793776
0.7934997
0.7934881
0.7937125
0.7940918
0.7944307
0.7942371
0.7940134
0.793763
0.7934579
0.7932635
0.7921289
0.7907082
0.7878502
0.799976
0.79874
0.7976178
0.7966613
0.7959125
0.7954038
0.7951598
0.7951974
0.7955247
0.7961208
0.7968199
0.7968378
0.796776
0.7966314
0.7964222
0.7962742
0.7953696
0.7943494
0.7930533
0.7902975
0.8013257
0.800134
0.799057
0.7981406
0.7974231
0.7969383
0.796716
0.7967906
0.7972194
0.798137
0.7999091
0.8002639
0.8003453
0.8002728
0.8001059
0.8000226
0.7992119
0.7984424
0.7975827
0.7964655
0.7939956
0.8064289
0.8057048
0.8051714
0.804764
0.8044606
0.8043776
0.8036716
0.8030056
0.8024018
0.8017411
0.8009008
0.7988144
0.8107155
0.8099106
0.8092635
0.8087687
0.8084265
0.808362
0.8077183
0.8071366
0.8066134
0.8061718
0.8057489
0.8051358
0.8033502
0.8138869
0.8131021
0.8124564
0.8119584
0.8116201
0.8115639
0.8109599
0.8104085
0.8099296
0.8095238
0.8092567
0.8089965
0.8084955
0.806934
0.8162045
0.8154406
0.8148069
0.8143151
0.8139788
0.8139171
0.8133231
0.8127782
0.8122924
0.8118864
0.8116033
0.8114354
0.8112238
0.8107781
0.8093419
0.8177696
0.8170128
0.816381
0.8158849
0.815538
0.8154541
0.8148504
0.8142868
0.8137751
0.8133261
0.8129988
0.8127673
0.8125937
0.8123784
0.8119273
0.7979511
0.7954856
0.792983
0.7902924
0.7888723
0.7875829
0.7864833
0.7856284
0.7850694
0.7848516
0.7850392
0.785697
0.7870503
0.7894985
0.7897885
0.7880653
0.7917047
0.7902955
0.7890106
0.7879139
0.7870591
0.7864909
0.7862482
0.7863558
0.7868449
0.7876761
0.7886869
0.788727
0.7883613
0.7862819
0.7930566
0.791654
0.7903664
0.7892641
0.7884009
0.7878169
0.7875357
0.7875655
0.7878736
0.7883861
0.7888577
0.7887263
0.7884171
0.7877597
0.7855492
0.794391
0.793
0.7917155
0.7906123
0.7897446
0.7891477
0.7888375
0.7888028
0.7889992
0.789315
0.78957
0.78928
0.7889805
0.7885108
0.7877237
0.7857295
0.7957351
0.7943643
0.7930945
0.792002
0.7911401
0.7905414
0.7902164
0.7901482
0.7902801
0.7905088
0.7906512
0.7903121
0.7899476
0.789572
0.7890336
0.7883762
0.7854504
0.7971017
0.7957599
0.7945182
0.79345
0.7926071
0.7920198
0.7916976
0.7916223
0.7917393
0.7919426
0.792064
0.7917065
0.7913481
0.7909604
0.7905598
0.7901575
0.7886268
0.7857406
0.7984888
0.7971849
0.7959831
0.7949521
0.7941398
0.7935762
0.7932722
0.7932151
0.7933573
0.7936005
0.7937663
0.793452
0.7931198
0.7927762
0.7923939
0.7921375
0.7909413
0.7894592
0.7865999
0.7998831
0.7986229
0.7974703
0.7964848
0.7957109
0.7951785
0.7949038
0.794885
0.7950934
0.7954484
0.7957604
0.7955477
0.7953065
0.795024
0.7947072
0.794472
0.793481
0.7923598
0.7909587
0.7881374
0.8012591
0.8000464
0.7989451
0.7980069
0.7972717
0.796771
0.7965277
0.7965576
0.796867
0.7974347
0.798097
0.7980933
0.7980033
0.7978319
0.7975816
0.7974044
0.796483
0.7955881
0.7945806
0.793303
0.79064
0.8025855
0.801414
0.8003569
0.7994566
0.7987517
0.7982738
0.7980519
0.7981183
0.7985281
0.7994103
0.8011182
0.8014407
0.8014924
0.8013853
0.8011839
0.801045
0.8002213
0.7994185
0.7986585
0.797811
0.7967627
0.7943387
0.8074832
0.8067532
0.8062047
0.8057742
0.8054355
0.8053048
0.804557
0.8038588
0.8032016
0.8026083
0.8020066
0.8011939
0.7990625
0.8116837
0.8108729
0.810213
0.8096968
0.8093235
0.8092089
0.8085286
0.8078922
0.8073186
0.8068047
0.8064165
0.8060141
0.8053529
0.8035122
0.8148016
0.8140102
0.8133514
0.8128331
0.8124649
0.8123641
0.8117222
0.8111249
0.8105809
0.8101102
0.8097538
0.8095037
0.8091954
0.8086404
0.8070148
0.817089
0.8163178
0.8156719
0.815161
0.8147976
0.814695
0.8140692
0.8134814
0.8129433
0.8124649
0.8121052
0.8118369
0.8116218
0.8113578
0.8108515
0.8186415
0.8178786
0.8172355
0.8167229
0.8163517
0.8162321
0.8156013
0.8150034
0.814446
0.8139411
0.8135359
0.8132219
0.8129444
0.8127198
0.8124466
0.8017806
0.800438
0.7982251
0.7969684
0.795979
0.7938259
0.7917829
0.790399
0.7891438
0.7880739
0.7872413
0.7866932
0.786477
0.7866413
0.7872826
0.7885656
0.7910297
0.7916026
0.791546
0.7897331
0.7931608
0.7917859
0.7905333
0.7894647
0.7886311
0.7880749
0.78783
0.7879264
0.7883762
0.7891794
0.7901259
0.7902959
0.7902416
0.7897928
0.7877172
0.7944813
0.7931113
0.7918547
0.7907794
0.7899369
0.7893645
0.7890848
0.7891005
0.7893883
0.789857
0.7903089
0.7901617
0.789996
0.7896484
0.7889609
0.7869805
0.795786
0.7944261
0.7931711
0.7920938
0.7912459
0.7906609
0.7903525
0.7903099
0.7904842
0.7907766
0.7909941
0.7907112
0.7904008
0.7900754
0.7895819
0.7889575
0.7860207
0.7971017
0.7957599
0.7945182
0.79345
0.7926071
0.7920198
0.7916976
0.7916223
0.7917393
0.7919426
0.792064
0.7917065
0.7913481
0.7909604
0.7905598
0.7901575
0.7886268
0.7857406
0.7984401
0.7971259
0.79591
0.7948648
0.7940393
0.7934629
0.7931433
0.7930622
0.793165
0.7933491
0.7934459
0.7930812
0.7927016
0.7923157
0.7918974
0.7916116
0.7903865
0.7888766
0.78603
0.7998004
0.7985215
0.797344
0.7963337
0.7955375
0.7949835
0.794682
0.794619
0.7947478
0.7949711
0.795116
0.7947879
0.7944438
0.7940741
0.7936869
0.7933964
0.7923529
0.7911704
0.7897087
0.7868881
0.801168
0.7999318
0.7988007
0.7978344
0.7970747
0.7965509
0.7962777
0.7962528
0.7964467
0.7967805
0.7970678
0.7968424
0.7965813
0.7962804
0.7959307
0.7956758
0.7946783
0.7936974
0.7925894
0.7912079
0.7884832
0.8025203
0.8013281
0.8002473
0.7993258
0.7986036
0.7981102
0.7978679
0.7978907
0.7981843
0.7987261
0.7993558
0.7993329
0.7992222
0.7990238
0.7987476
0.7985246
0.7976039
0.7966904
0.7958052
0.7948104
0.7936032
0.7909913
0.8038229
0.8026721
0.8016324
0.8007482
0.8000546
0.7995836
0.7993619
0.799421
0.7998132
0.8006634
0.8023126
0.8026072
0.8026329
0.8024997
0.8022657
0.8020887
0.8012358
0.8004187
0.7996238
0.7988732
0.7980856
0.7970672
0.7946005
0.808533
0.8077988
0.807239
0.8067896
0.8064245
0.8062512
0.8054777
0.8047368
0.8040462
0.8033979
0.8028585
0.8022786
0.8014174
0.7992316
0.8126515
0.8118371
0.8111672
0.8106341
0.8102351
0.8100813
0.80937
0.8086963
0.8080672
0.8075018
0.8070376
0.8066669
0.8062163
0.8055006
0.8035954
0.8157185
0.8149219
0.8142531
0.8137181
0.8133255
0.813187
0.8125174
0.8118818
0.8112912
0.8107547
0.8103306
0.8099891
0.8096918
0.8093307
0.8087147
0.817976
0.8171997
0.8165435
0.8160172
0.8156307
0.8154939
0.8148427
0.8142227
0.8136411
0.8131098
0.8126754
0.812329
0.8120146
0.8117485
0.8114264
0.8195163
0.8187481
0.8180962
0.8175692
0.8171778
0.8170275
0.8163753
0.8157498
0.8151577
0.8146065
0.8141435
0.8137505
0.8133915
0.8130646
0.8127844
0.8042645
0.8038926
0.8019949
0.8016332
0.8006841
0.7987356
0.7981067
0.7974293
0.7967199
0.7948067
0.7932369
0.7918866
0.7906628
0.78962
0.7888078
0.7882709
0.7880514
0.7882019
0.7887975
0.7900312
0.7923614
0.7930201
0.7932455
0.7929958
0.7911419
0.7945829
0.7932398
0.7920172
0.7909744
0.7901604
0.7896149
0.7893701
0.7894499
0.7898736
0.7906203
0.7915242
0.7916588
0.7917246
0.7915716
0.7910429
0.7891468
0.7958742
0.7945347
0.7933068
0.7922565
0.7914329
0.7908715
0.7905927
0.7905987
0.7908609
0.7912999
0.7917051
0.7915562
0.7913693
0.7911538
0.7907563
0.7902036
0.7872718
0.7971514
0.7958202
0.7945929
0.7935395
0.7927101
0.792136
0.7918299
0.7917794
0.7919373
0.7922018
0.7923951
0.7920906
0.7917825
0.7914406
0.7910799
0.7907113
0.7892088
0.7863108
0.7984401
0.7971259
0.79591
0.7948648
0.7940393
0.7934629
0.7931433
0.7930622
0.793165
0.7933491
0.7934459
0.7930812
0.7927016
0.7923157
0.7918974
0.7916116
0.7903865
0.7888766
0.78603
0.7997528
0.7984638
0.7972726
0.7962484
0.7954395
0.794873
0.7945563
0.79447
0.7945606
0.7947268
0.7948053
0.794429
0.7940401
0.7936309
0.7932108
0.7928942
0.7918259
0.7906147
0.7891255
0.7863186
0.8010871
0.7998325
0.7986771
0.7976867
0.7969052
0.7963606
0.7960612
0.7959933
0.7961099
0.796316
0.7964419
0.7961056
0.7957465
0.7953634
0.7949484
0.7946442
0.7936006
0.7925674
0.7913986
0.7899572
0.7872355
0.8024309
0.8012158
0.8001059
0.7991569
0.7984109
0.7978951
0.7976236
0.797593
0.7977742
0.7980887
0.7983547
0.7981179
0.7978435
0.7975225
0.797154
0.7968604
0.7958729
0.7948835
0.7939127
0.7928179
0.7915079
0.7888379
0.8037588
0.8025879
0.801525
0.80062
0.7999096
0.7994235
0.7991819
0.7991985
0.7994774
0.7999961
0.8005963
0.8005572
0.8004284
0.8002105
0.7999086
0.7996559
0.7987161
0.7978021
0.7968964
0.7960208
0.7950865
0.7939108
0.7912594
0.8050416
0.8039078
0.8028864
0.8020159
0.8013339
0.8008688
0.8006478
0.8006999
0.8010762
0.8018967
0.8034925
0.8037621
0.803766
0.8036103
0.8033523
0.8031398
0.8022725
0.8014254
0.8006149
0.7998277
0.7991314
0.7983669
0.7972993
0.7947789
0.8095768
0.8088405
0.8082716
0.8078073
0.8074205
0.8072145
0.8064183
0.805651
0.8049169
0.8042341
0.8036359
0.8031148
0.8024859
0.8015696
0.7993184
0.8136181
0.8128012
0.8121239
0.811577
0.8111573
0.8109705
0.8102373
0.809532
0.808865
0.8082432
0.8077248
0.8072761
0.8068577
0.8063538
0.8055764
0.8166358
0.8158359
0.8151589
0.8146105
0.8141974
0.8140275
0.8133359
0.812672
0.8120426
0.8114589
0.8109665
0.810556
0.8101682
0.8098195
0.8094
0.818865
0.8180842
0.8174202
0.8168805
0.816475
0.8163087
0.8156375
0.8149917
0.8143774
0.8138021
0.8133128
0.8128907
0.8124993
0.8121353
0.8118133
0.8203926
0.8196206
0.8189609
0.8184221
0.8180132
0.8178366
0.8171669
0.8165197
0.8158996
0.8153132
0.8148023
0.8143506
0.8139136
0.8135067
0.8131261
0.8054941
0.806143
0.8044631
0.8048904
0.804089
0.8024165
0.8025293
0.8018628
0.8011443
0.7994431
0.7991146
0.798542
0.7981203
0.7975889
0.7958585
0.7946572
0.7933379
0.7921432
0.7911254
0.790332
0.7898051
0.7895848
0.7897167
0.7902803
0.7914403
0.7936664
0.794259
0.7945724
0.7945968
0.7942315
0.7925375
0.7959734
0.79466
0.7934651
0.7924463
0.7916503
0.7911149
0.7908698
0.7909376
0.7913308
0.792037
0.7928748
0.7929912
0.7930191
0.7929778
0.7927289
0.7922949
0.7894373
0.7972376
0.7959263
0.7947253
0.793698
0.7928922
0.7923411
0.7920635
0.79206
0.7923027
0.7927083
0.7930816
0.7929038
0.792711
0.7924698
0.7921943
0.7918969
0.7904565
0.7875617
0.7984888
0.7971849
0.7959831
0.7949521
0.7941398
0.7935762
0.7932722
0.7932151
0.7933573
0.7936005
0.7937663
0.793452
0.7931198
0.7927762
0.7923939
0.7921375
0.7909413
0.7894592
0.7865999
0.7997528
0.7984638
0.7972726
0.7962484
0.7954395
0.794873
0.7945563
0.79447
0.7945606
0.7947268
0.7948053
0.794429
0.7940401
0.7936309
0.7932108
0.7928942
0.7918259
0.7906147
0.7891255
0.7863186
0.8010404
0.799776
0.7986072
0.7976033
0.7968094
0.7962526
0.7959385
0.7958481
0.7959275
0.7960783
0.79614
0.7957576
0.7953558
0.7949355
0.7944901
0.7941625
0.7930973
0.7920394
0.7908421
0.7893737
0.7866667
0.8023515
0.8011184
0.7999848
0.7990123
0.7982452
0.7977089
0.797412
0.7973396