/*--------------------------------*- C++ -*----------------------------------*\
| =========                 |                                                 |
| \\      /  F ield         | OpenFOAM: The Open Source CFD Toolbox           |
|  \\    /   O peration     | Version:  2306                                  |
|   \\  /    A nd           | Website:  www.openfoam.com                      |
|    \\/     M anipulation  |                                                 |
\*---------------------------------------------------------------------------*/
FoamFile
{
    version     2.0;
    format      ascii;
    arch        "LSB;label=32;scalar=64";
    class       volScalarField;
    location    "0.3/air";
    object      nernst;
}
// * * * * * * * * * * * * * * * * * * * * * * * * * * * * * * * * * * * * * //

dimensions      [1 2 -3 0 0 -1 0];

internalField   nonuniform List<scalar> 
16000
(
-0.629622
-0.6244947
-0.6356828
-0.6244158
-0.6217071
-0.6343204
-0.6120716
-0.6372936
-0.6343163
-0.6215642
-0.6201434
-0.6331465
-0.6045184
-0.6366977
-0.6303124
-0.6044109
-0.6386662
-0.6367394
-0.6331517
-0.619928
-0.6194214
-0.6322877
-0.6000451
-0.6361598
-0.6268257
-0.5931579
-0.6383609
-0.6350025
-0.6268028
-0.5997594
-0.6399123
-0.6384192
-0.6362606
-0.6323103
-0.619117
-0.6194214
-0.6318348
-0.5979417
-0.6357481
-0.6242601
-0.5862036
-0.6380883
-0.6334188
-0.6211876
-0.5859554
-0.6397299
-0.637562
-0.6334715
-0.6241855
-0.5973727
-0.6410671
-0.6397922
-0.6382231
-0.6359285
-0.6318866
-0.6190035
-0.639482
-0.6201434
-0.6318348
-0.5979417
-0.6355244
-0.6229032
-0.5828558
-0.6378802
-0.632199
-0.617012
-0.577181
-0.6395704
-0.6367865
-0.6308916
-0.6169152
-0.5821607
-0.6409407
-0.639305
-0.6368669
-0.632314
-0.622749
-0.5969708
-0.6421464
-0.641002
-0.6397135
-0.6381173
-0.6358101
-0.6319407
-0.6195886
-0.6393082
-0.6407793
-0.6402025
-0.6217071
-0.6322877
-0.6000451
-0.6355244
-0.6229032
-0.5828558
-0.6377671
-0.6315338
-0.6147905
-0.5728894
-0.6394506
-0.6361903
-0.6288837
-0.6114568
-0.572343
-0.6408322
-0.6388736
-0.6356202
-0.6289329
-0.6145168
-0.5814859
-0.6420462
-0.6406807
-0.6389625
-0.6363798
-0.6317296
-0.6226669
-0.5985458
-0.6431618
-0.6421047
-0.6409734
-0.6397017
-0.6381379
-0.6359523
-0.6324977
-0.6209924
-0.6389544
-0.640642
-0.640015
-0.6419685
-0.6414487
-0.6409507
-0.6244947
-0.6331465
-0.6045184
-0.6357481
-0.6242601
-0.5862036
-0.6377671
-0.6315338
-0.6147905
-0.5728894
-0.6393862
-0.6358647
-0.6277826
-0.6085367
-0.5674992
-0.6407521
-0.6385483
-0.6346501
-0.6262784
-0.6082993
-0.5714576
-0.6419612
-0.6404026
-0.6382868
-0.6347615
-0.6278843
-0.6142931
-0.5839314
-0.643075
-0.6418589
-0.6404916
-0.6387614
-0.6362026
-0.6318535
-0.6239948
-0.6023449
-0.6441211
-0.6431303
-0.6420967
-0.6410003
-0.6397777
-0.6383115
-0.6363743
-0.6335517
-0.6235612
-0.6383896
-0.6403686
-0.6396244
-0.6418437
-0.6413116
-0.6407524
-0.6430614
-0.6425674
-0.6421401
-0.6417291
-0.629622
-0.6343204
-0.6120716
-0.6361598
-0.6268257
-0.5931579
-0.6378802
-0.632199
-0.617012
-0.577181
-0.6393862
-0.6358647
-0.6277826
-0.6085367
-0.5674992
-0.6407095
-0.6383728
-0.6341166
-0.6248151
-0.6049607
-0.5665
-0.6418993
-0.6401974
-0.637771
-0.6334889
-0.6248479
-0.6079567
-0.5745404
-0.6430019
-0.6416502
-0.6400685
-0.6379037
-0.6343825
-0.6279749
-0.6163275
-0.5897638
-0.6440419
-0.6429219
-0.6417362
-0.6404123
-0.6387553
-0.6364081
-0.632728
-0.6266725
-0.609021
-0.6450304
-0.6440942
-0.6431308
-0.6421381
-0.6410966
-0.6399569
-0.6386513
-0.6370728
-0.6350868
-0.6282639
-0.6374185
-0.6399604
-0.6389704
-0.6415966
-0.6410397
-0.640335
-0.6429442
-0.6424466
-0.6420031
-0.6415234
-0.6440819
-0.6435937
-0.6431856
-0.6428539
-0.6425384
-0.6356828
-0.6244158
-0.6366977
-0.6303124
-0.6044109
-0.6380883
-0.6334188
-0.6211876
-0.5859554
-0.6394506
-0.6361903
-0.6288837
-0.6114568
-0.572343
-0.6407095
-0.6383728
-0.6341166
-0.6248151
-0.6049607
-0.5665
-0.6418666
-0.6400883
-0.6374907
-0.6327846
-0.6231686
-0.6045499
-0.5699182
-0.6429489
-0.6414991
-0.639753
-0.6372414
-0.6329399
-0.6249026
-0.6105345
-0.5818277
-0.6439753
-0.6427467
-0.6414263
-0.6398892
-0.637812
-0.6346038
-0.6292643
-0.6204802
-0.5996428
-0.6449563
-0.6439058
-0.6428288
-0.6417074
-0.6404752
-0.6389837
-0.6370242
-0.6343044
-0.6305332
-0.6200977
-0.6458947
-0.6450059
-0.6440979
-0.6431771
-0.6422398
-0.641273
-0.6402501
-0.6391643
-0.6380521
-0.6371627
-0.6339585
-0.6394285
-0.6378086
-0.6412337
-0.64064
-0.6396313
-0.6427126
-0.6422108
-0.6417322
-0.6410903
-0.6439702
-0.6434817
-0.6430681
-0.6427169
-0.642329
-0.6450508
-0.6445566
-0.6441439
-0.6438229
-0.6435896
-0.6430571
-0.6372936
-0.6343163
-0.6215642
-0.6383609
-0.6350025
-0.6268028
-0.5997594
-0.6395704
-0.6367865
-0.6308916
-0.6169152
-0.5821607
-0.6407521
-0.6385483
-0.6346501
-0.6262784
-0.6082993
-0.5714576
-0.6418666
-0.6400883
-0.6374907
-0.6327846
-0.6231686
-0.6045499
-0.5699182
-0.642921
-0.6414198
-0.6395841
-0.636879
-0.6321378
-0.6232007
-0.6074225
-0.5779613
-0.6439271
-0.6426213
-0.6412001
-0.6394949
-0.6370765
-0.6331652
-0.6265152
-0.6158142
-0.5938745
-0.6448938
-0.6437484
-0.6425727
-0.6413331
-0.6399155
-0.638074
-0.6354615
-0.6316378
-0.6263843
-0.61499
-0.6458244
-0.6448302
-0.6438267
-0.6428208
-0.6417953
-0.6407045
-0.6394666
-0.638037
-0.636473
-0.6353251
-0.6307159
-0.6467179
-0.6458716
-0.6450108
-0.644145
-0.6432785
-0.6424101
-0.6415386
-0.640669
-0.6398783
-0.6394364
-0.6390802
-0.6351272
-0.6408006
-0.6401436
-0.6384407
-0.6423742
-0.6418795
-0.6413372
-0.6403696
-0.6437494
-0.6432643
-0.6428411
-0.642446
-0.6418902
-0.6449434
-0.6444503
-0.6440363
-0.6437078
-0.6434524
-0.6428478
-0.6459719
-0.6454767
-0.6450483
-0.6447117
-0.6444786
-0.6440598
-0.6431261
-0.6386662
-0.6367394
-0.6331517
-0.619928
-0.6397299
-0.637562
-0.6334715
-0.6241855
-0.5973727
-0.6408322
-0.6388736
-0.6356202
-0.6289329
-0.6145168
-0.5814859
-0.6418993
-0.6401974
-0.637771
-0.6334889
-0.6248479
-0.6079567
-0.5745404
-0.642921
-0.6414198
-0.6395841
-0.636879
-0.6321378
-0.6232007
-0.6074225
-0.5779613
-0.6439019
-0.6425561
-0.641081
-0.6392824
-0.6366715
-0.6323626
-0.6249912
-0.6133116
-0.5910994
-0.6448487
-0.6436364
-0.6423884
-0.6410574
-0.639489
-0.6373575
-0.6342055
-0.6295081
-0.6232463
-0.6118616
-0.645765
-0.6446835
-0.6435982
-0.6425159
-0.6414044
-0.6401832
-0.6387132
-0.6369039
-0.6348359
-0.63345
-0.6282358
-0.6466507
-0.645705
-0.6447583
-0.6438269
-0.642916
-0.6420171
-0.6411165
-0.6402099
-0.6394176
-0.6391345
-0.6384171
-0.6324521
-0.6475033
-0.6466958
-0.6458769
-0.6450574
-0.644244
-0.6434422
-0.642657
-0.6419067
-0.6412516
-0.6409466
-0.6409924
-0.6397074
-0.6362939
-0.6419817
-0.6415319
-0.6408523
-0.6392247
-0.6434269
-0.6429635
-0.6425293
-0.6420513
-0.6411745
-0.6447311
-0.6442442
-0.6438299
-0.6434861
-0.6431806
-0.6424107
-0.6458681
-0.6453747
-0.6449466
-0.6446072
-0.6443648
-0.6439226
-0.6429169
-0.6468514
-0.646357
-0.645919
-0.6455565
-0.645296
-0.6449004
-0.6441228
-0.6431955
-0.6399123
-0.6384192
-0.6362606
-0.6323103
-0.619117
-0.6409407
-0.639305
-0.6368669
-0.632314
-0.622749
-0.5969708
-0.6419612
-0.6404026
-0.6382868
-0.6347615
-0.6278843
-0.6142931
-0.5839314
-0.6429489
-0.6414991
-0.639753
-0.6372414
-0.6329399
-0.6249026
-0.6105345
-0.5818277
-0.6439019
-0.6425561
-0.641081
-0.6392824
-0.6366715
-0.6323626
-0.6249912
-0.6133116
-0.5910994
-0.6448251
-0.6435784
-0.6422923
-0.6409113
-0.6392576
-0.6369608
-0.6335021
-0.6283248
-0.6215613
-0.6103558
-0.645722
-0.6445794
-0.6434351
-0.6422949
-0.6411136
-0.6397804
-0.6381089
-0.635972
-0.6334912
-0.6319788
-0.6265888
-0.6465938
-0.6455659
-0.6445462
-0.6435568
-0.6426024
-0.6416644
-0.6407104
-0.6397152
-0.6388162
-0.638537
-0.6376546
-0.6303262
-0.6474388
-0.6465366
-0.6456376
-0.6447618
-0.6439223
-0.6431284
-0.6423871
-0.6417248
-0.6412238
-0.6411703
-0.6409672
-0.6391042
-0.6340933
-0.6482536
-0.6474821
-0.6467014
-0.6459224
-0.6451534
-0.6444014
-0.6436757
-0.6429943
-0.6424172
-0.6421542
-0.6423018
-0.6415284
-0.64037
-0.637468
-0.6430539
-0.6426687
-0.6422101
-0.6415643
-0.6401048
-0.6444207
-0.64396
-0.643553
-0.6431821
-0.6427821
-0.6417059
-0.6456627
-0.6451768
-0.6447521
-0.6444078
-0.6441448
-0.6436501
-0.6424802
-0.6467507
-0.6462584
-0.6458215
-0.6454581
-0.6451933
-0.6447868
-0.6439856
-0.6429865
-0.6476917
-0.6472022
-0.6467578
-0.6463771
-0.6460803
-0.645676
-0.6449575
-0.644186
-0.6432654
-0.6410671
-0.6397922
-0.6382231
-0.6359285
-0.6318866
-0.6190035
-0.6420462
-0.6406807
-0.6389625
-0.6363798
-0.6317296
-0.6226669
-0.5985458
-0.6430019
-0.6416502
-0.6400685
-0.6379037
-0.6343825
-0.6279749
-0.6163275
-0.5897638
-0.6439271
-0.6426213
-0.6412001
-0.6394949
-0.6370765
-0.6331652
-0.6265152
-0.6158142
-0.5938745
-0.6448251
-0.6435784
-0.6422923
-0.6409113
-0.6392576
-0.6369608
-0.6335021
-0.6283248
-0.6215613
-0.6103558
-0.6456995
-0.6445257
-0.6433506
-0.6421791
-0.6409585
-0.6395601
-0.6377711
-0.6354449
-0.632736
-0.6311782
-0.6257697
-0.6465525
-0.6454672
-0.6443953
-0.6433629
-0.6423732
-0.6413977
-0.6403864
-0.6392951
-0.6382756
-0.637979
-0.6370245
-0.6288888
-0.6473841
-0.6464035
-0.6454367
-0.6445116
-0.6436465
-0.642851
-0.6421281
-0.6414981
-0.641039
-0.6410653
-0.6407819
-0.638453
-0.6322961
-0.6481916
-0.6473293
-0.6464726
-0.6456422
-0.6448549
-0.6441251
-0.6434707
-0.6429213
-0.6425542
-0.6425534
-0.6424824
-0.6414474
-0.6398078
-0.6356643
-0.6489712
-0.6482334
-0.6474879
-0.6467458
-0.6460155
-0.6453051
-0.6446242
-0.6439921
-0.6434608
-0.64322
-0.6433733
-0.6427812
-0.6420815
-0.6410529
-0.638647
-0.6440592
-0.6436852
-0.6432922
-0.6428601
-0.6422833
-0.6406819
-0.645362
-0.6449035
-0.6444927
-0.6441415
-0.643839
-0.6432487
-0.6417769
-0.6465513
-0.6460669
-0.6456351
-0.6452711
-0.6449968
-0.6445664
-0.6437131
-0.6425502
-0.6475938
-0.6471065
-0.6466636
-0.646283
-0.6459839
-0.6455736
-0.6448439
-0.6440488
-0.6430565
-0.6484962
-0.6480138
-0.6475683
-0.6471739
-0.64685
-0.6464251
-0.645728
-0.6450147
-0.6442496
-0.6433356
-0.6421464
-0.641002
-0.6397135
-0.6381173
-0.6358101
-0.6319407
-0.6195886
-0.643075
-0.6418589
-0.6404916
-0.6387614
-0.6362026
-0.6318535
-0.6239948
-0.6023449
-0.6439753
-0.6427467
-0.6414263
-0.6398892
-0.637812
-0.6346038
-0.6292643
-0.6204802
-0.5996428
-0.6448487
-0.6436364
-0.6423884
-0.6410574
-0.639489
-0.6373575
-0.6342055
-0.6295081
-0.6232463
-0.6118616
-0.6456995
-0.6445257
-0.6433506
-0.6421791
-0.6409585
-0.6395601
-0.6377711
-0.6354449
-0.632736
-0.6311782
-0.6257697
-0.6465309
-0.6454163
-0.6443173
-0.643262
-0.6422524
-0.641254
-0.6402062
-0.6390544
-0.6379597
-0.637653
-0.636674
-0.6281683
-0.6473443
-0.6463092
-0.6452939
-0.6443328
-0.6434469
-0.6426448
-0.6419236
-0.6412946
-0.6408322
-0.6408908
-0.6405791
-0.6379213
-0.6310621
-0.6481388
-0.6472015
-0.6462804
-0.6454054
-0.6445999
-0.6438831
-0.643275
-0.642803
-0.6425363
-0.6426336
-0.642508
-0.6412769
-0.6392422
-0.6341678
-0.6489115
-0.6480864
-0.6472682
-0.6464777
-0.6457324
-0.6450489
-0.6444472
-0.6439595
-0.6436494
-0.6436628
-0.6436112
-0.64287
-0.6419451
-0.6405201
-0.6371804
-0.649658
-0.6489519
-0.6482393
-0.6475312
-0.6468362
-0.6461622
-0.6455191
-0.6449249
-0.6444284
-0.6441971
-0.6443373
-0.6438121
-0.6432681
-0.6426399
-0.6417445
-0.639355
-0.6450082
-0.6446367
-0.6442536
-0.6438797
-0.6434955
-0.6427413
-0.6407583
-0.6462588
-0.6458015
-0.6453863
-0.6450235
-0.6447302
-0.6442565
-0.6433114
-0.6418484
-0.6473997
-0.6469205
-0.6464833
-0.6461042
-0.6458003
-0.6453768
-0.6446234
-0.6437763
-0.6426207
-0.6484007
-0.6479207
-0.6474769
-0.6470831
-0.646758
-0.646329
-0.6456256
-0.6449012
-0.6441124
-0.6431268
-0.6492668
-0.6487941
-0.6483508
-0.6479493
-0.6476044
-0.6471653
-0.6464728
-0.6457802
-0.6450723
-0.6443134
-0.64341
-0.6431618
-0.6421047
-0.6409734
-0.6397017
-0.6381379
-0.6359523
-0.6324977
-0.6209924
-0.6440419
-0.6429219
-0.6417362
-0.6404123
-0.6387553
-0.6364081
-0.632728
-0.6266725
-0.609021
-0.6448938
-0.6437484
-0.6425727
-0.6413331
-0.6399155
-0.638074
-0.6354615
-0.6316378
-0.6263843
-0.61499
-0.645722
-0.6445794
-0.6434351
-0.6422949
-0.6411136
-0.6397804
-0.6381089
-0.635972
-0.6334912
-0.6319788
-0.6265888
-0.6465309
-0.6454163
-0.6443173
-0.643262
-0.6422524
-0.641254
-0.6402062
-0.6390544
-0.6379597
-0.637653
-0.636674
-0.6281683
-0.6473235
-0.6462605
-0.6452202
-0.64424
-0.6433425
-0.642535
-0.6418107
-0.6411755
-0.6407029
-0.6407744
-0.6404542
-0.6376264
-0.6304389
-0.6481005
-0.6471108
-0.6461439
-0.6452364
-0.6444163
-0.6437051
-0.6431219
-0.6426888
-0.6424667
-0.6426114
-0.6424733
-0.6411041
-0.638791
-0.633128
-0.6488605
-0.6479633
-0.6470835
-0.6462512
-0.6454909
-0.6448256
-0.644279
-0.6438839
-0.643692
-0.6438078
-0.6437099
-0.6428736
-0.6417753
-0.6400221
-0.6359585
-0.6496004
-0.6488104
-0.648028
-0.6472737
-0.646565
-0.6459187
-0.6453551
-0.6449046
-0.6446249
-0.6446316
-0.6445783
-0.6439491
-0.6432732
-0.6424515
-0.6412326
-0.6380444
-0.6503156
-0.6496396
-0.648958
-0.6482818
-0.6476192
-0.6469783
-0.6463686
-0.6458072
-0.6453385
-0.6451157
-0.6452344
-0.6447443
-0.6442524
-0.6437537
-0.6431958
-0.6421873
-0.6394459
-0.6459113
-0.6455377
-0.6451556
-0.6447857
-0.6444468
-0.6438969
-0.6428034
-0.6408352
-0.6471145
-0.6466616
-0.6462417
-0.6458675
-0.6455535
-0.6451064
-0.6443131
-0.6433744
-0.6419205
-0.6482114
-0.6477394
-0.6473017
-0.6469103
-0.6465829
-0.6461454
-0.6454288
-0.6446806
-0.6438398
-0.6426916
-0.6491736
-0.6487033
-0.6482618
-0.6478611
-0.6475156
-0.6470737
-0.6463768
-0.6456778
-0.6449588
-0.6441762
-0.6432014
-0.6500059
-0.6495444
-0.6491066
-0.6487023
-0.6483441
-0.647895
-0.6472095
-0.6465208
-0.6458327
-0.6451301
-0.6443812
-0.6434781
-0.6441211
-0.6431303
-0.6420967
-0.6410003
-0.6397777
-0.6383115
-0.6363743
-0.6335517
-0.6235612
-0.6449563
-0.6439058
-0.6428288
-0.6417074
-0.6404752
-0.6389837
-0.6370242
-0.6343044
-0.6305332
-0.6200977
-0.645765
-0.6446835
-0.6435982
-0.6425159
-0.6414044
-0.6401832
-0.6387132
-0.6369039
-0.6348359
-0.63345
-0.6282358
-0.6465525
-0.6454672
-0.6443953
-0.6433629
-0.6423732
-0.6413977
-0.6403864
-0.6392951
-0.6382756
-0.637979
-0.6370245
-0.6288888
-0.6473235
-0.6462605
-0.6452202
-0.64424
-0.6433425
-0.642535
-0.6418107
-0.6411755
-0.6407029
-0.6407744
-0.6404542
-0.6376264
-0.6304389
-0.6480803
-0.647064
-0.6460734
-0.6451488
-0.6443206
-0.643611
-0.6430381
-0.6426205
-0.6424149
-0.6425808
-0.6424411
-0.6409995
-0.6385426
-0.6325995
-0.6488234
-0.647876
-0.6469524
-0.6460895
-0.6453173
-0.6446621
-0.6441485
-0.6438061
-0.6436754
-0.6438439
-0.6437386
-0.6428401
-0.6416216
-0.6396377
-0.6351032
-0.6495511
-0.6486917
-0.6478501
-0.6470559
-0.6463337
-0.6457067
-0.6452
-0.6448443
-0.6446855
-0.6447913
-0.6446973
-0.644013
-0.643247
-0.6422744
-0.6407904
-0.6369557
-0.65026
-0.6495033
-0.6487545
-0.6480339
-0.6473584
-0.6467445
-0.6462117
-0.6457888
-0.6455264
-0.6455249
-0.6454588
-0.6448854
-0.6443003
-0.6436837
-0.642958
-0.6416827
-0.6381516
-0.6509455
-0.6502982
-0.6496461
-0.6489998
-0.6483677
-0.6477574
-0.6471782
-0.6466462
-0.6462025
-0.6459873
-0.6460878
-0.6456159
-0.6451489
-0.6446877
-0.6442322
-0.6435575
-0.6422485
-0.6395368
-0.6467725
-0.6463994
-0.6460138
-0.6456402
-0.6452965
-0.6448061
-0.6439521
-0.6428657
-0.6409127
-0.6479328
-0.6474862
-0.6470658
-0.646681
-0.646348
-0.6458953
-0.645158
-0.6443699
-0.6434377
-0.6419931
-0.6489887
-0.6485263
-0.648091
-0.6476933
-0.6473467
-0.6468988
-0.6461932
-0.6454809
-0.6447381
-0.6439036
-0.6427668
-0.6499147
-0.6494556
-0.6490198
-0.6486165
-0.6482581
-0.6478066
-0.6471179
-0.6464248
-0.6457303
-0.6450165
-0.6442441
-0.6432698
-0.6507151
-0.6502662
-0.6498362
-0.6494332
-0.6490673
-0.648614
-0.6479362
-0.6472539
-0.646569
-0.6458853
-0.6451918
-0.6444432
-0.6435288
-0.6450304
-0.6440942
-0.6431308
-0.6421381
-0.6410966
-0.6399569
-0.6386513
-0.6370728
-0.6350868
-0.6282639
-0.6458244
-0.6448302
-0.6438267
-0.6428208
-0.6417953
-0.6407045
-0.6394666
-0.638037
-0.636473
-0.6353251
-0.6307159
-0.6465938
-0.6455659
-0.6445462
-0.6435568
-0.6426024
-0.6416644
-0.6407104
-0.6397152
-0.6388162
-0.638537
-0.6376546
-0.6303262
-0.6473443
-0.6463092
-0.6452939
-0.6443328
-0.6434469
-0.6426448
-0.6419236
-0.6412946
-0.6408322
-0.6408908
-0.6405791
-0.6379213
-0.6310621
-0.6480803
-0.647064
-0.6460734
-0.6451488
-0.6443206
-0.643611
-0.6430381
-0.6426205
-0.6424149
-0.6425808
-0.6424411
-0.6409995
-0.6385426
-0.6325995
-0.6488039
-0.6478308
-0.6468846
-0.6460058
-0.645227
-0.644576
-0.6440776
-0.6437586
-0.6436543
-0.6438471
-0.6437425
-0.6428122
-0.6415316
-0.639429
-0.634666
-0.6495152
-0.6486074
-0.6477238
-0.6469005
-0.6461676
-0.6455519
-0.6450803
-0.6447806
-0.6446876
-0.6448461
-0.6447476
-0.6440315
-0.6432076
-0.6421322
-0.6404633
-0.6361921
-0.6502123
-0.6493887
-0.6485831
-0.6478241
-0.6471358
-0.646541
-0.6460637
-0.6457333
-0.6455882
-0.6456808
-0.6455769
-0.6449657
-0.6443244
-0.6436244
-0.64277
-0.6412651
-0.6370767
-0.6508918
-0.6501667
-0.6494499
-0.648761
-0.6481164
-0.647532
-0.6470264
-0.6466261
-0.6463775
-0.6463675
-0.6462904
-0.6457446
-0.6452035
-0.6446572
-0.6440937
-0.643294
-0.6417446
-0.6382585
-0.6515488
-0.650929
-0.650305
-0.6496872
-0.6490838
-0.6485023
-0.6479515
-0.6474467
-0.6470261
-0.6468197
-0.6469051
-0.6464481
-0.6459921
-0.6455464
-0.6451138
-0.6445477
-0.6436091
-0.6423096
-0.6396277
-0.6475959
-0.6472252
-0.6468389
-0.6464582
-0.6461044
-0.6456227
-0.6448561
-0.6440072
-0.6429282
-0.6409906
-0.6487161
-0.6482782
-0.64786
-0.6474697
-0.6471198
-0.6466612
-0.6459427
-0.6452096
-0.6444269
-0.6435012
-0.6420701
-0.6497338
-0.6492826
-0.6488529
-0.6484529
-0.6480941
-0.647638
-0.646943
-0.6462411
-0.6455333
-0.6447957
-0.6439714
-0.6428357
-0.6506258
-0.6501794
-0.6497514
-0.6493495
-0.6489835
-0.6485284
-0.6478479
-0.6471623
-0.646473
-0.6457829
-0.6450782
-0.6443061
-0.6433206
-0.6513963
-0.6509608
-0.6505404
-0.6501417
-0.649773
-0.6493196
-0.6486527
-0.6479776
-0.6472986
-0.6466173
-0.6459418
-0.6452481
-0.6444889
-0.6435631
-0.6458947
-0.6450059
-0.6440979
-0.6431771
-0.6422398
-0.641273
-0.6402501
-0.6391643
-0.6380521
-0.6371627
-0.6339585
-0.6466507
-0.645705
-0.6447583
-0.6438269
-0.642916
-0.6420171
-0.6411165
-0.6402099
-0.6394176
-0.6391345
-0.6384171
-0.6324521
-0.6473841
-0.6464035
-0.6454367
-0.6445116
-0.6436465
-0.642851
-0.6421281
-0.6414981
-0.641039
-0.6410653
-0.6407819
-0.638453
-0.6322961
-0.6481005
-0.6471108
-0.6461439
-0.6452364
-0.6444163
-0.6437051
-0.6431219
-0.6426888
-0.6424667
-0.6426114
-0.6424733
-0.6411041
-0.638791
-0.633128
-0.6488039
-0.6478308
-0.6468846
-0.6460058
-0.645227
-0.644576
-0.6440776
-0.6437586
-0.6436543
-0.6438471
-0.6437425
-0.6428122
-0.6415316
-0.639429
-0.634666
-0.6494963
-0.6485638
-0.6476585
-0.64682
-0.6460812
-0.6454706
-0.6450155
-0.6447415
-0.644678
-0.6448612
-0.6447647
-0.6440333
-0.6431807
-0.6420526
-0.6402892
-0.6358011
-0.6501775
-0.6493073
-0.6484612
-0.6476743
-0.6469759
-0.6463925
-0.6459499
-0.645675
-0.645595
-0.6457388
-0.6456316
-0.6450018
-0.6443281
-0.6435752
-0.6426348
-0.6409644
-0.6363227
-0.6508456
-0.6500562
-0.6492845
-0.6485586
-0.6479017
-0.6473356
-0.6468833
-0.6465717
-0.6464349
-0.6465134
-0.6464007
-0.6458241
-0.6452422
-0.6446407
-0.6440011
-0.6430985
-0.6413293
-0.6371972
-0.6514969
-0.6508023
-0.6501159
-0.6494571
-0.6488415
-0.6482847
-0.6478041
-0.6474245
-0.647188
-0.6471725
-0.6470864
-0.6465603
-0.6460396
-0.6455258
-0.6450126
-0.6443748
-0.6433427
-0.6418063
-0.6383651
-0.6521266
-0.6515333
-0.6509362
-0.6503457
-0.6497696
-0.6492152
-0.6486912
-0.6482119
-0.6478134
-0.6476166
-0.6476916
-0.6472476
-0.6468009
-0.6463597
-0.6459335
-0.645398
-0.6445936
-0.6436605
-0.6423708
-0.6397186
-0.6483842
-0.6480187
-0.6476338
-0.6472495
-0.6468837
-0.6464037
-0.6456687
-0.6449061
-0.6440625
-0.6429908
-0.6410727
-0.6494668
-0.6490393
-0.6486264
-0.6482341
-0.6478736
-0.647409
-0.6467051
-0.6459902
-0.6452615
-0.6444839
-0.6435687
-0.6421407
-0.6504486
-0.65001
-0.6495881
-0.6491898
-0.6488239
-0.6483649
-0.6476793
-0.6469873
-0.6462892
-0.6455858
-0.6448572
-0.6440333
-0.6428871
-0.6513087
-0.6508757
-0.6504574
-0.65006
-0.6496913
-0.6492364
-0.6485671
-0.6478893
-0.647207
-0.6465213
-0.6458394
-0.6451345
-0.6443517
-0.643355
-0.6520505
-0.6516293
-0.65122
-0.6508281
-0.6504602
-0.6500105
-0.6493562
-0.6486916
-0.6480192
-0.6473433
-0.6466695
-0.6459934
-0.6452891
-0.6445192
-0.6435797
-0.6374185
-0.6467179
-0.6458716
-0.6450108
-0.644145
-0.6432785
-0.6424101
-0.6415386
-0.640669
-0.6398783
-0.6394364
-0.6390802
-0.6351272
-0.6474388
-0.6465366
-0.6456376
-0.6447618
-0.6439223
-0.6431284
-0.6423871
-0.6417248
-0.6412238
-0.6411703
-0.6409672
-0.6391042
-0.6340933
-0.6481388
-0.6472015
-0.6462804
-0.6454054
-0.6445999
-0.6438831
-0.643275
-0.642803
-0.6425363
-0.6426336
-0.642508
-0.6412769
-0.6392422
-0.6341678
-0.6488234
-0.647876
-0.6469524
-0.6460895
-0.6453173
-0.6446621
-0.6441485
-0.6438061
-0.6436754
-0.6438439
-0.6437386
-0.6428401
-0.6416216
-0.6396377
-0.6351032
-0.6494963
-0.6485638
-0.6476585
-0.64682
-0.6460812
-0.6454706
-0.6450155
-0.6447415
-0.644678
-0.6448612
-0.6447647
-0.6440333
-0.6431807
-0.6420526
-0.6402892
-0.6358011
-0.6501592
-0.6492652
-0.6483982
-0.6475967
-0.6468928
-0.6463145
-0.6458884
-0.6456393
-0.645589
-0.6457571
-0.6456523
-0.6450144
-0.6443256
-0.6435468
-0.6425632
-0.6408064
-0.6359365
-0.6508119
-0.6499775
-0.6491669
-0.6484141
-0.6477475
-0.6471923
-0.6467734
-0.6465153
-0.6464413
-0.6465687
-0.6464534
-0.6458635
-0.6452606
-0.6446271
-0.6439403
-0.6429651
-0.6410312
-0.6364527
-0.6514522
-0.6506956
-0.6499564
-0.6492618
-0.6486344
-0.648095
-0.6476652
-0.64737
-0.6472395
-0.6473074
-0.6471869
-0.6466331
-0.6460786
-0.6455232
-0.644957
-0.6442644
-0.6431462
-0.6413934
-0.6373173
-0.6520765
-0.6514112
-0.650754
-0.6501238
-0.649536
-0.6490053
-0.6485483
-0.6481881
-0.6479636
-0.6479452
-0.6478539
-0.6473434
-0.6468375
-0.6463374
-0.6458458
-0.6452618
-0.644417
-0.6433914
-0.6418681
-0.6384713
-0.6526798
-0.6521122
-0.651541
-0.6509765
-0.6504265
-0.6498981
-0.6493996
-0.6489445
-0.6485671
-0.6483809
-0.6484492
-0.6480189
-0.6475808
-0.6471441
-0.6467163
-0.6461945
-0.6454401
-0.6446394
-0.643712
-0.642432
-0.6398127
-0.6491398
-0.6487816
-0.648401
-0.6480159
-0.6476426
-0.6471608
-0.6464464
-0.6457146
-0.6449561
-0.6441178
-0.6430576
-0.641148
-0.6501868
-0.6497712
-0.6493657
-0.6489753
-0.6486087
-0.6481427
-0.6474501
-0.6467491
-0.6460378
-0.6453134
-0.6445449
-0.6436304
-0.6421935
-0.6511349
-0.6507097
-0.6502976
-0.6499038
-0.6495356
-0.6490773
-0.6484037
-0.6477207
-0.6470319
-0.6463374
-0.6456421
-0.6449134
-0.6440788
-0.6429218
-0.6519646
-0.651546
-0.6511387
-0.6507481
-0.6503805
-0.6499293
-0.6492729
-0.648606
-0.647931
-0.6472517
-0.6465735
-0.6458909
-0.6451754
-0.6443819
-0.6433716
-0.6526792
-0.6522728
-0.6518758
-0.6514925
-0.6511284
-0.650685
-0.6500452
-0.6493929
-0.6487307
-0.648061
-0.6473919
-0.6467172
-0.6460304
-0.6453155
-0.6445329
-0.6383896
-0.6394285
-0.6378086
-0.6475033
-0.6466958
-0.6458769
-0.6450574
-0.644244
-0.6434422
-0.642657
-0.6419067
-0.6412516
-0.6409466
-0.6409924
-0.6397074
-0.6362939
-0.6481916
-0.6473293
-0.6464726
-0.6456422
-0.6448549
-0.6441251
-0.6434707
-0.6429213
-0.6425542
-0.6425534
-0.6424824
-0.6414474
-0.6398078
-0.6356643
-0.6488605
-0.6479633
-0.6470835
-0.6462512
-0.6454909
-0.6448256
-0.644279
-0.6438839
-0.643692
-0.6438078
-0.6437099
-0.6428736
-0.6417753
-0.6400221
-0.6359585
-0.6495152
-0.6486074
-0.6477238
-0.6469005
-0.6461676
-0.6455519
-0.6450803
-0.6447806
-0.6446876
-0.6448461
-0.6447476
-0.6440315
-0.6432076
-0.6421322
-0.6404633
-0.6361921
-0.6501592
-0.6492652
-0.6483982
-0.6475967
-0.6468928
-0.6463145
-0.6458884
-0.6456393
-0.645589
-0.6457571
-0.6456523
-0.6450144
-0.6443256
-0.6435468
-0.6425632
-0.6408064
-0.6359365
-0.6507941
-0.6499369
-0.649106
-0.6483392
-0.6476672
-0.6471171
-0.6467141
-0.646481
-0.646436
-0.6465868
-0.646474
-0.645879
-0.645267
-0.6446188
-0.6439093
-0.6428965
-0.6408748
-0.6360712
-0.6514195
-0.6506196
-0.6498427
-0.6491223
-0.6484855
-0.6479566
-0.6475587
-0.6473146
-0.6472441
-0.6473585
-0.6472356
-0.6466707
-0.6461001
-0.6455225
-0.6449258
-0.6441965
-0.6430128
-0.6410978
-0.6365821
-0.6520332
-0.6513081
-0.6506
-0.6499355
-0.6493362
-0.648822
-0.6484136
-0.6481338
-0.6480098
-0.6480699
-0.6479452
-0.6474082
-0.6468719
-0.646337
-0.6458043
-0.6451859
-0.6443044
-0.6431938
-0.6414574
-0.6374368
-0.6526314
-0.6519944
-0.6513654
-0.6507628
-0.6502015
-0.6496958
-0.6492613
-0.6489199
-0.6487076
-0.6486889
-0.6485952
-0.6481002
-0.6476064
-0.6471165
-0.6466323
-0.6460737
-0.6453
-0.6444591
-0.6434401
-0.6419298
-0.6385795
-0.6532092
-0.6526664
-0.6521203
-0.651581
-0.6510561
-0.6505526
-0.6500783
-0.6496465
-0.6492894
-0.6491145
-0.6491796
-0.6487634
-0.6483355
-0.6479037
-0.6474759
-0.646959
-0.6462335
-0.645482
-0.6446852
-0.6437634
-0.6424974
-0.6398988
-0.6498646
-0.6495155
-0.6491416
-0.648759
-0.6483818
-0.6479012
-0.6472007
-0.646489
-0.6457605
-0.6450061
-0.644177
-0.6431185
-0.6412051
-0.6508779
-0.6504752
-0.6500791
-0.6496934
-0.6493251
-0.6488608
-0.6481813
-0.6474912
-0.6467933
-0.6460855
-0.6453691
-0.6446004
-0.6436754
-0.6422294
-0.651794
-0.651383
-0.650982
-0.6505952
-0.6502283
-0.6497742
-0.6491139
-0.6484425
-0.6477623
-0.6470766
-0.6463894
-0.6456935
-0.644954
-0.6441087
-0.6429386
-0.6525948
-0.652191
-0.6517961
-0.6514142
-0.6510505
-0.6506058
-0.6499641
-0.6493097
-0.6486451
-0.6479727
-0.6473003
-0.6466211
-0.6459278
-0.6452017
-0.6443955
-0.6532833
-0.6528922
-0.6525082
-0.6521352
-0.6517773
-0.6513424
-0.6507182
-0.6500801
-0.6494298
-0.6487699
-0.6481065
-0.6474362
-0.6467508
-0.6460536
-0.6453264
-0.6389544
-0.6399604
-0.6389704
-0.6408006
-0.6401436
-0.6384407
-0.6482536
-0.6474821
-0.6467014
-0.6459224
-0.6451534
-0.6444014
-0.6436757
-0.6429943
-0.6424172
-0.6421542
-0.6423018
-0.6415284
-0.64037
-0.637468
-0.6489115
-0.6480864
-0.6472682
-0.6464777
-0.6457324
-0.6450489
-0.6444472
-0.6439595
-0.6436494
-0.6436628
-0.6436112
-0.64287
-0.6419451
-0.6405201
-0.6371804
-0.6495511
-0.6486917
-0.6478501
-0.6470559
-0.6463337
-0.6457067
-0.6452
-0.6448443
-0.6446855
-0.6447913
-0.6446973
-0.644013
-0.643247
-0.6422744
-0.6407904
-0.6369557
-0.6501775
-0.6493073
-0.6484612
-0.6476743
-0.6469759
-0.6463925
-0.6459499
-0.645675
-0.645595
-0.6457388
-0.6456316
-0.6450018
-0.6443281
-0.6435752
-0.6426348
-0.6409644
-0.6363227
-0.6507941
-0.6499369
-0.649106
-0.6483392
-0.6476672
-0.6471171
-0.6467141
-0.646481
-0.646436
-0.6465868
-0.646474
-0.645879
-0.645267
-0.6446188
-0.6439093
-0.6428965
-0.6408748
-0.6360712
-0.6514023
-0.6505802
-0.649784
-0.64905
-0.648408
-0.6478839
-0.6475013
-0.6472811
-0.6472383
-0.6473752
-0.647255
-0.646686
-0.6461089
-0.6455217
-0.6449111
-0.6441635
-0.6429444
-0.640943
-0.6362054
-0.6520015
-0.6512347
-0.6504903
-0.6498008
-0.6491923
-0.6486882
-0.6483102
-0.6480791
-0.6480122
-0.6481167
-0.6479897
-0.6474424
-0.6468923
-0.6463397
-0.6457848
-0.6451449
-0.6442357
-0.6430604
-0.6411644
-0.6367109
-0.6525894
-0.6518949
-0.6512168
-0.6505811
-0.6500087
-0.6495188
-0.6491308
-0.6488661
-0.6487493
-0.6488046
-0.6486784
-0.6481574
-0.6476351
-0.6471141
-0.6465952
-0.6460123
-0.6452217
-0.6443444
-0.6432415
-0.6415213
-0.6375573
-0.6531624
-0.6525529
-0.6519512
-0.6513751
-0.6508394
-0.6503576
-0.649945
-0.6496219
-0.6494221
-0.6494052
-0.6493121
-0.6488324
-0.6483513
-0.6478703
-0.647392
-0.6468447
-0.6461092
-0.6453382
-0.6445012
-0.6434886
-0.6419956
-0.6386784
-0.6537153
-0.6531968
-0.6526751
-0.6521601
-0.6516594
-0.6511798
-0.6507289
-0.6503195
-0.6499822
-0.6498193
-0.649884
-0.6494824
-0.6490658
-0.6486412
-0.648215
-0.6477037
-0.6469957
-0.6462725
-0.6455239
-0.6447309
-0.6438189
-0.642557
-0.6399659
-0.6505603
-0.6502218
-0.6498566
-0.6494791
-0.649102
-0.6486248
-0.6479388
-0.6472406
-0.6465316
-0.6458064
-0.64506
-0.6442309
-0.6431625
-0.6412449
-0.6515415
-0.6511526
-0.6507674
-0.6503887
-0.6500222
-0.6495628
-0.6488973
-0.6482199
-0.6475324
-0.6468375
-0.646137
-0.6454198
-0.6446404
-0.6437048
-0.6422472
-0.6524272
-0.652031
-0.6516423
-0.6512642
-0.6509015
-0.6504543
-0.649809
-0.6491507
-0.6484816
-0.647804
-0.647125
-0.6464368
-0.6457301
-0.64498
-0.6441219
-0.6532003
-0.6528118
-0.65243
-0.6520584
-0.651701
-0.6512649
-0.650639
-0.649999
-0.6493466
-0.6486843
-0.6480182
-0.6473446
-0.6466546
-0.6459509
-0.6452124
-0.6538637
-0.6534882
-0.6531181
-0.6527564
-0.6524067
-0.6519819
-0.6513742
-0.6507515
-0.6501152
-0.6494669
-0.6488129
-0.6481481
-0.6474671
-0.6467713
-0.646062
-0.6393082
-0.6403686
-0.6396244
-0.6412337
-0.64064
-0.6396313
-0.6419817
-0.6415319
-0.6408523
-0.6392247
-0.6489712
-0.6482334
-0.6474879
-0.6467458
-0.6460155
-0.6453051
-0.6446242
-0.6439921
-0.6434608
-0.64322
-0.6433733
-0.6427812
-0.6420815
-0.6410529
-0.638647
-0.6496004
-0.6488104
-0.648028
-0.6472737
-0.646565
-0.6459187
-0.6453551
-0.6449046
-0.6446249
-0.6446316
-0.6445783
-0.6439491
-0.6432732
-0.6424515
-0.6412326
-0.6380444
-0.6502123
-0.6493887
-0.6485831
-0.6478241
-0.6471358
-0.646541
-0.6460637
-0.6457333
-0.6455882
-0.6456808
-0.6455769
-0.6449657
-0.6443244
-0.6436244
-0.64277
-0.6412651
-0.6370767
-0.6508119
-0.6499775
-0.6491669
-0.6484141
-0.6477475
-0.6471923
-0.6467734
-0.6465153
-0.6464413
-0.6465687
-0.6464534
-0.6458635
-0.6452606
-0.6446271
-0.6439403
-0.6429651
-0.6410312
-0.6364527
-0.6514023
-0.6505802
-0.649784
-0.64905
-0.648408
-0.6478839
-0.6475013
-0.6472811
-0.6472383
-0.6473752
-0.647255
-0.646686
-0.6461089
-0.6455217
-0.6449111
-0.6441635
-0.6429444
-0.640943
-0.6362054
-0.6519848
-0.6511966
-0.6504336
-0.6497309
-0.6491175
-0.6486179
-0.6482545
-0.6480463
-0.6480058
-0.6481318
-0.6480075
-0.6474565
-0.6469011
-0.6463412
-0.6457766
-0.6451265
-0.6442023
-0.6429923
-0.6410111
-0.6363389
-0.6525586
-0.651824
-0.6511109
-0.6504511
-0.6498698
-0.6493895
-0.6490306
-0.6488124
-0.64875
-0.6488476
-0.6487191
-0.648188
-0.6476529
-0.6471167
-0.6465797
-0.6459826
-0.6451796
-0.6442748
-0.6431081
-0.6412307
-0.63684
-0.6531217
-0.6524568
-0.6518079
-0.6511999
-0.6506535
-0.650187
-0.6498188
-0.6495691
-0.6494603