/*--------------------------------*- C++ -*----------------------------------*\
| =========                 |                                                 |
| \\      /  F ield         | OpenFOAM: The Open Source CFD Toolbox           |
|  \\    /   O peration     | Version:  2306                                  |
|   \\  /    A nd           | Website:  www.openfoam.com                      |
|    \\/     M anipulation  |                                                 |
\*---------------------------------------------------------------------------*/
FoamFile
{
    version     2.0;
    format      ascii;
    arch        "LSB;label=32;scalar=64";
    class       volScalarField;
    location    "0.3/air";
    object      O2;
}
// * * * * * * * * * * * * * * * * * * * * * * * * * * * * * * * * * * * * * //

dimensions      [0 0 0 0 0 0 0];

internalField   nonuniform List<scalar> 
16000
(
0.2300263
0.2300465
0.2288479
0.2300068
0.2300718
0.2289158
0.230036
0.2272476
0.2287562
0.2299409
0.2300923
0.229003
0.2300702
0.2273523
0.2288497
0.2299836
0.2253246
0.227114
0.2285142
0.229793
0.2301034
0.2290762
0.2300964
0.2274967
0.2289621
0.2300324
0.2254308
0.2272495
0.2286459
0.229853
0.2233745
0.2251843
0.2267828
0.2280583
0.229512
0.2301034
0.2291168
0.2301101
0.2276252
0.2290524
0.2300679
0.2255765
0.2274288
0.2288015
0.2299214
0.2234796
0.2253216
0.2269534
0.228232
0.2295933
0.2214624
0.2232354
0.2248363
0.2261969
0.2273233
0.229023
0.1944935
0.2300923
0.2291168
0.2301101
0.2276993
0.2291012
0.2300857
0.2257062
0.2275848
0.2289239
0.229971
0.2236236
0.2255019
0.227177
0.2284442
0.2296896
0.2215642
0.223371
0.2250096
0.2264016
0.2275394
0.2291306
0.2196098
0.221327
0.2228912
0.2242228
0.2253053
0.226243
0.2282202
0.1957247
0.1927252
0.1942993
0.2300718
0.2290762
0.2300964
0.2276993
0.2291012
0.2300857
0.2257811
0.2276735
0.2289888
0.2299965
0.2237518
0.2256585
0.2273702
0.2286157
0.2297632
0.2217037
0.2235488
0.2252339
0.2266667
0.2278089
0.229266
0.219708
0.2214582
0.2230612
0.2244277
0.2255415
0.2265028
0.2283645
0.2178209
0.2194794
0.2209923
0.2222868
0.2232991
0.2240639
0.2247504
0.226952
0.198212
0.1938423
0.1955259
0.1919178
0.1925448
0.1939114
0.2300465
0.229003
0.2300702
0.2276252
0.2290524
0.2300679
0.2257811
0.2276735
0.2289888
0.2299965
0.2238256
0.2257477
0.2274799
0.2287056
0.2298023
0.2218278
0.2237031
0.2254267
0.2268938
0.2280311
0.2293761
0.2198424
0.2216302
0.2232809
0.2246933
0.2258488
0.226832
0.2285572
0.2179154
0.2196058
0.2211563
0.2224857
0.2235289
0.2243298
0.2250614
0.2271676
0.216093
0.2176952
0.2191569
0.2204054
0.2213816
0.2220331
0.2224354
0.2227744
0.2249828
0.2020471
0.196094
0.1979973
0.1929719
0.1936584
0.19513
0.1913522
0.1917486
0.1921845
0.193331
0.2300263
0.2289158
0.230036
0.2274967
0.2289621
0.2300324
0.2257062
0.2275848
0.2289239
0.229971
0.2238256
0.2257477
0.2274799
0.2287056
0.2298023
0.2218994
0.2237908
0.2255358
0.2270243
0.2281527
0.2294366
0.219962
0.2217794
0.2234695
0.2249216
0.2261122
0.2271073
0.2287205
0.2180448
0.2197715
0.2213683
0.2227432
0.2238294
0.2246789
0.2254606
0.2274594
0.2161842
0.217817
0.2193148
0.2205965
0.221602
0.2222835
0.2227358
0.2231656
0.2253863
0.2144216
0.2159719
0.2173846
0.2185918
0.2195281
0.2201487
0.220403
0.2203835
0.2202254
0.2218784
0.2075898
0.1995507
0.2017726
0.1950959
0.1958975
0.1975751
0.1923528
0.1927997
0.1932921
0.19454
0.1908218
0.1911919
0.1914108
0.1916453
0.1925596
0.2288479
0.2300068
0.2273523
0.2288497
0.2299836
0.2255765
0.2274288
0.2288015
0.2299214
0.2237518
0.2256585
0.2273702
0.2286157
0.2297632
0.2218994
0.2237908
0.2255358
0.2270243
0.2281527
0.2294366
0.2200309
0.2218643
0.223576
0.2250508
0.226261
0.2272601
0.228812
0.2181599
0.2199152
0.2215501
0.2229643
0.224089
0.2249795
0.225797
0.2277054
0.2163089
0.2179764
0.2195188
0.220844
0.2218898
0.2226149
0.2231333
0.223664
0.2258717
0.2145096
0.2160893
0.2175366
0.2187756
0.219739
0.2203863
0.220679
0.2207467
0.2207946
0.2228454
0.2128014
0.2143046
0.2156725
0.2168401
0.2177477
0.2183365
0.2185719
0.2183885
0.2178519
0.2169341
0.2166153
0.2045062
0.2070231
0.1983542
0.1993044
0.2012612
0.1943684
0.1949122
0.1955104
0.1969554
0.1917775
0.1921897
0.1924566
0.1927458
0.1937588
0.1902202
0.190669
0.1908719
0.1909051
0.1909281
0.1914435
0.2272476
0.2287562
0.2299409
0.2254308
0.2272495
0.2286459
0.229853
0.2236236
0.2255019
0.227177
0.2284442
0.2296896
0.2218278
0.2237031
0.2254267
0.2268938
0.2280311
0.2293761
0.2200309
0.2218643
0.223576
0.2250508
0.226261
0.2272601
0.228812
0.2182262
0.2199969
0.221653
0.2230892
0.2242361
0.2251493
0.2259847
0.227842
0.2164199
0.2181147
0.2196937
0.2210563
0.222138
0.2229029
0.2234763
0.2240802
0.2262513
0.2146302
0.2162431
0.2177328
0.2190133
0.2200142
0.2207
0.2210474
0.2212208
0.2214658
0.2237093
0.2128867
0.214418
0.2158191
0.217017
0.2179503
0.2185628
0.2188318
0.2187197
0.2183759
0.2180008
0.2194123
0.2112283
0.2126882
0.2140153
0.2151476
0.2160268
0.2166019
0.2168164
0.2166345
0.2159462
0.2146976
0.2124538
0.2139906
0.2030206
0.2040124
0.2061784
0.1974592
0.1981245
0.1988439
0.2005524
0.1937024
0.1941947
0.1945504
0.1949411
0.1961474
0.1911363
0.191622
0.1918649
0.1919447
0.1920217
0.1926325
0.1895624
0.1900737
0.1903636
0.1903927
0.1902323
0.1898899
0.1912132
0.2253246
0.227114
0.2285142
0.229793
0.2234796
0.2253216
0.2269534
0.228232
0.2295933
0.2217037
0.2235488
0.2252339
0.2266667
0.2278089
0.229266
0.219962
0.2217794
0.2234695
0.2249216
0.2261122
0.2271073
0.2287205
0.2182262
0.2199969
0.221653
0.2230892
0.2242361
0.2251493
0.2259847
0.227842
0.2164838
0.2181934
0.2197925
0.2211763
0.2222786
0.2230667
0.2236699
0.2243109
0.2264534
0.2147373
0.2163764
0.2179011
0.2192172
0.2202515
0.2209721
0.2213681
0.2216237
0.2219991
0.2242945
0.2130033
0.2145666
0.2160083
0.2172458
0.2182143
0.2188615
0.219178
0.2191553
0.2190017
0.2189962
0.2208918
0.2113109
0.212798
0.214157
0.2153183
0.2162218
0.2168192
0.2170635
0.2169465
0.2164301
0.2156922
0.2150881
0.21728
0.2096982
0.2111185
0.2124082
0.2135081
0.2143635
0.2149229
0.2151411
0.2149537
0.2142959
0.2129421
0.210493
0.210207
0.2119487
0.2018829
0.2025596
0.203271
0.2051956
0.1966534
0.1972422
0.1976951
0.1982026
0.199676
0.1929812
0.1935368
0.1938525
0.1940182
0.1941975
0.1949983
0.1904438
0.1909872
0.1913122
0.1913801
0.1912662
0.190977
0.1924001
0.188847
0.1894214
0.1897809
0.1899063
0.1897551
0.1892582
0.1896757
0.190981
0.2233745
0.2251843
0.2267828
0.2280583
0.229512
0.2215642
0.223371
0.2250096
0.2264016
0.2275394
0.2291306
0.2198424
0.2216302
0.2232809
0.2246933
0.2258488
0.226832
0.2285572
0.2181599
0.2199152
0.2215501
0.2229643
0.224089
0.2249795
0.225797
0.2277054
0.2164838
0.2181934
0.2197925
0.2211763
0.2222786
0.2230667
0.2236699
0.2243109
0.2264534
0.2147991
0.2164522
0.2179963
0.2193323
0.2203859
0.2211267
0.2215504
0.2218488
0.2222868
0.2245854
0.2131071
0.2146953
0.2161706
0.2174419
0.2184418
0.2191207
0.2194788
0.219528
0.2195041
0.2197027
0.2217449
0.2114241
0.2129419
0.2143399
0.215539
0.216476
0.2171056
0.2173926
0.2173557
0.2170096
0.2166223
0.2165867
0.2190761
0.2097785
0.211225
0.2125455
0.2136732
0.2145518
0.2151322
0.2153784
0.2152506
0.2147543
0.2138764
0.2129697
0.2132619
0.2153899
0.2082076
0.2095916
0.210847
0.2119173
0.2127502
0.2132987
0.2135152
0.2133512
0.21271
0.2114268
0.2089617
0.2083882
0.2084482
0.210277
0.2008757
0.2014475
0.2018683
0.2024014
0.2041415
0.1958092
0.1964468
0.1968367
0.1970972
0.197406
0.1984837
0.1922189
0.1928226
0.1932107
0.1933491
0.1933228
0.1931378
0.1947613
0.1896973
0.1903005
0.1906903
0.1908499
0.1907376
0.190287
0.1907615
0.1921659
0.188091
0.1887109
0.1891397
0.1893426
0.189298
0.188832
0.1890572
0.1894597
0.1907467
0.2214624
0.2232354
0.2248363
0.2261969
0.2273233
0.229023
0.219708
0.2214582
0.2230612
0.2244277
0.2255415
0.2265028
0.2283645
0.2180448
0.2197715
0.2213683
0.2227432
0.2238294
0.2246789
0.2254606
0.2274594
0.2164199
0.2181147
0.2196937
0.2210563
0.222138
0.2229029
0.2234763
0.2240802
0.2262513
0.2147991
0.2164522
0.2179963
0.2193323
0.2203859
0.2211267
0.2215504
0.2218488
0.2222868
0.2245854
0.2131669
0.2147686
0.2162623
0.2175527
0.2185706
0.2192679
0.2196495
0.2197373
0.2197764
0.220064
0.2221431
0.2115247
0.2130665
0.2144967
0.2157281
0.2166948
0.2173538
0.2176786
0.217705
0.2174761
0.2172851
0.2174993
0.2200866
0.2098884
0.2113645
0.2127226
0.2138865
0.214797
0.2154079
0.2156941
0.2156401
0.2153017
0.2147487
0.2143794
0.2150222
0.2173921
0.2082857
0.2096951
0.2109802
0.2120773
0.2129324
0.213501
0.213744
0.2136367
0.2131477
0.2123164
0.2113052
0.2112649
0.2116352
0.2137334
0.2067535
0.2081038
0.2093279
0.2103709
0.2111834
0.2117207
0.2119405
0.2117903
0.2111948
0.209961
0.2076303
0.2069708
0.2067447
0.2069973
0.208865
0.1998547
0.2004612
0.200795
0.2010587
0.2014608
0.2028685
0.1949396
0.1956114
0.1960607
0.1962721
0.1963545
0.1963174
0.1982384
0.1914098
0.1920664
0.1925102
0.192731
0.1926914
0.1923318
0.1929194
0.1945226
0.1889134
0.189559
0.1900148
0.1902472
0.1902369
0.1898101
0.190085
0.1905441
0.1919296
0.1873017
0.1879594
0.1884391
0.1887179
0.1887593
0.188417
0.1886415
0.1888545
0.1892418
0.1905106
0.2196098
0.221327
0.2228912
0.2242228
0.2253053
0.226243
0.2282202
0.2179154
0.2196058
0.2211563
0.2224857
0.2235289
0.2243298
0.2250614
0.2271676
0.2163089
0.2179764
0.2195188
0.220844
0.2218898
0.2226149
0.2231333
0.223664
0.2258717
0.2147373
0.2163764
0.2179011
0.2192172
0.2202515
0.2209721
0.2213681
0.2216237
0.2219991
0.2242945
0.2131669
0.2147686
0.2162623
0.2175527
0.2185706
0.2192679
0.2196495
0.2197373
0.2197764
0.220064
0.2221431
0.2115827
0.2131374
0.2145852
0.2158349
0.2168187
0.2174947
0.2178409
0.2179009
0.2177296
0.2176249
0.2179395
0.2205498
0.2099861
0.2114854
0.2128744
0.2140694
0.2150082
0.2156468
0.215968
0.2159726
0.2157412
0.2153699
0.2152393
0.2160594
0.2185225
0.2083926
0.2098306
0.211152
0.212284
0.2131697
0.2137674
0.2140482
0.2140108
0.2136704
0.2131452
0.2126362
0.2129242
0.2135681
0.2158533
0.2068295
0.2082045
0.2094573
0.2105262
0.2113601
0.2119166
0.2121619
0.2120658
0.2116161
0.2108129
0.2098661
0.2096957
0.2097497
0.2102024
0.2122944
0.2053331
0.2066524
0.2078473
0.2088653
0.209659
0.2101862
0.2104068
0.2102752
0.2097118
0.2085519
0.2063254
0.2057323
0.2054181
0.2053929
0.2057606
0.2074659
0.1988312
0.199458
0.19984
0.2000312
0.2001842
0.200315
0.2026077
0.1940343
0.1947496
0.1952418
0.195523
0.1955706
0.1953397
0.1960933
0.1979915
0.1905696
0.1912627
0.191766
0.1920507
0.1921041
0.1917538
0.1921275
0.1926991
0.194282
0.1880987
0.1887797
0.1892835
0.1895886
0.1896597
0.1893522
0.1896188
0.1898813
0.190325
0.1916915
0.1864887
0.1871742
0.1876965
0.1880321
0.1881567
0.1879146
0.1882353
0.1884494
0.1886501
0.1890221
0.1902224
0.2178209
0.2194794
0.2209923
0.2222868
0.2232991
0.2240639
0.2247504
0.226952
0.2161842
0.217817
0.2193148
0.2205965
0.221602
0.2222835
0.2227358
0.2231656
0.2253863
0.2146302
0.2162431
0.2177328
0.2190133
0.2200142
0.2207
0.2210474
0.2212208
0.2214658
0.2237093
0.2131071
0.2146953
0.2161706
0.2174419
0.2184418
0.2191207
0.2194788
0.219528
0.2195041
0.2197027
0.2217449
0.2115827
0.2131374
0.2145852
0.2158349
0.2168187
0.2174947
0.2178409
0.2179009
0.2177296
0.2176249
0.2179395
0.2205498
0.2100424
0.2115542
0.2129602
0.2141726
0.2151277
0.2157824
0.2161234
0.2161591
0.2159794
0.2156885
0.2156548
0.2165493
0.2190375
0.2084877
0.209948
0.2112992
0.2124611
0.213374
0.2139981
0.2143122
0.2143297
0.21409
0.213734
0.213447
0.2139034
0.2147026
0.2170633
0.2069337
0.2083364
0.2096242
0.2107268
0.2115902
0.2121746
0.2124561
0.2124267
0.2121188
0.2116063
0.2111345
0.2112657
0.2115748
0.2122369
0.2144653
0.2054073
0.2067505
0.2079732
0.2090163
0.2098306
0.2103764
0.2106215
0.210542
0.2101185
0.2093719
0.2084679
0.2083329
0.2082666
0.2084192
0.2089513
0.2108609
0.2039444
0.2052346
0.2064025
0.2073973
0.2081736
0.2086913
0.2089131
0.2087952
0.2082673
0.2071636
0.2050555
0.2045082
0.204253
0.2041425
0.2042446
0.2045225
0.2071817
0.1977881
0.1984501
0.1988637
0.199113
0.1992066
0.1991205
0.2000803
0.2023466
0.1931078
0.1938511
0.1943943
0.1947272
0.1948551
0.1946123
0.1951308
0.1958678
0.1977432
0.1897035
0.1904274
0.190973
0.1913242
0.1914501
0.1912104
0.1915605
0.1919215
0.1924772
0.1940395
0.1872623
0.1879691
0.1885132
0.1888722
0.1890233
0.1888116
0.1891697
0.1894258
0.1896759
0.190104
0.1914009
0.1856574
0.1863649
0.1869194
0.1873029
0.1874905
0.1873439
0.1877403
0.188052
0.1882557
0.188444
0.1887541
0.1899271
0.216093
0.2176952
0.2191569
0.2204054
0.2213816
0.2220331
0.2224354
0.2227744
0.2249828
0.2145096
0.2160893
0.2175366
0.2187756
0.219739
0.2203863
0.220679
0.2207467
0.2207946
0.2228454
0.2130033
0.2145666
0.2160083
0.2172458
0.2182143
0.2188615
0.219178
0.2191553
0.2190017
0.2189962
0.2208918
0.2115247
0.2130665
0.2144967
0.2157281
0.2166948
0.2173538
0.2176786
0.217705
0.2174761
0.2172851
0.2174993
0.2200866
0.2100424
0.2115542
0.2129602
0.2141726
0.2151277
0.2157824
0.2161234
0.2161591
0.2159794
0.2156885
0.2156548
0.2165493
0.2190375
0.2085424
0.2100148
0.2113824
0.2125611
0.2134896
0.214129
0.2144619
0.2145085
0.2143175
0.2140355
0.2138386
0.2143666
0.2152334
0.2176141
0.2070263
0.2084506
0.2097673
0.2108986
0.2117882
0.212398
0.2127113
0.2127344
0.2125219
0.2121698
0.211906
0.2121911
0.2126477
0.2134383
0.2157154
0.2055089
0.206879
0.2081357
0.2092113
0.210054
0.2106268
0.2109067
0.2108914
0.2106038
0.2101353
0.2096832
0.2098303
0.2099957
0.2103431
0.2110346
0.2130299
0.2040168
0.2053303
0.2065253
0.2075442
0.2083405
0.2088762
0.2091216
0.2090541
0.2086612
0.2079551
0.2071173
0.2070007
0.2069724
0.2070131
0.2072615
0.2076981
0.2105698
0.2025848
0.2038482
0.2049909
0.2059641
0.2067241
0.207233
0.2074553
0.2073506
0.2068511
0.2058042
0.2037918
0.2033084
0.2030925
0.2030387
0.2030604
0.2030997
0.2042709
0.2068994
0.1967378
0.1974207
0.197879
0.1981682
0.1983285
0.1982041
0.1989025
0.199845
0.2020851
0.192163
0.1929307
0.1935086
0.1938997
0.1940878
0.1939426
0.194415
0.1949206
0.1956409
0.1974934
0.1888202
0.1895658
0.1901473
0.1905468
0.1907466
0.1905939
0.1910261
0.1913657
0.1917139
0.1922535
0.1937439
0.1864096
0.1871365
0.1877108
0.1881154
0.1883269
0.1882075
0.1886367
0.1889856
0.1892313
0.1894688
0.1898344
0.1911032
0.1848127
0.1855371
0.1861175
0.1865379
0.186779
0.1867062
0.1871762
0.1875646
0.1878671
0.1880603
0.1881924
0.1884795
0.1897019
0.2144216
0.2159719
0.2173846
0.2185918
0.2195281
0.2201487
0.220403
0.2203835
0.2202254
0.2218784
0.2128867
0.214418
0.2158191
0.217017
0.2179503
0.2185628
0.2188318
0.2187197
0.2183759
0.2180008
0.2194123
0.2114241
0.2129419
0.2143399
0.215539
0.216476
0.2171056
0.2173926
0.2173557
0.2170096
0.2166223
0.2165867
0.2190761
0.2099861
0.2114854
0.2128744
0.2140694
0.2150082
0.2156468
0.215968
0.2159726
0.2157412
0.2153699
0.2152393
0.2160594
0.2185225
0.2085424
0.2100148
0.2113824
0.2125611
0.2134896
0.214129
0.2144619
0.2145085
0.2143175
0.2140355
0.2138386
0.2143666
0.2152334
0.2176141
0.2070797
0.2085156
0.2098481
0.2109956
0.2119003
0.2125247
0.2128559
0.2129068
0.2127403
0.2124583
0.2122781
0.2126287
0.2131504
0.2139987
0.216285
0.2055993
0.2069903
0.2082749
0.2093783
0.2102463
0.2108435
0.211154
0.2111891
0.210993
0.2106772
0.2104223
0.2107121
0.2110114
0.2114811
0.2122727
0.2142824
0.2041161
0.2054556
0.2066836
0.2077341
0.2085579
0.2091195
0.2093987
0.209393
0.2091311
0.2086922
0.208287
0.2084358
0.2086224
0.2088376
0.2092348
0.2097907
0.2127378
0.2026557
0.2039416
0.2051106
0.2061074
0.2068867
0.207413
0.2076582
0.2076022
0.2072333
0.2065703
0.2057814
0.2057069
0.2056991
0.2057799
0.205924
0.2061077
0.2074435
0.2102805
0.201253
0.2024908
0.2036102
0.2045632
0.2053082
0.2058086
0.2060313
0.2059378
0.2054648
0.2044652
0.2025439
0.2021072
0.2019475
0.2019307
0.2020095
0.2019834
0.202867
0.2040207
0.2066189
0.1956804
0.1963828
0.1968703
0.1972108
0.1974177
0.1973751
0.1979987
0.1986841
0.1996094
0.2018232
0.1912077
0.1919915
0.1925997
0.1930318
0.1932852
0.1932143
0.1937548
0.1942165
0.194709
0.1954125
0.1971893
0.1879241
0.1886865
0.1892944
0.1897352
0.1899898
0.1899233
0.1904174
0.1908404
0.1911693
0.1915047
0.1919808
0.1934409
0.185545
0.1862873
0.1868858
0.1873254
0.187588
0.1875397
0.1880392
0.1884603
0.1888001
0.1890351
0.1892161
0.1895583
0.190876
0.1839577
0.1846955
0.1852966
0.1857471
0.1860301
0.1860203
0.1865444
0.1870071
0.1873874
0.1876807
0.187822
0.1879349
0.1882702
0.1895485
0.2128014
0.2143046
0.2156725
0.2168401
0.2177477
0.2183365
0.2185719
0.2183885
0.2178519
0.2169341
0.2166153
0.2113109
0.212798
0.214157
0.2153183
0.2162218
0.2168192
0.2170635
0.2169465
0.2164301
0.2156922
0.2150881
0.21728
0.2098884
0.2113645
0.2127226
0.2138865
0.214797
0.2154079
0.2156941
0.2156401
0.2153017
0.2147487
0.2143794
0.2150222
0.2173921
0.2084877
0.209948
0.2112992
0.2124611
0.213374
0.2139981
0.2143122
0.2143297
0.21409
0.213734
0.213447
0.2139034
0.2147026
0.2170633
0.2070797
0.2085156
0.2098481
0.2109956
0.2119003
0.2125247
0.2128559
0.2129068
0.2127403
0.2124583
0.2122781
0.2126287
0.2131504
0.2139987
0.216285
0.2056513
0.2070536
0.2083535
0.2094726
0.2103551
0.2109665
0.2112942
0.2113558
0.2112038
0.2109546
0.2107787
0.2111287
0.211487
0.2120126
0.21285
0.2148532
0.2042042
0.2055641
0.2068192
0.2078967
0.2087449
0.2093301
0.2096388
0.2096817
0.2095077
0.2092154
0.2089981
0.2092809
0.2095911
0.2099162
0.2104096
0.2110377
0.2139904
0.2027526
0.204064
0.205265
0.2062924
0.2070984
0.2076499
0.2079277
0.2079316
0.2076891
0.2072837
0.2069105
0.2070882
0.2072809
0.2075218
0.2077968
0.2080938
0.2095375
0.2124472
0.2013224
0.2025822
0.2037272
0.204703
0.2054668
0.205984
0.206229
0.2061828
0.2058363
0.2052082
0.2044688
0.2044217
0.2044561
0.2045587
0.2047449
0.2048407
0.2058733
0.2071905
0.2099932
0.1999467
0.2011611
0.2022582
0.2031926
0.2039233
0.2044159
0.2046385
0.2045553
0.2041056
0.2031495
0.2013065
0.2009152
0.2007952
0.2008311
0.2009465
0.2009863
0.2017646
0.2026358
0.203772
0.2063402
0.194622
0.1953366
0.1958509
0.1962263
0.1964897
0.1965058
0.1971798
0.1977929
0.1984653
0.1993733
0.2015059
0.1902453
0.1910413
0.1916709
0.1921388
0.1924393
0.1924456
0.1930345
0.1935658
0.1940167
0.1944962
0.1951346
0.1968776
0.1870195
0.1877942
0.1884231
0.1888952
0.1891966
0.1891956
0.1897535
0.1902395
0.1906532
0.1909714
0.1912496
0.1917013
0.1932097
0.1846715
0.1854259
0.1860435
0.1865117
0.1868143
0.1868267
0.1873773
0.1878695
0.1882824
0.1886129
0.1887958
0.1889574
0.1893478
0.1907213
0.1830955
0.1838435
0.1844614
0.1849364
0.1852542
0.1852949
0.1858638
0.1863812
0.1868366
0.1872086
0.1874532
0.187578
0.1877387
0.1881278
0.1894698
0.2075898
0.2112283
0.2126882
0.2140153
0.2151476
0.2160268
0.2166019
0.2168164
0.2166345
0.2159462
0.2146976
0.2124538
0.2139906
0.2097785
0.211225
0.2125455
0.2136732
0.2145518
0.2151322
0.2153784
0.2152506
0.2147543
0.2138764
0.2129697
0.2132619
0.2153899
0.2083926
0.2098306
0.211152
0.212284
0.2131697
0.2137674
0.2140482
0.2140108
0.2136704
0.2131452
0.2126362
0.2129242
0.2135681
0.2158533
0.2070263
0.2084506
0.2097673
0.2108986
0.2117882
0.212398
0.2127113
0.2127344
0.2125219
0.2121698
0.211906
0.2121911
0.2126477
0.2134383
0.2157154
0.2056513
0.2070536
0.2083535
0.2094726
0.2103551
0.2109665
0.2112942
0.2113558
0.2112038
0.2109546
0.2107787
0.2111287
0.211487
0.2120126
0.21285
0.2148532
0.2042551
0.2056259
0.2068958
0.2079884
0.2088506
0.2094496
0.2097749
0.2098434
0.2097118
0.2094833
0.209341
0.2096801
0.2100444
0.2104198
0.2109582
0.2116193
0.2145614
0.2028388
0.20417
0.2053973
0.2064509
0.2072805
0.2078548
0.2081612
0.2082121
0.2080545
0.2077902
0.207597
0.2079015
0.2082094
0.2085511
0.2089114
0.2092798
0.2107861
0.2136996
0.2014172
0.2027018
0.203878
0.2048836
0.2056732
0.2062149
0.2064915
0.2065033
0.2062793
0.2059002
0.2055614
0.205755
0.2059786
0.2062288
0.2065335
0.2067273
0.2078617
0.2092856
0.2121581
0.2000145
0.2012505
0.2023726
0.2033292
0.2040782
0.2045871
0.2048313
0.2047941
0.2044671
0.2038713
0.2031723
0.2031543
0.203216
0.2033604
0.2035692
0.2037166
0.2046207
0.2056404
0.206939
0.2097077
0.198665
0.1998566
0.2009335
0.20185
0.2025677
0.2030527
0.2032752
0.2032009
0.2027725
0.2018552
0.2000835
0.1997286
0.199647
0.1997192
0.1998856
0.1999684
0.2007784
0.2015471
0.202406
0.2035248
0.2060051
0.1935647
0.1942884
0.1948214
0.1952285
0.1955314
0.1956137
0.1963189
0.1969841
0.1975867
0.1982462
0.1990871
0.2011805
0.1892792
0.1900836
0.1907302
0.1912245
0.1915661
0.1916299
0.1922728
0.1928535
0.1933756
0.1938157
0.1942371
0.1948498
0.1966397
0.1861088
0.186893
0.1875382
0.1880357
0.1883733
0.1884288
0.1890319
0.1895824
0.1900602
0.1904646
0.1907301
0.1909884
0.1914883
0.1930522
0.1837921
0.1845554
0.1851886
0.1856798
0.1860155
0.1860765
0.1866697
0.1872136
0.1876984
0.1881031
0.1883847
0.1885508
0.1887603
0.1892046
0.1906419
0.1822277
0.1829841
0.1836153
0.1841108
0.1844571
0.1845404
0.1851432
0.185706
0.1862167
0.1866646
0.1869906
0.1872205
0.1873923
0.1876054
0.1880549
0.2020471
0.2045062
0.2070231
0.2096982
0.2111185
0.2124082
0.2135081
0.2143635
0.2149229
0.2151411
0.2149537
0.2142959
0.2129421
0.210493
0.210207
0.2119487
0.2082857
0.2096951
0.2109802
0.2120773
0.2129324
0.213501
0.213744
0.2136367
0.2131477
0.2123164
0.2113052
0.2112649
0.2116352
0.2137334
0.2069337
0.2083364
0.2096242
0.2107268
0.2115902
0.2121746
0.2124561
0.2124267
0.2121188
0.2116063
0.2111345
0.2112657
0.2115748
0.2122369
0.2144653
0.2055993
0.2069903
0.2082749
0.2093783
0.2102463
0.2108435
0.211154
0.2111891
0.210993
0.2106772
0.2104223
0.2107121
0.2110114
0.2114811
0.2122727
0.2142824
0.2042551
0.2056259
0.2068958
0.2079884
0.2088506
0.2094496
0.2097749
0.2098434
0.2097118
0.2094833
0.209341
0.2096801
0.2100444
0.2104198
0.2109582
0.2116193
0.2145614
0.2028885
0.2042303
0.2054721
0.2065403
0.2073835
0.2079711
0.2082936
0.2083692
0.2082525
0.2080494
0.2079281
0.2082856
0.208644
0.2090314
0.2094317
0.2098338
0.2113685
0.2142704
0.2015016
0.2028054
0.2040072
0.2050382
0.2058508
0.2064146
0.2067189
0.2067763
0.2066343
0.2063914
0.2062258
0.2065401
0.2068722
0.2072156
0.2075976
0.2078536
0.2090497
0.2105354
0.2134098
0.2001074
0.2013675
0.20252
0.2035056
0.2042797
0.2048123
0.2050873
0.2051064
0.2048983
0.2045435
0.2042318
0.2044445
0.2046855
0.2049679
0.2052844
0.2055191
0.2065097
0.2076307
0.209035
0.2118703
0.1987315
0.1999441
0.2010454
0.2019836
0.202719
0.2032199
0.2034635
0.2034339
0.2031248
0.2025574
0.2018953
0.201899
0.2019889
0.2021601
0.2024101
0.2025869
0.2035078
0.2044021
0.2054091
0.2066892
0.2093647
0.1974054
0.1985768
0.1996338
0.2005341
0.2012391
0.2017172
0.2019393
0.2018733
0.2014639
0.2005821
0.1988745
0.198552
0.1985002
0.1986071
0.1988081
0.1989465
0.1997697
0.2005718
0.201331
0.2021775
0.2032275
0.2056616
0.1925107
0.1932405
0.1937886
0.1942187
0.194557
0.1946872
0.1954342
0.1961318
0.196788
0.1973802
0.1979805
0.1987938
0.2009322
0.1883114
0.1891218
0.1897812
0.190297
0.1906698
0.1907837
0.1914633
0.1920989
0.1926715
0.1931842
0.193571
0.1939717
0.1946327
0.1964776
0.1851946
0.1859855
0.1866438
0.1871616
0.1875292
0.1876294
0.1882705
0.1888669
0.18941
0.1898795
0.1902346
0.190483
0.1907894
0.1913434
0.1929713
0.1829081
0.1836788
0.1843242
0.1848345
0.1851974
0.1852994
0.1859244
0.1865113
0.1870485
0.1875258
0.1878843
0.1881511
0.1883644
0.1886263
0.1891312
0.1813564
0.1821188
0.1827613
0.1832735
0.1836441
0.1837631
0.1843932
0.1849903
0.1855468
0.1860507
0.1864548
0.1867675
0.1870434
0.1872661
0.1875371
0.198212
0.1995507
0.2017726
0.2030206
0.2040124
0.2061784
0.2082076
0.2095916
0.210847
0.2119173
0.2127502
0.2132987
0.2135152
0.2133512
0.21271
0.2114268
0.2089617
0.2083882
0.2084482
0.210277
0.2068295
0.2082045
0.2094573
0.2105262
0.2113601
0.2119166
0.2121619
0.2120658
0.2116161
0.2108129
0.2098661
0.2096957
0.2097497
0.2102024
0.2122944
0.2055089
0.206879
0.2081357
0.2092113
0.210054
0.2106268
0.2109067
0.2108914
0.2106038
0.2101353
0.2096832
0.2098303
0.2099957
0.2103431
0.2110346
0.2130299
0.2042042
0.2055641
0.2068192
0.2078967
0.2087449
0.2093301
0.2096388
0.2096817
0.2095077
0.2092154
0.2089981
0.2092809
0.2095911
0.2099162
0.2104096
0.2110377
0.2139904
0.2028885
0.2042303
0.2054721
0.2065403
0.2073835
0.2079711
0.2082936
0.2083692
0.2082525
0.2080494
0.2079281
0.2082856
0.208644
0.2090314
0.2094317
0.2098338
0.2113685
0.2142704
0.2015502
0.2028643
0.2040802
0.2051255
0.2059512
0.2065279
0.2068478
0.2069291
0.2068267
0.2066428
0.2065462
0.2069109
0.2072904
0.2076762
0.2080942
0.2083796
0.2096047
0.2111185
0.2139804
0.20019
0.2014689
0.2026463
0.2036566
0.204453
0.2050072
0.205309
0.2053724
0.2052438
0.2050208
0.204876
0.2052042
0.2055482
0.2059178
0.2063048
0.2065949
0.2076381
0.2088205
0.2102858
0.2131211
0.1988226
0.2000587
0.2011897
0.2021561
0.2029159
0.2034399
0.2037134
0.2037386
0.203545
0.2032115
0.2029243
0.2031498
0.2034108
0.2037117
0.2040611
0.2043157
0.2053128
0.2062933
0.2074009
0.2087856
0.211524
0.1974706
0.1986626
0.1997434
0.2006649
0.2013871
0.2018807
0.2021233
0.2021008
0.2018076
0.2012661
0.2006366
0.2006596
0.2007702
0.2009685
0.2012444
0.2014671
0.2023874
0.2033003
0.204185
0.2051792
0.2063888
0.2090129
0.1961683
0.1973188
0.1983584
0.1992427
0.1999363
0.2004075
0.2006295
0.2005707
0.2001789
0.1993291
0.1976803
0.1973858
0.1973599
0.197493
0.1977266
0.1979033
0.1987557
0.1995722
0.2003665
0.2011162
0.2019029
0.2029228
0.2053995
0.1914614
0.1921953
0.1927548
0.1932038
0.1935685
0.1937413
0.1945142
0.1952544
0.1959442
0.1965916
0.1971299
0.1977085
0.1985702
0.200763
0.1873441
0.1881581
0.1888275
0.1893602
0.1897587
0.189912
0.1906227
0.1912956
0.1919239
0.1924883
0.1929512
0.1933205
0.1937695
0.1944848
0.1963943
0.1842783
0.1850744
0.1857427
0.1862772
0.1866692
0.1868072
0.1874761
0.1881109
0.1887006
0.1892362
0.1896592
0.1899992
0.1902949
0.190654
0.191269
0.1820217
0.1827975
0.1834531
0.183979
0.1843649
0.1845012
0.1851517
0.1857709
0.1863517
0.186882
0.1873153
0.1876604
0.1879733
0.1882376
0.1885577
0.1804822
0.1812499
0.1819013
0.1824278
0.1828186
0.1829685
0.18362
0.1842447
0.184836
0.1853863
0.1858483
0.1862402
0.1865978
0.1869231
0.1872015
0.1957247
0.196094
0.1979973
0.1983542
0.1993044
0.2012612
0.2018829
0.2025596
0.203271
0.2051956
0.2067535
0.2081038
0.2093279
0.2103709
0.2111834
0.2117207
0.2119405
0.2117903
0.2111948
0.209961
0.2076303
0.2069708
0.2067447
0.2069973
0.208865
0.2054073
0.2067505
0.2079732
0.2090163
0.2098306
0.2103764
0.2106215
0.210542
0.2101185
0.2093719
0.2084679
0.2083329
0.2082666
0.2084192
0.2089513
0.2108609
0.2041161
0.2054556
0.2066836
0.2077341
0.2085579
0.2091195
0.2093987
0.209393
0.2091311
0.2086922
0.208287
0.2084358
0.2086224
0.2088376
0.2092348
0.2097907
0.2127378
0.2028388
0.20417
0.2053973
0.2064509
0.2072805
0.2078548
0.2081612
0.2082121
0.2080545
0.2077902
0.207597
0.2079015
0.2082094
0.2085511
0.2089114
0.2092798
0.2107861
0.2136996
0.2015502
0.2028643
0.2040802
0.2051255
0.2059512
0.2065279
0.2068478
0.2069291
0.2068267
0.2066428
0.2065462
0.2069109
0.2072904
0.2076762
0.2080942
0.2083796
0.2096047
0.2111185
0.2139804
0.2002376
0.2015265
0.2027177
0.2037419
0.204551
0.2051177
0.2054347
0.2055213
0.205431
0.2052651
0.2051867
0.2055631
0.2059519
0.2063611
0.206781
0.2070972
0.2081653
0.2093764
0.2108693
0.2136912
0.1989035
0.200158
0.2013133
0.2023038
0.2030853
0.2036302
0.2039298
0.203998
0.2038817
0.2036759
0.2035502
0.2038865
0.2042456
0.2046286
0.2050434
0.2053474
0.2063907
0.2074236
0.2085922
0.210037
0.2127731
0.1975599
0.1987749
0.1998847
0.2008337
0.2015798
0.2020958
0.2023675
0.2023984
0.2022175
0.2019034
0.2016376
0.2018744
0.2021487
0.2024697
0.202838
0.2031314
0.2041186
0.2051075
0.206078
0.2071724
0.2084853
0.2111687
0.1962323
0.197403
0.1984658
0.1993708
0.2000813
0.2005675
0.2008094
0.2007931
0.2005146
0.1999962
0.1993963
0.1994354
0.1995642
0.1997819
0.2000837
0.2003361
0.2012756
0.2021892
0.2030943
0.2039693
0.204903
0.206081
0.2087444
0.1949498
0.1960833
0.1971046
0.1979751
0.1986571
0.1991224
0.1993437
0.1992919
0.198916
0.1980959
0.1965007
0.1962312
0.1962272
0.1963827
0.1966404
0.1968526
0.1977195
0.1985661
0.199376
0.2001625
0.2008579
0.2016215
0.2026906
0.2052208
0.190418
0.191154
0.1917226
0.1921865
0.192573
0.1927786
0.1935742
0.1943409
0.1950743
0.1957564
0.1963536
0.1968736
0.1975011
0.198418
0.200676
0.186378
0.1871945
0.1878713
0.1884178
0.1888371
0.1890234
0.189756
0.1904606
0.1911269
0.1917478
0.1922653
0.1927128
0.1931297
0.193632
0.194409
0.1833614
0.1841608
0.1848374
0.1853853
0.1857979
0.1859674
0.1866583
0.1873215
0.1879501
0.188533
0.1890243
0.1894337
0.1898201
0.1901671
0.1905847
0.1811333
0.1819135
0.1825771
0.1831163
0.1835213
0.1836871
0.1843576
0.1850027
0.1856162
0.1861907
0.186679
0.1871001
0.1874902
0.1878526
0.1881728
0.1796064
0.1803779
0.1810372
0.1815754
0.1819839
0.18216
0.1828291
0.1834756
0.1840949
0.1846805
0.1851905
0.1856413
0.186077
0.1864826
0.1868617
0.1944935
0.1938423
0.1955259
0.1950959
0.1958975
0.1975751
0.1974592
0.1981245
0.1988439
0.2005524
0.2008757
0.2014475
0.2018683
0.2024014
0.2041415
0.2053331
0.2066524
0.2078473
0.2088653
0.209659
0.2101862
0.2104068
0.2102752
0.2097118
0.2085519
0.2063254
0.2057323
0.2054181
0.2053929
0.2057606
0.2074659
0.2040168
0.2053303
0.2065253
0.2075442
0.2083405
0.2088762
0.2091216
0.2090541
0.2086612
0.2079551
0.2071173
0.2070007
0.2069724
0.2070131
0.2072615
0.2076981
0.2105698
0.2027526
0.204064
0.205265
0.2062924
0.2070984
0.2076499
0.2079277
0.2079316
0.2076891
0.2072837
0.2069105
0.2070882
0.2072809
0.2075218
0.2077968
0.2080938
0.2095375
0.2124472
0.2015016
0.2028054
0.2040072
0.2050382
0.2058508
0.2064146
0.2067189
0.2067763
0.2066343
0.2063914
0.2062258
0.2065401
0.2068722
0.2072156
0.2075976
0.2078536
0.2090497
0.2105354
0.2134098
0.2002376
0.2015265
0.2027177
0.2037419
0.204551
0.2051177
0.2054347
0.2055213
0.205431
0.2052651
0.2051867
0.2055631
0.2059519
0.2063611
0.206781
0.2070972
0.2081653
0.2093764
0.2108693
0.2136912
0.1989502
0.2002144
0.2013831
0.2023871
0.2031811
0.2037381
0.2040525
0.2041432
0.2040641
0.2039136
0.203852
0.2042345
0.2046363
0.2050565
0.2055018
0.2058292
0.2068941
0.2079517
0.2091489
0.2106209
0.2133425
0.1976393
0.1988722
0.2000057
0.2009783
0.2017454