/*--------------------------------*- C++ -*----------------------------------*\
| =========                 |                                                 |
| \\      /  F ield         | OpenFOAM: The Open Source CFD Toolbox           |
|  \\    /   O peration     | Version:  2306                                  |
|   \\  /    A nd           | Website:  www.openfoam.com                      |
|    \\/     M anipulation  |                                                 |
\*---------------------------------------------------------------------------*/
FoamFile
{
    version     2.0;
    format      ascii;
    arch        "LSB;label=32;scalar=64";
    class       volScalarField;
    location    "0.3/air";
    object      T;
}
// * * * * * * * * * * * * * * * * * * * * * * * * * * * * * * * * * * * * * //

dimensions      [0 0 0 1 0 0 0];

internalField   nonuniform List<scalar> 
16000
(
1035.45
1027.761
1044.353
1027.637
1023.58
1042.323
1009.091
1046.519
1042.293
1023.346
1021.234
1040.578
997.7222
1045.643
1036.309
997.5478
1048.276
1045.67
1040.512
1020.867
1020.151
1039.303
990.9813
1044.86
1031.099
980.5765
1047.835
1043.091
1031.017
990.5159
1049.836
1047.885
1044.903
1039.183
1019.607
1020.151
1038.631
987.8097
1044.264
1027.263
970.0684
1047.45
1040.747
1022.614
969.6725
1049.579
1046.624
1040.754
1027.028
986.8778
1051.261
1049.635
1047.538
1044.316
1038.436
1019.365
1044.413
1021.234
1038.631
987.8097
1043.94
1025.234
965.0042
1047.159
1038.944
1016.36
956.392
1049.363
1045.492
1036.924
1016.143
963.897
1051.088
1048.928
1045.537
1038.937
1024.768
986.2052
1052.579
1051.142
1049.464
1047.285
1044.002
1038.353
1020.125
1044.371
1046.027
1045.451
1023.58
1039.303
990.9813
1043.94
1025.234
965.0042
1047.001
1037.961
1013.03
949.8871
1049.204
1044.624
1033.945
1007.961
949.0264
1050.948
1048.311
1043.706
1033.912
1012.443
962.8164
1052.445
1050.683
1048.368
1044.718
1037.931
1024.489
988.4717
1053.809
1052.496
1051.047
1049.352
1047.173
1044.024
1038.959
1022.044
1044.278
1046.022
1045.389
1047.652
1046.992
1046.497
1027.761
1040.578
997.7222
1044.264
1027.263
970.0684
1047.001
1037.961
1013.03
949.8871
1049.12
1044.151
1032.31
1003.58
941.6779
1050.848
1047.849
1042.284
1029.967
1003.123
947.63
1052.34
1050.295
1047.392
1042.339
1032.217
1011.961
966.4185
1053.695
1052.15
1050.354
1047.978
1044.315
1037.931
1026.264
994.0264
1054.961
1053.742
1052.433
1050.995
1049.324
1047.235
1044.403
1040.232
1025.603
1044.096
1046.012
1045.239
1047.655
1046.986
1046.418
1049.174
1048.513
1047.956
1047.553
1035.45
1042.323
1009.091
1044.86
1031.099
980.5765
1047.159
1038.944
1016.36
956.392
1049.12
1044.151
1032.31
1003.58
941.6779
1050.795
1047.6
1041.503
1027.792
998.1127
940.1106
1052.266
1050.012
1046.651
1040.469
1027.704
1002.47
952.2157
1053.606
1051.865
1049.755
1046.736
1041.639
1032.175
1014.814
975.0822
1054.858
1053.451
1051.921
1050.147
1047.831
1044.429
1038.995
1029.99
1003.818
1056.046
1054.902
1053.693
1052.406
1051
1049.398
1047.488
1045.127
1042.133
1032.179
1043.58
1046.007
1044.915
1047.665
1046.977
1046.225
1049.179
1048.522
1047.951
1047.461
1050.594
1049.937
1049.372
1048.921
1048.62
1044.353
1027.637
1045.643
1036.309
997.5478
1047.45
1040.747
1022.614
969.6725
1049.204
1044.624
1033.945
1007.961
949.0264
1050.795
1047.6
1041.503
1027.792
998.1127
940.1106
1052.228
1049.862
1046.248
1039.435
1025.208
997.3625
945.2156
1053.545
1051.662
1049.313
1045.781
1039.52
1027.615
1006.155
963.1139
1054.779
1053.215
1051.491
1049.405
1046.467
1041.782
1033.87
1020.779
989.7638
1055.95
1054.64
1053.267
1051.792
1050.106
1047.982
1045.1
1041.045
1035.407
1020.082
1057.068
1055.99
1054.859
1053.675
1052.423
1051.075
1049.586
1047.936
1046.192
1044.717
1039.88
1046.06
1044.068
1047.696
1046.977
1045.814
1049.195
1048.547
1047.941
1047.242
1050.601
1049.95
1049.385
1048.915
1048.523
1051.924
1051.273
1050.697
1050.228
1049.887
1049.191
1046.519
1042.293
1023.346
1047.835
1043.091
1031.017
990.5159
1049.363
1045.492
1036.924
1016.143
963.897
1050.848
1047.849
1042.284
1029.967
1003.123
947.63
1052.228
1049.862
1046.248
1039.435
1025.208
997.3625
945.2156
1053.515
1051.556
1049.077
1045.258
1038.342
1025.088
1001.5
957.2777
1054.725
1053.05
1051.181
1048.85
1045.406
1039.675
1029.804
1013.835
981.1164
1055.876
1054.43
1052.917
1051.272
1049.314
1046.672
1042.821
1037.129
1029.297
1012.542
1056.977
1055.747
1054.479
1053.172
1051.792
1050.263
1048.458
1046.305
1043.915
1042.139
1035.468
1058.035
1057.015
1055.951
1054.845
1053.696
1052.494
1051.229
1049.903
1048.613
1047.755
1046.861
1041.206
1047.854
1047.043
1044.87
1049.236
1048.618
1047.936
1046.792
1050.617
1049.985
1049.421
1048.903
1048.292
1051.93
1051.287
1050.716
1050.245
1049.88
1049.093
1053.171
1052.53
1051.948
1051.455
1051.082
1050.398
1049.252
1048.276
1045.67
1040.512
1020.867
1049.579
1046.624
1040.754
1027.028
986.8778
1050.948
1048.311
1043.706
1033.912
1012.443
962.8164
1052.266
1050.012
1046.651
1040.469
1027.704
1002.47
952.2157
1053.515
1051.556
1049.077
1045.258
1038.342
1025.088
1001.5
957.2777
1054.698
1052.965
1051.019
1048.551
1044.823
1038.499
1027.549
1010.109
976.9549
1055.826
1054.285
1052.669
1050.893
1048.715
1045.644
1040.993
1034.003
1024.674
1007.927
1056.908
1055.552
1054.169
1052.754
1051.251
1049.532
1047.388
1044.681
1041.566
1039.492
1031.984
1057.948
1056.785
1055.598
1054.398
1053.187
1051.943
1050.639
1049.268
1048.003
1047.464
1046.296
1037.73
1058.949
1057.984
1056.977
1055.937
1054.865
1053.762
1052.627
1051.479
1050.396
1049.723
1049.393
1047.428
1042.619
1049.417
1048.865
1047.974
1045.875
1050.661
1050.075
1049.511
1048.888
1047.842
1051.947
1051.324
1050.766
1050.286
1049.865
1048.864
1053.178
1052.544
1051.969
1051.478
1051.1
1050.391
1049.154
1054.346
1053.718
1053.134
1052.62
1052.208
1051.531
1050.452
1049.313
1049.836
1047.885
1044.903
1039.183
1019.607
1051.088
1048.928
1045.537
1038.937
1024.768
986.2052
1052.34
1050.295
1047.392
1042.339
1032.217
1011.961
966.4185
1053.545
1051.662
1049.313
1045.781
1039.52
1027.615
1006.155
963.1139
1054.698
1052.965
1051.019
1048.551
1044.823
1038.499
1027.549
1010.109
976.9549
1055.801
1054.21
1052.54
1050.693
1048.391
1045.076
1039.969
1032.265
1022.191
1005.706
1056.861
1055.418
1053.952
1052.456
1050.854
1048.972
1046.533
1043.347
1039.634
1037.401
1029.647
1057.882
1056.602
1055.311
1054.032
1052.76
1051.463
1050.086
1048.595
1047.198
1046.721
1045.397
1034.831
1058.867
1057.764
1056.644
1055.524
1054.417
1053.328
1052.263
1051.256
1050.43
1050.209
1049.761
1047.027
1039.884
1059.816
1058.9
1057.947
1056.965
1055.957
1054.927
1053.881
1052.84
1051.876
1051.276
1051.091
1049.844
1048.126
1044.099
1050.84
1050.366
1049.758
1048.887
1047.011
1051.989
1051.418
1050.882
1050.378
1049.838
1048.426
1053.194
1052.581
1052.021
1051.535
1051.143
1050.374
1048.925
1054.352
1053.732
1053.155
1052.646
1052.234
1051.55
1050.445
1049.215
1055.453
1054.842
1054.262
1053.735
1053.288
1052.604
1051.579
1050.507
1049.374
1051.261
1049.635
1047.538
1044.316
1038.436
1019.365
1052.445
1050.683
1048.368
1044.718
1037.931
1024.489
988.4717
1053.606
1051.865
1049.755
1046.736
1041.639
1032.175
1014.814
975.0822
1054.725
1053.05
1051.181
1048.85
1045.406
1039.675
1029.804
1013.835
981.1164
1055.801
1054.21
1052.54
1050.693
1048.391
1045.076
1039.969
1032.265
1022.191
1005.706
1056.837
1055.35
1053.841
1052.301
1050.643
1048.666
1046.055
1042.592
1038.547
1036.259
1028.481
1057.837
1056.475
1055.112
1053.773
1052.454
1051.105
1049.648
1048.024
1046.465
1045.993
1044.6
1032.836
1058.804
1057.589
1056.374
1055.186
1054.046
1052.959
1051.928
1050.98
1050.242
1050.194
1049.713
1046.339
1037.515
1059.737
1058.69
1057.629
1056.574
1055.542
1054.548
1053.613
1052.778
1052.152
1052.017
1051.747
1050.198
1047.812
1041.967
1060.638
1059.769
1058.865
1057.935
1056.983
1056.014
1055.037
1054.071
1053.183
1052.622
1052.466
1051.473
1050.394
1048.903
1045.627
1052.159
1051.709
1051.183
1050.587
1049.798
1047.655
1053.233
1052.672
1052.142
1051.658
1051.226
1050.341
1048.488
1054.367
1053.767
1053.207
1052.707
1052.294
1051.591
1050.428
1048.986
1055.459
1054.855
1054.282
1053.76
1053.316
1052.63
1051.598
1050.5
1049.276
1056.5
1055.907
1055.336
1054.803
1054.331
1053.639
1052.646
1051.627
1050.561
1049.435
1052.579
1051.142
1049.464
1047.285
1044.002
1038.353
1020.125
1053.695
1052.15
1050.354
1047.978
1044.315
1037.931
1026.264
994.0264
1054.779
1053.215
1051.491
1049.405
1046.467
1041.782
1033.87
1020.779
989.7638
1055.826
1054.285
1052.669
1050.893
1048.715
1045.644
1040.993
1034.003
1024.674
1007.927
1056.837
1055.35
1053.841
1052.301
1050.643
1048.666
1046.055
1042.592
1038.547
1036.259
1028.481
1057.815
1056.411
1055.01
1053.64
1052.293
1050.913
1049.405
1047.695
1046.034
1045.56
1044.146
1031.829
1058.761
1057.469
1056.186
1054.95
1053.782
1052.69
1051.667
1050.731
1050.005
1050.033
1049.549
1045.711
1035.846
1059.676
1058.523
1057.371
1056.255
1055.201
1054.231
1053.371
1052.663
1052.211
1052.272
1052.003
1050.215
1047.283
1040.07
1060.562
1059.567
1058.56
1057.562
1056.59
1055.665
1054.81
1054.068
1053.534
1053.423
1053.192
1052.059
1050.691
1048.64
1044
1061.418
1060.592
1059.735
1058.852
1057.951
1057.036
1056.116
1055.21
1054.379
1053.843
1053.681
1052.8
1051.937
1050.999
1049.727
1046.451
1053.392
1052.95
1052.448
1051.926
1051.383
1050.282
1047.724
1054.404
1053.853
1053.325
1052.837
1052.411
1051.667
1050.394
1048.551
1055.473
1054.889
1054.332
1053.821
1053.382
1052.69
1051.639
1050.482
1049.048
1056.506
1055.92
1055.355
1054.827
1054.359
1053.667
1052.672
1051.646
1050.554
1049.338
1057.492
1056.919
1056.359
1055.826
1055.339
1054.644
1053.676
1052.688
1051.675
1050.616
1049.493
1053.809
1052.496
1051.047
1049.352
1047.173
1044.024
1038.959
1022.044
1054.858
1053.451
1051.921
1050.147
1047.831
1044.429
1038.995
1029.99
1003.818
1055.876
1054.43
1052.917
1051.272
1049.314
1046.672
1042.821
1037.129
1029.297
1012.542
1056.861
1055.418
1053.952
1052.456
1050.854
1048.972
1046.533
1043.347
1039.634
1037.401
1029.647
1057.815
1056.411
1055.01
1053.64
1052.293
1050.913
1049.405
1047.695
1046.034
1045.56
1044.146
1031.829
1058.739
1057.408
1056.09
1054.828
1053.646
1052.549
1051.524
1050.583
1049.85
1049.911
1049.43
1045.348
1034.994
1059.635
1058.407
1057.192
1056.033
1054.961
1054.004
1053.186
1052.545
1052.176
1052.335
1052.084
1050.117
1046.792
1038.707
1060.504
1059.406
1058.313
1057.258
1056.269
1055.375
1054.608
1054.015
1053.68
1053.77
1053.549
1052.324
1050.738
1048.23
1042.525
1061.345
1060.399
1059.442
1058.495
1057.576
1056.705
1055.908
1055.225
1054.739
1054.627
1054.399
1053.44
1052.423
1051.225
1049.497
1045.055
1062.157
1061.374
1060.559
1059.722
1058.868
1058.002
1057.132
1056.278
1055.493
1054.978
1054.801
1053.979
1053.205
1052.445
1051.634
1050.178
1046.539
1054.552
1054.114
1053.619
1053.114
1052.627
1051.796
1050.334
1047.793
1055.509
1054.97
1054.445
1053.949
1053.507
1052.8
1051.714
1050.448
1048.615
1056.52
1055.952
1055.403
1054.886
1054.425
1053.733
1052.732
1051.687
1050.537
1049.11
1057.497
1056.931
1056.378
1055.85
1055.367
1054.673
1053.705
1052.714
1051.693
1050.609
1049.396
1058.432
1057.881
1057.336
1056.808
1056.313
1055.62
1054.677
1053.713
1052.73
1051.723
1050.667
1049.536
1054.961
1053.742
1052.433
1050.995
1049.324
1047.235
1044.403
1040.232
1025.603
1055.95
1054.64
1053.267
1051.792
1050.106
1047.982
1045.1
1041.045
1035.407
1020.082
1056.908
1055.552
1054.169
1052.754
1051.251
1049.532
1047.388
1044.681
1041.566
1039.492
1031.984
1057.837
1056.475
1055.112
1053.773
1052.454
1051.105
1049.648
1048.024
1046.465
1045.993
1044.6
1032.836
1058.739
1057.408
1056.09
1054.828
1053.646
1052.549
1051.524
1050.583
1049.85
1049.911
1049.43
1045.348
1034.994
1059.615
1058.349
1057.101
1055.919
1054.837
1053.885
1053.086
1052.472
1052.135
1052.339
1052.1
1050.035
1046.506
1038.003
1060.464
1059.295
1058.142
1057.045
1056.043
1055.168
1054.455
1053.95
1053.721
1053.916
1053.718
1052.426
1050.685
1047.852
1041.447
1061.289
1060.244
1059.204
1058.203
1057.269
1056.432
1055.724
1055.193
1054.91
1054.992
1054.779
1053.784
1052.671
1051.28
1049.181
1043.783
1062.087
1061.187
1060.278
1059.378
1058.508
1057.685
1056.934
1056.294
1055.839
1055.72
1055.483
1054.611
1053.736
1052.825
1051.788
1049.959
1045.167
1062.859
1062.115
1061.342
1060.547
1059.737
1058.916
1058.092
1057.284
1056.541
1056.046
1055.856
1055.071
1054.341
1053.646
1052.973
1051.977
1050.226
1046.627
1055.647
1055.213
1054.722
1054.218
1053.737
1052.987
1051.839
1050.386
1047.864
1056.553
1056.029
1055.51
1055.009
1054.55
1053.852
1052.841
1051.761
1050.502
1048.68
1057.51
1056.962
1056.423
1055.907
1055.43
1054.738
1053.77
1052.774
1051.735
1050.591
1049.169
1058.437
1057.892
1057.353
1056.831
1056.34
1055.649
1054.706
1053.742
1052.756
1051.741
1050.66
1049.439
1059.324
1058.796
1058.268
1057.749
1057.253
1056.568
1055.65
1054.71
1053.751
1052.772
1051.768
1050.704
1049.569
1056.046
1054.902
1053.693
1052.406
1051
1049.398
1047.488
1045.127
1042.133
1032.179
1056.977
1055.747
1054.479
1053.172
1051.792
1050.263
1048.458
1046.305
1043.915
1042.139
1035.468
1057.882
1056.602
1055.311
1054.032
1052.76
1051.463
1050.086
1048.595
1047.198
1046.721
1045.397
1034.831
1058.761
1057.469
1056.186
1054.95
1053.782
1052.69
1051.667
1050.731
1050.005
1050.033
1049.549
1045.711
1035.846
1059.615
1058.349
1057.101
1055.919
1054.837
1053.885
1053.086
1052.472
1052.135
1052.339
1052.1
1050.035
1046.506
1038.003
1060.444
1059.239
1058.054
1056.937
1055.927
1055.061
1054.373
1053.907
1053.726
1053.969
1053.785
1052.456
1050.632
1047.631
1040.884
1061.251
1060.137
1059.04
1058
1057.054
1056.237
1055.587
1055.147
1054.978
1055.163
1054.976
1053.958
1052.78
1051.255
1048.895
1042.844
1062.033
1061.038
1060.049
1059.098
1058.213
1057.423
1056.76
1056.268
1056.01
1056.076
1055.855
1054.971
1054.048
1053.041
1051.836
1049.683
1043.916
1062.791
1061.936
1061.071
1060.217
1059.391
1058.611
1057.901
1057.297
1056.866
1056.741
1056.495
1055.671
1054.865
1054.066
1053.253
1052.094
1050.008
1045.279
1063.523
1062.818
1062.084
1061.33
1060.561
1059.782
1059.002
1058.236
1057.532
1057.056
1056.857
1056.102
1055.398
1054.733
1054.105
1053.258
1052.014
1050.274
1046.715
1056.682
1056.257
1055.77
1055.266
1054.778
1054.055
1053.025
1051.883
1050.438
1047.935
1057.542
1057.035
1056.525
1056.024
1055.552
1054.858
1053.889
1052.882
1051.808
1050.556
1048.74
1058.45
1057.922
1057.397
1056.885
1056.401
1055.713
1054.772
1053.807
1052.816
1051.782
1050.642
1049.213
1059.329
1058.807
1058.285
1057.771
1057.279
1056.595
1055.679
1054.739
1053.779
1052.799
1051.786
1050.698
1049.472
1060.172
1059.667
1059.157
1058.652
1058.159
1057.486
1056.595
1055.68
1054.744
1053.788
1052.812
1051.8
1050.732
1049.59
1057.068
1055.99
1054.859
1053.675
1052.423
1051.075
1049.586
1047.936
1046.192
1044.717
1039.88
1057.948
1056.785
1055.598
1054.398
1053.187
1051.943
1050.639
1049.268
1048.003
1047.464
1046.296
1037.73
1058.804
1057.589
1056.374
1055.186
1054.046
1052.959
1051.928
1050.98
1050.242
1050.194
1049.713
1046.339
1037.515
1059.635
1058.407
1057.192
1056.033
1054.961
1054.004
1053.186
1052.545
1052.176
1052.335
1052.084
1050.117
1046.792
1038.707
1060.444
1059.239
1058.054
1056.937
1055.927
1055.061
1054.373
1053.907
1053.726
1053.969
1053.785
1052.456
1050.632
1047.631
1040.884
1061.231
1060.083
1058.956
1057.896
1056.943
1056.136
1055.513
1055.117
1054.998
1055.232
1055.06
1054.029
1052.818
1051.224
1048.729
1042.351
1061.997
1060.936
1059.891
1058.903
1058.007
1057.237
1056.63
1056.229
1056.082
1056.249
1056.055
1055.165
1054.215
1053.147
1051.829
1049.44
1042.992
1062.739
1061.792
1060.851
1059.947
1059.107
1058.359
1057.733
1057.271
1057.028
1057.078
1056.85
1056.022
1055.189
1054.335
1053.43
1052.136
1049.737
1044.048
1063.458
1062.646
1061.824
1061.012
1060.228
1059.489
1058.816
1058.245
1057.836
1057.708
1057.456
1056.665
1055.898
1055.151
1054.421
1053.488
1052.127
1050.058
1045.39
1064.153
1063.484
1062.789
1062.073
1061.343
1060.605
1059.865
1059.139
1058.471
1058.016
1057.812
1057.085
1056.401
1055.752
1055.14
1054.351
1053.288
1052.05
1050.323
1046.804
1057.664
1057.25
1056.77
1056.267
1055.772
1055.062
1054.089
1053.063
1051.927
1050.49
1048.002
1058.48
1057.992
1057.494
1056.997
1056.518
1055.83
1054.891
1053.925
1052.924
1051.855
1050.606
1048.786
1059.341
1058.835
1058.327
1057.824
1057.338
1056.657
1055.743
1054.805
1053.844
1052.858
1051.827
1050.68
1049.245
1060.177
1059.678
1059.174
1058.673
1058.184
1057.512
1056.622
1055.709
1054.773
1053.817
1052.838
1051.819
1050.725
1049.493
1060.977
1060.496
1060.007
1059.516
1059.032
1058.374
1057.511
1056.622
1055.71
1054.777
1053.823
1052.84
1051.823
1050.749
1049.599
1043.58
1058.035
1057.015
1055.951
1054.845
1053.696
1052.494
1051.229
1049.903
1048.613
1047.755
1046.861
1041.206
1058.867
1057.764
1056.644
1055.524
1054.417
1053.328
1052.263
1051.256
1050.43
1050.209
1049.761
1047.027
1039.884
1059.676
1058.523
1057.371
1056.255
1055.201
1054.231
1053.371
1052.663
1052.211
1052.272
1052.003
1050.215
1047.283
1040.07
1060.464
1059.295
1058.142
1057.045
1056.043
1055.168
1054.455
1053.95
1053.721
1053.916
1053.718
1052.426
1050.685
1047.852
1041.447
1061.231
1060.083
1058.956
1057.896
1056.943
1056.136
1055.513
1055.117
1054.998
1055.232
1055.06
1054.029
1052.818
1051.224
1048.729
1042.351
1061.978
1060.884
1059.81
1058.803
1057.901
1057.141
1056.561
1056.203
1056.108
1056.321
1056.143
1055.25
1054.286
1053.188
1051.813
1049.3
1042.506
1062.704
1061.694
1060.699
1059.759
1058.909
1058.18
1057.609
1057.234
1057.099
1057.246
1057.043
1056.217
1055.372
1054.487
1053.525
1052.134
1049.498
1043.139
1063.408
1062.508
1061.612
1060.753
1059.955
1059.246
1058.654
1058.218
1057.988
1058.026
1057.791
1057
1056.214
1055.43
1054.641
1053.642
1052.168
1049.79
1044.18
1064.09
1063.319
1062.538
1061.767
1061.023
1060.322
1059.685
1059.144
1058.756
1058.628
1058.375
1057.613
1056.872
1056.154
1055.46
1054.617
1053.513
1052.16
1050.107
1045.502
1064.748
1064.115
1063.456
1062.778
1062.086
1061.385
1060.684
1059.996
1059.362
1058.929
1058.725
1058.024
1057.36
1056.724
1056.119
1055.358
1054.377
1053.319
1052.087
1050.372
1046.887
1058.596
1058.195
1057.726
1057.227
1056.728
1056.028
1055.092
1054.122
1053.101
1051.971
1050.539
1048.054
1059.371
1058.902
1058.42
1057.931
1057.451
1056.771
1055.86
1054.924
1053.962
1052.965
1051.899
1050.643
1048.82
1060.188
1059.705
1059.215
1058.724
1058.242
1057.573
1056.685
1055.773
1054.838
1053.882
1052.897
1051.859
1050.707
1049.267
1060.982
1060.507
1060.023
1059.537
1059.056
1058.399
1057.537
1056.65
1055.738
1054.806
1053.852
1052.866
1051.841
1050.742
1049.502
1061.742
1061.285
1060.818
1060.345
1059.872
1059.231
1058.397
1057.535
1056.649
1055.74
1054.808
1053.847
1052.858
1051.836
1050.755
1044.096
1046.06
1044.068
1058.949
1057.984
1056.977
1055.937
1054.865
1053.762
1052.627
1051.479
1050.396
1049.723
1049.393
1047.428
1042.619
1059.737
1058.69
1057.629
1056.574
1055.542
1054.548
1053.613
1052.778
1052.152
1052.017
1051.747
1050.198
1047.812
1041.967
1060.504
1059.406
1058.313
1057.258
1056.269
1055.375
1054.608
1054.015
1053.68
1053.77
1053.549
1052.324
1050.738
1048.23
1042.525
1061.251
1060.137
1059.04
1058
1057.054
1056.237
1055.587
1055.147
1054.978
1055.163
1054.976
1053.958
1052.78
1051.255
1048.895
1042.844
1061.978
1060.884
1059.81
1058.803
1057.901
1057.141
1056.561
1056.203
1056.108
1056.321
1056.143
1055.25
1054.286
1053.188
1051.813
1049.3
1042.506
1062.686
1061.644
1060.621
1059.663
1058.807
1058.088
1057.543
1057.21
1057.124
1057.316
1057.13
1056.305
1055.454
1054.554
1053.565
1052.123
1049.36
1042.661
1063.374
1062.413
1061.466
1060.572
1059.764
1059.074
1058.534
1058.182
1058.054
1058.185
1057.976
1057.189
1056.397
1055.595
1054.773
1053.73
1052.167
1049.556
1043.285
1064.042
1063.186
1062.335
1061.518
1060.761
1060.088
1059.529
1059.117
1058.898
1058.929
1058.692
1057.93
1057.174
1056.427
1055.69
1054.81
1053.665
1052.2
1049.844
1044.311
1064.688
1063.956
1063.215
1062.484
1061.778
1061.113
1060.511
1059.999
1059.632
1059.508
1059.256
1058.521
1057.804
1057.106
1056.43
1055.63
1054.637
1053.539
1052.193
1050.157
1045.606
1065.31
1064.713
1064.089
1063.446
1062.79
1062.126
1061.461
1060.809
1060.209
1059.798
1059.599
1058.924
1058.28
1057.658
1057.059
1056.315
1055.381
1054.403
1053.35
1052.125
1050.418
1046.953
1059.481
1059.095
1058.64
1058.15
1057.652
1056.962
1056.055
1055.122
1054.156
1053.139
1052.012
1050.574
1048.093
1060.217
1059.77
1059.304
1058.827
1058.35
1057.682
1056.798
1055.889
1054.956
1053.998
1053.003
1051.93
1050.67
1048.843
1060.993
1060.533
1060.063
1059.586
1059.112
1058.458
1057.597
1056.712
1055.803
1054.871
1053.916
1052.925
1051.882
1050.724
1049.277
1061.747
1061.296
1060.834
1060.365
1059.895
1059.256
1058.422
1057.562
1056.677
1055.769
1054.837
1053.876
1052.885
1051.854
1050.748
1062.469
1062.037
1061.592
1061.137
1060.679
1060.058
1059.252
1058.419
1057.56
1056.676
1055.768
1054.829
1053.863
1052.868
1051.839
1044.278
1046.007
1044.915
1047.854
1047.043
1044.87
1059.816
1058.9
1057.947
1056.965
1055.957
1054.927
1053.881
1052.84
1051.876
1051.276
1051.091
1049.844
1048.126
1044.099
1060.562
1059.567
1058.56
1057.562
1056.59
1055.665
1054.81
1054.068
1053.534
1053.423
1053.192
1052.059
1050.691
1048.64
1044
1061.289
1060.244
1059.204
1058.203
1057.269
1056.432
1055.724
1055.193
1054.91
1054.992
1054.779
1053.784
1052.671
1051.28
1049.181
1043.783
1061.997
1060.936
1059.891
1058.903
1058.007
1057.237
1056.63
1056.229
1056.082
1056.249
1056.055
1055.165
1054.215
1053.147
1051.829
1049.44
1042.992
1062.686
1061.644
1060.621
1059.663
1058.807
1058.088
1057.543
1057.21
1057.124
1057.316
1057.13
1056.305
1055.454
1054.554
1053.565
1052.123
1049.36
1042.661
1063.357
1062.364
1061.391
1060.479
1059.666
1058.985
1058.471
1058.158
1058.078
1058.252
1058.059
1057.274
1056.48
1055.672
1054.834
1053.768
1052.157
1049.421
1042.814
1064.009
1063.094
1062.193
1061.344
1060.577
1059.922
1059.413
1059.081
1058.961
1059.079
1058.867
1058.11
1057.351
1056.592
1055.833
1054.93
1053.752
1052.199
1049.613
1043.43
1064.642
1063.828
1063.02
1062.244
1061.525
1060.888
1060.36
1059.972
1059.766
1059.792
1059.557
1058.822
1058.091
1057.368
1056.658
1055.834
1054.828
1053.688
1052.232
1049.898
1044.434
1065.252
1064.559
1063.857
1063.164
1062.494
1061.865
1061.295
1060.812
1060.466
1060.349
1060.103
1059.394
1058.7
1058.02
1057.358
1056.583
1055.648
1054.659
1053.564
1052.226
1050.204
1045.69
1065.84
1065.276
1064.687
1064.079
1063.459
1062.83
1062.2
1061.583
1061.015
1060.626
1060.434
1059.786
1059.164
1058.557
1057.967
1057.238
1056.336
1055.404
1054.43
1053.38
1052.159
1050.45
1047.006
1060.322
1059.954
1059.514
1059.036
1058.543
1057.866
1056.987
1056.082
1055.152
1054.189
1053.174
1052.04
1050.598
1048.122
1061.021
1060.596
1060.149
1059.686
1059.217
1058.564
1057.707
1056.825
1055.918
1054.989
1054.032
1053.03
1051.951
1050.685
1048.854
1061.758
1061.322
1060.872
1060.413
1059.95
1059.313
1058.481
1057.622
1056.739
1055.833
1054.902
1053.94
1052.943
1051.894
1050.729
1062.474
1062.047
1061.607
1061.157
1060.702
1060.082
1059.277
1058.445
1057.587
1056.704
1055.797
1054.858
1053.891
1052.894
1051.857
1063.16
1062.752
1062.33
1061.896
1061.454
1060.854
1060.078
1059.273
1058.442
1057.585
1056.702
1055.787
1054.842
1053.869
1052.868
1044.371
1046.012
1045.239
1047.696
1046.977
1045.814
1049.417
1048.865
1047.974
1045.875
1060.638
1059.769
1058.865
1057.935
1056.983
1056.014
1055.037
1054.071
1053.183
1052.622
1052.466
1051.473
1050.394
1048.903
1045.627
1061.345
1060.399
1059.442
1058.495
1057.576
1056.705
1055.908
1055.225
1054.739
1054.627
1054.399
1053.44
1052.423
1051.225
1049.497
1045.055
1062.033
1061.038
1060.049
1059.098
1058.213
1057.423
1056.76
1056.268
1056.01
1056.076
1055.855
1054.971
1054.048
1053.041
1051.836
1049.683
1043.916
1062.704
1061.694
1060.699
1059.759
1058.909
1058.18
1057.609
1057.234
1057.099
1057.246
1057.043
1056.217
1055.372
1054.487
1053.525
1052.134
1049.498
1043.139
1063.357
1062.364
1061.391
1060.479
1059.666
1058.985
1058.471
1058.158
1058.078
1058.252
1058.059
1057.274
1056.48
1055.672
1054.834
1053.768
1052.157
1049.421
1042.814
1063.993
1063.048
1062.122
1061.254
1060.482
1059.837
1059.351
1059.057
1058.983
1059.144
1058.947
1058.192
1057.433
1056.669
1055.901
1054.987
1053.79
1052.19
1049.481
1042.966
1064.61
1063.74
1062.884
1062.076
1061.348
1060.729
1060.248
1059.936
1059.825
1059.936
1059.725
1058.993
1058.26
1057.529
1056.802
1055.965
1054.947
1053.774
1052.232
1049.671
1043.566
1065.208
1064.437
1063.669
1062.933
1062.252
1061.649
1061.15
1060.785
1060.594
1060.62
1060.389
1059.68
1058.972
1058.271
1057.579
1056.787
1055.85
1054.846
1053.711
1052.264
1049.948
1044.535
1065.784
1065.129
1064.464
1063.808
1063.174
1062.579
1062.041
1061.586
1061.261
1061.152
1060.915
1060.233
1059.562
1058.901
1058.253
1057.498
1056.6
1055.667
1054.68
1053.59
1052.258
1050.237
1045.761
1066.338
1065.808
1065.252
1064.678
1064.092
1063.497
1062.901
1062.317
1061.78
1061.414
1061.233
1060.612
1060.012
1059.423
1058.844
1058.132
1057.258
1056.358
1055.428
1054.457
1053.409
1052.182
1050.471
1047.047
1061.122
1060.773
1060.351
1059.887
1059.403
1058.742
1057.889
1057.011
1056.109
1055.182
1054.221
1053.198
1052.059
1050.612
1048.137
1061.785
1061.382
1060.956
1060.509
1060.052
1059.416
1058.587
1057.731
1056.851
1055.948
1055.019
1054.055
1053.047
1051.962
1050.689
1062.485
1062.073
1061.645
1061.204
1060.755
1060.137
1059.334
1058.504
1057.647
1056.766
1055.861
1054.923
1053.955
1052.952
1051.896
1063.164
1062.762
1062.345
1061.915
1061.476
1060.878
1060.102
1059.299
1058.468
1057.612
1056.73
1055.815
1054.871
1053.898
1052.894
1063.814
1063.432
1063.034
1062.621
1062.197
1061.619
1060.872
1060.097
1059.295
1058.465
1057.608
1056.718
1055.797
1054.846
1053.867
1044.413
1046.022
1045.389
1047.665
1046.977
1046.225
1049.236
1048.618
1047.936
1046.792
1050.84
1050.366
1049.758
1048.887
1047.011
1061.418
1060.592
1059.735
1058.852
1057.951
1057.036
1056.116
1055.21
1054.379
1053.843
1053.681
1052.8
1051.937
1050.999
1049.727
1046.451
1062.087
1061.187
1060.278
1059.378
1058.508
1057.685
1056.934
1056.294
1055.839
1055.72
1055.483
1054.611
1053.736
1052.825
1051.788
1049.959
1045.167
1062.739
1061.792
1060.851
1059.947
1059.107
1058.359
1057.733
1057.271
1057.028
1057.078
1056.85
1056.022
1055.189
1054.335
1053.43
1052.136
1049.737
1044.048
1063.374
1062.413
1061.466
1060.572
1059.764
1059.074
1058.534
1058.182
1058.054
1058.185
1057.976
1057.189
1056.397
1055.595
1054.773
1053.73
1052.167
1049.556
1043.285
1063.993
1063.048
1062.122
1061.254
1060.482
1059.837
1059.351
1059.057
1058.983
1059.144
1058.947
1058.192
1057.433
1056.669
1055.901
1054.987
1053.79
1052.19
1049.481
1042.966
1064.594
1063.696
1062.815
1061.991
1061.257
1060.647
1060.189
1059.913
1059.846
1059.997
1059.801
1059.072
1058.339
1057.604
1056.871
1056.028
1055.004
1053.812
1052.223
1049.541
1043.109
1065.177
1064.352
1063.538
1062.772
1062.082
1061.496
1061.043
1060.751
1060.65
1060.757
1060.55
1059.844
1059.134
1058.425
1057.72
1056.919
1055.979
1054.964
1053.796
1052.265
1049.725
1043.678
1065.742
1065.011
1064.284
1063.586
1062.941
1062.372
1061.902
1061.561
1061.384
1061.412
1061.19
1060.506
1059.822
1059.141
1058.466
1057.697
1056.8
1055.865
1054.865
1053.734
1052.295
1049.984
1044.622
1066.285
1065.667
1065.039
1064.418
1063.819
1063.257
1062.75
1062.322
1062.019
1061.921
1061.694
1061.04
1060.392
1059.751
1059.119
1058.382
1057.513
1056.616
1055.685
1054.701
1053.614
1052.277
1050.259
1045.819
1066.806
1066.308
1065.785
1065.244
1064.691
1064.129
1063.566
1063.014
1062.508
1062.165
1061.997
1061.403
1060.826
1060.256
1059.692
1058.998
1058.15
1057.277
1056.379
1055.451
1054.482
1053.427
1052.195
1050.482
1047.075
1061.883
1061.554
1061.15
1060.703
1060.231
1059.588
1058.763
1057.912
1057.036
1056.136
1055.21
1054.241
1053.213
1052.067
1050.614
1062.51
1062.132
1061.726
1061.298
1060.854
1060.238
1059.437
1058.609
1057.756
1056.878
1055.975
1055.039
1054.069
1053.055
1051.963
1063.175
1062.787
1062.382
1061.961
1061.528
1060.932
1060.157
1059.355
1058.527
1057.672
1056.792
1055.879
1054.936
1053.962
1052.952
1063.819
1063.442
1063.049
1062.64
1062.219
1061.642
1060.896
1060.122
1059.32
1058.491
1057.635
1056.746
1055.825
1054.875
1053.895
1064.435
1064.078
1063.704
1063.313
1062.908
1062.354
1061.637
1060.891
1060.117
1059.316
1058.487
1057.623
1056.727
1055.799
1054.842
1046.027
1045.451
1047.655
1046.986
1046.418
1049.195
1048.547
1047.941
1047.242
1050.661
1050.075
1049.511
1048.888
1047.842
1052.159
1051.709
1051.183
1050.587
1049.798
1047.655
1062.157
1061.374
1060.559
1059.722
1058.868
1058.002
1057.132
1056.278
1055.493
1054.978
1054.801
1053.979
1053.205
1052.445
1051.634
1050.178
1046.539
1062.791
1061.936
1061.071
1060.217
1059.391
1058.611
1057.901
1057.297
1056.866
1056.741
1056.495
1055.671
1054.865
1054.066
1053.253
1052.094
1050.008
1045.279
1063.408
1062.508
1061.612
1060.753
1059.955
1059.246
1058.654
1058.218
1057.988
1058.026
1057.791
1057
1056.214
1055.43
1054.641
1053.642
1052.168
1049.79
1044.18
1064.009
1063.094
1062.193
1061.344
1060.577
1059.922
1059.413
1059.081
1058.961
1059.079
1058.867
1058.11
1057.351
1056.592
1055.833
1054.93
1053.752
1052.199
1049.613
1043.43
1064.594
1063.696
1062.815
1061.991
1061.257
1060.647
1060.189
1059.913
1059.846
1059.997
1059.801
1059.072
1058.339
1057.604
1056.871
1056.028
1055.004
1053.812
1052.223
1049.541
1043.109
1065.162
1064.309
1063.472
1062.689
1061.994
1061.417
1060.986
1060.729
1060.67
1060.816
1060.623
1059.919
1059.21
1058.498
1057.788
1056.983
1056.042
1055.02
1053.834
1052.256
1049.597
1043.227
1065.712
1064.93
1064.158
1063.431
1062.778
1062.225
1061.799
1061.528
1061.438
1061.544
1061.345
1060.664
1059.977
1059.289
1058.603
1057.827
1056.931
1055.994
1054.981
1053.818
1052.295
1049.765
1043.777
1066.244
1065.554
1064.865
1064.205
1063.596
1063.058
1062.617
1062.299
1062.138