/*--------------------------------*- C++ -*----------------------------------*\
| =========                 |                                                 |
| \\      /  F ield         | OpenFOAM: The Open Source CFD Toolbox           |
|  \\    /   O peration     | Version:  2306                                  |
|   \\  /    A nd           | Website:  www.openfoam.com                      |
|    \\/     M anipulation  |                                                 |
\*---------------------------------------------------------------------------*/
FoamFile
{
    version     2.0;
    format      ascii;
    arch        "LSB;label=32;scalar=64";
    class       volVectorField;
    location    "0.3/air";
    object      U;
}
// * * * * * * * * * * * * * * * * * * * * * * * * * * * * * * * * * * * * * //

dimensions      [0 1 -1 0 0 0 0];

internalField   nonuniform List<vector> 
16000
(
(0.409464 0.05538125 -0.0554895)
(0.7164278 0.1050912 -0.08540088)
(0.4176484 0.004777169 -0.004627103)
(0.7166517 0.0850333 -0.1063637)
(0.8495837 0.09004042 -0.08568589)
(0.8154363 0.01217437 -0.008647061)
(1.406195 0.1764229 -0.1798056)
(0.3008075 -0.001547687 0.001570838)
(0.815606 0.008797526 -0.01171549)
(0.8503813 0.08508984 -0.09349843)
(0.9094375 0.05625889 -0.08366387)
(1.029268 0.01270673 -0.008937208)
(1.752445 0.1649914 -0.1977535)
(0.6222601 -0.002014321 0.002612219)
(1.783899 0.02379014 -0.02351202)
(1.75385 0.1926752 -0.1734318)
(0.3481961 0.0009435096 -0.0009396828)
(0.6224898 -0.002591653 0.002075965)
(1.030091 0.009050501 -0.01215517)
(0.9112358 0.082858 -0.0627001)
(0.9328236 0.01897962 -0.08249014)
(1.145395 0.008770985 -0.008544291)
(1.918045 0.1090643 -0.1990502)
(0.8118478 -0.001822991 0.00286995)
(2.35745 0.02891906 -0.03011477)
(2.201849 0.1926464 -0.2051955)
(0.7089125 0.001618607 -0.001673062)
(1.433273 -0.003205169 0.003214475)
(2.359097 0.02987517 -0.02913169)
(1.922342 0.1925134 -0.1241512)
(0.3214395 -0.0004830628 0.0004907779)
(0.7091358 0.001649392 -0.001699693)
(0.8129644 -0.002866839 0.001866759)
(1.147745 0.008581545 -0.008385261)
(0.9362781 0.08139087 -0.02904282)
(0.9328236 -0.01897962 -0.08249014)
(1.196058 0.003088339 -0.008249657)
(1.984529 0.03768746 -0.1971999)
(0.9205019 -0.001066847 0.00296877)
(2.676704 0.02189268 -0.03226161)
(2.421118 0.1318435 -0.2112855)
(0.9184462 0.001620052 -0.001835578)
(1.94833 -0.003048061 0.004117409)
(3.211825 0.03388579 -0.035064)
(2.42491 0.1956694 -0.1536804)
(0.6604034 -0.0008326432 0.0008415422)
(1.609086 0.002800182 -0.00309448)
(1.950493 -0.004261071 0.002927799)
(2.682647 0.03139896 -0.02307692)
(1.993806 0.1891056 -0.06028157)
(0.3361214 0.0003023268 -0.0002951759)
(0.6606179 -0.0008573179 0.000777895)
(0.9195617 0.00178518 -0.001903925)
(0.9235758 -0.002997882 0.0009967954)
(1.201304 0.008163301 -0.00319474)
(0.9390811 0.08092816 0.004570248)
(0.0004665226 -0.0009223341 -0.0004363636)
(0.9094375 -0.05625889 -0.08366387)
(1.196058 -0.003088339 -0.008249657)
(1.984529 -0.03768746 -0.1971999)
(0.9712798 -0.0003321587 0.003012709)
(2.818676 0.008052173 -0.03265476)
(2.508918 0.04639806 -0.2104935)
(1.038565 0.001064943 -0.001835844)
(2.257976 -0.001666541 0.004600186)
(3.698757 0.02682106 -0.03902229)
(2.671679 0.1358087 -0.1620525)
(0.8604874 -0.0008206284 0.0009025786)
(2.177265 0.00290245 -0.003457955)
(2.714733 -0.004044972 0.003636045)
(3.704931 0.03666864 -0.02948402)
(2.51954 0.1922241 -0.07796402)
(0.6873144 0.0004948359 -0.0005437691)
(1.511967 -0.001556795 0.001317457)
(2.179483 0.002969378 -0.003677712)
(2.26544 -0.00498215 0.001271178)
(2.832989 0.03107915 -0.01066612)
(2.002208 0.1872458 0.007172054)
(0.3278205 -0.0001332471 0.0001415312)
(0.6875321 0.0005238948 -0.0005625328)
(0.861563 -0.0009429413 0.0005984623)
(1.04167 0.00175726 -0.001658816)
(0.9777954 -0.003099422 5.622939e-07)
(1.206281 0.007967768 0.002108487)
(0.9205885 0.08146576 0.03687298)
(0.0004778312 -0.002669258 -0.0004514264)
(0.0005392751 -0.0008168597 -0.0004055189)
(0.0004709254 -0.0009245696 -0.0008505938)
(0.8495837 -0.09004042 -0.08568589)
(1.145395 -0.008770985 -0.008544292)
(1.918045 -0.1090643 -0.1990502)
(0.9712798 0.0003321589 0.003012709)
(2.818676 -0.008052173 -0.03265476)
(2.508918 -0.04639806 -0.2104935)
(1.093922 0.0003615564 -0.001821343)
(2.403409 -0.0004990784 0.004890382)
(3.918398 0.01002885 -0.04046621)
(2.769738 0.04823314 -0.1629697)
(0.9765961 -0.000543448 0.0009078196)
(2.513951 0.001964199 -0.00342361)
(3.183098 -0.002251843 0.004203702)
(4.298724 0.02951445 -0.03382738)
(2.777217 0.1337259 -0.08476513)
(0.8929766 0.000478012 -0.0006086685)
(2.057123 -0.001629992 0.001473536)
(3.011208 0.003051964 -0.004201967)
(3.1904 -0.005011965 0.001490205)
(3.937522 0.03699572 -0.01448178)
(2.531123 0.1897405 0.005825228)
(0.6721785 -0.0002314709 0.0002246525)
(1.566518 0.0008101062 -0.001088058)
(2.059271 -0.001889105 0.0009753818)
(2.52164 0.002741919 -0.003389769)
(2.420531 -0.005637486 -0.0003731372)
(2.84745 0.03031169 0.003739593)
(1.950035 0.187202 0.07126407)
(0.3320724 0.0001085565 -0.0001009157)
(0.6723939 -0.0002403726 0.0001777353)
(0.8940646 0.0005617743 -0.0007370908)
(0.9795933 -0.0009740765 5.857032e-05)
(1.10055 0.001696892 -0.001392627)
(0.9831167 -0.003210477 -0.001179631)
(1.16382 0.007955918 0.006518002)
(0.8697144 0.08312556 0.06573114)
(0.0004975009 -0.00481835 -0.0004855279)
(0.0005541531 -0.002365952 -0.0004176392)
(0.0004822593 -0.00268015 -0.0008866182)
(0.0003860592 -0.000782696 -0.000380828)
(0.0005433994 -0.0008193083 -0.0007899206)
(0.0004692599 -0.0009193792 -0.00231878)
(0.7164278 -0.1050912 -0.08540088)
(1.029268 -0.01270673 -0.008937208)
(1.752445 -0.1649914 -0.1977535)
(0.9205019 0.001066847 0.00296877)
(2.676704 -0.02189268 -0.03226161)
(2.421118 -0.1318435 -0.2112855)
(1.093922 -0.0003615561 -0.001821343)
(2.403409 0.0004990784 0.004890382)
(3.918398 -0.01002885 -0.04046621)
(2.769738 -0.04823314 -0.1629697)
(1.030496 -0.000187738 0.0009102449)
(2.671084 0.0006799438 -0.003337772)
(3.404947 -0.0006765952 0.004574117)
(4.568865 0.01110168 -0.03565487)
(2.878756 0.04761855 -0.08656074)
(1.01166 0.0003062242 -0.0006210925)
(2.383733 -0.001134844 0.001533762)
(3.51581 0.002080971 -0.004195806)
(3.765323 -0.002921102 0.001749151)
(4.584327 0.03003729 -0.01743345)
(2.789904 0.1317052 0.003284145)
(0.8747935 -0.0002252854 0.0002262813)
(2.125462 0.0008006439 -0.001296888)
(2.860377 -0.002062454 0.001063194)
(3.523366 0.002728392 -0.004017954)
(3.426602 -0.005930803 -0.0005249069)
(3.960258 0.03616111 0.003859938)
(2.463138 0.1889064 0.08479208)
(0.6798967 0.0001786427 -0.0002017147)
(1.536013 -0.000465502 0.0002236765)
(2.12763 0.0008249213 -0.001550333)
(2.391182 -0.002120949 -8.737971e-05)
(2.688734 0.002392891 -0.002922583)
(2.435607 -0.006193853 -0.002139784)
(2.729096 0.0291515 0.01599619)
(1.809031 0.1850587 0.1228758)
(0.3294127 -2.926826e-05 3.694208e-05)
(0.6801128 0.0001850372 -0.0002354341)
(0.8758702 -0.00026712 2.922479e-06)
(1.014688 0.0005476348 -0.0008569819)
(1.036898 -0.001018373 -0.0006711257)
(1.106106 0.001604183 -0.001318968)
(0.9400784 -0.003375922 -0.002807747)
(1.061105 0.008043942 0.009035979)
(0.7544928 0.08395026 0.07380626)
(0.0005342111 -0.006314373 -0.000751732)
(0.0005800849 -0.004249455 -0.0004455156)
(0.0005019372 -0.004752381 -0.000958399)
(0.0003946948 -0.002267049 -0.0003919145)
(0.0005582896 -0.002377139 -0.0008193065)
(0.0004804571 -0.002656531 -0.002371568)
(0.0005125008 -0.0007367142 -0.0003613139)
(0.0003888667 -0.000785332 -0.0007417922)
(0.0005410323 -0.0008153721 -0.002155745)
(0.0004643478 -0.0008996277 -0.0007952302)
(0.409464 -0.05538125 -0.0554895)
(0.8154363 -0.01217437 -0.00864706)
(1.406195 -0.1764229 -0.1798056)
(0.8118478 0.001822991 0.00286995)
(2.35745 -0.02891906 -0.03011477)
(2.201849 -0.1926464 -0.2051955)
(1.038565 -0.001064942 -0.001835844)
(2.257976 0.001666541 0.004600186)
(3.698757 -0.02682106 -0.03902229)
(2.671679 -0.1358087 -0.1620525)
(1.030496 0.0001877378 0.0009102448)
(2.671084 -0.0006799443 -0.003337773)
(3.404947 0.0006765954 0.004574117)
(4.568865 -0.01110168 -0.03565487)
(2.878756 -0.04761855 -0.08656074)
(1.066589 0.0001032496 -0.0006240828)
(2.537188 -0.0004008598 0.001562585)
(3.753946 0.0007256093 -0.004093382)
(4.039456 -0.0009047354 0.001959194)
(4.879886 0.01133832 -0.01892355)
(2.891361 0.04685097 0.001687374)
(0.9921231 -0.0001487843 0.000218776)
(2.458667 0.0005226983 -0.001359928)
(3.351457 -0.001482277 0.001106125)
(4.140361 0.001828639 -0.004097939)
(4.056361 -0.003628731 -0.0005127051)
(4.612895 0.02945043 0.003136117)
(2.71328 0.1304745 0.08617629)
(0.8840405 0.0001761984 -0.0002377309)
(2.087457 -0.0004894845 0.0001824047)
(2.947327 0.0007978266 -0.001932033)
(3.358789 -0.002389359 -0.0002193334)
(3.776266 0.002255446 -0.003526771)
(3.449516 -0.006665985 -0.002440957)
(3.777165 0.03438379 0.01962216)
(2.2778 0.1840461 0.1445442)
(0.6750232 -5.543671e-05 4.214325e-05)
(1.551477 0.0002672289 -0.0005139449)
(2.089603 -0.0006043861 -0.000175438)
(2.466185 0.0007094971 -0.001905373)
(2.554307 -0.002379767 -0.001531403)
(2.704519 0.001971116 -0.002602326)
(2.31202 -0.006731556 -0.00444294)
(2.447484 0.02634814 0.02231103)
(1.50509 0.1702028 0.1309555)
(0.3305744 4.706322e-05 -4.025611e-05)
(0.6752383 -5.722398e-05 3.969438e-06)
(0.8851186 0.0001960491 -0.0004040966)
(0.9951201 -0.0002850523 -0.0003367568)
(1.073052 0.0005098282 -0.001053755)
(1.042226 -0.001104998 -0.001610178)
(1.059049 0.001428671 -0.001587659)
(0.8423365 -0.003530474 -0.004889825)
(0.8700125 0.00796447 0.005940648)
(0.4887293 0.05928297 0.006949902)
(0.0005729377 -0.01263007 -0.0009947524)
(0.0006284028 -0.005573996 -0.0006691788)
(0.0005375143 -0.006180063 -0.001449493)
(0.0004096288 -0.004066851 -0.0004175807)
(0.0005841911 -0.004196669 -0.0008782278)
(0.0004998669 -0.004646995 -0.002474138)
(0.0005209776 -0.002133569 -0.000371525)
(0.0003975269 -0.002278539 -0.0007689079)
(0.000555737 -0.002357739 -0.002197081)
(0.000475232 -0.002616716 -0.0008245789)
(0.0004785716 -0.0007067691 -0.0003451418)
(0.0005171686 -0.0007393219 -0.000703578)
(0.0003870418 -0.0007817669 -0.002024853)
(0.0005311721 -0.0007993008 -0.0007384212)
(0.0004617023 -0.0009004477 -0.00793246)
(0.4176484 -0.004777169 -0.004627103)
(0.7166517 -0.0850333 -0.1063637)
(0.6222601 0.002014321 0.002612219)
(1.783899 -0.02379014 -0.02351202)
(1.75385 -0.1926752 -0.1734318)
(0.9184462 -0.001620051 -0.001835578)
(1.94833 0.00304806 0.004117409)
(3.211825 -0.03388579 -0.035064)
(2.42491 -0.1956694 -0.1536804)
(0.9765961 0.0005434481 0.0009078195)
(2.513951 -0.001964199 -0.00342361)
(3.183098 0.002251843 0.004203702)
(4.298724 -0.02951445 -0.03382738)
(2.777217 -0.1337259 -0.08476513)
(1.066589 -0.0001032499 -0.0006240826)
(2.537188 0.0004008596 0.001562585)
(3.753946 -0.0007256093 -0.004093382)
(4.039456 0.0009047354 0.001959193)
(4.879886 -0.01133832 -0.01892355)
(2.891361 -0.04685097 0.001687374)
(1.046535 -5.149862e-05 0.0002156063)
(2.614809 0.0001773482 -0.00137134)
(3.584684 -0.0005318094 0.001137178)
(4.433818 0.0006337577 -0.004036162)
(4.357667 -0.001163899 -0.0004554901)
(4.911585 0.01113951 0.002328981)
(2.810702 0.04623437 0.08497875)
(1.002045 0.0001140522 -0.0002495409)
(2.417213 -0.0003443304 0.0001485057)
(3.447477 0.0005075206 -0.002070071)
(3.960781 -0.001758636 -0.0002508011)
(4.451125 0.001450382 -0.003643172)
(4.084599 -0.004232752 -0.002484124)
(4.389433 0.02800373 0.02093182)
(2.502076 0.125674 0.1472521)
(0.8781647 -5.297502e-05 2.849531e-05)
(2.106648 0.0002647546 -0.000661446)
(2.899235 -0.000672524 -0.0003503159)
(3.454873 0.0006325053 -0.002434926)
(3.606393 -0.002738476 -0.001936347)
(3.800106 0.001740528 -0.003016344)
(3.261042 -0.007224131 -0.004726482)
(3.345314 0.03070595 0.02741003)
(1.887772 0.1603517 0.1472695)
(0.6770101 7.939205e-05 -9.312569e-05)
(1.541597 -0.0001456707 -8.393003e-05)
(2.108795 0.0002352661 -0.0009383281)
(2.424654 -0.000740133 -0.0008962225)
(2.632058 0.0004958868 -0.002327942)
(2.56949 -0.00275753 -0.003233057)
(2.570781 0.001383153 -0.002602704)
(2.032018 -0.007366353 -0.007301844)
(1.934441 0.01946345 0.01684184)
(0.8929612 0.1129882 0.02933284)
(0.3294383 7.863629e-06 -3.933165e-07)
(0.6772245 7.728914e-05 -0.0001333295)
(0.8792375 -6.73076e-05 -0.0001584345)
(1.005045 0.000182963 -0.000606365)
(1.052931 -0.0003210685 -0.00080103)
(1.078464 0.0004274166 -0.001423223)
(0.9962363 -0.001282631 -0.002828414)
(0.9511065 0.001198062 -0.002271814)
(0.6688289 -0.003491533 -0.008243045)
(0.513313 0.001192081 -0.01726995)
(0.00243791 -0.009167764 -0.008207855)
(0.000678724 -0.01096263 -0.0008973276)
(0.000573741 -0.009886103 -0.001901265)
(0.0004362728 -0.005332967 -0.0006287814)
(0.0006308439 -0.005460991 -0.001291322)
(0.0005340784 -0.006008825 -0.002939318)
(0.0005351483 -0.003825767 -0.000395183)
(0.0004124659 -0.004018114 -0.0008233062)
(0.0005812717 -0.004108036 -0.002276732)
(0.000494007 -0.004520137 -0.0008858936)
(0.0004854454 -0.002046804 -0.0003547646)
(0.0005256892 -0.002144805 -0.0007286485)
(0.0003956115 -0.002260686 -0.002061842)
(0.0005454222 -0.002327746 -0.0007620452)
(0.0004725524 -0.00259221 -0.008018258)
(0.0005258293 -0.000676285 -0.0003312387)
(0.000483083 -0.0007093838 -0.0006720355)
(0.0005156362 -0.0007361182 -0.001921006)
(0.0003792202 -0.0007673468 -0.0006935755)
(0.0005312997 -0.0007996922 -0.00738132)
(4.969692e-05 -9.802238e-05 -0.003029044)
(0.3008075 0.001547687 0.001570838)
(0.815606 -0.008797527 -0.01171548)
(0.8503813 -0.08508984 -0.09349843)
(0.7089125 -0.001618607 -0.001673061)
(1.433273 0.003205169 0.003214475)
(2.359097 -0.02987517 -0.02913169)
(1.922342 -0.1925134 -0.1241512)
(0.8604874 0.0008206284 0.0009025785)
(2.177265 -0.00290245 -0.003457955)
(2.714733 0.004044972 0.003636045)
(3.704931 -0.03666864 -0.02948402)
(2.51954 -0.1922241 -0.07796402)
(1.01166 -0.0003062244 -0.0006210922)
(2.383733 0.001134844 0.001533762)
(3.51581 -0.002080971 -0.004195806)
(3.765323 0.002921101 0.001749151)
(4.584327 -0.03003729 -0.01743345)
(2.789904 -0.1317052 0.003284145)
(1.046535 5.149869e-05 0.0002156063)
(2.614809 -0.0001773481 -0.00137134)
(3.584684 0.0005318093 0.001137177)
(4.433818 -0.0006337574 -0.004036162)
(4.357667 0.001163899 -0.0004554901)
(4.911585 -0.01113951 0.002328981)
(2.810702 -0.04623437 0.08497875)
(1.056717 3.852352e-05 -0.0002536695)
(2.57202 -0.0001225723 0.0001343107)
(3.684456 0.000169339 -0.002104529)
(4.248863 -0.0006384072 -0.0002374718)
(4.773391 0.0004926383 -0.003615455)
(4.388535 -0.001395852 -0.002480868)
(4.669798 0.01061259 0.02066848)
(2.586532 0.04419695 0.1459929)
(0.9957165 -3.587297e-05 1.932924e-05)
(2.438103 0.0001711771 -0.0007269354)
(3.394679 -0.0004940626 -0.0004500365)
(4.067273 0.0003664755 -0.002639188)
(4.265762 -0.002045574 -0.002046092)
(4.48034 0.001056219 -0.003050627)
(3.852184 -0.004703094 -0.004658432)
(3.866204 0.0249134 0.02971833)
(2.055935 0.107761 0.1497353)
(0.8804346 8.124813e-05 -0.0001187357)
(2.094286 -0.0001583691 -0.0001697738)
(2.92338 0.0002147777 -0.001245442)
(3.402 -0.0008616217 -0.001254046)
(3.706294 0.000350952 -0.002945864)
(3.629377 -0.003185438 -0.003820947)
(3.597179 0.001152591 -0.002611412)
(2.837824 -0.007649215 -0.00732768)
(2.56949 0.02517593 0.02421231)
(1.076152 0.1003859 0.03719151)
(0.6750195 1.677968e-05 -2.341418e-05)
(1.545282 9.649008e-05 -0.0003270255)
(2.096423 -0.0002300697 -0.0004720105)
(2.445547 0.0001339896 -0.001422123)
(2.589099 -0.0009413658 -0.001823334)
(2.647462 0.0001379961 -0.002903778)
(2.438417 -0.003355741 -0.005090692)
(2.267339 0.0005077403 -0.002946719)
(1.555369 -0.007606967 -0.01018052)
(1.046211 0.009094914 -0.009497343)
(0.003848944 0.0005760365 -0.005671617)
(0.3296065 2.221479e-05 -1.535342e-05)
(0.6752336 9.386919e-06 -6.487301e-05)
(0.8815031 7.976515e-05 -0.0002948616)
(0.9987012 -8.207304e-05 -0.0004247188)
(1.063117 0.0001491379 -0.0008959075)
(1.058273 -0.0004005728 -0.001441291)
(1.031621 0.0002525869 -0.002070837)
(0.8916024 -0.001508993 -0.004277496)
(0.7604682 0.001093148 -0.00460117)
(0.3770393 -0.00614659 -0.02009245)
(0.00266532 -0.008205976 -0.007037825)
(0.0006730349 -0.007581617 -0.01125706)
(0.000465869 -0.01045323 -0.0008473303)
(0.0006782039 -0.008640623 -0.001682926)
(0.0005691857 -0.00885956 -0.003383868)
(0.0005600918 -0.005013804 -0.0005929463)
(0.0004383688 -0.005227033 -0.001213259)
(0.0006261255 -0.005314225 -0.002658971)
(0.0005263364 -0.005810482 -0.00120714)
(0.0004966891 -0.003668603 -0.0003771202)
(0.0005398904 -0.003780707 -0.0007788442)
(0.0004103628 -0.003934878 -0.002132891)
(0.0005700547 -0.004007208 -0.000811875)
(0.0004913134 -0.004444789 -0.008179272)
(0.0005322276 -0.001958387 -0.0003403401)
(0.000489997 -0.002057901 -0.0006957444)
(0.0005240836 -0.00212842 -0.001954677)
(0.0003875672 -0.002234583 -0.0007152769)
(0.0005455408 -0.002303527 -0.007441748)
(5.076367e-05 -0.0002810729 -0.003056615)
(0.0005207086 -0.000652131 -0.0003189961)
(0.0005310812 -0.0006788574 -0.0006448551)
(0.0004818015 -0.0007064056 -0.001835172)
(0.0005092386 -0.0007229177 -0.0006578167)
(0.0003798472 -0.0007671364 -0.006933612)
(5.626798e-05 -8.7466e-05 -0.002818908)
(4.508664e-05 -8.833856e-05 -0.003589572)
(0.3481961 -0.0009435095 -0.0009396829)
(0.6224898 0.002591653 0.002075966)
(1.030091 -0.009050502 -0.01215517)
(0.9112358 -0.082858 -0.0627001)
(0.6604034 0.0008326433 0.0008415421)
(1.609086 -0.002800183 -0.00309448)
(1.950493 0.004261071 0.002927798)
(2.682647 -0.03139896 -0.02307692)
(1.993806 -0.1891056 -0.06028157)
(0.8929766 -0.0004780122 -0.0006086682)
(2.057123 0.001629992 0.001473536)
(3.011208 -0.003051964 -0.004201967)
(3.1904 0.005011965 0.001490205)
(3.937522 -0.03699572 -0.01448178)
(2.531123 -0.1897405 0.005825228)
(0.9921231 0.0001487844 0.0002187761)
(2.458667 -0.0005226982 -0.001359928)
(3.351457 0.001482277 0.001106125)
(4.140361 -0.001828639 -0.00409794)
(4.056361 0.003628731 -0.000512705)
(4.612895 -0.02945043 0.003136117)
(2.71328 -0.1304745 0.08617629)
(1.056717 -3.852374e-05 -0.0002536694)
(2.57202 0.0001225721 0.0001343108)
(3.684456 -0.0001693389 -0.002104529)
(4.248863 0.0006384069 -0.0002374717)
(4.773391 -0.0004926378 -0.003615455)
(4.388535 0.001395851 -0.002480867)
(4.669798 -0.01061259 0.02066848)
(2.586532 -0.04419695 0.1459929)
(1.050213 -1.278366e-05 1.569133e-05)
(2.593574 5.748092e-05 -0.0007495351)
(3.62982 -0.0001795882 -0.0004884826)
(4.359719 0.0001148473 -0.002694306)
(4.582532 -0.0007476519 -0.002046963)
(4.805261 0.000347517 -0.003004254)
(4.134319 -0.001585391 -0.004608159)
(4.106158 0.009447288 0.02960927)
(2.108778 0.03771692 0.1495888)
(0.9980649 5.367406e-05 -0.0001297088)
(2.424579 -0.0001165505 -0.0002195753)
(3.421109 0.0001253605 -0.0013899)
(4.009062 -0.0006537145 -0.001424121)
(4.376666 0.0001390701 -0.003166309)
(4.293976 -0.002380346 -0.003926558)
(4.230459 0.000664906 -0.002415784)
(3.333557 -0.005060462 -0.007019396)
(2.943221 0.01915525 0.02525789)
(1.155728 0.06484843 0.03787217)
(0.8781127 2.103685e-05 -4.246429e-05)
(2.098568 9.484119e-05 -0.0004469706)
(2.907659 -0.0002714172 -0.0006975648)
(3.428434 7.398723e-05 -0.001883934)
(3.651463 -0.001126143 -0.002347639)
(3.72959 -7.048368e-05 -0.00347742)
(3.429925 -0.003778285 -0.005592968)
(3.141436 0.0004424404 -0.002248416)
(2.132508 -0.007395035 -0.008731697)
(1.342935 0.01087928 -0.00361671)
(0.004484598 0.0004696304 -0.003996305)
(0.6751945 3.194257e-05 -4.720843e-05)
(1.541461 -8.779145e-06 -0.0002080217)
(2.100696 5.054283e-05 -0.0007220415)
(2.431986 -0.0003400774 -0.001058666)
(2.610654 -5.255749e-05 -0.00201094)
(2.604317 -0.001285488 -0.002932406)
(2.514165 -0.0004615784 -0.003663953)
(2.143277 -0.004184667 -0.006811131)
(1.746782 -0.0005264685 -0.004328457)
(0.8097858 -0.006134204 -0.01501901)
(0.004529889 -2.173526e-05 -0.00489712)
(0.000683674 -0.001450506 -0.008099874)
(0.3292419 1.488273e-05 -8.269846e-06)
(0.675408 3.315598e-05 -8.001248e-05)
(0.8791792 5.990998e-06 -0.0002203028)
(1.001037 6.765463e-05 -0.0005133798)
(1.056581 -0.0001150987 -0.0007943523)
(1.068474 7.258542e-05 -0.001347286)
(1.011824 -0.0005691579 -0.002342787)
(0.9247689 2.444062e-05 -0.003004554)
(0.7090918 -0.001523632 -0.006731303)
(0.4338898 -0.002710516 -0.01774884)
(0.001886808 -0.007855334 -0.006675675)
(0.0008028669 -0.006679575 -0.009612456)
(0.0006432989 -0.006929372 -0.007874545)
(0.0005882463 -0.00982166 -0.0007953457)
(0.0004659549 -0.008249439 -0.001583561)
(0.000672029 -0.007762854 -0.00302547)
(0.0005594185 -0.00790787 -0.001506554)
(0.0005164654 -0.004807208 -0.0005658921)
(0.0005642071 -0.00491559 -0.001143853)
(0.0004353953 -0.005088604 -0.002488838)
(0.0006123592 -0.005155418 -0.00108073)
(0.0005231388 -0.005697867 -0.00849003)
(0.0005423957 -0.003509281 -0.0003615041)
(0.0005012698 -0.003626075 -0.0007432301)
(0.0005381318 -0.003703171 -0.00201909)
(0.0004018857 -0.003843176 -0.0007610977)
(0.0005702084 -0.003936984 -0.007549873)
(5.270617e-05 -0.0004821286 -0.00311302)
(0.0005263624 -0.001888398 -0.000327686)
(0.0005375231 -0.00196923 -0.0006673284)
(0.0004886595 -0.002042484 -0.001866612)
(0.0005175289 -0.002105131 -0.000677812)
(0.0003881769 -0.002210054 -0.006983127)
(5.766357e-05 -0.0002510506 -0.002837353)
(4.603237e-05 -0.00025561 -0.003622784)
(0.0005394452 -0.0006290889 -0.000308049)
(0.0005260347 -0.0006546728 -0.0006209619)
(0.0005299535 -0.000676086 -0.001761201)
(0.000476416 -0.000694072 -0.0006283876)
(0.0005076648 -0.0007226097 -0.006578851)
(4.000742e-05 -8.411657e-05 -0.002648148)
(5.05088e-05 -7.897885e-05 -0.003340452)
(4.430605e-05 -8.816596e-05 -0.003540387)
(0.3214395 0.0004830628 0.0004907779)
(0.7091358 -0.001649392 -0.001699693)
(0.8129644 0.00286684 0.001866759)
(1.147745 -0.008581545 -0.008385261)
(0.9362781 -0.08139087 -0.02904282)
(0.6873144 -0.0004948358 -0.000543769)
(1.511967 0.001556795 0.001317457)
(2.179483 -0.002969378 -0.003677712)
(2.26544 0.004982149 0.001271177)
(2.832989 -0.03107916 -0.01066612)
(2.002208 -0.1872458 0.007172054)
(0.8747935 0.0002252856 0.0002262812)
(2.125462 -0.0008006436 -0.001296888)
(2.860377 0.002062454 0.001063195)
(3.523366 -0.002728391 -0.004017954)
(3.426602 0.005930803 -0.0005249069)
(3.960258 -0.03616111 0.003859938)
(2.463138 -0.1889064 0.08479208)
(1.002045 -0.0001140523 -0.000249541)
(2.417213 0.0003443303 0.0001485058)
(3.447477 -0.0005075205 -0.002070071)
(3.960781 0.001758636 -0.000250801)
(4.451125 -0.001450382 -0.003643172)
(4.084599 0.004232752 -0.002484123)
(4.389433 -0.02800373 0.02093182)
(2.502076 -0.125674 0.1472521)
(1.050213 1.278304e-05 1.56913e-05)
(2.593574 -5.74808e-05 -0.000749535)
(3.62982 0.0001795882 -0.0004884825)
(4.359719 -0.0001148474 -0.002694306)
(4.582532 0.0007476515 -0.002046963)
(4.805261 -0.0003475166 -0.003004254)
(4.134319 0.001585391 -0.004608159)
(4.106158 -0.009447288 0.02960927)
(2.108778 -0.03771692 0.1495888)
(1.052575 1.822052e-05 -0.0001339404)
(2.579591 -4.26991e-05 -0.0002396308)
(3.657154 3.91636e-05 -0.001442047)
(4.299414 -0.0002411886 -0.001482282)
(4.698091 2.916288e-05 -0.003216864)
(4.613315 -0.0008695452 -0.003900552)
(4.531914 0.000212068 -0.002284459)
(3.568841 -0.00174274 -0.006854903)
(3.123414 0.006954737 0.02406727)
(1.183235 0.02221052 0.03760586)
(0.9956225 1.483209e-05 -5.227175e-05)
(2.429004 5.917479e-05 -0.0005073107)
(3.403792 -0.0002102912 -0.0008184218)
(4.038066 6.96931e-06 -0.002093602)
(4.316238 -0.0008677773 -0.002548827)
(4.405247 -0.0001750635 -0.003608621)
(4.047775 -0.002762544 -0.005527516)
(3.673399 0.000282254 -0.001701444)
(2.480105 -0.004939599 -0.008050471)
(1.511605 0.007969947 -0.002591315)
(0.004759843 0.0002923867 -0.003499612)
(0.8782191 3.147172e-05 -6.641756e-05)
(2.093992 -8.803171e-06 -0.0003131213)
(2.912598 2.965191e-05 -0.0009862512)
(3.411082 -0.0004234358 -0.001445836)
(3.67879 -0.0001690515 -0.002576511)
(3.674499 -0.001531152 -0.003508146)
(3.527047 -0.0006783633 -0.00395088)
(2.98524 -0.004430581 -0.006773041)
(2.376241 -0.0002083301 -0.002232877)
(1.073027 -0.004991846 -0.009239351)
(0.005566824 2.72748e-05 -0.003447015)
(0.0006894652 -0.0007370249 -0.005962975)
(0.6744851 2.361348e-05 -3.455659e-05)
(1.541508 1.361784e-05 -0.0002254801)
(2.096115 -6.514136e-05 -0.0005875864)
(2.43638 -4.328041e-05 -0.001221997)
(2.596593 -0.0005217844 -0.001798795)
(2.625912 -0.0003839668 -0.002747768)
(2.472032 -0.00186782 -0.00419594)
(2.213341 -0.001345776 -0.00449357)
(1.642663 -0.00478568 -0.008281068)
(0.917918 -0.001464829 -0.01227184)
(0.003414137 -9.781043e-05 -0.00463436)
(0.0008174706 -0.001432596 -0.006952712)
(0.0006497387 -0.001950509 -0.006550698)
(0.329069 1.822081e-05 -1.18208e-05)
(0.6746979 2.079251e-05 -7.078392e-05)
(0.8792824 3.067489e-05 -0.000227003)
(0.9985892 -6.810443e-06 -0.0004497162)
(1.058919 3.654174e-05 -0.0008174755)
(1.06191 -0.0001892582 -0.001325189)
(1.021805 -9.093947e-05 -0.002055171)
(0.9061083 -0.0007871693 -0.003487797)
(0.7374157 -4.794892e-05 -0.005192843)
(0.4014151 -0.004359776 -0.01768395)
(0.002203901 -0.007363319 -0.006268513)
(0.0005334021 -0.006381052 -0.009110723)
(0.0007679187 -0.006121616 -0.0068205)
(0.0006200879 -0.006310026 -0.004432977)
(0.0005388736 -0.009406053 -0.0007599525)
(0.0005902451 -0.007752559 -0.001488221)
(0.0004621155 -0.007416891 -0.00282825)
(0.0006555979 -0.006967477 -0.001332958)
(0.0005559602 -0.007487113 -0.008852284)
(0.0005602094 -0.004597213 -0.0005416358)
(0.0005205546 -0.004713876 -0.001091617)
(0.0005616929 -0.00478672 -0.002349944)
(0.0004257342 -0.004943347 -0.001014114)
(0.0006119382 -0.005049906 -0.007764269)
(5.602081e-05 -0.00061733 -0.0032012)
(0.000535133 -0.003383111 -0.0003479232)
(0.0005477224 -0.003469028 -0.0007123122)
(0.0004998162 -0.003552335 -0.001926696)
(0.0005312765 -0.003619109 -0.0007200204)
(0.0004024765 -0.003773896 -0.007069464)
(6.020646e-05 -0.0004293479 -0.002874282)
(4.775906e-05 -0.000438407 -0.003689774)
(0.0005447262 -0.001821602 -0.0003163687)
(0.0005317301 -0.00189903 -0.0006424615)
(0.0005363473 -0.001954697 -0.001790746)
(0.0004831583 -0.00202107 -0.0006472605)
(0.0005159002 -0.002081512 -0.006621702)
(4.082076e-05 -0.0002415283 -0.002662683)
(5.174171e-05 -0.0002289031 -0.003362807)
(4.522575e-05 -0.0002524717 -0.003572775)
(0.0005416824 -0.0006091117 -0.0002981492)
(0.0005451042 -0.0006315855 -0.0005995771)
(0.0005250388 -0.0006520559 -0.001696135)
(0.0005252423 -0.0006644738 -0.0006029736)
(0.0004746295 -0.0006936212 -0.006285033)
(5.45527e-05 -7.933795e-05 -0.002512851)
(3.580427e-05 -7.606931e-05 -0.003138009)
(4.941307e-05 -7.899163e-05 -0.003294773)
(4.379718e-05 -8.586255e-05 -0.003193817)
(0.3361214 -0.0003023269 -0.0002951761)
(0.6606179 0.0008573181 0.0007778951)
(0.9195617 -0.00178518 -0.001903925)
(0.9235758 0.002997881 0.0009967955)
(1.201304 -0.0081633 -0.00319474)
(0.9390811 -0.08092816 0.004570248)
(0.6721785 0.0002314711 0.0002246525)
(1.566518 -0.000810106 -0.001088058)
(2.059271 0.001889105 0.0009753817)
(2.52164 -0.002741919 -0.003389769)
(2.420531 0.005637486 -0.0003731375)
(2.84745 -0.03031169 0.003739593)
(1.950035 -0.187202 0.07126407)
(0.8840405 -0.0001761984 -0.0002377309)
(2.087457 0.0004894844 0.0001824046)
(2.947327 -0.0007978264 -0.001932033)
(3.358789 0.002389359 -0.0002193333)
(3.776266 -0.002255445 -0.003526771)
(3.449516 0.006665985 -0.002440956)
(3.777165 -0.03438379 0.01962216)
(2.2778 -0.1840461 0.1445442)
(0.9957165 3.587252e-05 1.932933e-05)
(2.438103 -0.0001711769 -0.0007269352)
(3.394679 0.0004940628 -0.0004500365)
(4.067273 -0.0003664757 -0.002639188)
(4.265762 0.002045574 -0.002046092)
(4.48034 -0.001056219 -0.003050627)
(3.852184 0.004703093 -0.004658432)
(3.866204 -0.0249134 0.02971833)
(2.055935 -0.107761 0.1497353)
(1.052575 -1.822095e-05 -0.0001339404)
(2.579591 4.269963e-05 -0.0002396309)
(3.657154 -3.916368e-05 -0.001442047)
(4.299414 0.0002411884 -0.001482282)
(4.698091 -2.916302e-05 -0.003216864)
(4.613315 0.0008695446 -0.003900552)
(4.531914 -0.0002120677 -0.002284459)
(3.568841 0.00174274 -0.006854903)
(3.123414 -0.006954736 0.02406727)
(1.183235 -0.02221052 0.03760586)
(1.050096 5.021885e-06 -5.602874e-05)
(2.584029 1.919752e-05 -0.0005304897)
(3.6392 -7.861583e-05 -0.0008658821)
(4.329442 -6.340175e-06 -0.002165645)
(4.635458 -0.0003220811 -0.002601362)
(4.729275 -8.472054e-05 -0.00360343)
(4.343604 -0.0009980513 -0.005406445)
(3.924824 9.386307e-05 -0.001449488)
(2.643881 -0.001744384 -0.007884414)
(1.588994 0.002823905 -0.002240764)
(0.004854109 9.753904e-05 -0.003283561)
(0.9956569 1.89617e-05 -7.5032e-05)
(2.42415 -9.062415e-06 -0.0003698269)
(3.408838 2.826847e-06 -0.00111884)
(4.018894 -0.0003378468 -0.001631296)
(4.346247 -0.0001880466 -0.002796953)
(4.344523 -0.001169673 -0.00364146)
(4.155476 -0.0005764676 -0.003838569)
(3.502847 -0.003084349 -0.006358987)
(2.751079 4.183806e-05 -0.001313187)
(1.224659 -0.003102057 -0.007916594)
(0.006156418 2.490844e-05 -0.003000488)
(0.000689489 -0.0002192837 -0.005238594)
(0.877308 2.478508e-05 -5.266754e-05)
(2.09379 4.790427e-06 -0.0003247377)
(2.907071 -8.450949e-05 -0.0008332729)
(3.416099 -0.0001005421 -0.001632912)
(3.660747 -0.0006604449 -0.002314671)
(3.701885 -0.0005589633 -0.003292212)
(3.473346 -0.002123988 -0.004578912)
(3.074555 -0.001429108 -0.004137021)
(2.246607 -0.004600587 -0.006805824)
(1.206458 -0.0003603735 -0.006717004)
(0.004342624 -3.872793e-05 -0.003246102)
(0.00082677 -0.0007502773 -0.005109043)
(0.0006541606 -0.001034848 -0.005633703)
(0.6741072 3.016357e-05 -4.027737e-05)
(1.539945 1.646453e-06 -0.0002083578)
(2.095906 -4.301869e-05 -0.0005852694)
(2.431513 -0.000159737 -0.001103133)
(2.600962 -0.0002143142 -0.001833531)
(2.611773 -0.0008426941 -0.002697049)
(2.493066 -0.0009517004 -0.003648629)
(2.174105 -0.002703549 -0.005425894)
(1.7007 -0.002207422 -0.005737014)
(0.8567643 -0.004177138 -0.01290966)
(0.003914067 -6.782853e-05 -0.004343564)
(0.0005503383 -0.001388842 -0.006576294)
(0.0007767558 -0.0018561 -0.005685914)
(0.0006292214 -0.002352764 -0.003569254)
(0.3287816 1.54978e-05 -9.260684e-06)
(0.6743193 2.679369e-05 -7.633613e-05)
(0.8783667 1.782853e-05 -0.0002157229)