/*--------------------------------*- C++ -*----------------------------------*\
| =========                 |                                                 |
| \\      /  F ield         | OpenFOAM: The Open Source CFD Toolbox           |
|  \\    /   O peration     | Version:  2306                                  |
|   \\  /    A nd           | Website:  www.openfoam.com                      |
|    \\/     M anipulation  |                                                 |
\*---------------------------------------------------------------------------*/
FoamFile
{
    version     2.0;
    format      ascii;
    arch        "LSB;label=32;scalar=64";
    class       volScalarField;
    location    "0.3/air";
    object      X.N2;
}
// * * * * * * * * * * * * * * * * * * * * * * * * * * * * * * * * * * * * * //

dimensions      [0 0 0 0 0 0 0];

internalField   nonuniform List<scalar> 
16000
(
0.7929074
0.7929032
0.7936526
0.7929351
0.7928969
0.7935859
0.7929288
0.7952619
0.7937433
0.7929991
0.7928909
0.7935004
0.79292
0.7951688
0.7936524
0.7929873
0.7970417
0.7953831
0.7939817
0.7931198
0.7928874
0.7934282
0.7929121
0.7950421
0.7935425
0.7929723
0.7969436
0.7952615
0.7938555
0.7930942
0.7988461
0.7971714
0.7956864
0.794428
0.7933415
0.7928874
0.7933881
0.7929074
0.7949301
0.7934535
0.7929595
0.7968092
0.7951034
0.7937053
0.793066
0.7987488
0.7970444
0.7955301
0.7942632
0.7932894
0.8006155
0.7989749
0.7974932
0.796227
0.7951411
0.7937498
0.825492
0.7928909
0.7933881
0.7929074
0.7948659
0.793405
0.7929524
0.7966897
0.7949673
0.7935858
0.7930445
0.7986155
0.796878
0.7953297
0.7940618
0.7932301
0.8005213
0.7988493
0.7973328
0.7960376
0.7949396
0.7936611
0.8023294
0.8007408
0.7992935
0.7980608
0.797053
0.796169
0.7944566
0.8243613
0.8271148
0.8256704
0.7928969
0.7934282
0.7929121
0.7948659
0.793405
0.7929524
0.7966208
0.7948904
0.7935215
0.793033
0.7984969
0.7967337
0.7951592
0.7938988
0.7931844
0.8003922
0.7986847
0.7971255
0.7957939
0.7946862
0.7935485
0.8022386
0.8006194
0.7991361
0.7978711
0.7968341
0.7959317
0.794328
0.8039838
0.8024501
0.8010506
0.7998529
0.7989159
0.7982041
0.7975673
0.7956038
0.822076
0.8260885
0.8245439
0.8278572
0.8272805
0.8260266
0.7929032
0.7935004
0.79292
0.7949301
0.7934535
0.7929595
0.7966208
0.7948904
0.7935215
0.793033
0.7984285
0.7966515
0.7950635
0.7938105
0.7931601
0.8002773
0.7985419
0.7969476
0.7955867
0.7944765
0.793455
0.8021142
0.8004602
0.7989327
0.7976253
0.7965498
0.7956293
0.7941548
0.8038964
0.8023331
0.8008988
0.7996688
0.798703
0.797958
0.7972824
0.7954064
0.8055811
0.8041
0.8027484
0.8015938
0.8006908
0.8000878
0.7997135
0.7994046
0.7974082
0.8185498
0.8240191
0.8222732
0.8268889
0.8262574
0.8249075
0.8283785
0.8280126
0.8276113
0.8265595
0.7929074
0.7935859
0.7929288
0.7950421
0.7935425
0.7929723
0.7966897
0.7949673
0.7935858
0.7930445
0.7984285
0.7966515
0.7950635
0.7938105
0.7931601
0.8002111
0.7984607
0.796847
0.7954704
0.7943611
0.7934034
0.8020036
0.8003221
0.7987582
0.7974142
0.7963068
0.7953755
0.7940062
0.8037767
0.8021798
0.8007027
0.7994304
0.7984247
0.7976351
0.7969157
0.7951389
0.8054969
0.8039875
0.8026023
0.8014169
0.8004868
0.7998559
0.7994357
0.7990446
0.7970359
0.8071257
0.8056931
0.8043874
0.8032712
0.8024055
0.8018316
0.8015963
0.8016137
0.8017667
0.8002693
0.8134485
0.8208401
0.8188023
0.8249368
0.8241998
0.8226612
0.8274594
0.8270471
0.8265939
0.8254494
0.8288671
0.8285257
0.8283229
0.8281065
0.8272677
0.7936526
0.7929351
0.7951688
0.7936524
0.7929873
0.7968092
0.7951034
0.7937053
0.793066
0.7984969
0.7967337
0.7951592
0.7938988
0.7931844
0.8002111
0.7984607
0.796847
0.7954704
0.7943611
0.7934034
0.8019398
0.8002435
0.7986595
0.7972949
0.7961701
0.7952343
0.7939227
0.8036703
0.8020469
0.8005343
0.7992258
0.7981845
0.7973572
0.796606
0.7949121
0.8053815
0.80384
0.8024137
0.8011879
0.8002204
0.7995491
0.7990681
0.7985852
0.7965881
0.8070443
0.8055846
0.8042468
0.8031012
0.8022103
0.8016118
0.801341
0.8012779
0.8012413
0.7993758
0.8086223
0.8072338
0.8059699
0.8048908
0.8040519
0.8035078
0.8032903
0.8034599
0.8039561
0.8048109
0.8051285
0.8162778
0.8139701
0.8219402
0.8210667
0.8192724
0.8256071
0.8251057
0.8245556
0.8232306
0.8279893
0.8276092
0.8273623
0.8270958
0.8261668
0.8294209
0.8290075
0.8288197
0.8287874
0.828765
0.8282922
0.7952619
0.7937433
0.7929991
0.7969436
0.7952615
0.7938555
0.7930942
0.7986155
0.796878
0.7953297
0.7940618
0.7932301
0.8002773
0.7985419
0.7969476
0.7955867
0.7944765
0.793455
0.8019398
0.8002435
0.7986595
0.7972949
0.7961701
0.7952343
0.7939227
0.8036089
0.8019712
0.8004391
0.7991101
0.7980484
0.7972004
0.796433
0.7947859
0.8052789
0.8037121
0.8022518
0.8009914
0.7999906
0.7992825
0.798751
0.7982014
0.7962377
0.8069329
0.8054424
0.8040653
0.8028813
0.8019557
0.8013215
0.801
0.8008396
0.8006215
0.7985776
0.8085436
0.807129
0.8058344
0.8047272
0.8038646
0.8032984
0.8030499
0.8031536
0.8034717
0.8038255
0.802546
0.810075
0.8087269
0.8075012
0.8064551
0.8056427
0.8051114
0.8049135
0.8050818
0.805718
0.8068719
0.808949
0.8075492
0.8176444
0.8167326
0.8147475
0.8227649
0.8221516
0.8214903
0.819924
0.8262206
0.8257668
0.8254383
0.8250788
0.8239728
0.8285796
0.8281322
0.8279076
0.8278325
0.8277608
0.8272008
0.830026
0.8295555
0.829288
0.8292597
0.8294051
0.829718
0.8285035
0.7970417
0.7953831
0.7939817
0.7931198
0.7987488
0.7970444
0.7955301
0.7942632
0.7932894
0.8003922
0.7986847
0.7971255
0.7957939
0.7946862
0.7935485
0.8020036
0.8003221
0.7987582
0.7974142
0.7963068
0.7953755
0.7940062
0.8036089
0.8019712
0.8004391
0.7991101
0.7980484
0.7972004
0.796433
0.7947859
0.8052198
0.8036393
0.8021604
0.8008803
0.7998605
0.799131
0.798572
0.7979884
0.796051
0.8068339
0.8053192
0.8039096
0.8026927
0.8017361
0.8010696
0.8007032
0.8004671
0.8001289
0.7980368
0.8084358
0.8069917
0.8056594
0.8045157
0.8036204
0.8030221
0.8027296
0.8027507
0.8028933
0.8029059
0.8011793
0.8099987
0.8086255
0.8073702
0.8062973
0.8054625
0.8049105
0.8046849
0.8047933
0.8052708
0.805953
0.8065168
0.8045135
0.8114874
0.8101764
0.8089856
0.8079698
0.8071798
0.8066632
0.8064619
0.8066353
0.8072432
0.8084936
0.8107546
0.8110223
0.8094312
0.8186932
0.818069
0.8174154
0.8156519
0.8235073
0.8229645
0.8225467
0.8220801
0.8207296
0.8268846
0.8263727
0.8260813
0.8259274
0.8257621
0.8250283
0.8292166
0.8287165
0.8284168
0.8283528
0.8284557
0.8287201
0.8274141
0.8306838
0.8301555
0.8298243
0.8297078
0.8298451
0.8302994
0.8299146
0.8287167
0.7988461
0.7971714
0.7956864
0.794428
0.7933415
0.8005213
0.7988493
0.7973328
0.7960376
0.7949396
0.7936611
0.8021142
0.8004602
0.7989327
0.7976253
0.7965498
0.7956293
0.7941548
0.8036703
0.8020469
0.8005343
0.7992258
0.7981845
0.7973572
0.796606
0.7949121
0.8052198
0.8036393
0.8021604
0.8008803
0.7998605
0.799131
0.798572
0.7979884
0.796051
0.8067768
0.805249
0.8038216
0.8025861
0.8016117
0.8009266
0.8005346
0.800259
0.7998631
0.797768
0.8083399
0.8068727
0.8055094
0.8043343
0.8034099
0.8027824
0.8024513
0.802406
0.8024288
0.8022532
0.800391
0.8098942
0.8084926
0.8072012
0.8060933
0.8052275
0.8046457
0.8043806
0.804415
0.804735
0.8050935
0.8051326
0.8028549
0.8114133
0.810078
0.8088588
0.8078173
0.8070058
0.8064698
0.8062425
0.8063609
0.8068196
0.8076306
0.8084681
0.8082031
0.8062567
0.8128629
0.8115858
0.8104271
0.8094391
0.80867
0.8081637
0.807964
0.8081158
0.8087082
0.8098932
0.812168
0.8126966
0.8126444
0.8109712
0.8196215
0.8190941
0.8187056
0.8182161
0.8166215
0.8242847
0.8236973
0.8233375
0.8230966
0.8228127
0.8218253
0.827586
0.8270303
0.8266724
0.8265439
0.8265664
0.8267356
0.8252458
0.8299031
0.8293483
0.8289892
0.8288414
0.828943
0.8293549
0.828918
0.8276291
0.8313787
0.8308088
0.8304142
0.8302268
0.8302664
0.8306926
0.8304838
0.8301129
0.8289317
0.8006155
0.7989749
0.7974932
0.796227
0.7951411
0.7937498
0.8022386
0.8006194
0.7991361
0.7978711
0.7968341
0.7959317
0.794328
0.8037767
0.8021798
0.8007027
0.7994304
0.7984247
0.7976351
0.7969157
0.7951389
0.8052789
0.8037121
0.8022518
0.8009914
0.7999906
0.7992825
0.798751
0.7982014
0.7962377
0.8067768
0.805249
0.8038216
0.8025861
0.8016117
0.8009266
0.8005346
0.800259
0.7998631
0.797768
0.8082847
0.806805
0.8054246
0.8042319
0.8032908
0.8026462
0.8022934
0.8022123
0.8021771
0.8019193
0.800023
0.8098013
0.8083774
0.8070563
0.8059185
0.8050251
0.8044162
0.8041162
0.8040919
0.8043037
0.804481
0.8042897
0.8019214
0.8113118
0.8099492
0.8086952
0.8076201
0.8067791
0.8062148
0.8059507
0.8060008
0.8063137
0.8068247
0.8071661
0.8065778
0.8044083
0.8127909
0.8114903
0.8103041
0.8092913
0.8085017
0.8079768
0.8077526
0.807852
0.8083039
0.8090716
0.8100051
0.8100422
0.8097045
0.8077837
0.8142043
0.8129586
0.8118293
0.8108668
0.8101168
0.809621
0.8094183
0.8095573
0.8101073
0.8112463
0.8133967
0.8140043
0.8142122
0.813982
0.8122714
0.8205623
0.8200032
0.8196949
0.8194511
0.8190819
0.8177924
0.8250851
0.8244665
0.8240524
0.8238568
0.8237796
0.8238136
0.8220508
0.8283302
0.827726
0.8273173
0.8271133
0.8271482
0.8274769
0.8269363
0.8254651
0.8306236
0.83003
0.8296106
0.8293961
0.8294043
0.8297946
0.8295403
0.8291175
0.827846
0.8321038
0.8314995
0.8310583
0.8308014
0.8307623
0.8310751
0.8308674
0.8306699
0.8303129
0.8291484
0.8023294
0.8007408
0.7992935
0.7980608
0.797053
0.796169
0.7944566
0.8038964
0.8023331
0.8008988
0.7996688
0.798703
0.797958
0.7972824
0.7954064
0.8053815
0.80384
0.8024137
0.8011879
0.8002204
0.7995491
0.7990681
0.7985852
0.7965881
0.8068339
0.8053192
0.8039096
0.8026927
0.8017361
0.8010696
0.8007032
0.8004671
0.8001289
0.7980368
0.8082847
0.806805
0.8054246
0.8042319
0.8032908
0.8026462
0.8022934
0.8022123
0.8021771
0.8019193
0.800023
0.8097477
0.8083119
0.8069745
0.8058198
0.8049106
0.8042859
0.8039661
0.8039108
0.8040694
0.8041669
0.8038829
0.8014934
0.8112216
0.8098375
0.8085549
0.8074512
0.8065839
0.805994
0.8056974
0.8056935
0.8059075
0.8062507
0.8063718
0.8056199
0.8033643
0.8126922
0.8113652
0.8101455
0.8091003
0.8082825
0.8077306
0.8074714
0.8075063
0.807821
0.8083062
0.8087761
0.8085102
0.8079203
0.8058273
0.8141341
0.8128657
0.8117098
0.8107234
0.8099536
0.80944
0.8092138
0.8093028
0.8097183
0.8104599
0.8113338
0.8114907
0.8114405
0.8110262
0.8091096
0.8155141
0.8142975
0.8131954
0.8122562
0.811524
0.8110376
0.8108342
0.810956
0.8114763
0.8125468
0.8146004
0.8151469
0.8154359
0.8154584
0.8151216
0.8135592
0.821505
0.8209275
0.8205751
0.8203981
0.8202561
0.8201363
0.8180322
0.8259181
0.8252598
0.8248064
0.8245468
0.8245018
0.8247127
0.8240196
0.8222777
0.8291027
0.8284652
0.828002
0.8277395
0.8276893
0.8280096
0.8276646
0.8271385
0.8256861
0.8313723
0.8307464
0.8302831
0.830002
0.8299356
0.8302167
0.8299703
0.8297274
0.8293187
0.8280646
0.8328506
0.8322209
0.8317408
0.8314319
0.8313166
0.8315377
0.8312419
0.8310437
0.8308575
0.8305145
0.8294129
0.8039838
0.8024501
0.8010506
0.7998529
0.7989159
0.7982041
0.7975673
0.7956038
0.8054969
0.8039875
0.8026023
0.8014169
0.8004868
0.7998559
0.7994357
0.7990446
0.7970359
0.8069329
0.8054424
0.8040653
0.8028813
0.8019557
0.8013215
0.801
0.8008396
0.8006215
0.7985776
0.8083399
0.8068727
0.8055094
0.8043343
0.8034099
0.8027824
0.8024513
0.802406
0.8024288
0.8022532
0.800391
0.8097477
0.8083119
0.8069745
0.8058198
0.8049106
0.8042859
0.8039661
0.8039108
0.8040694
0.8041669
0.8038829
0.8014934
0.8111696
0.809774
0.8084757
0.8073558
0.8064735
0.8058686
0.8055538
0.8055211
0.8056873
0.8059563
0.8059879
0.8051673
0.8028887
0.8126044
0.8112568
0.8100095
0.8089367
0.8080937
0.8075174
0.8072275
0.8072116
0.8074333
0.8077623
0.8080272
0.8076059
0.8068728
0.8047101
0.814038
0.8127441
0.8115557
0.8105381
0.8097411
0.8092017
0.808942
0.8089695
0.8092541
0.8097274
0.8101629
0.8100416
0.8097561
0.8091489
0.8071066
0.8154456
0.814207
0.8130792
0.8121169
0.8113656
0.810862
0.810636
0.8107097
0.8111008
0.8117901
0.8126242
0.8127485
0.8128092
0.812668
0.8121801
0.8104299
0.8167943
0.8156049
0.814528
0.8136107
0.8128947
0.8124172
0.8122129
0.8123219
0.8128093
0.8138276
0.8157715
0.8162757
0.8165105
0.8166115
0.8165166
0.8162621
0.8138208
0.8224655
0.8218558
0.8214745
0.8212442
0.821157
0.8212351
0.8203523
0.8182723
0.8267704
0.8260865
0.8255865
0.8252796
0.8251609
0.8253829
0.8249047
0.8242268
0.8225059
0.8298987
0.8292333
0.8287314
0.828408
0.8282913
0.8285103
0.8281872
0.8278538
0.8273424
0.8259088
0.8321406
0.8314913
0.8309911
0.8306607
0.830521
0.8307143
0.8303842
0.8301474
0.8299159
0.8295216
0.8283313
0.8336139
0.8329643
0.8324548
0.8321021
0.8319291
0.8320626
0.8316976
0.8314102
0.8312215
0.8310467
0.8307605
0.8296839
0.8055811
0.8041
0.8027484
0.8015938
0.8006908
0.8000878
0.7997135
0.7994046
0.7974082
0.8070443
0.8055846
0.8042468
0.8031012
0.8022103
0.8016118
0.801341
0.8012779
0.8012413
0.7993758
0.8084358
0.8069917
0.8056594
0.8045157
0.8036204
0.8030221
0.8027296
0.8027507
0.8028933
0.8029059
0.8011793
0.8098013
0.8083774
0.8070563
0.8059185
0.8050251
0.8044162
0.8041162
0.8040919
0.8043037
0.804481
0.8042897
0.8019214
0.8111696
0.809774
0.8084757
0.8073558
0.8064735
0.8058686
0.8055538
0.8055211
0.8056873
0.8059563
0.8059879
0.8051673
0.8028887
0.8125539
0.8111951
0.8099326
0.8088444
0.8079869
0.8073964
0.8070892
0.8070464
0.8072231
0.8074837
0.8076655
0.8071781
0.8063826
0.8042014
0.8139525
0.8126386
0.8114236
0.8103794
0.8095582
0.8089954
0.8087063
0.8086853
0.8088817
0.809207
0.8094506
0.8091871
0.8087656
0.80804
0.8059527
0.8153519
0.8140885
0.8129292
0.8119369
0.8111593
0.8106308
0.8103726
0.8103871
0.8106528
0.8110855
0.8115027
0.8113668
0.8112138
0.8108929
0.8102582
0.8084291
0.8167274
0.8155167
0.8144148
0.813475
0.8127406
0.8122466
0.8120203
0.812083
0.8124458
0.8130974
0.8138703
0.8139777
0.8140034
0.8139653
0.8137357
0.8133353
0.810698
0.8180471
0.8168829
0.8158297
0.8149324
0.8142317
0.8137625
0.8135578
0.8136547
0.8141157
0.8150814
0.8169365
0.8173818
0.8175804
0.8176293
0.8176085
0.8175714
0.8164939
0.8140807
0.8234322
0.8228035
0.8223813
0.8221145
0.8219662
0.8220796
0.8214357
0.8205688
0.8185129
0.8276392
0.8269331
0.8264013
0.8260412
0.8258674
0.8259998
0.8255642
0.825098
0.8244354
0.8227355
0.8307104
0.8300252
0.8294905
0.8291229
0.8289385
0.8290777
0.8286795
0.8283661
0.8280445
0.8275479
0.8261803
0.8329238
0.8322561
0.8317284
0.8313563
0.8311614
0.83127
0.8308749
0.8305532
0.830326
0.8301061
0.829769
0.8286047
0.8343894
0.8337244
0.8331912
0.8328049
0.8325829
0.8326488
0.8322165
0.8318589
0.8315798
0.8314008
0.8312775
0.8310125
0.8298906
0.8071257
0.8056931
0.8043874
0.8032712
0.8024055
0.8018316
0.8015963
0.8016137
0.8017667
0.8002693
0.8085436
0.807129
0.8058344
0.8047272
0.8038646
0.8032984
0.8030499
0.8031536
0.8034717
0.8038255
0.802546
0.8098942
0.8084926
0.8072012
0.8060933
0.8052275
0.8046457
0.8043806
0.804415
0.804735
0.8050935
0.8051326
0.8028549
0.8112216
0.8098375
0.8085549
0.8074512
0.8065839
0.805994
0.8056974
0.8056935
0.8059075
0.8062507
0.8063718
0.8056199
0.8033643
0.8125539
0.8111951
0.8099326
0.8088444
0.8079869
0.8073964
0.8070892
0.8070464
0.8072231
0.8074837
0.8076655
0.8071781
0.8063826
0.8042014
0.8139033
0.8125786
0.811349
0.8102898
0.8094548
0.8088783
0.8085727
0.808526
0.80868
0.8089406
0.8091069
0.8087831
0.8083014
0.8075226
0.8054268
0.8152686
0.8139858
0.8128008
0.8117827
0.8109817
0.8104307
0.8101443
0.8101122
0.8102935
0.8105852
0.8108206
0.8105528
0.8102763
0.8098426
0.8091157
0.8072733
0.816636
0.8154011
0.8142687
0.8132999
0.81254
0.812022
0.8117646
0.8117702
0.8120121
0.8124173
0.8127912
0.8126538
0.8124813
0.8122824
0.8119156
0.8114055
0.8086982
0.8179819
0.8167968
0.8157193
0.8148003
0.8140817
0.8135965
0.8133705
0.8134225
0.8137631
0.8143748
0.8151023
0.8151709
0.8151778
0.8151029
0.8149695
0.8147995
0.81357
0.8109645
0.8192741
0.8181338
0.8171023
0.816224
0.8155374
0.8150762
0.8148711
0.8149576
0.8153941
0.8163158
0.8180866
0.8184888
0.8186356
0.8186506
0.8185774
0.8186005
0.8177857
0.8167243
0.8143389
0.8244053
0.8237588
0.8233099
0.8229962
0.8228051
0.8228434
0.8222686
0.8216366
0.8207856
0.8187538
0.8285175
0.8277968
0.8272374
0.8268396
0.826606
0.8266703
0.8261724
0.8257467
0.8252924
0.8246453
0.823015
0.8315335
0.8308331
0.8302744
0.829869
0.8296345
0.8296947
0.8292398
0.8288501
0.8285465
0.8282367
0.8277984
0.8264586
0.8337176
0.833036
0.8324862
0.8320821
0.8318404
0.8318839
0.8314245
0.8310368
0.8307235
0.8305061
0.830338
0.8300225
0.8288132
0.835174
0.8344969
0.833945
0.8335311
0.8332708
0.8332791
0.8327973
0.8323717
0.8320215
0.8317509
0.8316195
0.8315139
0.8312045
0.8300314
0.8086223
0.8072338
0.8059699
0.8048908
0.8040519
0.8035078
0.8032903
0.8034599
0.8039561
0.8048109
0.8051285
0.8099987
0.8086255
0.8073702
0.8062973
0.8054625
0.8049105
0.8046849
0.8047933
0.8052708
0.805953
0.8065168
0.8045135
0.8113118
0.8099492
0.8086952
0.8076201
0.8067791
0.8062148
0.8059507
0.8060008
0.8063137
0.8068247
0.8071661
0.8065778
0.8044083
0.8126044
0.8112568
0.8100095
0.8089367
0.8080937
0.8075174
0.8072275
0.8072116
0.8074333
0.8077623
0.8080272
0.8076059
0.8068728
0.8047101
0.8139033
0.8125786
0.811349
0.8102898
0.8094548
0.8088783
0.8085727
0.808526
0.80868
0.8089406
0.8091069
0.8087831
0.8083014
0.8075226
0.8054268
0.8152206
0.8139274
0.8127282
0.8116957
0.8108813
0.8103172
0.8100148
0.8099582
0.8100988
0.8103291
0.8104915
0.8101683
0.8098372
0.809352
0.8085828
0.8067464
0.8165546
0.815301
0.8141436
0.8131498
0.8123674
0.8118275
0.811543
0.8115036
0.8116645
0.8119344
0.812135
0.811874
0.8115875
0.8112872
0.8108316
0.810255
0.8075423
0.8178925
0.816684
0.8155768
0.8146296
0.8138864
0.8133779
0.8131219
0.8131186
0.8133425
0.8137167
0.8140611
0.8138971
0.8137192
0.8134967
0.8132425
0.8129681
0.8116389
0.808966
0.8192102
0.8180496
0.8169945
0.8160951
0.8153911
0.8149144
0.8146888
0.8147317
0.8150515
0.8156308
0.8163126
0.8163559
0.816324
0.8162291
0.8160571
0.815968
0.8150156
0.8138032
0.8112292
0.8204772
0.8193588
0.8183482
0.8174873
0.816814
0.8163602
0.8161552
0.8162322
0.8166471
0.8175285
0.8192267
0.819587
0.8196972
0.8196638
0.819557
0.8195197
0.8188021
0.8179987
0.8169533
0.8145955
0.825379
0.8247215
0.8242481
0.8239024
0.8236595
0.823644
0.8230231
0.8224579
0.8218379
0.8210028
0.8190457
0.829402
0.8286703
0.8280914
0.8276609
0.8273842
0.8273777
0.8268356
0.8263462
0.8259303
0.8254881
0.8249008
0.8233015
0.8323644
0.8316528
0.831075
0.830641
0.8303636
0.8303638
0.8298506
0.8294032
0.829022
0.8287283
0.8284709
0.828055
0.826671
0.8345193
0.8338268
0.8332597
0.8328296
0.8325512
0.8325391
0.8320329
0.8315803
0.8312001
0.8308953
0.8307258
0.8305755
0.8302157
0.8289552
0.8359651
0.8352788
0.8347117
0.8342754
0.8339834
0.8339454
0.8334226
0.832947
0.8325282
0.8321856
0.8319596
0.8318434
0.8316939
0.8313352
0.8301036
0.8134485
0.810075
0.8087269
0.8075012
0.8064551
0.8056427
0.8051114
0.8049135
0.8050818
0.805718
0.8068719
0.808949
0.8075492
0.8114133
0.810078
0.8088588
0.8078173
0.8070058
0.8064698
0.8062425
0.8063609
0.8068196
0.8076306
0.8084681
0.8082031
0.8062567
0.8126922
0.8113652
0.8101455
0.8091003
0.8082825
0.8077306
0.8074714
0.8075063
0.807821
0.8083062
0.8087761
0.8085102
0.8079203
0.8058273
0.8139525
0.8126386
0.8114236
0.8103794
0.8095582
0.8089954
0.8087063
0.8086853
0.8088817
0.809207
0.8094506
0.8091871
0.8087656
0.80804
0.8059527
0.8152206
0.8139274
0.8127282
0.8116957
0.8108813
0.8103172
0.8100148
0.8099582
0.8100988
0.8103291
0.8104915
0.8101683
0.8098372
0.809352
0.8085828
0.8067464
0.8165078
0.815244
0.8140729
0.8130651
0.8122698
0.8117173
0.8114173
0.8113544
0.8114761
0.8116872
0.8118186
0.8115056
0.8111691
0.8108224
0.8103253
0.8097183
0.8070153
0.817813
0.8165862
0.8154548
0.8144834
0.8137184
0.8131888
0.8129064
0.8128597
0.8130054
0.8132494
0.8134278
0.8131468
0.8128626
0.8125472
0.8122143
0.8118741
0.8104871
0.8078104
0.8191228
0.8179394
0.8168555
0.8159286
0.8152007
0.8147015
0.8144467
0.814436
0.8146429
0.8149927
0.8153052
0.8151267
0.8149204
0.8146895
0.8144081
0.8142289
0.8131822
0.8118712
0.8092325
0.8204147
0.8192765
0.8182428
0.8173614
0.8166713
0.8162023
0.8159775
0.8160121
0.8163138
0.8168633
0.8175075
0.8175241
0.8174671
0.8173338
0.817141
0.8170046
0.8161708
0.8152302
0.814035
0.8114922
0.8216573
0.8205602
0.8195685
0.8187243
0.8180633
0.8176166
0.8174118
0.8174806
0.8178757
0.8187211
0.8203531
0.8206798
0.8207548
0.820688
0.8205343
0.8204576
0.8197111
0.8190024
0.8182104
0.817181
0.8149041
0.8263514
0.8256857
0.8251953
0.8248206
0.8245415
0.8244652
0.8238159
0.8232031
0.8226476
0.8220396
0.8212661
0.819345
0.8302896
0.8295505
0.8289562
0.8285016
0.8281872
0.828128
0.8275365
0.8270018
0.826521
0.8261151
0.8257262
0.8251625
0.8235202
0.8332005
0.8324805
0.8318878
0.8314307
0.8311202
0.8310686
0.8305141
0.8300077
0.8295679
0.8291952
0.8289499
0.8287108
0.8282506
0.8268156
0.8353263
0.8346258
0.8340445
0.8335934
0.8332848
0.8332282
0.8326832
0.8321832
0.8317373
0.8313647
0.8311048
0.8309506
0.8307564
0.8303471
0.8290281
0.8367612
0.8360674
0.8354882
0.8350333
0.8347151
0.8346381
0.8340845
0.8335675
0.833098
0.832686
0.8323856
0.8321732
0.8320138
0.8318162
0.8314022
0.8185498
0.8162778
0.8139701
0.8114874
0.8101764
0.8089856
0.8079698
0.8071798
0.8066632
0.8064619
0.8066353
0.8072432
0.8084936
0.8107546
0.8110223
0.8094312
0.8127909
0.8114903
0.8103041
0.8092913
0.8085017
0.8079768
0.8077526
0.807852
0.8083039
0.8090716
0.8100051
0.8100422
0.8097045
0.8077837
0.814038
0.8127441
0.8115557
0.8105381
0.8097411
0.8092017
0.808942
0.8089695
0.8092541
0.8097274
0.8101629
0.8100416
0.8097561
0.8091489
0.8071066
0.8152686
0.8139858
0.8128008
0.8117827
0.8109817
0.8104307
0.8101443
0.8101122
0.8102935
0.8105852
0.8108206
0.8105528
0.8102763
0.8098426
0.8091157
0.8072733
0.8165078
0.815244
0.8140729
0.8130651
0.8122698
0.8117173
0.8114173
0.8113544
0.8114761
0.8116872
0.8118186
0.8115056
0.8111691
0.8108224
0.8103253
0.8097183
0.8070153
0.8177672
0.8165307
0.8153859
0.8144009
0.8136233
0.8130815
0.8127842
0.8127148
0.8128227
0.8130103
0.8131223
0.8127925
0.8124617
0.8121039
0.8117342
0.8113629
0.8099497
0.8072835
0.8190451
0.8178439
0.8167363
0.815786
0.815037
0.8145172
0.8142368
0.8141842
0.8143154
0.8145397
0.8146925
0.8144027
0.8140963
0.8137794
0.8134267
0.8131901
0.8120864
0.8107183
0.8080775
0.8203291
0.8191686
0.8181069
0.8171988
0.8164855
0.8159947
0.8157414
0.8157241
0.8159162
0.8162435
0.8165311
0.816335
0.8161127
0.8158522
0.8155602
0.8153433
0.8144295
0.8133952
0.8121024
0.8094977
0.821596
0.8204796
0.8194654
0.8186012
0.8179238
0.8174625
0.8172383
0.8172658
0.8175509
0.8180741
0.8186842
0.8186808
0.8185979
0.81844
0.8182094
0.8180461
0.8171971
0.8163723
0.8154435
0.8142653
0.8118083
0.8228167
0.8217385
0.8207654
0.8199364
0.8192873
0.8188471
0.8186427
0.8187038
0.8190813
0.8198938
0.8214663
0.8217631
0.8218107
0.8217121
0.8215267
0.8213989
0.8206405
0.8199014
0.8192014
0.8184208
0.8174548
0.8152204
0.8273205
0.8266494
0.8261453
0.8257495
0.8254381
0.8253179
0.8246303
0.823988
0.8233835
0.8228376
0.822284
0.821536
0.8195735
0.8311786
0.8304342
0.8298282
0.8293541
0.8290112
0.828906
0.828281
0.8276962
0.8271692
0.8266968
0.82634
0.8259701
0.8253621
0.8236692
0.8340397
0.8333137
0.8327092
0.8322336
0.8318957
0.8318031
0.8312139
0.8306656
0.830166
0.8297338
0.8294064
0.8291768
0.8288936
0.8283837
0.8268899
0.8361373
0.8354302
0.8348379
0.8343694
0.834036
0.8339419
0.8333679
0.8328285
0.8323347
0.8318957
0.8315655
0.8313192
0.8311218
0.8308794
0.8304145
0.8375603
0.836861
0.8362716
0.8358016
0.8354613
0.8353516
0.8347732
0.8342248
0.8337135
0.8332503
0.8328785
0.8325903
0.8323357
0.8321296
0.8318789
0.822076
0.8208401
0.8188023
0.8176444
0.8167326
0.8147475
0.8128629
0.8115858
0.8104271
0.8094391
0.80867
0.8081637
0.807964
0.8081158
0.8087082
0.8098932
0.812168
0.8126966
0.8126444
0.8109712
0.8141341
0.8128657
0.8117098
0.8107234
0.8099536
0.80944
0.8092138
0.8093028
0.8097183
0.8104599
0.8113338
0.8114907
0.8114405
0.8110262
0.8091096
0.8153519
0.8140885
0.8129292
0.8119369
0.8111593
0.8106308
0.8103726
0.8103871
0.8106528
0.8110855
0.8115027
0.8113668
0.8112138
0.8108929
0.8102582
0.8084291
0.8165546
0.815301
0.8141436
0.8131498
0.8123674
0.8118275
0.811543
0.8115036
0.8116645
0.8119344
0.812135
0.811874
0.8115875
0.8112872
0.8108316
0.810255
0.8075423
0.8177672
0.8165307
0.8153859
0.8144009
0.8136233
0.8130815
0.8127842
0.8127148
0.8128227
0.8130103
0.8131223
0.8127925
0.8124617
0.8121039
0.8117342
0.8113629
0.8099497
0.8072835
0.8190003
0.8177896
0.816669
0.8157055
0.8149443
0.8144127
0.814118
0.8140432
0.814138
0.8143078
0.814397
0.8140607
0.8137105
0.8133546
0.8129686
0.8127049
0.8115743
0.8101803
0.8075509
0.8202531
0.8190752
0.8179905
0.8170595
0.8163256
0.8158149
0.8155369
0.8154788
0.8155976
0.8158035
0.8159371
0.8156345
0.8153174
0.8149764
0.8146193
0.8143514
0.8133888
0.8122978
0.8109486
0.8083437
0.8215121
0.820374
0.8193324
0.8184423
0.8177423
0.8172597
0.8170079
0.816985
0.8171637
0.8174713
0.817736
0.8175282
0.8172877
0.8170103
0.816688
0.8164531
0.8155335
0.814629
0.8136071
0.8123324
0.8098171
0.8227566
0.8216595
0.8206645
0.819816
0.8191509
0.8186964
0.8184731
0.8184942
0.8187646
0.8192637
0.8198436
0.8198225
0.8197206
0.8195379
0.8192835
0.8190781
0.8182299
0.8173882
0.8165724
0.8156553
0.8145421
0.8121325
0.823955
0.8228963
0.8219396
0.8211256
0.8204871
0.8200534
0.8198493
0.8199037
0.8202648
0.8210476
0.8225656
0.8228366
0.8228603
0.8227377
0.8225224
0.8223594
0.8215745
0.8208223
0.8200904
0.8193992
0.8186737
0.8177354
0.8154618
0.828285
0.8276104
0.8270959
0.8266829
0.8263474
0.826188
0.8254769
0.8247956
0.8241605
0.8235641
0.8230679
0.8225343
0.8217417
0.8197292
0.8320669
0.8313194
0.8307044
0.8302149
0.8298485
0.8297073
0.8290539
0.8284351
0.827857
0.8273375
0.8269109
0.8265702
0.8261559
0.8254979
0.8237457
0.8348806
0.83415
0.8335365
0.8330457
0.8326855
0.8325584
0.8319439
0.8313604
0.8308183
0.8303256
0.8299362
0.8296226
0.8293495
0.8290179
0.828452
0.8369503
0.8362387
0.8356372
0.8351545
0.8348002
0.8346747
0.8340774
0.8335086
0.832975
0.8324875
0.8320888
0.8317709
0.8314824
0.8312381
0.8309423
0.8383618
0.8376579
0.8370605
0.8365774
0.8362187
0.8360809
0.8354829
0.8349094
0.8343663
0.8338607
0.833436
0.8330754
0.832746
0.8324461
0.8321889
0.8243613
0.8240191
0.8222732
0.8219402
0.8210667
0.8192724
0.8186932
0.818069
0.8174154
0.8156519
0.8142043
0.8129586
0.8118293
0.8108668
0.8101168
0.809621
0.8094183
0.8095573
0.8101073
0.8112463
0.8133967
0.8140043
0.8142122
0.813982
0.8122714
0.8154456
0.814207
0.8130792
0.8121169
0.8113656
0.810862
0.810636
0.8107097
0.8111008
0.8117901
0.8126242
0.8127485
0.8128092
0.812668
0.8121801
0.8104299
0.816636
0.8154011
0.8142687
0.8132999
0.81254
0.812022
0.8117646
0.8117702
0.8120121
0.8124173
0.8127912
0.8126538
0.8124813
0.8122824
0.8119156
0.8114055
0.8086982
0.817813
0.8165862
0.8154548
0.8144834
0.8137184
0.8131888
0.8129064
0.8128597
0.8130054
0.8132494
0.8134278
0.8131468
0.8128626
0.8125472
0.8122143
0.8118741
0.8104871
0.8078104
0.8190003
0.8177896
0.816669
0.8157055
0.8149443
0.8144127
0.814118
0.8140432
0.814138
0.8143078
0.814397
0.8140607
0.8137105
0.8133546
0.8129686
0.8127049
0.8115743
0.8101803
0.8075509
0.8202092
0.8190221
0.8179247
0.8169809
0.8162352
0.8157131
0.8154211
0.8153415
0.815425
0.8155782
0.8156506
0.8153037
0.8149451
0.8145676
0.8141802
0.8138882
0.8129026
0.8117849
0.8104102
0.8078176
0.8214376
0.8202826
0.8192185
0.8183062
0.8175862
0.8170842
0.8168083
0.8167458
0.8168533
0.8170432
0.8171592
0.8168493
0.8165183
0.8161652
0.8157826
0.8155021
0.8145397
0.8135867
0.8125084
0.811178
0.8086647
0.8226744
0.8215561
0.8205343
0.8196604
0.8189734
0.8184982
0.8182481
0.8182199
0.8183869
0.8186766
0.8189216
0.8187035
0.8184507
0.8181549
0.8178154
0.8175449
0.8166347
0.8157227
0.8148275
0.8138178
0.8126093
0.8101446
0.8238961
0.8228189
0.8218407
0.8210077
0.8203536
0.819906
0.8196834
0.8196988
0.8199556
0.8204332
0.8209858
0.8209498
0.8208312
0.8206307
0.8203526
0.82012
0.8192545
0.8184125
0.8175781
0.8167711
0.8159098
0.8148258
0.8123799
0.8250759
0.8240332
0.8230935
0.8222925
0.8216648
0.8212367
0.8210332
0.8210812
0.8214276
0.8221828
0.8236511
0.8238991
0.8239027
0.8237595
0.8235221
0.8233267
0.8225286
0.821749
0.821003
0.8202782
0.819637
0.8189328
0.8179493
0.8156263
0.8292439
0.8285675
0.8280449
0.8276183
0.8272628
0.8270734
0.8263417
0.8256362
0.8249613
0.8243332
0.8237831
0.8233036
0.822725
0.8218817
0.8198092
0.8329539
0.8322043
0.8315827
0.8310806
0.8306953
0.8305238
0.8298505
0.8292028
0.82859
0.8280188
0.8275424
0.82713
0.8267455
0.8262823
0.8255676
0.8357218
0.8349884
0.8343674
0.8338644
0.8334855
0.8333295
0.832695
0.8320857
0.831508
0.8309722
0.8305201
0.8301432
0.8297871
0.8294669
0.8290815
0.837765
0.8370495
0.8364409
0.8359461
0.8355744
0.8354219
0.8348064
0.8342141
0.8336506
0.8331228
0.8326738
0.8322864
0.8319272
0.8315931
0.8312976
0.8391646
0.8384573
0.8378529
0.8373592
0.8369844
0.8368226
0.8362087
0.8356153
0.8350467
0.834509
0.8340403
0.8336259
0.8332251
0.8328517
0.8325025
0.825492
0.8260885
0.8245439
0.8249368
0.8241998
0.8226612
0.8227649
0.8221516
0.8214903
0.819924
0.8196215
0.8190941
0.8187056
0.8182161
0.8166215
0.8155141
0.8142975
0.8131954
0.8122562
0.811524
0.8110376
0.8108342
0.810956
0.8114763
0.8125468
0.8146004
0.8151469
0.8154359
0.8154584
0.8151216
0.8135592
0.8167274
0.8155167
0.8144148
0.813475
0.8127406
0.8122466
0.8120203
0.812083
0.8124458
0.8130974
0.8138703
0.8139777
0.8140034
0.8139653
0.8137357
0.8133353
0.810698
0.8178925
0.816684
0.8155768
0.8146296
0.8138864
0.8133779
0.8131219
0.8131186
0.8133425
0.8137167
0.8140611
0.8138971
0.8137192
0.8134967
0.8132425
0.8129681
0.8116389
0.808966
0.8190451
0.8178439
0.8167363
0.815786
0.815037
0.8145172
0.8142368
0.8141842
0.8143154
0.8145397
0.8146925
0.8144027
0.8140963
0.8137794
0.8134267
0.8131901
0.8120864
0.8107183
0.8080775
0.8202092
0.8190221
0.8179247
0.8169809
0.8162352
0.8157131
0.8154211
0.8153415
0.815425
0.8155782
0.8156506
0.8153037
0.8149451
0.8145676
0.8141802
0.8138882
0.8129026
0.8117849
0.8104102
0.8078176
0.8213947
0.8202306
0.8191542
0.8182294
0.8174979
0.8169848
0.8166953
0.8166119
0.8166852
0.8168241
0.816881
0.8165285
0.8161581
0.8157707
0.81536
0.8150579
0.8140756
0.8130996
0.8119948
0.8106393
0.8081392
0.8226013
0.8214665
0.8204228
0.8195272