/*--------------------------------*- C++ -*----------------------------------*\
| =========                 |                                                 |
| \\      /  F ield         | OpenFOAM: The Open Source CFD Toolbox           |
|  \\    /   O peration     | Version:  2306                                  |
|   \\  /    A nd           | Website:  www.openfoam.com                      |
|    \\/     M anipulation  |                                                 |
\*---------------------------------------------------------------------------*/
FoamFile
{
    version     2.0;
    format      ascii;
    arch        "LSB;label=32;scalar=64";
    class       volVectorField;
    location    "0.3/phiEC";
    object      i;
}
// * * * * * * * * * * * * * * * * * * * * * * * * * * * * * * * * * * * * * //

dimensions      [0 -2 0 0 0 1 0];

internalField   nonuniform List<vector> 
20000
(
(29.61201 74.18495 16097.63)
(29.29176 216.943 15937.97)
(70.31364 70.98245 15495.28)
(90.85793 245.1304 16760.35)
(28.67511 342.4966 15629.14)
(69.58547 207.574 15342.55)
(89.79248 720.0214 16558.45)
(80.7364 66.90324 14670.73)
(215.0647 234.4759 16115.08)
(158.666 477.9812 18256.48)
(27.81162 438.5983 15193.78)
(68.18367 327.6951 15047.14)
(87.72637 1145.889 16158.6)
(79.94787 195.6433 14526.8)
(212.6482 688.7058 15922.09)
(156.565 1420.445 17996.21)
(75.53998 63.09714 13861.65)
(245.9881 220.9645 15245.85)
(373.2135 456.9713 17515.82)
(238.9894 765.6679 20823.31)
(26.7782 493.3688 14668.91)
(66.22133 419.6291 14630.7)
(84.80313 1481.878 15574.3)
(78.43028 308.8552 14248.41)
(207.9636 1095.996 15539.9)
(152.4148 2310.794 17450.58)
(74.83114 184.5128 13725.91)
(243.379 649.0102 15064.04)
(368.4676 1357.933 17267.25)
(235.5836 2331.825 20604.58)
(66.21631 59.81474 13144.93)
(229.6204 208.3852 14400.92)
(423.5677 430.5221 16547.23)
(556.9137 731.6091 19919.94)
(339.3385 915.432 24301.17)
(25.67656 498.099 14106.53)
(63.87348 472.0182 14128.68)
(81.26586 1681.122 14840.54)
(76.30662 395.4964 13855.97)
(201.339 1417.273 14981.49)
(146.3736 3074.724 16576.43)
(73.46707 291.2826 13463.37)
(238.3235 1032.798 14704.02)
(359.0991 2208.879 16746.24)
(228.5931 3985.452 20084.79)
(65.60731 174.9142 13016.25)
(227.2785 612.0601 14229.48)
(418.4691 1279.3 16313.18)
(549.2537 2227.862 19711.21)
(335.2401 2897.482 24452.96)
(57.38522 57.00716 12525.25)
(201.0652 197.5455 13655.77)
(393.556 405.9852 15621.98)
(624.7564 689.067 18783.09)
(781.2575 874.4476 23168.36)
(433.9984 575.4258 26818.73)
(24.62224 450.8764 13568.37)
(61.37109 476.5394 13590.81)
(77.4668 1702.97 14030.29)
(73.76663 444.8664 13382.9)
(193.3267 1607.758 14280.33)
(138.8196 3581.389 15340.48)
(71.55859 372.9925 13093.28)
(231.1785 1335.509 14178.04)
(345.475 2938.772 15911.74)
(217.7408 5702.07 19052.34)
(64.43545 276.1297 12767.36)
(222.7417 973.9908 13889.99)
(408.4125 2080.868 15822.64)
(533.5516 3807.024 19215.32)
(326.3085 5415.283 24804.41)
(56.86129 166.7042 12402.6)
(199.0543 580.2223 13493.24)
(388.9908 1206.38 15401.3)
(616.5706 2098.204 18586.61)
(772.0616 2767.182 23313)
(431.4918 1718.382 27263.93)
(50.15179 54.5755 11987.07)
(174.1874 188.2757 13012.55)
(343.8908 384.8698 14812.64)
(576.5387 649.7507 17721.13)
(863.3309 823.4725 21801.85)
(987.8986 550.3598 25500.12)
(502.7526 356.9006 27844.73)
(23.72541 357.4771 13112.03)
(58.97611 431.3649 13076.1)
(73.83236 1538.117 13260.78)
(71.05997 449.1253 12876.06)
(184.7238 1628.635 13506.15)
(130.5056 3657.619 13812.12)
(69.27633 419.5517 12647.14)
(222.5419 1514.97 13517.62)
(328.4563 3422.71 14732.14)
(202.9332 7209.743 17034.42)
(62.79597 353.5891 12416.52)
(216.3314 1259.456 13394)
(393.8045 2768.297 15037.02)
(509.2201 5445.471 18230.76)
(310.6889 9175.464 25502.98)
(55.85314 263.1693 12165.4)
(195.1588 923.3266 13171.41)
(379.9896 1962.233 14938.78)
(599.8162 3585.117 18119.94)
(752.0698 5169.771 23648.13)
(426.4645 2767.882 28296.65)
(49.69448 159.5934 11869.66)
(172.4576 552.9962 12857.65)
(339.9741 1143.636 14603.43)
(569.2283 1978.459 17535.89)
(853.5328 2605.605 21937.9)
(982.2156 1643.043 25924.14)
(501.3029 1026.526 28237.46)
(44.43483 52.43398 11513.37)
(152.224 180.2471 12454.13)
(297.7124 366.8185 14116.09)
(502.2436 615.9638 16801.84)
(789.8057 776.4666 20555.53)
(1076.324 518.5956 23960.14)
(1135.997 342.404 26417.93)
(576.679 182.6964 28492.27)
(23.07594 228.9164 12782.78)
(56.93858 342.0141 12639.62)
(70.75626 1213.695 12622.57)
(68.46944 406.5513 12391.03)
(176.493 1471.012 12770.84)
(122.6093 3266.32 12447.53)
(66.84457 423.5675 12169.16)
(213.2716 1534.633 12788.46)
(309.7369 3495.517 13273.73)
(185.1451 7488.873 12960.38)
(60.83553 397.7262 11993.6)
(208.5851 1428.689 12771.27)
(375.5784 3224.008 13926.67)
(476.0896 6883.786 16307.13)
(284.2773 15765.3 26981.93)
(54.44273 336.9934 11831.02)
(189.6554 1193.944 12701.22)
(366.9219 2610.432 14198.08)
(573.9114 5127.45 17193.55)
(717.233 8755.152 24314.69)
(419.2209 3304.138 30279.32)
(48.81449 251.9441 11642.56)
(169.1067 880.0024 12550.9)
(332.2527 1860.179 14164.96)
(554.2764 3380.433 17095.92)
(832.2932 4866.997 22253.22)
(970.8595 2645.173 26908.22)
(498.5369 1517.419 29049.29)
(44.02924 153.3311 11400.56)
(150.714 529.4154 12305.83)
(294.3439 1089.999 13916.68)
(495.9775 1875.581 16626.22)
(781.0688 2456.804 20683.76)
(1070.197 1547.992 24358.87)
(1132.619 984.3691 26790.95)
(576.1433 513.8227 28806.36)
(39.89559 50.51959 11090.5)
(134.8798 173.176 11962.55)
(260.1513 351.184 13511.74)
(434.3671 587.0894 16013.56)
(685.4042 736.1034 19488.26)
(976.8929 489.0915 22580.16)
(1226.325 323.1168 24794.69)
(1292.903 177.339 26964.67)
(655.5125 42.81236 28841)
(22.73565 78.72584 12610.74)
(55.46276 219.0188 12324.7)
(68.54173 773.6643 12172.28)
(66.26515 322.3435 11979.72)
(169.5244 1160.789 12160.95)
(116.0506 2534.463 11399.91)
(64.51711 383.4166 11711.74)
(204.4012 1386.123 12095.9)
(291.9508 3121.77 11971.34)
(169.0706 6362.531 10385.45)
(58.74673 401.533 11540.47)
(200.2717 1447.229 12083.72)
(355.5454 3292.565 12553.97)
(436.3533 7150.246 12424.44)
(237.6939 16955.56 6133.642)
(52.75621 379.0593 11427.94)
(183.0056 1354.373 12110.87)
(350.6267 3040.119 13151.22)
(538.7258 6481.074 15383.87)
(658.5671 15035.35 25726.2)
(411.6287 1679.212 33962.42)
(47.58338 322.6197 11322.45)
(164.3728 1137.924 12102.76)
(321.045 2474.667 13462.77)
(531.1823 4834.567 16222.59)
(795.4389 8240.437 22880.6)
(954.5798 3155.779 28798.43)
(494.9552 1552.585 30282.02)
(43.24879 242.0583 11182.38)
(147.7891 842.479 12012.16)
(287.7032 1772.942 13498.75)
(483.1643 3204.657 16209.11)
(762.1543 4588.832 20980.99)
(1058.006 2491.525 25284.49)
(1126.216 1453.942 27562.75)
(575.1189 723.3201 29395.89)
(39.5309 147.733 10981.81)
(133.5405 508.6469 11820.06)
(257.2107 1043.544 13320.83)
(428.9787 1787.666 15846.16)
(677.9189 2329.091 19609.8)
(971.4023 1459.86 22955.95)
(1222.573 928.7105 25145.01)
(1291.46 498.2219 27260.97)
(655.8419 122.9044 29115.27)
(36.22314 48.78706 10708.33)
(121.1109 166.8545 11523.62)
(230.5387 337.4128 12979.59)
(379.5229 562.0804 15330.13)
(592.0537 701.614 18576.43)
(844.8988 463.6895 21407.48)
(1107.434 304.8815 23359.47)
(1382.17 168.2674 25277.03)
(1457.522 46.10612 27216.72)
(739.1068 -91.57191 28931.7)
(22.73565 -78.72583 12610.74)
(54.68937 75.32292 12160.13)
(67.38648 265.3582 11940.6)
(64.66816 206.4242 11682.94)
(164.5058 739.9665 11730.59)
(111.4152 1592.862 10705.03)
(62.5365 304.0013 11323.86)
(196.8884 1093.823 11521.43)
(277.1663 2422.522 10971.24)
(156.4913 4698.689 8783.436)
(56.74753 363.4707 11106.86)
(192.3167 1307.18 11430.68)
(336.5025 2940.614 11328.02)
(400.3941 6075.993 9969.379)
(205.8235 11620.21 4448.353)
(50.95928 382.6875 10996.07)
(175.8694 1371.948 11459.08)
(332.722 3104.757 11857.06)
(496.6039 6731.917 11731.57)
(555.4991 16171.02 5870.898)
(46.11125 362.8917 10936.55)
(158.6529 1290.828 11540.09)
(307.0719 2882.009 12470.34)
(499.8502 6110.711 14516.63)
(733.6786 14147.97 24209.28)
(937.6071 1603.289 32310.6)
(491.9101 704.7904 31668.77)
(42.15691 309.961 10874.82)
(143.6568 1089.405 11583.11)
(278.0645 2358.623 12829.45)
(463.3806 4583.188 15381.17)
(729.3981 7769.006 21572.45)
(1040.63 2971.614 27062.84)
(1117.997 1486.317 28736.02)
(573.8214 684.6538 30146.16)
(38.82914 233.2208 10771.59)
(130.9462 809.4305 11537.91)
(251.4138 1697.385 12920.69)
(417.961 3054.464 15448.57)
(661.7214 4350.29 19891.55)
(960.4968 2349.502 23828.41)
(1215.511 1371.204 25870.18)
(1288.771 700.1014 27817.86)
(656.34 177.6164 29597.54)
(35.89157 142.6667 10603.37)
(119.9066 490.08 11386.32)
(227.9303 1002.624 12796.16)
(374.8189 1711.521 15169.85)
(585.6174 2219.976 18692.27)
(840.1863 1384.031 21763.7)
(1104.03 876.2352 23689.5)
(1380.342 472.4978 25554.42)
(1457.813 131.1793 27472.01)
(740.4689 -242.7167 29232.61)
(33.18359 47.20393 10359.53)
(109.9704 161.1333 11126.84)
(207.0381 325.1002 12504.21)
(336.3866 540.0494 14728.11)
(517.2423 671.74 17786.38)
(729.0716 441.9658 20408.06)
(955.7795 289.0814 22146.55)
(1241.706 159.0562 23806.51)
(1542.141 45.72374 25479.8)
(1629.023 -77.95086 27214.61)
(827.222 -258.0914 28738.67)
(23.07594 -228.9164 12782.78)
(54.68937 -75.32292 12160.13)
(67.38648 -265.3582 11940.6)
(63.83113 70.99196 11527.86)
(161.887 253.8057 11509.14)
(109.0272 542.0942 10360.98)
(61.10141 194.6786 11043.98)
(191.4756 697.2909 11116.05)
(266.7092 1522.628 10307.74)
(148.0005 2851.532 7850.382)
(55.04621 288.1865 10739.15)
(185.5779 1031.532 10888.98)
(320.6587 2282.047 10386.51)
(372.2038 4487.988 8441.344)
(184.4691 7604.6 3504.804)
(49.23944 346.4114 10582.8)
(169.0406 1239.184 10839.99)
(315.6987 2772.903 10701.23)
(458.4219 5721.036 9421.736)
(484.6938 11087.96 4264.589)
(44.54276 366.3653 10523.1)
(152.5147 1307.579 10918.85)
(291.7204 2943.285 11243.46)
(462.3738 6347.207 11073.76)
(625.6819 15216.82 5537.913)
(40.85128 348.6531 10504.06)
(138.6639 1235.792 11044.41)
(266.048 2746.873 11883.5)
(436.5501 5792.989 13763.86)
(674.6273 13337.78 22825.12)
(1022.627 1509.485 30367.52)
(1111.071 674.34 30057.13)
(572.7931 292.46 30777.99)
(37.84736 298.6447 10475.26)
(127.2811 1046.672 11125.68)
(242.9997 2258.116 12279.88)
(400.9509 4368.425 14659.37)
(633.6889 7365.167 20452.22)
(944.9939 2801.991 25504.77)
(1206.535 1401.137 26973.15)
(1285.467 661.3957 28527.93)
(656.7783 170.4832 30144.92)
(35.25356 225.2229 10400.36)
(117.5738 779.8849 11114.46)
(222.7881 1630.832 12411.7)
(365.2004 2924.379 14789.17)
(571.6911 4146.531 18960.8)
(830.8321 2227.44 22590.74)
(1097.644 1293.569 24372.77)
(1377.004 663.393 26076.11)
(1458.193 186.9808 27921.44)
(742.7291 -306.3355 29750.83)
(32.87952 138.0372 10257.97)
(108.8754 473.2759 10994.26)
(204.6924 966.0381 12327.46)
(332.2136 1644.441 14574.1)
(511.6229 2125.464 17897.28)
(725.0171 1319.194 20747.58)
(952.8456 830.813 22459.36)
(1239.968 446.5595 24067.56)
(1541.913 129.6224 25717.33)
(1631.254 -206.4933 27490.03)
(830.0993 -696.2261 29150.05)
(30.61287 45.74638 10038.68)
(100.7483 155.9052 10764.63)
(188.0206 313.9559 12074.3)
(302.1688 520.3496 14189.98)
(458.5701 645.4207 17090.08)
(636.9056 423.1449 19542.4)
(824.2347 275.5418 21114.52)
(1069.393 150.8817 22571.01)
(1378.036 43.82984 23990.16)
(1704.827 -69.25599 25442.58)
(1806.434 -229.3178 26937.62)
(919.2121 -502.9468 28152.28)
(23.72541 -357.4771 13112.03)
(55.46276 -219.0188 12324.7)
(68.54173 -773.6643 12172.28)
(63.83113 -70.99196 11527.86)
(161.887 -253.8057 11509.14)
(109.0272 -542.0942 10360.98)
(60.34917 66.95258 10897.73)
(188.6502 239.1707 10907.45)
(261.3192 518.2143 9979.177)
(143.7465 953.4693 7420.405)
(53.81344 184.551 10473.83)
(180.7217 657.5845 10506.72)
(309.4421 1434.39 9761.828)
(353.1467 2724.084 7551.096)
(171.2724 4318.925 2995.398)
(47.77584 274.6604 10232.35)
(163.2556 977.8738 10326.47)
(301.5291 2151.918 9813.552)
(428.4252 4226.215 7983.829)
(437.0878 7259.089 3364.915)
(43.04155 331.6362 10127.45)
(146.6409 1181.042 10328.79)
(277.1237 2628.685 10147.72)
(428.3768 5394.206 8896.277)
(551.1229 10436.09 4026.855)
(39.46017 351.9904 10106.83)
(133.3058 1251.829 10449.64)
(252.8466 2805.275 10714.07)
(404.4675 6017.184 10499.9)
(579.0554 14345.46 5225.508)
(36.67337 335.9243 10118.03)
(122.8525 1187.318 10608.1)
(232.5098 2629.829 11374.19)
(377.8836 5521.579 13117.73)
(586.8514 12644.54 21639.74)
(928.975 1423.258 28620.12)
(1199.043 635.5264 28215.65)
(1282.92 282.1773 29127.07)
(657.0024 72.95873 30535.56)
(34.36095 288.4033 10114.19)
(114.278 1008.468 10717.27)
(215.3243 2169.583 11795.98)
(350.3502 4182.414 14033.53)
(547.5927 7020.305 19495.19)
(817.5465 2656.395 24179.89)
(1089.558 1321.63 25412.2)
(1373.012 626.1456 26741.9)
(1458.423 177.1074 28432.45)
(745.0686 -253.3626 30317.56)
(32.29442 217.9146 10061.55)
(106.7544 753.1446 10731.71)
(200.068 1571.326 11957.02)
(323.6805 2809.778 14208.32)
(499.4642 3970.043 18154.37)
(716.9707 2123.105 21535.87)
(947.3461 1226.483 23106.99)
(1236.816 626.803 24558.63)
(1541.434 183.7234 26135.72)
(1634.953 -260.3388 27964.52)
(834.9714 -907.3389 29873.49)
(30.33213 133.7749 9940.256)
(99.74412 457.9202 10636.34)
(185.8877 932.9233 11903.61)
(298.4156 1584.459 14041.58)
(453.5846 2042.196 17196.63)
(633.3653 1263.022 19867.47)
(821.7071 791.9013 21412.66)
(1067.87 423.5921 22818.37)
(1377.636 124.1137 24213.23)
(1706.22 -183.4157 25696.86)
(1811.387 -618.7315 27309.49)
(924.5241 -1377.532 28773.83)
(28.39831 44.39656 9741.727)
(92.9473 151.0917 10431.4)
(172.2728 303.7714 11681.7)
(274.4716 502.5174 13703.04)
(412.0514 621.8844 16467.26)
(564.7999 406.5635 18779.15)
(720.0207 263.805 20220.75)
(921.6522 143.8241 21521.47)
(1184.284 41.7238 22746.25)
(1515.061 -64.01861 23948.27)
(1868.775 -208.5535 25148.31)
(1988.059 -449.8266 26288.64)
(1013.586 -879.6412 26962.97)
(24.62224 -450.8764 13568.37)
(56.93858 -342.0141 12639.62)
(70.75626 -1213.695 12622.57)
(64.66816 -206.4242 11682.94)
(164.5058 -739.9665 11730.59)
(111.4152 -1592.862 10705.03)
(60.34917 -66.95258 10897.73)
(188.6502 -239.1707 10907.45)
(261.3192 -518.2143 9979.177)
(143.7465 -953.4693 7420.405)
(53.16723 63.46953 10335.18)
(178.1865 225.552 10310.01)
(303.6569 488.194 9452.465)
(343.5895 910.9296 7140.761)
(164.9559 1402.049 2771.108)
(46.71532 175.8888 9979.478)
(159.0865 623.3777 9964.091)
(291.4934 1352.609 9224.566)
(408.1101 2565.389 7145.968)
(407.5921 4123.792 2879.038)
(41.76401 262.9453 9791.943)
(141.6649 931.991 9839.348)
(264.9721 2039.994 9306.195)
(401.6417 3984.87 7540.71)
(500.7854 6833.582 3180.384)
(38.12874 318.6239 9726.703)
(128.1785 1130.686 9884.722)
(240.294 2505.42 9669.657)
(375.3562 5113.715 8435.597)
(512.9265 9838.994 3801.083)
(35.42252 339.1399 9735.303)
(118.1 1202.726 10036.64)
(220.9853 2685.744 10254.52)
(350.3024 5735.268 10006.46)
(505.1797 13599.82 4954.505)
(33.29358 324.4046 9769.216)
(110.2956 1143.981 10218.57)
(206.0189 2526.729 10925.76)
(330.2117 5286.505 12557.43)
(507.3347 12052.69 20627.07)
(803.832 1349.296 27133.26)
(1082.836 599.4146 26583.32)
(1370.008 266.9831 27304.19)
(1458.451 75.19977 28797.87)
(746.5614 -98.17197 30701.13)
(31.47583 279.0449 9784.662)
(103.7578 973.8907 10348.14)
(193.3557 2090.424 11363.76)
(310.5056 4018.538 13482.25)
(478.4241 6721.603 18665.99)
(705.5451 2531.989 23050.59)
(940.3928 1253.055 24092.27)
(1233.081 591.4353 25185.53)
(1540.776 173.0645 26611.86)
(1638.774 -215.0401 28483.65)
(840.1698 -779.8094 30691.7)
(29.79192 211.186 9749.897)
(97.79892 728.7087 10382.32)
(181.6828 1517.464 11545.86)
(290.7409 2707.299 13689.13)
(442.7968 3814.543 17443.65)
(626.3395 2032.72 20622.21)
(816.9707 1169.042 22029.94)
(1065.115 594.526 23283.71)
(1376.885 175.6054 24606.25)
(1708.522 -231.1378 26135)
(1819.776 -806.6344 27963.39)
(933.7389 -1847.992 29920.47)
(28.13773 129.8277 9646.212)
(92.02016 443.7823 10307.07)
(170.3166 902.6605 11516.55)
(271.0586 1530.162 13559.73)
(407.5671 1967.731 16569.93)
(561.659 1213.533 19091.49)
(717.813 758.1728 20506.2)
(920.3333 403.7765 21757.21)
(1183.88 118.1162 22957.51)
(1515.949 -169.5351 24186.47)
(1872.269 -562.7994 25489.7)
(1997.289 -1232.265 26846.73)
(1022.809 -2464.418 27891.79)
(26.46181 43.14056 9465.553)
(86.22614 146.6339 10122.96)
(158.9471 294.3941 11320.42)
(251.5251 486.2199 13258.16)
(374.3845 600.5777 15903.34)
(507.6508 391.7361 18096.09)
(638.611 253.4646 19432.42)
(805.1156 137.6932 20612.59)
(1020.076 39.79272 21691.25)
(1299.283 -60.38059 22708.34)
(1651.46 -194.3718 23665.64)
(2032.025 -410.646 24509.58)
(2170.704 -787.4111 25080.72)
(1107.437 -1431.764 24863.67)
(25.67656 -498.099 14106.53)
(58.97611 -431.3649 13076.1)
(73.83236 -1538.117 13260.78)
(66.26514 -322.3435 11979.72)
(169.5244 -1160.789 12160.95)
(116.0506 -2534.463 11399.91)
(61.10141 -194.6786 11043.98)
(191.4756 -697.2909 11116.05)
(266.7092 -1522.628 10307.74)
(148.0005 -2851.532 7850.382)
(53.16723 -63.46953 10335.18)
(178.1865 -225.552 10310.01)
(303.6569 -488.194 9452.465)
(343.5895 -910.9296 7140.761)
(164.9559 -1402.049 2771.108)
(46.15939 60.49047 9847.34)
(156.9099 213.819 9777.617)
(286.3157 460.3623 8932.879)
(397.9098 857.8971 6759.742)
(393.4518 1338.884 2665.061)
(40.83831 168.3865 9549.856)
(138.0787 594.1272 9493.962)
(256.3645 1282.257 8747.835)
(383.5202 2418.931 6750.803)
(469.5008 3882.564 2723.171)
(36.99569 252.628 9404.353)
(123.8349 892.2518 9416.13)
(229.8439 1944.326 8867.551)
(352.4557 3777.649 7150.494)
(468.196 6442.867 3003.114)
(34.22532 306.9914 9369.049)
(113.5523 1086.334 9493.865)
(210.0275 2398.658 9254.554)
(325.2746 4874.088 8038.757)
(448.6277 9327.5 3604.106)
(32.15632 327.5099 9399.609)
(106.0221 1158.827 9667.963)
(195.7957 2580.453 9849.943)
(306.132 5491.094 9578.408)
(437.1452 12963.23 4721.947)
(30.49697 313.8781 9450.88)
(100.137 1104.758 9866.528)
(184.987 2434.544 10525.26)
(292.6381 5079.397 12063.91)
(443.274 11540.06 19749.69)
(693.7535 1286.112 25865.7)
(934.6205 568.3041 25202.45)
(1230.295 252.1355 25715.13)
(1540.237 73.23983 26952.67)
(1641.208 -83.2438 28835.17)
(843.598 -310.6052 31268.92)
(29.03614 270.4288 9481.558)
(95.05073 942.2933 10011.18)
(175.5793 2018.772 10972.92)
(278.8909 3871.99 12989.51)
(424.1277 6458.403 17935.22)
(616.3634 2424.223 22072.48)
(810.9846 1194.373 22969.06)
(1061.861 560.9399 23877.81)
(1375.968 165.1307 25053.66)
(1710.892 -190.8118 26614.51)
(1828.728 -693.5442 28702.8)
(943.959 -1648.794 31326.73)
(27.6363 204.9546 9461.469)
(90.22417 706.2107 10060.88)
(166.4601 1468.241 11170.39)
(264.0795 2614.531 13219.34)
(397.8636 3675.475 16807.93)
(555.4256 1953.086 19816.67)
(713.6763 1119.258 21097.2)
(917.9496 566.7104 22200.72)
(1183.137 167.0448 23329.74)
(1517.413 -213.6212 24596.95)
(1878.191 -733.9301 26090.01)
(2013.3 -1653.643 27876.38)
(1039.38 -3460.245 29728.27)
(26.21889 126.1548 9372.74)
(85.36555 430.6889 10002.3)
(157.1409 874.7963 11160.36)
(248.3947 1480.538 13119.49)
(370.3064 1900.318 16002.49)
(504.8259 1169.279 18397.04)
(636.6524 728.4572 19706.69)
(803.9623 386.5662 20838.31)
(1019.713 112.6442 21892.58)
(1299.935 -159.9013 22933.78)
(1653.943 -524.5717 23984.85)
(2038.684 -1125.122 25020.46)
(2186.724 -2206.477 25911.4)
(1122.563 -4142.832 26121.88)
(24.74731 41.96734 9207.677)
(80.34824 142.4858 9836.074)
(147.4626 285.7095 10985.95)
(232.098 471.2134 12848.61)
(343.1582 581.1038 15387.86)
(461.3601 378.3141 17477.33)
(574.1001 244.2191 18726.63)
(714.2117 132.2915 19810.6)
(891.1073 38.08763 20777.65)
(1118.512 -57.50693 21658.29)
(1413.282 -183.7179 22443.09)
(1785.583 -383.2334 23061.19)
(2191.52 -719.4375 23356.65)
(2348.691 -1280.509 23040.53)
(1195.9 -2137.858 41959.35)
(26.77819 -493.3688 14668.91)
(61.37109 -476.5394 13590.81)
(77.4668 -1702.97 14030.29)
(68.46944 -406.5513 12391.03)
(176.493 -1471.012 12770.84)
(122.6093 -3266.32 12447.53)
(62.5365 -304.0013 11323.86)
(196.8884 -1093.823 11521.43)
(277.1663 -2422.522 10971.24)
(156.4913 -4698.689 8783.436)
(53.81344 -184.551 10473.83)
(180.7217 -657.5845 10506.72)
(309.4421 -1434.39 9761.828)
(353.1467 -2724.084 7551.096)
(171.2724 -4318.925 2995.398)
(46.15939 -60.49047 9847.34)
(156.9099 -213.819 9777.617)
(286.3157 -460.3623 8932.879)
(397.9098 -857.8971 6759.742)
(393.4518 -1338.884 2665.061)
(40.35306 57.9103 9423.353)
(136.2064 203.7858 9316.233)
(251.9231 436.4174 8471.316)
(374.4163 808.9272 6386.673)
(454.4744 1260.646 2521.796)
(36.17469 161.7794 9171.764)
(120.7046 568.7933 9085.461)
(222.4413 1222.119 8335.353)
(336.9291 2293.135 6401.652)
(440.3566 3660.683 2572.084)
(33.20651 243.4048 9058.466)
(109.6997 857.2516 9043.643)
(200.9051 1861.467 8486.593)
(305.5853 3600.598 6813.813)
(410.3515 6107.883 2847.612)
(31.06786 296.4639 9045.914)
(101.9326 1046.682 9144.99)
(186.0752 2304.617 8889.14)
(284.2819 4666.543 7694.378)
(388.5377 8890.713 3434.726)
(29.45402 316.8827 9093.265)
(96.25127 1119.095 9334.788)
(175.7928 2486.307 9488.654)
(271.2734 5275.971 9201.448)
(381.9877 12411.85 4520.291)
(28.13238 304.1866 9158.082)
(91.73 1068.916 9545.193)
(167.9695 2351.101 10163.14)
(262.8197 4894.183 11622.84)
(392.9364 11088.33 18976.47)
(606.0677 1231.38 24767.83)
(806.0172 541.691 24027.24)
(1059.44 239.1243 24379.75)
(1375.28 69.80908 25374.01)
(1712.394 -73.83373 26939.31)
(1834.633 -276.3235 29224.29)
(951.0243 -675.3875 32434.37)
(26.93478 262.4495 9201.047)
(87.68677 913.2015 9701.205)
(160.8621 1953.291 10616.03)
(253.3032 3739.326 12543.68)
(381.07 6222.999 17281.57)
(546.5741 2329.271 21210.15)
(708.4485 1143.521 21996.36)
(915.1367 534.6923 22766.96)
(1182.249 157.0117 23753.52)
(1518.914 -176.3253 25046.25)
(1884.515 -631.2428 26768.87)
(2031.057 -1475.939 29139.32)
(1058.911 -3293.714 32282.26)
(25.75144 199.1564 9193.223)
(83.69846 685.3749 9763.376)
(153.58 1422.919 10824.89)
(241.9933 2529.745 12790.14)
(361.4817 3549.572 16232.33)
(499.2193 1881.871 19095.78)
(632.9825 1075.397 20274.55)
(801.8782 542.5595 21262.95)
(1019.047 159.2947 22247.32)
(1301.008 -201.4826 23322.29)
(1658.156 -684.1761 24546.21)
(2050.24 -1510.311 25963.18)
(2215.505 -3099.224 27554.78)
(1151.088 -6238.468 28840.29)
(24.52005 122.724 9117.388)
(79.54596 418.5054 9718.83)
(145.786 848.99 10830.61)
(229.2074 1434.844 12714.22)
(339.4176 1838.702 15483.79)
(458.7912 1129.218 17767.97)
(572.3387 701.8873 18990.9)
(713.1888 371.4028 20027.48)
(890.7865 107.819 20970.42)
(1119.042 -152.2936 21873.12)
(1415.216 -495.8378 22745.06)
(1790.413 -1050.109 23538.44)
(2203.099 -2016.408 24115.94)
(2374.874 -3706.33 24161.52)
(1218.846 -6441.042 44773.05)
(23.21339 40.86794 8966.098)
(75.14377 138.6111 9568.182)
(137.4168 277.6281 10674.81)
(215.3479 457.3147 12469.37)
(316.7038 563.1717 14913.15)
(422.9617 366.047 16911.51)
(521.8338 235.8509 18087.05)
(642.1882 127.4636 19092.24)
(790.6466 36.5845 19971.06)
(977.1348 -55.07608 20748.88)
(1216.023 -175.0293 21409.11)
(1524.936 -362.3512 21873.98)
(1915.019 -671.621 21976.88)
(2342.409 -1169.931 21441)
(2512.97 -1908.399 38714.19)
(163.3365 -433.582 13208.72)
(27.81162 -438.5983 15193.78)
(63.87348 -472.0182 14128.68)
(81.26586 -1681.122 14840.54)
(71.05997 -449.1253 12876.06)
(184.7238 -1628.635 13506.15)
(130.5056 -3657.619 13812.12)
(64.51711 -383.4166 11711.74)
(204.4012 -1386.123 12095.9)
(291.9508 -3121.77 11971.34)
(169.0706 -6362.531 10385.45)
(55.04621 -288.1865 10739.15)
(185.5779 -1031.532 10888.98)
(320.6587 -2282.047 10386.51)
(372.2038 -4487.988 8441.344)
(184.4691 -7604.6 3504.804)
(46.71532 -175.8888 9979.478)
(159.0865 -623.3777 9964.091)
(291.4934 -1352.609 9224.566)
(408.1101 -2565.389 7145.968)
(407.5921 -4123.792 2879.038)
(40.35306 -57.9103 9423.353)
(136.2064 -203.7858 9316.233)
(251.9231 -436.4174 8471.316)
(374.4163 -808.9272 6386.673)
(454.4744 -1260.646 2521.796)
(35.74433 55.63799 9050.223)
(119.0703 195.0961 8915.306)
(218.6216 415.9488 8071.791)
(329.1273 766.8583 6056.454)
(426.9732 1188.621 2382.238)
(32.4683 155.8729 8834.366)
(106.9232 546.4808 8725.939)
(194.443 1170.034 7977.054)
(292.2351 2185.647 6100.035)
(386.518 3470.337 2438.989)
(30.14158 235.0578 8745.98)
(98.46821 825.961 8711.193)
(177.983 1788.481 8151.261)
(267.0929 3447.253 6521.539)
(355.635 5821.77 2713.635)
(28.45581 286.8439 8751.045)
(92.53301 1010.795 8829.738)
(167.0507 2220.531 8562.878)
(251.8876 4483.698 7391.154)
(339.5482 8512.397 3287.791)
(27.16945 307.0984 8811.507)
(88.16638 1082.787 9030.699)
(159.6091 2401.09 9162.042)
(243.6022 5083.588 8864.646)
(338.5482 11925.97 4342.668)
(26.0959 295.2113 8887.115)
(84.62074 1035.915 9249.6)
(153.8826 2274.842 9832.505)
(238.6877 4726.51 11223.8)
(353.0101 10684.27 18284.85)
(537.4385 1183.155 23799.98)
(704.1106 518.6304 23009.52)
(913.0466 227.9343 23245.38)
(1181.596 66.3592 24056.99)
(1519.863 -68.22055 25350.63)
(1888.691 -251.5587 27247.68)
(2043.332 -604.7344 30134.22)
(1073.613 -1418.245 34730.47)
(25.09746 255.0248 8940.168)
(81.34318 886.259 9414.306)
(148.4112 1892.998 10287.63)
(232.1089 3618.073 12136.36)
(346.2082 6009.868 16689.75)
(491.2574 2244.353 20438.47)
(628.3443 1098.716 21138.5)
(799.4193 511.9104 21805.09)
(1018.256 149.7168 22651.2)
(1302.107 -166.3055 23747.57)
(1662.662 -588.5453 25181.07)
(2063.064 -1348.475 27119.82)
(2249.42 -2951.381 29842.2)
(1187.965 -6650.996 33367.98)
(24.08274 193.7403 8942.752)
(77.99182 665.9869 9486.663)
(142.4806 1380.944 10505.03)
(223.2965 2451.673 12395.03)
(331.3229 3434.493 15706.18)
(453.6926 1817.401 18442.77)
(569.0381 1036.176 19538.06)
(711.34 521.2808 20435.49)
(890.1995 152.4747 21310.08)
(1119.916 -191.9019 22243.34)
(1418.499 -646.7429 23276.12)
(1798.802 -1409.843 24419.22)
(2223.906 -2833.288 25618.76)
(2424.252 -5584.443 26586.77)
(1264.732 -10706.34 51509.64)
(23.00015 119.5091 8878.174)
(74.3932 407.1247 9454.126)
(135.8538 824.9764 10523.86)
(212.6647 1392.524 12338.95)
(313.2497 1781.965 15006.12)
(420.6054 1092.604 17192.73)
(520.2323 677.8378 18342.27)
(641.2686 357.8493 19301.21)
(790.3623 103.5655 20156.29)
(977.5919 -145.8584 20954.57)
(1217.634 -472.3981 21696.83)
(1528.737 -992.9362 22325.33)
(1923.456 -1882.61 22685.79)
(2361.245 -3387.224 22464.23)
(2552.489 -5752.716 41198.39)
(168.2009 -1382.1 14110.21)
(21.82764 39.83497 8739.174)
(70.4872 134.9801 9317.208)
(128.5206 270.0791 10384.23)
(200.6916 444.3811 12116.51)
(293.8824 546.563 14473.45)
(390.4115 354.7516 16390.3)
(478.4618 228.2035 17502.03)
(583.8202 123.0954 18441.01)
(711.0595 35.2447 19248.2)
(867.1571 -52.93623 19945.46)
(1062.391 -167.6067 20513.34)
(1311.487 -345.2291 20870.82)
(1632.318 -635.0646 20851.69)
(2036.08 -1092.149 20181.1)
(2477.462 -1742.667 36036.28)
(337.5107 -384.9383 12176.18)
(193.3076 -693.0111 18902.84)
(28.67511 -342.4966 15629.14)
(66.22133 -419.6291 14630.7)
(84.80313 -1481.878 15574.3)
(73.76663 -444.8664 13382.9)
(193.3267 -1607.758 14280.33)
(138.8196 -3581.389 15340.48)
(66.84457 -423.5675 12169.16)
(213.2716 -1534.633 12788.46)
(309.7369 -3495.517 13273.73)
(185.1451 -7488.873 12960.38)
(56.74753 -363.4707 11106.86)
(192.3167 -1307.18 11430.68)
(336.5025 -2940.614 11328.02)
(400.3941 -6075.993 9969.379)
(205.8235 -11620.21 4448.353)
(47.77584 -274.6604 10232.35)
(163.2556 -977.8738 10326.47)
(301.5291 -2151.918 9813.552)
(428.4252 -4226.215 7983.829)
(437.0878 -7259.089 3364.915)
(40.83831 -168.3865 9549.856)
(138.0787 -594.1272 9493.962)
(256.3645 -1282.257 8747.835)
(383.5202 -2418.931 6750.803)
(469.5008 -3882.564 2723.171)
(35.74433 -55.63799 9050.223)
(119.0703 -195.0961 8915.306)
(218.6216 -415.9488 8071.791)
(329.1273 -766.8583 6056.454)
(426.9732 -1188.62 2382.238)
(32.08133 53.60666 8717.263)
(105.4737 187.4428 8562.455)
(191.1087 398.2209 7724.714)
(285.5268 730.9099 5771.004)
(375.0571 1126.813 2259.012)
(29.47041 150.5275 8529.564)
(95.97155 526.5332 8405.08)
(172.2509 1124.156 7661.685)
(255.4383 2092.55 5838.131)
(335.1456 3307.738 2324.14)
(27.60635 227.4303 8460.842)
(89.38311 797.6412 8410.81)
(159.7732 1723.224 7851.902)
(236.6377 3312.162 6264.229)
(310.8219 5573.962 2597.364)
(26.24783 277.9871 8479.853)
(84.75632 978.0009 8542.03)
(151.6598 2144.421 8267.977)
(226.1652 4320.186 7120.31)
(300.8889 8179.054 3158.394)
(25.20209 298.0372 8550.765)
(81.33044 1049.358 8750.985)
(146.2146 2323.21 8863.858)
(221.2106 4909.426 8560.019)
(304.0785 11491.37 4183.917)
(24.31543 286.8598 8635.116)
(78.49717 1005.352 8976.022)
(141.9667 2204.625 9528.278)
(218.7028 4573.257 10859.25)
(320.6869 10318.42 17658.65)
(483.0396 1140.025 22933.91)
(624.4955 498.3122 22111.99)
(797.5927 218.2239 22263.16)
(1017.677 63.27359 22940.42)
(1302.8 -64.34357 24035.69)
(1665.642 -234.5692 25628.89)
(2071.934 -552.6393 28031.27)
(2274.943 -1271.224 32037.08)
(1220.364 -3123.595 39501.71)
(23.47091 248.0894 8696.579)
(75.79612 861.1887 9147.466)
(137.6826 1837.157 9983.615)
(214.1694 3506.421 11761.42)
(317.3126 5815.051 16148.76)
(446.4518 2167.474 19739.47)
(564.8666 1058.651 20370.51)
(709.1588 491.8377 20956.41)
(889.5034 143.3104 21696.78)
(1120.811 -158.4022 22648.6)
(1422.014 -556.3863 23876.77)
(1808.124 -1259.005 25500.1)
(2248.437 -2699.326 27711.95)
(2488.088 -5958.236 30634.52)
(1332.257 -13955.13 66251.5)
(22.58983 188.665 8708.113)
(72.93923 647.8765 9228.272)
(132.7723 1341.885 10207.49)
(207.1777 2379.364 12029.16)
(305.775 3328.522 15221.64)
(415.9288 1758.477 17845.65)
(517.231 1000.675 18870.68)
(639.6066 502.2601 19694.35)
(789.8421 146.4635 20482.66)
(978.3449 -183.7982 21309.06)
(1220.37 -616.1916 22202.86)
(1535.343 -1333.196 23158.4)
(1938.634 -2645.843 24089.32)
(2396.787 -5106.324 24679.88)
(2631.545 -9572.222 47165.51)
(178.7124 -2713.649 16269.35)
(21.62708 116.4884 8653.472)
(69.78294 396.46 9206.139)
(127.0583 802.5446 10237.39)
(198.1901 1353.142 11989.77)
(290.6759 1729.414 14563.67)
(388.2357 1058.889 16662.84)
(476.9929 655.8595 17748.97)
(582.9843 345.5863 18642.82)
(710.8047 99.77355 19426.68)
(867.5632 -140.1932 20143.11)
(1063.787 -452.3706 20788.84)
(1314.664 -946.0436 21300.84)
(1638.976 -1780.257 21521.98)
(2049.808 -3162.551 21135.88)
(2505.663 -5255.288 38295.79)
(345.7881 -1228.341 12969.2)
(201.3043 -2258.252 20128.62)
(20.56451 38.86238 8525.558)
(66.28023 131.5686 9081.449)
(120.56 263.005 10111.98)