/*--------------------------------*- C++ -*----------------------------------*\
| =========                 |                                                 |
| \\      /  F ield         | OpenFOAM: The Open Source CFD Toolbox           |
|  \\    /   O peration     | Version:  2306                                  |
|   \\  /    A nd           | Website:  www.openfoam.com                      |
|    \\/     M anipulation  |                                                 |
\*---------------------------------------------------------------------------*/
FoamFile
{
    version     2.0;
    format      ascii;
    arch        "LSB;label=32;scalar=64";
    class       volScalarField;
    location    "0.3/phiEC";
    object      phi;
}
// * * * * * * * * * * * * * * * * * * * * * * * * * * * * * * * * * * * * * //

dimensions      [1 2 -3 0 0 -1 0];

internalField   nonuniform List<scalar> 
20000
(
0.7698743
0.7698736
0.7698713
0.7700368
0.7698721
0.7698706
0.7700344
0.7698673
0.7700277
0.7702095
0.7698701
0.7698693
0.7700296
0.7698666
0.7700254
0.7702047
0.7698633
0.7700153
0.7701936
0.770402
0.7698678
0.7698674
0.7700229
0.7698653
0.7700209
0.7701953
0.7698626
0.7700131
0.7701891
0.7703943
0.7698597
0.7700031
0.7701722
0.7703781
0.770626
0.7698652
0.7698651
0.7700148
0.7698635
0.7700144
0.7701816
0.7698614
0.7700088
0.7701801
0.7703786
0.7698591
0.7700011
0.7701679
0.7703707
0.7706168
0.7698567
0.7699924
0.7701513
0.7703463
0.770592
0.7708225
0.7698628
0.7698626
0.7700061
0.7698614
0.7700067
0.7701646
0.7698597
0.7700028
0.770167
0.7703544
0.769858
0.769997
0.7701594
0.7703558
0.770597
0.7698561
0.7699904
0.7701472
0.7703394
0.7705833
0.7708167
0.769854
0.769983
0.7701328
0.7703156
0.7705479
0.7707791
0.7709597
0.7698607
0.7698603
0.7699978
0.7698591
0.7699984
0.7701458
0.7698577
0.7699955
0.7701507
0.7703216
0.7698564
0.7699913
0.7701471
0.7703327
0.7705627
0.769855
0.7699866
0.7701392
0.7703253
0.7705644
0.7708053
0.7698534
0.7699812
0.770129
0.7703091
0.7705396
0.7707736
0.7709561
0.7698516
0.7699749
0.7701169
0.7702886
0.7705057
0.7707237
0.7709094
0.7711009
0.7698592
0.7698583
0.7699907
0.7698569
0.7699904
0.770128
0.7698555
0.7699876
0.7701328
0.7702823
0.7698544
0.7699844
0.7701317
0.7703013
0.7705053
0.7698534
0.7699811
0.7701276
0.7703035
0.7705316
0.770789
0.7698524
0.7699775
0.7701214
0.7702958
0.7705218
0.7707626
0.7709494
0.7698511
0.7699731
0.7701132
0.7702825
0.7704979
0.7707185
0.770906
0.7710991
0.7698495
0.7699678
0.7701031
0.7702654
0.7704689
0.7706714
0.7708461
0.7710433
0.7712446
0.7698584
0.7698569
0.7699856
0.769855
0.7699836
0.7701131
0.7698535
0.7699801
0.7701157
0.7702467
0.7698524
0.769977
0.7701148
0.7702638
0.770405
0.7698516
0.7699746
0.7701131
0.770274
0.7704768
0.7707723
0.7698509
0.7699724
0.7701104
0.7702753
0.770491
0.7707471
0.7709409
0.7698501
0.7699696
0.770106
0.7702699
0.7704811
0.7707082
0.7708995
0.7710958
0.769849
0.7699661
0.7700996
0.7702595
0.7704615
0.7706666
0.7708428
0.7710415
0.7712442
0.7698476
0.7699615
0.7700909
0.7702452
0.7704372
0.770626
0.7707868
0.7709716
0.771179
0.7713893
0.7698584
0.7698561
0.769983
0.7698537
0.7699788
0.7701026
0.7698517
0.7699738
0.7701015
0.7702187
0.7698504
0.76997
0.7700988
0.7702298
0.7703357
0.7698497
0.7699676
0.7700972
0.7702387
0.7703813
0.7698492
0.7699661
0.7700967
0.7702475
0.7704394
0.7707311
0.7709339
0.7698487
0.7699647
0.7700955
0.7702504
0.7704521
0.7706936
0.7708914
0.7710919
0.7698481
0.7699627
0.7700926
0.7702475
0.7704456
0.7706568
0.7708368
0.7710383
0.7712434
0.7698472
0.7699598
0.7700875
0.7702396
0.7704302
0.7706214
0.7707837
0.77097
0.7711786
0.7713903
0.7698459
0.7699557
0.77008
0.7702274
0.7704097
0.770587
0.7707353
0.770905
0.7710988
0.7713154
0.7715339
0.7698592
0.7698561
0.769983
0.7698529
0.7699762
0.7700972
0.7698504
0.7699692
0.7700915
0.7701997
0.7698488
0.769964
0.7700854
0.7702031
0.7702888
0.7698478
0.7699609
0.7700821
0.7702067
0.7703151
0.7698473
0.7699594
0.7700816
0.7702142
0.7703495
0.769847
0.7699588
0.7700824
0.770224
0.7704035
0.7706785
0.7708847
0.7710889
0.7698467
0.769958
0.7700826
0.7702289
0.770418
0.7706431
0.7708291
0.7710345
0.7712424
0.7698462
0.7699566
0.7700809
0.7702281
0.770415
0.7706122
0.770778
0.7709669
0.7711777
0.7713918
0.7698454
0.7699541
0.7700768
0.770222
0.770403
0.7705825
0.7707324
0.7709035
0.7710984
0.7713162
0.7715365
0.7698443
0.7699505
0.7700702
0.7702115
0.7703854
0.7705531
0.7706912
0.7708475
0.7710248
0.7712264
0.7714512
0.7716767
0.7698607
0.7698569
0.7699856
0.7698529
0.7699762
0.7700972
0.7698498
0.7699668
0.7700863
0.7701902
0.7698475
0.7699596
0.770076
0.7701849
0.7702596
0.7698462
0.7699552
0.7700695
0.7701815
0.7702704
0.7698455
0.7699531
0.7700672
0.770184
0.7702872
0.7698452
0.7699524
0.770068
0.7701925
0.7703187
0.7698451
0.7699523
0.77007
0.7702038
0.7703719
0.7706288
0.7708228
0.7710317
0.7712417
0.7698449
0.769952
0.7700712
0.7702103
0.7703887
0.7705991
0.7707708
0.7709633
0.7711767
0.7713933
0.7698445
0.769951
0.7700704
0.770211
0.7703884
0.7705738
0.770727
0.7709006
0.7710975
0.7713175
0.7715409
0.7698439
0.7699489
0.770067
0.7702063
0.770379
0.7705489
0.7706884
0.770846
0.7710244
0.7712271
0.7714535
0.7716818
0.7698429
0.7699456
0.7700612
0.7701972
0.7703638
0.7705233
0.7706529
0.7707981
0.770961
0.7711449
0.7713533
0.7715848
0.7718154
0.7698628
0.7698583
0.7699907
0.7698537
0.7699788
0.7701026
0.7698498
0.7699668
0.7700863
0.7701902
0.7698469
0.7699574
0.7700711
0.7701758
0.7702456
0.769845
0.7699511
0.7700606
0.7701644
0.7702425
0.769844
0.7699476
0.7700553
0.7701602
0.7702451
0.7698435
0.7699462
0.7700544
0.7701639
0.77026
0.7698433
0.7699461
0.7700563
0.7701737
0.7702916
0.7698433
0.7699465
0.7700592
0.7701862
0.7703448
0.7705856
0.7707648
0.7709607
0.771176
0.7713943
0.7698433
0.7699466
0.770061
0.7701939
0.7703633
0.7705613
0.7707202
0.7708972
0.7710965
0.7713188
0.7715456
0.769843
0.7699459
0.7700609
0.7701957
0.770365
0.7705405
0.7706833
0.7708432
0.7710236
0.7712283
0.7714574
0.7716905
0.7698424
0.7699441
0.7700582
0.7701922
0.7703576
0.7705192
0.7706503
0.7707967
0.7709606
0.7711456
0.7713553
0.7715893
0.7718242
0.7698415
0.7699412
0.770053
0.7701841
0.7703442
0.7704966
0.7706192
0.7707553
0.7709064
0.7710749
0.7712643
0.7714779
0.7717141
0.7719464
0.7698652
0.7698603
0.7699978
0.769855
0.7699836
0.7701131
0.7698504
0.7699692
0.7700915
0.7701997
0.7698469
0.7699574
0.7700711
0.7701758
0.7702456
0.7698444
0.769949
0.770056
0.7701558
0.7702291
0.7698429
0.7699437
0.7700468
0.7701441
0.7702189
0.769842
0.769941
0.770043
0.7701413
0.7702203
0.7698417
0.7699402
0.7700432
0.7701464
0.7702359
0.7698417
0.7699405
0.7700459
0.7701574
0.7702682
0.7698417
0.7699412
0.7700494
0.7701708
0.7703212
0.7705484
0.7707145
0.7708947
0.7710958
0.7713196
0.7715487
0.7698418
0.7699416
0.7700519
0.7701793
0.7703408
0.7705285
0.7706767
0.77084
0.7710226
0.7712294
0.7714615
0.7717002
0.7698416
0.7699412
0.7700522
0.7701819
0.7703441
0.7705111
0.7706453
0.7707941
0.7709599
0.7711466
0.7713589
0.7715971
0.7718401
0.7698411
0.7699397
0.77005
0.7701792
0.7703382
0.7704927
0.7706166
0.7707539
0.770906
0.7710755
0.7712663
0.771482
0.7717219
0.7719607
0.7698402
0.769937
0.7700453
0.770172
0.7703264
0.7704725
0.770589
0.7707176
0.770859
0.771015
0.7711881
0.7713816
0.7715984
0.7718356
0.7720641
0.7698678
0.7698626
0.7700061
0.7698569
0.7699904
0.770128
0.7698517
0.7699738
0.7701015
0.7702187
0.7698475
0.7699596
0.770076
0.7701849
0.7702596
0.7698444
0.769949
0.770056
0.7701558
0.7702291
0.7698423
0.7699417
0.7700425
0.770136
0.7702063
0.769841
0.7699373
0.7700349
0.7701261
0.7701956
0.7698403
0.7699353
0.7700323
0.770125
0.7701983
0.7698401
0.7699349
0.7700334
0.7701313
0.7702151
0.7698401
0.7699355
0.7700367
0.7701431
0.7702479
0.7698403
0.7699365
0.7700407
0.770157
0.7703004
0.7705162
0.7706713
0.7708376
0.7710219
0.7712302
0.7714643
0.771707
0.7698404
0.7699371
0.7700435
0.770166
0.7703208
0.7704997
0.7706391
0.770791
0.7709589
0.7711477
0.7713627
0.7716058
0.7718588
0.7698402
0.7699369
0.7700442
0.7701693
0.7703252
0.7704849
0.7706119
0.7707514
0.7709053
0.7710765
0.7712696
0.7714892
0.7717361
0.7719878
0.7698398
0.7699356
0.7700425
0.7701673
0.7703206
0.7704687
0.7705866
0.7707163
0.7708586
0.7710156
0.77119
0.7713854
0.7716056
0.7718484
0.7720854
0.769839
0.7699331
0.7700382
0.7701609
0.7703099
0.7704505
0.7705618
0.7706839
0.7708173
0.7709631
0.771123
0.7712994
0.7714949
0.7717115
0.7719445
0.7722754
0.7698701
0.7698651
0.7700148
0.7698591
0.7699984
0.7701458
0.7698535
0.7699801
0.7701157
0.7702467
0.7698488
0.769964
0.7700854
0.7702031
0.7702888
0.769845
0.7699511
0.7700606
0.7701644
0.7702425
0.7698423
0.7699417
0.7700425
0.770136
0.7702063
0.7698404
0.7699354
0.7700308
0.7701184
0.7701837
0.7698393
0.7699317
0.7700246
0.7701104
0.7701749
0.7698387
0.7699301
0.7700229
0.7701108
0.7701793
0.7698386
0.76993
0.7700246
0.770118
0.7701971
0.7698387
0.7699309
0.7700284
0.7701303
0.77023
0.7698389
0.7699321
0.7700327
0.7701445
0.7702819
0.7704878
0.7706339
0.7707887
0.7709583
0.7711484
0.7713652
0.7716119
0.771873
0.7698391
0.7699328
0.7700358
0.7701539
0.7703027
0.7704739
0.7706059
0.7707485
0.7709044
0.7710775
0.7712731
0.7714971
0.7717529
0.7720231
0.769839
0.7699328
0.7700368
0.7701577
0.770308
0.7704612
0.770582
0.7707139
0.7708579
0.7710165
0.7711931
0.7713921
0.7716185
0.7718727
0.7721285
0.7698386
0.7699317
0.7700354
0.7701563
0.7703043
0.7704468
0.7705594
0.7706826
0.7708169
0.7709636
0.7711247
0.771303
0.7715016
0.7717232
0.7719636
0.7723115
0.7698379
0.7699295
0.7700316
0.7701505
0.7702947
0.7704302
0.7705369
0.7706534
0.77078
0.7709173
0.7710665
0.7712291
0.7714069
0.7716014
0.7718128
0.7721393
0.7725949
0.7698721
0.7698674
0.7700229
0.7698614
0.7700067
0.7701646
0.7698555
0.7699876
0.7701328
0.7702823
0.7698504
0.76997
0.7700988
0.7702298
0.7703357
0.7698462
0.7699552
0.7700695
0.7701815
0.7702704
0.7698429
0.7699437
0.7700468
0.7701441
0.7702189
0.7698404
0.7699354
0.7700308
0.7701184
0.7701837
0.7698387
0.7699298
0.7700206
0.7701031
0.7701636
0.7698377
0.7699266
0.7700155
0.7700969
0.7701569
0.7698373
0.7699254
0.7700145
0.7700983
0.7701627
0.7698372
0.7699256
0.7700167
0.7701061
0.7701812
0.7698374
0.7699267
0.7700207
0.7701188
0.770214
0.7698377
0.769928
0.7700253
0.7701331
0.7702651
0.7704625
0.7706009
0.7707463
0.7709038
0.7710782
0.7712754
0.7715027
0.7717657
0.7720543
0.7698379
0.7699289
0.7700286
0.7701428
0.7702862
0.7704505
0.7705762
0.7707111
0.7708571
0.7710175
0.7711964
0.7713995
0.7716339
0.7719043
0.7721925
0.7698378
0.7699291
0.77003
0.770147
0.7702921
0.7704396
0.770555
0.7706803
0.7708163
0.7709645
0.7711277
0.7713093
0.7715137
0.7717454
0.772002
0.7723906
0.7698375
0.7699281
0.7700289
0.7701461
0.7702892
0.7704267
0.7705346
0.7706521
0.7707796
0.7709178
0.7710682
0.7712326
0.7714132
0.7716123
0.7718302
0.7721713
0.7726527
0.7698368
0.7699261
0.7700254
0.7701408
0.7702805
0.7704114
0.7705139
0.7706255
0.7707462
0.7708764
0.7710167
0.7711682
0.7713317
0.7715079
0.7716967
0.7719941
0.7724338
0.7729055
0.7698736
0.7698693
0.7700296
0.7698635
0.7700144
0.7701816
0.7698577
0.7699955
0.7701507
0.7703216
0.7698524
0.769977
0.7701148
0.7702638
0.770405
0.7698478
0.7699609
0.7700821
0.7702067
0.7703151
0.769844
0.7699476
0.7700553
0.7701602
0.7702451
0.769841
0.7699373
0.7700349
0.7701261
0.7701956
0.7698387
0.7699298
0.7700206
0.7701031
0.7701636
0.7698372
0.7699248
0.7700116
0.7700899
0.7701462
0.7698363
0.7699221
0.7700074
0.7700849
0.7701413
0.7698359
0.7699211
0.7700069
0.7700871
0.7701482
0.769836
0.7699216
0.7700094
0.7700954
0.770167
0.7698362
0.7699228
0.7700137
0.7701082
0.7701996
0.7698365
0.7699242
0.7700185
0.7701226
0.7702498
0.7704395
0.7705714
0.770709
0.7708565
0.7710181
0.7711986
0.7714047
0.7716455
0.7719323
0.772268
0.7698367
0.7699253
0.770022
0.7701325
0.770271
0.7704292
0.7705494
0.7706776
0.7708155
0.7709655
0.7711309
0.7713163
0.7715281
0.7717742
0.7720593
0.7725377
0.7698367
0.7699255
0.7700235
0.770137
0.7702774
0.7704196
0.7705303
0.7706499
0.770779
0.7709187
0.771071
0.7712386
0.7714247
0.771633
0.7718653
0.7722416
0.7727831
0.7698364
0.7699248
0.7700227
0.7701365
0.7702752
0.770408
0.7705117
0.7706243
0.7707458
0.7708769
0.7710184
0.7711715
0.7713377
0.7715182
0.771713
0.7720234
0.7724849
0.7729825
0.7698358
0.7699229
0.7700195
0.7701317
0.7702673
0.770394
0.7704927
0.7705998
0.7707153
0.7708393
0.7709722
0.7711145
0.7712665
0.7714281
0.7715984
0.7718677
0.7722684
0.7727202
0.773204
0.7698743
0.7698706
0.7700344
0.7698653
0.7700209
0.7701953
0.7698597
0.7700028
0.770167
0.7703544
0.7698544
0.7699844
0.7701317
0.7703013
0.7705053
0.7698497
0.7699676
0.7700972
0.7702387
0.7703813
0.7698455
0.7699531
0.7700672
0.770184
0.7702872
0.769842
0.769941
0.770043
0.7701413
0.7702203
0.7698393
0.7699317
0.7700246
0.7701104
0.7701749
0.7698372
0.7699248
0.7700116
0.7700899
0.7701462
0.7698358
0.7699203
0.7700037
0.7700782
0.7701311
0.769835
0.7699179
0.77
0.7700742
0.7701276
0.7698347
0.7699172
0.77
0.770077
0.7701352
0.7698348
0.7699178
0.7700028
0.7700856
0.7701542
0.7698351
0.7699192
0.7700073
0.7700985
0.7701864
0.7698354
0.7699207
0.7700121
0.7701129
0.7702358
0.7704186
0.7705448
0.7706756
0.7708149
0.7709661
0.771133
0.7713212
0.771539
0.7717999
0.772127
0.7728978
0.7698357
0.7699218
0.7700158
0.7701229
0.7702569
0.7704096
0.7705249
0.7706473
0.7707782
0.7709196
0.7710741
0.7712453
0.7714382
0.77166
0.7719177
0.7723728
0.7730348
0.7698357
0.7699222
0.7700175
0.7701276
0.7702637
0.7704012
0.7705076
0.7706222
0.7707452
0.7708777
0.7710211
0.7711773
0.7713486
0.7715378
0.7717458
0.7720875
0.7726006
0.7731565
0.7698355
0.7699216
0.770017
0.7701275
0.7702621
0.7703906
0.7704905
0.7705987
0.770715
0.7708398
0.7709738
0.7711177
0.7712723
0.771438
0.7716138
0.771895
0.7723149
0.7727882
0.773297
0.7698349
0.7699198
0.770014
0.7701232
0.7702549
0.7703777
0.7704729
0.7705761
0.7706869
0.7708054
0.7709319
0.7710665
0.7712091
0.771359
0.7715146
0.771761
0.7721264
0.7725352
0.7729958
0.773488
0.7698713
0.7700368
0.7698666
0.7700254
0.7702047
0.7698614
0.7700088
0.7701801
0.7703786
0.7698564
0.7699913
0.7701471
0.7703327
0.7705627
0.7698516
0.7699746
0.7701131
0.770274
0.7704768
0.7707723
0.7698473
0.7699594
0.7700816
0.7702142
0.7703495
0.7698435
0.7699462
0.7700544
0.7701639
0.77026
0.7698403
0.7699353
0.7700323
0.770125
0.7701983
0.7698377
0.7699266
0.7700155
0.7700969
0.7701569
0.7698358
0.7699203
0.7700037
0.7700782
0.7701311
0.7698345
0.7699162
0.7699965
0.7700677
0.7701177
0.7698338
0.7699141
0.7699933
0.7700646
0.7701154
0.7698336
0.7699136
0.7699936
0.7700678
0.7701234
0.7698337
0.7699143
0.7699966
0.7700766
0.7701425
0.769834
0.7699158
0.7700012
0.7700895
0.7701743
0.7750077
0.7698344
0.7699174
0.7700062
0.7701039
0.7702227
0.7703993
0.7705204
0.7706453
0.7707776
0.7709202
0.7710761
0.7712499
0.7714485
0.7716839
0.7719797
0.7726956
0.7735871
0.7698346
0.7699186
0.77001
0.770114
0.7702438
0.7703915
0.7705023
0.7706196
0.7707445
0.7708786
0.771024
0.7711837
0.7713616
0.7715633
0.7717947
0.7722074
0.7728245
0.7734842
0.7698347
0.7699191
0.7700119
0.7701189
0.770251
0.770384
0.7704865
0.7705966
0.7707144
0.7708406
0.7709764
0.7711232
0.7712828
0.7714566
0.7716448
0.7719548
0.7724203
0.7729421
0.7735058
0.7698345
0.7699186
0.7700115
0.7701191
0.7702499
0.7703744
0.7704708
0.770575
0.7706866
0.7708059
0.7709334
0.7710695
0.7712146
0.7713684
0.7715293
0.7717868
0.7721697
0.772597
0.7730776
0.7735935
0.769834
0.769917
0.7700088
0.7701152
0.7702433
0.7703624
0.7704545
0.770554
0.7706606
0.7707742
0.770895
0.771023
0.7711576
0.771298
0.7714419
0.77167
0.772007
0.7723781
0.7727921
0.7732582
0.7736284
0.7698673
0.7700277
0.7702095
0.7698626
0.7700131
0.7701891
0.7703943
0.769858
0.769997
0.7701594
0.7703558
0.770597
0.7698534
0.7699811
0.7701276
0.7703035
0.7705316
0.770789
0.7698492
0.7699661
0.7700967
0.7702475
0.7704394
0.7707311
0.7709339
0.7698452
0.7699524
0.770068
0.7701925
0.7703187
0.7698417
0.7699402
0.7700432
0.7701464
0.7702359
0.7698387
0.7699301
0.7700229
0.7701108
0.7701793
0.7698363
0.7699221
0.7700074
0.7700849
0.7701413
0.7698345
0.7699162
0.7699965
0.7700677
0.7701177
0.7698333
0.7699124
0.7699899
0.7700583
0.7701059
0.7698327
0.7699105
0.7699872
0.7700558
0.7701043
0.7698325
0.7699102
0.7699877
0.7700594
0.7701127
0.7698327
0.769911
0.7699909
0.7700682
0.7701317
0.7762297
0.769833
0.7699126
0.7699956
0.7700811
0.770163
0.7745934
0.7751504
0.7698334
0.7699143
0.7700006
0.7700955
0.7702106
0.7703814
0.770498
0.7706177
0.7707439
0.7708791
0.771026
0.7711881
0.7713714
0.771586
0.7718527
0.7725032
0.7733184
0.774115
0.7698337
0.7699156
0.7700046
0.7701056
0.7702316
0.7703746
0.7704814
0.7705941
0.7707137
0.7708414
0.7709792
0.7711294
0.7712952
0.7714809
0.7716911
0.7720668
0.7726248
0.773233
0.7738856
0.7698338
0.7699162
0.7700066
0.7701107
0.770239
0.770368
0.7704669
0.7705729
0.770686
0.7708067
0.7709359
0.7710749
0.7712247
0.7713863
0.7715588
0.7718433
0.772268
0.7727372
0.7732618
0.773828
0.7698336
0.7699157
0.7700064
0.7701112
0.7702384
0.7703592
0.7704524
0.7705529
0.7706602
0.7707747
0.7708965
0.7710259
0.771163
0.771307
0.7714559
0.7716945
0.7720479
0.7724356
0.7728665
0.7733507
0.7737384
0.7698332
0.7699143
0.7700039
0.7701076
0.7702323
0.770348
0.7704372
0.7705333
0.7706361
0.7707453
0.7708611
0.7709832
0.771111
0.7712434
0.7713778
0.7715911
0.7719052
0.7722464
0.7726206
0.7730371
0.7733882
0.7736416
0.7698633
0.7700153
0.7701936
0.770402
0.7698591
0.7700011
0.7701679
0.7703707
0.7706168
0.769855
0.7699866
0.7701392
0.7703253
0.7705644
0.7708053
0.7698509
0.7699724
0.7701104
0.7702753
0.770491
0.7707471
0.7709409
0.769847
0.7699588
0.7700824
0.770224
0.7704035
0.7706785
0.7708847
0.7710889
0.7698433
0.7699461
0.7700563
0.7701737
0.7702916
0.7698401
0.7699349
0.7700334
0.7701313
0.7702151
0.7698373
0.7699254
0.7700145
0.7700983
0.7701627
0.769835
0.7699179
0.77
0.7700742
0.7701276
0.7698333
0.7699124
0.7699899
0.7700583
0.7701059
0.7698322
0.769909
0.7699838
0.7700497
0.7700951
0.7698317
0.7699073
0.7699815
0.7700477
0.7700942
0.7698315
0.7699071
0.7699823
0.7700515
0.7701029
0.7770538
0.7698317
0.769908
0.7699855
0.7700605
0.7701217
0.7756877
0.7762942
0.7698321
0.7699096
0.7699903
0.7700733
0.7701526
0.774246
0.7747218
0.7753609
0.7698325
0.7699113
0.7699954
0.7700876
0.7701993
0.7703648
0.7704772
0.7705923
0.7707131
0.770842
0.7709811
0.7711337
0.7713045
0.7715025
0.7717459
0.7723434
0.7730769
0.7737956
0.774545
0.7698328
0.7699127
0.7699994
0.7700977
0.7702202
0.7703588
0.770462
0.7705705
0.7706853
0.7708075
0.7709387
0.7710808
0.7712366
0.7714096
0.7716029
0.7719492
0.7724589
0.7730026
0.7735981
0.7742426
0.7698329
0.7699134
0.7700016
0.770103
0.7702278
0.7703529
0.7704486
0.7705509
0.7706597
0.7707755
0.7708989
0.7710311
0.7711727
0.7713242
0.7714842
0.7717484
0.7721407
0.7725663
0.773034
0.7735571
0.7739823
0.7698328
0.7699131
0.7700016
0.7701037
0.7702275
0.7703449
0.7704352
0.7705322
0.7706358
0.7707458
0.7708625
0.770986
0.7711162
0.7712521
0.7713912
0.7716145
0.7719441
0.7723007
0.7726898
0.7731211
0.7734846
0.773752
0.7698324
0.7699117
0.7699993
0.7701004
0.770222
0.7703345
0.7704209
0.770514
0.7706132
0.7707185
0.7708296
0.7709465
0.7710684
0.7711939
0.7713203
0.7715213
0.7718168
0.7721341
0.7724771
0.7728519
0.7731586
0.7734004
0.7736546
0.7698597
0.7700031
0.7701722
0.7703781
0.770626
0.7698561
0.7699904
0.7701472
0.7703394
0.7705833
0.7708167
0.7698524
0.7699775
0.7701214
0.7702958
0.7705218
0.7707626
0.7709494
0.7698487
0.7699647
0.7700955
0.7702504
0.7704521
0.7706936
0.7708914
0.7710919
0.7698451
0.7699523
0.77007
0.7702038
0.7703719
0.7706288
0.7708228
0.7710317
0.7712417
0.7698417
0.7699405
0.7700459
0.7701574
0.7702682
0.7698386
0.76993
0.7700246
0.770118
0.7701971
0.7698359
0.7699211
0.7700069
0.7700871
0.7701482
0.7698338
0.7699141
0.7699933
0.7700646
0.7701154
0.7698322
0.769909
0.7699838
0.7700497
0.7700951
0.7698312
0.7699057
0.7699782
0.7700418
0.7700853
0.7698307
0.7699042
0.7699762
0.7700402
0.770085
0.7775833
0.7698306
0.7699041
0.7699771
0.7700442
0.7700938
0.7764231
0.7771019
0.7698308
0.7699051
0.7699805
0.7700532
0.7701124
0.7752483
0.775745
0.7764134
0.7698312
0.7699068
0.7699854
0.770066
0.7701428
0.7739751
0.7743643
0.774911
0.7756031
0.7698316
0.7699086
0.7699905
0.7700802
0.7701886
0.7703493
0.7704579
0.7705688
0.7706848
0.770808
0.7709405
0.7710849
0.7712456
0.7714302
0.7716552
0.772211
0.7728815
0.773517
0.7741843
0.7749118
0.769832
0.76991
0.7699946
0.7700903
0.7702094
0.770344
0.7704438
0.7705486
0.770659
0.7707762
0.7709016
0.7710368
0.7711841
0.7713466
0.7715265
0.7718493
0.7723212
0.7728138
0.7733404
0.773923
0.7744089
0.7698321
0.7699107
0.7699969
0.7700957
0.7702172
0.7703388
0.7704315
0.7705303
0.7706352
0.7707465
0.7708649
0.770991
0.7711255
0.7712686
0.7714184
0.7716661
0.7720325
0.7724241
0.7728458
0.7733085
0.7736987
0.7739967
0.769832
0.7699105
0.769997
0.7700966
0.7702173
0.7703315
0.770419
0.7705129
0.7706129
0.7707189
0.770831
0.7709493
0.7710734
0.7712023
0.7713333
0.7715439
0.771854
0.7721858
0.7725424
0.77293
0.773246
0.7734971
0.7737654
0.7698316
0.7699093
0.7699949
0.7700937
0.7702122
0.7703218
0.7704056
0.7704958
0.7705917
0.7706933
0.7708004
0.7709126
0.7710292
0.7711486
0.7712682
0.7714588
0.7717386
0.7720365
0.7723547
0.7726972
0.7729668
0.77317
0.7734124
0.7736675
0.7698567
0.7699924
0.7701513
0.7703463
0.770592
0.7708225
0.7698534
0.7699812
0.770129
0.7703091
0.7705396
0.7707736
0.7709561
0.7698501
0.7699696
0.770106
0.7702699
0.7704811
0.7707082
0.7708995
0.7710958
0.7698467
0.769958
0.7700826
0.7702289
0.770418
0.7706431
0.7708291
0.7710345
0.7712424
0.7698433
0.7699465
0.7700592
0.7701862
0.7703448
0.7705856
0.7707648
0.7709607
0.771176
0.7713943
0.7698401
0.7699355
0.7700367
0.7701431
0.7702479
0.7698372
0.7699256
0.7700167
0.7701061
0.7701812
0.7698347
0.7699172
0.77
0.770077
0.7701352
0.7698327
0.7699105
0.7699872
0.7700558
0.7701043
0.7698312
0.7699057
0.7699782
0.7700418
0.7700853
0.7698303
0.7699027
0.769973
0.7700345
0.7700763
0.7778446
0.7698298
0.7699013
0.7699712
0.7700332
0.7700764
0.7768946
0.7776273
0.7698297
0.7699013
0.7699724
0.7700374
0.7700853
0.7759205
0.7764652
0.7771962
0.7698299
0.7699024
0.7699758
0.7700465
0.7701038
0.7749123
0.7753009
0.7758505
0.7765766
0.7698303
0.7699041
0.7699807
0.7700592
0.7701337
0.7737565
0.7740862
0.7745387
0.7751282
0.7758596
0.7698308
0.769906
0.7699859
0.7700732
0.7701787
0.7703348
0.7704399
0.7705469
0.7706585
0.7707767
0.7709033
0.7710408
0.7711928
0.7713665
0.7715765
0.7720989
0.7727211
0.7732944
0.7738758
0.7745158
0.7750813
0.7698312
0.7699075
0.76999
0.7700834
0.7701993
0.7703301
0.7704268
0.7705281
0.7706346
0.7707473
0.7708674
0.7709966
0.7711366
0.7712902
0.771459
0.7717627
0.7722044
0.7726581
0.7731315
0.7736416
0.7740745
0.7744244
0.7698313
0.7699083
0.7699924
0.7700888
0.7702072
0.7703255
0.7704154
0.7705111
0.7706124
0.7707196
0.7708333
0.7709541
0.7710825
0.7712183
0.7713595
0.7715934
0.7719386
0.7723032
0.7726897
0.7731045
0.7734404
0.7737119
0.7740108
0.7698313
0.7699081
0.7699926
0.77009
0.7702077
0.7703188
0.7704038
0.7704948
0.7705915
0.7706938
0.7708017
0.7709153
0.771034
0.7711568
0.7712808
0.7714805
0.7717744
0.7720859
0.7724168
0.772771
0.7730481
0.7732577
0.7735095
0.7737786
0.7698309
0.769907
0.7699908
0.7700873
0.770203
0.7703097
0.7703912
0.7704786
0.7705716
0.7706698
0.7707731
0.770881
0.7709928
0.7711069
0.7712206
0.7714022
0.7716684
0.7719501
0.7722483
0.7725653
0.7728066
0.7729776
0.7731813
0.7734244
0.7736802
0.769854
0.769983
0.7701328
0.7703156
0.7705479
0.7707791
0.7709597
0.7698511
0.7699731
0.7701132
0.7702825
0.7704979
0.7707185
0.770906
0.7710991
0.7698481
0.7699627
0.7700926
0.7702475
0.7704456
0.7706568
0.7708368
0.7710383
0.7712434
0.7698449
0.769952
0.7700712
0.7702103
0.7703887
0.7705991
0.7707708
0.7709633
0.7711767
0.7713933
0.7698417
0.7699412
0.7700494
0.7701708
0.7703212
0.7705484
0.7707145
0.7708947
0.7710958
0.7713196
0.7715487
0.7698387
0.7699309
0.7700284
0.7701303
0.77023
0.769836
0.7699216
0.7700094
0.7700954
0.770167
0.7698336
0.7699136
0.7699936
0.7700678
0.7701234
0.7698317
0.7699073
0.7699815
0.7700477
0.7700942
0.7698303
0.7699027
0.769973
0.7700345
0.7700763
0.7778446
0.7698294
0.7698999
0.7699681
0.7700277
0.770068
0.777127
0.7778876
0.7698289
0.7698986
0.7699666
0.7700267
0.7700684
0.7763508
0.7769326
0.7777148
0.7698289
0.7698987
0.7699679
0.7700311
0.7700774
0.7755402
0.775959
0.7765474
0.7773339
0.7698291
0.7698999
0.7699714
0.7700401
0.7700957
0.7746434
0.7749617
0.775398
0.7759947
0.7767753
0.7698296
0.7699016
0.7699763
0.7700527
0.7701251
0.7735727
0.7738617
0.7742498
0.7747389
0.7753576
0.7759974
0.76983
0.7699035
0.7699815
0.7700666
0.7701693
0.7703211
0.7704229
0.7705264
0.7706341
0.7707478
0.7708691
0.7710004
0.771145
0.7713094
0.7715071
0.7720018
0.7725856
0.7731126
0.7736313
0.774182
0.7746688
0.775097
0.7698304
0.7699051
0.7699857
0.7700768
0.7701897
0.770317
0.7704108
0.7705089
0.7706117
0.7707203
0.7708358
0.7709595
0.7710932
0.7712391
0.7713986
0.7716862
0.7721032
0.7725261
0.7729596
0.7734149
0.7737822
0.7740886
0.7744394
0.7698306
0.7699059
0.7699881
0.7700823
0.7701978
0.770313
0.7704002
0.7704929
0.7705909
0.7706945
0.770804
0.7709199
0.7710428
0.7711722
0.7713061
0.7715282
0.7718556
0.7721983
0.772557
0.7729356
0.7732289
0.7734527
0.7737249
0.7740246
0.7698305
0.7699058
0.7699885
0.7700836
0.7701985
0.7703068
0.7703894
0.7704777
0.7705713
0.7706702
0.7707743
0.7708836
0.7709975
0.7711148
0.7712327
0.7714231
0.7717029
0.7719976
0.7723077
0.7726354
0.7728833
0.7730591
0.7732693
0.7735217
0.7737916
0.7698302
0.7699048
0.7699868
0.7700812
0.7701943
0.7702983
0.7703776
0.7704625
0.7705526
0.7706477
0.7707474
0.7708515
0.7709589
0.7710683
0.7711767
0.7713503
0.7716048
0.7718725
0.772154
0.7724505
0.77267
0.7728169
0.7729883
0.7731925
0.7734361
0.773695
0.7698516
0.7699749
0.7701169
0.7702886
0.7705057
0.7707237
0.7709094
0.7711009
0.769849
0.7699661
0.7700996
0.7702595
0.7704615
0.7706666
0.7708428
0.7710415
0.7712442
0.7698462
0.7699566
0.7700809
0.7702281
0.770415
0.7706122
0.770778
0.7709669
0.7711777
0.7713918
0.7698433
0.7699466
0.770061
0.7701939
0.7703633
0.7705613
0.7707202
0.7708972
0.7710965
0.7713188
0.7715456
0.7698403
0.7699365
0.7700407
0.770157
0.7703004
0.7705162
0.7706713
0.7708376
0.7710219
0.7712302
0.7714643
0.771707
0.7698374
0.7699267
0.7700207
0.7701188
0.770214
0.7698348
0.7699178
0.7700028
0.7700856
0.7701542
0.7698325
0.7699102
0.7699877
0.7700594
0.7701127
0.7698307
0.7699042
0.7699762
0.7700402
0.770085
0.7775833
0.7698294
0.7698999
0.7699681
0.7700277
0.770068
0.777127
0.7778876
0.7698285
0.7698972
0.7699636
0.7700213
0.7700602
0.7765627
0.7771639
0.7779734
0.7698281
0.7698961
0.7699622
0.7700206
0.7700609
0.7759418
0.7763855
0.7770081
0.777845
0.7698281
0.7698963
0.7699636
0.7700251
0.7700699
0.7752374
0.7755762
0.7760343
0.7766673
0.7775121
0.7698284
0.7698975
0.7699672
0.7700341
0.7700881
0.7744183
0.7746903
0.7750527
0.7755305
0.7761698
0.7768952
0.7698288
0.7698993
0.7699722
0.7700466
0.770117
0.773414
0.7736732
0.7740169
0.7744378
0.7749505
0.7754804
0.7760106
0.7698293
0.7699012
0.7699774
0.7700604
0.7701604
0.7703082
0.7704071
0.7705072
0.7706113
0.7707208
0.7708375
0.7709632
0.7711013
0.7712576
0.771445
0.7719161
0.7724683
0.7729593
0.7734322
0.773919
0.7743235
0.774683
0.7751124
0.7698297
0.7699028
0.7699816
0.7700705
0.7701807
0.7703047
0.7703958
0.7704908
0.7705903
0.7706952
0.7708064
0.7709252
0.7710532
0.7711924
0.7713439
0.7716177
0.7720138
0.7724117
0.7728141
0.7732287
0.7735473
0.7737953
0.7741024
0.7744541
0.7698299
0.7699037
0.7699841
0.7700762
0.7701889
0.7703011
0.7703859
0.7704759
0.7705708
0.7706709
0.7707765
0.7708881
0.771006
0.7711298
0.7712572
0.7714692
0.7717812
0.7721055
0.7724418
0.7727921
0.7730539
0.7732406
0.7734648
0.7737376
0.7740381
0.7698299
0.7699037
0.7699846
0.7700776
0.7701899
0.7702955
0.7703758
0.7704615
0.7705524
0.7706481
0.7707487
0.770854
0.7709635
0.7710759
0.7711885
0.7713706
0.7716381
0.7719183
0.7722111
0.7725176
0.7727429
0.7728938
0.7730701
0.7732807
0.7735336
0.7738067
0.7698295
0.7699027
0.7699831
0.7700755
0.770186
0.7702876
0.7703647
0.7704473
0.7705347
0.7706269
0.7707234
0.7708238
0.7709273
0.7710323
0.771136
0.7713025
0.7715465
0.7718021
0.7720693
0.7723487
0.7725511
0.7726799
0.7728271
0.7729988
0.7732035
0.7734499
0.7737089
0.7698495
0.7699678
0.7701031
0.7702654
0.7704689
0.7706714
0.7708461
0.7710433
0.7712446
0.7698472
0.7699598
0.7700875
0.7702396
0.7704302
0.7706214
0.7707837
0.77097
0.7711786
0.7713903
0.7698445
0.769951
0.7700704
0.770211
0.7703884
0.7705738
0.770727
0.7709006
0.7710975
0.7713175
0.7715409
0.7698418
0.7699416
0.7700519
0.7701793
0.7703408
0.7705285
0.7706767
0.77084
0.7710226
0.7712294
0.7714615
0.7717002
0.7698389
0.7699321
0.7700327
0.7701445
0.7702819
0.7704878
0.7706339
0.7707887
0.7709583
0.7711484
0.7713652
0.7716119
0.771873
0.7698362
0.7699228
0.7700137
0.7701082
0.7701996
0.7698337
0.7699143
0.7699966
0.7700766
0.7701425
0.7698315
0.7699071
0.7699823
0.7700515
0.7701029
0.7770538
0.7698298
0.7699013
0.7699712
0.7700332
0.7700764
0.7768946
0.7776273
0.7698285
0.7698972
0.7699636
0.7700213
0.7700602
0.7765627
0.7771639
0.7779734
0.7698277
0.7698947
0.7699593
0.7700154
0.770053
0.7761396
0.7765964
0.7772376
0.7781017
0.7698273
0.7698937
0.7699581
0.7700149
0.7700539
0.7756173
0.7759743
0.7764545
0.7771204
0.7780171
0.7698273
0.7698939
0.7699596
0.7700194
0.770063
0.7749844
0.7752716
0.7756468
0.7761441
0.7768221
0.7776256
0.7698276
0.7698952
0.7699633
0.7700284
0.7700809
0.7742241
0.774463
0.7747765
0.775177
0.7756914
0.776275
0.7769069
0.7698281
0.769897
0.7699682
0.7700408
0.7701094
0.7732738
0.7735104
0.7738213
0.7741952
0.7746364
0.7750638
0.7754921
0.7760238
0.7698286
0.769899
0.7699735
0.7700545
0.7701521
0.7702961
0.7703921
0.7704892
0.7705899
0.7706956
0.770808
0.7709288
0.771061
0.7712103
0.7713887
0.7718392
0.7723647
0.7728265
0.7732643
0.7737052
0.7740521
0.7743367
0.7746969
0.7751274
0.769829
0.7699006
0.7699777
0.7700646
0.7701721
0.770293
0.7703816
0.7704738
0.7705702
0.7706716