/*--------------------------------*- C++ -*----------------------------------*\
| =========                 |                                                 |
| \\      /  F ield         | OpenFOAM: The Open Source CFD Toolbox           |
|  \\    /   O peration     | Version:  2306                                  |
|   \\  /    A nd           | Website:  www.openfoam.com                      |
|    \\/     M anipulation  |                                                 |
\*---------------------------------------------------------------------------*/
FoamFile
{
    version     2.0;
    format      ascii;
    arch        "LSB;label=32;scalar=64";
    class       volScalarField;
    location    "0.9/interconnect";
    object      T;
}
// * * * * * * * * * * * * * * * * * * * * * * * * * * * * * * * * * * * * * //

dimensions      [0 0 0 1 0 0 0];

internalField   nonuniform List<scalar> 
16000
(
1101.434
1101.432
1102.911
1101.382
1101.428
1102.91
1101.379
1104.915
1102.893
1101.279
1101.424
1102.909
1101.374
1104.915
1102.892
1101.275
1107.032
1104.914
1102.859
1101.129
1101.418
1102.906
1101.368
1104.913
1102.89
1101.267
1107.031
1104.913
1102.857
1101.122
1109.1
1107.037
1104.911
1102.811
1100.942
1101.412
1102.904
1101.36
1104.912
1102.887
1101.256
1107.03
1104.911
1102.854
1101.108
1109.099
1107.036
1104.91
1102.809
1100.928
1111.062
1109.107
1107.047
1104.912
1102.757
1100.787
1101.406
1102.901
1101.352
1104.909
1102.884
1101.244
1107.028
1104.909
1102.85
1101.09
1109.098
1107.034
1104.907
1102.805
1100.902
1111.061
1109.106
1107.046
1104.909
1102.753
1100.764
1112.902
1111.069
1109.122
1107.066
1104.918
1102.718
1100.687
1101.401
1102.899
1101.343
1104.907
1102.88
1101.23
1107.026
1104.906
1102.845
1101.068
1109.096
1107.031
1104.903
1102.798
1100.867
1111.06
1109.104
1107.043
1104.905
1102.746
1100.719
1112.901
1111.068
1109.12
1107.063
1104.915
1102.711
1100.658
1114.62
1112.909
1111.085
1109.146
1107.096
1104.931
1102.695
1100.597
1101.398
1102.896
1101.336
1104.905
1102.877
1101.215
1107.024
1104.902
1102.839
1101.044
1109.094
1107.028
1104.899
1102.791
1100.83
1111.059
1109.102
1107.039
1104.899
1102.736
1100.652
1112.9
1111.067
1109.118
1107.059
1104.909
1102.699
1100.598
1114.619
1112.908
1111.083
1109.144
1107.093
1104.928
1102.687
1100.562
1116.224
1114.626
1112.923
1111.11
1109.183
1107.129
1104.944
1102.678
1100.522
1101.396
1102.895
1101.331
1104.903
1102.874
1101.202
1107.021
1104.899
1102.834
1101.017
1109.092
1107.025
1104.893
1102.782
1100.803
1111.057
1109.099
1107.034
1104.891
1102.726
1100.566
1112.899
1111.065
1109.114
1107.053
1104.9
1102.683
1100.506
1114.618
1112.906
1111.081
1109.14
1107.087
1104.921
1102.67
1100.489
1116.224
1114.626
1112.922
1111.108
1109.181
1107.126
1104.94
1102.668
1100.482
1117.724
1116.23
1114.64
1112.948
1111.148
1109.223
1107.155
1104.961
1102.669
1100.465
1101.396
1102.894
1101.328
1104.902
1102.871
1101.193
1107.02
1104.896
1102.828
1100.991
1109.09
1107.022
1104.888
1102.771
1100.743
1111.055
1109.096
1107.029
1104.881
1102.717
1112.897
1111.062
1109.109
1107.044
1104.887
1102.664
1100.377
1114.617
1112.904
1111.078
1109.134
1107.078
1104.911
1102.647
1100.376
1116.223
1114.624
1112.92
1111.104
1109.176
1107.121
1104.932
1102.647
1100.4
1117.724
1116.23
1114.639
1112.946
1111.146
1109.221
1107.152
1104.956
1102.657
1100.422
1119.128
1117.729
1116.243
1114.663
1112.984
1111.187
1109.252
1107.184
1104.983
1102.671
1100.43
1101.398
1102.894
1101.328
1104.901
1102.87
1101.187
1107.018
1104.894
1102.824
1100.971
1109.088
1107.02
1104.883
1102.761
1100.685
1111.053
1109.093
1107.023
1104.871
1102.696
1112.895
1111.059
1109.104
1107.034
1104.868
1114.616
1112.902
1111.073
1109.125
1107.063
1104.901
1102.616
1100.215
1116.222
1114.623
1112.917
1111.099
1109.167
1107.114
1104.92
1102.616
1100.271
1117.723
1116.229
1114.637
1112.943
1111.141
1109.217
1107.147
1104.947
1102.633
1100.334
1119.128
1117.729
1116.242
1114.661
1112.982
1111.185
1109.25
1107.182
1104.978
1102.658
1100.385
1120.445
1119.133
1117.741
1116.263
1114.696
1113.02
1111.216
1109.284
1107.218
1105.012
1102.684
1100.417
1101.401
1102.895
1101.331
1104.901
1102.87
1101.187
1107.017
1104.893
1102.822
1100.96
1109.087
1107.018
1104.88
1102.752
1100.642
1111.051
1109.091
1107.019
1104.862
1102.672
1112.893
1111.057
1109.099
1107.024
1104.848
1114.614
1112.9
1111.068
1109.115
1107.04
1116.22
1114.621
1112.913
1111.091
1109.153
1107.107
1104.906
1102.573
1100.089
1117.722
1116.227
1114.634
1112.937
1111.133
1109.211
1107.141
1104.933
1102.596
1100.196
1119.127
1117.728
1116.24
1114.658
1112.977
1111.182
1109.247
1107.177
1104.967
1102.631
1100.294
1120.444
1119.133
1117.74
1116.262
1114.694
1113.019
1111.215
1109.283
1107.215
1105.006
1102.671
1100.372
1121.681
1120.449
1119.144
1117.76
1116.294
1114.729
1113.047
1111.248
1109.32
1107.255
1105.046
1102.709
1100.425
1101.406
1102.896
1101.336
1104.902
1102.871
1101.193
1107.017
1104.893
1102.822
1100.96
1109.086
1107.017
1104.878
1102.747
1100.619
1111.05
1109.089
1107.015
1104.855
1102.652
1112.892
1111.054
1109.095
1107.015
1104.83
1114.612
1112.897
1111.064
1109.106
1107.021
1116.219
1114.618
1112.909
1111.082
1109.129
1117.72
1116.225
1114.631
1112.93
1111.12
1109.205
1107.132
1104.913
1102.543
1100.003
1119.126
1117.726
1116.238
1114.653
1112.97
1111.177
1109.242
1107.169
1104.951
1102.59
1100.154
1120.444
1119.132
1117.738
1116.259
1114.69
1113.016
1111.212
1109.28
1107.21
1104.995
1102.644
1100.281
1121.681
1120.449
1119.143
1117.758
1116.292
1114.728
1113.046
1111.247
1109.318
1107.252
1105.041
1102.696
1100.381
1122.844
1121.685
1120.459
1119.161
1117.787
1116.324
1114.754
1113.077
1111.282
1109.358
1107.296
1105.087
1102.745
1100.454
1101.412
1102.899
1101.343
1104.903
1102.874
1101.202
1107.018
1104.894
1102.824
1100.971
1109.086
1107.017
1104.878
1102.747
1100.619
1111.049
1109.088
1107.014
1104.852
1102.641
1112.891
1111.053
1109.092
1107.009
1104.816
1114.611
1112.895
1111.06
1109.098
1107.005
1116.218
1114.616
1112.904
1111.073
1109.111
1117.719
1116.223
1114.627
1112.922
1111.098
1119.125
1117.725
1116.234
1114.647
1112.958
1111.172
1109.237
1107.159
1104.927
1102.532
1099.957
1120.443
1119.13
1117.736
1116.255
1114.683
1113.012
1111.209
1109.275
1107.201
1104.977
1102.602
1100.142
1121.68
1120.448
1119.141
1117.756
1116.288
1114.726
1113.044
1111.245
1109.316
1107.247
1105.03
1102.671
1100.293
1122.843
1121.685
1120.458
1119.16
1117.786
1116.323
1114.753
1113.076
1111.281
1109.357
1107.294
1105.083
1102.734
1100.411
1123.938
1122.848
1121.694
1120.475
1119.186
1117.815
1116.347
1114.781
1113.109
1111.318
1109.399
1107.341
1105.134
1102.792
1100.503
1101.418
1102.901
1101.352
1104.905
1102.877
1101.215
1107.02
1104.896
1102.828
1100.991
1109.087
1107.018
1104.88
1102.752
1100.642
1111.049
1109.088
1107.014
1104.852
1102.641
1112.89
1111.052
1109.09
1107.006
1104.809
1114.61
1112.894
1111.057
1109.093
1106.995
1116.216
1114.614
1112.901
1111.066
1109.098
1117.718
1116.221
1114.623
1112.914
1111.081
1119.124
1117.723
1116.231
1114.639
1112.938
1120.442
1119.129
1117.733
1116.249
1114.672
1113.007
1111.205
1109.269
1107.19
1104.951
1102.543
1099.95
1121.679
1120.447
1119.139
1117.752
1116.282
1114.722
1113.041
1111.241
1109.311
1107.239
1105.013
1102.632
1100.159
1122.843
1121.684
1120.457
1119.157
1117.783
1116.321
1114.752
1113.074
1111.279
1109.354
1107.289
1105.074
1102.712
1100.325
1123.938
1122.847
1121.694
1120.474
1119.185
1117.814
1116.346
1114.781
1113.108
1111.318
1109.398
1107.339
1105.131
1102.782
1100.46
1124.968
1123.942
1122.856
1121.709
1120.498
1119.212
1117.836
1116.372
1114.81
1113.142
1111.357
1109.442
1107.388
1105.186
1102.848
1101.424
1102.904
1101.36
1104.907
1102.88
1101.23
1107.021
1104.899
1102.834
1101.017
1109.088
1107.02
1104.883
1102.761
1100.685
1111.05
1109.089
1107.015
1104.855
1102.652
1112.89
1111.052
1109.09
1107.006
1104.809
1114.61
1112.893
1111.056
1109.09
1106.989
1116.215
1114.613
1112.899
1111.061
1109.089
1117.717
1116.219
1114.62
1112.908
1111.069
1119.122
1117.721
1116.227
1114.632
1112.923
1120.441
1119.127
1117.73
1116.242
1114.654
1121.678
1120.445
1119.136
1117.747
1116.273
1114.718
1113.038
1111.238
1109.305
1107.226
1104.987
1102.578
1099.979
1122.842
1121.683
1120.455
1119.154
1117.777
1116.318
1114.749
1113.072
1111.276
1109.35
1107.282
1105.059
1102.679
1100.198
1123.937
1122.846
1121.692
1120.471
1119.182
1117.812
1116.345
1114.779
1113.107
1111.316
1109.396
1107.336
1105.124
1102.764
1100.374
1124.968
1123.941
1122.855
1121.708
1120.497
1119.211
1117.835
1116.371
1114.81
1113.142
1111.356
1109.442
1107.388
1105.184
1102.839
1125.939
1124.972
1123.949
1122.869
1121.73
1120.521
1119.231
1117.859
1116.398
1114.841
1113.177
1111.397
1109.487
1107.438
1105.24
1101.428
1102.906
1101.368
1104.909
1102.884
1101.244
1107.024
1104.902
1102.839
1101.044
1109.09
1107.022
1104.888
1102.771
1100.743
1111.051
1109.091
1107.019
1104.862
1102.672
1112.891
1111.053
1109.092
1107.009
1104.816
1114.61
1112.893
1111.056
1109.09
1106.989
1116.215
1114.612
1112.897
1111.059
1109.084
1117.716
1116.218
1114.618
1112.904
1111.061
1119.121
1117.719
1116.224
1114.627
1112.912
1120.439
1119.125
1117.727
1116.236
1114.641
1121.677
1120.444
1119.133
1117.74
1116.256
1122.841
1121.682
1120.452
1119.149
1117.768
1116.314
1114.746
1113.069
1111.273
1109.344
1107.27
1105.036
1102.633
1100.034
1123.936
1122.845
1121.69
1120.468
1119.177
1117.809
1116.342
1114.777
1113.105
1111.314
1109.393
1107.33
1105.113
1102.738
1100.248
1124.968
1123.94
1122.854
1121.706
1120.494
1119.209
1117.834
1116.37
1114.809
1113.141
1111.356
1109.441
1107.387
1105.18
1102.824
1125.939
1124.971
1123.949
1122.868
1121.729
1120.521
1119.23
1117.858
1116.398
1114.841
1113.177
1111.397
1109.488
1107.438
1105.24
1126.853
1125.942
1124.979
1123.962
1122.889
1121.752
1120.539
1119.251
1117.882
1116.426
1114.873
1113.214
1111.438
1109.533
1107.488
1101.432
1102.909
1101.374
1104.912
1102.887
1101.256
1107.026
1104.906
1102.845
1101.068
1109.092
1107.025
1104.893
1102.782
1100.803
1111.053
1109.093
1107.023
1104.871
1102.696
1112.892
1111.054
1109.095
1107.015
1104.83
1114.61
1112.894
1111.057
1109.093
1106.995
1116.215
1114.612
1112.897
1111.059
1109.084
1117.715
1116.217
1114.616
1112.901
1111.057
1119.121
1117.718
1116.222
1114.623
1112.905
1120.438
1119.124
1117.724
1116.231
1114.631
1121.676
1120.442
1119.131
1117.735
1116.244
1122.84
1121.68
1120.45
1119.143
1117.753
1123.935
1122.844
1121.688
1120.464
1119.168
1117.806
1116.34
1114.775
1113.102
1111.31
1109.387
1107.321
1105.097
1102.705
1100.095
1124.967
1123.939
1122.852
1121.703
1120.489
1119.206
1117.832
1116.368
1114.807
1113.14
1111.354
1109.44
1107.384
1105.175
1102.804
1125.938
1124.971
1123.948
1122.867
1121.727
1120.519
1119.228
1117.857
1116.397
1114.84
1113.177
1111.397
1109.489
1107.44
1105.239
1126.853
1125.942
1124.978
1123.961
1122.888
1121.751
1120.538
1119.251
1117.882
1116.426
1114.873
1113.214
1111.439
1109.535
1107.49
1127.715
1126.857
1125.949
1124.991
1123.98
1122.91
1121.768
1120.558
1119.273
1117.908
1116.455
1114.906
1113.251
1111.479
1109.578
1101.434
1102.91
1101.379
1104.913
1102.89
1101.267
1107.028
1104.909
1102.85
1101.09
1109.094
1107.028
1104.899
1102.791
1100.83
1111.055
1109.096
1107.029
1104.881
1102.717
1112.893
1111.057
1109.099
1107.024
1104.848
1114.611
1112.895
1111.06
1109.098
1107.005
1116.215
1114.613
1112.899
1111.061
1109.089
1117.715
1116.217
1114.616
1112.901
1111.057
1119.12
1117.718
1116.221
1114.621
1112.902
1120.438
1119.123
1117.722
1116.227
1114.625
1121.675
1120.441
1119.128
1117.73
1116.235
1122.839
1121.679
1120.447
1119.138
1117.742
1123.935
1122.843
1121.686
1120.458
1119.154
1124.966
1123.938
1122.85
1121.699
1120.482
1119.203
1117.83
1116.366
1114.805
1113.137
1111.351
1109.436
1107.379
1105.168
1102.786
1125.938
1124.97
1123.946
1122.864
1121.722
1120.516
1119.227
1117.855
1116.396
1114.839
1113.176
1111.397
1109.49
1107.443
1105.24
1126.853
1125.941
1124.977
1123.959
1122.886
1121.75
1120.537
1119.25
1117.881
1116.425
1114.873
1113.215
1111.441
1109.538
1107.494
1127.714
1126.856
1125.949
1124.99
1123.979
1122.909
1121.768
1120.557
1119.273
1117.908
1116.455
1114.906
1113.252
1111.481
1109.581
1128.525
1127.718
1126.863
1125.96
1125.008
1123.999
1122.925
1121.786
1120.578
1119.296
1117.934
1116.485
1114.939
1113.288
1111.519
1102.911
1101.382
1104.915
1102.892
1101.275
1107.03
1104.911
1102.854
1101.108
1109.096
1107.031
1104.903
1102.798
1100.867
1111.057
1109.099
1107.034
1104.891
1102.726
1100.566
1112.895
1111.059
1109.104
1107.034
1104.868
1114.612
1112.897
1111.064
1109.106
1107.021
1116.216
1114.614
1112.901
1111.066
1109.098
1117.716
1116.218
1114.618
1112.904
1111.061
1119.12
1117.718
1116.221
1114.621
1112.902
1120.437
1119.122
1117.721
1116.225
1114.622
1121.675
1120.44
1119.127
1117.727
1116.229
1122.838
1121.677
1120.445
1119.133
1117.734
1123.934
1122.841
1121.683
1120.454
1119.144
1124.965
1123.937
1122.848
1121.694
1120.469
1125.937
1124.969
1123.944
1122.86
1121.715
1120.514
1119.225
1117.854
1116.394
1114.837
1113.175
1111.396
1109.49
1107.445
1105.247
1126.852
1125.94
1124.976
1123.957
1122.882
1121.747
1120.535
1119.248
1117.88
1116.424
1114.873
1113.216
1111.443
1109.543
1107.503
1127.714
1126.856
1125.948
1124.988
1123.977
1122.907
1121.766
1120.556
1119.272
1117.907
1116.455
1114.907
1113.254
1111.485
1109.587
1128.525
1127.717
1126.863
1125.959
1125.007
1123.999
1122.924
1121.785
1120.578
1119.296
1117.934
1116.485
1114.94
1113.29
1111.522
1129.287
1128.528
1127.724
1126.874
1125.977
1125.026
1124.013
1122.941
1121.804
1120.599
1119.32
1117.961
1116.515
1114.973
1113.324
1104.915
1102.893
1101.279
1107.031
1104.913
1102.857
1101.122
1109.098
1107.034
1104.907
1102.805
1100.902
1111.059
1109.102
1107.039
1104.899
1102.736
1100.652
1112.897
1111.062
1109.109
1107.044
1104.887
1102.664
1100.377
1114.614
1112.9
1111.068
1109.115
1107.04
1116.218
1114.616
1112.904
1111.073
1109.111
1117.717
1116.219
1114.62
1112.908
1111.069
1119.121
1117.718
1116.222
1114.623
1112.905
1120.437
1119.122
1117.721
1116.225
1114.622
1121.674
1120.439
1119.126
1117.725
1116.227
1122.838
1121.677
1120.443
1119.131
1117.729
1123.933
1122.84
1121.681
1120.45
1119.137
1124.964
1123.936
1122.846
1121.689
1120.459
1125.936
1124.967
1123.942
1122.855
1121.703
1126.851
1125.939
1124.974
1123.953
1122.875
1121.745
1120.533
1119.247
1117.879
1116.423
1114.871
1113.215
1111.445
1109.549
1107.517
1127.713
1126.855
1125.946
1124.986
1123.974
1122.905
1121.765
1120.555
1119.271
1117.907
1116.455
1114.908
1113.257
1111.491
1109.598
1128.525
1127.717
1126.862
1125.958
1125.005
1123.997
1122.923
1121.784
1120.577
1119.296
1117.934
1116.486
1114.943
1113.294
1111.529
1129.287
1128.528
1127.723
1126.873
1125.976
1125.025
1124.013
1122.94
1121.804
1120.599
1119.32
1117.962
1116.516
1114.975
1113.327
1130.003
1129.29
1128.534
1127.734
1126.889
1125.993
1125.039
1124.029
1122.958
1121.824
1120.621
1119.345
1117.989
1116.545
1115.005
1107.032
1104.914
1102.859
1101.129
1109.099
1107.036
1104.91
1102.809
1100.928
1111.06
1109.104
1107.043
1104.905
1102.746
1100.719
1112.899
1111.065
1109.114
1107.053
1104.9
1102.683
1100.506
1114.616
1112.902
1111.073
1109.125
1107.063
1104.901
1102.616
1100.215
1116.219
1114.618
1112.909
1111.082
1109.129
1117.718
1116.221
1114.623
1112.914
1111.081
1119.121
1117.719
1116.224
1114.627
1112.912
1120.438
1119.123
1117.722
1116.227
1114.625
1121.674
1120.439
1119.126
1117.725
1116.227
1122.838
1121.676
1120.442
1119.129
1117.726
1123.932
1122.839
1121.68
1120.447
1119.132
1124.964
1123.935
1122.844
1121.686
1120.453
1125.935
1124.966
1123.94
1122.851
1121.695
1126.851
1125.938
1124.972
1123.949
1122.864
1127.713
1126.854
1125.944
1124.983
1123.967
1122.903
1121.763
1120.554
1119.27
1117.905
1116.454
1114.908
1113.259
1111.498
1109.614
1128.524
1127.716
1126.86
1125.956
1125.002
1123.995
1122.921
1121.783
1120.576
1119.295
1117.934
1116.487
1114.945
1113.3
1111.54
1129.287
1128.527
1127.722
1126.871
1125.974
1125.024
1124.012
1122.94
1121.803
1120.599
1119.32
1117.963
1116.518
1114.979
1113.333
1130.003
1129.29
1128.533
1127.733
1126.888
1125.993
1125.039
1124.028
1122.958
1121.824
1120.621
1119.346
1117.99
1116.547
1115.008
1130.674
1130.006
1129.296
1128.544
1127.749
1126.905
1126.006
1125.053
1124.045
1122.976
1121.844
1120.644
1119.37
1118.016
1116.575
1109.1
1107.037
1104.911
1102.811
1100.942
1111.061
1109.106
1107.046
1104.909
1102.753
1100.764
1112.9
1111.067
1109.118
1107.059
1104.909
1102.699
1100.598
1114.617
1112.904
1111.078
1109.134
1107.078
1104.911
1102.647
1100.376
1116.22
1114.621
1112.913
1111.091
1109.153
1107.107
1104.906
1102.573
1100.089
1117.719
1116.223
1114.627
1112.922
1111.098
1119.122
1117.721
1116.227
1114.632
1112.923
1120.438
1119.124
1117.724
1116.231
1114.631
1121.675
1120.44
1119.127
1117.727
1116.229
1122.838
1121.676
1120.442
1119.129
1117.726
1123.932
1122.839
1121.679
1120.446
1119.13
1124.963
1123.934
1122.842
1121.683
1120.449
1125.935
1124.965
1123.938
1122.848
1121.689
1126.85
1125.937
1124.97
1123.945
1122.856
1127.712
1126.853
1125.942
1124.979
1123.957
1128.523
1127.715
1126.859
1125.952
1124.996
1123.993
1122.92
1121.782
1120.575
1119.294
1117.934
1116.487
1114.948
1113.307
1111.556
1129.286
1128.526
1127.721
1126.869
1125.971
1125.022
1124.01
1122.938
1121.802
1120.598
1119.32
1117.964
1116.521
1114.984
1113.344
1130.003
1129.289
1128.533
1127.732
1126.886
1125.992
1125.038
1124.027
1122.957
1121.823
1120.622
1119.346
1117.992
1116.551
1115.014
1130.674
1130.006
1129.295
1128.543
1127.748
1126.904
1126.005
1125.053
1124.044
1122.976
1121.844
1120.645
1119.371
1118.018
1116.577
1131.302
1130.677
1130.011
1129.305
1128.558
1127.764
1126.917
1126.019
1125.069
1124.062
1122.995
1121.865
1120.667
1119.395
1118.043
1111.062
1109.107
1107.047
1104.912
1102.757
1100.787
1112.901
1111.068
1109.12
1107.063
1104.915
1102.711
1100.658
1114.618
1112.906
1111.081
1109.14
1107.087
1104.921
1102.67
1100.489
1116.222
1114.623
1112.917
1111.099
1109.167
1107.114
1104.92
1102.616
1100.271
1117.72
1116.225
1114.631
1112.93
1111.12
1109.205
1107.132
1104.913
1102.543
1100.003
1119.124
1117.723
1116.231
1114.639
1112.938
1120.439
1119.125
1117.727
1116.236
1114.641
1121.675
1120.441
1119.128
1117.73
1116.235
1122.838
1121.677
1120.443
1119.131
1117.729
1123.932
1122.839
1121.679
1120.446
1119.13
1124.963
1123.934
1122.842
1121.682
1120.446
1125.934
1124.965
1123.937
1122.846
1121.685
1126.849
1125.936
1124.968
1123.942
1122.851
1127.711
1126.852
1125.941
1124.975
1123.95
1128.523
1127.714
1126.857
1125.949
1124.986
1129.286
1128.526
1127.72
1126.866
1125.965
1125.02
1124.009
1122.937
1121.801
1120.597
1119.32
1117.964
1116.523
1114.991
1113.359
1130.002
1129.289
1128.531
1127.73
1126.883
1125.99
1125.036
1124.026
1122.956
1121.823
1120.621
1119.347
1117.994
1116.556
1115.024
1130.674
1130.005
1129.295
1128.542
1127.746
1126.903
1126.004
1125.052
1124.044
1122.976
1121.845
1120.645
1119.373
1118.021
1116.583
1131.302
1130.677
1130.011
1129.304
1128.557
1127.763
1126.916
1126.019
1125.068
1124.062
1122.995
1121.866
1120.668
1119.397
1118.045
1131.888
1131.305
1130.682
1130.02
1129.319
1128.572
1127.775
1126.929
1126.034
1125.085
1124.08
1123.015
1121.887
1120.69
1119.42
1112.902
1111.069
1109.122
1107.066
1104.918
1102.718
1100.687
1114.619
1112.908
1111.083
1109.144
1107.093
1104.928
1102.687
1100.562
1116.223
1114.624
1112.92
1111.104
1109.176
1107.121
1104.932
1102.647
1100.4
1117.722
1116.227
1114.634
1112.937
1111.133
1109.211
1107.141
1104.933
1102.596
1100.196
1119.125
1117.725
1116.234
1114.647
1112.958
1111.172
1109.237
1107.159
1104.927
1102.532
1099.957
1120.441
1119.127
1117.73
1116.242
1114.654
1121.676
1120.442
1119.131
1117.735
1116.244
1122.838
1121.677
1120.445
1119.133
1117.734
1123.932
1122.839
1121.68
1120.447
1119.132
1124.963
1123.934
1122.842
1121.682
1120.446
1125.934
1124.964
1123.936
1122.844
1121.683
1126.849
1125.936
1124.967
1123.94
1122.847
1127.711
1126.851
1125.939
1124.972
1123.944
1128.522
1127.713
1126.855
1125.945
1124.979
1129.285
1128.525
1127.718
1126.863
1125.956
1130.002
1129.288
1128.53
1127.727
1126.878
1125.988
1125.035
1124.025
1122.955
1121.822
1120.621
1119.348
1117.997
1116.562
1115.037
1130.673
1130.004
1129.293
1128.54
1127.743
1126.902
1126.003
1125.051
1124.043
1122.975
1121.844
1120.646
1119.375
1118.026
1116.592
1131.302
1130.676
1130.01
1129.303
1128.555
1127.762
1126.915
1126.018
1125.068
1124.061
1122.996
1121.867
1120.67
1119.4
1118.05
1131.888
1131.304
1130.682
1130.02
1129.318
1128.572
1127.774
1126.929
1126.033
1125.084
1124.08
1123.015
1121.888
1120.692
1119.422
1132.434
1131.891
1131.31
1130.691
1130.033
1129.332
1128.583
1127.787
1126.943
1126.049
1125.101
1124.098
1123.035
1121.908
1120.713
1114.62
1112.909
1111.085
1109.146
1107.096
1104.931
1102.695
1100.597
1116.224
1114.626
1112.922
1111.108
1109.181
1107.126
1104.94
1102.668
1100.482
1117.723
1116.229
1114.637
1112.943
1111.141
1109.217
1107.147
1104.947
1102.633
1100.334
1119.126
1117.726
1116.238
1114.653
1112.97
1111.177
1109.242
1107.169
1104.951
1102.59
1100.154
1120.442
1119.129
1117.733
1116.249
1114.672
1113.007
1111.205
1109.269
1107.19
1104.951
1102.543
1099.95
1121.677
1120.444
1119.133
1117.74
1116.256
1122.839
1121.679
1120.447
1119.138
1117.742
1123.933
1122.84
1121.681
1120.45
1119.137
1124.963
1123.934
1122.842
1121.683
1120.449
1125.934
1124.964
1123.936
1122.844
1121.683
1126.849
1125.935
1124.967
1123.938
1122.845
1127.71
1126.85
1125.938
1124.97
1123.941
1128.521
1127.712
1126.853
1125.942
1124.974
1129.284
1128.524
1127.716
1126.859
1125.949
1130.001
1129.287
1128.528
1127.723
1126.87
1130.673
1130.003
1129.292
1128.537
1127.738
1126.9
1126.002
1125.05
1124.042
1122.974
1121.844
1120.646
1119.377
1118.032
1116.604
1131.301
1130.675
1130.009
1129.301
1128.552
1127.76
1126.914
1126.017
1125.067
1124.061
1122.995
1121.867
1120.672
1119.405
1118.059
1131.888
1131.304
1130.681
1130.018
1129.316
1128.57
1127.774
1126.929
1126.033
1125.084
1124.08
1123.016
1121.889
1120.695
1119.427
1132.434
1131.891
1131.309
1130.69
1130.032
1129.332
1128.582
1127.787
1126.943
1126.049
1125.101
1124.098
1123.036
1121.91
1120.715
1132.94
1132.436
1131.896
1131.318
1130.703
1130.046
1129.343
1128.594
1127.8
1126.957
1126.064
1125.119
1124.116
1123.055
1121.929
1116.224
1114.626
1112.923
1111.11
1109.183
1107.129
1104.944
1102.678
1100.522
1117.724
1116.23
1114.639
1112.946
1111.146
1109.221
1107.152
1104.956
1102.657
1100.422
1119.127
1117.728
1116.24
1114.658
1112.977
1111.182
1109.247
1107.177
1104.967
1102.631
1100.294
1120.443
1119.13
1117.736
1116.255
1114.683
1113.012
1111.209
1109.275
1107.201
1104.977
1102.602
1100.142
1121.678
1120.445
1119.136
1117.747
1116.273
1114.718
1113.038
1111.238
1109.305
1107.226
1104.987
1102.578
1099.979
1122.84
1121.68
1120.45
1119.143
1117.753
1123.934
1122.841
1121.683
1120.454
1119.144
1124.964
1123.935
1122.844
1121.686
1120.453
1125.934
1124.965
1123.937
1122.846
1121.685
1126.849
1125.935
1124.967
1123.938
1122.845
1127.71
1126.85
1125.937
1124.969
1123.939
1128.521
1127.712
1126.852
1125.94
1124.971
1129.284
1128.523
1127.715
1126.857
1125.945
1130
1129.286
1128.527
1127.72
1126.863
1130.672
1130.003
1129.29
1128.534
1127.73
1131.301
1130.675
1130.008
1129.299
1128.548
1127.759
1126.913
1126.016
1125.066
1124.06
1122.995
1121.868
1120.674
1119.41
1118.071
1131.887
1131.303
1130.68
1130.016
1129.314
1128.569
1127.773
1126.928
1126.032
1125.084
1124.08
1123.017
1121.891
1120.699
1119.434
1132.433
1131.89
1131.309
1130.689
1130.031
1129.331
1128.582
1127.786
1126.942
1126.048
1125.101
1124.099
1123.037
1121.912
1120.719
1132.939
1132.436
1131.895
1131.318
1130.703
1130.046
1129.342
1128.594
1127.8
1126.957
1126.065
1125.119
1124.117
1123.056
1121.931
1133.406
1132.942
1132.441
1131.904
1131.33
1130.716
1130.056
1129.354
1128.607
1127.814
1126.972
1126.081
1125.136
1124.135
1123.074
1117.724
1116.23
1114.64
1112.948
1111.148
1109.223
1107.155
1104.961
1102.669
1100.465
1119.128
1117.729
1116.242
1114.661
1112.982
1111.185
1109.25
1107.182
1104.978
1102.658
1100.385
1120.444
1119.132
1117.738
1116.259
1114.69
1113.016
1111.212
1109.28
1107.21
1104.995
1102.644
1100.281
1121.679
1120.447
1119.139
1117.752
1116.282
1114.722
1113.041
1111.241
1109.311
1107.239
1105.013
1102.632
1100.159
1122.841
1121.682
1120.452
1119.149
1117.768
1116.314
1114.746
1113.069
1111.273
1109.344
1107.27
1105.036
1102.633
1100.034
1123.935
1122.843
1121.686
1120.458
1119.154
1124.964
1123.936
1122.846
1121.689
1120.459
1125.935
1124.965
1123.938
1122.848
1121.689
1126.849
1125.936
1124.967
1123.94
1122.847
1127.71
1126.85
1125.937
1124.969
1123.939
1128.521
1127.711
1126.852
1125.94
1124.969
1129.283
1128.522
1127.714
1126.855
1125.942
1130
1129.285
1128.525
1127.718
1126.859
1130.671
1130.002
1129.289
1128.531
1127.724
1131.3
1130.674
1130.006
1129.295
1128.54
1131.887
1131.303
1130.679
1130.014
1129.309
1128.567
1127.771
1126.927
1126.031
1125.083
1124.079
1123.017
1121.893
1120.704
1119.445
1132.433
1131.889
1131.308
1130.687
1130.028
1129.329
1128.581
1127.785
1126.942
1126.048
1125.101
1124.1
1123.039
1121.916
1120.726
1132.939
1132.435
1131.895
1131.316
1130.701
1130.045
1129.341
1128.593
1127.799
1126.957
1126.065
1125.119
1124.119
1123.059
1121.935
1133.406
1132.942
1132.441
1131.903
1131.33
1130.716
1130.056
1129.353
1128.606
1127.813
1126.972
1126.081
1125.137
1124.136
1123.076
1133.835
1133.409
1132.947
1132.449
1131.916
1131.343
1130.726
1130.067
1129.365
1128.62
1127.828
1126.988
1126.097
1125.153
1124.153
1119.128
1117.729
1116.243
1114.663
1112.984
1111.187
1109.252
1107.184
1104.983
1102.671
1100.43
1120.444
1119.133
1117.74
1116.262
1114.694
1113.019
1111.215
1109.283
1107.215
1105.006
1102.671
1100.372
1121.68
1120.448
1119.141
1117.756
1116.288
1114.726
1113.044
1111.245
1109.316
1107.247
1105.03
1102.671
1100.293
1122.842
1121.683
1120.455
1119.154
1117.777
1116.318
1114.749
1113.072
1111.276
1109.35
1107.282
1105.059
1102.679
1100.198
1123.935
1122.844
1121.688
1120.464
1119.168
1117.806
1116.34
1114.775
1113.102
1111.31
1109.387
1107.321
1105.097
1102.705
1100.095
1124.965
1123.937
1122.848
1121.694
1120.469
1125.935
1124.966
1123.94
1122.851
1121.695
1126.849
1125.936
1124.968
1123.942
1122.851
1127.71
1126.85
1125.938
1124.97
1123.941
1128.521
1127.711
1126.852
1125.94
1124.969
1129.283
1128.522
1127.713
1126.854
1125.94
1129.999
1129.285
1128.524
1127.716
1126.856
1130.671
1130.001
1129.287
1128.528
1127.72
1131.3
1130.673
1130.005
1129.293
1128.534
1131.886
1131.302
1130.677
1130.011
1129.302
1132.432
1131.889
1131.306
1130.685
1130.024
1129.328
1128.579
1127.784
1126.941
1126.047
1125.101
1124.1
1123.041
1121.921
1120.736
1132.939
1132.435
1131.894
1131.315
1130.699
1130.044
1129.34
1128.593
1127.799
1126.957
1126.065
1125.12
1124.12
1123.062
1121.942
1133.406
1132.941
1132.44
1131.902
1131.328
1130.715
1130.055
1129.353
1128.606
1127.813
1126.972
1126.082
1125.138
1124.139
1123.08
1133.835
1133.408
1132.946
1132.448
1131.915
1131.342
1130.725
1130.067
1129.365
1128.62
1127.828
1126.988
1126.098
1125.155
1124.155
1134.227
1133.838
1133.413
1132.954
1132.46
1131.928
1131.352
1130.736
1130.078
1129.378
1128.633
1127.842
1127.003
1126.114
1125.17
1120.445
1119.133
1117.741
1116.263
1114.696
1113.02
1111.216
1109.284
1107.218
1105.012
1102.684
1100.417
1121.681
1120.449
1119.143
1117.758
1116.292
1114.728
1113.046
1111.247
1109.318
1107.252
1105.041
1102.696
1100.381
1122.843
1121.684
1120.457
1119.157
1117.783
1116.321
1114.752
1113.074
1111.279
1109.354
1107.289
1105.074
1102.712
1100.325
1123.936
1122.845
1121.69
1120.468
1119.177
1117.809
1116.342
1114.777
1113.105
1111.314
1109.393
1107.33
1105.113
1102.738
1100.248
1124.966
1123.938
1122.85
1121.699
1120.482
1119.203
1117.83
1116.366
1114.805
1113.137
1111.351
1109.436
1107.379
1105.168
1102.786
1125.936
1124.967
1123.942
1122.855
1121.703
1126.85
1125.937
1124.97
1123.945
1122.856
1127.711
1126.851
1125.939
1124.972
1123.944
1128.521
1127.712
1126.852
1125.94
1124.971
1129.283
1128.522
1127.713
1126.854
1125.94
1129.999
1129.284
1128.524
1127.715
1126.855
1130.671
1130
1129.287
1128.527
1127.717
1131.299
1130.672
1130.003
1129.29
1128.53
1131.886
1131.301
1130.676
1130.008
1129.296
1132.432
1131.888
1131.305
1130.682
1130.017
1132.938
1132.434
1131.892
1131.312
1130.695
1130.042
1129.339
1128.592
1127.798
1126.956
1126.064
1125.12
1124.122
1123.066
1121.951
1133.406
1132.941
1132.439
1131.9
1131.326
1130.713
1130.054
1129.352
1128.606
1127.813
1126.972
1126.082
1125.14
1124.142
1123.086
1133.835
1133.408
1132.946
1132.447
1131.914
1131.341
1130.725
1130.066
1129.365
1128.619
1127.828
1126.989
1126.099
1125.157
1124.158
1134.227
1133.837
1133.413
1132.954
1132.46
1131.927
1131.352
1130.736
1130.078
1129.378
1128.633
1127.843
1127.004
1126.115
1125.172
1134.582
1134.229
1133.842
1133.421
1132.965
1132.472
1131.937
1131.362
1130.747
1130.09
1129.391
1128.647
1127.857
1127.019
1126.129
1121.681
1120.449
1119.144
1117.76
1116.294
1114.729
1113.047
1111.248
1109.32
1107.255
1105.046
1102.709
1100.425
1122.843
1121.685
1120.458
1119.16
1117.786
1116.323
1114.753
1113.076
1111.281
1109.357
1107.294
1105.083
1102.734
1100.411
1123.937
1122.846
1121.692
1120.471
1119.182
1117.812
1116.345
1114.779
1113.107
1111.316
1109.396
1107.336
1105.124
1102.764
1100.374
1124.967
1123.939
1122.852
1121.703
1120.489
1119.206
1117.832
1116.368
1114.807
1113.14
1111.354
1109.44
1107.384
1105.175
1102.804
1125.937
1124.969
1123.944
1122.86
1121.715
1120.514
1119.225
1117.854
1116.394
1114.837
1113.175
1111.396
1109.49
1107.445
1105.247
1126.851
1125.938
1124.972
1123.949
1122.864
1127.711
1126.852
1125.941
1124.975
1123.95
1128.521
1127.712
1126.853
1125.942
1124.974
1129.283
1128.522
1127.714
1126.855
1125.942
1129.999
1129.284
1128.524
1127.715
1126.855
1130.67
1130
1129.286
1128.526
1127.716
1131.299
1130.672
1130.002
1129.289
1128.528
1131.885
1131.3
1130.674
1130.006
1129.292
1132.431
1131.887
1131.304
1130.679