/*--------------------------------*- C++ -*----------------------------------*\
| =========                 |                                                 |
| \\      /  F ield         | OpenFOAM: The Open Source CFD Toolbox           |
|  \\    /   O peration     | Version:  2306                                  |
|   \\  /    A nd           | Website:  www.openfoam.com                      |
|    \\/     M anipulation  |                                                 |
\*---------------------------------------------------------------------------*/
FoamFile
{
    version     2.0;
    format      ascii;
    arch        "LSB;label=32;scalar=64";
    class       volVectorField;
    location    "0.3/phiI";
    object      i;
}
// * * * * * * * * * * * * * * * * * * * * * * * * * * * * * * * * * * * * * //

dimensions      [0 -2 0 0 0 1 0];

internalField   nonuniform List<vector> 
12000
(
(20.3482 -3.938749 1397.995)
(20.80329 -13.54143 1409.743)
(39.37207 0.6120896 1297.07)
(20.7519 -4.408676 4311.223)
(21.73501 -24.703 1433.446)
(40.03364 0.3265874 1304.87)
(21.22278 -14.9595 4346.81)
(34.23814 2.67694 1212.516)
(40.11399 0.3000892 3992.141)
(21.62453 -5.36226 7376.768)
(23.10518 -35.01585 1468.704)
(41.39299 -1.684116 1320.192)
(22.18802 -27.06145 4418.553)
(34.54556 6.6677 1218.608)
(40.79818 -0.5983059 4015.689)
(22.12777 -17.83465 7437.116)
(27.45595 3.686347 1144.755)
(34.8474 2.433264 3722.811)
(41.72572 -0.3298406 6819.445)
(22.98119 -6.822609 10534)
(24.77248 -40.12805 1513.554)
(43.38268 -4.64113 1341.808)
(23.61276 -38.22014 4525.161)
(35.18776 8.787388 1230.423)
(42.20508 -3.161643 4061.947)
(23.16143 -31.83704 7558.703)
(27.61445 9.82285 1149.841)
(35.16568 5.95144 3741.146)
(42.4563 -2.465627 6859.285)
(23.53411 -22.2369 10620.61)
(22.19728 4.261976 1088.499)
(27.95202 3.482902 3506.68)
(36.17998 1.943568 6346.739)
(44.23411 -1.293491 9728.417)
(24.84684 -8.826968 13827.85)
(26.33884 -32.91378 1561)
(45.79057 -7.791444 1366.999)
(25.3587 -43.81987 4660.481)
(36.11727 8.959933 1246.667)
(44.27083 -6.513404 4127.25)
(24.69682 -44.69297 7739.265)
(27.95501 14.03294 1159.625)
(35.83003 7.665046 3776.716)
(43.96034 -6.146547 6937.553)
(24.67262 -39.1474 10795.11)
(22.28791 11.65827 1092.904)
(28.11727 9.228046 3521.953)
(36.52051 4.511526 6377.685)
(45.03591 -5.322617 9785.573)
(25.46793 -28.2793 13943)
(18.20309 4.592648 1040.101)
(22.6159 4.085755 3327.329)
(29.03788 3.075406 5967.137)
(38.25663 1.19541 9044.566)
(47.68344 -2.616072 12758.74)
(27.25765 -11.42869 15735.52)
(27.28424 -16.77314 1597.319)
(48.03874 -7.796191 1390.336)
(27.02149 -36.26439 4803.041)
(37.22696 6.432516 1264.733)
(46.78585 -9.732558 4203.424)
(26.6007 -51.24325 7968.097)
(28.44671 15.75082 1172.862)
(36.79305 7.587536 3825.688)
(46.18058 -10.30024 7048.15)
(26.37722 -54.59591 11054.27)
(22.48945 17.10995 1101.331)
(28.47138 13.11208 3551.35)
(37.23015 5.405697 6437.751)
(46.68889 -10.71625 9897.895)
(26.7503 -49.18316 14175.03)
(18.2561 12.74452 1044.005)
(22.71126 11.145 3340.535)
(29.2169 8.036033 5992.873)
(38.63133 2.310947 9088.929)
(48.58304 -9.244734 12834.74)
(27.96718 -36.12403 15866.21)
(15.14818 4.79211 997.6279)
(18.56657 4.436521 3173.27)
(23.53092 3.733716 5652.285)
(30.72983 2.453475 8495.532)
(41.11152 0.1690418 11851.9)
(52.13789 -4.333397 14498.42)
(29.79523 -14.05478 16180.04)
(27.63775 -3.534658 1620.668)
(49.36908 -3.783977 1405.581)
(28.05119 -19.15987 4911.473)
(38.24732 2.871332 1280.1)
(49.16234 -9.339481 4274.037)
(28.45485 -42.95348 8208.383)
(29.03203 13.50912 1187.143)
(37.94638 5.095199 3880.281)
(48.91136 -13.66293 7177.328)
(28.52177 -62.58458 11382.61)
(22.78004 19.7302 1112.609)
(28.98294 14.6501 3591.187)
(38.26152 4.817308 6520.578)
(49.14558 -16.10442 10056.77)
(28.6868 -68.19284 14519.78)
(18.37982 18.95417 1051.438)
(22.9222 16.32179 3365.811)
(29.59863 11.2636 6042.438)
(39.41049 1.949311 9175.08)
(50.44046 -16.99442 12984.15)
(29.43613 -62.21843 16129.29)
(15.17964 13.42561 1001.144)
(18.62314 12.29107 3184.954)
(23.63591 10.11897 5674.506)
(30.92998 6.216018 8532.4)
(41.5332 -0.7090603 11910.88)
(53.16442 -14.33923 14584.53)
(30.59468 -44.03019 16312.04)
(12.74725 4.907211 959.7407)
(15.46962 4.651456 3038.268)
(19.35933 4.125268 5382.151)
(24.95584 3.196906 8040.364)
(33.05469 1.600682 11124.38)
(44.79406 -1.163441 13445.91)
(56.84186 -6.060305 14879.18)
(32.46111 -16.70861 16629.21)
(27.68228 1.829387 1633.991)
(49.82604 0.4457347 1413.838)
(28.46507 -5.001539 4980.5)
(38.82367 1.099854 1288.686)
(50.60361 -4.724055 4320.078)
(29.64982 -23.87149 8390.203)
(29.57012 8.170956 1198.569)
(39.01439 1.913186 3926.9)
(51.5433 -12.46233 7297.259)
(30.66599 -53.14861 11727.01)
(23.1256 17.6666 1124.521)
(29.59288 12.48086 3634.288)
(39.5035 2.384042 6613.172)
(52.20555 -19.69691 10242.64)
(31.16059 -78.15284 14956.75)
(18.55801 22.11227 1061.309)
(23.22625 18.80259 3399.694)
(30.15069 12.43329 6109.728)
(40.54674 0.5706985 9294.054)
(53.22142 -24.0899 13195.75)
(31.67333 -85.86485 16520.18)
(15.25818 20.12907 1007.818)
(18.75387 18.26199 3207.222)
(23.86596 14.7436 5717.067)
(31.35411 8.437868 8603.451)
(42.40793 -2.799313 12025.47)
(55.28714 -25.15688 14753.68)
(32.25274 -75.34185 16577.15)
(12.76472 13.84454 962.9462)
(15.50387 13.01802 3048.784)
(19.42311 11.38643 5401.789)
(25.07559 8.553708 8072.177)
(33.2839 3.719296 11173.37)
(45.27679 -4.631544 13512.59)
(57.99751 -19.45502 14965.82)
(33.35206 -52.00811 16762.65)
(10.84209 4.966784 925.5728)
(13.03547 4.778988 2918.019)
(16.16918 4.3715 5145.699)
(20.59292 3.651011 7650.08)
(26.91273 2.46119 10521.6)
(36.05104 0.4939088 12601.19)
(48.70045 -2.498312 13765.03)
(61.79794 -7.79911 15264.08)
(35.25572 -19.39269 17079.95)
(27.64864 1.292175 1639.973)
(49.83546 1.938229 1417.865)
(28.54678 1.057192 5019.453)
(38.97748 1.129115 1292.19)
(51.13995 -0.04560736 4344.788)
(30.1806 -7.85385 8505.018)
(29.87807 3.517599 1204.111)
(39.62955 0.6162247 3953.07)
(53.20269 -6.613985 7375.408)
(32.11037 -31.0253 11987.07)
(23.44479 11.33167 1133.633)
(30.15599 7.492207 3668.974)
(40.66758 -0.04022149 6692.631)
(55.22535 -17.26266 10415.6)
(33.70049 -67.13179 15415.1)
(18.7697 20.15668 1071.577)
(23.58786 16.82564 3435.594)
(30.81078 10.39763 6182.792)
(41.92453 -1.78691 9427.42)
(56.73212 -28.01602 13443.78)
(34.57365 -98.39749 17015.62)
(15.37101 23.62895 1016.63)
(18.94193 21.3067 3236.838)
(24.19743 16.93888 5774.23)
(31.96833 9.035948 8700.079)
(43.68829 -5.276293 12183.98)
(58.48879 -34.48968 14993.45)
(34.79371 -103.6462 16970.88)
(12.81372 20.86787 969.0121)
(15.58789 19.50966 3068.755)
(19.56805 16.87882 5439.244)
(25.33497 12.33282 8133.153)
(33.76633 4.556463 11267.85)
(46.27571 -8.974666 13642.08)
(60.38929 -33.35149 15135.67)
(35.20201 -88.57195 17030.09)
(10.85004 14.09028 928.5231)
(13.0552 13.47368 2927.598)
(16.20906 12.20615 5163.355)
(20.66775 10.00735 7678.178)
(27.0528 6.407387 10563.86)
(36.31806 0.4773049 12656.49)
(49.24533 -8.555906 13831.88)
(63.08507 -24.59904 15351.37)
(36.23982 -60.06565 17214.96)
(9.291556 4.986712 894.4701)
(11.10317 4.848772 2809.718)
(13.66145 4.524072 4935.314)
(17.25697 3.945208 7308.646)
(22.2862 3.001341 10005.02)
(29.43329 1.506737 11901.54)
(39.23216 -0.611569 12869.53)
(52.83265 -3.837353 14088.01)
(67.00665 -9.55165 15650.63)
(38.17839 -22.10868 17529.19)
(27.64864 -1.292181 1639.973)
(49.75214 0.9557831 1419.481)
(28.5306 1.052889 5036.791)
(38.92321 1.090416 1293.217)
(51.19855 1.7125 4356.644)
(30.33351 -0.4222608 8569.222)
(29.96394 1.441077 1205.586)
(39.81049 0.9479068 3963.766)
(53.89297 -1.016925 7417.093)
(32.81678 -12.16231 12150.76)
(23.63253 5.038102 1137.531)
(30.48269 3.236914 3685.98)
(41.36006 -0.3747871 6737.524)
(57.21432 -9.517414 10528.45)
(35.48427 -40.82183 15760.95)
(18.96582 13.2403 1079.167)
(23.9224 10.81128 3463.235)
(31.42478 6.103269 6242.011)
(43.23538 -3.060919 9542.448)
(60.28154 -23.89506 13675.27)
(37.6253 -85.31638 17534.82)
(15.50479 21.74462 1025.692)
(19.16501 19.44235 3267.737)
(24.5918 15.12497 5835.03)
(32.70545 7.189529 8805.36)
(45.25261 -7.551698 12362.2)
(62.58378 -38.87781 15275.01)
(38.12304 -118.7384 17469.68)
(12.88426 24.57835 976.9867)
(15.7083 22.914 3095.163)
(19.77614 19.69167 5489.155)
(25.70854 14.08409 8215.207)
(34.46608 4.356919 11396.59)
(47.74339 -12.89847 13821.44)
(64.01637 -44.94328 15376.65)
(38.05023 -121.5662 17427.19)
(10.87868 21.32454 934.0917)
(13.10862 20.30625 2945.738)
(16.30412 18.27391 5196.918)
(20.83447 14.76736 7731.811)
(27.35252 9.02241 10644.91)
(36.87633 -0.4908974 12763.09)
(50.37027 -15.15319 13961.43)
(65.75001 -41.59018 15522.13)
(38.2846 -101.9232 17484.95)
(9.293435 14.21047 897.2059)
(11.113 13.74953 2818.529)
(13.68573 12.7358 4951.386)
(17.30548 10.96925 7333.896)
(22.37623 8.117166 10042.32)
(29.59979 3.621335 11949.18)
(39.53757 -2.756854 12924.81)
(53.44085 -12.48743 14155.1)
(68.42771 -29.77685 15738.64)
(39.25733 -68.2081 17665.81)
(8.00847 4.985576 865.9725)
(9.529957 4.87728 2711.255)
(11.66914 4.614354 4746.018)
(14.63419 4.136116 7005.007)
(18.74947 3.361521 9553.292)
(24.46616 2.158889 11302.42)
(32.10779 0.5558492 12127.86)
(42.59973 -1.71717 13141.48)
(57.19086 -5.182051 14412.83)
(72.46644 -11.31927 16036.29)
(41.22734 -24.85734 15841.5)
(27.68228 -1.829372 1633.991)
(49.75214 -0.9557781 1419.481)
(28.5306 -1.052895 5036.791)
(38.84748 0.4590333 1293.383)
(51.1385 0.8911325 4361.319)
(30.35052 0.5986518 8597.589)
(29.93906 0.6381906 1205.387)
(39.77312 1.042695 3966.875)
(54.04577 1.276963 7436.852)
(33.07626 -2.645651 12241.97)
(23.69107 1.739071 1138.006)
(30.58068 1.390042 3690.633)
(41.5941 0.5769446 6755.996)
(58.13604 -2.503373 10588.62)
(36.42917 -18.05012 15978.4)
(19.08327 5.980378 1082.071)
(24.12069 4.863166 3475.241)
(31.78939 2.651238 6271.441)
(44.04542 -1.918383 9607.896)
(62.71937 -13.53499 13826.67)
(39.84746 -53.55706 17925.04)
(15.62891 14.46744 1032.218)
(19.37147 12.82053 3290.732)
(24.95776 9.745797 5882.238)
(33.39756 3.946215 8891.304)
(46.76475 -7.259234 12516.76)
(66.81872 -32.57827 15538.34)
(41.68641 -103.5085 17991.36)
(12.96755 22.7357 985.115)
(15.85064 21.12108 3122.396)
(20.02249 18.00092 5541.432)
(26.1533 12.50532 8302.82)
(35.30919 2.748636 11537.39)
(49.55011 -15.09821 14023.65)
(68.70001 -49.81145 15660.14)
(41.81181 -139.2166 17930.16)
(10.92019 25.1673 941.386)
(13.18524 23.93423 2969.616)
(16.4399 21.4833 5241.38)
(21.07333 17.21919 7803.423)
(27.78405 10.15223 10754.22)
(37.68736 -1.745656 12908.57)
(52.02783 -20.53901 14141.11)
(69.80787 -55.46826 15764.65)
(41.44387 -139.6487 17885.8)
(9.308767 21.56937 902.3578)
(11.1453 20.81002 2835.173)
(13.74804 19.18714 4981.851)
(17.41746 16.38864 7381.933)
(22.57293 11.869 10113.59)
(29.95202 4.718363 12040.51)
(40.17264 -5.526496 13031.15)
(54.69382 -21.34387 14284.88)
(71.37016 -49.88271 15910.47)
(41.49993 -115.4059 17938.5)
(8.006597 14.2624 868.5245)
(9.533429 13.89496 2719.422)
(11.68274 13.07209 4760.794)
(14.66545 11.61219 7027.98)
(18.80986 9.27469 9586.798)
(24.57599 5.664566 11344.42)
(32.30109 0.8489587 12175.34)
(42.9442 -5.987361 13196.8)
(57.86361 -16.43056 14480.23)
(74.02395 -34.99264 16125.07)
(42.40279 -76.43814 15963.32)
(6.938852 4.967979 839.7134)
(8.227497 4.883497 2621.133)
(10.0459 4.660039 4574.08)
(12.54811 4.257758 6731.931)
(15.96831 3.605155 9151.721)
(20.67016 2.604982 10778.92)
(26.77668 1.321423 11493.39)
(34.93783 -0.3926181 12357.53)
(46.15406 -2.82412 13415.41)
(61.77355 -6.533583 14737.43)
(78.17371 -13.10283 14487.85)
(43.59297 -26.98148 12128.57)
(27.63775 3.534682 1620.668)
(49.83546 -1.938223 1417.865)
(28.54678 -1.057178 5019.453)
(38.84748 -0.4590315 1293.383)
(51.1385 -0.8911275 4361.319)
(30.35053 -0.598658 8597.589)
(29.90095 0.1984907 1204.976)
(39.7055 0.4523596 3967.358)
(54.02988 0.7687789 7444.536)
(33.14282 -0.08181422 12282.16)
(23.68363 0.4605038 1137.252)
(30.56292 0.6625787 3690.14)
(41.58922 0.9467459 6761.411)
(58.42979 0.6147879 10617.07)
(36.83313 -5.677931 16099.4)
(19.12184 1.952092 1082.009)
(24.18538 1.750225 3476.877)
(31.9115 1.274685 6279.813)
(44.35961 -0.007567412 9635.146)
(63.95545 -4.561428 13907.56)
(41.1001 -25.70056 18168.92)
(15.70399 6.598374 1034.482)
(19.49547 5.866732 3299.69)
(25.17769 4.492405 5903.151)
(33.82018 1.724853 8934.596)
(47.7355 -4.08273 12605.38)
(69.83658 -18.80906 15710.51)
(44.34237 -66.18591 18380.49)
(13.04409 15.23228 990.8488)
(15.98218 14.11581 3142.137)
(20.25021 11.96218 5580.692)
(26.56768 8.086409 8371.44)
(36.10881 0.9338336 11653.21)
(51.32364 -12.7884 14199.77)
(73.62173 -41.31515 15925.68)
(45.88801 -121.749 18455.4)
(10.96883 23.34285 948.7678)
(13.27525 22.18122 2994.018)
(16.59966 19.86563 5287.412)
(21.35549 15.78086 7878.744)
(28.29827 8.875641 10871.44)
(38.66849 -3.075249 13068.17)
(54.07997 -22.68483 14344.24)
(75.08554 -60.83884 16050.53)
(45.64152 -159.8669 18393.6)
(9.330795 25.47981 909.0862)
(11.19179 24.58026 2857.001)
(13.83691 22.64713 5022.025)
(17.57682 19.29424 7445.7)
(22.85417 13.81436 10208.96)
(30.45905 5.023136 12163.86)
(41.09642 -7.846255 13176.47)
(56.54412 -28.21084 14465.13)
(75.8646 -66.07947 16154.8)
(44.97425 -157.9119 18343.38)
(8.013384 21.69814 873.3199)
(9.551855 21.09416 2734.815)
(11.72237 19.78565 4788.732)
(14.74136 17.48067 7071.565)
(18.94511 13.80175 9650.602)
(24.81171 8.101749 11424.62)
(32.70639 0.4352597 12266.22)
(43.65716 -10.55741 13303.01)
(59.24676 -27.55438 14610.37)
(77.24836 -58.23669 16298.09)
(44.84624 -129.026 16206.23)
(6.933601 14.2596 842.106)
(8.226997 13.9685 2628.749)
(10.05255 13.26808 4587.769)
(12.56747 12.04097 6753.042)
(16.00915 10.07349 9182.192)
(20.746 7.07686 10816.6)
(26.90653 3.229156 11535.17)
(35.15835 -1.9131 12404.92)
(46.5383 -9.217863 13470.82)
(62.51213 -20.3889 14805.19)
(79.87017 -40.24917 14566.94)
(44.84283 -82.7974 12220.59)
(6.050349 4.933073 815.3971)
(7.141153 4.872274 2538.163)
(8.700839 4.680917 4416.827)
(10.84672 4.329703 6484.001)
(13.75317 3.769927 8790.696)
(17.68457 2.917284 10313.89)
(22.7036 1.854343 10939.57)
(29.21932 0.4880184 11687.46)
(37.92388 -1.339684 12589.24)
(49.89407 -3.933442 13689.64)
(66.57746 -7.892811 13306.52)
(82.60635 -14.48289 11101.07)
(45.33734 -28.53807 8603.211)
(27.28424 16.77315 1597.319)
(49.82604 -0.4457252 1413.838)
(28.46507 5.001563 4980.5)
(38.92321 -1.090414 1293.217)
(51.19855 -1.712493 4356.644)
(30.33351 0.4222759 8569.222)
(29.90095 -0.1984887 1204.976)
(39.7055 -0.4523577 3967.358)
(54.02988 -0.7687738 7444.536)
(33.14282 0.08180791 12282.16)
(23.6654 0.07793267 1136.592)
(30.52812 0.2149343 3688.94)
(41.53699 0.4397078 6762.27)
(58.47978 0.5837936 10628.09)
(36.96679 -1.00867 16152.66)
(19.11968 0.3814881 1080.991)
(24.18122 0.517069 3474.726)
(31.90766 0.7058908 6279.276)
(44.40342 0.7917533 9643.354)
(64.44024 -0.3016866 13945.88)
(41.69037 -9.616364 18303.77)
(15.72871 2.103156 1034.119)
(19.53739 1.995293 3299.677)
(25.25489 1.75966 5906.417)
(33.979 1.076673 8947.448)
(48.1588 -0.841401 12642.84)
(71.47827 -7.271429 15802.17)
(45.89618 -33.19926 18620.88)
(13.08956 6.978358 992.6707)
(16.06159 6.522352 3149.12)
(20.38776 5.62258 5596.371)
(26.82097 3.896007 8402.456)
(36.61114 0.405454 11712.39)
(52.50258 -6.96161 14301.26)
(77.21451 -24.08817 16098.81)
(48.97419 -78.73787 18844.26)
(11.01243 15.68751 953.8879)
(13.35741 14.93006 3011.337)
(16.74649 13.39848 5321.092)
(21.61606 10.62298 7935.865)
(28.77952 5.760345 10964.11)
(39.60816 -3.053641 13200.21)
(56.11726 -18.36355 14521.83)
(80.69684 -50.12511 16318.84)
(50.23266 -140.0726 18923.33)
(9.355918 23.6581 915.855)
(11.24587 22.84278 2879.145)
(13.94056 21.06688 5063.237)
(17.76342 17.93264 7512.004)
(23.18575 12.70326 10309.75)
(31.06386 4.109839 12296.57)
(42.21749 -8.917156 13336.38)
(58.84515 -30.32696 14669.53)
(81.7425 -71.97903 16443.49)
(49.61223 -180.7175 18856.49)
(8.023249 25.63881 879.5668)
(9.578072 24.93992 2754.941)
(11.77889 23.40841 4825.437)
(14.84901 20.67877 7129.158)
(19.13695 16.28045 9735.501)
(25.1482 9.372794 11532.12)
(33.28984 -0.09049899 12389.12)
(44.69533 -13.95502 13448.38)
(61.2929 -35.92533 14791.42)
(82.18543 -76.78889 16544.43)
(48.63965 -176.3681 16566.85)
(6.932888 21.73589 846.5929)
(8.236443 21.25645 2643.075)
(10.07716 20.1486 4613.597)
(12.61831 18.22428 6792.996)
(16.10379 15.13999 9240.059)
(20.91157 10.4405 10888.33)
(27.18162 4.361007 11614.8)
(35.61739 -3.832596 12495.45)
(47.33033 -15.5899 13577.01)
(64.02767 -33.79111 14935.79)
(83.38101 -66.65745 14720.94)
(47.4411 -139.5471 12404.05)
(6.042549 14.20276 817.6511)
(7.137095 13.98442 2545.303)
(8.703072 13.38473 4429.59)
(10.85824 12.31425 6503.552)
(13.78045 10.62947 8818.684)
(17.7379 8.07868 10348.13)
(22.79504 4.898359 10976.97)
(29.36946 0.8082294 11729.05)
(38.17208 -4.667859 12636.58)
(50.3188 -12.45145 13745.18)
(67.38315 -24.36517 13366.83)
(84.40991 -44.31611 11160.85)
(46.64175 -87.45744 8667.789)
(5.300458 4.889975 792.7768)
(6.238095 4.842914 2461.396)
(7.577798 4.68237 4272.153)
(9.435202 4.37297 6257.332)
(11.94429 3.877981 8463.021)
(15.30291 3.138238 9896.1)
(19.4996 2.235858 10448.11)
(24.85128 1.108861 11103.04)
(31.79466 -0.3421707 11883.55)
(41.06528 -2.286231 12821.62)
(53.81729 -5.045945 12352.34)
(70.31558 -8.945907 10202.69)
(85.87723 -15.49405 7875.998)
(46.50183 -29.56461 5202.917)
(26.33884 32.91377 1561)
(49.36908 3.783983 1405.581)
(28.05119 19.15987 4911.473)
(38.97748 -1.129114 1292.19)
(51.13995 0.04561688 4344.788)
(30.1806 7.853874 8505.018)
(29.93906 -0.6381884 1205.387)
(39.77312 -1.042693 3966.875)
(54.04577 -1.276956 7436.852)
(33.07626 2.645666 12241.97)
(23.6654 -0.07793211 1136.592)
(30.52812 -0.2149323 3688.94)
(41.53699 -0.4397059 6762.27)
(58.47978 -0.5837885 10628.09)
(36.9668 1.008664 16152.66)
(19.10994 0.01618944 1080.225)
(24.1644 0.1043244 3472.792)
(31.87922 0.2464856 6277.376)
(44.37413 0.4180227 9644.781)
(64.57938 0.3279387 13960.74)
(41.91052 -2.212215 18362.82)
(15.72736 0.3414591 1032.982)
(19.53676 0.4528206 3296.724)
(25.2573 0.6239382 5903.1)
(33.99617 0.7600381 8947.221)
(48.26861 0.5613634 12654.53)
(72.20928 -1.512144 15845.29)
(46.66706 -13.43388 18752.13)
(13.10258 2.185755 992.1296)
(16.08822 2.163176 3148.169)
(20.43668 2.070725 5596.804)
(26.91741 1.752297 8407.973)
(36.82019 0.7696879 11730.77)
(53.06679 -1.973546 14344.42)
(79.25346 -9.952391 16190.09)
(50.82327 -40.56601 19081.71)
(11.03654 7.183334 955.3908)
(13.40592 6.927124 3016.95)
(16.83495 6.357103 5333.354)
(21.77466 5.222244 7959.291)
(29.07891 3.031086 11006.89)
(40.21417 -1.377619 13268.36)
(57.50412 -9.868655 14624.46)
(84.8607 -29.38528 16493.29)
(53.74627 -91.2381 19312.58)
(9.377183 15.90938 920.4835)
(11.29389 15.42259 2894.592)
(14.03427 14.31501 5092.762)
(17.93391 12.27811 7561.03)
(23.49184 8.740288 10387)
(31.6325 2.668376 12402.19)
(43.29914 -7.073689 13469.31)
(61.14912 -23.99744 14848.97)
(88.04744 -59.02519 16715.03)
(54.72119 -158.5084 19391.45)
(8.034122 23.80673 885.8196)
(9.607711 23.20221 2775.235)
(11.84396 21.83921 4862.813)
(14.97364 19.35176 7188.504)
(19.36062 15.2524 9824.22)
(25.54435 8.659198 11646.1)
(33.98656 -0.6575615 12521.72)
(45.95856 -14.78889 13608.88)
(63.8466 -38.03842 14997.4)
(88.67034 -83.24806 16836.25)
(53.72248 -201.7899 17023.89)
(6.932158 25.6872 852.4248)
(8.249894 25.13882 2661.757)
(10.11177 23.863 4647.426)
(12.69019 21.61705 6845.598)
(16.23732 17.96955 9316.713)
(21.14581 12.34952 10983.92)
(27.57392 4.955433 11721.66)
(36.27831 -5.196853 12618.06)
(48.4847 -20.08111 13722.62)
(66.27286 -43.69217 15117.81)
(88.76686 -87.60563 14940.3)
(51.48044 -190.6182 12676.36)
(6.036104 21.68371 821.8697)
(7.138689 21.32314 2558.707)
(8.717817 20.37783 4453.621)
(10.8923 18.70788 6540.476)
(13.84672 16.08341 8871.71)
(17.85693 12.09981 10413.12)
(22.99111 7.10914 11048.07)
(29.68433 0.642154 11808.21)
(38.6856 -8.09039 12726.86)
(51.19116 -20.6294 13851.46)
(69.03331 -40.05906 13482.94)
(88.14153 -73.171 11277.24)
(49.3535 -147.257 8796.546)
(5.291508 14.11715 794.9082)
(6.23134 13.94386 2468.122)
(7.576109 13.43786 4284.116)
(9.441608 12.49673 6275.554)
(11.9625 11.00907 8488.93)
(15.34051 8.800419 9927.515)
(19.5655 6.104323 10482.04)
(24.95851 2.737008 11140.2)
(31.96542 -1.60071 11925)
(41.34163 -7.417969 12868.95)
(54.28327 -15.69063 12401.73)
(71.17298 -27.44558 10248.31)
(87.75927 -47.29591 7917.915)
(47.84233 -90.53082 5241.51)
(4.645458 4.843574 771.6692)
(5.47537 4.804719 2390.044)
(6.642825 4.664034 4138.38)
(8.25494 4.393765 6048.864)
(10.44139 3.952026 8163.531)
(13.35539 3.293338 9517.147)
(16.94015 2.513324 10007)
(21.41486 1.560287 10584.88)
(27.11393 0.367837 11268.47)
(34.50239 -1.169901 12080.55)
(44.36021 -3.233 11561.33)
(56.87484 -5.908915 9476.059)
(73.0775 -9.717615 7239.241)
(88.06223 -16.1596 4759.789)
(47.10986 -30.0818 1763.303)
(24.77248 40.12804 1513.554)
(48.03874 7.796189 1390.336)
(27.02149 36.26438 4803.041)
(38.82367 -1.099853 1288.686)
(50.60361 4.724061 4320.078)
(29.64982 23.87149 8390.202)
(29.96394 -1.441074 1205.586)
(39.81049 -0.9479058 3963.766)
(53.89297 1.016935 7417.093)
(32.81678 12.16234 12150.76)
(23.68363 -0.4605032 1137.252)
(30.56292 -0.6625765 3690.14)
(41.58922 -0.9467443 6761.411)
(58.42979 -0.6147813 10617.07)
(36.83314 5.677947 16099.4)
(19.10994 -0.016189 1080.225)
(24.1644 -0.1043239 3472.792)
(31.87922 -0.2464836 6277.376)
(44.37413 -0.4180208 9644.781)
(64.57938 -0.3279336 13960.74)
(41.91052 2.212208 18362.82)
(15.72112 -0.01950992 1032.178)
(19.5276 0.04682329 3294.469)
(25.24329 0.1553139 5899.98)
(33.97728 0.2909093 8944.756)
(48.27032 0.3826529 12656.8)
(72.46322 -0.01067687 15861.88)
(46.97053 -3.370665 18809.02)
(13.09934 0.3056546 990.9437)
(16.08755 0.419096 3144.84)
(20.43923 0.5898233 5592.115)
(26.92986 0.7745759 8403.77)
(36.866 0.8135622 11731.33)
(53.26159 0.2331881 14358.05)
(80.22311 -2.690352 16232.35)
(51.7695 -17.14213 19209.73)
(11.04005 2.200966 954.7436)
(13.42008 2.254833 3015.438)
(16.86566 2.27437 5332.15)
(21.83446 2.165506 7960.699)
(29.20189 1.707111 11015.5)
(40.48836 0.3186827 13290.1)
(58.20708 -3.113169 14668.08)
(87.28946 -12.61293 16584.43)
(55.8853 -47.81791 19547.56)
(9.386745 7.254583 921.7459)
(11.32024 7.149106 2899.217)
(14.08917 6.814317 5102.646)
(18.03649 6.080016 7579.476)
(23.67968 4.629189 10419.6)
(31.99213 1.840382 12451.66)
(44.00955 -3.18989 13538.43)
(62.74409 -12.81167 14952.99)
(92.7796 -34.71171 16891.11)
(58.66008 -103.7071 19781.64)
(8.042019 15.99578 890.0425)
(9.632565 15.67374 2789.187)
(11.90103 14.88464 4889.129)
(15.08526 13.3537 7231.494)
(19.56397 10.69958 9890.596)
(25.9101 6.229068 11734.08)
(34.64407 -0.4429347 12627.76)
(47.18442 -11.13569 13742.99)
(66.42067 -29.70163 15179.03)
(95.67404 -68.02985 17111.43)
(59.35275 -177.0788 17500.21)
(6.930759 23.8458 858.2354)
(8.264601 23.3877 2680.498)
(10.15051 22.28828 4681.662)
(12.77217 20.29512 6899.403)
(16.39096 16.97344 9396.111)
(21.41796 11.72884 11084.13)
(28.03552 4.625094 11835.23)
(37.06845 -5.435998 12750.78)
(49.89251 -20.70133 13883.95)
(69.08329 -45.83138 15325.64)
(95.86589 -94.6589 15200.44)
(56.90602 -218.0519 13021.39)
(6.027122 25.61751 827.3421)
(7.141057 25.2215 2576.147)
(8.738427 24.14186 4485.015)
(10.93976 22.21733 6588.939)
(13.93976 19.15216 8941.695)
(18.02424 14.43668 10499.34)
(23.26806 8.448499 11142.89)
(30.13311 0.5555845 11914.55)
(39.42516 -10.3035 12849.34)
(52.46364 -26.23265 13997.45)
(71.48085 -51.51933 13644.89)
(93.87324 -95.96901 11443.01)
(53.57307 -201.0615 8987.69)
(5.282008 21.58162 798.8901)
(6.226915 21.29607 2480.724)
(7.582291 20.50214 4306.597)
(9.464444 19.03946 6309.898)
(12.00955 16.73314 8537.913)
(15.42689 13.30387 9987.027)
(19.709 9.091248 10546.36)
(25.18533 3.803907 11210.73)
(32.32053 -3.059118 12003.75)
(41.91043 -12.34276 12959.06)
(55.23724 -25.68045 12496.13)
(72.92689 -44.91374 10336.14)
(91.65268 -77.94371 7999.532)
(50.62916 -152.3431 5318.459)
(4.636148 14.01826 773.6912)
(5.467348 13.87261 2396.404)
(6.638144 13.42966 4149.647)
(8.256868 12.60667 6065.938)
(10.45353 11.28207 8187.668)
(13.38231 9.318568 9546.205)
(16.98813 6.992359 10038.09)
(21.49344 4.148682 10618.52)
(27.23714 0.5907486 11305.43)
(34.69408 -3.999924 12121.9)
(44.66522 -10.16569 11603.38)
(57.37261 -18.20303 9513.448)
(73.97275 -29.70293 7271.215)
(89.9962 -49.25748 4784.763)
(48.46873 -92.07911 1776.232)
(4.069547 4.79687 751.9266)
(4.808859 4.762692 2323.51)
(5.852004 4.635563 4014.124)
(7.270214 4.39225 5856.162)
(9.182476 3.999404 7888.16)
(11.73465 3.40748 9170.981)
(14.84477 2.715658 9607.265)
(18.6663 1.894726 10120.16)
(23.43111 0.8899988 10723.51)
(29.49143 -0.3693725 11434.98)
(37.3412 -1.995835 10885.81)
(46.9314 -3.968197 8872.998)
(59.13606 -6.541512 6723.792)
(74.9244 -10.22488 4370.967)
(89.20503 -16.49301 1611.295)
(23.10518 35.01585 1468.704)
(45.79057 7.791437 1366.999)
(25.3587 43.81987 4660.481)
(38.24732 -2.871332 1280.1)
(49.16234 9.339479 4274.037)
(28.45485 42.95347 8208.383)
(29.87807 -3.517596 1204.111)
(39.62955 -0.6162242 3953.07)
(53.20269 6.613991 7375.408)
(32.11036 31.0253 11987.07)
(23.69107 -1.73907 1138.006)
(30.58068 -1.39004 3690.633)
(41.5941 -0.5769436 6755.996)
(58.13604 2.503382 10588.62)
(36.42917 18.05015 15978.4)
(19.11968 -0.3814876 1080.991)
(24.18122 -0.5170684 3474.726)
(31.90766 -0.7058886 6279.276)
(44.40342 -0.7917518 9643.354)
(64.44025 0.3016933 13945.88)
(41.69037 9.61638 18303.77)
(15.72112 0.01950842 1032.178)
(19.5276 -0.04682285 3294.469)
(25.24329 -0.1553134 5899.98)
(33.97728 -0.2909073 8944.756)
(48.27032 -0.382651 12656.8)
(72.46322 0.01068211 15861.88)
(46.97053 3.370658 18809.02)
(13.09403 -0.04612375 990.1339)
(16.08149 0.0126476 3142.464)
(20.43125 0.1063951 5588.451)
(26.92011 0.2291199 8399.568)
(36.86007 0.3450619 11728.49)
(53.30314 0.3272234 14360.78)
(80.58755 -0.3359301 16248.32)
(52.15333 -4.487893 19264.64)
(11.03418 0.2559688 953.5463)
(13.41708 0.3854831 3011.946)
(16.86647 0.5696794 5326.797)
(21.84197 0.7869721 7954.509)
(29.22814 0.9601233 11010.78)
(40.57118 0.8513838 13291.33)
(58.48444 -0.0929348 14681.75)
(88.49078 -3.841526 16625.99)
(57.00198 -20.75137 19672.66)
(9.383488 2.162151 921.0337)
(11.32443 2.274749 2897.363)
(14.1058 2.385941 5100.447)
(18.07365 2.425445 7578.48)
(23.75465 2.262004 10422.68)
(32.14976 1.596629 12462.31)
(44.34861 -0.1492226 13560.79)
(63.58397 -4.265213 14997.2)
(95.59147 -15.26076 16982.33)
(61.08419 -54.96911 20014.52)
(8.043308 7.246378 891.1168)
(9.643841 7.232575 2793.068)
(11.93207 7.072483 4897.292)
(15.15017 6.619719 7246.457)
(19.68629 5.659132 9916.466)
(26.13635 3.795007 11771.88)
(35.06485 0.6259706 12677.95)
(48.00021 -5.036774 13813.25)
(68.22428 -15.79779 15284.62)
(100.9725 -40.07706 17289.39)
(63.71526 -116.1607 17846.22)
(6.927521 16.00124 862.1158)
(8.27549 15.7839 2693.221)
(10.18267 15.19609 4705.418)
(12.84326 14.0434 6937.728)
(16.52748 11.9969 9454.357)
(21.66449 8.588291 11159.64)
(28.46201 3.709163 11923.3)
(37.81652 -3.580906 12857.48)
(51.2651 -15.24839 14019.5)
(71.93123 -35.48639 15509.76)
(103.5742 -77.15097 15446.02)
(62.93792 -191.4019 13380.91)
(6.015806 23.76036 832.773)
(7.142945 23.45816 2593.562)
(8.760816 22.54817 4516.622)
(10.99247 20.88251 6638.211)
(14.04513 18.15399 9013.667)
(18.21586 13.84603 10588.93)
(23.58927 8.223333 11242.51)
(30.6612 0.5932327 12027.92)
(40.3104 -10.23437 12982.38)
(54.01864 -26.66437 14159.85)
(74.55221 -53.71629 13830.11)
(101.4455 -103.4771 11639.54)
(59.24986 -229.9716 9229.946)
(5.268582 25.48422 804.0464)
(6.220636 25.18138 2497.089)
(7.590829 24.29299 4335.899)
(9.496002 22.61878 6354.86)
(12.07472 19.95359 8602.368)
(15.54757 15.9388 10065.68)
(19.91026 10.93703 10631.75)
(25.50542 4.57186 11304.9)
(32.82658 -3.833083 12109.72)
(42.72989 -15.41737 13081.54)
(56.6298 -32.4167 12625.92)
(75.53035 -57.57902 10458.62)
(97.63782 -102.0978 8115.814)
(54.96795 -207.9542 5432.739)
(4.625353 21.45445 777.4621)
(5.459639 21.21609 2408.3)
(6.637732 20.52503 4170.78)
(8.270051 19.25181 6098.058)
(10.48749 17.20561 8233.211)
(13.4463 14.17035 9601.143)
(17.09464 10.55667 10096.91)
(21.66155 6.111277 10682.23)
(27.49501 0.5212325 11375.46)
(35.08995 -6.746771 12200.32)
(45.29013 -16.59377 11683.36)
(58.38947 -29.59725 9584.913)
(75.80262 -48.47155 7332.776)
(93.99661 -81.08694 4833.402)
(51.29372 -154.9062 1802.01)
(4.059486 13.9161 753.8503)
(4.800379 13.78655 2329.544)
(5.84582 13.38692 4024.777)
(7.268698 12.64784 5872.238)
(9.189375 11.47009 7910.767)
(11.75426 9.709533 9198.032)
(14.88043 7.649231 9635.984)
(18.72473 5.203939 10150.94)
(23.52253 2.210076 10756.91)
(29.63087 -1.542337 11471.76)
(37.55417 -6.391422 10922.51)
(47.25851 -12.2992 8904.857)
(59.65709 -20.04476 6749.994)
(75.84466 -31.187 4389.971)
(91.16543 -50.24044 1619.631)
(3.577903 4.742969 733.4165)
(4.222558 4.719922 2261.308)
(5.160402 4.602193 3898.319)
(6.435613 4.378608 5677.228)
(8.129368 4.021012 7633.678)
(10.37435 3.48949 8852.846)
(13.09859 2.869954 9242.395)
(16.4138 2.144596 9699.368)
(20.48218 1.281987 10235.08)
(25.54845 0.2244524 10863.31)
(31.9829 -1.103352 10297.2)
(39.5589 -2.637827 8357.505)
(48.83443 -4.507326 6295.724)
(60.6489 -6.956996 4056.031)
(75.89253 -10.47778 1477.603)
(21.73501 24.70299 1433.446)
(43.38268 4.641125 1341.808)
(23.61276 38.22013 4525.161)
(37.22696 -6.432516 1264.733)
(46.78585 9.732551 4203.424)
(26.6007 51.24324 7968.097)
(29.57012 -8.170952 1198.569)
(39.01439 -1.913186 3926.9)
(51.5433 12.46233 7297.259)
(30.66599 53.14859 11727.01)
(23.63253 -5.038101 1137.531)
(30.48269 -3.236911 3685.98)
(41.36006 0.3747876 6737.524)
(57.21432 9.517421 10528.45)
(35.48426 40.82183 15760.95)
(19.12184 -1.952091 1082.009)
(24.18538 -1.750224 3476.877)
(31.9115 -1.274683 6279.813)
(44.35961 0.007568409 9635.146)
(63.95545 4.561438 13907.56)
(41.1001 25.70059 18168.92)
(15.72736 -0.3414603 1032.982)
(19.53676 -0.4528201 3296.724)
(25.2573 -0.6239375 5903.1)
(33.99617 -0.7600359 8947.221)
(48.26861 -0.5613618 12654.53)
(72.20928 1.512151 15845.29)
(46.66706 13.43389 18752.13)
(13.09403 0.04612546 990.1339)
(16.08149 -0.01264911 3142.464)