/*--------------------------------*- C++ -*----------------------------------*\
| =========                 |                                                 |
| \\      /  F ield         | OpenFOAM: The Open Source CFD Toolbox           |
|  \\    /   O peration     | Version:  2306                                  |
|   \\  /    A nd           | Website:  www.openfoam.com                      |
|    \\/     M anipulation  |                                                 |
\*---------------------------------------------------------------------------*/
FoamFile
{
    version     2.0;
    format      ascii;
    arch        "LSB;label=32;scalar=64";
    class       volScalarField;
    location    "0.3/phiI";
    object      J;
}
// * * * * * * * * * * * * * * * * * * * * * * * * * * * * * * * * * * * * * //

dimensions      [0 -3 0 0 0 1 0];

internalField   nonuniform List<scalar> 
12000
(
-6.476105e+08
-6.533893e+08
-6.045101e+08
-6.541456e+08
-6.651714e+08
-6.083841e+08
-6.600365e+08
-5.694635e+08
-6.104015e+08
-6.705331e+08
-6.827396e+08
-6.1608e+08
-6.720446e+08
-5.725189e+08
-6.143547e+08
-6.766899e+08
-5.415475e+08
-5.748681e+08
-6.250638e+08
-6.972886e+08
-7.051472e+08
-6.269315e+08
-6.899453e+08
-5.78512e+08
-6.222084e+08
-6.89238e+08
-5.441175e+08
-5.779872e+08
-6.291994e+08
-7.038783e+08
-5.183437e+08
-5.465815e+08
-5.881974e+08
-6.489185e+08
-7.353795e+08
-7.290507e+08
-6.395363e+08
-7.127562e+08
-5.867443e+08
-6.332903e+08
-7.07948e+08
-5.491168e+08
-5.841065e+08
-6.37417e+08
-7.17308e+08
-5.205839e+08
-5.492056e+08
-5.914609e+08
-6.533477e+08
-7.425939e+08
-4.982672e+08
-5.230788e+08
-5.588921e+08
-6.098046e+08
-6.82757e+08
0
-7.477685e+08
-6.511836e+08
-7.370368e+08
-5.958556e+08
-6.461804e+08
-7.317854e+08
-5.558775e+08
-5.925217e+08
-6.490285e+08
-7.373466e+08
-5.249152e+08
-5.543114e+08
-5.97866e+08
-6.621514e+08
-7.572978e+08
-5.002623e+08
-5.253662e+08
-5.616374e+08
-6.13299e+08
-6.87606e+08
0
-4.805505e+08
-5.027476e+08
-5.345703e+08
-5.787837e+08
-6.403541e+08
0
0
-7.602179e+08
-6.58863e+08
-7.560176e+08
-6.035399e+08
-6.581225e+08
-7.571244e+08
-5.631386e+08
-6.018598e+08
-6.62568e+08
-7.6289e+08
-5.307139e+08
-5.612259e+08
-6.066919e+08
-6.746155e+08
-7.79263e+08
-5.041012e+08
-5.297904e+08
-5.66982e+08
-6.20161e+08
-6.972478e+08
0
-4.823559e+08
-5.047848e+08
-5.36963e+08
-5.817218e+08
-6.441764e+08
0
0
-4.646603e+08
-4.848087e+08
-5.135482e+08
-5.530861e+08
-6.0683e+08
0
0
0
-7.675573e+08
-6.631755e+08
-7.686116e+08
-6.077879e+08
-6.660135e+08
-7.769003e+08
-5.688875e+08
-6.097846e+08
-6.75163e+08
-7.900295e+08
-5.368202e+08
-5.686773e+08
-6.165261e+08
-6.891982e+08
-8.072971e+08
-5.092052e+08
-5.357226e+08
-5.742371e+08
-6.29642e+08
-7.109314e+08
0
-4.858155e+08
-5.087061e+08
-5.415937e+08
-5.874462e+08
-6.516873e+08
0
0
-4.66312e+08
-4.86652e+08
-5.156786e+08
-5.556456e+08
-6.100409e+08
0
0
0
-4.502596e+08
-4.687205e+08
-4.950126e+08
-5.309077e+08
-5.791315e+08
0
0
0
0
-7.709318e+08
-6.653928e+08
-7.760191e+08
-6.0955e+08
-6.704399e+08
-7.899892e+08
-5.715984e+08
-6.142095e+08
-6.835139e+08
-8.111801e+08
-5.414453e+08
-5.746302e+08
-6.249434e+08
-7.028339e+08
-8.370956e+08
-5.14507e+08
-5.419935e+08
-5.820962e+08
-6.402614e+08
-7.270054e+08
0
-4.903927e+08
-5.139282e+08
-5.478191e+08
-5.952415e+08
-6.620981e+08
0
0
-4.694657e+08
-4.901859e+08
-5.197823e+08
-5.606035e+08
-6.163021e+08
0
0
0
-4.517844e+08
-4.704068e+08
-4.969396e+08
-5.331853e+08
-5.81926e+08
0
0
0
0
-4.370901e+08
-4.541414e+08
-4.783985e+08
-5.11377e+08
-5.55277e+08
0
0
0
0
0
-7.709318e+08
-6.663291e+08
-7.794195e+08
-6.101047e+08
-6.727078e+08
-7.976689e+08
-5.722933e+08
-6.160698e+08
-6.882014e+08
-8.25145e+08
-5.433452e+08
-5.774934e+08
-6.297062e+08
-7.119138e+08
-8.602925e+08
-5.183962e+08
-5.467958e+08
-5.884512e+08
-6.494425e+08
-7.42124e+08
0
-4.951015e+08
-5.193751e+08
-5.544389e+08
-6.037409e+08
-6.738283e+08
0
0
-4.736228e+08
-4.94869e+08
-5.252624e+08
-5.672922e+08
-6.248602e+08
0
0
0
-4.546858e+08
-4.73628e+08
-5.00637e+08
-5.375772e+08
-5.87345e+08
0
0
0
0
-4.385076e+08
-4.556979e+08
-4.801608e+08
-5.13436e+08
-5.577615e+08
0
0
0
0
0
-4.249776e+08
-4.408095e+08
-4.633503e+08
-4.93889e+08
-5.343083e+08
0
0
0
0
0
1.066157e+09
-7.675573e+08
-6.663291e+08
-7.794195e+08
-6.102217e+08
-6.736617e+08
-8.011882e+08
-5.7218e+08
-6.1667e+08
-6.905989e+08
-8.333184e+08
-5.435305e+08
-5.782746e+08
-6.317509e+08
-7.170211e+08
-8.755746e+08
-5.19815e+08
-5.488291e+08
-5.91587e+08
-6.547174e+08
-7.522394e+08
0
-4.984762e+08
-5.234205e+08
-5.595835e+08
-6.107101e+08
-6.840794e+08
0
0
-4.778682e+08
-4.997076e+08
-5.310149e+08
-5.744571e+08
-6.342592e+08
0
0
0
-4.584987e+08
-4.778812e+08
-5.055511e+08
-5.434638e+08
-5.946853e+08
0
0
0
0
-4.411963e+08
-4.586613e+08
-4.835303e+08
-5.173913e+08
-5.625583e+08
0
0
0
0
0
-4.263026e+08
-4.422564e+08
-4.649765e+08
-4.957711e+08
-5.365524e+08
0
0
0
0
0
1.07437e+09
-4.137798e+08
-4.285482e+08
-4.495955e+08
-4.78064e+08
-5.155614e+08
0
0
0
0
0
9.653129e+08
1.009918e+09
-7.602179e+08
-6.653928e+08
-7.760191e+08
-6.102217e+08
-6.736617e+08
-8.011882e+08
-5.719739e+08
-6.168038e+08
-6.916049e+08
-8.370574e+08
-5.431229e+08
-5.782025e+08
-6.32438e+08
-7.196332e+08
-8.844981e+08
-5.197349e+08
-5.490907e+08
-5.925139e+08
-6.570388e+08
-7.579462e+08
0
-4.995899e+08
-5.249576e+08
-5.618473e+08
-6.142479e+08
-6.90062e+08
0
0
-4.808564e+08
-5.032217e+08
-5.35359e+08
-5.801203e+08
-6.420803e+08
0
0
0
-4.623701e+08
-4.822439e+08
-5.10662e+08
-5.496924e+08
-6.026129e+08
0
0
0
0
-4.44721e+08
-4.625621e+08
-4.879924e+08
-5.226682e+08
-5.690151e+08
0
0
0
0
0
-4.28808e+08
-4.450023e+08
-4.680755e+08
-4.993739e+08
-5.408692e+08
0
0
0
0
0
1.090639e+09
-4.150242e+08
-4.299005e+08
-4.511067e+08
-4.797997e+08
-5.176109e+08
0
0
0
0
0
9.705601e+08
1.017419e+09
-4.033793e+08
-4.172134e+08
-4.369502e+08
-4.636111e+08
-4.986202e+08
0
0
0
0
0
8.765974e+08
9.171005e+08
9.703466e+08
-7.477685e+08
-6.631754e+08
-7.686116e+08
-6.101047e+08
-6.727078e+08
-7.976689e+08
-5.719739e+08
-6.168038e+08
-6.916049e+08
-8.370574e+08
-5.427813e+08
-5.780121e+08
-6.32605e+08
-7.20728e+08
-8.885731e+08
-5.191937e+08
-5.487201e+08
-5.925088e+08
-6.578571e+08
-7.608685e+08
0
-4.993667e+08
-5.249455e+08
-5.622309e+08
-6.153845e+08
-6.927639e+08
0
0
-4.817597e+08
-5.044414e+08
-5.370964e+08
-5.827188e+08
-6.461647e+08
0
0
0
-4.650561e+08
-4.853578e+08
-5.144415e+08
-5.544868e+08
-6.089908e+08
0
0
0
0
-4.482825e+08
-4.665404e+08
-4.926009e+08
-5.282027e+08
-5.759078e+08
0
0
0
0
0
-4.320851e+08
-4.486078e+08
-4.721671e+08
-5.041639e+08
-5.466541e+08
0
0
0
0
0
1.11485e+09
-4.173701e+08
-4.324589e+08
-4.539775e+08
-4.831119e+08
-5.215403e+08
0
0
0
0
0
9.80709e+08
1.032258e+09
-4.045535e+08
-4.184833e+08
-4.383621e+08
-4.652231e+08
-5.005088e+08
0
0
0
0
0
8.80527e+08
9.219193e+08
9.773781e+08
-3.936743e+08
-4.06686e+08
-4.252644e+08
-4.503336e+08
-4.831666e+08
0
0
0
0
0
8.05055e+08
8.350032e+08
8.829039e+08
9.458423e+08
-7.290507e+08
-6.58863e+08
-7.560176e+08
-6.0955e+08
-6.704399e+08
-7.899892e+08
-5.7218e+08
-6.1667e+08
-6.905989e+08
-8.333184e+08
-5.427813e+08
-5.780121e+08
-6.32605e+08
-7.20728e+08
-8.885731e+08
-5.187965e+08
-5.483928e+08
-5.923433e+08
-6.580747e+08
-7.620932e+08
0
-4.987684e+08
-5.244374e+08
-5.619154e+08
-6.154738e+08
-6.937622e+08
0
0
-4.814542e+08
-5.042793e+08
-5.371896e+08
-5.83273e+08
-6.475816e+08
0
0
0
-4.658068e+08
-4.863568e+08
-5.158387e+08
-5.565123e+08
-6.120396e+08
0
0
0
0
-4.507235e+08
-4.693406e+08
-4.959536e+08
-5.323811e+08
-5.813202e+08
0
0
0
0
0
-4.353829e+08
-4.522675e+08
-4.763693e+08
-5.09154e+08
-5.527779e+08
0
0
0
0
0
1.145709e+09
-4.204324e+08
-4.358111e+08
-4.577586e+08
-4.875026e+08
-5.267884e+08
0
0
0
0
0
9.952737e+08
1.05432e+09
-4.067603e+08
-4.208786e+08
-4.410363e+08
-4.6829e+08
-5.041188e+08
0
0
0
0
0
8.880422e+08
9.312303e+08
9.91282e+08
-3.947863e+08
-4.078841e+08
-4.265898e+08
-4.518389e+08
-4.849192e+08
0
0
0
0
0
8.082214e+08
8.386291e+08
8.874342e+08
9.526134e+08
-3.845958e+08
-3.968632e+08
-4.144147e+08
-4.380717e+08
-4.689851e+08
0
0
0
0
0
7.459655e+08
7.685158e+08
8.05321e+08
8.61478e+08
9.350283e+08
-7.051472e+08
-6.511836e+08
-7.370368e+08
-6.077879e+08
-6.660135e+08
-7.769003e+08
-5.722933e+08
-6.160698e+08
-6.882014e+08
-8.25145e+08
-5.431229e+08
-5.782025e+08
-6.32438e+08
-7.196332e+08
-8.844981e+08
-5.187965e+08
-5.483928e+08
-5.923433e+08
-6.580747e+08
-7.620932e+08
0
-4.983528e+08
-5.240532e+08
-5.616082e+08
-6.153429e+08
-6.940494e+08
0
0
-4.808348e+08
-5.037109e+08
-5.367285e+08
-5.830319e+08
-6.477953e+08
0
0
0
-4.654531e+08
-4.861067e+08
-5.157694e+08
-5.567503e+08
-6.128181e+08
0
0
0
0
-4.513578e+08
-4.701786e+08
-4.97112e+08
-5.340321e+08
-5.837307e+08
0
0
0
0
0
-4.376188e+08
-4.548131e+08
-4.793866e+08
-5.12865e+08
-5.575024e+08
0
0
0
0
0
1.177944e+09
-4.235019e+08
-4.391995e+08
-4.616238e+08
-4.920521e+08
-5.323086e+08
0
0
0
0
0
1.012795e+09
1.082408e+09
-4.096361e+08
-4.240108e+08
-4.445508e+08
-4.723459e+08
-5.089266e+08
0
0
0
0
0
8.986284e+08
9.445859e+08
1.011951e+09
-3.968701e+08
-4.101373e+08
-4.29093e+08
-4.546946e+08
-4.882598e+08
0
0
0
0
0
8.142335e+08
8.45557e+08
8.961827e+08
9.660051e+08
-3.85652e+08
-3.979976e+08
-4.156647e+08
-4.394841e+08
-4.706206e+08
0
0
0
0
0
7.486202e+08
7.714488e+08
8.087392e+08
8.658411e+08
9.417201e+08
-3.760898e+08
-3.876749e+08
-4.042942e+08
-4.266939e+08
-4.55901e+08
0
0
0
0
0
6.957599e+08
7.134105e+08
7.423271e+08
7.865706e+08
8.517509e+08
-6.827396e+08
-6.395363e+08
-7.127561e+08
-6.035399e+08
-6.581225e+08
-7.571244e+08
-5.715984e+08
-6.142095e+08
-6.835139e+08
-8.111801e+08
-5.435305e+08
-5.782746e+08
-6.317509e+08
-7.170211e+08
-8.755746e+08
-5.191937e+08
-5.487201e+08
-5.925088e+08
-6.578571e+08
-7.608685e+08
0
-4.983528e+08
-5.240532e+08
-5.616082e+08
-6.153429e+08
-6.940494e+08
0
0
-4.804176e+08
-5.03307e+08
-5.363613e+08
-5.82751e+08
-6.477095e+08
0
0
0
-4.64831e+08
-4.855144e+08
-5.152422e+08
-5.563511e+08
-6.126723e+08
0
0
0
0
-4.509747e+08
-4.698755e+08
-4.96945e+08
-5.340894e+08
-5.84157e+08
0
0
0
0
0
-4.381601e+08
-4.555276e+08
-4.803694e+08
-5.142507e+08
-5.594911e+08
0
0
0
0
0
1.20069e+09
-4.255618e+08
-4.415318e+08
-4.643683e+08
-4.953948e+08
-5.365093e+08
0
0
0
0
0
1.029578e+09
1.111711e+09
-4.125086e+08
-4.271643e+08
-4.481292e+08
-4.765298e+08
-5.139581e+08
0
0
0
0
0
9.109679e+08
9.606446e+08
1.038275e+09
-3.995809e+08
-4.130782e+08
-4.323761e+08
-4.584633e+08
-4.926985e+08
0
0
0
0
0
8.225891e+08
8.553126e+08
9.087316e+08
9.85931e+08
-3.876257e+08
-4.001249e+08
-4.180187e+08
-4.421561e+08
-4.737292e+08
0
0
0
0
0
7.536367e+08
7.770126e+08
8.152663e+08
8.742663e+08
9.549672e+08
-3.770957e+08
-3.887523e+08
-4.054775e+08
-4.280253e+08
-4.574344e+08
0
0
0
0
0
6.980437e+08
7.158776e+08
7.450989e+08
7.898653e+08
8.560526e+08
-3.681042e+08
-3.790662e+08
-3.948302e+08
-4.160872e+08
-4.437711e+08
0
0
0
0
0
6.522188e+08
6.664525e+08
6.900007e+08
7.256937e+08
7.779112e+08
-6.651714e+08
-6.269315e+08
-6.899453e+08
-5.958556e+08
-6.461804e+08
-7.317854e+08
-5.688875e+08
-6.097846e+08
-6.75163e+08
-7.900295e+08
-5.433452e+08
-5.774934e+08
-6.297062e+08
-7.119138e+08
-8.602925e+08
-5.197349e+08
-5.490907e+08
-5.925139e+08
-6.570388e+08
-7.579462e+08
0
-4.987684e+08
-5.244374e+08
-5.619154e+08
-6.154738e+08
-6.937622e+08
0
0
-4.804176e+08
-5.03307e+08
-5.363613e+08
-5.82751e+08
-6.477095e+08
0
0
0
-4.6442e+08
-4.851078e+08
-5.148531e+08
-5.560052e+08
-6.124241e+08
0
0
0
0
-4.503583e+08
-4.69278e+08
-4.963894e+08
-5.336155e+08
-5.838355e+08
0
0
0
0
0
-4.377585e+08
-4.55191e+08
-4.801416e+08
-5.141963e+08
-5.597118e+08
0
0
0
0
0
1.213573e+09
-4.260255e+08
-4.421472e+08
-4.652153e+08
-4.965834e+08
-5.381963e+08
0
0
0
0
0
1.040325e+09
1.132287e+09
-4.144183e+08
-4.293136e+08
-4.506449e+08
-4.795723e+08
-5.177447e+08
0
0
0
0
0
9.22188e+08
9.76017e+08
1.06576e+09
-4.022801e+08
-4.160292e+08
-4.357061e+08
-4.623359e+08
-4.97324e+08
0
0
0
0
0
8.321009e+08
8.666804e+08
9.238248e+08
1.011358e+09
-3.901893e+08
-4.02897e+08
-4.211007e+08
-4.456754e+08
-4.778514e+08
0
0
0
0
0
7.605352e+08
7.847428e+08
8.244578e+08
8.86358e+08
9.747135e+08
-3.789698e+08
-3.907669e+08
-4.076993e+08
-4.30537e+08
-4.603413e+08
0
0
0
0
0
7.023448e+08
7.205349e+08
7.503535e+08
7.961553e+08
8.643633e+08
-3.690654e+08
-3.800922e+08
-3.959536e+08
-4.173468e+08
-4.452156e+08
0
0
0
0
0
6.542218e+08
6.685808e+08
6.923372e+08
7.28368e+08
7.811564e+08
-3.605817e+08
-3.709846e+08
-3.859654e+08
-4.061736e+08
-4.324729e+08
0
0
0
0
0
6.138288e+08
6.256222e+08
6.453234e+08
6.750757e+08
7.179366e+08
-6.533893e+08
-6.1608e+08
-6.720446e+08
-5.867443e+08
-6.332903e+08
-7.07948e+08
-5.631386e+08
-6.018598e+08
-6.62568e+08
-7.6289e+08
-5.414453e+08
-5.746302e+08
-6.249434e+08
-7.028339e+08
-8.370956e+08
-5.19815e+08
-5.488291e+08
-5.91587e+08
-6.547174e+08
-7.522394e+08
0
-4.993667e+08
-5.249455e+08
-5.622309e+08
-6.153845e+08
-6.927639e+08
0
0
-4.808348e+08
-5.037109e+08
-5.367285e+08
-5.830319e+08
-6.477953e+08
0
0
0
-4.6442e+08
-4.851078e+08
-5.148531e+08
-5.560052e+08
-6.124241e+08
0
0
0
0
-4.499571e+08
-4.688768e+08
-4.959959e+08
-5.332443e+08
-5.835153e+08
0
0
0
0
0
-4.371522e+08
-4.545973e+08
-4.795773e+08
-5.136877e+08
-5.59304e+08
0
0
0
0
0
1.219959e+09
-4.256104e+08
-4.417885e+08
-4.649476e+08
-4.964573e+08
-5.382866e+08
0
0
0
0
0
1.045685e+09
1.143878e+09
-4.148181e+08
-4.298461e+08
-4.513826e+08
-4.806076e+08
-5.192058e+08
0
0
0
0
0
9.288402e+08
9.858256e+08
1.084998e+09
-4.040588e+08
-4.180222e+08
-4.380255e+08
-4.651264e+08
-5.007726e+08
0
0
0
0
0
8.404042e+08
8.77012e+08
9.382787e+08
1.037986e+09
-3.927342e+08
-4.056695e+08
-4.242162e+08
-4.492785e+08
-4.821312e+08
0
0
0
0
0
7.682394e+08
7.935396e+08
8.351702e+08
9.009176e+08
9.999963e+08
-3.814004e+08
-3.933881e+08
-4.106037e+08
-4.338395e+08
-4.641888e+08
0
0
0
0
0
7.082091e+08
7.269376e+08
7.57654e+08
8.05016e+08
8.763025e+08
-3.70851e+08
-3.820051e+08
-3.980572e+08
-4.197165e+08
-4.479465e+08
0
0
0
0
0
6.579856e+08
6.725852e+08
6.967451e+08
7.334365e+08
7.873532e+08
-3.615022e+08
-3.719647e+08
-3.870348e+08
-4.073689e+08
-4.338385e+08
0
0
0
0
0
6.156115e+08
6.274933e+08
6.473429e+08
6.773324e+08
7.2057e+08
-3.534869e+08
-3.633719e+08
-3.776451e+08
-3.968919e+08
-4.219212e+08
0
0
0
0
0
5.795747e+08
5.89538e+08
6.06407e+08
6.318148e+08
6.680743e+08
-6.476105e+08
-6.083841e+08
-6.600365e+08
-5.78512e+08
-6.222084e+08
-6.89238e+08
-5.558775e+08
-5.925217e+08
-6.490285e+08
-7.373466e+08
-5.368202e+08
-5.686773e+08
-6.165261e+08
-6.891982e+08
-8.072971e+08
-5.183962e+08
-5.467958e+08
-5.884512e+08
-6.494425e+08
-7.42124e+08
0
-4.995899e+08
-5.249576e+08
-5.618473e+08
-6.142479e+08
-6.90062e+08
0
0
-4.814542e+08
-5.042793e+08
-5.371896e+08
-5.83273e+08
-6.475816e+08
0
0
0
-4.64831e+08
-4.855144e+08
-5.152422e+08
-5.563511e+08
-6.126723e+08
0
0
0
0
-4.499571e+08
-4.688768e+08
-4.959959e+08
-5.332443e+08
-5.835153e+08
0
0
0
0
0
-4.367618e+08
-4.542049e+08
-4.791878e+08
-5.133099e+08
-5.589542e+08
0
0
0
0
0
1.222503e+09
-4.250148e+08
-4.412032e+08
-4.643842e+08
-4.959351e+08
-5.37836e+08
0
0
0
0
0
1.047955e+09
1.149589e+09
-4.14395e+08
-4.294709e+08
-4.510874e+08
-4.804326e+08
-5.192099e+08
0
0
0
0
0
9.317391e+08
9.906967e+08
1.095802e+09
-4.04405e+08
-4.184863e+08
-4.386715e+08
-4.660374e+08
-5.020566e+08
0
0
0
0
0
8.449963e+08
8.831188e+08
9.474723e+08
1.056599e+09
-3.943975e+08
-4.075263e+08
-4.263678e+08
-4.518527e+08
-4.852959e+08
0
0
0
0
0
7.747359e+08
8.012138e+08
8.449069e+08
9.148814e+08
1.026607e+09
-3.838056e+08
-3.96002e+08
-4.135305e+08
-4.372098e+08
-4.681697e+08
0
0
0
0
0
7.14654e+08
7.340848e+08
7.659621e+08
8.153504e+08
8.907053e+08
-3.731634e+08
-3.8449e+08
-4.008029e+08
-4.228275e+08
-4.515552e+08
0
0
0
0
0
6.630812e+08
6.78043e+08
7.028044e+08
7.404801e+08
7.960886e+08
-3.632076e+08
-3.737871e+08
-3.890317e+08
-4.096117e+08
-4.364137e+08
0
0
0
0
0
6.18957e+08
6.310064e+08
6.511401e+08
6.815885e+08
7.255617e+08
-3.543707e+08
-3.643105e+08
-3.786664e+08
-3.980292e+08
-4.232162e+08
0
0
0
0
0
5.811797e+08
5.912071e+08
6.081855e+08
6.337673e+08
6.702967e+08
-3.467797e+08
-3.561922e+08
-3.698093e+08
-3.881838e+08
-4.120486e+08
0
0
0
0
0
5.487116e+08
5.572727e+08
5.719578e+08
5.940957e+08
6.254545e+08
-6.045101e+08
-6.541456e+08
-5.725189e+08
-6.143547e+08
-6.766899e+08
-5.491168e+08
-5.841065e+08
-6.37417e+08
-7.17308e+08
-5.307139e+08
-5.612259e+08
-6.066919e+08
-6.746155e+08
-7.79263e+08
-5.14507e+08
-5.419935e+08
-5.820962e+08
-6.402614e+08
-7.270054e+08
0
-4.984762e+08
-5.234205e+08
-5.595835e+08
-6.107101e+08
-6.840794e+08
0
0
-4.817597e+08
-5.044414e+08
-5.370964e+08
-5.827188e+08
-6.461647e+08
0
0
0
-4.654531e+08
-4.861067e+08
-5.157694e+08
-5.567503e+08
-6.128181e+08
0
0
0
0
-4.503583e+08
-4.69278e+08
-4.963894e+08
-5.336155e+08
-5.838355e+08
0
0
0
0
0
-4.367618e+08
-4.542049e+08
-4.791878e+08
-5.133099e+08
-5.589542e+08
0
0
0
0
0
1.222503e+09
-4.24635e+08
-4.40821e+08
-4.640025e+08
-4.955597e+08
-5.374766e+08
0
0
0
0
0
1.04872e+09
1.151853e+09
-4.138113e+08
-4.288948e+08
-4.505299e+08
-4.799075e+08
-5.187395e+08
0
0
0
0
0
9.326969e+08
9.927466e+08
1.101112e+09
-4.039771e+08
-4.181005e+08
-4.383551e+08
-4.658276e+08
-5.020002e+08
0
0
0
0
0
8.467104e+08
8.857691e+08
9.520239e+08
1.067049e+09
-3.946975e+08
-4.079327e+08
-4.269378e+08
-4.526593e+08
-4.864357e+08
0
0
0
0
0
7.780956e+08
8.054444e+08
8.506432e+08
9.237399e+08
1.045216e+09
-3.853635e+08
-3.977386e+08
-4.155357e+08
-4.395989e+08
-4.710906e+08
0
0
0
0
0
7.199261e+08
7.401056e+08
7.732075e+08
8.247502e+08
9.045521e+08
-3.75445e+08
-3.869602e+08
-4.035618e+08
-4.259929e+08
-4.552776e+08
0
0
0
0
0
6.686059e+08
6.840375e+08
7.095672e+08
7.484994e+08
8.06289e+08
-3.654128e+08
-3.761509e+08
-3.916341e+08
-4.125517e+08
-4.398114e+08
0
0
0
0
0
6.234595e+08
6.357603e+08
6.563147e+08
6.874399e+08
7.325018e+08
-3.560035e+08
-3.660507e+08
-3.805684e+08
-4.001575e+08
-4.256521e+08
0
0
0
0
0
5.841901e+08
5.943369e+08
6.115226e+08
6.374374e+08
6.744884e+08
-3.476297e+08
-3.570932e+08
-3.70787e+08
-3.892695e+08
-4.1328e+08
0
0
0
0
0
5.501699e+08
5.587786e+08
5.735469e+08
5.95817e+08
6.273779e+08
-3.404506e+08
-3.49405e+08
-3.624208e+08
-3.799863e+08
-4.027918e+08
0
0
0
0
0
5.206783e+08
5.281446e+08
5.411079e+08
5.606754e+08
5.88286e+08
-5.694635e+08
-6.104015e+08
-6.705331e+08
-5.441175e+08
-5.779872e+08
-6.291994e+08
-7.038783e+08
-5.249152e+08
-5.543114e+08
-5.97866e+08
-6.621514e+08
-7.572978e+08
-5.092052e+08
-5.357226e+08
-5.742371e+08
-6.29642e+08
-7.109314e+08
0
-4.951015e+08
-5.193751e+08
-5.544389e+08
-6.037409e+08
-6.738283e+08
0
0
-4.808564e+08
-5.032217e+08
-5.35359e+08
-5.801203e+08
-6.420803e+08
0
0
0
-4.658068e+08
-4.863568e+08
-5.158387e+08
-5.565123e+08
-6.120396e+08
0
0
0
0
-4.509747e+08
-4.698755e+08
-4.96945e+08
-5.340894e+08
-5.84157e+08
0
0
0
0
0
-4.371522e+08
-4.545973e+08
-4.795773e+08
-5.136877e+08
-5.59304e+08
0
0
0
0
0
1.219959e+09
-4.24635e+08
-4.40821e+08
-4.640025e+08
-4.955597e+08
-5.374766e+08
0
0
0
0
0
1.04872e+09
1.151853e+09
-4.13442e+08
-4.285226e+08
-4.501576e+08
-4.795385e+08
-5.183803e+08
0
0
0
0
0
9.329044e+08
9.934324e+08
1.103211e+09
-4.034056e+08
-4.175349e+08
-4.378048e+08
-4.653052e+08
-5.015219e+08
0
0
0
0
0
8.470621e+08
8.866379e+08
9.539331e+08
1.07219e+09
-3.94267e+08
-4.075398e+08
-4.266068e+08
-4.524219e+08
-4.863348e+08
0
0
0
0
0
7.791294e+08
8.07015e+08
8.531235e+08
9.281197e+08
1.055691e+09
-3.85621e+08
-3.980954e+08
-4.160412e+08
-4.403185e+08
-4.721089e+08
0
0
0
0
0
7.224781e+08
7.432071e+08
7.771864e+08
8.30269e+08
9.133188e+08
-3.76911e+08
-3.885872e+08
-4.054379e+08
-4.282204e+08
-4.579895e+08
0
0
0
0
0
6.730063e+08
6.889342e+08
7.152597e+08
7.554935e+08
8.155779e+08
-3.675825e+08
-3.78494e+08
-3.942411e+08
-4.155349e+08
-4.433063e+08
0
0
0
0
0
6.282853e+08
6.409106e+08
6.619963e+08
6.939721e+08
7.404096e+08
-3.581121e+08
-3.683046e+08
-3.830433e+08
-4.029432e+08
-4.288615e+08
0
0
0
0
0
5.882223e+08
5.985468e+08
6.160374e+08
6.424391e+08
6.802533e+08
-3.491957e+08
-3.587592e+08
-3.726028e+08
-3.912958e+08
-4.155903e+08
0
0
0
0
0
5.52905e+08
5.616007e+08
5.765247e+08
5.990456e+08
6.309932e+08
-3.412696e+08
-3.502714e+08
-3.633591e+08
-3.810251e+08
-4.039665e+08
0
0
0
0
0
5.22014e+08
5.295154e+08
5.425436e+08
5.622148e+08
5.899821e+08
-3.344608e+08
-3.430005e+08
-3.554375e+08
-3.722596e+08
-3.940829e+08
0
0
0
0
0
4.950446e+08
5.016388e+08
5.132181e+08
5.307201e+08
5.55344e+08
-5.415475e+08
-5.748681e+08
-6.250638e+08
-6.972886e+08
-5.205839e+08
-5.492056e+08
-5.914609e+08
-6.533477e+08
-7.425939e+08
-5.041012e+08
-5.297904e+08
-5.66982e+08
-6.20161e+08
-6.972478e+08
0
-4.903927e+08
-5.139282e+08
-5.478191e+08
-5.952415e+08
-6.620981e+08
0
0
-4.778682e+08
-4.997076e+08
-5.310149e+08
-5.744571e+08
-6.342592e+08
0
0
0
-4.650561e+08
-4.853578e+08
-5.144415e+08
-5.544868e+08
-6.089908e+08
0
0
0
0
-4.513578e+08
-4.701786e+08
-4.97112e+08
-5.340321e+08
-5.837307e+08
0
0
0
0
0
-4.377585e+08
-4.55191e+08
-4.801416e+08
-5.141963e+08
-5.597118e+08
0
0
0
0
0
1.213573e+09
-4.250148e+08
-4.412032e+08
-4.643842e+08
-4.959351e+08
-5.37836e+08
0
0
0
0
0
1.047955e+09
1.149589e+09
-4.13442e+08
-4.285226e+08
-4.501576e+08
-4.795385e+08
-5.183803e+08
0
0
0
0
0
9.329044e+08
9.934324e+08
1.103211e+09
-4.030465e+08
-4.171728e+08
-4.374417e+08
-4.649445e+08
-5.011676e+08
0
0
0
0
0
8.4702e+08
8.868224e+08
9.545696e+08
1.074227e+09
-3.937077e+08
-4.069854e+08
-4.260653e+08
-4.519041e+08
-4.858554e+08
0
0
0
0
0
7.791474e+08
8.073307e+08
8.53932e+08
9.299574e+08
1.060871e+09
-3.851876e+08
-3.976979e+08
-4.156997e+08
-4.400611e+08
-4.719722e+08
0
0
0
0
0
7.230851e+08
7.441524e+08
7.786551e+08
8.326485e+08
9.176542e+08
-3.771325e+08
-3.888983e+08
-4.058879e+08
-4.28866e+08
-4.589062e+08
0
0
0
0
0
6.75003e+08
6.912924e+08
7.181784e+08
7.593179e+08
8.210124e+08
-3.689651e+08
-3.800253e+08
-3.959996e+08
-4.176198e+08
-4.458358e+08
0
0
0
0
0
6.320404e+08
6.45005e+08
6.666316e+08
6.99468e+08
7.47309e+08
-3.601815e+08
-3.705327e+08
-3.855158e+08
-4.057615e+08
-4.321542e+08
0
0
0
0
0
5.925021e+08
6.030548e+08
6.209262e+08
6.479311e+08
6.866923e+08
-3.512155e+08
-3.609142e+08
-3.749623e+08
-3.939441e+08
-4.186299e+08
0
0
0
0
0
5.565537e+08
5.653786e+08
5.805292e+08
6.034135e+08
6.359215e+08
-3.427743e+08
-3.518691e+08
-3.650969e+08
-3.829588e+08
-4.06165e+08
0
0
0
0
0
5.245202e+08
5.320843e+08
5.452328e+08
5.650985e+08
5.931634e+08
-3.352516e+08
-3.438352e+08
-3.563395e+08
-3.73256e+08
-3.952062e+08
0
0
0
0
0
4.96276e+08
5.028966e+08
5.145269e+08
5.321122e+08
5.568614e+08
-3.287899e+08
-3.369395e+08
-3.488488e+08
-3.649592e+08
-3.858786e+08
0
0
0
0
0
4.714805e+08
4.773605e+08
4.878056e+08
5.036161e+08
5.25808e+08
-5.183437e+08
-5.465815e+08
-5.881974e+08
-6.489185e+08
-7.353795e+08
-5.002623e+08
-5.253662e+08
-5.616374e+08
-6.13299e+08
-6.87606e+08
0
-4.858155e+08
-5.087061e+08
-5.415937e+08
-5.874462e+08
-6.516873e+08
0
0
-4.736228e+08
-4.94869e+08
-5.252624e+08
-5.672922e+08
-6.248602e+08
0
0
0
-4.623701e+08
-4.822439e+08
-5.10662e+08
-5.496924e+08
-6.026129e+08
0
0
0
0
-4.507235e+08
-4.693406e+08
-4.959536e+08
-5.323811e+08
-5.813202e+08
0
0
0
0
0
-4.381601e+08
-4.555276e+08
-4.803694e+08
-5.142507e+08
-5.594911e+08
0
0
0
0
0
1.20069e+09
-4.256104e+08
-4.417885e+08
-4.649476e+08
-4.964573e+08
-5.382866e+08
0
0
0
0
0
1.045685e+09
1.143878e+09
-4.138113e+08
-4.288948e+08
-4.505299e+08
-4.799075e+08
-5.187395e+08
0
0
0
0
0
9.326969e+08
9.927466e+08
1.101112e+09
-4.030465e+08
-4.171728e+08
-4.374417e+08
-4.649445e+08
-5.011676e+08
0
0
0
0
0
8.4702e+08
8.868224e+08
9.545696e+08
1.074227e+09
-3.933583e+08
-4.06633e+08
-4.257116e+08
-4.515517e+08
-4.85508e+08
0
0
0
0
0
7.789729e+08
8.072872e+08
8.541013e+08
9.30571e+08
1.062933e+09
-3.84639e+08
-3.971547e+08
-4.151679e+08
-4.395498e+08
-4.71494e+08
0
0
0
0
0
7.229046e+08
7.4416e+08
7.789445e+08
8.33422e+08
9.194802e+08
-3.766982e+08
-3.884962e+08
-4.055389e+08
-4.285933e+08
-4.587424e+08
0
0
0
0
0
6.753319e+08
6.91843e+08
7.190586e+08
7.607215e+08
8.233503e+08
-3.691545e+08
-3.802977e+08
-3.963987e+08
-4.182014e+08
-4.466656e+08
0
0
0
0
0
6.336417e+08
6.468508e+08
6.688507e+08
7.022707e+08
7.510637e+08
-3.614898e+08
-3.719773e+08
-3.871715e+08
-4.077168e+08
-4.345226e+08
0
0
0
0
0
5.957653e+08
6.065545e+08
6.248062e+08
6.524074e+08
6.921085e+08
-3.531931e+08
-3.63039e+08
-3.77313e+08
-3.966165e+08
-4.217399e+08
0
0
0
0
0
5.603946e+08
5.693842e+08
5.848143e+08
6.081427e+08
6.413347e+08
-3.447123e+08
-3.539331e+08
-3.673523e+08
-3.854827e+08
-4.090533e+08
0
0
0
0
0
5.278525e+08
5.355095e+08
5.488315e+08
5.689762e+08
5.974683e+08
-3.367008e+08
-3.453702e+08
-3.580057e+08
-3.75106e+08
-3.973031e+08
0
0
0
0
0
4.985882e+08
5.052549e+08
5.169784e+08
5.347187e+08
5.597039e+08
-3.295549e+08
-3.377454e+08
-3.497175e+08
-3.659166e+08
-3.869554e+08
0
0
0
0
0
4.726213e+08
4.78522e+08
4.890081e+08
5.048862e+08
5.271807e+08
-3.234118e+08
-3.312012e+08
-3.426144e+08
-3.580731e+08
-3.781312e+08
0
0
0
0
0
4.497269e+08
4.550067e+08
4.644997e+08
4.788994e+08
4.990745e+08
-4.982672e+08
-5.230788e+08
-5.588921e+08
-6.098046e+08
-6.82757e+08
0
-4.823559e+08
-5.047848e+08
-5.36963e+08
-5.817218e+08
-6.441764e+08
0
0
-4.694656e+08
-4.901859e+08
-5.197823e+08
-5.606035e+08
-6.163021e+08
0
0
0
-4.584987e+08
-4.778812e+08
-5.055511e+08
-5.434638e+08
-5.946853e+08
0
0
0
0
-4.482825e+08
-4.665404e+08
-4.926009e+08
-5.282027e+08
-5.759078e+08
0
0
0
0
0
-4.376188e+08
-4.548131e+08
-4.793866e+08
-5.12865e+08
-5.575024e+08
0
0
0
0
0
1.177944e+09
-4.260255e+08
-4.421472e+08
-4.652153e+08
-4.965834e+08
-5.381963e+08
0
0
0
0
0
1.040325e+09
1.132287e+09
-4.14395e+08
-4.294709e+08
-4.510874e+08
-4.804326e+08
-5.192099e+08
0
0
0
0
0
9.317391e+08
9.906967e+08
1.095802e+09
-4.034056e+08
-4.17535e+08
-4.378048e+08
-4.653052e+08
-5.015219e+08
0
0
0
0
0
8.470621e+08
8.866379e+08
9.539331e+08
1.07219e+09
-3.933583e+08
-4.06633e+08
-4.257116e+08
-4.515517e+08
-4.85508e+08
0
0
0
0
0
7.789729e+08
8.072872e+08
8.541013e+08
9.30571e+08
1.062933e+09
-3.842982e+08
-3.968116e+08
-4.148233e+08
-4.39206e+08
-4.711539e+08
0
0
0
0
0
7.226552e+08
7.439937e+08
7.788996e+08
8.335835e+08
9.200938e+08
-3.761601e+08
-3.879627e+08
-4.050168e+08
-4.280897e+08
-4.582679e+08
0
0
0
0
0
6.750308e+08
6.916656e+08
7.190571e+08
7.609935e+08
8.241107e+08
-3.687198e+08
-3.798931e+08
-3.960422e+08
-4.17917e+08
-4.464804e+08
0
0
0
0
0
6.33785e+08
6.471428e+08
6.693584e+08
7.031069e+08
7.52434e+08
-3.616515e+08
-3.722151e+08
-3.875272e+08
-4.082399e+08
-4.352772e+08
0
0
0
0
0
5.970772e+08
6.080346e+08
6.265424e+08
6.545363e+08
6.948542e+08
-3.544339e+08
-3.644063e+08
-3.788755e+08
-3.984583e+08
-4.239622e+08
0
0
0
0
0
5.632724e+08
5.7243e+08
5.88134e+08
6.118908e+08
6.457437e+08
-3.46604e+08
-3.559635e+08
-3.695936e+08
-3.88023e+08
-4.120013e+08
0
0
0
0
0
5.31336e+08
5.391108e+08
5.526442e+08
5.731245e+08
6.021301e+08
-3.38565e+08
-3.473504e+08
-3.601653e+08
-3.775177e+08
-4.000545e+08
0
0
0
0
0
5.016545e+08
5.083886e+08
5.202455e+08
5.382066e+08
5.635266e+08
-3.309531e+08
-3.392235e+08
-3.51318e+08
-3.676897e+08
-3.889605e+08
0
0
0
0
0
4.747658e+08
4.807015e+08
4.912615e+08
5.072644e+08
5.297509e+08
-3.24153e+08
-3.319806e+08
-3.434528e+08
-3.589947e+08
-3.791651e+08
0
0
0
0
0
4.507887e+08
4.560844e+08
4.656114e+08
4.800672e+08
5.003273e+08
-3.183148e+08
-3.257592e+08
-3.367125e+08
-3.515589e+08
-3.70826e+08
0
0
0
0
0
4.295584e+08
4.343396e+08
4.430159e+08
4.562139e+08
4.746875e+08
-4.805505e+08
-5.027476e+08
-5.345703e+08
-5.787837e+08
-6.403541e+08
0
0
-4.66312e+08
-4.86652e+08
-5.156786e+08
-5.556456e+08
-6.100409e+08
0
0
0
-4.546858e+08
-4.73628e+08
-5.00637e+08
-5.375772e+08
-5.87345e+08
0
0
0
0
-4.44721e+08
-4.625621e+08
-4.879924e+08
-5.226682e+08
-5.690151e+08
0
0
0
0
0
-4.353829e+08
-4.522675e+08
-4.763693e+08
-5.09154e+08
-5.527779e+08
0
0
0
0
0
1.145709e+09
-4.255618e+08
-4.415318e+08
-4.643683e+08
-4.953948e+08
-5.365093e+08
0
0
0
0
0
1.029578e+09
1.111711e+09
-4.148182e+08
-4.298461e+08
-4.513826e+08
-4.806076e+08
-5.192058e+08
0
0
0
0
0
9.288402e+08
9.858256e+08
1.084998e+09
-4.039771e+08
-4.181005e+08
-4.383551e+08
-4.658276e+08
-5.020002e+08
0
0
0
0
0
8.467104e+08
8.857691e+08
9.520239e+08
1.067049e+09
-3.937077e+08
-4.069854e+08
-4.260653e+08
-4.519041e+08
-4.858554e+08
0
0
0
0
0
7.791474e+08
8.073307e+08
8.53932e+08
9.299574e+08
1.060871e+09
-3.842982e+08
-3.968116e+08
-4.148233e+08
-4.39206e+08
-4.711539e+08
0
0
0
0
0
7.226552e+08
7.439937e+08
7.788996e+08
8.335835e+08
9.200938e+08
-3.758275e+08
-3.876279e+08
-4.046811e+08
-4.277545e+08
-4.579355e+08
0
0
0
0
0
6.747394e+08
6.914288e+08
7.188957e+08
7.609474e+08
8.242702e+08
-3.681915e+08
-3.793694e+08
-3.955287e+08
-4.174215e+08
-4.460112e+08
0
0
0
0
0
6.334115e+08
6.468519e+08
6.69181e+08
7.030975e+08
7.526957e+08
-3.612174e+08
-3.718085e+08
-3.871658e+08
-4.079444e+08
-4.350749e+08
0
0
0
0
0
5.970947e+08
6.081535e+08
6.268052e+08
6.55013e+08
6.956643e+08
-3.545707e+08
-3.646141e+08
-3.791924e+08
-3.989313e+08
-4.246482e+08
0
0
0
0
0
5.643672e+08
5.736422e+08
5.895253e+08
6.135546e+08
6.478257e+08
-3.477808e+08
-3.572606e+08
-3.710731e+08
-3.897619e+08
-4.140954e+08
0
0
0
0
0
5.339073e+08
5.418006e+08
5.555362e+08
5.763326e+08
6.058207e+08
-3.4038e+08
-3.492925e+08
-3.623067e+08
-3.799392e+08
-4.028559e+08
0
0
0
0
0
5.04842e+08
5.116604e+08
5.236778e+08
5.419004e+08
5.676166e+08
-3.327495e+08
-3.41128e+08
-3.533895e+08
-3.699983e+08
-3.915883e+08
0
0
0
0
0
4.776033e+08
4.8359e+08
4.942547e+08
5.104335e+08
5.331904e+08
-3.255042e+08
-3.334066e+08
-3.449935e+08
-3.606972e+08
-3.810859e+08
0
0
0
0
0
4.527873e+08
4.581091e+08
4.676967e+08
4.822552e+08
5.026732e+08
-3.190343e+08
-3.265143e+08
-3.375232e+08
-3.52448e+08
-3.718208e+08
0
0
0
0
0
4.30551e+08
4.353442e+08
4.440486e+08
4.572945e+08
4.758398e+08
-3.134838e+08
-3.206018e+08
-3.311161e+08
-3.453936e+08
-3.639181e+08
0
0
0
0
0
4.107842e+08
4.151515e+08
4.231314e+08
4.352866e+08
4.52297e+08
-4.646603e+08
-4.848087e+08
-5.135482e+08
-5.530861e+08
-6.0683e+08
0
0
0
-4.517844e+08
-4.704068e+08
-4.969396e+08
-5.331853e+08
-5.81926e+08
0
0
0
0
-4.411963e+08
-4.586613e+08
-4.835303e+08
-5.173913e+08
-5.625583e+08
0
0
0
0
0
-4.320851e+08