/*--------------------------------*- C++ -*----------------------------------*\
| =========                 |                                                 |
| \\      /  F ield         | OpenFOAM: The Open Source CFD Toolbox           |
|  \\    /   O peration     | Version:  2306                                  |
|   \\  /    A nd           | Website:  www.openfoam.com                      |
|    \\/     M anipulation  |                                                 |
\*---------------------------------------------------------------------------*/
FoamFile
{
    version     2.0;
    format      ascii;
    arch        "LSB;label=32;scalar=64";
    class       volScalarField;
    location    "0.3/phiI";
    object      phi;
}
// * * * * * * * * * * * * * * * * * * * * * * * * * * * * * * * * * * * * * //

dimensions      [1 2 -3 0 0 -1 0];

internalField   nonuniform List<scalar> 
12000
(
1.551313
1.551365
1.5486
1.552059
1.551494
1.548592
1.552117
1.546063
1.549292
1.553612
1.551695
1.548596
1.552258
1.546028
1.549288
1.553684
1.544035
1.54671
1.550729
1.555993
1.55196
1.548614
1.552478
1.545974
1.5493
1.55385
1.543986
1.546678
1.550733
1.556084
1.542403
1.544645
1.548049
1.552929
1.55923
1.55223
1.548657
1.552768
1.54591
1.54933
1.554108
1.543904
1.546631
1.550762
1.556289
1.542346
1.544599
1.548023
1.552946
1.559348
1.541075
1.542983
1.545905
1.550095
1.555917
1.563368
1.552399
1.548718
1.553062
1.545855
1.549386
1.554446
1.543799
1.546575
1.550815
1.556606
1.542247
1.544522
1.547989
1.553
1.559607
1.541014
1.542929
1.545864
1.550079
1.555952
1.56352
1.539975
1.54163
1.544177
1.547828
1.552873
1.559733
1.567623
1.552454
1.548761
1.553251
1.545825
1.54946
1.554792
1.543694
1.54653
1.550899
1.557017
1.542118
1.544424
1.547951
1.553089
1.560004
1.540905
1.542834
1.545798
1.550064
1.556041
1.563849
1.539912
1.541571
1.544127
1.547795
1.55287
1.559791
1.56781
1.539055
1.540508
1.542768
1.545998
1.550436
1.556416
1.56365
1.571997
1.552446
1.548768
1.553318
1.545817
1.549511
1.555019
1.543618
1.546507
1.550998
1.55744
1.541984
1.544327
1.547924
1.553214
1.560517
1.540761
1.542711
1.545714
1.550053
1.556179
1.56435
1.539796
1.541466
1.544042
1.547745
1.552882
1.559925
1.56821
1.53899
1.540446
1.542713
1.545955
1.550415
1.556431
1.563731
1.57222
1.538276
1.539567
1.541596
1.5445
1.548465
1.553761
1.560044
1.567669
1.576492
1.552429
1.548755
1.553318
1.54581
1.549523
1.55511
1.543585
1.546504
1.551065
1.557726
1.541882
1.544258
1.547919
1.553351
1.561046
1.54061
1.542584
1.545632
1.550057
1.556362
1.564994
1.539643
1.541327
1.543931
1.547683
1.552908
1.560127
1.568815
1.538871
1.540334
1.542616
1.545884
1.550386
1.556478
1.563909
1.57269
1.53821
1.539504
1.541538
1.544452
1.548433
1.553754
1.560077
1.567773
1.57675
1.53761
1.538769
1.540612
1.543252
1.546848
1.551609
1.557157
1.563757
1.571791
1.581106
1.552429
1.548743
1.553304
1.545802
1.549512
1.555123
1.543571
1.546499
1.551086
1.557854
1.541833
1.544227
1.547925
1.553445
1.561412
1.540492
1.542487
1.545575
1.550077
1.556553
1.565662
1.539481
1.541182
1.543816
1.547624
1.552952
1.560384
1.569592
1.538712
1.540185
1.542487
1.545791
1.550354
1.556551
1.564175
1.573401
1.538088
1.539388
1.541433
1.544367
1.54838
1.553754
1.560158
1.567997
1.577292
1.537543
1.538705
1.540551
1.543199
1.546808
1.551589
1.557165
1.563808
1.571918
1.581401
1.537037
1.538087
1.539774
1.542199
1.545494
1.549836
1.554813
1.560625
1.567557
1.576016
1.58584
1.552446
1.548743
1.553304
1.545796
1.5495
1.555115
1.543566
1.546491
1.551079
1.557888
1.541815
1.544214
1.547924
1.553478
1.56159
1.540434
1.54244
1.545551
1.550097
1.556681
1.566132
1.539353
1.541068
1.543729
1.547587
1.553008
1.560645
1.570398
1.538543
1.540028
1.542353
1.545696
1.550328
1.55665
1.564509
1.574311
1.537925
1.539233
1.541294
1.544255
1.548312
1.553761
1.560279
1.568327
1.578109
1.53742
1.538586
1.540442
1.543106
1.546739
1.551561
1.557193
1.563924
1.572188
1.582016
1.53697
1.538022
1.539713
1.542144
1.545449
1.549808
1.554805
1.560647
1.567626
1.576167
1.586172
1.536542
1.537499
1.539056
1.541301
1.544348
1.548347
1.552876
1.558077
1.564165
1.571444
1.580344
1.589555
1.552454
1.548755
1.553318
1.545796
1.5495
1.555115
1.543563
1.546485
1.551069
1.557889
1.54181
1.544209
1.547917
1.553478
1.561652
1.540413
1.542422
1.54554
1.550102
1.556733
1.566376
1.539289
1.541011
1.543686
1.547572
1.553049
1.560819
1.570972
1.538409
1.539904
1.542247
1.545624
1.550317
1.556752
1.56484
1.575257
1.537752
1.539068
1.541147
1.544137
1.548245
1.553778
1.560432
1.568736
1.579154
1.537256
1.538427
1.540296
1.542981
1.546649
1.551526
1.557238
1.564093
1.572583
1.58294
1.536847
1.537902
1.5396
1.542045
1.54537
1.549761
1.554801
1.560704
1.567776
1.576482
1.58686
1.536476
1.537434
1.538994
1.541244
1.5443
1.548312
1.552858
1.558083
1.564203
1.571531
1.580518
1.589915
1.536112
1.53699
1.538435
1.540526
1.543365
1.54708
1.551243
1.555966
1.561403
1.567779
1.575417
1.583743
1.592309
1.552399
1.548768
1.553318
1.545802
1.549512
1.555123
1.543563
1.546485
1.551069
1.557889
1.541809
1.544206
1.547911
1.55347
1.561666
1.540408
1.542416
1.545534
1.550097
1.556741
1.566474
1.539265
1.54099
1.543669
1.547564
1.553063
1.560896
1.57128
1.53834
1.53984
1.542194
1.545588
1.550316
1.55682
1.565059
1.575935
1.537614
1.538937
1.541029
1.544044
1.548194
1.553802
1.560582
1.569139
1.580241
1.537081
1.538258
1.54014
1.542848
1.546555
1.551494
1.557298
1.5643
1.573069
1.584121
1.536681
1.537741
1.539449
1.541911
1.545265
1.5497
1.5548
1.560788
1.567994
1.576943
1.587892
1.536352
1.537313
1.538879
1.54114
1.544213
1.548253
1.552832
1.558103
1.564288
1.571716
1.58088
1.590659
1.536046
1.536925
1.538372
1.540469
1.543314
1.547041
1.551218
1.55596
1.561421
1.567832
1.575523
1.583936
1.59269
1.535735
1.536547
1.537896
1.539854
1.542514
1.545989
1.549848
1.554181
1.559109
1.564792
1.571467
1.578541
1.586264
1.594144
1.55223
1.548761
1.553251
1.54581
1.549523
1.55511
1.543566
1.546491
1.551079
1.557888
1.541809
1.544206
1.547911
1.55347
1.561666
1.540408
1.542415
1.54553
1.550092
1.556737
1.566504
1.53926
1.540984
1.543663
1.547557
1.55306
1.560916
1.571414
1.538316
1.539817
1.542173
1.545572
1.550312
1.556845
1.565161
1.576307
1.537543
1.538869
1.540968
1.543996
1.548168
1.553818
1.560677
1.569405
1.581022
1.53694
1.538123
1.540015
1.542742
1.54648
1.551471
1.557357
1.564497
1.573543
1.585349
1.536505
1.537569
1.539288
1.541769
1.545153
1.549636
1.554803
1.56089
1.568255
1.577506
1.589211
1.536186
1.53715
1.538725
1.541001
1.544098
1.548173
1.5528
1.558134
1.564411
1.571982
1.581407
1.591776
1.535922
1.536803
1.538256
1.540362
1.543223
1.546973
1.551177
1.555955
1.561466
1.567945
1.575742
1.584334
1.593475
1.53567
1.536482
1.537833
1.539796
1.542462
1.545947
1.549819
1.554167
1.559113
1.564822
1.571534
1.57866
1.586471
1.594538
1.535405
1.536158
1.537425
1.539268
1.541772
1.54504
1.548643
1.552653
1.557164
1.562304
1.568242
1.574367
1.580859
1.587943
1.595084
1.55196
1.548718
1.553062
1.545817
1.549511
1.555019
1.543571
1.546499
1.551086
1.557854
1.54181
1.544209
1.547917
1.553478
1.561652
1.540408
1.542415
1.54553
1.550092
1.556737
1.566504
1.539261
1.540984
1.543661
1.547554
1.553055
1.560916
1.571459
1.538311
1.539811
1.542166
1.545565
1.550306
1.556847
1.565192
1.576476
1.537518
1.538845
1.540944
1.543975
1.548153
1.55382
1.560713
1.56953
1.581457
1.536868
1.538053
1.539949
1.542685
1.546439
1.551458
1.557392
1.56462
1.573856
1.586235
1.536364
1.537431
1.539158
1.541653
1.545062
1.549584
1.554808
1.560985
1.568501
1.578053
1.590583
1.536009
1.536977
1.538561
1.540852
1.543974
1.548088
1.552766
1.558172
1.564556
1.572299
1.582048
1.593201
1.535757
1.536641
1.538101
1.540219
1.5431
1.54688
1.551123
1.555951
1.561529
1.568107
1.576057
1.584911
1.594653
1.535547
1.536361
1.537716
1.539688
1.542367
1.545872
1.549767
1.554145
1.55913
1.564891
1.571676
1.578907
1.586895
1.595351
1.53534
1.536094
1.537362
1.53921
1.541719
1.544996
1.548609
1.552632
1.557159
1.56232
1.568285
1.574446
1.580988
1.588159
1.595485
1.535116
1.535817
1.53701
1.538754
1.541122
1.544208
1.54759
1.551326
1.555494
1.560191
1.565552
1.570958
1.57652
1.582402
1.588803
1.551695
1.548657
1.552768
1.545825
1.54946
1.554792
1.543585
1.546504
1.551065
1.557726
1.541815
1.544214
1.547924
1.553478
1.56159
1.540408
1.542416
1.545534
1.550097
1.556741
1.566474
1.539261
1.540984
1.543661
1.547554
1.553055
1.560916
1.571459
1.538311
1.539811
1.542165
1.545562
1.550301
1.556842
1.565197
1.576535
1.537514
1.538839
1.540938
1.543967
1.548145
1.553814
1.560718
1.569573
1.58166
1.536844
1.538027
1.539924
1.542661
1.546418
1.551447
1.5574
1.564668
1.574006
1.586732
1.536292
1.53736
1.539089
1.541591
1.54501
1.549553
1.554809
1.561039
1.568651
1.578413
1.591572
1.535868
1.536838
1.538428
1.54073
1.543871
1.548017
1.552738
1.558206
1.564687
1.572593
1.582669
1.594683
1.535581
1.536467
1.537935
1.540066
1.542968
1.54678
1.551065
1.555948
1.561603
1.568295
1.576429
1.585613
1.596156
1.535382
1.536198
1.53756
1.539542
1.542239
1.54577
1.549697
1.554116
1.559154
1.564987
1.571876
1.579259
1.58751
1.596569
1.535218
1.535973
1.537245
1.5391
1.541622
1.544916
1.548549
1.552597
1.557156
1.562357
1.568377
1.57461
1.581255
1.5886
1.596312
1.535052
1.535753
1.536948
1.538695
1.541068
1.544163
1.547554
1.551301
1.555482
1.560196
1.565578
1.571011
1.576608
1.582538
1.589023
1.534862
1.535517
1.536644
1.538299
1.540548
1.543475
1.546663
1.550164
1.55404
1.558372
1.563263
1.56811
1.572974
1.577953
1.58319
1.551494
1.548614
1.552478
1.545855
1.549386
1.554446
1.543618
1.546507
1.550998
1.55744
1.541833
1.544227
1.547925
1.553445
1.561412
1.540413
1.542422
1.54554
1.550102
1.556733
1.566376
1.53926
1.540984
1.543663
1.547557
1.55306
1.560916
1.571414
1.538311
1.539811
1.542165
1.545562
1.550301
1.556842
1.565197
1.576535
1.537515
1.53884
1.540937
1.543964
1.548141
1.553809
1.560714
1.569582
1.581734
1.53684
1.538022
1.539917
1.542652
1.546408
1.551437
1.557394
1.564677
1.574059
1.586968
1.536267
1.537335
1.539064
1.541565
1.544986
1.549533
1.5548
1.561053
1.568712
1.578588
1.592132
1.535796
1.536767
1.538358
1.540665
1.543814
1.547973
1.552717
1.55822
1.564759
1.572772
1.583077
1.595753
1.53544
1.536328
1.5378
1.539941
1.542858
1.546695
1.551013
1.555943
1.561666
1.568462
1.576773
1.586291
1.597719
1.535207
1.536025
1.537393
1.539386
1.542101
1.545659
1.549621
1.554084
1.559181
1.565096
1.572108
1.579675
1.588256
1.598123
1.535054
1.535811
1.537089
1.538953
1.54149
1.544807
1.548468
1.55255
1.557152
1.56241
1.568506
1.574841
1.581635
1.58924
1.59755
1.53493
1.535633
1.536831
1.538585
1.540969
1.544079
1.547488
1.551257
1.555464
1.560212
1.565637
1.571122
1.576788
1.582818
1.589473
1.534799
1.535454
1.536583
1.538241
1.540494
1.543429
1.546625
1.550135
1.554023
1.558369
1.563278
1.568145
1.573034
1.578046
1.58333
1.534639
1.535254
1.536322
1.537896
1.540038
1.542825
1.545843
1.549138
1.552763
1.556785
1.561287
1.565683
1.570009
1.574315
1.578684
1.551365
1.548596
1.552258
1.54591
1.54933
1.554108
1.543694
1.54653
1.550899
1.557017
1.541882
1.544258
1.547919
1.553351
1.561046
1.540434
1.54244
1.545551
1.550097
1.556681
1.566132
1.539265
1.54099
1.543669
1.547564
1.553063
1.560896
1.57128
1.538311
1.539811
1.542166
1.545565
1.550306
1.556847
1.565192
1.576476
1.537515
1.53884
1.540937
1.543964
1.548141
1.553809
1.560714
1.569582
1.581734
1.536841
1.538023
1.539917
1.54265
1.546404
1.551431
1.557388
1.564674
1.574072
1.587056
1.536264
1.53733
1.539057
1.541557
1.544976
1.549522
1.554789
1.561047
1.568724
1.578652
1.592399
1.535772
1.536742
1.538332
1.540638
1.543787
1.547949
1.552699
1.558214
1.564779
1.572844
1.583276
1.59636
1.535369
1.536256
1.53773
1.539873
1.542796
1.546644
1.550978
1.555932
1.561693
1.568554
1.576981
1.586736
1.598848
1.535068
1.535886
1.537257
1.539259
1.541987
1.545565
1.549554
1.554053
1.5592
1.565187
1.572312
1.580057
1.588976
1.59974
1.534881
1.535639
1.536921
1.538795
1.541348
1.544689
1.548379
1.552498
1.557147
1.562467
1.568651
1.575106
1.582082
1.590015
1.599131
1.534768
1.535472
1.536675
1.538437
1.540835
1.543965
1.547398
1.551196
1.55544
1.560233
1.565717
1.571276
1.577041
1.583216
1.590125
1.534679
1.535334
1.536467
1.53813
1.540393
1.543342
1.546555
1.550084
1.553994
1.558368
1.563312
1.56822
1.573159
1.578237
1.583616
1.534576
1.535191
1.536261
1.537838
1.539984
1.542778
1.545803
1.549106
1.552742
1.556776
1.561293
1.565705
1.570051
1.57438
1.578779
1.534441
1.535021
1.536037
1.537538
1.539583
1.542244
1.545113
1.548226
1.551632
1.555387
1.559561
1.563586
1.56748
1.571272
1.574998
1.551313
1.548592
1.552117
1.545974
1.5493
1.55385
1.543799
1.546575
1.550815
1.556606
1.541984
1.544327
1.547924
1.553214
1.560517
1.540492
1.542487
1.545575
1.550077
1.556553
1.565662
1.539289
1.541011
1.543686
1.547572
1.553049
1.560819
1.570972
1.538316
1.539817
1.542173
1.545572
1.550312
1.556845
1.565161
1.576307
1.537514
1.538839
1.540938
1.543967
1.548145
1.553814
1.560718
1.569573
1.58166
1.536841
1.538023
1.539917
1.54265
1.546404
1.551431
1.557388
1.564674
1.574072
1.587056
1.536266
1.537331
1.539057
1.541555
1.544972
1.549516
1.554782
1.561041
1.568722
1.578669
1.592501
1.535769
1.536738
1.538326
1.54063
1.543777
1.547936
1.552685
1.558202
1.564775
1.57286
1.583351
1.596652
1.535345
1.536232
1.537704
1.539846
1.542768
1.546617
1.550954
1.555916
1.561691
1.568581
1.577065
1.586953
1.59949
1.534997
1.535815
1.537187
1.53919
1.541923
1.545509
1.54951
1.554026
1.5592
1.565229
1.572423
1.580287
1.589447
1.600908
1.534742
1.535501
1.536786
1.538667
1.54123
1.544589
1.548301
1.552448
1.557136
1.56251
1.568772
1.575339
1.582492
1.590763
1.600775
1.534595
1.5353
1.536508
1.538279
1.54069
1.543842
1.5473
1.551129
1.555411
1.560254
1.565805
1.571449
1.577331
1.583684
1.590915
1.534517
1.535174
1.536311
1.537982
1.540258
1.543225
1.546459
1.550013
1.553954
1.558366
1.563357
1.568322
1.573332
1.578504
1.584023
1.534457
1.535073
1.536145
1.537727
1.539883
1.542689
1.545729
1.549049
1.552704
1.556762
1.561309
1.565754
1.570137
1.574514
1.578975
1.53438
1.534959
1.535977
1.53748
1.53953
1.542197
1.545072
1.548193
1.551607
1.555373
1.55956
1.563598
1.567508
1.571318
1.575065
1.534266
1.534815
1.535785
1.537221
1.539178
1.541724
1.544457
1.547411
1.550624
1.554146
1.558036
1.56175
1.565292
1.568675
1.571914
1.5486
1.552059
1.546028
1.549288
1.553684
1.543904
1.546631
1.550762
1.556289
1.542118
1.544424
1.547951
1.553089
1.560004
1.54061
1.542584
1.545632
1.550057
1.556362
1.564994
1.539353
1.541068
1.543729
1.547587
1.553008
1.560645
1.570398
1.53834
1.53984
1.542194
1.545588
1.550316
1.55682
1.565059
1.575935
1.537518
1.538845
1.540944
1.543975
1.548153
1.55382
1.560713
1.56953
1.581457
1.53684
1.538022
1.539917
1.542652
1.546408
1.551437
1.557394
1.564677
1.574059
1.586968
1.536266
1.537331
1.539057
1.541555
1.544972
1.549516
1.554782
1.561041
1.568722
1.578669
1.592501
1.535771
1.536739
1.538326
1.540628
1.543773
1.547931
1.552677
1.558194
1.564767
1.572859
1.583371
1.596764
1.535343
1.536228
1.537699
1.539839
1.542758
1.546604
1.550939
1.5559
1.561678
1.568577
1.577085
1.587037
1.599801
1.534975
1.535791
1.537162
1.539164
1.541894
1.54548
1.549482
1.554002
1.559184
1.56523
1.572456
1.580381
1.589679
1.601573
1.534673
1.535431
1.536716
1.538598
1.541165
1.544529
1.54825
1.55241
1.557117
1.56252
1.568827
1.575465
1.582738
1.591252
1.601962
1.534458
1.535164
1.536374
1.53815
1.54057
1.543737
1.547214
1.551066
1.555379
1.560263
1.565872
1.571592
1.577584
1.584112
1.591676
1.534346
1.535004
1.536144
1.537824
1.540111
1.543097
1.546353
1.549934
1.553908
1.55836
1.563405
1.568433
1.573525
1.578811
1.584501
1.534297
1.534913
1.53599
1.537579
1.539746
1.542569
1.545628
1.548971
1.552653
1.556743
1.561329
1.565819
1.570256
1.574699
1.57925
1.534261
1.534841
1.535862
1.53737
1.539428
1.542106
1.544995
1.548131
1.551563
1.55535
1.559561
1.563627
1.567567
1.571412
1.575203
1.534205
1.534754
1.535725
1.537164
1.539124
1.541676
1.544415
1.547376
1.550597
1.554128
1.55803
1.561755
1.56531
1.568707
1.571961
1.534113
1.534631
1.53556
1.536937
1.538815
1.541257
1.543867
1.546677
1.54972
1.553037
1.55668
1.560126
1.563375
1.566427
1.569281
1.546063
1.549292
1.553612
1.543986
1.546678
1.550733
1.556084
1.542247
1.544522
1.547989
1.553
1.559607
1.540761
1.542711
1.545714
1.550053
1.556179
1.56435
1.539481
1.541182
1.543816
1.547624
1.552952
1.560384
1.569592
1.538409
1.539904
1.542247
1.545624
1.550317
1.556752
1.56484
1.575257
1.537543
1.538869
1.540968
1.543996
1.548168
1.553818
1.560677
1.569405
1.581022
1.536844
1.538027
1.539924
1.542661
1.546418
1.551447
1.5574
1.564668
1.574006
1.586732
1.536264
1.53733
1.539057
1.541557
1.544976
1.549522
1.554789
1.561047
1.568724
1.578652
1.592399
1.535771
1.536739
1.538326
1.540628
1.543773
1.547931
1.552677
1.558194
1.564767
1.572859
1.583371
1.596764
1.535346
1.53623
1.537699
1.539838
1.542755
1.546598
1.550931
1.55589
1.561668
1.568568
1.577084
1.58706
1.59992
1.534973
1.535789
1.537157
1.539157
1.541884
1.545467
1.549466
1.553984
1.559167
1.565216
1.572453
1.580404
1.589768
1.601895
1.534651
1.535408
1.536692
1.538571
1.541137
1.5445
1.548221
1.552383
1.557094
1.562506
1.568832
1.575504
1.582839
1.591493
1.602638
1.534389
1.535095
1.536304
1.538081
1.540504
1.543676
1.547159
1.551021
1.555347
1.560252
1.565893
1.571659
1.577722
1.584369
1.592175
1.53421
1.534868
1.536011
1.537695
1.539991
1.542989
1.546262
1.549862
1.553861
1.558346
1.563434
1.568518
1.573684
1.579078
1.584939
1.534127
1.534745
1.535824
1.537421
1.539599
1.542439
1.545518
1.548883
1.552593
1.556717
1.561347
1.565887
1.570384
1.574905
1.579564
1.534102
1.534683
1.535707
1.537223
1.53929
1.541985
1.54489
1.548046
1.551502
1.555317
1.559562
1.563664
1.567647
1.571541
1.575394
1.534088
1.534637
1.53561
1.537054
1.539022
1.541585
1.544336
1.547311
1.550547
1.554097
1.558021
1.561768
1.565349
1.568773
1.57206
1.534053
1.534571
1.535501
1.53688
1.538762
1.541208
1.543825
1.546641
1.549691
1.553017
1.55667
1.560126
1.563385
1.566448
1.569314
1.533979
1.53447
1.535359
1.536683
1.538489
1.540837
1.543335
1.546014
1.548904
1.55204
1.555466
1.55868
1.561678
1.564455
1.567
1.544035
1.54671
1.550729
1.555993
1.542346
1.544599
1.548023
1.552946
1.559348
1.540905
1.542834
1.545798
1.550064
1.556041
1.563849
1.539643
1.541327
1.543931
1.547683
1.552908
1.560127
1.568815
1.538543
1.540028
1.542353
1.545696
1.550328
1.55665
1.564509
1.574311
1.537614
1.538937
1.541029
1.544044
1.548194
1.553802
1.560582
1.569139
1.580241
1.536868
1.538053
1.539949
1.542685
1.546439
1.551458
1.557392
1.56462
1.573856
1.586235
1.536267
1.537335
1.539064
1.541565
1.544986
1.549533
1.5548
1.561053
1.568712
1.578588
1.592132
1.535769
1.536738
1.538326
1.54063
1.543777
1.547936
1.552685
1.558202
1.564775
1.57286
1.583351
1.596652
1.535346
1.53623
1.537699
1.539838
1.542755
1.546598
1.550931
1.55589
1.561668
1.568568
1.577084
1.58706
1.59992
1.534976
1.535791
1.537158
1.539156
1.541882
1.545462
1.549459
1.553975
1.559156
1.565205
1.572445
1.580403
1.589794
1.60202
1.534651
1.535406
1.536688
1.538565
1.541128
1.544487
1.548205
1.552364
1.557074
1.562487
1.568818
1.575501
1.582864
1.591586
1.602967
1.534369
1.535073
1.536281
1.538055
1.540476
1.543646
1.547129
1.55099
1.555319
1.56023
1.565881
1.571666
1.577764
1.584475
1.59242
1.534143
1.5348
1.535943
1.537627
1.539924
1.542926
1.546204
1.549812
1.553821
1.558321
1.563432
1.568548
1.573759
1.579223
1.585202
1.533993
1.53461
1.535692
1.537293
1.539478
1.542329
1.545422
1.548804
1.552535
1.556685
1.56135
1.565932
1.570483
1.575076
1.579839
1.533935
1.534516
1.535543
1.537065
1.539143
1.541852
1.544776
1.547952
1.551433
1.555276
1.559557
1.5637
1.567729
1.571681
1.575607
1.533931
1.53448
1.535457
1.536907
1.538884
1.541461
1.544229
1.547222
1.550479
1.554054
1.558006
1.561784
1.565398
1.568861
1.572194
1.533936
1.534455
1.535387
1.536771
1.53866
1.541116
1.543744
1.546573
1.549637
1.552979
1.556651
1.560127
1.563407
1.566492
1.569383
1.533919
1.534411
1.5353
1.536627
1.538436
1.540788
1.543292
1.545977
1.548873
1.552017
1.555452
1.558675
1.561682
1.564468
1.567023
1.53386
1.534328
1.535181
1.536455
1.538196
1.540456
1.542855
1.545414
1.548164
1.551137
1.554371
1.557382
1.560165
1.562709
1.565
1.542403
1.544645
1.548049
1.552929
1.55923
1.541014
1.542929
1.545864
1.550079
1.555952
1.56352
1.539796
1.541466
1.544042
1.547745
1.552882
1.559925
1.56821
1.538712
1.540185
1.542487
1.545791
1.550354
1.556551
1.564175
1.573401
1.537752
1.539068
1.541147
1.544137
1.548245
1.553778
1.560432
1.568736
1.579154
1.53694
1.538123
1.540015
1.542742
1.54648
1.551471
1.557357
1.564497
1.573543
1.585349
1.536292
1.53736
1.539089
1.541591
1.54501
1.549553
1.554809
1.561039
1.568651
1.578413
1.591572
1.535772
1.536742
1.538332
1.540638
1.543787
1.547949
1.552699
1.558214
1.564779
1.572844
1.583276
1.59636
1.535343
1.536228
1.537699
1.539839
1.542758
1.546604
1.550939
1.5559
1.561678
1.568577
1.577085
1.587037
1.599801
1.534976
1.535791
1.537158
1.539156
1.541882
1.545462
1.549459
1.553975
1.559156
1.565205
1.572445
1.580403
1.589794
1.60202
1.534654
1.535408
1.536689
1.538565
1.541125
1.544483
1.548198
1.552354
1.557062
1.562474
1.568805
1.575492
1.582864
1.591613
1.603094
1.534368
1.535071
1.536278
1.53805
1.540467
1.543634
1.547113
1.550972
1.555298
1.560207
1.56586
1.571651
1.577762
1.584502
1.592515
1.534123
1.534779
1.53592
1.537602
1.539897
1.542897
1.546173
1.549781
1.55379
1.558293
1.56341
1.568537
1.573769
1.579268
1.58531
1.533927
1.534543
1.535624
1.537226
1.539412
1.542266
1.545362
1.548751
1.55249
1.556651
1.561332
1.565937
1.570518
1.575156
1.579987
1.533802
1.534383
1.535412
1.536937
1.539022
1.541742
1.544677
1.547868
1.551366
1.555232
1.559541
1.563717
1.567786
1.571789
1.575783
1.533764
1.534315
1.535294
1.536749
1.538737
1.541328
1.544112
1.547122
1.550401
1.554001
1.557984
1.561796
1.565447
1.568954
1.572339
1.53378
1.5343
1.535235
1.536625
1.538522
1.540992
1.543635
1.54648
1.549563
1.552927
1.556625
1.560127
1.563435
1.566551
1.569477
1.533803
1.534296
1.535187
1.536518
1.538334
1.540696
1.54321
1.545907
1.548816
1.551975
1.555426
1.558666
1.561692
1.564496
1.567071
1.533801
1.534269
1.535123
1.536399
1.538143
1.540408
1.542811
1.545376
1.548133
1.551113
1.554355
1.557373
1.560164
1.562716
1.565015
1.533755
1.534203
1.535023
1.536251
1.53793
1.540112
1.542417
1.544869
1.547493
1.550318
1.553379
1.556212
1.558806
1.561151
1.563228
1.541075
1.542983
1.545905
1.550095
1.555917
1.563368
1.539912
1.541571
1.544127
1.547795
1.55287
1.559791
1.56781
1.538871
1.540334
1.542616
1.545884
1.550386
1.556478
1.563909
1.57269
1.537925
1.539233
1.541294
1.544255
1.548312
1.553761
1.560279
1.568327
1.578109
1.537081
1.538258
1.54014
1.542848
1.546555
1.551494
1.557298
1.5643
1.573069
1.584121
1.536364
1.537431
1.539158
1.541653
1.545062
1.549584
1.554808
1.560985
1.568501
1.578053
1.590583
1.535796
1.536767
1.538358
1.540665
1.543814
1.547973
1.552717
1.55822
1.564759
1.572772
1.583077
1.595753
1.535345
1.536232
1.537704
1.539846
1.542768
1.546617
1.550954
1.555916
1.561691
1.568581
1.577065
1.586953
1.59949
1.534973
1.535789
1.537157
1.539157
1.541884
1.545467
1.549466
1.553984
1.559167
1.565216
1.572453
1.580404
1.589768
1.601895
1.534654
1.535408
1.536689
1.538565
1.541125
1.544483
1.548198
1.552354
1.557062
1.562474
1.568805
1.575492
1.582864
1.591613
1.603094
1.534372
1.535074
1.536279
1.53805
1.540466
1.54363
1.547106
1.550963
1.555287
1.560194
1.565846
1.571637
1.577752
1.584502
1.592543
1.534123
1.534778
1.535918
1.537597
1.539889
1.542886
1.546158
1.549762
1.553768
1.558269
1.563386
1.568515
1.573753
1.579266
1.585337
1.533907
1.534523
1.535602
1.537202
1.539385
1.542237
1.545332
1.548719
1.552457
1.55662
1.561304
1.565915
1.570509
1.575167
1.580033
1.533737
1.534317
1.535345
1.53687
1.538957
1.541678
1.544617
1.547812
1.551317
1.555191
1.559513
1.563705
1.567796
1.571828
1.575866
1.533633
1.534183
1.535164
1.536623
1.538616
1.541217
1.544011
1.547034
1.550329
1.553947
1.557954
1.561792
1.565474
1.569018
1.572451
1.533615
1.534136
1.535073
1.536468
1.538375
1.540858
1.543515
1.546377
1.549479
1.552865
1.55659
1.56012
1.563458
1.566608
1.569574
1.533649
1.534142
1.535036
1.536373
1.538197
1.540571
1.543099
1.545811
1.548738
1.551916
1.55539
1.558653
1.561702
1.564531
1.567133
1.533686
1.534155
1.535011
1.536291
1.538041
1.540315
1.542729
1.545304
1.548073
1.551067
1.554323
1.557357
1.560163
1.56273
1.565045
1.533697
1.534144
1.534966
1.536196
1.537877
1.540064
1.542374
1.544831
1.54746
1.550292
1.55336
1.5562
1.558801
1.561152
1.563236
1.533663
1.534091
1.534882
1.536069
1.537691
1.539798
1.542019
1.544372
1.546881
1.549572
1.552476
1.555148
1.557578
1.55975
1.561646
1.539975
1.54163
1.544177
1.547828
1.552873
1.559733
1.567623
1.53899
1.540446
1.542713
1.545955
1.550415
1.556431
1.563731
1.57222
1.538088
1.539388
1.541433
1.544367
1.54838
1.553754
1.560158
1.567997
1.577292
1.537256
1.538427
1.540296
1.542981
1.546649
1.551526
1.557238
1.564093
1.572583
1.58294
1.536505
1.537569
1.539288
1.541769
1.545153
1.549636
1.554803
1.56089
1.568255
1.577506
1.589211
1.535868
1.536838
1.538428
1.54073
1.543871
1.548017
1.552738
1.558206
1.564687
1.572593
1.582669
1.594683
1.535369
1.536256
1.53773
1.539873
1.542796
1.546644
1.550978
1.555932
1.561693
1.568554
1.576981
1.586736
1.598848
1.534975
1.535791
1.537162
1.539164
1.541894
1.54548
1.549482
1.554002
1.559184
1.56523
1.572456
1.580381
1.589679
1.601573
1.534651
1.535406
1.536688
1.538565
1.541128
1.544487
1.548205
1.552364
1.557074
1.562487
1.568818
1.575501
1.582864
1.591586
1.602967
1.534372
1.535074
1.536279
1.53805
1.540466
1.54363
1.547106
1.550963
1.555287
1.560194
1.565846
1.571637
1.577752
1.584502
1.592543
1.534127
1.534781
1.53592
1.537598
1.539888
1.542882
1.546152
1.549754
1.553758
1.558256
1.563371
1.5685
1.573739
1.579256
1.585338
1.533908
1.534523
1.5356
1.537198
1.539378
1.542227
1.545318
1.548701
1.552436
1.556596
1.561278
1.565889
1.570486
1.575151
1.580032
1.533718
1.534297
1.535324
1.536847
1.538931
1.541651
1.544587
1.54778
1.551284
1.555158
1.55948
1.563676
1.567774
1.57182
1.575878
1.533569
1.534118
1.535098
1.536557
1.538551
1.541154
1.543951
1.546978
1.550277
1.553902
1.557918
1.561768
1.565466
1.569031
1.572493
1.533485
1.534006
1.534944
1.536343
1.538255
1.540746
1.543414
1.546287
1.549402
1.552804
1.556548
1.5601
1.563463
1.566642
1.569642
1.533485
1.533979
1.534876
1.536217
1.53805
1.540436
1.542978
1.545705
1.548649
1.551847
1.555344
1.558631
1.561706
1.564562
1.567195
1.533533
1.534002
1.534861
1.536146
1.537905
1.54019
1.542616
1.545206
1.54799
1.551002
1.554279
1.557333
1.560159
1.562747
1.565084
1.533583
1.534031
1.534855
1.536088
1.537776
1.539971
1.542291
1.544758
1.547398
1.550242
1.553324
1.556177
1.558792
1.561156
1.563254
1.533605
1.534034
1.534826
1.536014
1.537639
1.53975
1.541976
1.544334
1.546848
1.549544
1.552455
1.555134
1.55757
1.559748
1.561649
1.533584
1.533993
1.534757
1.535905
1.537475
1.539513
1.541654
1.543918
1.546322
1.548891
1.551651
1.554179
1.556463
1.558485
1.560225
1.539055
1.540508
1.542768
1.545998
1.550436
1.556416
1.56365
1.571997
1.53821
1.539504
1.541538
1.544452
1.548433
1.553754
1.560077
1.567773
1.57675
1.53742
1.538586
1.540442
1.543106
1.546739
1.551561
1.557193
1.563924
1.572188
1.582016
1.536681
1.537741
1.539449
1.541911
1.545265
1.5497
1.5548
1.560788
1.567994
1.576943
1.587892
1.536009
1.536977
1.538561
1.540852
1.543974
1.548088
1.552766
1.558172
1.564556
1.572299
1.582048
1.593201
1.53544
1.536328
1.5378
1.539941
1.542858
1.546695
1.551013
1.555943
1.561666
1.568462
1.576773
1.586291
1.597719
1.534997
1.535815
1.537187
1.53919
1.541923
1.545509
1.54951
1.554026
1.5592
1.565229
1.572423
1.580287
1.589447
1.600908
1.534651
1.535408
1.536692
1.538571
1.541137
1.5445
1.548221
1.552383
1.557094
1.562506
1.568832
1.575504
1.582839
1.591493
1.602638
1.534368
1.535071
1.536278
1.53805
1.540467
1.543634
1.547113
1.550972
1.555298
1.560207
1.56586
1.571651
1.577762
1.584502
1.592515
1.534127
1.534781
1.53592
1.537598
1.539888
1.542882
1.546152
1.549754
1.553758
1.558256
1.563371
1.5685
1.573739
1.579256
1.585338
1.533912
1.534526
1.535603
1.537199
1.539378
1.542223
1.545312
1.548694
1.552426
1.556583
1.561263
1.565873
1.570469
1.575137
1.580022
1.53372
1.534298
1.535323
1.536844
1.538925
1.541641
1.544573
1.547763
1.551263
1.555134
1.559454
1.563648
1.567747
1.571796
1.575862
1.533552
1.534099
1.535078
1.536535
1.538526
1.541127
1.543921
1.546946
1.550243
1.553868
1.557884
1.561735
1.565437
1.56901
1.572485
1.533422
1.533942
1.53488
1.536278
1.53819
1.540683
1.543353
1.546229
1.549348
1.552755
1.556507
1.560068
1.563442
1.566636
1.569656
1.533357
1.53385
1.534749
1.536093
1.53793
1.540325
1.542875
1.545613
1.548568
1.55178
1.555294
1.5586
1.561694
1.564573
1.567232
1.533371
1.533841
1.534702
1.535992
1.537758
1.540055
1.542494
1.545098
1.547898
1.550927
1.554225
1.5573
1.560147
1.562758
1.565119
1.533431
1.53388
1.534706
1.535944
1.53764
1.539846
1.542177
1.544658
1.547312
1.550173
1.553273
1.556144
1.558776
1.561158
1.563274
1.533493
1.533921
1.534715
1.535907
1.537538
1.539657
1.541892
1.544259
1.546784
1.549492
1.552415
1.555106
1.557554
1.559743
1.561655
1.533527
1.533936
1.534701
1.535851
1.537423
1.539466
1.541611
1.543879
1.546288
1.548862
1.551629
1.554163
1.556451
1.558478
1.560223
1.533515
1.533908
1.534645
1.535758
1.53728
1.539255
1.541323
1.5435
1.545808
1.548265
1.550897
1.553294
1.555445
1.557334
1.558939
1.538276
1.539567
1.541596
1.5445
1.548465
1.553761
1.560044
1.567669
1.576492
1.537543
1.538705
1.540551
1.543199
1.546808
1.551589
1.557165
1.563808
1.571918
1.581401
1.536847
1.537902
1.5396
1.542045
1.54537
1.549761
1.554801
1.560704
1.567776
1.576482
1.58686
1.536186
1.53715
1.538725
1.541001
1.544098
1.548173
1.5528
1.558134
1.564411
1.571982
1.581407
1.591776
1.535581
1.536467
1.537935
1.540066
1.542968
1.54678
1.551065
1.555948
1.561603
1.568295
1.576429
1.585613
1.596156
1.535068
1.535886
1.537257
1.539259
1.541987
1.545565
1.549554
1.554053
1.5592
1.565187
1.572312
1.580057
1.588976
1.59974
1.534673