/*--------------------------------*- C++ -*----------------------------------*\
| =========                 |                                                 |
| \\      /  F ield         | OpenFOAM: The Open Source CFD Toolbox           |
|  \\    /   O peration     | Version:  2306                                  |
|   \\  /    A nd           | Website:  www.openfoam.com                      |
|    \\/     M anipulation  |                                                 |
\*---------------------------------------------------------------------------*/
FoamFile
{
    version     2.0;
    format      ascii;
    arch        "LSB;label=32;scalar=64";
    class       volScalarField;
    location    "0.3/phiI";
    object      T;
}
// * * * * * * * * * * * * * * * * * * * * * * * * * * * * * * * * * * * * * //

dimensions      [0 0 0 1 0 0 0];

internalField   nonuniform List<scalar> 
12000
(
1010.214
1010.136
1011.175
1010.251
1009.954
1011.17
1010.173
1012.087
1011.207
1010.278
1009.608
1011.158
1009.991
1012.103
1011.203
1010.2
1012.964
1012.116
1011.23
1010.295
1009.01
1011.131
1009.647
1012.139
1011.19
1010.019
1012.988
1012.132
1011.226
1010.217
1013.821
1012.989
1012.135
1011.244
1010.3
1008.104
1011.079
1009.054
1012.201
1011.163
1009.675
1013.039
1012.167
1011.213
1010.035
1013.847
1013.012
1012.151
1011.239
1010.222
1014.659
1013.842
1013.005
1012.145
1011.247
1010.295
1007.06
1010.981
1008.159
1012.297
1011.109
1009.086
1013.131
1012.228
1011.185
1009.693
1013.904
1013.064
1012.186
1011.226
1010.041
1014.685
1013.868
1013.028
1012.161
1011.242
1010.217
1015.478
1014.678
1013.856
1013.012
1012.146
1011.24
1010.29
1006.103
1010.801
1007.13
1012.421
1011.009
1008.203
1013.279
1012.322
1011.13
1009.108
1014.006
1013.155
1012.246
1011.197
1009.699
1014.744
1013.925
1013.079
1012.196
1011.228
1010.035
1015.503
1014.704
1013.881
1013.035
1012.162
1011.235
1010.212
1016.275
1015.494
1014.689
1013.861
1013.011
1012.137
1011.234
1010.285
1005.393
1010.582
1006.186
1012.498
1010.83
1007.187
1013.48
1012.441
1011.027
1008.235
1014.171
1013.3
1012.338
1011.14
1009.118
1014.848
1014.026
1013.169
1012.255
1011.199
1009.694
1015.561
1014.762
1013.938
1013.086
1012.196
1011.221
1010.03
1016.3
1015.52
1014.715
1013.886
1013.033
1012.153
1011.229
1010.207
1017.049
1016.289
1015.503
1014.692
1013.857
1013.001
1012.13
1011.228
1010.28
1005.02
1010.39
1005.486
1012.52
1010.613
1006.257
1013.652
1012.515
1010.848
1007.233
1014.399
1013.496
1012.452
1011.034
1008.254
1015.017
1014.189
1013.312
1012.344
1011.139
1009.116
1015.664
1014.866
1014.038
1013.175
1012.253
1011.19
1009.69
1016.356
1015.577
1014.773
1013.942
1013.084
1012.186
1011.214
1010.025
1017.074
1016.314
1015.529
1014.718
1013.882
1013.023
1012.145
1011.222
1010.202
1017.8
1017.062
1016.297
1015.505
1014.687
1013.846
1012.992
1012.123
1011.222
1010.275
1005.02
1010.28
1005.117
1012.512
1010.425
1005.566
1013.767
1012.537
1010.634
1006.315
1014.606
1013.664
1012.523
1010.856
1007.265
1015.251
1014.412
1013.503
1012.453
1011.031
1008.259
1015.832
1015.033
1014.199
1013.315
1012.34
1011.129
1009.114
1016.457
1015.68
1014.876
1014.042
1013.172
1012.243
1011.182
1009.686
1017.129
1016.371
1015.586
1014.775
1013.938
1013.073
1012.178
1011.207
1010.02
1017.824
1017.087
1016.322
1015.53
1014.712
1013.871
1013.014
1012.138
1011.216
1010.197
1018.526
1017.812
1017.068
1016.297
1015.498
1014.674
1013.836
1012.983
1012.115
1011.215
1010.269
1005.393
1010.28
1005.117
1012.501
1010.316
1005.202
1013.832
1012.53
1010.448
1005.633
1014.758
1013.777
1012.544
1010.644
1006.359
1015.47
1014.615
1013.667
1012.521
1010.852
1007.281
1016.064
1015.262
1014.416
1013.501
1012.444
1011.017
1008.264
1016.621
1015.846
1015.041
1014.2
1013.309
1012.326
1011.119
1009.112
1017.227
1016.471
1015.688
1014.877
1014.036
1013.16
1012.234
1011.175
1009.682
1017.877
1017.141
1016.378
1015.587
1014.769
1013.926
1013.064
1012.17
1011.2
1010.016
1018.549
1017.835
1017.093
1016.322
1015.523
1014.7
1013.861
1013.005
1012.13
1011.209
1010.191
1019.228
1018.537
1017.817
1017.067
1016.289
1015.485
1014.663
1013.826
1012.974
1012.107
1011.208
1010.268
1006.103
1010.39
1005.486
1012.501
1010.316
1005.202
1013.86
1012.518
1010.342
1005.274
1014.853
1013.842
1012.537
1010.461
1005.686
1015.636
1014.765
1013.779
1012.542
1010.643
1006.385
1016.282
1015.477
1014.616
1013.661
1012.51
1010.839
1007.295
1016.847
1016.073
1015.265
1014.412
1013.489
1012.426
1011.006
1008.268
1017.385
1016.633
1015.852
1015.04
1014.192
1013.294
1012.315
1011.11
1009.111
1017.973
1017.239
1016.478
1015.688
1014.87
1014.023
1013.149
1012.224
1011.167
1009.678
1018.602
1017.889
1017.147
1016.378
1015.58
1014.756
1013.916
1013.054
1012.162
1011.193
1010.01
1019.251
1018.56
1017.84
1017.092
1016.314
1015.51
1014.689
1013.85
1012.996
1012.122
1011.202
1010.19
1019.905
1019.238
1018.541
1017.815
1017.059
1016.275
1015.473
1014.653
1013.816
1012.965
1012.098
1011.205
1010.272
1007.06
1010.582
1006.186
1012.512
1010.425
1005.566
1013.86
1012.518
1010.342
1005.274
1014.899
1013.87
1012.527
1010.356
1005.331
1015.743
1014.86
1013.843
1012.535
1010.463
1005.72
1016.451
1015.641
1014.764
1013.771
1012.529
1010.631
1006.407
1017.062
1016.289
1015.477
1014.608
1013.646
1012.49
1010.827
1007.308
1017.605
1016.855
1016.075
1015.26
1014.399
1013.47
1012.411
1010.994
1008.272
1018.127
1017.396
1016.638
1015.85
1015.031
1014.176
1013.282
1012.303
1011.1
1009.11
1018.695
1017.984
1017.245
1016.477
1015.68
1014.857
1014.012
1013.139
1012.215
1011.159
1009.674
1019.302
1018.612
1017.894
1017.146
1016.37
1015.566
1014.745
1013.905
1013.044
1012.153
1011.185
1010.01
1019.927
1019.261
1018.564
1017.839
1017.083
1016.3
1015.498
1014.678
1013.84
1012.987
1012.113
1011.199
1010.195
1020.556
1019.914
1019.241
1018.539
1017.806
1017.045
1016.263
1015.462
1014.642
1013.806
1012.955
1012.094
1011.207
1010.281
1008.104
1010.801
1007.13
1012.52
1010.613
1006.257
1013.832
1012.53
1010.448
1005.633
1014.899
1013.87
1012.527
1010.356
1005.331
1015.795
1014.905
1013.871
1012.525
1010.359
1005.369
1016.562
1015.747
1014.858
1013.835
1012.523
1010.453
1005.748
1017.23
1016.456
1015.638
1014.754
1013.754
1012.509
1010.621
1006.429
1017.815
1017.067
1016.287
1015.468
1014.592
1013.624
1012.472
1010.815
1007.32
1018.34
1017.613
1016.856
1016.069
1015.246
1014.38
1013.453
1012.396
1010.982
1008.276
1018.845
1018.137
1017.4
1016.635
1015.839
1015.014
1014.163
1013.269
1012.291
1011.091
1009.108
1019.393
1018.705
1017.988
1017.243
1016.468
1015.666
1014.844
1014
1013.128
1012.205
1011.15
1009.675
1019.977
1019.311
1018.616
1017.892
1017.137
1016.355
1015.554
1014.734
1013.894
1013.034
1012.144
1011.182
1010.015
1020.578
1019.936
1019.264
1018.562
1017.829
1017.069
1016.288
1015.487
1014.666
1013.83
1012.977
1012.108
1011.2
1010.203
1021.183
1020.565
1019.917
1019.238
1018.529
1017.791
1017.032
1016.251
1015.45
1014.63
1013.794
1012.949
1012.093
1011.213
1010.294
1009.01
1010.981
1008.159
1012.498
1010.83
1007.187
1013.767
1012.537
1010.634
1006.315
1014.853
1013.842
1012.537
1010.461
1005.686
1015.795
1014.905
1013.871
1012.525
1010.359
1005.369
1016.617
1015.799
1014.902
1013.863
1012.513
1010.351
1005.4
1017.34
1016.566
1015.744
1014.847
1013.817
1012.503
1010.445
1005.775
1017.98
1017.233
1016.453
1015.628
1014.736
1013.73
1012.491
1010.61
1006.449
1018.545
1017.82
1017.065
1016.278
1015.451
1014.568
1013.604
1012.455
1010.802
1007.332
1019.053
1018.347
1017.613
1016.849
1016.055
1015.226
1014.362
1013.436
1012.38
1010.97
1008.28
1019.539
1018.854
1018.14
1017.397
1016.624
1015.823
1015
1014.149
1013.255
1012.279
1011.081
1009.112
1020.066
1019.402
1018.709
1017.986
1017.233
1016.453
1015.653
1014.832
1013.988
1013.117
1012.194
1011.146
1009.681
1020.627
1019.986
1019.315
1018.614
1017.882
1017.122
1016.343
1015.542
1014.722
1013.883
1013.024
1012.138
1011.183
1010.024
1021.204
1020.587
1019.939
1019.261
1018.552
1017.815
1017.056
1016.276
1015.475
1014.655
1013.818
1012.97
1012.107
1011.206
1010.217
1021.785
1021.191
1020.567
1019.913
1019.229
1018.515
1017.779
1017.02
1016.239
1015.438
1014.618
1013.786
1012.946
1012.097
1011.223
1009.608
1011.079
1009.054
1012.421
1011.009
1008.203
1013.652
1012.515
1010.848
1007.233
1014.758
1013.777
1012.544
1010.644
1006.359
1015.743
1014.86
1013.843
1012.535
1010.463
1005.72
1016.617
1015.799
1014.902
1013.863
1012.513
1010.351
1005.4
1017.395
1016.62
1015.795
1014.891
1013.845
1012.493
1010.344
1005.431
1018.089
1017.343
1016.562
1015.732
1014.828
1013.793
1012.485
1010.436
1005.802
1018.706
1017.983
1017.23
1016.441
1015.609
1014.711
1013.71
1012.473
1010.599
1006.469
1019.252
1018.549
1017.818
1017.056
1016.261
1015.427
1014.549
1013.585
1012.437
1010.79
1007.343
1019.742
1019.059
1018.347
1017.606
1016.835
1016.034
1015.209
1014.345
1013.42
1012.365
1010.958
1008.289
1020.209
1019.548
1018.856
1018.136
1017.385
1016.607
1015.808
1014.986
1014.135
1013.242
1012.267
1011.075
1009.121
1020.715
1020.075
1019.405
1018.705
1017.976
1017.218
1016.439
1015.64
1014.819
1013.976
1013.105
1012.187
1011.146
1009.692
1021.252
1020.636
1019.989
1019.311
1018.604
1017.867
1017.11
1016.33
1015.53
1014.71
1013.871
1013.016
1012.136
1011.188
1010.039
1021.806
1021.212
1020.589
1019.936
1019.251
1018.537
1017.802
1017.044
1016.263
1015.463
1014.643
1013.81
1012.967
1012.11
1011.216
1022.361
1021.792
1021.193
1020.564
1019.903
1019.214
1018.502
1017.766
1017.007
1016.227
1015.425
1014.609
1013.782
1012.947
1012.104
1009.954
1011.131
1009.647
1012.297
1011.109
1009.086
1013.48
1012.441
1011.027
1008.235
1014.606
1013.664
1012.523
1010.856
1007.265
1015.636
1014.765
1013.779
1012.542
1010.643
1006.385
1016.562
1015.747
1014.858
1013.835
1012.523
1010.453
1005.748
1017.395
1016.62
1015.795
1014.891
1013.845
1012.493
1010.344
1005.431
1018.143
1017.397
1016.615
1015.783
1014.872
1013.821
1012.475
1010.336
1005.46
1018.813
1018.091
1017.339
1016.55
1015.712
1014.802
1013.772
1012.467
1010.427
1005.827
1019.41
1018.709
1017.979
1017.218
1016.422
1015.584
1014.69
1013.689
1012.454
1010.588
1006.488
1019.937
1019.256
1018.547
1017.808
1017.038
1016.238
1015.407
1014.529
1013.565
1012.419
1010.777
1007.36
1020.408
1019.747
1019.058
1018.34
1017.591
1016.815
1016.017
1015.191
1014.328
1013.403
1012.348
1010.949
1008.303
1020.855
1020.217
1019.549
1018.852
1018.124
1017.368
1016.592
1015.794
1014.971
1014.121
1013.228
1012.257
1011.073
1009.135
1021.338
1020.723
1020.077
1019.401
1018.695
1017.96
1017.204
1016.426
1015.627
1014.807
1013.963
1013.096
1012.185
1011.15
1009.708
1021.853
1021.26
1020.638
1019.985
1019.301
1018.589
1017.854
1017.097
1016.317
1015.517
1014.697
1013.862
1013.013
1012.139
1011.198
1022.382
1021.813
1021.214
1020.585
1019.925
1019.236
1018.524
1017.789
1017.031
1016.251
1015.45
1014.633
1013.806
1012.968
1012.117
1022.913
1022.368
1021.794
1021.189
1020.554
1019.889
1019.201
1018.489
1017.753
1016.995
1016.213
1015.415
1014.603
1013.782
1012.952
1010.136
1011.158
1009.991
1012.201
1011.163
1009.675
1013.279
1012.322
1011.13
1009.108
1014.399
1013.496
1012.452
1011.034
1008.254
1015.47
1014.615
1013.667
1012.521
1010.852
1007.281
1016.451
1015.641
1014.764
1013.771
1012.529
1010.631
1006.407
1017.34
1016.566
1015.744
1014.847
1013.817
1012.503
1010.445
1005.775
1018.143
1017.397
1016.615
1015.783
1014.872
1013.821
1012.475
1010.336
1005.46
1018.867
1018.145
1017.393
1016.603
1015.763
1014.846
1013.799
1012.458
1010.328
1005.489
1019.515
1018.816
1018.087
1017.327
1016.529
1015.686
1014.78
1013.75
1012.449
1010.417
1005.852
1020.091
1019.413
1018.705
1017.968
1017.199
1016.398
1015.562
1014.668
1013.668
1012.436
1010.577
1006.512
1020.599
1019.941
1019.253
1018.537
1017.791
1017.016
1016.218
1015.387
1014.508
1013.546
1012.401
1010.768
1007.381
1021.05
1020.413
1019.746
1019.051
1018.325
1017.571
1016.797
1015.999
1015.174
1014.31
1013.385
1012.336
1010.946
1008.322
1021.477
1020.863
1020.218
1019.544
1018.84
1018.107
1017.353
1016.577
1015.779
1014.957
1014.106
1013.217
1012.253
1011.077
1009.154
1021.938
1021.346
1020.725
1020.073
1019.391
1018.679
1017.946
1017.191
1016.413
1015.614
1014.793
1013.953
1013.091
1012.186
1011.16
1022.429
1021.86
1021.262
1020.634
1019.975
1019.286
1018.575
1017.841
1017.084
1016.305
1015.504
1014.687
1013.857
1013.013
1012.146
1022.934
1022.389
1021.815
1021.21
1020.575
1019.911
1019.223
1018.512
1017.776
1017.018
1016.237
1015.439
1014.627
1013.805
1012.973
1023.44
1022.92
1022.37
1021.79
1021.179
1020.539
1019.876
1019.188
1018.476
1017.74
1016.981
1016.202
1015.408
1014.601
1013.785
1010.214
1011.17
1010.173
1012.139
1011.19
1010.019
1013.131
1012.228
1011.185
1009.693
1014.171
1013.3
1012.338
1011.14
1009.118
1015.251
1014.412
1013.503
1012.453
1011.031
1008.259
1016.282
1015.477
1014.616
1013.661
1012.51
1010.839
1007.295
1017.23
1016.456
1015.638
1014.754
1013.754
1012.509
1010.621
1006.429
1018.089
1017.343
1016.562
1015.732
1014.828
1013.793
1012.485
1010.436
1005.802
1018.867
1018.145
1017.393
1016.603
1015.763
1014.846
1013.799
1012.458
1010.328
1005.489
1019.568
1018.869
1018.14
1017.38
1016.582
1015.737
1014.823
1013.778
1012.44
1010.32
1005.517
1020.195
1019.517
1018.811
1018.075
1017.307
1016.504
1015.664
1014.758
1013.729
1012.43
1010.407
1005.882
1020.75
1020.094
1019.408
1018.694
1017.949
1017.175
1016.377
1015.541
1014.647
1013.647
1012.416
1010.569
1006.541
1021.237
1020.602
1019.938
1019.244
1018.52
1017.769
1016.996
1016.198
1015.367
1014.488
1013.525
1012.386
1010.764
1007.407
1021.668
1021.054
1020.412
1019.739
1019.036
1018.305
1017.554
1016.78
1015.982
1015.156
1014.291
1013.37
1012.327
1010.947
1008.346
1022.074
1021.484
1020.864
1020.213
1019.532
1018.823
1018.092
1017.338
1016.562
1015.764
1014.941
1014.093
1013.21
1012.252
1011.084
1022.512
1021.945
1021.348
1020.72
1020.062
1019.375
1018.666
1017.933
1017.177
1016.399
1015.599
1014.782
1013.947
1013.091
1012.192
1022.98
1022.436
1021.862
1021.258
1020.624
1019.96
1019.273
1018.562
1017.828
1017.071
1016.291
1015.493
1014.681
1013.856
1013.018
1023.461
1022.94
1022.391
1021.811
1021.2
1020.56
1019.898
1019.21
1018.499
1017.763
1017.004
1016.226
1015.432
1014.625
1013.807
1023.943
1023.447
1022.921
1022.366
1021.78
1021.164
1020.526
1019.863
1019.175
1018.463
1017.726
1016.969
1016.195
1015.405
1014.603
1011.175
1010.251
1012.103
1011.203
1010.2
1013.039
1012.167
1011.213
1010.035
1014.006
1013.155
1012.246
1011.197
1009.699
1015.017
1014.189
1013.312
1012.344
1011.139
1009.116
1016.064
1015.262
1014.416
1013.501
1012.444
1011.017
1008.264
1017.062
1016.289
1015.477
1014.608
1013.646
1012.49
1010.827
1007.308
1017.98
1017.233
1016.453
1015.628
1014.736
1013.73
1012.491
1010.61
1006.449
1018.813
1018.091
1017.339
1016.55
1015.712
1014.802
1013.772
1012.467
1010.427
1005.827
1019.568
1018.869
1018.14
1017.38
1016.582
1015.737
1014.823
1013.778
1012.44
1010.32
1005.517
1020.246
1019.569
1018.864
1018.128
1017.36
1016.557
1015.714
1014.801
1013.757
1012.422
1010.311
1005.55
1020.852
1020.197
1019.513
1018.799
1018.056
1017.282
1016.482
1015.642
1014.736
1013.708
1012.411
1010.401
1005.917
1021.387
1020.753
1020.09
1019.398
1018.676
1017.926
1017.155
1016.355
1015.519
1014.625
1013.625
1012.401
1010.566
1006.574
1021.853
1021.24
1020.599
1019.928
1019.227
1018.498
1017.75
1016.977
1016.178
1015.347
1014.467
1013.507
1012.375
1010.765
1007.438
1022.262
1021.672
1021.053
1020.404
1019.724
1019.017
1018.288
1017.537
1016.762
1015.964
1015.137
1014.276
1013.359
1012.323
1010.952
1022.647
1022.08
1021.484
1020.858
1020.201
1019.515
1018.808
1018.077
1017.323
1016.547
1015.748
1014.928
1014.085
1013.207
1012.255
1023.062
1022.519
1021.946
1021.343
1020.71
1020.047
1019.361
1018.652
1017.919
1017.163
1016.384
1015.587
1014.774
1013.944
1013.094
1023.506
1022.987
1022.437
1021.858
1021.248
1020.609
1019.946
1019.26
1018.549
1017.814
1017.056
1016.279
1015.485
1014.678
1013.858
1023.963
1023.467
1022.942
1022.386
1021.801
1021.185
1020.547
1019.885
1019.197
1018.485
1017.749
1016.992
1016.218
1015.428
1014.626
1024.421
1023.949
1023.448
1022.917
1022.356
1021.765
1021.152
1020.513
1019.85
1019.162
1018.449
1017.714
1016.961
1016.19
1015.405
1012.087
1011.207
1010.278
1012.988
1012.132
1011.226
1010.217
1013.904
1013.064
1012.186
1011.226
1010.041
1014.848
1014.026
1013.169
1012.255
1011.199
1009.694
1015.832
1015.033
1014.199
1013.315
1012.34
1011.129
1009.114
1016.847
1016.073
1015.265
1014.412
1013.489
1012.426
1011.006
1008.268
1017.815
1017.067
1016.287
1015.468
1014.592
1013.624
1012.472
1010.815
1007.32
1018.706
1017.983
1017.23
1016.441
1015.609
1014.711
1013.71
1012.473
1010.599
1006.469
1019.515
1018.816
1018.087
1017.327
1016.529
1015.686
1014.78
1013.75
1012.449
1010.417
1005.852
1020.246
1019.569
1018.864
1018.128
1017.36
1016.557
1015.714
1014.801
1013.757
1012.422
1010.311
1005.55
1020.903
1020.248
1019.564
1018.852
1018.108
1017.335
1016.535
1015.692
1014.779
1013.735
1012.402
1010.306
1005.587
1021.487
1020.854
1020.192
1019.501
1018.78
1018.031
1017.261
1016.461
1015.62
1014.713
1013.685
1012.395
1010.4
1005.955
1022
1021.389
1020.749
1020.079
1019.38
1018.653
1017.906
1017.134
1016.334
1015.498
1014.602
1013.606
1012.389
1010.568
1006.611
1022.444
1021.855
1021.237
1020.59
1019.912
1019.206
1018.48
1017.73
1016.957
1016.158
1015.326
1014.448
1013.494
1012.368
1010.77
1022.832
1022.266
1021.671
1021.045
1020.39
1019.705
1019
1018.271
1017.519
1016.745
1015.945
1015.12
1014.264
1013.353
1012.323
1023.195
1022.653
1022.081
1021.479
1020.846
1020.185
1019.501
1018.793
1018.062
1017.308
1016.531
1015.734
1014.918
1014.08
1013.207
1023.588
1023.069
1022.52
1021.942
1021.333
1020.694
1020.033
1019.347
1018.638
1017.905
1017.148
1016.371
1015.578
1014.77
1013.945
1024.008
1023.513
1022.988
1022.433
1021.848
1021.233
1020.595
1019.933
1019.246
1018.535
1017.8
1017.044
1016.27
1015.481
1014.678
1024.441
1023.969
1023.468
1022.938
1022.376
1021.786
1021.173
1020.534
1019.872
1019.184
1018.471
1017.737
1016.984
1016.213
1015.428
1024.875
1024.427
1023.95
1023.444
1022.907
1022.341
1021.752
1021.139
1020.5
1019.837
1019.148
1018.436
1017.705
1016.955
1016.189
1012.964
1012.116
1011.23
1010.295
1013.847
1013.012
1012.151
1011.239
1010.222
1014.744
1013.925
1013.079
1012.196
1011.228
1010.035
1015.664
1014.866
1014.038
1013.175
1012.253
1011.19
1009.69
1016.621
1015.846
1015.041
1014.2
1013.309
1012.326
1011.119
1009.112
1017.605
1016.855
1016.075
1015.26
1014.399
1013.47
1012.411
1010.994
1008.272
1018.545
1017.82
1017.065
1016.278
1015.451
1014.568
1013.604
1012.455
1010.802
1007.332
1019.41
1018.709
1017.979
1017.218
1016.422
1015.584
1014.69
1013.689
1012.454
1010.588
1006.488
1020.195
1019.517
1018.811
1018.075
1017.307
1016.504
1015.664
1014.758
1013.729
1012.43
1010.407
1005.882
1020.903
1020.248
1019.564
1018.852
1018.108
1017.335
1016.535
1015.692
1014.779
1013.735
1012.402
1010.306
1005.587
1021.537
1020.904
1020.243
1019.553
1018.832
1018.084
1017.314
1016.513
1015.669
1014.756
1013.712
1012.387
1010.306
1005.629
1022.099
1021.489
1020.849
1020.181
1019.483
1018.757
1018.011
1017.24
1016.439
1015.598
1014.69
1013.666
1012.384
1010.403
1005.998
1022.589
1022.002
1021.385
1020.738
1020.062
1019.357
1018.633
1017.885
1017.113
1016.313
1015.475
1014.582
1013.591
1012.382
1010.574
1023.012
1022.447
1021.852
1021.228
1020.574
1019.891
1019.188
1018.461
1017.711
1016.938
1016.137
1015.307
1014.434
1013.485
1012.366
1023.378
1022.836
1022.265
1021.663
1021.031
1020.371
1019.689
1018.983
1018.254
1017.502
1016.726
1015.928
1015.108
1014.255
1013.35
1023.719
1023.201
1022.653
1022.075
1021.467
1020.83
1020.17
1019.486
1018.778
1018.047
1017.291
1016.516
1015.723
1014.912
1014.079
1024.089
1023.594
1023.07
1022.516
1021.931
1021.317
1020.681
1020.019
1019.334
1018.624
1017.889
1017.135
1016.362
1015.573
1014.769
1024.486
1024.015
1023.514
1022.983
1022.423
1021.833
1021.22
1020.582
1019.92
1019.233
1018.521
1017.787
1017.035
1016.265
1015.48
1024.895
1024.447
1023.97
1023.464
1022.927
1022.362
1021.773
1021.16
1020.522
1019.858
1019.17
1018.459
1017.728
1016.978
1016.212
1025.306
1024.881
1024.428
1023.946
1023.434
1022.893
1022.329
1021.74
1021.126
1020.487
1019.823
1019.135
1018.427
1017.699
1016.953
1013.821
1012.989
1012.135
1011.244
1010.3
1014.685
1013.868
1013.028
1012.161
1011.242
1010.217
1015.561
1014.762
1013.938
1013.086
1012.196
1011.221
1010.03
1016.457
1015.68
1014.876
1014.042
1013.172
1012.243
1011.182
1009.686
1017.385
1016.633
1015.852
1015.04
1014.192
1013.294
1012.315
1011.11
1009.111
1018.34
1017.613
1016.856
1016.069
1015.246
1014.38
1013.453
1012.396
1010.982
1008.276
1019.252
1018.549
1017.818
1017.056
1016.261
1015.427
1014.549
1013.585
1012.437
1010.79
1007.343
1020.091
1019.413
1018.705
1017.968
1017.199
1016.398
1015.562
1014.668
1013.668
1012.436
1010.577
1006.512
1020.852
1020.197
1019.513
1018.799
1018.056
1017.282
1016.482
1015.642
1014.736
1013.708
1012.411
1010.401
1005.917
1021.537
1020.904
1020.243
1019.553
1018.832
1018.084
1017.314
1016.513
1015.669
1014.756
1013.712
1012.387
1010.306
1005.629
1022.148
1021.538
1020.9
1020.232
1019.534
1018.809
1018.063
1017.292
1016.491
1015.647
1014.732
1013.693
1012.376
1010.31
1005.674
1022.687
1022.1
1021.484
1020.839
1020.163
1019.46
1018.737
1017.99
1017.218
1016.417
1015.574
1014.669
1013.65
1012.376
1010.41
1023.156
1022.591
1021.998
1021.374
1020.721
1020.04
1019.338
1018.613
1017.865
1017.093
1016.29
1015.454
1014.565
1013.58
1012.379
1023.556
1023.015
1022.444
1021.843
1021.212
1020.553
1019.873
1019.169
1018.442
1017.692
1016.917
1016.118
1015.291
1014.423
1013.479
1023.9
1023.382
1022.834
1022.257
1021.649
1021.013
1020.355
1019.672
1018.966
1018.237
1017.483
1016.709
1015.915
1015.098
1014.251
1024.219
1023.725
1023.201
1022.648
1022.064
1021.451
1020.815
1020.155
1019.471
1018.763
1018.03
1017.277
1016.505
1015.716
1014.909
1024.566
1024.095
1023.595
1023.065
1022.505
1021.916
1021.304
1020.667
1020.005
1019.32
1018.608
1017.876
1017.125
1016.356
1015.571
1024.94
1024.492
1024.016
1023.51
1022.973
1022.408
1021.82
1021.207
1020.569
1019.907
1019.218
1018.508
1017.778
1017.029
1016.263
1025.325
1024.901
1024.448
1023.966
1023.454
1022.913
1022.349
1021.761
1021.147
1020.508
1019.844
1019.157
1018.449
1017.721
1016.975
1025.712
1025.311
1024.882
1024.424
1023.936
1023.42
1022.88
1022.316
1021.727
1021.113
1020.473
1019.81
1019.125
1018.42
1017.696
1014.659
1013.842
1013.005
1012.145
1011.247
1010.295
1015.503
1014.704
1013.881
1013.035
1012.162
1011.235
1010.212
1016.356
1015.577
1014.773
1013.942
1013.084
1012.186
1011.214
1010.025
1017.227
1016.471
1015.688
1014.877
1014.036
1013.16
1012.234
1011.175
1009.682
1018.127
1017.396
1016.638
1015.85
1015.031
1014.176
1013.282
1012.303
1011.1
1009.11
1019.053
1018.347
1017.613
1016.849
1016.055
1015.226
1014.362
1013.436
1012.38
1010.97
1008.28
1019.937
1019.256
1018.547
1017.808
1017.038
1016.238
1015.407
1014.529
1013.565
1012.419
1010.777
1007.36
1020.75
1020.094
1019.408
1018.694
1017.949
1017.175
1016.377
1015.541
1014.647
1013.647
1012.416
1010.569
1006.541
1021.487
1020.854
1020.192
1019.501
1018.78
1018.031
1017.261
1016.461
1015.62
1014.713
1013.685
1012.395
1010.4
1005.955
1022.148
1021.538
1020.9
1020.232
1019.534
1018.809
1018.063
1017.292
1016.491
1015.647
1014.732
1013.693
1012.376
1010.31
1005.674
1022.736
1022.149
1021.534
1020.889
1020.213
1019.511
1018.788
1018.042
1017.271
1016.468
1015.623
1014.711
1013.677
1012.368
1010.318
1023.253
1022.689
1022.096
1021.473
1020.821
1020.141
1019.44
1018.717
1017.969
1017.197
1016.394
1015.553
1014.652
1013.639
1012.373
1023.698
1023.157
1022.587
1021.988
1021.358
1020.7
1020.021
1019.319
1018.594
1017.845
1017.07
1016.27
1015.437
1014.553
1013.574
1024.077
1023.559
1023.012
1022.435
1021.828
1021.192
1020.536
1019.855
1019.151
1018.424
1017.672
1016.898
1016.102
1015.28
1014.416
1024.398
1023.904
1023.38
1022.827
1022.243
1021.631
1020.997
1020.338
1019.656
1018.949
1018.218
1017.466
1016.695
1015.905
1015.093
1024.695
1024.225
1023.725
1023.196
1022.636
1022.047
1021.436
1020.801
1020.14
1019.456
1018.746
1018.015
1017.265
1016.497
1015.712
1025.019
1024.572
1024.096
1023.591
1023.055
1022.49
1021.903
1021.29
1020.653
1019.992
1019.304
1018.595
1017.866
1017.118
1016.353
1025.369
1024.946
1024.493
1024.011
1023.499
1022.959
1022.395
1021.807
1021.194
1020.556
1019.892
1019.205
1018.498
1017.771
1017.026
1025.731
1025.331
1024.902
1024.444
1023.956
1023.44
1022.901
1022.337
1021.748
1021.134
1020.494
1019.831
1019.147
1018.442
1017.718
1026.094
1025.718
1025.312
1024.878
1024.414
1023.922
1023.408
1022.868
1022.304
1021.715
1021.099
1020.46
1019.8
1019.118
1018.416
1015.478
1014.678
1013.856
1013.012
1012.146
1011.24
1010.29
1016.3
1015.52
1014.715
1013.886
1013.033
1012.153
1011.229
1010.207
1017.129
1016.371
1015.586
1014.775
1013.938
1013.073
1012.178
1011.207
1010.02
1017.973
1017.239
1016.478
1015.688
1014.87
1014.023
1013.149
1012.224
1011.167
1009.678
1018.845
1018.137
1017.4
1016.635
1015.839
1015.014
1014.163
1013.269
1012.291
1011.091
1009.108
1019.742
1019.059
1018.347
1017.606
1016.835
1016.034
1015.209
1014.345
1013.42
1012.365
1010.958
1008.289
1020.599
1019.941
1019.253
1018.537
1017.791
1017.016
1016.218
1015.387
1014.508
1013.546
1012.401
1010.768
1007.381
1021.387
1020.753
1020.09
1019.398
1018.676
1017.926
1017.155
1016.355
1015.519
1014.625
1013.625
1012.401
1010.566
1006.574
1022.099
1021.489
1020.849
1020.181
1019.483
1018.757
1018.011
1017.24
1016.439
1015.598
1014.69
1013.666
1012.384
1010.403
1005.998
1022.736
1022.149
1021.534
1020.889
1020.213
1019.511
1018.788
1018.042
1017.271
1016.468
1015.623
1014.711
1013.677
1012.368
1010.318
1023.301
1022.737
1022.145
1021.523
1020.871
1020.191
1019.491
1018.768
1018.021
1017.249
1016.445
1015.601
1014.693
1013.665
1012.366
1023.795
1023.254
1022.684
1022.085
1021.456
1020.799
1020.122
1019.421
1018.696
1017.949
1017.174
1016.372
1015.535
1014.638
1013.631
1024.218
1023.7
1023.154
1022.577
1021.971
1021.337
1020.682
1020.003
1019.3
1018.574
1017.823
1017.05
1016.253
1015.424
1014.544
1024.573
1024.079
1023.556
1023.003
1022.42
1021.808
1021.175
1020.518
1019.837
1019.133
1018.403
1017.653
1016.882
1016.09
1015.272
1024.873
1024.402
1023.902
1023.373
1022.814
1022.226
1021.615
1020.981
1020.322
1019.639
1018.931
1018.201
1017.453
1016.685
1015.899
1025.147
1024.701
1024.225
1023.72
1023.184
1022.62
1022.033
1021.422
1020.786
1020.126
1019.439
1018.731
1018.003
1017.257
1016.493
1025.448
1025.025
1024.573
1024.091
1023.58
1023.04
1022.477
1021.889
1021.277
1020.639
1019.976
1019.29
1018.584
1017.858
1017.114
1025.775
1025.375
1024.947
1024.489
1024.001
1023.485
1022.946
1022.383
1021.794
1021.181
1020.541
1019.879
1019.195
1018.491
1017.767
1026.114
1025.737
1025.332
1024.898
1024.434
1023.942
1023.428
1022.888
1022.324
1021.735
1021.12
1020.481
1019.821
1019.14
1018.438
1026.453
1026.1
1025.718
1025.308
1024.869
1024.401
1023.91
1023.395
1022.856
1022.291
1021.701
1021.086
1020.45
1019.792
1019.114
1016.275
1015.494
1014.689
1013.861
1013.011
1012.137
1011.234
1010.285
1017.074
1016.314
1015.529
1014.718
1013.882
1013.023
1012.145
1011.222
1010.202
1017.877
1017.141
1016.378
1015.587
1014.769
1013.926
1013.064
1012.17
1011.2
1010.016
1018.695
1017.984
1017.245
1016.477
1015.68
1014.857
1014.012
1013.139
1012.215
1011.159
1009.674
1019.539
1018.854
1018.14
1017.397
1016.624
1015.823
1015
1014.149
1013.255
1012.279
1011.081
1009.112
1020.408
1019.747
1019.058
1018.34
1017.591
1016.815
1016.017
1015.191
1014.328
1013.403
1012.348
1010.949
1008.303
1021.237
1020.602
1019.938
1019.244
1018.52
1017.769
1016.996
1016.198
1015.367
1014.488
1013.525
1012.386
1010.764
1007.407
1022
1021.389
1020.749
1020.079
1019.38
1018.653
1017.906
1017.134
1016.334
1015.498
1014.602
1013.606
1012.389
1010.568
1006.611
1022.687
1022.1
1021.484
1020.839
1020.163
1019.46
1018.737
1017.99
1017.218
1016.417
1015.574
1014.669
1013.65
1012.376
1010.41
1023.301
1022.737
1022.145
1021.523
1020.871
1020.191
1019.491
1018.768
1018.021
1017.249
1016.445
1015.601
1014.693
1013.665
1012.366
1023.843
1023.302
1022.733
1022.134
1021.506
1020.849
1020.172
1019.471
1018.748
1018
1017.226
1016.423
1015.583
1014.68
1013.658
1024.313
1023.796
1023.25
1022.674
1022.069
1021.435
1020.781
1020.103
1019.401
1018.676
1017.926
1017.153
1016.355
1015.521
1014.629
1024.713
1024.219
1023.696
1023.144
1022.562
1021.951
1021.319
1020.664
1019.984
1019.281
1018.553
1017.803
1017.033
1016.239
1015.415
1025.046
1024.576
1024.076
1023.547
1022.988
1022.401
1021.792
1021.158
1020.501
1019.82
1019.113
1018.385
1017.637
1016.87
1016.082
1025.324
1024.877
1024.401
1023.895
1023.36
1022.796
1022.21
1021.6
1020.965
1020.306
1019.621
1018.914
1018.188
1017.442
1016.678
1025.576
1025.153
1024.701
1024.219
1023.708
1023.169
1022.606
1022.019
1021.408
1020.771
1020.109
1019.424
1018.719
1017.994
1017.251
1025.854
1025.454
1025.026
1024.568
1024.081
1023.565
1023.027
1022.464
1021.876
1021.263
1020.624
1019.962
1019.279
1018.576
1017.853
1026.157
1025.781
1025.376
1024.942
1024.479
1023.987
1023.473
1022.934
1022.37
1021.781
1021.166
1020.528
1019.868
1019.187
1018.486
1026.472
1026.119
1025.738
1025.328
1024.888
1024.421
1023.93
1023.415
1022.876
1022.312
1021.721
1021.107
1020.471
1019.813
1019.135
1026.788
1026.458
1026.101
1025.714
1025.299
1024.855
1024.389
1023.898
1023.383
1022.843
1022.277
1021.688
1021.076
1020.443
1019.788
1017.049
1016.289
1015.503
1014.692
1013.857
1013.001
1012.13
1011.228
1010.28
1017.824
1017.087
1016.322
1015.53
1014.712
1013.871
1013.014
1012.138
1011.216
1010.197
1018.602
1017.889
1017.147
1016.378
1015.58
1014.756
1013.916
1013.054
1012.162
1011.193
1010.01
1019.393
1018.705
1017.988
1017.243
1016.468
1015.666
1014.844
1014
1013.128
1012.205
1011.15
1009.675
1020.209
1019.548
1018.856
1018.136
1017.385
1016.607
1015.808
1014.986
1014.135
1013.242
1012.267
1011.075
1009.121
1021.05
1020.413
1019.746
1019.051
1018.325
1017.571
1016.797
1015.999
1015.174
1014.31
1013.385
1012.336
1010.946
1008.322
1021.853
1021.24
1020.599
1019.928