/*--------------------------------*- C++ -*----------------------------------*\
| =========                 |                                                 |
| \\      /  F ield         | OpenFOAM: The Open Source CFD Toolbox           |
|  \\    /   O peration     | Version:  2306                                  |
|   \\  /    A nd           | Website:  www.openfoam.com                      |
|    \\/     M anipulation  |                                                 |
\*---------------------------------------------------------------------------*/
FoamFile
{
    version     2.0;
    format      ascii;
    arch        "LSB;label=32;scalar=64";
    class       volScalarField;
    location    "0.3/phiEA";
    object      J;
}
// * * * * * * * * * * * * * * * * * * * * * * * * * * * * * * * * * * * * * //

dimensions      [0 -3 0 0 0 1 0];

internalField   nonuniform List<scalar> 
20000
(
-1.10853e+09
-1.11697e+09
-9.979496e+08
-1.058339e+09
-1.133757e+09
-1.003148e+09
-1.066121e+09
-9.004838e+08
-9.556408e+08
-1.022865e+09
-1.158845e+09
-1.013226e+09
-1.081582e+09
-9.043006e+08
-9.604615e+08
-1.030209e+09
-8.220873e+08
-8.646134e+08
-9.255012e+08
-1.000848e+09
-1.191048e+09
-1.027699e+09
-1.104662e+09
-9.11618e+08
-9.698002e+08
-1.04479e+09
-8.25128e+08
-8.681708e+08
-9.300649e+08
-1.007945e+09
-7.575439e+08
-7.910685e+08
-8.389104e+08
-9.065726e+08
-9.909443e+08
-1.224971e+09
-1.045155e+09
-1.134247e+09
-9.219245e+08
-9.832035e+08
-1.066552e+09
-8.309196e+08
-8.749856e+08
-9.389015e+08
-1.022039e+09
-7.600703e+08
-7.939137e+08
-8.422885e+08
-9.109857e+08
-9.979596e+08
-7.028809e+08
-7.303005e+08
-7.687498e+08
-8.226374e+08
-8.978354e+08
0
-1.24952e+09
-1.061914e+09
-1.165357e+09
-9.339536e+08
-9.993577e+08
-1.094448e+09
-8.389719e+08
-8.845802e+08
-9.515823e+08
-1.043087e+09
-7.648622e+08
-7.993288e+08
-8.487566e+08
-9.195301e+08
-1.011902e+09
-7.050368e+08
-7.326721e+08
-7.714586e+08
-8.259077e+08
-9.021896e+08
0
-6.556528e+08
-6.786779e+08
-7.106379e+08
-7.545457e+08
-8.150161e+08
0
0
-1.263992e+09
-1.072834e+09
-1.18776e+09
-9.448943e+08
-1.014852e+09
-1.123786e+09
-8.481605e+08
-8.957734e+08
-9.668658e+08
-1.070107e+09
-7.714603e+08
-8.068551e+08
-8.578622e+08
-9.317955e+08
-1.032752e+09
-7.091163e+08
-7.37167e+08
-7.766117e+08
-8.321683e+08
-9.106225e+08
0
-6.575263e+08
-6.807073e+08
-7.129008e+08
-7.571713e+08
-8.182409e+08
0
0
-6.14207e+08
-6.339582e+08
-6.611675e+08
-6.980793e+08
-7.47843e+08
0
0
0
-1.27156e+09
-1.07846e+09
-1.200895e+09
-9.51463e+08
-1.024913e+09
-1.144838e+09
-8.56201e+08
-9.059458e+08
-9.815232e+08
-1.098584e+09
-7.788604e+08
-8.154395e+08
-8.684844e+08
-9.465893e+08
-1.059592e+09
-7.146935e+08
-7.43354e+08
-7.837727e+08
-8.409835e+08
-9.22737e+08
0
-6.610662e+08
-6.845447e+08
-7.171877e+08
-7.621649e+08
-8.244153e+08
0
0
-6.158584e+08
-6.357259e+08
-6.631077e+08
-7.002753e+08
-7.504323e+08
0
0
0
-5.773828e+08
-5.946214e+08
-6.182319e+08
-6.499545e+08
-6.921291e+08
0
0
0
0
-1.274728e+09
-1.080989e+09
-1.207727e+09
-9.543982e+08
-1.030075e+09
-1.157139e+09
-8.607159e+08
-9.120355e+08
-9.910098e+08
-1.118978e+09
-7.851407e+08
-8.229444e+08
-8.781345e+08
-9.607891e+08
-1.087992e+09
-7.208636e+08
-7.502891e+08
-7.919392e+08
-8.512713e+08
-9.373691e+08
0
-6.658778e+08
-6.897885e+08
-7.23087e+08
-7.691051e+08
-8.33113e+08
0
0
-6.189758e+08
-6.390636e+08
-6.667745e+08
-7.044343e+08
-7.55357e+08
0
0
0
-5.78854e+08
-5.961828e+08
-6.199248e+08
-6.518393e+08
-6.942953e+08
0
0
0
0
-5.443611e+08
-5.595964e+08
-5.804009e+08
-6.081417e+08
-6.446306e+08
0
0
0
0
0
-1.274728e+09
-1.081907e+09
-1.210575e+09
-9.554365e+08
-1.032382e+09
-1.163518e+09
-8.624586e+08
-9.147461e+08
-9.958615e+08
-1.130881e+09
-7.884659e+08
-8.271456e+08
-8.838924e+08
-9.699529e+08
-1.108324e+09
-7.259702e+08
-7.561675e+08
-7.990739e+08
-8.606192e+08
-9.514365e+08
0
-6.711429e+08
-6.95586e+08
-7.296978e+08
-7.770212e+08
-8.432718e+08
0
0
-6.231926e+08
-6.435984e+08
-6.717841e+08
-7.101578e+08
-7.622034e+08
0
0
0
-5.816314e+08
-5.991284e+08
-6.231196e+08
-6.554007e+08
-6.98398e+08
0
0
0
0
-5.456843e+08
-5.6099e+08
-5.818984e+08
-6.09788e+08
-6.464906e+08
0
0
0
0
0
-5.145216e+08
-5.281274e+08
-5.466646e+08
-5.712631e+08
-6.033463e+08
0
0
0
0
0
0
-1.27156e+09
-1.081907e+09
-1.210575e+09
-9.557e+08
-1.033216e+09
-1.166172e+09
-8.628743e+08
-9.156989e+08
-9.980241e+08
-1.137054e+09
-7.895598e+08
-8.287588e+08
-8.864456e+08
-9.746307e+08
-1.120205e+09
-7.285354e+08
-7.592683e+08
-8.030526e+08
-8.661766e+08
-9.604924e+08
0
-6.754117e+08
-7.003767e+08
-7.352955e+08
-7.839349e+08
-8.525077e+08
0
0
-6.277659e+08
-6.485564e+08
-6.773202e+08
-7.165717e+08
-7.700164e+08
0
0
0
-5.853761e+08
-6.031108e+08
-6.274589e+08
-6.60266e+08
-7.040452e+08
0
0
0
0
-5.48183e+08
-5.636193e+08
-5.847222e+08
-6.128941e+08
-6.500051e+08
0
0
0
0
0
-5.157206e+08
-5.29383e+08
-5.480031e+08
-5.727208e+08
-6.049716e+08
0
0
0
0
0
0
-4.8738e+08
-4.996407e+08
-5.163109e+08
-5.383453e+08
-5.669194e+08
0
0
0
0
0
0
0
-1.263992e+09
-1.080989e+09
-1.207727e+09
-9.557e+08
-1.033216e+09
-1.166172e+09
-8.628762e+08
-9.159377e+08
-9.988031e+08
-1.139622e+09
-7.896593e+08
-8.291376e+08
-8.873383e+08
-9.767146e+08
-1.126383e+09
-7.292402e+08
-7.602795e+08
-8.045715e+08
-8.686323e+08
-9.651118e+08
0
-6.774564e+08
-7.027718e+08
-7.382346e+08
-7.877733e+08
-8.579769e+08
0
0
-6.314121e+08
-6.525686e+08
-6.818885e+08
-7.219985e+08
-7.76839e+08
0
0
0
-5.894097e+08
-6.074258e+08
-6.322008e+08
-6.656421e+08
-7.103752e+08
0
0
0
0
-5.515422e+08
-5.671626e+08
-5.885387e+08
-6.171125e+08
-6.54807e+08
0
0
0
0
0
-5.179861e+08
-5.317527e+08
-5.505272e+08
-5.754687e+08
-6.08038e+08
0
0
0
0
0
0
-4.884735e+08
-5.007803e+08
-5.175183e+08
-5.396492e+08
-5.68359e+08
0
0
0
0
0
0
0
-4.625519e+08
-4.736873e+08
-4.887981e+08
-5.087021e+08
-5.343916e+08
0
0
0
0
0
0
0
0
-1.24952e+09
-1.07846e+09
-1.200895e+09
-9.554365e+08
-1.032382e+09
-1.163518e+09
-8.628762e+08
-9.159377e+08
-9.988031e+08
-1.139622e+09
-7.895363e+08
-8.291349e+08
-8.875599e+08
-9.774655e+08
-1.128961e+09
-7.291651e+08
-7.603637e+08
-8.049223e+08
-8.694878e+08
-9.671736e+08
0
-6.779128e+08
-7.034203e+08
-7.391838e+08
-7.892296e+08
-8.603858e+08
0
0
-6.330863e+08
-6.544794e+08
-6.841598e+08
-7.248328e+08
-7.806079e+08
0
0
0
-5.925816e+08
-6.108586e+08
-6.360314e+08
-6.700734e+08
-7.157279e+08
0
0
0
0
-5.551392e+08
-5.709753e+08
-5.926713e+08
-6.217212e+08
-6.601137e+08
0
0
0
0
0
-5.210247e+08
-5.349366e+08
-5.539275e+08
-5.791823e+08
-6.122029e+08
0
0
0
0
0
0
-4.905414e+08
-5.029323e+08
-5.197961e+08
-5.421077e+08
-5.71073e+08
0
0
0
0
0
0
0
-4.635545e+08
-4.747281e+08
-4.898951e+08
-5.098793e+08
-5.3568e+08
0
0
0
0
0
0
0
0
-4.397391e+08
-4.4991e+08
-4.637017e+08
-4.818113e+08
-5.050883e+08
0
0
0
0
0
0
0
0
0
-1.224971e+09
-1.072834e+09
-1.18776e+09
-9.543982e+08
-1.030075e+09
-1.157139e+09
-8.628743e+08
-9.156989e+08
-9.980241e+08
-1.137054e+09
-7.895363e+08
-8.291349e+08
-8.875599e+08
-9.774655e+08
-1.128961e+09
-7.289787e+08
-7.60244e+08
-8.049156e+08
-8.69699e+08
-9.67919e+08
0
-6.777374e+08
-7.033403e+08
-7.392548e+08
-7.895606e+08
-8.61223e+08
0
0
-6.333793e+08
-6.548953e+08
-6.847648e+08
-7.257387e+08
-7.820282e+08
0
0
0
-5.939858e+08
-6.124239e+08
-6.378437e+08
-6.722629e+08
-7.185069e+08
0
0
0
0
-5.579355e+08
-5.739661e+08
-5.959524e+08
-6.25439e+08
-6.644838e+08
0
0
0
0
0
-5.242628e+08
-5.383422e+08
-5.575837e+08
-5.832021e+08
-6.167535e+08
0
0
0
0
0
0
-4.933096e+08
-5.058169e+08
-5.228554e+08
-5.454191e+08
-5.747408e+08
0
0
0
0
0
0
0
-4.654524e+08
-4.766952e+08
-4.919661e+08
-5.120996e+08
-5.38109e+08
0
0
0
0
0
0
0
0
-4.406624e+08
-4.508654e+08
-4.647047e+08
-4.828817e+08
-5.062518e+08
0
0
0
0
0
0
0
0
0
-4.186953e+08
-4.280318e+08
-4.406836e+08
-4.572636e+08
-4.784958e+08
0
0
0
0
0
0
0
0
0
0
-1.191048e+09
-1.061914e+09
-1.165357e+09
-9.51463e+08
-1.024913e+09
-1.144838e+09
-8.624586e+08
-9.147461e+08
-9.958615e+08
-1.130881e+09
-7.896593e+08
-8.291376e+08
-8.873383e+08
-9.767146e+08
-1.126383e+09
-7.289787e+08
-7.60244e+08
-8.049156e+08
-8.69699e+08
-9.67919e+08
0
-6.775192e+08
-7.031605e+08
-7.391364e+08
-7.895503e+08
-8.614293e+08
0
0
-6.331473e+08
-6.547205e+08
-6.846791e+08
-7.257985e+08
-7.823458e+08
0
0
0
-5.941709e+08
-6.126866e+08
-6.382276e+08
-6.728362e+08
-7.193849e+08
0
0
0
0
-5.591343e+08
-5.752796e+08
-5.974372e+08
-6.271854e+08
-6.666284e+08
0
0
0
0
0
-5.267568e+08
-5.409827e+08
-5.604455e+08
-5.863884e+08
-6.204201e+08
0
0
0
0
0
0
-4.962479e+08
-5.088873e+08
-5.261251e+08
-5.489782e+08
-5.787112e+08
0
0
0
0
0
0
0
-4.679896e+08
-4.79327e+08
-4.94741e+08
-5.150812e+08
-5.413809e+08
0
0
0
0
0
0
0
0
-4.424126e+08
-4.526734e+08
-4.665999e+08
-4.84902e+08
-5.084464e+08
0
0
0
0
0
0
0
0
0
-4.195491e+08
-4.289128e+08
-4.416053e+08
-4.582429e+08
-4.795541e+08
0
0
0
0
0
0
0
0
0
0
-3.992086e+08
-4.078236e+08
-4.194818e+08
-4.347325e+08
-4.542116e+08
0
0
0
0
0
0
0
0
0
0
0
-1.158845e+09
-1.045155e+09
-1.134247e+09
-9.448943e+08
-1.014852e+09
-1.123786e+09
-8.607159e+08
-9.120355e+08
-9.910098e+08
-1.118978e+09
-7.895598e+08
-8.287588e+08
-8.864456e+08
-9.746306e+08
-1.120205e+09
-7.291651e+08
-7.603637e+08
-8.049223e+08
-8.694878e+08
-9.671736e+08
0
-6.775192e+08
-7.031605e+08
-7.391364e+08
-7.895503e+08
-8.614293e+08
0
0
-6.329151e+08
-6.5451e+08
-6.84503e+08
-7.256798e+08
-7.823321e+08
0
0
0
-5.939096e+08
-6.124579e+08
-6.380512e+08
-6.727443e+08
-7.19435e+08
0
0
0
0
-5.592452e+08
-5.754412e+08
-5.976755e+08
-6.275453e+08
-6.671799e+08
0
0
0
0
0
-5.277971e+08
-5.421044e+08
-5.616915e+08
-5.878187e+08
-6.221294e+08
0
0
0
0
0
0
-4.984939e+08
-5.112454e+08
-5.286541e+08
-5.51759e+08
-5.81854e+08
0
0
0
0
0
0
0
-4.706747e+08
-4.821172e+08
-4.976923e+08
-5.182666e+08
-5.448975e+08
0
0
0
0
0
0
0
0
-4.447496e+08
-4.550889e+08
-4.691343e+08
-4.876085e+08
-5.113935e+08
0
0
0
0
0
0
0
0
0
-4.211696e+08
-4.305822e+08
-4.43349e+08
-4.600929e+08
-4.815517e+08
0
0
0
0
0
0
0
0
0
0
-3.999993e+08
-4.086392e+08
-4.203325e+08
-4.35633e+08
-4.551802e+08
0
0
0
0
0
0
0
0
0
0
0
-3.811016e+08
-3.890875e+08
-3.998792e+08
-4.139652e+08
-4.319148e+08
0
0
0
0
0
0
0
0
0
0
0
0
-1.133757e+09
-1.027699e+09
-1.104662e+09
-9.339536e+08
-9.993577e+08
-1.094448e+09
-8.56201e+08
-9.059458e+08
-9.815232e+08
-1.098584e+09
-7.884659e+08
-8.271456e+08
-8.838924e+08
-9.699529e+08
-1.108324e+09
-7.292402e+08
-7.602795e+08
-8.045715e+08
-8.686323e+08
-9.651118e+08
0
-6.777374e+08
-7.033403e+08
-7.392548e+08
-7.895606e+08
-8.61223e+08
0
0
-6.329151e+08
-6.5451e+08
-6.84503e+08
-7.256798e+08
-7.823321e+08
0
0
0
-5.936747e+08
-6.122338e+08
-6.378455e+08
-6.725693e+08
-7.193142e+08
0
0
0
0
-5.589703e+08
-5.751845e+08
-5.974474e+08
-6.273654e+08
-6.670808e+08
0
0
0
0
0
-5.278576e+08
-5.421965e+08
-5.618338e+08
-5.880381e+08
-6.224718e+08
0
0
0
0
0
0
-4.994096e+08
-5.122193e+08
-5.297185e+08
-5.529592e+08
-5.832534e+08
0
0
0
0
0
0
0
-4.727154e+08
-4.842435e+08
-4.999531e+08
-5.207255e+08
-5.476409e+08
0
0
0
0
0
0
0
0
-4.472168e+08
-4.57642e+08
-4.71819e+08
-4.904856e+08
-5.145419e+08
0
0
0
0
0
0
0
0
0
-4.233306e+08
-4.328099e+08
-4.456775e+08
-4.625666e+08
-4.842279e+08
0
0
0
0
0
0
0
0
0
0
-4.015021e+08
-4.101867e+08
-4.219441e+08
-4.373363e+08
-4.570101e+08
0
0
0
0
0
0
0
0
0
0
0
-3.818375e+08
-3.898436e+08
-4.006675e+08
-4.147969e+08
-4.328058e+08
0
0
0
0
0
0
0
0
0
0
0
0
-3.64235e+08
-3.716574e+08
-3.816878e+08
-3.947522e+08
-4.113567e+08
0
0
0
0
0
0
0
0
0
0
0
0
0
-1.11697e+09
-1.013226e+09
-1.081582e+09
-9.219245e+08
-9.832035e+08
-1.066552e+09
-8.481605e+08
-8.957734e+08
-9.668658e+08
-1.070107e+09
-7.851407e+08
-8.229444e+08
-8.781345e+08
-9.607891e+08
-1.087992e+09
-7.285354e+08
-7.592683e+08
-8.030526e+08
-8.661766e+08
-9.604924e+08
0
-6.779128e+08
-7.034203e+08
-7.391838e+08
-7.892296e+08
-8.603858e+08
0
0
-6.331473e+08
-6.547205e+08
-6.846791e+08
-7.257985e+08
-7.823458e+08
0
0
0
-5.936747e+08
-6.122338e+08
-6.378455e+08
-6.725693e+08
-7.193142e+08
0
0
0
0
-5.587385e+08
-5.749574e+08
-5.972284e+08
-6.271616e+08
-6.669046e+08
0
0
0
0
0
-5.275797e+08
-5.419268e+08
-5.61579e+08
-5.878083e+08
-6.222866e+08
0
0
0
0
0
0
-4.99436e+08
-5.122644e+08
-5.29795e+08
-5.530862e+08
-5.834585e+08
0
0
0
0
0
0
0
-4.735327e+08
-4.851012e+08
-5.008773e+08
-5.217506e+08
-5.488147e+08
0
0
0
0
0
0
0
0
-4.490834e+08
-4.595764e+08
-4.738595e+08
-4.92685e+08
-5.169685e+08
0
0
0
0
0
0
0
0
0
-4.256046e+08
-4.351588e+08
-4.481365e+08
-4.651856e+08
-4.870725e+08
0
0
0
0
0
0
0
0
0
0
-4.035051e+08
-4.12249e+08
-4.240936e+08
-4.396104e+08
-4.59457e+08
0
0
0
0
0
0
0
0
0
0
0
-3.832384e+08
-3.912801e+08
-4.021627e+08
-4.16372e+08
-4.34491e+08
0
0
0
0
0
0
0
0
0
0
0
0
-3.64922e+08
-3.723618e+08
-3.82419e+08
-3.955231e+08
-4.121798e+08
0
0
0
0
0
0
0
0
0
0
0
0
0
-3.484838e+08
-3.554035e+08
-3.647495e+08
-3.769114e+08
-3.923313e+08
0
0
0
0
0
0
0
0
0
0
0
0
0
0
-1.10853e+09
-1.003148e+09
-1.066121e+09
-9.11618e+08
-9.698002e+08
-1.04479e+09
-8.389719e+08
-8.845802e+08
-9.515823e+08
-1.043087e+09
-7.788604e+08
-8.154395e+08
-8.684844e+08
-9.465893e+08
-1.059592e+09
-7.259702e+08
-7.561675e+08
-7.990739e+08
-8.606192e+08
-9.514365e+08
0
-6.774564e+08
-7.027718e+08
-7.382346e+08
-7.877733e+08
-8.579769e+08
0
0
-6.333793e+08
-6.548953e+08
-6.847648e+08
-7.257386e+08
-7.820282e+08
0
0
0
-5.939096e+08
-6.124579e+08
-6.380512e+08
-6.727443e+08
-7.19435e+08
0
0
0
0
-5.587385e+08
-5.749574e+08
-5.972284e+08
-6.271616e+08
-6.669046e+08
0
0
0
0
0
-5.273546e+08
-5.417024e+08
-5.613569e+08
-5.875915e+08
-6.220821e+08
0
0
0
0
0
0
-4.991617e+08
-5.119917e+08
-5.295277e+08
-5.528306e+08
-5.832245e+08
0
0
0
0
0
0
0
-4.73537e+08
-4.851145e+08
-5.009093e+08
-5.218143e+08
-5.489297e+08
0
0
0
0
0
0
0
0
-4.49819e+08
-4.603424e+08
-4.746737e+08
-4.935751e+08
-5.179707e+08
0
0
0
0
0
0
0
0
0
-4.273169e+08
-4.369302e+08
-4.499945e+08
-4.671719e+08
-4.892436e+08
0
0
0
0
0
0
0
0
0
0
-4.056118e+08
-4.144164e+08
-4.26358e+08
-4.420108e+08
-4.620472e+08
0
0
0
0
0
0
0
0
0
0
0
-3.85105e+08
-3.931938e+08
-4.041543e+08
-4.184727e+08
-4.367412e+08
0
0
0
0
0
0
0
0
0
0
0
0
-3.662319e+08
-3.737024e+08
-3.838081e+08
-3.969854e+08
-4.137387e+08
0
0
0
0
0
0
0
0
0
0
0
0
0
-3.49126e+08
-3.560617e+08
-3.654313e+08
-3.77627e+08
-3.930945e+08
0
0
0
0
0
0
0
0
0
0
0
0
0
0
-3.337291e+08
-3.402088e+08
-3.489413e+08
-3.602902e+08
-3.746595e+08
0
0
0
0
0
0
0
0
0
0
0
0
0
0
0
-9.979496e+08
-1.058339e+09
-9.043006e+08
-9.604615e+08
-1.030209e+09
-8.309196e+08
-8.749856e+08
-9.389015e+08
-1.022039e+09
-7.714603e+08
-8.068551e+08
-8.578622e+08
-9.317955e+08
-1.032752e+09
-7.208636e+08
-7.502891e+08
-7.919392e+08
-8.512713e+08
-9.373691e+08
0
-6.754117e+08
-7.003767e+08
-7.352955e+08
-7.839349e+08
-8.525077e+08
0
0
-6.330863e+08
-6.544794e+08
-6.841598e+08
-7.248328e+08
-7.806079e+08
0
0
0
-5.941709e+08
-6.126866e+08
-6.382276e+08
-6.728362e+08
-7.193849e+08
0
0
0
0
-5.589703e+08
-5.751845e+08
-5.974474e+08
-6.273654e+08
-6.670808e+08
0
0
0
0
0
-5.273546e+08
-5.417024e+08
-5.613569e+08
-5.875915e+08
-6.220821e+08
0
0
0
0
0
0
-4.989457e+08
-5.117736e+08
-5.29308e+08
-5.526108e+08
-5.830073e+08
0
0
0
0
0
0
0
-4.73271e+08
-4.848453e+08
-5.006393e+08
-5.215469e+08
-5.486709e+08
0
0
0
0
0
0
0
0
-4.498066e+08
-4.603354e+08
-4.746759e+08
-4.935964e+08
-5.180243e+08
0
0
0
0
0
0
0
0
0
-4.279829e+08
-4.3762e+08
-4.50722e+08
-4.679561e+08
-4.901139e+08
0
0
0
0
0
0
0
0
0
0
-4.071951e+08
-4.16043e+08
-4.28061e+08
-4.438205e+08
-4.640085e+08
0
0
0
0
0
0
0
0
0
0
-3.87066e+08
-3.952038e+08
-4.062455e+08
-4.206844e+08
-4.391159e+08
0
0
0
0
0
0
0
0
0
0
0
0
-3.679767e+08
-3.754875e+08
-3.856577e+08
-3.989329e+08
-4.158179e+08
0
0
0
0
0
0
0
0
0
0
0
0
0
-3.50352e+08
-3.573165e+08
-3.667286e+08
-3.789862e+08
-3.945422e+08
0
0
0
0
0
0
0
0
0
0
0
0
0
0
-3.34331e+08
-3.408246e+08
-3.495787e+08
-3.609577e+08
-3.753681e+08
0
0
0
0
0
0
0
0
0
0
0
0
0
0
0
-3.198777e+08
-3.259611e+08
-3.341516e+08
-3.447695e+08
-3.581911e+08
0
0
0
0
0
0
0
0
0
0
0
0
0
0
0
0
-9.004838e+08
-9.556408e+08
-1.022865e+09
-8.25128e+08
-8.681708e+08
-9.300649e+08
-1.007945e+09
-7.648622e+08
-7.993288e+08
-8.487566e+08
-9.195301e+08
-1.011902e+09
-7.146935e+08
-7.43354e+08
-7.837727e+08
-8.409835e+08
-9.22737e+08
0
-6.711429e+08
-6.95586e+08
-7.296978e+08
-7.770212e+08
-8.432718e+08
0
0
-6.314121e+08
-6.525686e+08
-6.818885e+08
-7.219985e+08
-7.76839e+08
0
0
0
-5.939858e+08
-6.124239e+08
-6.378437e+08
-6.722629e+08
-7.185069e+08
0
0
0
0
-5.592452e+08
-5.754412e+08
-5.976755e+08
-6.275453e+08
-6.671799e+08
0
0
0
0
0
-5.275797e+08
-5.419268e+08
-5.61579e+08
-5.878083e+08
-6.222866e+08
0
0
0
0
0
0
-4.989457e+08
-5.117736e+08
-5.29308e+08
-5.526108e+08
-5.830073e+08
0
0
0
0
0
0
0
-4.730654e+08
-4.846357e+08
-5.004256e+08
-5.213295e+08
-5.484509e+08
0
0
0
0
0
0
0
0
-4.495496e+08
-4.600742e+08
-4.744094e+08
-4.933266e+08
-5.177543e+08
0
0
0
0
0
0
0
0
0
-4.279609e+08
-4.375978e+08
-4.507054e+08
-4.679491e+08
-4.901264e+08
0
0
0
0
0
0
0
0
0
0
-4.078062e+08
-4.16668e+08
-4.287164e+08
-4.445214e+08
-4.647753e+08
0
0
0
0
0
0
0
0
0
0
-3.885376e+08
-3.967095e+08
-4.078105e+08
-4.22344e+08
-4.409035e+08
0
0
0
0
0
0
0
0
0
0
-3.698078e+08
-3.773605e+08
-3.875986e+08
-4.009766e+08
-4.180067e+08
0
0
0
0
0
0
0
0
0
0
0
0
0
-3.51984e+08
-3.589867e+08
-3.684553e+08
-3.807957e+08
-3.964703e+08
0
0
0
0
0
0
0
0
0
0
0
0
0
0
-3.354824e+08
-3.42e+08
-3.507939e+08
-3.622277e+08
-3.767141e+08
0
0
0
0
0
0
0
0
0
0
0
0
0
0
0
-3.204428e+08
-3.265387e+08
-3.347483e+08
-3.453939e+08
-3.588521e+08
0
0
0
0
0
0
0
0
0
0
0
0
0
0
0
0
-3.068451e+08
-3.125729e+08
-3.202733e+08
-3.302413e+08
-3.428088e+08
0
0
0
0
0
0
0
0
0
0
0
0
0
0
0
0
0
-8.220873e+08
-8.646134e+08
-9.255012e+08
-1.000848e+09
-7.600703e+08
-7.939137e+08
-8.422885e+08
-9.109857e+08
-9.979596e+08
-7.091163e+08
-7.37167e+08
-7.766117e+08
-8.321683e+08
-9.106225e+08
0
-6.658778e+08
-6.897885e+08
-7.23087e+08
-7.691051e+08
-8.33113e+08
0
0
-6.277659e+08
-6.485564e+08
-6.773202e+08
-7.165717e+08
-7.700164e+08
0
0
0
-5.925816e+08
-6.108586e+08
-6.360314e+08
-6.700734e+08
-7.157279e+08
0
0
0
0
-5.591343e+08
-5.752796e+08
-5.974372e+08
-6.271854e+08
-6.666284e+08
0
0
0
0
0
-5.278576e+08
-5.421965e+08
-5.618338e+08
-5.880381e+08
-6.224718e+08
0
0
0
0
0
0
-4.991617e+08
-5.119917e+08
-5.295277e+08
-5.528306e+08
-5.832245e+08
0
0
0
0
0
0
0
-4.730654e+08
-4.846357e+08
-5.004256e+08
-5.213295e+08
-5.484509e+08
0
0
0
0
0
0
0
0
-4.493541e+08
-4.598745e+08
-4.742039e+08
-4.931151e+08
-5.175369e+08
0
0
0
0
0
0
0
0
0
-4.277157e+08
-4.373453e+08
-4.504468e+08
-4.67683e+08
-4.898544e+08
0
0
0
0
0
0
0
0
0
0
-4.077795e+08
-4.166372e+08
-4.286857e+08
-4.444967e+08
-4.647606e+08
0
0
0
0
0
0
0
0
0
0
-3.891028e+08
-3.972834e+08
-4.084046e+08
-4.229757e+08
-4.415888e+08
0
0
0
0
0
0
0
0
0
0
-3.711789e+08
-3.787615e+08
-3.890484e+08
-4.025025e+08
-4.196465e+08
0
0
0
0
0
0
0
0
0
0
-3.536957e+08
-3.607373e+08
-3.702653e+08
-3.826935e+08
-3.984933e+08
0
0
0
0
0
0
0
0
0
0
0
0
0
0
-3.370153e+08
-3.435636e+08
-3.524107e+08
-3.639178e+08
-3.78506e+08
0
0
0
0
0
0
0
0
0
0
0
0
0
0
0
-3.215256e+08
-3.276435e+08
-3.358874e+08
-3.465841e+08
-3.601102e+08
0
0
0
0
0
0
0
0
0
0
0
0
0
0
0
0
-3.07377e+08
-3.131155e+08
-3.208333e+08
-3.30826e+08
-3.434274e+08
0
0
0
0
0
0
0
0
0
0
0
0
0
0
0
0
0
-2.945721e+08
-2.999646e+08
-3.072229e+08
-3.166016e+08
-3.284066e+08
0
0
0
0
0
0
0
0
0
0
0
0
0
0
0
0
0
0
-7.575439e+08
-7.910685e+08
-8.389104e+08
-9.065726e+08
-9.909443e+08
-7.050368e+08
-7.326721e+08
-7.714587e+08
-8.259077e+08
-9.021896e+08
0
-6.610662e+08
-6.845447e+08
-7.171877e+08
-7.621649e+08
-8.244153e+08
0
0
-6.231926e+08
-6.435984e+08
-6.717841e+08
-7.101578e+08
-7.622034e+08
0
0
0
-5.894097e+08
-6.074258e+08
-6.322008e+08
-6.656421e+08
-7.103752e+08
0
0
0
0
-5.579355e+08
-5.739661e+08
-5.959524e+08
-6.25439e+08
-6.644838e+08
0
0
0
0
0
-5.277971e+08
-5.421044e+08
-5.616915e+08
-5.878187e+08
-6.221294e+08
0
0
0
0
0
0
-4.99436e+08
-5.122644e+08
-5.29795e+08
-5.530862e+08
-5.834585e+08
0
0
0
0
0
0
0
-4.732709e+08
-4.848453e+08
-5.006393e+08
-5.215469e+08
-5.486709e+08
0
0
0
0
0
0
0
0
-4.493541e+08
-4.598744e+08
-4.742039e+08
-4.931151e+08
-5.175369e+08
0
0
0
0
0
0
0
0
0
-4.275311e+08
-4.371551e+08
-4.502507e+08
-4.674795e+08
-4.89643e+08
0
0
0
0
0
0
0
0
0
0
-4.075475e+08
-4.163962e+08
-4.284356e+08
-4.442385e+08
-4.644926e+08
0
0
0
0
0
0
0
0
0
0
-3.890744e+08
-3.972488e+08
-4.083661e+08
-4.229378e+08
-4.415574e+08
0
0
0
0
0
0
0
0
0
0
-3.717016e+08
-3.792927e+08
-3.895943e+08
-4.030752e+08
-4.202643e+08
0
0
0
0
0
0
0
0
0
0
-3.549775e+08
-3.620438e+08
-3.716153e+08
-3.841079e+08
-4.000015e+08
0
0
0
0
0
0
0
0
0
0
-3.386223e+08
-3.452015e+08
-3.541036e+08
-3.656885e+08
-3.803851e+08
0
0
0
0
0
0
0
0
0
0
0
0
0
0
0
-3.229673e+08
-3.291134e+08
-3.374019e+08
-3.481673e+08
-3.617843e+08
0
0
0
0
0
0
0
0
0
0
0
0
0
0
0
0
-3.083983e+08
-3.141554e+08
-3.219046e+08
-3.319422e+08
-3.446066e+08
0
0
0
0
0
0
0
0
0
0
0
0
0
0
0
0
0
-2.95074e+08
-3.004758e+08
-3.077493e+08
-3.171506e+08
-3.28986e+08
0
0
0
0
0
0
0
0
0
0
0
0
0
0
0
0
0
0
-2.829929e+08
-2.88081e+08
-2.949241e+08
-3.037696e+08
-3.148818e+08
0
0
0
0
0
0
0
0
0
0
0
0
0
0
0
0
0
0
0
-7.028809e+08
-7.303005e+08
-7.687498e+08
-8.226374e+08
-8.978354e+08
0
-6.575263e+08
-6.807073e+08
-7.129008e+08
-7.571713e+08
-8.182409e+08
0
0
-6.189758e+08
-6.390636e+08
-6.667745e+08
-7.044343e+08
-7.55357e+08
0
0
0
-5.853761e+08
-6.031108e+08
-6.274589e+08
-6.60266e+08
-7.040452e+08
0
0
0
0
-5.551392e+08
-5.709753e+08
-5.926713e+08
-6.217212e+08
-6.601137e+08
0
0
0
0
0
-5.267568e+08
-5.409827e+08
-5.604455e+08
-5.863884e+08
-6.204201e+08
0
0
0
0
0
0
-4.994096e+08
-5.122193e+08
-5.297185e+08
-5.529592e+08
-5.832534e+08
0
0
0
0
0
0
0
-4.73537e+08
-4.851145e+08
-5.009093e+08
-5.218143e+08
-5.489297e+08
0
0
0
0
0
0
0
0
-4.495496e+08
-4.600742e+08
-4.744094e+08
-4.933266e+08
-5.177543e+08
0
0
0
0
0
0
0
0
0
-4.27531e+08
-4.371551e+08
-4.502507e+08
-4.674795e+08
-4.89643e+08
0
0
0
0
0
0
0
0
0
0
-4.073738e+08
-4.162163e+08
-4.282489e+08
-4.440443e+08
-4.642892e+08
0
0
0
0
0
0
0
0
0
0
-3.888556e+08
-3.970205e+08
-4.081274e+08
-4.226882e+08
-4.412976e+08
0
0
0
0
0
0
0
0
0
0
-3.71671e+08
-3.792571e+08
-3.895528e+08
-4.030303e+08
-4.202203e+08
0
0
0
0
0
0
0
0
0
0
-3.554663e+08
-3.625355e+08
-3.72121e+08
-3.846344e+08
-4.005617e+08
0
0
0
0
0
0
0
0
0
0
-3.398253e+08
-3.46424e+08
-3.553635e+08
-3.670064e+08
-3.817835e+08
0
0
0
0
0
0
0
0
0
0
-3.244785e+08
-3.306524e+08
-3.389869e+08
-3.498243e+08
-3.635381e+08
0
0
0
0
0
0
0
0
0
0
0
0
0
0
0
0
-3.097582e+08
-3.155389e+08
-3.233293e+08
-3.33426e+08
-3.461752e+08
0
0
0
0
0
0
0
0
0
0
0
0
0
0
0
0
0
-2.960393e+08
-3.014572e+08
-3.087581e+08
-3.182008e+08
-3.30092e+08
0
0
0
0
0
0
0
0
0
0
0
0
0
0
0
0
0
0
-2.834673e+08
-2.885636e+08
-2.954203e+08
-3.042858e+08
-3.154259e+08
0
0
0
0
0
0
0
0
0
0
0
0
0
0
0
0
0
0
0
-2.720697e+08
-2.768602e+08
-2.83325e+08
-2.916711e+08
-3.021548e+08
0
0
0
0
0
0
0
0
0
0
0
0
0
0
0
0
0
0
0
0
-6.556528e+08
-6.786779e+08
-7.106379e+08
-7.545457e+08
-8.150161e+08
0
0
-6.158584e+08
-6.357259e+08
-6.631077e+08
-7.002753e+08
-7.504323e+08
0
0
0
-5.816314e+08
-5.991284e+08
-6.231196e+08
-6.554007e+08
-6.98398e+08
0
0
0
0
-5.515422e+08
-5.671626e+08
-5.885387e+08
-6.171125e+08
-6.54807e+08
0
0
0
0
0
-5.242628e+08
-5.383422e+08
-5.575837e+08
-5.832021e+08
-6.167535e+08
0
0
0
0
0
0
-4.984939e+08
-5.112454e+08
-5.286541e+08
-5.51759e+08
-5.81854e+08
0
0
0
0
0
0
0
-4.735326e+08
-4.851012e+08
-5.008773e+08
-5.217506e+08
-5.488147e+08
0
0
0
0
0
0
0
0
-4.498066e+08
-4.603354e+08
-4.746759e+08
-4.935964e+08
-5.180243e+08
0
0
0
0
0
0
0
0
0
-4.277156e+08
-4.373453e+08
-4.504467e+08
-4.67683e+08
-4.898544e+08
0
0
0
0
0
0
0
0
0
0
-4.073738e+08
-4.162163e+08
-4.282489e+08
-4.440443e+08
-4.642892e+08
0
0
0
0
0
0
0
0
0
0
-3.886923e+08
-3.968511e+08
-4.079507e+08
-4.225032e+08
-4.411035e+08
0
0
0
0
0
0
0
0
0
0
-3.714638e+08
-3.790416e+08
-3.893265e+08
-4.02792e+08
-4.199694e+08
0
0
0
0
0
0
0
0
0
0
-3.554375e+08
-3.624982e+08
-3.72079e+08
-3.84587e+08
-4.005113e+08
0
0
0
0
0
0
0
0
0
0
-3.402831e+08
-3.468842e+08
-3.558318e+08
-3.674943e+08
-3.822986e+08
0
0
0
0
0
0
0
0
0
0
-3.256104e+08
-3.318008e+08
-3.401666e+08
-3.510547e+08
-3.648413e+08
0
0
0
0
0
0
0
0
0
0
-3.11184e+08
-3.169873e+08
-3.248195e+08
-3.349779e+08
-3.478168e+08
0
0
0
0
0
0
0
0
0
0
0
0
0
0
0
0
0
-2.97325e+08
-3.027632e+08
-3.100998e+08
-3.195972e+08
-3.315625e+08
0
0
0
0
0
0
0
0
0
0
0
0
0
0
0
0
0
0
-2.843814e+08
-2.89492e+08
-2.963731e+08
-3.052751e+08
-3.164668e+08
0
0
0
0
0
0
0
0
0
0
0
0
0
0
0
0
0
0
0
-2.725186e+08
-2.773166e+08
-2.837936e+08
-2.921579e+08
-3.026665e+08
0
0
0
0
0
0
0
0
0
0
0
0
0
0
0
0
0
0
0
0
-2.617382e+08
-2.662669e+08
-2.723658e+08
-2.80256e+08
-2.901527e+08
0
0
0
0
0
0
0
0
0
0
0
0
0
0
0
0
0
0
0
0
0
-6.14207e+08
-6.339582e+08
-6.611675e+08
-6.980793e+08
-7.47843e+08
0
0
0
-5.78854e+08
-5.961828e+08
-6.199248e+08
-6.518393e+08
-6.942953e+08
0
0
0
0
-5.48183e+08
-5.636193e+08
-5.847222e+08
-6.128941e+08
-6.50005e+08
0
0
0
0
0
-5.210247e+08
-5.349366e+08
-5.539275e+08
-5.791823e+08
-6.122029e+08
0
0
0
0
0
0
-4.962479e+08
-5.088873e+08
-5.261251e+08
-5.489782e+08
-5.787112e+08
0
0
0
0
0
0
0
-4.727152e+08
-4.842435e+08
-4.999531e+08
-5.207255e+08
-5.476409e+08
0
0
0
0
0
0
0
0
-4.49819e+08
-4.603422e+08
-4.746737e+08
-4.935751e+08
-5.179707e+08
0
0
0
0
0
0
0
0
0
-4.279606e+08
-4.375978e+08
-4.507053e+08
-4.679491e+08
-4.901264e+08
0
0
0
0
0
0
0
0
0
0
-4.075476e+08
-4.163961e+08
-4.284356e+08
-4.442384e+08
-4.644926e+08
0
0
0
0
0
0
0
0
0
0
-3.886923e+08
-3.968512e+08
-4.079506e+08
-4.225032e+08
-4.411035e+08
0
0
0
0
0
0
0
0
0
0
-3.7131e+08
-3.788822e+08
-3.8916e+08
-4.026169e+08
-4.197844e+08
0
0
0
0
0
0
0
0
0
0
-3.552435e+08
-3.622941e+08
-3.718654e+08
-3.843612e+08
-4.002718e+08
0
0
0
0
0
0
0
0
0
0
-3.402553e+08
-3.468492e+08
-3.557887e+08
-3.67447e+08
-3.822463e+08
0
0
0
0
0
0
0
0
0
0
-3.260421e+08
-3.322323e+08
-3.406053e+08
-3.515068e+08
-3.653189e+08
0
0
0
0
0
0
0
0
0
0
-3.122534e+08
-3.180687e+08
-3.259285e+08
-3.361306e+08
-3.490339e+08
0
0
0
0
0
0
0
0
0
0
-2.986736e+08
-3.041309e+08
-3.115032e+08
-3.21057e+08
-3.331003e+08
0
0
0
0
0
0
0
0
0
0
0
0
0
0
0
0
0
0
-2.855994e+08
-2.907277e+08
-2.976404e+08
-3.065907e+08
-3.178509e+08
0
0
0
0
0
0
0
0
0
0
0
0
0
0
0
0
0
0
0
-2.733853e+08
-2.781963e+08
-2.846953e+08
-2.930926e+08
-3.036473e+08
0
0
0
0
0
0
0
0
0
0
0
0
0
0
0
0
0
0
0
0
-2.621637e+08
-2.666991e+08
-2.728093e+08
-2.807159e+08
-2.906353e+08
0
0
0
0
0
0
0
0
0
0
0
0
0
0
0
0
0
0
0
0
0
-2.519511e+08
-2.562401e+08
-2.620138e+08
-2.694663e+08
-2.788261e+08
0
0
0
0
0
0
0
0
0
0
0
0
0
0
0
0
0
0
0
0
0
0
-5.773828e+08
-5.946214e+08
-6.182319e+08
-6.499545e+08
-6.921291e+08
0
0
0
0
-5.456843e+08
-5.6099e+08
-5.818984e+08
-6.09788e+08
-6.464906e+08
0
0
0
0
0
-5.179861e+08
-5.317527e+08
-5.505272e+08
-5.754687e+08
-6.08038e+08
0
0
0
0
0
0
-4.933096e+08
-5.058169e+08
-5.228554e+08
-5.454191e+08
-5.747408e+08
0
0
0
0
0
0
0
-4.706745e+08
-4.821171e+08
-4.976923e+08
-5.182666e+08
-5.448975e+08
0
0
0
0
0
0
0
0
-4.490835e+08
-4.595762e+08
-4.738595e+08
-4.92685e+08
-5.169685e+08
0
0
0
0
0
0
0
0
0
-4.279826e+08
-4.3762e+08
-4.507218e+08
-4.679561e+08
-4.901139e+08
0
0
0
0
0
0
0
0
0
0
-4.077796e+08
-4.166369e+08
-4.286857e+08
-4.444966e+08
-4.647606e+08
0
0
0
0
0
0
0
0
0
0
-3.888556e+08
-3.970206e+08
-4.081273e+08
-4.226882e+08
-4.412976e+08
0
0
0
0
0
0
0
0
0
0
-3.713101e+08
-3.788822e+08
-3.8916e+08
-4.026168e+08
-4.197844e+08
0
0
0
0
0
0
0
0
0
0
-3.550995e+08
-3.621439e+08
-3.717086e+08
-3.841961e+08
-4.000967e+08
0
0
0
0
0
0
0
0
0
0
-3.400727e+08
-3.466579e+08
-3.555862e+08
-3.672337e+08
-3.820193e+08
0
0
0
0
0
0
0
0
0
0
-3.260174e+08
-3.321986e+08
-3.405648e+08
-3.514587e+08
-3.65267e+08
0
0
0
0
0
0
0
0
0
0
-3.126634e+08
-3.184759e+08
-3.263401e+08
-3.365544e+08
-3.494766e+08
0
0
0
0
0
0
0
0
0
0
-2.99687e+08
-3.051534e+08
-3.125482e+08
-3.22141e+08
-3.342408e+08
0
0
0
0
0
0
0
0
0
0
-2.868778e+08
-2.920222e+08
-2.989662e+08
-3.079659e+08
-3.192977e+08
0
0
0
0
0
0
0
0
0
0
0
0
0
0
0
0
0
0
0
-2.745406e+08
-2.793676e+08
-2.85895e+08
-2.943356e+08
-3.049516e+08
0
0
0
0
0
0
0
0
0
0
0
0
0
0
0
0
0
0
0
0
-2.629869e+08
-2.675336e+08
-2.736641e+08
-2.816007e+08
-2.915621e+08
0
0
0
0
0
0
0
0
0
0
0
0
0
0
0
0
0
0
0
0
0
-2.523551e+08
-2.5665e+08
-2.624339e+08
-2.699016e+08
-2.792821e+08
0
0
0
0
0
0
0
0
0
0
0
0
0
0
0
0
0
0
0
0
0
0
-2.426761e+08
-2.467348e+08
-2.522098e+08
-2.592705e+08
-2.681178e+08
0
0
0
0
0
0
0
0
0
0
0
0
0
0
0
0
0
0
0
0
0
0
0
-5.443611e+08
-5.595964e+08
-5.804009e+08
-6.081417e+08
-6.446306e+08
0
0
0
0
0
-5.157206e+08
-5.29383e+08
-5.480031e+08
-5.727208e+08
-6.049716e+08
0
0
0
0
0
0
-4.905414e+08
-5.029323e+08
-5.197961e+08
-5.421077e+08
-5.71073e+08
0
0
0
0
0
0
0
-4.679894e+08
-4.79327e+08
-4.94741e+08
-5.150812e+08
-5.413809e+08
0
0
0
0
0
0
0
0
-4.472169e+08
-4.576418e+08
-4.71819e+08
-4.904856e+08
-5.145419e+08
0
0
0
0
0
0
0
0
0
-4.273165e+08
-4.369302e+08
-4.499943e+08
-4.671719e+08
-4.892436e+08
0
0
0
0
0
0
0
0
0
0
-4.078062e+08
-4.166677e+08
-4.287164e+08
-4.445212e+08
-4.647753e+08
0
0
0
0
0
0
0
0
0
0
-3.890743e+08
-3.972489e+08
-4.083659e+08
-4.229378e+08
-4.415573e+08
0
0
0
0
0
0
0
0
0
0
-3.714639e+08
-3.790416e+08
-3.893266e+08
-4.027919e+08
-4.199694e+08
0
0
0
0
0
0
0
0
0
0
-3.550995e+08
-3.621439e+08
-3.717085e+08
-3.841961e+08
-4.000967e+08
0
0
0
0
0
0
0
0
0
0
-3.399373e+08
-3.46517e+08
-3.554383e+08
-3.670781e+08
-3.818543e+08
0
0
0
0
0
0
0
0
0
0
-3.258467e+08
-3.320183e+08
-3.403749e+08
-3.512565e+08
-3.650526e+08
0
0
0
0
0
0
0
0
0
0
-3.126432e+08
-3.184456e+08
-3.263013e+08
-3.365093e+08
-3.494243e+08
0
0
0
0
0
0
0
0
0
0
-3.000779e+08
-3.055406e+08
-3.129369e+08
-3.225388e+08
-3.346559e+08
0
0
0
0
0
0
0
0
0
0
-2.878403e+08
-2.929919e+08
-2.999549e+08
-3.089878e+08
-3.203706e+08
0
0
0
0
0
0
0
0
0
0
-2.75754e+08
-2.805956e+08
-2.871507e+08
-2.956354e+08
-3.063149e+08
0
0
0
0
0
0
0
0
0
0
0
0
0
0
0
0
0
0
0
0
-2.640846e+08
-2.686454e+08
-2.74802e+08
-2.827779e+08
-2.927947e+08
0
0
0
0
0
0
0
0
0
0
0
0
0
0
0
0
0
0
0
0
0
-2.531382e+08
-2.574431e+08
-2.632452e+08
-2.707408e+08
-2.801596e+08
0
0
0
0
0
0
0
0
0
0
0
0
0
0
0
0
0
0
0
0
0
0
-2.4306e+08
-2.471242e+08
-2.526084e+08
-2.596829e+08
-2.685495e+08
0
0
0
0
0
0
0
0
0
0
0
0
0
0
0
0
0
0
0
0
0
0
0
-2.338782e+08
-2.377208e+08
-2.429108e+08
-2.496109e+08
-2.57997e+08
0
0
0
0
0
0