/*--------------------------------*- C++ -*----------------------------------*\
| =========                 |                                                 |
| \\      /  F ield         | OpenFOAM: The Open Source CFD Toolbox           |
|  \\    /   O peration     | Version:  2306                                  |
|   \\  /    A nd           | Website:  www.openfoam.com                      |
|    \\/     M anipulation  |                                                 |
\*---------------------------------------------------------------------------*/
FoamFile
{
    version     2.0;
    format      ascii;
    arch        "LSB;label=32;scalar=64";
    class       volScalarField;
    location    "0.3/phiEA";
    object      phi;
}
// * * * * * * * * * * * * * * * * * * * * * * * * * * * * * * * * * * * * * //

dimensions      [1 2 -3 0 0 -1 0];

internalField   nonuniform List<scalar> 
20000
(
-0.005576338
-0.005730572
-0.005137691
-0.00557103
-0.00607229
-0.005272091
-0.005725173
-0.00468222
-0.005132914
-0.005560645
-0.006668998
-0.005570555
-0.006066707
-0.004801165
-0.005267243
-0.005714608
-0.004285385
-0.004677912
-0.005123554
-0.005545345
-0.007601723
-0.006093397
-0.006663172
-0.005065634
-0.005565564
-0.00605578
-0.004392673
-0.004796797
-0.005257742
-0.005699041
-0.003948471
-0.004281455
-0.00466946
-0.005109749
-0.00552523
-0.008853018
-0.006913351
-0.007595779
-0.005529689
-0.006088223
-0.006651767
-0.0046314
-0.005061146
-0.005555781
-0.006039677
-0.004046562
-0.004388689
-0.004788227
-0.005243727
-0.005678575
-0.003660987
-0.00394485
-0.004273735
-0.004656983
-0.005091585
-0.005503717
-0.0100841
-0.008016167
-0.008847463
-0.006258639
-0.00690812
-0.007584151
-0.005050698
-0.00552505
-0.006078079
-0.006634958
-0.004264941
-0.004627311
-0.005052338
-0.005541347
-0.006018503
-0.003751524
-0.004042894
-0.004380866
-0.004775572
-0.005225286
-0.005656684
-0.0034128
-0.003657628
-0.003937733
-0.004262329
-0.004640554
-0.005072147
-0.005485335
-0.01108782
-0.009102113
-0.01007877
-0.007240214
-0.008011339
-0.008836628
-0.005709978
-0.006253963
-0.006897866
-0.007567019
-0.004648762
-0.005046477
-0.005515941
-0.006063109
-0.006612851
-0.003953167
-0.004261179
-0.004619279
-0.005039329
-0.005522351
-0.005995851
-0.003496943
-0.003748123
-0.004035684
-0.004369304
-0.004758909
-0.005205551
-0.005637931
-0.00319578
-0.003409667
-0.003651021
-0.00392721
-0.004247301
-0.004622965
-0.005055541
-0.005466716
-0.01177953
-0.009987895
-0.01108256
-0.008206946
-0.009097527
-0.01006839
-0.00659835
-0.007235916
-0.008001897
-0.008820702
-0.00525266
-0.005705733
-0.006244787
-0.006882738
-0.00754449
-0.004307751
-0.004644882
-0.005038183
-0.005502485
-0.006043402
-0.006589196
-0.003684404
-0.00394968
-0.004253782
-0.004607406
-0.005022197
-0.005502018
-0.005976348
-0.003274396
-0.003493772
-0.003741431
-0.004025021
-0.00435407
-0.004741067
-0.005188646
-0.005618888
-0.003003743
-0.003192846
-0.003403502
-0.003641247
-0.003913338
-0.004231204
-0.00460794
-0.005038722
-0.00544786
-0.01212977
-0.01059853
-0.01177428
-0.008995423
-0.009983403
-0.01107232
-0.007473352
-0.008202879
-0.009088575
-0.01005315
-0.00606679
-0.006594456
-0.007227498
-0.007987996
-0.0087998
-0.004865922
-0.005248762
-0.005697391
-0.006231232
-0.006862824
-0.007520387
-0.004014183
-0.004304157
-0.004637251
-0.00502592
-0.005484758
-0.006022304
-0.006568716
-0.003449589
-0.003681154
-0.003942818
-0.00424284
-0.004591759
-0.005003849
-0.005484512
-0.005956447
-0.003077505
-0.003271426
-0.003487528
-0.00373153
-0.004010965
-0.004337752
-0.004725787
-0.005171481
-0.005599555
-0.002832094
-0.003000985
-0.003187068
-0.003394375
-0.003628356
-0.003898474
-0.004217457
-0.004592726
-0.005021691
-0.005428769
-0.01212977
-0.01090779
-0.01212452
-0.00953891
-0.01059407
-0.01176407
-0.008186949
-0.008991449
-0.009974641
-0.01105731
-0.006868718
-0.007469674
-0.008194926
-0.009075413
-0.01003318
-0.005618668
-0.006063219
-0.006586819
-0.007215089
-0.007969729
-0.008777471
-0.004533507
-0.004862314
-0.005241096
-0.005685059
-0.006213375
-0.006841505
-0.007499548
-0.003757886
-0.004010835
-0.004297084
-0.00462596
-0.005009755
-0.005465769
-0.006004033
-0.006547702
-0.003241918
-0.003446546
-0.003674754
-0.003932663
-0.004228413
-0.004574996
-0.004988055
-0.005466648
-0.005936148
-0.002901541
-0.003074714
-0.003265575
-0.003478285
-0.003718471
-0.003995901
-0.004323779
-0.004710275
-0.005154057
-0.005579934
-0.002677357
-0.002829494
-0.002995551
-0.00317851
-0.003382334
-0.003614538
-0.003885781
-0.004203539
-0.004577323
-0.005004449
-0.005225839
-0.01177953
-0.01090779
-0.01212452
-0.009814138
-0.01090334
-0.01211432
-0.008678768
-0.009534969
-0.01058537
-0.01174912
-0.007522689
-0.008183359
-0.008983683
-0.009961766
-0.01103765
-0.006360177
-0.006865349
-0.00746247
-0.008183215
-0.009058137
-0.01001187
-0.005234058
-0.005615367
-0.006056209
-0.00657555
-0.007198768
-0.007950201
-0.008758689
-0.004243533
-0.004530148
-0.004855214
-0.005229755
-0.005668804
-0.006194247
-0.00682306
-0.007478195
-0.003531325
-0.003754753
-0.004004241
-0.004286612
-0.00461107
-0.004992432
-0.005449327
-0.005985281
-0.006526155
-0.003056364
-0.003239059
-0.003440551
-0.003665277
-0.003919266
-0.00421295
-0.004560569
-0.004971942
-0.005448427
-0.005915451
-0.00274293
-0.002898909
-0.003069212
-0.00325691
-0.003466089
-0.003704472
-0.003983005
-0.004309596
-0.004694532
-0.005136373
-0.005370888
-0.002536853
-0.0026749
-0.002824368
-0.002987499
-0.003167215
-0.003369422
-0.00360274
-0.003872931
-0.00418945
-0.004561731
-0.004821189
-0.004816747
-0.01108782
-0.01059853
-0.01177428
-0.009814138
-0.01090334
-0.01211432
-0.00892781
-0.009810206
-0.01089465
-0.01209937
-0.007973382
-0.008675209
-0.009527267
-0.01057258
-0.01172953
-0.006964864
-0.007519403
-0.008176333
-0.008972253
-0.009944874
-0.01101668
-0.005924191
-0.006357065
-0.006858744
-0.007451853
-0.008167828
-0.009039682
-0.009994272
-0.004898805
-0.005230986
-0.00560888
-0.006045857
-0.006560718
-0.007181309
-0.007933761
-0.008739958
-0.003987334
-0.004240392
-0.004523533
-0.004844704
-0.005214798
-0.005651383
-0.0061777
-0.006804149
-0.007456322
-0.003328953
-0.003528382
-0.003748578
-0.003994474
-0.004272795
-0.004595106
-0.004977434
-0.005432456
-0.005966049
-0.006504073
-0.002889141
-0.00305367
-0.003233423
-0.003431669
-0.003652771
-0.003904903
-0.004199643
-0.004545852
-0.004955509
-0.005429848
-0.005693964
-0.002598921
-0.002740444
-0.002893721
-0.00306106
-0.003245472
-0.00345301
-0.003692488
-0.003969916
-0.004295204
-0.004678557
-0.004947983
-0.004944897
-0.002408483
-0.002534526
-0.002670054
-0.002816771
-0.002976869
-0.0031551
-0.003358398
-0.003590797
-0.003859926
-0.004175191
-0.004396048
-0.004451869
-0.004387734
-0.0100841
-0.009987895
-0.01108256
-0.00953891
-0.01059407
-0.01176407
-0.00892781
-0.009810206
-0.01089465
-0.01209937
-0.008201589
-0.008924261
-0.009802524
-0.01088189
-0.01207979
-0.007381577
-0.007970126
-0.008668246
-0.009515935
-0.01055582
-0.01170863
-0.006486979
-0.00696183
-0.007512965
-0.008165982
-0.008957242
-0.009926835
-0.0109995
-0.005544366
-0.005921297
-0.006350957
-0.006849
-0.007437891
-0.008151381
-0.009024439
-0.009977061
-0.004602728
-0.004895933
-0.005224948
-0.005599294
-0.006032224
-0.006544843
-0.007166609
-0.007917352
-0.008721279
-0.003758557
-0.003984384
-0.004234201
-0.004513737
-0.004830836
-0.005198762
-0.005636314
-0.006160734
-0.006784766
-0.007433924
-0.003146616
-0.003326181
-0.003522579
-0.003739428
-0.003981582
-0.004257977
-0.004581287
-0.004962048
-0.005415155
-0.005946336
-0.006266569
-0.002737334
-0.002886595
-0.003048355
-0.00322507
-0.003419944
-0.003639358
-0.003892544
-0.004186072
-0.004530847
-0.004938757
-0.005231029
-0.0052329
-0.002467357
-0.002596565
-0.002735538
-0.00288603
-0.003050297
-0.003233203
-0.003441815
-0.003680326
-0.003956636
-0.004280603
-0.004508406
-0.004564171
-0.004493939
-0.002290599
-0.002406274
-0.002529933
-0.002662868
-0.002806737
-0.002965464
-0.003144758
-0.00334724
-0.003578711
-0.003846765
-0.004023691
-0.0040624
-0.00406462
-0.003942246
-0.008853018
-0.009102113
-0.01007877
-0.008995423
-0.009983403
-0.01107232
-0.008678768
-0.009534969
-0.01058537
-0.01174912
-0.008201589
-0.008924261
-0.009802524
-0.01088189
-0.01207979
-0.007592572
-0.008198343
-0.008917318
-0.009791222
-0.01086516
-0.01205889
-0.006874811
-0.007378571
-0.007963749
-0.00865799
-0.009501055
-0.01053791
-0.01169157
-0.00607081
-0.006484159
-0.006955879
-0.007503472
-0.008152376
-0.008941201
-0.009912062
-0.01098285
-0.005209035
-0.005541662
-0.005915614
-0.00634194
-0.006836179
-0.007422959
-0.008137795
-0.009009521
-0.009960236
-0.004338408
-0.004600034
-0.004890284
-0.005216018
-0.005586663
-0.006017626
-0.006531477
-0.007151936
-0.007900976
-0.008702655
-0.003552477
-0.003755779
-0.003978568
-0.004225027
-0.004500804
-0.004815962
-0.005184892
-0.005620865
-0.006143346
-0.006764907
-0.007193169
-0.002981121
-0.003143997
-0.003320711
-0.003513977
-0.003727346
-0.003967751
-0.004245151
-0.004567113
-0.004946273
-0.005397424
-0.005734265
-0.005758393
-0.002598665
-0.002734923
-0.002881571
-0.003040476
-0.003214038
-0.003407365
-0.003627818
-0.003879941
-0.004172236
-0.004515552
-0.00475952
-0.00481711
-0.004734502
-0.002346546
-0.002465121
-0.002591918
-0.002728264
-0.002875872
-0.003038748
-0.003222701
-0.003430455
-0.003667988
-0.003943166
-0.004125109
-0.004162017
-0.004157892
-0.004022022
-0.002181868
-0.002288499
-0.002401914
-0.002523122
-0.002653374
-0.00279597
-0.002955727
-0.00313429
-0.003335949
-0.003566481
-0.00370695
-0.003718803
-0.003712739
-0.003662494
-0.003484441
-0.007601723
-0.008016167
-0.008847463
-0.008206946
-0.009097527
-0.01006839
-0.008186949
-0.008991449
-0.009974641
-0.01105731
-0.007973382
-0.008675209
-0.009527267
-0.01057258
-0.01172953
-0.007592572
-0.008198343
-0.008917318
-0.009791222
-0.01086516
-0.01205889
-0.00707118
-0.007589576
-0.008191984
-0.008907091
-0.009776381
-0.0108473
-0.01204186
-0.006433594
-0.006872018
-0.007372678
-0.007954346
-0.00864451
-0.009485154
-0.0105233
-0.01167507
-0.005703473
-0.006068176
-0.006478624
-0.006947098
-0.007490985
-0.008137827
-0.008928063
-0.009897729
-0.01096671
-0.004909723
-0.005206498
-0.005536348
-0.005907218
-0.006330069
-0.00682246
-0.007410624
-0.008124496
-0.008994927
-0.009943798
-0.004100355
-0.004335871
-0.004594729
-0.004881926
-0.005204245
-0.005573133
-0.006005335
-0.006518135
-0.00713729
-0.007884635
-0.008507704
-0.003365466
-0.003549853
-0.003750298
-0.003969946
-0.004212913
-0.00448693
-0.004803098
-0.005170674
-0.005605034
-0.006125531
-0.00655132
-0.006673545
-0.002829972
-0.002978641
-0.003138827
-0.003312598
-0.003502613
-0.003714381
-0.003955782
-0.004231996
-0.004552581
-0.004930107
-0.005206701
-0.005280103
-0.005188638
-0.002471343
-0.002596377
-0.002730164
-0.00287412
-0.003030068
-0.003202201
-0.003396543
-0.00361605
-0.003867093
-0.004158136
-0.004351935
-0.004386643
-0.004369605
-0.004202516
-0.002235122
-0.002344422
-0.002460709
-0.002585023
-0.002718654
-0.002864971
-0.003028864
-0.003212046
-0.003418931
-0.003655474
-0.003799721
-0.003808772
-0.003795548
-0.003732704
-0.003534452
-0.002081186
-0.002179869
-0.002284352
-0.002395445
-0.002514121
-0.002643185
-0.002786779
-0.002945874
-0.003123697
-0.003324524
-0.003436566
-0.003425717
-0.003399439
-0.003349768
-0.003249187
-0.003181911
-0.006668998
-0.006913351
-0.007595779
-0.007240214
-0.008011339
-0.008836628
-0.007473352
-0.008202879
-0.009088575
-0.01005315
-0.007522689
-0.008183359
-0.008983683
-0.009961766
-0.01103765
-0.007381577
-0.007970126
-0.008668246
-0.009515935
-0.01055582
-0.01170863
-0.00707118
-0.007589576
-0.008191984
-0.008907091
-0.009776381
-0.0108473
-0.01204186
-0.00661728
-0.007068396
-0.007583701
-0.008182611
-0.008893651
-0.009760523
-0.01083272
-0.0120254
-0.006044201
-0.006430986
-0.006866538
-0.007363983
-0.00794198
-0.008630097
-0.00947217
-0.01050916
-0.01165914
-0.005375633
-0.005701002
-0.006063002
-0.006470451
-0.006935542
-0.007477626
-0.00812591
-0.008915315
-0.009883837
-0.0109511
-0.00464019
-0.004907335
-0.005201509
-0.005528493
-0.005896159
-0.006317361
-0.006811127
-0.007398549
-0.008111486
-0.00898066
-0.009775292
-0.003884361
-0.004097959
-0.004330874
-0.004586877
-0.004870904
-0.00519163
-0.005561741
-0.005993067
-0.006504818
-0.007122674
-0.00771344
-0.008145151
-0.003194695
-0.003362982
-0.003544674
-0.00374217
-0.003958557
-0.004199913
-0.004474931
-0.004789913
-0.005156104
-0.005588815
-0.005933935
-0.006089238
-0.006065824
-0.002691209
-0.002827619
-0.002973744
-0.003131158
-0.00330188
-0.003490417
-0.003703161
-0.003943505
-0.004218511
-0.004537691
-0.00475625
-0.004798489
-0.004770564
-0.004551863
-0.002353921
-0.002469168
-0.002591859
-0.002723103
-0.002864275
-0.003018896
-0.003192018
-0.003385508
-0.003604055
-0.003854001
-0.00400731
-0.004011785
-0.003983723
-0.003891854
-0.003644011
-0.002131949
-0.002233099
-0.002340226
-0.002454162
-0.002575912
-0.002708338
-0.00285564
-0.003018835
-0.003201237
-0.003407244
-0.003522225
-0.003508047
-0.003474264
-0.003412154
-0.003293335
-0.00321159
-0.001987643
-0.00207928
-0.00217592
-0.002278199
-0.002386895
-0.002504458
-0.002634487
-0.002777477
-0.002935903
-0.00311298
-0.003203171
-0.003175344
-0.003131243
-0.003068032
-0.002976765
-0.002975985
-0.003014663
-0.00607229
-0.006093397
-0.006663172
-0.006258639
-0.00690812
-0.007584151
-0.00659835
-0.007235916
-0.008001897
-0.008820702
-0.006868718
-0.007469674
-0.008194926
-0.009075413
-0.01003318
-0.006964864
-0.007519403
-0.008176333
-0.008972253
-0.009944874
-0.01101668
-0.006874811
-0.007378571
-0.007963749
-0.00865799
-0.009501055
-0.01053791
-0.01169157
-0.00661728
-0.007068396
-0.007583701
-0.008182611
-0.008893651
-0.009760523
-0.01083272
-0.0120254
-0.006216718
-0.006614679
-0.007062933
-0.007575034
-0.008170283
-0.008879282
-0.009747587
-0.01081864
-0.01200952
-0.005696703
-0.006041754
-0.006425863
-0.006858446
-0.007352541
-0.007928751
-0.008618329
-0.009459614
-0.0104955
-0.01164378
-0.005080437
-0.005373308
-0.005696146
-0.006055357
-0.006459688
-0.006923172
-0.007466685
-0.008114348
-0.008902959
-0.009870388
-0.01079259
-0.004395659
-0.004637936
-0.004902637
-0.005194132
-0.005518142
-0.005884316
-0.006306863
-0.006800033
-0.007386736
-0.008098765
-0.008834311
-0.00949588
-0.003687148
-0.003882094
-0.004093239
-0.004323474
-0.004576517
-0.004859088
-0.00518101
-0.00555037
-0.005980822
-0.006491529
-0.006969535
-0.007393873
-0.00780314
-0.003037934
-0.003192338
-0.003358078
-0.003536992
-0.00373143
-0.003946332
-0.004188671
-0.004462633
-0.004776402
-0.00514118
-0.005414406
-0.005519495
-0.005547853
-0.005321311
-0.002563245
-0.002688972
-0.002822972
-0.002966477
-0.003121021
-0.003290372
-0.003479863
-0.003691654
-0.003930922
-0.004204695
-0.004377576
-0.004384365
-0.004340703
-0.004200831
-0.003848433
-0.002245201
-0.00235185
-0.002464873
-0.002585155
-0.00271377
-0.002853705
-0.003009285
-0.003181635
-0.003374261
-0.003591832
-0.003713969
-0.003693911
-0.003644412
-0.003553719
-0.003390174
-0.003271381
-0.002036097
-0.00213002
-0.002229103
-0.002333998
-0.002445508
-0.00256613
-0.00269951
-0.002846174
-0.003008662
-0.003190275
-0.003282804
-0.003251384
-0.003199737
-0.003124429
-0.00301604
-0.003002303
-0.003034557
-0.001900473
-0.001985823
-0.002075514
-0.002170058
-0.002270064
-0.002377714
-0.002496209
-0.002625685
-0.002768065
-0.002925816
-0.00299915
-0.002959234
-0.002901901
-0.002825748
-0.002727537
-0.002730204
-0.002823972
-0.002829426
-0.005730572
-0.005570555
-0.006066707
-0.005529689
-0.006088223
-0.006651767
-0.005709978
-0.006253963
-0.006897866
-0.007567019
-0.00606679
-0.006594456
-0.007227498
-0.007987996
-0.0087998
-0.006360177
-0.006865349
-0.00746247
-0.008183215
-0.009058137
-0.01001187
-0.006486979
-0.00696183
-0.007512965
-0.008165982
-0.008957242
-0.009926835
-0.0109995
-0.006433594
-0.006872018
-0.007372678
-0.007954346
-0.00864451
-0.009485154
-0.0105233
-0.01167507
-0.006216718
-0.006614679
-0.007062933
-0.007575034
-0.008170283
-0.008879282
-0.009747587
-0.01081864
-0.01200952
-0.005859267
-0.00621428
-0.006609573
-0.007054868
-0.007563628
-0.008157096
-0.008867559
-0.009735087
-0.01080505
-0.01199422
-0.005383823
-0.005694401
-0.006036947
-0.006418295
-0.006847791
-0.007340295
-0.007917949
-0.008606947
-0.009447484
-0.01048233
-0.0114884
-0.004812641
-0.005078242
-0.005368735
-0.005688967
-0.006045285
-0.006448164
-0.006913041
-0.007456069
-0.008103141
-0.008890996
-0.009733816
-0.01054381
-0.004172412
-0.004393527
-0.0046335
-0.004895687
-0.005184407
-0.005507053
-0.005874533
-0.006296586
-0.006789179
-0.007375185
-0.007968261
-0.008590848
-0.009266364
-0.00350613
-0.003684998
-0.003877625
-0.004086247
-0.004313708
-0.00456541
-0.004849141
-0.005170408
-0.005539021
-0.005968601
-0.006352288
-0.006683539
-0.007091466
-0.007506123
-0.002893383
-0.003035695
-0.003187685
-0.0033508
-0.003526838
-0.003719899
-0.00393576
-0.004177148
-0.004450032
-0.004762563
-0.004980701
-0.005037305
-0.00503403
-0.004883849
-0.004351039
-0.002444777
-0.002561116
-0.002684554
-0.002816073
-0.00295687
-0.003110137
-0.003280414
-0.003469039
-0.00367986
-0.00391803
-0.004056138
-0.004035245
-0.003967519
-0.003829011
-0.003571284
-0.003360481
-0.002144208
-0.002243228
-0.00234776
-0.002458496
-0.002576291
-0.002703748
-0.002844613
-0.002999487
-0.003171052
-0.003362801
-0.00346111
-0.003423108
-0.003355562
-0.003252486
-0.003102259
-0.003055354
-0.00307225
-0.001946779
-0.002034256
-0.002126209
-0.002223171
-0.002325765
-0.002436215
-0.002557758
-0.002690553
-0.002836572
-0.002998345
-0.003073569
-0.00302994
-0.002965177
-0.00287739
-0.002763064
-0.002753658
-0.002841641
-0.002841654
-0.001819018
-0.001898734
-0.001982227
-0.002069921
-0.002162306
-0.002261327
-0.002369878
-0.002487862
-0.002616778
-0.002758544
-0.002818677
-0.002770384
-0.002703941
-0.002618284
-0.002511935
-0.002502486
-0.002592773
-0.002654694
-0.002633709
-0.005576338
-0.005272091
-0.005725173
-0.005065634
-0.005565564
-0.00605578
-0.005050698
-0.00552505
-0.006078079
-0.006634958
-0.00525266
-0.005705733
-0.006244787
-0.006882738
-0.00754449
-0.005618668
-0.006063219
-0.006586819
-0.007215089
-0.007969729
-0.008777471
-0.005924191
-0.006357065
-0.006858744
-0.007451853
-0.008167828
-0.009039682
-0.009994272
-0.00607081
-0.006484159
-0.006955879
-0.007503472
-0.008152376
-0.008941201
-0.009912062
-0.01098285
-0.006044201
-0.006430986
-0.006866538
-0.007363983
-0.00794198
-0.008630097
-0.00947217
-0.01050916
-0.01165914
-0.005859267
-0.00621428
-0.006609573
-0.007054868
-0.007563628
-0.008157096
-0.008867559
-0.009735087
-0.01080505
-0.01199422
-0.005537435
-0.005856973
-0.006209488
-0.00660203
-0.007044248
-0.007551422
-0.008146337
-0.008856232
-0.009723025
-0.01079196
-0.01183966
-0.005099998
-0.005381651
-0.005689874
-0.006029841
-0.006408326
-0.006836384
-0.007330295
-0.007907502
-0.008595952
-0.009435781
-0.01034905
-0.01124939
-0.004568168
-0.004810565
-0.005073924
-0.005361972
-0.005679505
-0.006034497
-0.006438725
-0.006903211
-0.007445778
-0.00809229
-0.008769504
-0.009519011
-0.01035145
-0.003967506
-0.00417039
-0.004389327
-0.004626933
-0.00488652
-0.005173984
-0.005497893
-0.005864956
-0.006286532
-0.006778566
-0.007256681
-0.00775103
-0.00839029
-0.009098752
-0.003339219
-0.003504088
-0.003680759
-0.003871002
-0.004077015
-0.004303233
-0.004556058
-0.004839211
-0.005159828
-0.005527695
-0.005840567
-0.006092256
-0.006412802
-0.006828173
-0.007304939
-0.002759577
-0.002891253
-0.003031272
-0.003180778
-0.003341179
-0.003515933
-0.003709928
-0.003924925
-0.004165342
-0.004437125
-0.004613763
-0.004633843
-0.004595756
-0.004438772
-0.004018049
-0.003465774
-0.002334744
-0.002442748
-0.002556909
-0.002677994
-0.002806951
-0.002946553
-0.003100718
-0.003270203
-0.003457945
-0.003667778
-0.003779419
-0.003738627
-0.003651669
-0.003501761
-0.003263733
-0.003134482
-0.003121339
-0.002050105
-0.002142324
-0.002239327
-0.002341686
-0.002450064
-0.002566772
-0.002695128
-0.002835343
-0.0029895
-0.003160269
-0.003240241
-0.003189663
-0.00310918
-0.002994699
-0.002841095
-0.002800956
-0.00287513
-0.002863694
-0.001863317
-0.001945019
-0.002030617
-0.00212055
-0.002215325
-0.002316922
-0.002428262
-0.002549265
-0.002681468
-0.002826835
-0.002888516
-0.002836474
-0.002762789
-0.002666003
-0.002544479
-0.00252372
-0.002608527
-0.002665562
-0.002640702
-0.001742698
-0.001817354
-0.001895296
-0.001976885
-0.002062525
-0.002153979
-0.00225387
-0.002361947
-0.002479416
-0.002607768
-0.002657414
-0.002603398
-0.00253101
-0.002439192
-0.002326987
-0.002304539
-0.002377084
-0.002439434
-0.002474953
-0.002432587
-0.005137691
-0.00557103
-0.004801165
-0.005267243
-0.005714608
-0.0046314
-0.005061146
-0.005555781
-0.006039677
-0.004648762
-0.005046477
-0.005515941
-0.006063109
-0.006612851
-0.004865922
-0.005248762
-0.005697391
-0.006231232
-0.006862824
-0.007520387
-0.005234058
-0.005615367
-0.006056209
-0.00657555
-0.007198768
-0.007950201
-0.008758689
-0.005544366
-0.005921297
-0.006350957
-0.006849
-0.007437891
-0.008151381
-0.009024439
-0.009977061
-0.005703473
-0.006068176
-0.006478624
-0.006947098
-0.007490985
-0.008137827
-0.008928063
-0.009897729
-0.01096671
-0.005696703
-0.006041754
-0.006425863
-0.006858446
-0.007352541
-0.007928751
-0.008618329
-0.009459614
-0.0104955
-0.01164378
-0.005537435
-0.005856973
-0.006209488
-0.00660203
-0.007044248
-0.007551422
-0.008146337
-0.008856232
-0.009723025
-0.01079196
-0.01183966
-0.005245494
-0.00553527
-0.005852461
-0.006202406
-0.006592094
-0.007032879
-0.007541464
-0.008135943
-0.008845302
-0.009711401
-0.01065964
-0.01160334
-0.004840902
-0.005097943
-0.005377377
-0.00568318
-0.006020476
-0.006397648
-0.006827069
-0.007320624
-0.00789741
-0.008585344
-0.009317392
-0.01014376
-0.01106842
-0.004343788
-0.0045662
-0.004806478
-0.005067535
-0.005353055
-0.005669368
-0.006025661
-0.006429567
-0.006893683
-0.007435813
-0.007982087
-0.008578344
-0.009352617
-0.01021958
-0.003778577
-0.003965586
-0.004166407
-0.004383109
-0.00461827
-0.004876694
-0.005165375
-0.005488926
-0.005855586
-0.006276701
-0.006669682
-0.007059398
-0.007571991
-0.00824348
-0.009007996
-0.003184731
-0.003337276
-0.003500059
-0.003674474
-0.003862257
-0.004067112
-0.004294415
-0.004546724
-0.004829301
-0.005149268
-0.005409031
-0.005601484
-0.005846114
-0.006177018
-0.00664948
-0.002635311
-0.002757546
-0.002887042
-0.003024704
-0.003171643
-0.003330844
-0.003506504
-0.003699708
-0.003913824
-0.00415325
-0.004298354
-0.00429223
-0.004227838
-0.004054554
-0.003662859
-0.003228096
-0.00316486
-0.002232223
-0.002332807
-0.002438737
-0.002550661
-0.002669317
-0.002797152
-0.002937624
-0.003091059
-0.003259737
-0.00344658
-0.003537874
-0.003483242
-0.003382957
-0.003223207
-0.002987361
-0.002871554
-0.002918764
-0.002889792
-0.001962174
-0.002048304
-0.0021386
-0.002233534
-0.002333653
-0.002441007
-0.002558584
-0.00268634
-0.002825896
-0.002979325
-0.00304496
-0.0029858
-0.002896752
-0.002774434
-0.002615984
-0.002566556
-0.002638393
-0.002685155
-0.002652864
-0.001785121
-0.001861634
-0.001941541
-0.002025212
-0.002113065
-0.002206898
-0.002309354
-0.002420194
-0.002540651
-0.002672255
-0.002723178
-0.002665429
-0.002586024
-0.002483579
-0.002357068
-0.002324003
-0.00239135
-0.002449124
-0.002481163
-0.002436174
-0.001671023
-0.001741105
-0.001814064
-0.001890188
-0.001969819
-0.002054579
-0.002146872
-0.002246324
-0.002353924
-0.002470873
-0.002512077
-0.002454239
-0.002378166
-0.002282801
-0.002167304
-0.002134488
-0.002189076
-0.002237139
-0.002276275
-0.002289402
-0.002229311
-0.00468222
-0.005132914
-0.005560645
-0.004392673
-0.004796797
-0.005257742
-0.005699041
-0.004264941
-0.004627311
-0.005052338
-0.005541347
-0.006018503
-0.004307751
-0.004644882
-0.005038183
-0.005502485
-0.006043402
-0.006589196
-0.004533507
-0.004862314
-0.005241096
-0.005685059
-0.006213375
-0.006841505
-0.007499548
-0.004898805
-0.005230986
-0.00560888
-0.006045857
-0.006560718
-0.007181309
-0.007933761
-0.008739958
-0.005209035
-0.005541662
-0.005915614
-0.00634194
-0.006836179
-0.007422959
-0.008137795
-0.009009521
-0.009960236
-0.005375633
-0.005701002
-0.006063002
-0.006470451
-0.006935542
-0.007477626
-0.00812591
-0.008915315
-0.009883837
-0.0109511
-0.005383823
-0.005694401
-0.006036947
-0.006418295
-0.006847791
-0.007340295
-0.007917949
-0.008606947
-0.009447484
-0.01048233
-0.0114884
-0.005245494
-0.00553527
-0.005852461
-0.006202406
-0.006592094
-0.007032879
-0.007541464
-0.008135943
-0.008845302
-0.009711401
-0.01065964
-0.01160334
-0.004978994
-0.005243446
-0.00553101
-0.00584579
-0.006193073
-0.006581453
-0.007023603
-0.007531842
-0.008125912
-0.008834768
-0.009593942
-0.01045712
-0.0114255
-0.004603103
-0.004838953
-0.005093898
-0.005371053
-0.005674355
-0.006010443
-0.00638893
-0.006818061
-0.007311282
-0.007887673
-0.008478026
-0.009134996
-0.009988142
-0.01094676
-0.004136909
-0.004341919
-0.004562324
-0.004800429
-0.005059109
-0.005343498
-0.005661064
-0.006017088
-0.00642069
-0.006884456
-0.00733462
-0.007808668
-0.008430216
-0.009238389
-0.01015227
-0.003603722
-0.00377675
-0.003961801
-0.004160506
-0.004374903
-0.004608981
-0.004868577
-0.005156947
-0.005480152
-0.005846424
-0.006175837
-0.006488404
-0.00689678
-0.007440878
-0.008163849
-0.003041272
-0.003182879
-0.003333441
-0.003494084
-0.003666173
-0.003852873
-0.004058775
-0.004285613
-0.004537407
-0.004819411
-0.005038639
-0.005187461
-0.005375194
-0.005631769
-0.006016968
-0.002519535
-0.002633373
-0.002753531
-0.002880787
-0.003016017
-0.00316183
-0.003321908
-0.00349684
-0.003689238
-0.003902454
-0.004023245
-0.003998549
-0.003915959
-0.003730353
-0.003349349
-0.002955154
-0.002957469
-0.002909541
-0.00213643
-0.002230372
-0.002328978
-0.002432778
-0.002542396
-0.002659995
-0.002788673
-0.002928469
-0.003081161
-0.003249015
-0.003324399
-0.003260354
-0.003151537
-0.002985751
-0.002750098
-0.002630525
-0.002677326
-0.002708363
-0.002666407
-0.001879797
-0.001960452
-0.002044744
-0.002133068
-0.00222587
-0.002325022
-0.002433217
-0.002550237
-0.002677383
-0.00281627
-0.002870519
-0.002805611
-0.002711285
-0.002584466
-0.002423177
-0.002363275
-0.002418402
-0.002466595
-0.002491966
-0.002442264
-0.001711685
-0.001783509
-0.001858305
-0.001936373
-0.002018062
-0.002105023
-0.002199686
-0.002301677
-0.002412011
-0.002531916
-0.002574182
-0.002512658
-0.002429808
-0.002324302
-0.002195292
-0.002152487
-0.002202154
-0.002245914
-0.002281806
-0.002292568
-0.002230579
-0.001603576
-0.001669496
-0.001737953
-0.001809175
-0.001883431
-0.001962228
-0.002047797
-0.002139681
-0.002238689
-0.002345807
-0.002380136
-0.002319851
-0.002241694
-0.002144645
-0.002027922
-0.001987645
-0.002027413
-0.00206027
-0.002088165
-0.002107479
-0.002101073
-0.002026047
-0.004285385
-0.004677912
-0.005123554
-0.005545345
-0.004046562
-0.004388689
-0.004788227
-0.005243727
-0.005678575
-0.003953167
-0.004261179
-0.004619279
-0.005039329
-0.005522351
-0.005995851
-0.004014183
-0.004304157
-0.004637251
-0.00502592
-0.005484758
-0.006022304
-0.006568716
-0.004243533
-0.004530148
-0.004855214
-0.005229755
-0.005668804
-0.006194247
-0.00682306
-0.007478195
-0.004602728
-0.004895933
-0.005224948
-0.005599294
-0.006032224
-0.006544843
-0.007166609
-0.007917352
-0.008721279
-0.004909723
-0.005206498
-0.005536348
-0.005907218
-0.006330069
-0.00682246
-0.007410624
-0.008124496
-0.008994927
-0.009943798
-0.005080437
-0.005373308
-0.005696146
-0.006055357
-0.006459688
-0.006923172
-0.007466685
-0.008114348
-0.008902959
-0.009870388
-0.01079259
-0.005099998
-0.005381651
-0.005689874
-0.006029841
-0.006408326
-0.006836384
-0.007330295
-0.007907502
-0.008595952
-0.009435781
-0.01034905
-0.01124939
-0.004978994
-0.005243446
-0.00553101
-0.00584579
-0.006193073
-0.006581453
-0.007023603
-0.007531842
-0.008125912
-0.008834768
-0.009593942
-0.01045712
-0.0114255
-0.004734403
-0.004977052
-0.005239414
-0.005524708
-0.005836994
-0.006183074
-0.006572771
-0.007014641
-0.007522557
-0.008116244
-0.008728325
-0.009414138
-0.01030458
-0.01130658
-0.004383857
-0.004601253
-0.004835117
-0.005087911
-0.005362714
-0.005664898
-0.006002251
-0.006380497
-0.006809358
-0.007302268
-0.007789166
-0.008312674
-0.008996703
-0.009883433
-0.01088557
-0.003945451
-0.004135131
-0.004338236
-0.004556584
-0.004792448
-0.005050076
-0.005335671
-0.005653008
-0.006008778
-0.006412093
-0.006790754
-0.007175367
-0.007674273
-0.0083285
-0.009180026
-0.003441359
-0.003601981
-0.003773147
-0.003956192
-0.004152717
-0.004366102
-0.004601308
-0.004860631
-0.005148701
-0.005471574
-0.005752424
-0.006007906
-0.006338975
-0.006777683
-0.007369739
-0.002907616
-0.003039505
-0.003179224
-0.003327752
-0.00348619
-0.003657263
-0.003844972
-0.004050453
-0.004276827
-0.00452811
-0.004715797
-0.004832082
-0.004977764
-0.005178158
-0.005486286
-0.002411362
-0.002517683
-0.00262954
-0.002747567
-0.002872513
-0.003006683
-0.003153344
-0.003312749
-0.003486939
-0.003678514
-0.003780213
-0.003742415
-0.003647767
-0.00345501
-0.003082285
-0.002706324
-0.002711881
-0.00272593
-0.002675807
-0.002046695
-0.00213466
-0.002226712
-0.002323288
-0.002424894
-0.002533514
-0.002651929
-0.002779978
-0.002919086
-0.00307102
-0.003133754
-0.003063417
-0.002949592
-0.002781154
-0.002547222
-0.002421941
-0.002453679
-0.002487298
-0.002503998
-0.002448788
-0.001802436
-0.001878147
-0.001957045
-0.002039455
-0.002125747
-0.002217635
-0.002317599
-0.002425274
-0.002541729
-0.002668258
-0.002713343
-0.002644699
-0.002547412
-0.002418647
-0.002256813
-0.002188807
-0.002226958
-0.002261739
-0.00229143
-0.002297944
-0.002232674
-0.001642583
-0.00171014
-0.001780321
-0.001853359
-0.001929535
-0.002010379
-0.002098142
-0.002192371
-0.002293891
-0.002403713
-0.002438927
-0.002375025
-0.002290334
-0.002183607
-0.002054096
-0.002004397
-0.002039508
-0.002068315
-0.002093172
-0.002110287
-0.002102149
-0.002025443
-0.001540024
-0.001602111
-0.001666474
-0.00173327
-0.001802706
-0.00187617
-0.001955748
-0.002040934
-0.002132405
-0.002230965