/*--------------------------------*- C++ -*----------------------------------*\
| =========                 |                                                 |
| \\      /  F ield         | OpenFOAM: The Open Source CFD Toolbox           |
|  \\    /   O peration     | Version:  2306                                  |
|   \\  /    A nd           | Website:  www.openfoam.com                      |
|    \\/     M anipulation  |                                                 |
\*---------------------------------------------------------------------------*/
FoamFile
{
    version     2.0;
    format      ascii;
    arch        "LSB;label=32;scalar=64";
    class       volScalarField;
    location    "0.3/phiEA";
    object      T;
}
// * * * * * * * * * * * * * * * * * * * * * * * * * * * * * * * * * * * * * //

dimensions      [0 0 0 1 0 0 0];

internalField   nonuniform List<scalar> 
20000
(
1164.857
1164.71
1166.589
1164.868
1164.37
1166.573
1164.721
1168.178
1166.594
1164.884
1163.744
1166.536
1164.382
1168.199
1166.578
1164.738
1169.658
1168.179
1166.605
1164.906
1162.701
1166.462
1163.759
1168.245
1166.54
1164.401
1169.689
1168.2
1166.589
1164.76
1171.082
1169.656
1168.185
1166.62
1164.933
1161.187
1166.33
1162.722
1168.323
1166.466
1163.781
1169.759
1168.245
1166.55
1164.425
1171.116
1169.686
1168.205
1166.604
1164.788
1172.47
1171.077
1169.657
1168.195
1166.641
1164.966
1159.485
1166.112
1161.219
1168.438
1166.331
1162.75
1169.88
1168.321
1166.475
1163.808
1171.191
1169.755
1168.249
1166.565
1164.454
1172.503
1171.11
1169.688
1168.215
1166.624
1164.822
1173.824
1172.462
1171.076
1169.664
1168.211
1166.667
1165.001
1157.937
1165.813
1159.533
1168.576
1166.11
1161.258
1170.068
1168.432
1166.338
1162.784
1171.323
1169.874
1168.323
1166.489
1163.842
1172.578
1171.185
1169.756
1168.259
1166.585
1164.49
1173.857
1172.495
1171.109
1169.694
1168.23
1166.65
1164.857
1175.144
1173.814
1172.458
1171.079
1169.675
1168.231
1166.694
1165.035
1156.79
1165.491
1158
1168.681
1165.809
1159.586
1170.312
1168.565
1166.113
1161.302
1171.529
1170.058
1168.431
1166.35
1162.825
1172.711
1171.315
1169.873
1168.331
1166.508
1163.882
1173.93
1172.569
1171.182
1169.761
1168.273
1166.611
1164.527
1175.176
1173.847
1172.491
1171.111
1169.704
1168.25
1166.677
1164.892
1176.429
1175.133
1173.808
1172.458
1171.086
1169.69
1168.252
1166.721
1165.07
1156.184
1165.224
1156.864
1168.736
1165.489
1158.068
1170.541
1168.665
1165.811
1159.645
1171.803
1170.297
1168.558
1166.121
1161.352
1172.918
1171.518
1170.053
1168.435
1166.367
1162.872
1174.059
1172.7
1171.311
1169.876
1168.343
1166.533
1163.923
1175.247
1173.919
1172.565
1171.184
1169.77
1168.292
1166.637
1164.565
1176.459
1175.165
1173.841
1172.491
1171.118
1169.72
1168.271
1166.704
1164.928
1177.675
1176.416
1175.126
1173.806
1172.462
1171.097
1169.706
1168.273
1166.748
1165.104
1156.184
1165.073
1156.264
1168.754
1165.224
1156.942
1170.715
1168.718
1165.493
1158.14
1172.068
1170.521
1168.655
1165.819
1159.708
1173.195
1171.786
1170.286
1168.557
1166.135
1161.409
1174.262
1172.904
1171.51
1170.053
1168.444
1166.39
1162.92
1175.373
1174.047
1172.694
1171.311
1169.884
1168.361
1166.558
1163.965
1176.529
1175.235
1173.912
1172.564
1171.19
1169.785
1168.312
1166.664
1164.603
1177.705
1176.447
1175.157
1173.838
1172.495
1171.129
1169.735
1168.291
1166.731
1164.964
1178.881
1177.661
1176.407
1175.122
1173.808
1172.471
1171.109
1169.722
1168.294
1166.775
1165.276
1156.79
1165.073
1156.264
1168.757
1165.075
1156.348
1170.826
1168.736
1165.23
1157.025
1172.278
1170.692
1168.705
1165.501
1158.218
1173.466
1172.046
1170.506
1168.649
1165.831
1159.778
1174.534
1173.176
1171.773
1170.28
1168.56
1166.154
1161.466
1175.57
1174.247
1172.895
1171.507
1170.057
1168.458
1166.413
1162.969
1176.651
1175.359
1174.039
1172.691
1171.315
1169.897
1168.379
1166.584
1164.008
1177.772
1176.515
1175.227
1173.909
1172.567
1171.2
1169.799
1168.331
1166.69
1164.642
1178.91
1177.691
1176.438
1175.153
1173.84
1172.503
1171.141
1169.751
1168.312
1166.758
1165.141
1180.046
1178.867
1177.652
1176.402
1175.121
1173.814
1172.479
1171.121
1169.738
1168.315
1166.909
1165.602
1157.937
1165.224
1156.864
1168.757
1165.075
1156.348
1170.879
1168.739
1165.082
1156.437
1172.418
1170.802
1168.723
1165.241
1157.113
1173.684
1172.253
1170.674
1168.698
1165.515
1158.301
1174.802
1173.443
1172.029
1170.495
1168.648
1165.849
1159.849
1175.835
1174.515
1173.162
1171.765
1170.279
1168.568
1166.174
1161.524
1176.843
1175.554
1174.236
1172.889
1171.508
1170.066
1168.473
1166.437
1163.019
1177.891
1176.636
1175.35
1174.034
1172.693
1171.324
1169.909
1168.397
1166.61
1164.051
1178.976
1177.758
1176.506
1175.222
1173.91
1172.574
1171.211
1169.814
1168.351
1166.717
1164.831
1180.075
1178.896
1177.681
1176.432
1175.152
1173.845
1172.511
1171.153
1169.767
1168.333
1166.892
1165.483
1181.169
1180.031
1178.856
1177.645
1176.4
1175.125
1173.82
1172.488
1171.133
1169.754
1168.42
1167.154
1165.945
1159.485
1165.491
1158
1168.754
1165.224
1156.942
1170.879
1168.739
1165.082
1156.437
1172.487
1170.854
1168.725
1165.095
1156.531
1173.831
1172.392
1170.782
1168.714
1165.257
1157.207
1175.018
1173.659
1172.233
1170.661
1168.695
1165.534
1158.385
1176.097
1174.779
1173.425
1172.016
1170.49
1168.652
1165.868
1159.919
1177.1
1175.816
1174.5
1173.152
1171.761
1170.282
1168.577
1166.194
1161.582
1178.078
1176.826
1175.542
1174.229
1172.888
1171.513
1170.075
1168.487
1166.461
1163.07
1179.092
1177.876
1176.625
1175.344
1174.034
1172.698
1171.332
1169.922
1168.415
1166.636
1164.264
1180.139
1178.961
1177.747
1176.5
1175.221
1173.915
1172.581
1171.222
1169.829
1168.371
1166.85
1165.209
1181.197
1180.06
1178.885
1177.674
1176.43
1175.155
1173.851
1172.519
1171.164
1169.782
1168.436
1167.137
1165.846
1182.25
1181.154
1180.02
1178.849
1177.642
1176.402
1175.129
1173.826
1172.497
1171.146
1169.836
1168.608
1167.401
1166.3
1161.187
1165.813
1159.533
1168.736
1165.489
1158.068
1170.826
1168.736
1165.23
1157.025
1172.487
1170.854
1168.725
1165.095
1156.531
1173.905
1172.46
1170.834
1168.717
1165.112
1156.63
1175.165
1173.805
1172.37
1170.768
1168.711
1165.278
1157.301
1176.309
1174.993
1173.638
1172.218
1170.652
1168.697
1165.554
1158.467
1177.356
1176.074
1174.761
1173.412
1172.008
1170.488
1168.657
1165.887
1159.988
1178.329
1177.081
1175.8
1174.489
1173.146
1171.761
1170.286
1168.586
1166.215
1161.64
1179.274
1178.061
1176.813
1175.534
1174.226
1172.891
1171.519
1170.084
1168.501
1166.485
1163.318
1180.252
1179.076
1177.864
1176.618
1175.341
1174.037
1172.704
1171.341
1169.935
1168.432
1166.765
1164.704
1181.26
1180.124
1178.95
1177.74
1176.497
1175.223
1173.92
1172.589
1171.232
1169.843
1168.47
1167.096
1165.62
1182.277
1181.182
1180.049
1178.878
1177.671
1176.432
1175.159
1173.856
1172.528
1171.176
1169.862
1168.621
1167.386
1166.227
1183.288
1182.235
1181.143
1180.012
1178.845
1177.642
1176.404
1175.132
1173.832
1172.506
1171.207
1169.98
1168.794
1167.65
1166.665
1162.701
1166.112
1161.219
1168.681
1165.809
1159.586
1170.715
1168.718
1165.493
1158.14
1172.418
1170.802
1168.723
1165.241
1157.113
1173.905
1172.46
1170.834
1168.717
1165.112
1156.63
1175.239
1173.878
1172.439
1170.819
1168.714
1165.135
1156.729
1176.453
1175.139
1173.783
1172.354
1170.758
1168.713
1165.3
1157.393
1177.563
1176.284
1174.973
1173.622
1172.207
1170.648
1168.7
1165.574
1158.549
1178.579
1177.333
1176.055
1174.746
1173.402
1172.004
1170.487
1168.662
1165.906
1160.058
1179.521
1178.31
1177.065
1175.788
1174.482
1173.145
1171.761
1170.289
1168.595
1166.235
1161.921
1180.431
1179.257
1178.047
1176.804
1175.529
1174.227
1172.893
1171.524
1170.093
1168.516
1166.606
1163.83
1181.371
1180.236
1179.064
1177.856
1176.614
1175.342
1174.04
1172.71
1171.35
1169.947
1168.522
1167.011
1165.198
1182.339
1181.245
1180.112
1178.942
1177.736
1176.498
1175.226
1173.924
1172.596
1171.243
1169.918
1168.646
1167.349
1166.06
1183.315
1182.262
1181.17
1180.04
1178.873
1177.671
1176.433
1175.162
1173.862
1172.536
1171.236
1170.001
1168.802
1167.638
1166.619
1184.283
1183.273
1182.223
1181.134
1180.007
1178.844
1177.642
1176.406
1175.136
1173.838
1172.551
1171.315
1170.12
1168.978
1167.901
1166.873
1163.744
1166.33
1162.722
1168.576
1166.11
1161.258
1170.541
1168.665
1165.811
1159.645
1172.278
1170.692
1168.705
1165.501
1158.218
1173.831
1172.392
1170.782
1168.714
1165.257
1157.207
1175.239
1173.878
1172.439
1170.819
1168.714
1165.135
1156.729
1176.526
1175.213
1173.855
1172.421
1170.809
1168.715
1165.158
1156.827
1177.705
1176.428
1175.118
1173.766
1172.341
1170.752
1168.714
1165.321
1157.485
1178.782
1177.539
1176.264
1174.956
1173.61
1172.2
1170.644
1168.702
1165.594
1158.631
1179.765
1178.557
1177.315
1176.041
1174.736
1173.397
1172
1170.486
1168.666
1165.924
1160.389
1180.672
1179.501
1178.293
1177.052
1175.78
1174.479
1173.143
1171.762
1170.293
1168.604
1166.336
1162.44
1181.547
1180.414
1179.243
1178.037
1176.798
1175.528
1174.227
1172.896
1171.529
1170.102
1168.588
1166.841
1164.419
1182.449
1181.355
1180.223
1179.055
1177.851
1176.614
1175.343
1174.043
1172.715
1171.359
1170.011
1168.682
1167.271
1165.746
1183.376
1182.324
1181.232
1180.103
1178.937
1177.735
1176.498
1175.228
1173.929
1172.604
1171.298
1170.046
1168.82
1167.608
1166.52
1184.31
1183.3
1182.25
1181.162
1180.035
1178.872
1177.671
1176.435
1175.165
1173.868
1172.579
1171.338
1170.136
1168.983
1167.892
1166.844
1185.236
1184.268
1183.261
1182.214
1181.128
1180.005
1178.843
1177.643
1176.407
1175.14
1173.869
1172.628
1171.418
1170.257
1169.161
1168.043
1166.937
1164.37
1166.462
1163.759
1168.438
1166.331
1162.75
1170.312
1168.565
1166.113
1161.302
1172.068
1170.521
1168.655
1165.819
1159.708
1173.684
1172.253
1170.674
1168.698
1165.515
1158.301
1175.165
1173.805
1172.37
1170.768
1168.711
1165.278
1157.301
1176.526
1175.213
1173.855
1172.421
1170.809
1168.715
1165.158
1156.827
1177.776
1176.5
1175.19
1173.837
1172.408
1170.803
1168.717
1165.18
1156.924
1178.921
1177.68
1176.406
1175.1
1173.752
1172.333
1170.747
1168.716
1165.343
1157.576
1179.964
1178.758
1177.519
1176.247
1174.944
1173.602
1172.194
1170.641
1168.705
1165.613
1159.017
1180.912
1179.743
1178.538
1177.3
1176.03
1174.73
1173.391
1171.997
1170.485
1168.671
1166.018
1160.948
1181.784
1180.653
1179.484
1178.28
1177.043
1175.776
1174.475
1173.141
1171.762
1170.297
1168.649
1166.529
1162.969
1182.621
1181.529
1180.399
1179.232
1178.03
1176.795
1175.527
1174.227
1172.899
1171.535
1170.148
1168.719
1167.101
1165.11
1183.483
1182.432
1181.342
1180.214
1179.049
1177.849
1176.613
1175.345
1174.046
1172.721
1171.403
1170.12
1168.842
1167.545
1166.341
1184.37
1183.36
1182.311
1181.223
1180.097
1178.935
1177.735
1176.499
1175.231
1173.934
1172.642
1171.389
1170.169
1168.992
1167.872
1166.785
1185.262
1184.295
1183.288
1182.241
1181.156
1180.033
1178.871
1177.671
1176.436
1175.169
1173.897
1172.652
1171.436
1170.268
1169.162
1168.036
1166.912
1186.146
1185.221
1184.256
1183.251
1182.208
1181.126
1180.003
1178.842
1177.643
1176.409
1175.159
1173.921
1172.701
1171.519
1170.393
1169.263
1168.079
1167.013
1164.71
1166.536
1164.382
1168.323
1166.466
1163.781
1170.068
1168.432
1166.338
1162.784
1171.803
1170.297
1168.558
1166.121
1161.352
1173.466
1172.046
1170.506
1168.649
1165.831
1159.778
1175.018
1173.659
1172.233
1170.661
1168.695
1165.534
1158.385
1176.453
1175.139
1173.783
1172.354
1170.758
1168.713
1165.3
1157.393
1177.776
1176.5
1175.19
1173.837
1172.408
1170.803
1168.717
1165.18
1156.924
1178.991
1177.751
1176.478
1175.172
1173.823
1172.399
1170.797
1168.718
1165.203
1157.02
1180.1
1178.896
1177.659
1176.389
1175.086
1173.743
1172.325
1170.742
1168.718
1165.364
1158.006
1181.107
1179.94
1178.738
1177.502
1176.235
1174.935
1173.594
1172.187
1170.637
1168.708
1165.71
1159.64
1182.019
1180.89
1179.724
1178.523
1177.288
1176.023
1174.723
1173.386
1171.993
1170.485
1168.696
1166.188
1161.469
1182.854
1181.764
1180.636
1179.471
1178.271
1177.038
1175.771
1174.472
1173.14
1171.763
1170.315
1168.733
1166.728
1163.498
1183.653
1182.604
1181.515
1180.388
1179.225
1178.026
1176.792
1175.525
1174.228
1172.901
1171.562
1170.224
1168.854
1167.393
1165.954
1184.476
1183.467
1182.419
1181.332
1180.207
1179.046
1177.847
1176.612
1175.346
1174.049
1172.75
1171.475
1170.223
1169.002
1167.834
1166.694
1185.321
1184.354
1183.348
1182.301
1181.217
1180.094
1178.933
1177.734
1176.5
1175.234
1173.958
1172.704
1171.475
1170.289
1169.164
1168.022
1166.864
1186.172
1185.247
1184.282
1183.278
1182.235
1181.153
1180.03
1178.869
1177.671
1176.437
1175.186
1173.944
1172.719
1171.531
1170.397
1169.262
1168.073
1166.993
1187.014
1186.131
1185.209
1184.246
1183.245
1182.204
1181.123
1180.001
1178.841
1177.643
1176.419
1175.19
1173.969
1172.772
1171.617
1170.468
1169.285
1168.12
1167.098
1164.857
1166.573
1164.721
1168.245
1166.54
1164.401
1169.88
1168.321
1166.475
1163.808
1171.529
1170.058
1168.431
1166.35
1162.825
1173.195
1171.786
1170.286
1168.557
1166.135
1161.409
1174.802
1173.443
1172.029
1170.495
1168.648
1165.849
1159.849
1176.309
1174.993
1173.638
1172.218
1170.652
1168.697
1165.554
1158.467
1177.705
1176.428
1175.118
1173.766
1172.341
1170.752
1168.714
1165.321
1157.485
1178.991
1177.751
1176.478
1175.172
1173.823
1172.399
1170.797
1168.718
1165.203
1157.02
1180.169
1178.966
1177.729
1176.46
1175.158
1173.814
1172.391
1170.791
1168.72
1165.226
1157.474
1181.241
1180.076
1178.875
1177.641
1176.375
1175.076
1173.734
1172.317
1170.737
1168.72
1165.469
1158.688
1182.212
1181.085
1179.921
1178.722
1177.489
1176.225
1174.926
1173.586
1172.181
1170.633
1168.722
1165.879
1160.195
1183.086
1181.998
1180.872
1179.709
1178.512
1177.281
1176.015
1174.717
1173.381
1171.989
1170.481
1168.745
1166.357
1161.945
1183.883
1182.835
1181.748
1180.623
1179.461
1178.265
1177.032
1175.766
1174.469
1173.138
1171.766
1170.349
1168.817
1166.93
1164.012
1184.643
1183.636
1182.589
1181.503
1180.38
1179.22
1178.022
1176.79
1175.524
1174.228
1172.914
1171.602
1170.297
1168.996
1167.734
1166.571
1185.426
1184.46
1183.454
1182.408
1181.325
1180.203
1179.043
1177.845
1176.612
1175.347
1174.065
1172.792
1171.539
1170.323
1169.165
1168.001
1166.793
1186.23
1185.306
1184.342
1183.338
1182.295
1181.213
1180.092
1178.931
1177.733
1176.501
1175.247
1173.995
1172.759
1171.556
1170.406
1169.261
1168.062
1166.954
1187.04
1186.157
1185.235
1184.273
1183.271
1182.231
1181.149
1180.028
1178.868
1177.671
1176.445
1175.213
1173.987
1172.784
1171.623
1170.469
1169.284
1168.116
1167.082
1187.84
1186.999
1186.119
1185.199
1184.239
1183.241
1182.2
1181.12
1179.999
1178.84
1177.644
1176.432
1175.217
1174.014
1172.84
1171.671
1170.482
1169.308
1168.166
1167.189
1166.589
1164.868
1168.199
1166.578
1164.738
1169.759
1168.245
1166.55
1164.425
1171.323
1169.874
1168.323
1166.489
1163.842
1172.918
1171.518
1170.053
1168.435
1166.367
1162.872
1174.534
1173.176
1171.773
1170.28
1168.56
1166.154
1161.466
1176.097
1174.779
1173.425
1172.016
1170.49
1168.652
1165.868
1159.919
1177.563
1176.284
1174.973
1173.622
1172.207
1170.648
1168.7
1165.574
1158.549
1178.921
1177.68
1176.406
1175.1
1173.752
1172.333
1170.747
1168.716
1165.343
1157.576
1180.169
1178.966
1177.729
1176.46
1175.158
1173.814
1172.391
1170.791
1168.72
1165.226
1157.474
1181.309
1180.144
1178.944
1177.711
1176.446
1175.147
1173.803
1172.382
1170.786
1168.722
1165.336
1158.188
1182.343
1181.218
1180.056
1178.858
1177.627
1176.365
1175.066
1173.724
1172.309
1170.732
1168.731
1165.646
1159.283
1183.275
1182.189
1181.065
1179.904
1178.709
1177.48
1176.216
1174.918
1173.579
1172.175
1170.616
1168.752
1166.042
1160.682
1184.111
1183.065
1181.98
1180.857
1179.698
1178.503
1177.273
1176.008
1174.71
1173.376
1171.972
1170.481
1168.796
1166.52
1162.365
1184.87
1183.864
1182.818
1181.734
1180.613
1179.455
1178.259
1177.027
1175.762
1174.466
1173.13
1171.77
1170.382
1168.899
1167.124
1185.591
1184.626
1183.621
1182.577
1181.495
1180.374
1179.215
1178.019
1176.787
1175.522
1174.23
1172.928
1171.637
1170.367
1169.151
1167.971
1166.705
1186.334
1185.41
1184.446
1183.443
1182.401
1181.32
1180.199
1179.04
1177.843
1176.611
1175.352
1174.084
1172.827
1171.598
1170.42
1169.257
1168.046
1166.898
1187.097
1186.215
1185.293
1184.331
1183.33
1182.29
1181.209
1180.089
1178.929
1177.732
1176.504
1175.263
1174.026
1172.81
1171.634
1170.471
1169.282
1168.107
1167.05
1187.865
1187.025
1186.145
1185.225
1184.265
1183.267
1182.227
1181.146
1180.026
1178.867
1177.67
1176.454
1175.234
1174.026
1172.845
1171.673
1170.482
1169.307
1168.162
1167.176
1188.624
1187.825
1186.987
1186.109
1185.192
1184.235
1183.236
1182.197
1181.117
1179.997
1178.834
1177.643
1176.441
1175.241
1174.057
1172.877
1171.68
1170.495
1169.331
1168.213
1167.282
1168.178
1166.594
1164.884
1169.689
1168.2
1166.589
1164.76
1171.191
1169.755
1168.249
1166.565
1164.454
1172.711
1171.315
1169.873
1168.331
1166.508
1163.882
1174.262
1172.904
1171.51
1170.053
1168.444
1166.39
1162.92
1175.835
1174.515
1173.162
1171.765
1170.279
1168.568
1166.174
1161.524
1177.356
1176.074
1174.761
1173.412
1172.008
1170.488
1168.657
1165.887
1159.988
1178.782
1177.539
1176.264
1174.956
1173.61
1172.2
1170.644
1168.702
1165.594
1158.631
1180.1
1178.896
1177.659
1176.389
1175.086
1173.743
1172.325
1170.742
1168.718
1165.364
1158.006
1181.309
1180.144
1178.944
1177.711
1176.446
1175.147
1173.803
1172.382
1170.786
1168.722
1165.336
1158.188
1182.41
1181.285
1180.124
1178.927
1177.697
1176.435
1175.137
1173.794
1172.373
1170.78
1168.732
1165.521
1158.809
1183.406
1182.321
1181.198
1180.039
1178.844
1177.617
1176.354
1175.056
1173.715
1172.302
1170.708
1168.753
1165.813
1159.797
1184.298
1183.254
1182.17
1181.049
1179.891
1178.699
1177.47
1176.207
1174.909
1173.571
1172.144
1170.593
1168.785
1166.196
1161.097
1185.095
1184.091
1183.047
1181.965
1180.845
1179.689
1178.495
1177.265
1176.001
1174.704
1173.349
1171.946
1170.483
1168.846
1166.673
1185.815
1184.851
1183.847
1182.805
1181.724
1180.605
1179.448
1178.252
1177.021
1175.758
1174.449
1173.115
1171.773
1170.411
1168.974
1186.497
1185.574
1184.611
1183.609
1182.568
1181.489
1180.369
1179.21
1178.015
1176.784
1175.515
1174.223
1172.934
1171.664
1170.436
1169.252
1168.026
1166.829
1187.199
1186.318
1185.396
1184.435
1183.435
1182.396
1181.315
1180.195
1179.036
1177.841
1176.607
1175.351
1174.095
1172.855
1171.652
1170.474
1169.28
1168.095
1167.005
1187.922
1187.082
1186.202
1185.283
1184.324
1183.326
1182.286
1181.206
1180.086
1178.927
1177.728
1176.504
1175.273
1174.052
1172.857
1171.677
1170.484
1169.305
1168.156
1167.15
1188.649
1187.85
1187.012
1186.135
1185.217
1184.261
1183.262
1182.223
1181.143
1180.023
1178.859
1177.665
1176.458
1175.253
1174.063
1172.879
1171.681
1170.495
1169.331
1168.211
1167.272
1189.366
1188.609
1187.813
1186.977
1186.102
1185.187
1184.23
1183.232
1182.193
1181.114
1179.986
1178.82
1177.637
1176.447
1175.263
1174.08
1172.882
1171.688
1170.508
1169.355
1168.262
1167.377
1169.658
1168.179
1166.605
1164.906
1171.116
1169.686
1168.205
1166.604
1164.788
1172.578
1171.185
1169.756
1168.259
1166.585
1164.49
1174.059
1172.7
1171.311
1169.876
1168.343
1166.533
1163.923
1175.57
1174.247
1172.895
1171.507
1170.057
1168.458
1166.413
1162.969
1177.1
1175.816
1174.5
1173.152
1171.761
1170.282
1168.577
1166.194
1161.582
1178.579
1177.333
1176.055
1174.746
1173.402
1172.004
1170.487
1168.662
1165.906
1160.058
1179.964
1178.758
1177.519
1176.247
1174.944
1173.602
1172.194
1170.641
1168.705
1165.613
1159.017
1181.241
1180.076
1178.875
1177.641
1176.375
1175.076
1173.734
1172.317
1170.737
1168.72
1165.469
1158.688
1182.41
1181.285
1180.124
1178.927
1177.697
1176.435
1175.137
1173.794
1172.373
1170.78
1168.732
1165.521
1158.809
1183.471
1182.387
1181.265
1180.106
1178.913
1177.686
1176.424
1175.126
1173.784
1172.365
1170.753
1168.751
1165.692
1159.341
1184.427
1183.383
1182.301
1181.181
1180.025
1178.834
1177.606
1176.344
1175.047
1173.706
1172.263
1170.672
1168.777
1165.968
1160.23
1185.28
1184.277
1183.235
1182.154
1181.036
1179.882
1178.689
1177.461
1176.198
1174.901
1173.533
1172.096
1170.576
1168.818
1166.339
1186.038
1185.075
1184.073
1183.032
1181.953
1180.836
1179.68
1178.486
1177.257
1175.994
1174.672
1173.308
1171.924
1170.487
1168.893
1186.718
1185.796
1184.835
1183.834
1182.794
1181.716
1180.598
1179.441
1178.246
1177.016
1175.734
1174.419
1173.098
1171.774
1170.435
1187.361
1186.48
1185.559
1184.599
1183.6
1182.562
1181.482
1180.363
1179.205
1178.01
1176.768
1175.491
1174.207
1172.931
1171.682
1170.476
1169.275
1168.081
1166.947
1188.023
1187.183
1186.304
1185.385
1184.427
1183.429
1182.39
1181.31
1180.191
1179.033
1177.829
1176.591
1175.342
1174.099
1172.878
1171.681
1170.485
1169.303
1168.147
1167.112
1188.705
1187.907
1187.069
1186.192
1185.275
1184.319
1183.321
1182.281
1181.202
1180.083
1178.916
1177.713
1176.497
1175.279
1174.075
1172.883
1171.684
1170.496
1169.33
1168.206
1167.25
1189.391
1188.634
1187.838
1187.002
1186.127
1185.212
1184.256
1183.258
1182.219
1181.14
1180.011
1178.841
1177.654
1176.459
1175.269
1174.082
1172.883
1171.689
1170.508
1169.355
1168.26
1167.368
1190.068
1189.352
1188.597
1187.803
1186.969
1186.096
1185.182
1184.225
1183.228
1182.19
1181.098
1179.961
1178.802
1177.629
1176.452
1175.275
1174.082
1172.886
1171.695
1170.52
1169.38
1168.311
1167.47
1171.082
1169.656
1168.185
1166.62
1164.933
1172.503
1171.11
1169.688
1168.215
1166.624
1164.822
1173.93
1172.569
1171.182
1169.761
1168.273
1166.611
1164.527
1175.373
1174.047
1172.694
1171.311
1169.884
1168.361
1166.558
1163.965
1176.843
1175.554
1174.236
1172.889
1171.508
1170.066
1168.473
1166.437
1163.019
1178.329
1177.081
1175.8
1174.489
1173.146
1171.761
1170.286
1168.586
1166.215
1161.64
1179.765
1178.557
1177.315
1176.041
1174.736
1173.397
1172
1170.486
1168.666
1165.924
1160.389
1181.107
1179.94
1178.738
1177.502
1176.235
1174.935
1173.594
1172.187
1170.637
1168.708
1165.71
1159.64
1182.343
1181.218
1180.056
1178.858
1177.627
1176.365
1175.066
1173.724
1172.309
1170.732
1168.731
1165.646
1159.283
1183.471
1182.387
1181.265
1180.106
1178.913
1177.686
1176.424
1175.126
1173.784
1172.365
1170.753
1168.751
1165.692
1159.341
1184.492
1183.449
1182.367
1181.248
1180.092
1178.902
1177.675
1176.413
1175.116
1173.774
1172.323
1170.712
1168.773
1165.851
1159.788
1185.407
1184.405
1183.364
1182.284
1181.168
1180.014
1178.823
1177.596
1176.334
1175.037
1173.661
1172.203
1170.643
1168.803
1166.112
1186.22
1185.259
1184.259
1183.219
1182.141
1181.026
1179.871
1178.679
1177.451
1176.189
1174.858
1173.472
1172.056
1170.563
1168.851
1186.938
1186.018
1185.058
1184.059
1183.021
1181.944
1180.827
1179.671
1178.478
1177.249
1175.957
1174.62
1173.271
1171.904
1170.491
1187.579
1186.7
1185.78
1184.821
1183.823
1182.786
1181.708
1180.59
1179.434
1178.24
1176.988
1175.692
1174.387
1173.079
1171.77
1188.183
1187.344
1186.465
1185.547
1184.59
1183.593
1182.555
1181.476
1180.357
1179.2
1177.989
1176.731
1175.458
1174.18
1172.915
1171.687
1170.486
1169.3
1168.136
1167.063
1188.805
1188.007
1187.17
1186.293
1185.377
1184.421
1183.423
1182.385
1181.306
1180.187
1179.016
1177.799
1176.565
1175.326
1174.096
1172.889
1171.687
1170.497
1169.328
1168.199
1167.219
1189.447
1188.69
1187.894
1187.059
1186.184
1185.269
1184.313
1183.316
1182.277
1181.198
1180.066
1178.889
1177.692
1176.485
1175.281
1174.087
1172.886
1171.69
1170.508
1169.354
1168.257
1167.351
1190.093
1189.377
1188.622
1187.828
1186.994
1186.122
1185.207
1184.251
1183.253
1182.215
1181.122
1179.983
1178.819
1177.641
1176.458
1175.277
1174.084
1172.887
1171.695
1170.521
1169.38
1168.31
1167.464
1190.728
1190.054
1189.34
1188.587
1187.795
1186.964
1186.091
1185.177
1184.221
1183.224
1182.17
1181.065
1179.934
1178.782
1177.619
1176.454
1175.275
1174.083
1172.888
1171.701
1170.533
1169.404
1168.36
1167.561
1172.47
1171.077
1169.657
1168.195
1166.641
1164.966
1173.857
1172.495
1171.109
1169.694
1168.23
1166.65
1164.857
1175.247
1173.919
1172.565
1171.184
1169.77
1168.292
1166.637
1164.565
1176.651
1175.359
1174.039
1172.691
1171.315
1169.897
1168.379
1166.584
1164.008
1178.078
1176.826
1175.542
1174.229
1172.888
1171.513
1170.075
1168.487
1166.461
1163.07
1179.521
1178.31
1177.065
1175.788
1174.482
1173.145
1171.761
1170.289
1168.595
1166.235
1161.921
1180.912
1179.743
1178.538
1177.3
1176.03
1174.73
1173.391
1171.997
1170.485
1168.671
1166.018
1160.948
1182.212
1181.085
1179.921
1178.722
1177.489
1176.225
1174.926
1173.586
1172.181
1170.633
1168.722
1165.879
1160.195
1183.406
1182.321
1181.198
1180.039
1178.844
1177.617
1176.354
1175.056
1173.715
1172.302
1170.708
1168.753
1165.813
1159.797
1184.492
1183.449
1182.367
1181.248
1180.092
1178.902
1177.675
1176.413
1175.116
1173.774
1172.323
1170.712
1168.773
1165.851
1159.788
1185.471
1184.47
1183.429
1182.35
1181.234
1180.081
1178.891
1177.664
1176.403
1175.106
1173.726
1172.257
1170.678
1168.795
1165.996
1186.346
1185.386
1184.386
1183.348
1182.271
1181.157
1180.003
1178.812
1177.585
1176.324
1174.988
1173.589
1172.151
1170.62
1168.829
1187.119
1186.2
1185.241
1184.243
1183.206
1182.131
1181.016
1179.862
1178.67
1177.442
1176.143
1174.79
1173.42
1172.022
1170.553
1187.797
1186.919
1186.001
1185.043
1184.047
1183.011
1181.935
1180.818
1179.663
1178.47
1177.209
1175.897
1174.572
1173.237
1171.887
1188.399
1187.561
1186.684
1185.767
1184.811
1183.815
1182.778
1181.701
1180.583
1179.427
1178.207
1176.935
1175.649
1174.354
1173.058
1188.964
1188.166
1187.33
1186.453
1185.538
1184.583
1183.586
1182.548
1181.47
1180.352
1179.173
1177.94
1176.683
1175.411
1174.137
1172.896
1171.69
1170.497
1169.326
1168.191
1167.177
1189.546
1188.79
1187.994
1187.159
1186.284
1185.37
1184.415
1183.417
1182.379
1181.301
1180.164
1178.975
1177.761
1176.532
1175.303
1174.093
1172.89
1171.692
1170.509
1169.353
1168.252
1167.326
1190.148
1189.432
1188.678
1187.884
1187.051
1186.178
1185.264
1184.308
1183.311
1182.272
1181.177
1180.03
1178.857
1177.667
1176.47
1175.281
1174.087
1172.888
1171.696
1170.521
1169.379
1168.308
1167.452
1190.753
1190.078
1189.365
1188.612
1187.82
1186.989
1186.116
1185.202
1184.246
1183.249
1182.194
1181.086
1179.95
1178.794
1177.625
1176.456
1175.276
1174.084
1172.889
1171.701
1170.533
1169.404
1168.36
1167.557
1191.348
1190.715
1190.042
1189.33
1188.58
1187.79
1186.958
1186.086
1185.172
1184.216
1183.201
1182.13
1181.029
1179.904
1178.76
1177.613
1176.452
1175.273
1174.083
1172.891
1171.707
1170.545
1169.428
1168.408
1167.647
1173.824
1172.462
1171.076
1169.664
1168.211
1166.667
1165.001
1175.176
1173.847
1172.491
1171.111
1169.704
1168.25
1166.677
1164.892
1176.529
1175.235
1173.912
1172.564
1171.19
1169.785
1168.312
1166.664
1164.603
1177.891
1176.636
1175.35
1174.034
1172.693
1171.324
1169.909
1168.397
1166.61
1164.051
1179.274
1178.061
1176.813
1175.534
1174.226
1172.891
1171.519
1170.084
1168.501
1166.485
1163.318
1180.672
1179.501
1178.293
1177.052
1175.78
1174.479
1173.143
1171.762
1170.293
1168.604
1166.336
1162.44
1182.019
1180.89
1179.724
1178.523
1177.288
1176.023
1174.723
1173.386
1171.993
1170.485
1168.696
1166.188
1161.469
1183.275
1182.189
1181.065
1179.904
1178.709
1177.48
1176.216
1174.918
1173.579
1172.175
1170.616
1168.752
1166.042
1160.682
1184.427
1183.383
1182.301
1181.181
1180.025
1178.834
1177.606
1176.344
1175.047
1173.706
1172.263
1170.672
1168.777
1165.968
1160.23
1185.471
1184.47
1183.429
1182.35
1181.234
1180.081
1178.891
1177.664
1176.403
1175.106
1173.726
1172.257
1170.678
1168.795
1165.996
1186.409
1185.449
1184.45
1183.413
1182.337
1181.223
1180.07
1178.88
1177.653
1176.392
1175.054
1173.649
1172.201
1170.651
1168.819
1187.243
1186.325
1185.367
1184.37
1183.334
1182.26
1181.146
1179.993
1178.802
1177.575
1176.273
1174.909
1173.526
1172.108
1170.603
1187.976
1187.099
1186.182
1185.226
1184.23
1183.196
1182.121
1181.006
1179.852
1178.66
1177.394
1176.069
1174.729
1173.374
1171.993
1188.615
1187.778
1186.902
1185.986
1185.032
1184.038
1183.002
1181.926
1180.809
1179.654
1178.427
1177.143
1175.842
1174.529
1173.207
1189.178
1188.381
1187.546
1186.671
1185.756
1184.802
1183.807
1182.77
1181.693
1180.576
1179.391
1178.147
1176.883
1175.605
1174.32
1189.703
1188.947
1188.152
1187.317
1186.444
1185.53
1184.575
1183.579
1182.541
1181.463
1180.32
1179.115
1177.879
1176.621
1175.347
1174.101
1172.894
1171.694
1170.509
1169.351
1168.247
1167.291
1190.246
1189.531
1188.777
1187.983
1187.15
1186.278
1185.364
1184.408
1183.411
1182.374
1181.274
1180.114
1178.925
1177.714
1176.492
1175.288
1174.091
1172.891
1171.697
1170.521
1169.378
1168.305
1167.433
1190.808
1190.133
1189.42
1188.667
1187.876
1187.045
1186.172
1185.258
1184.302
1183.305
1182.248
1181.133
1179.987
1178.819
1177.637
1176.461
1175.279
1174.086
1172.89
1171.702
1170.533
1169.404
1168.359
1167.55
1191.372
1190.739
1190.066
1189.355
1188.604
1187.814
1186.983
1186.11
1185.196
1184.241
1183.225
1182.151
1181.046
1179.915
1178.766
1177.616
1176.454
1175.274
1174.084
1172.891
1171.707
1170.545
1169.428
1168.408
1167.646
1191.928
1191.335
1190.703
1190.032
1189.323
1188.574
1187.784
1186.953
1186.08
1185.167
1184.191
1183.156
1182.088
1180.991
1179.872
1178.748
1177.61
1176.449
1175.271
1174.083
1172.893
1171.712
1170.557
1169.451
1168.453
1167.767
1175.144
1173.814
1172.458
1171.079
1169.675
1168.231
1166.694
1165.035
1176.459
1175.165
1173.841
1172.491
1171.118
1169.72
1168.271
1166.704
1164.928
1177.772
1176.515
1175.227
1173.909
1172.567
1171.2
1169.799
1168.331
1166.69
1164.642
1179.092
1177.876
1176.625
1175.344
1174.034
1172.698
1171.332
1169.922
1168.415
1166.636
1164.264
1180.431
1179.257
1178.047
1176.804
1175.529
1174.227
1172.893
1171.524
1170.093
1168.516
1166.606
1163.83
1181.784
1180.653
1179.484
1178.28
1177.043
1175.776
1174.475
1173.141
1171.762
1170.297
1168.649
1166.529
1162.969
1183.086
1181.998
1180.872
1179.709
1178.512
1177.281
1176.015
1174.717
1173.381
1171.989
1170.481
1168.745
1166.357
1161.945
1184.298
1183.254
1182.17
1181.049
1179.891
1178.699
1177.47
1176.207
1174.909
1173.571
1172.144
1170.593
1168.785
1166.196
1161.097
1185.407
1184.405
1183.364
1182.284
1181.168
1180.014
1178.823
1177.596
1176.334
1175.037
1173.661
1172.203
1170.643
1168.803
1166.112
1186.409
1185.449
1184.45